Title t= 260.00000 step= 130000
44434
    1GLY      N    1   5.082   3.831   5.071
    1GLY    HT1    2   5.131   3.922   5.058
    1GLY    HT2    3   5.017   3.811   4.992
    1GLY    HT3    4   5.154   3.757   5.085
    1GLY     CA    5   4.990   3.838   5.198
    1GLY    HA1    6   4.934   3.929   5.182
    1GLY    HA2    7   5.047   3.843   5.290
    1GLY      C    8   4.902   3.717   5.223
    1GLY      O    9   4.938   3.602   5.183
    2PRO      N   10   4.793   3.726   5.298
    2PRO     CD   11   4.750   3.844   5.369
    2PRO    HD1   12   4.768   3.937   5.311
    2PRO    HD2   13   4.793   3.848   5.471
    2PRO     CA   14   4.691   3.621   5.304
    2PRO     HA   15   4.722   3.525   5.344
    2PRO     CB   16   4.574   3.692   5.380
    2PRO    HB1   17   4.575   3.663   5.488
    2PRO    HB2   18   4.470   3.669   5.349
    2PRO     CG   19   4.602   3.839   5.393
    2PRO    HG1   20   4.564   3.894   5.304
    2PRO    HG2   21   4.563   3.883   5.488
    2PRO      C   22   4.651   3.592   5.158
    2PRO      O   23   4.666   3.674   5.070
    3GLY      N   24   4.588   3.476   5.128
    3GLY     HN   25   4.582   3.401   5.192
    3GLY     CA   26   4.529   3.444   4.994
    3GLY    HA1   27   4.450   3.515   4.972
    3GLY    HA2   28   4.492   3.343   5.000
    3GLY      C   29   4.615   3.444   4.877
    3GLY      O   30   4.735   3.444   4.890
    4ASP      N   31   4.561   3.443   4.758
    4ASP     HN   32   4.465   3.470   4.751
    4ASP     CA   33   4.639   3.438   4.635
    4ASP     HA   34   4.722   3.370   4.646
    4ASP     CB   35   4.547   3.402   4.524
    4ASP    HB1   36   4.587   3.447   4.431
    4ASP    HB2   37   4.447   3.447   4.541
    4ASP     CG   38   4.531   3.253   4.501
    4ASP    OD1   39   4.598   3.171   4.563
    4ASP    OD2   40   4.452   3.220   4.406
    4ASP      C   41   4.713   3.573   4.611
    4ASP      O   42   4.659   3.681   4.637
    5PRO      N   43   4.841   3.577   4.568
    5PRO     CD   44   4.936   3.461   4.576
    5PRO    HD1   45   4.912   3.389   4.495
    5PRO    HD2   46   4.930   3.405   4.671
    5PRO     CA   47   4.911   3.704   4.524
    5PRO     HA   48   4.938   3.749   4.618
    5PRO     CB   49   5.038   3.643   4.457
    5PRO    HB1   50   5.118   3.719   4.458
    5PRO    HB2   51   5.016   3.613   4.352
    5PRO     CG   52   5.076   3.515   4.539
    5PRO    HG1   53   5.142   3.443   4.487
    5PRO    HG2   54   5.128   3.539   4.634
    5PRO      C   55   4.826   3.791   4.436
    5PRO      O   56   4.742   3.747   4.360
    6GLY      N   57   4.842   3.918   4.461
    6GLY     HN   58   4.917   3.945   4.520
    6GLY     CA   59   4.777   4.030   4.395
    6GLY    HA1   60   4.802   4.115   4.457
    6GLY    HA2   61   4.671   4.008   4.397
    6GLY      C   62   4.831   4.059   4.255
    6GLY      O   63   4.922   3.997   4.202
    7SER      N   64   4.775   4.164   4.187
    7SER     HN   65   4.695   4.206   4.228
    7SER     CA   66   4.810   4.207   4.053
    7SER     HA   67   4.793   4.123   3.987
    7SER     CB   68   4.723   4.321   3.999
    7SER    HB1   69   4.732   4.336   3.889
    7SER    HB2   70   4.751   4.420   4.042
    7SER     OG   71   4.583   4.302   4.031
    7SER    HG1   72   4.542   4.371   4.084
    7SER      C   73   4.952   4.249   4.027
    7SER      O   74   5.019   4.296   4.120
    8GLY      N   75   4.992   4.239   3.899
    8GLY     HN   76   4.924   4.205   3.834
    8GLY     CA   77   5.123   4.278   3.849
    8GLY    HA1   78   5.144   4.227   3.756
    8GLY    HA2   79   5.189   4.246   3.929
    8GLY      C   80   5.139   4.425   3.835
    8GLY      O   81   5.045   4.494   3.808
    9ASN      N   82   5.259   4.484   3.846
    9ASN     HN   83   5.342   4.433   3.867
    9ASN     CA   84   5.291   4.624   3.830
    9ASN     HA   85   5.235   4.694   3.891
    9ASN     CB   86   5.438   4.645   3.876
    9ASN    HB1   87   5.507   4.590   3.807
    9ASN    HB2   88   5.438   4.586   3.970
    9ASN     CG   89   5.479   4.792   3.898
    9ASN    OD1   90   5.407   4.890   3.882
    9ASN    ND2   91   5.612   4.806   3.927
    9ASN   HD21   92   5.637   4.900   3.948
    9ASN   HD22   93   5.669   4.724   3.942
    9ASN      C   94   5.284   4.669   3.687
    9ASN      O   95   5.367   4.621   3.606
   10PRO      N   96   5.194   4.758   3.643
   10PRO     CD   97   5.078   4.812   3.719
   10PRO    HD1   98   5.110   4.889   3.791
   10PRO    HD2   99   5.012   4.728   3.751
   10PRO     CA  100   5.197   4.813   3.506
   10PRO     HA  101   5.169   4.736   3.435
   10PRO     CB  102   5.097   4.935   3.498
   10PRO    HB1  103   5.061   4.949   3.394
   10PRO    HB2  104   5.139   5.031   3.535
   10PRO     CG  105   5.001   4.891   3.608
   10PRO    HG1  106   4.948   4.977   3.654
   10PRO    HG2  107   4.912   4.837   3.569
   10PRO      C  108   5.329   4.862   3.443
   10PRO      O  109   5.411   4.924   3.509
   11GLY      N  110   5.332   4.829   3.314
   11GLY     HN  111   5.258   4.788   3.261
   11GLY     CA  112   5.448   4.859   3.229
   11GLY    HA1  113   5.432   4.803   3.139
   11GLY    HA2  114   5.534   4.826   3.285
   11GLY      C  115   5.466   5.007   3.196
   11GLY      O  116   5.376   5.088   3.212
   12SER      N  117   5.584   5.023   3.143
   12SER     HN  118   5.640   4.942   3.131
   12SER     CA  119   5.632   5.148   3.093
   12SER     HA  120   5.582   5.221   3.155
   12SER     CB  121   5.783   5.154   3.112
   12SER    HB1  122   5.823   5.233   3.046
   12SER    HB2  123   5.821   5.056   3.075
   12SER     OG  124   5.839   5.160   3.245
   12SER    HG1  125   5.804   5.232   3.298
   12SER      C  126   5.595   5.164   2.941
   12SER      O  127   5.551   5.071   2.874
   13GLY      N  128   5.604   5.289   2.897
   13GLY     HN  129   5.643   5.357   2.958
   13GLY     CA  130   5.592   5.337   2.756
   13GLY    HA1  131   5.609   5.442   2.773
   13GLY    HA2  132   5.497   5.309   2.713
   13GLY      C  133   5.696   5.297   2.658
   13GLY      O  134   5.786   5.220   2.678
   14ASP      N  135   5.677   5.354   2.537
   14ASP     HN  136   5.601   5.418   2.538
   14ASP     CA  137   5.755   5.341   2.419
   14ASP     HA  138   5.755   5.235   2.399
   14ASP     CB  139   5.690   5.416   2.304
   14ASP    HB1  140   5.743   5.400   2.208
   14ASP    HB2  141   5.686   5.525   2.326
   14ASP     CG  142   5.550   5.373   2.283
   14ASP    OD1  143   5.457   5.447   2.248
   14ASP    OD2  144   5.524   5.250   2.280
   14ASP      C  145   5.903   5.374   2.436
   14ASP      O  146   5.930   5.470   2.506
   15PRO      N  147   5.995   5.312   2.366
   15PRO     CD  148   5.990   5.170   2.325
   15PRO    HD1  149   5.947   5.149   2.225
   15PRO    HD2  150   5.931   5.114   2.400
   15PRO     CA  151   6.132   5.361   2.365
   15PRO     HA  152   6.176   5.386   2.460
   15PRO     CB  153   6.218   5.249   2.301
   15PRO    HB1  154   6.321   5.247   2.342
   15PRO    HB2  155   6.227   5.270   2.192
   15PRO     CG  156   6.134   5.122   2.318
   15PRO    HG1  157   6.147   5.051   2.233
   15PRO    HG2  158   6.164   5.077   2.415
   15PRO      C  159   6.145   5.483   2.270
   15PRO    OT1  160   6.078   5.475   2.165
   15PRO    OT2  161   6.225   5.573   2.297
   16LIT    LIT  162   4.276   3.280   4.390
   17LIT    LIT  163   5.979   3.601   3.034
   18LIT    LIT  164   5.490   0.490   1.164
   19LIT    LIT  165   3.445   5.186   4.434
   20LIT    LIT  166   5.817   4.854   4.616
   21LIT    LIT  167   0.572   3.177   6.575
   22LIT    LIT  168   8.032   1.684   5.403
   23LIT    LIT  169   5.422   1.807   1.220
   24LIT    LIT  170   6.136   6.993   3.928
   25LIT    LIT  171   8.134   0.330   4.721
   26LIT    LIT  172   2.424   3.853   4.076
   27LIT    LIT  173   6.886   7.530   3.773
   28LIT    LIT  174   6.356   2.882   2.398
   29LIT    LIT  175   7.826   1.727   2.705
   30LIT    LIT  176   0.722   0.574   5.671
   31LIT    LIT  177   1.342   0.426   1.261
   32LIT    LIT  178   0.808   1.863   5.430
   33LIT    LIT  179   5.195   0.375   0.410
   34LIT    LIT  180   8.167   7.228   0.091
   35LIT    LIT  181   4.136   3.050   0.223
   36LIT    LIT  182   3.961   6.530   2.251
   37LIT    LIT  183   1.445   4.783   1.754
   38LIT    LIT  184   5.037   5.386   5.543
   39LIT    LIT  185   2.783   0.134   3.721
   40LIT    LIT  186   6.332   5.409   4.007
   41LIT    LIT  187   6.202   5.648   2.126
   42LIT    LIT  188   5.004   4.478   0.169
   43LIT    LIT  189   7.238   7.751   3.038
   44LIT    LIT  190   6.689   7.156   2.684
   45LIT    LIT  191   0.593   2.341   2.412
   46LIT    LIT  192   5.199   3.020   0.334
   47LIT    LIT  193   3.716   1.531   1.365
   48LIT    LIT  194   6.753   6.275   4.537
   49LIT    LIT  195   5.353   5.291   2.173
   50LIT    LIT  196   5.866   1.768   2.309
   51LIT    LIT  197   2.288   0.036   0.190
   52LIT    LIT  198   6.286   2.572   5.147
   53LIT    LIT  199   3.774   4.820   2.622
   54LIT    LIT  200   0.539   7.019   4.189
   55LIT    LIT  201   2.460   0.925   5.508
   56LIT    LIT  202   6.313   2.390   6.500
   57LIT    LIT  203   7.324   0.486   2.424
   58LIT    LIT  204   7.342   5.198   0.663
   59LIT    LIT  205   3.173   4.249   1.546
   60CLA    CLA  206   2.588   0.456   3.968
   61CLA    CLA  207   5.786   4.655   4.737
   62CLA    CLA  208   6.088   5.316   1.242
   63CLA    CLA  209   8.007   2.939   1.387
   64CLA    CLA  210   6.050   6.577   4.065
   65CLA    CLA  211   0.019   7.503   1.534
   66CLA    CLA  212   3.055   0.780   5.628
   67CLA    CLA  213   2.564   5.624   0.560
   68CLA    CLA  214   6.045   1.740   4.195
   69CLA    CLA  215   1.145   2.468   4.951
   70CLA    CLA  216   5.075   5.866   0.575
   71CLA    CLA  217   2.087   1.095   5.351
   72CLA    CLA  218   8.013   3.095   2.480
   73CLA    CLA  219   3.275   3.806   4.058
   74CLA    CLA  220   3.933   4.485   1.597
   75CLA    CLA  221   4.787   2.606   3.490
   76CLA    CLA  222   3.877   4.652   4.290
   77CLA    CLA  223   2.367   2.405   6.148
   78CLA    CLA  224   0.989   2.420   0.101
   79CLA    CLA  225   6.842   7.594   0.079
   80CLA    CLA  226   4.535   0.121   0.740
   81CLA    CLA  227   7.252   0.281   2.345
   82CLA    CLA  228   6.626   1.714   5.211
   83CLA    CLA  229   0.018   3.296   5.190
   84CLA    CLA  230   5.621   1.652   6.229
   85CLA    CLA  231   8.206   4.640   6.461
   86CLA    CLA  232   6.530   4.271   2.393
   87CLA    CLA  233   0.066   5.651   1.498
   88CLA    CLA  234   0.551   6.443   3.220
   89CLA    CLA  235   6.458   5.360   5.921
   90CLA    CLA  236   7.997   7.760   2.191
   91CLA    CLA  237   2.816   7.775   1.463
   92CLA    CLA  238   3.734   5.588   6.687
   93CLA    CLA  239   4.318   1.544   3.585
   94CLA    CLA  240   1.306   0.751   0.389
   95CLA    CLA  241   7.159   5.266   0.807
   96CLA    CLA  242   8.113   0.221   4.924
   97CLA    CLA  243   5.706   4.338   3.674
   98CLA    CLA  244   1.598   4.593   6.036
   99CLA    CLA  245   4.840   4.040   0.094
  100CLA    CLA  246   1.971   5.155   2.307
  101CLA    CLA  247   7.174   2.106   0.331
  102TIP3   OH2  248   4.510   2.250   3.585
  102TIP3    H1  249   4.473   2.201   3.511
  102TIP3    H2  250   4.452   2.230   3.659
  103TIP3   OH2  251   4.308   7.069   5.714
  103TIP3    H1  252   4.273   7.099   5.630
  103TIP3    H2  253   4.327   6.976   5.701
  104TIP3   OH2  254   2.711   1.579   5.343
  104TIP3    H1  255   2.641   1.518   5.366
  104TIP3    H2  256   2.746   1.544   5.261
  105TIP3   OH2  257   3.774   6.576   2.241
  105TIP3    H1  258   3.718   6.651   2.258
  105TIP3    H2  259   3.713   6.503   2.228
  106TIP3   OH2  260   5.118   0.225   0.530
  106TIP3    H1  261   5.105   0.131   0.533
  106TIP3    H2  262   5.075   0.258   0.609
  107TIP3   OH2  263   5.329   2.782   0.816
  107TIP3    H1  264   5.296   2.849   0.877
  107TIP3    H2  265   5.418   2.811   0.795
  108TIP3   OH2  266   3.516   6.829   6.165
  108TIP3    H1  267   3.607   6.857   6.169
  108TIP3    H2  268   3.513   6.748   6.216
  109TIP3   OH2  269   4.580   1.050   2.594
  109TIP3    H1  270   4.531   1.011   2.666
  109TIP3    H2  271   4.658   0.996   2.586
  110TIP3   OH2  272   7.912   2.553   1.081
  110TIP3    H1  273   7.864   2.585   1.157
  110TIP3    H2  274   7.858   2.581   1.006
  111TIP3   OH2  275   7.501   4.448   5.647
  111TIP3    H1  276   7.445   4.408   5.581
  111TIP3    H2  277   7.568   4.494   5.596
  112TIP3   OH2  278   3.810   4.795   5.123
  112TIP3    H1  279   3.725   4.832   5.146
  112TIP3    H2  280   3.833   4.837   5.040
  113TIP3   OH2  281   6.202   3.576   0.140
  113TIP3    H1  282   6.246   3.491   0.149
  113TIP3    H2  283   6.260   3.628   0.085
  114TIP3   OH2  284   4.552   7.115   1.570
  114TIP3    H1  285   4.596   7.105   1.654
  114TIP3    H2  286   4.495   7.039   1.563
  115TIP3   OH2  287   7.447   1.463   1.958
  115TIP3    H1  288   7.442   1.369   1.945
  115TIP3    H2  289   7.368   1.498   1.917
  116TIP3   OH2  290   3.392   1.912   3.089
  116TIP3    H1  291   3.384   1.856   3.166
  116TIP3    H2  292   3.306   1.906   3.046
  117TIP3   OH2  293   2.620   5.507   4.852
  117TIP3    H1  294   2.541   5.459   4.877
  117TIP3    H2  295   2.686   5.439   4.838
  118TIP3   OH2  296   4.439   0.237   6.683
  118TIP3    H1  297   4.382   0.313   6.673
  118TIP3    H2  298   4.496   0.259   6.757
  119TIP3   OH2  299   1.388   4.059   1.776
  119TIP3    H1  300   1.420   4.080   1.864
  119TIP3    H2  301   1.293   4.060   1.784
  120TIP3   OH2  302   0.549   5.841   4.735
  120TIP3    H1  303   0.525   5.890   4.814
  120TIP3    H2  304   0.516   5.894   4.663
  121TIP3   OH2  305   1.277   2.856   2.893
  121TIP3    H1  306   1.287   2.780   2.835
  121TIP3    H2  307   1.347   2.845   2.958
  122TIP3   OH2  308   0.804   4.435   0.250
  122TIP3    H1  309   0.777   4.522   0.222
  122TIP3    H2  310   0.860   4.403   0.179
  123TIP3   OH2  311   6.143   5.746   2.493
  123TIP3    H1  312   6.145   5.675   2.429
  123TIP3    H2  313   6.101   5.708   2.571
  124TIP3   OH2  314   4.399   6.546   2.958
  124TIP3    H1  315   4.460   6.518   2.890
  124TIP3    H2  316   4.334   6.476   2.961
  125TIP3   OH2  317   7.770   3.271   3.349
  125TIP3    H1  318   7.807   3.323   3.278
  125TIP3    H2  319   7.796   3.181   3.329
  126TIP3   OH2  320   0.059   0.455   0.457
  126TIP3    H1  321  -0.005   0.395   0.417
  126TIP3    H2  322   0.013   0.539   0.463
  127TIP3   OH2  323   6.525   0.610   3.251
  127TIP3    H1  324   6.566   0.601   3.165
  127TIP3    H2  325   6.567   0.542   3.304
  128TIP3   OH2  326   2.452   3.012   6.369
  128TIP3    H1  327   2.480   3.102   6.354
  128TIP3    H2  328   2.442   3.004   6.464
  129TIP3   OH2  329   8.128   6.246   0.014
  129TIP3    H1  330   8.217   6.240   0.049
  129TIP3    H2  331   8.072   6.232   0.090
  130TIP3   OH2  332   7.465   1.685   0.181
  130TIP3    H1  333   7.550   1.727   0.193
  130TIP3    H2  334   7.416   1.705   0.261
  131TIP3   OH2  335   0.192   4.553   0.494
  131TIP3    H1  336   0.258   4.605   0.449
  131TIP3    H2  337   0.240   4.508   0.564
  132TIP3   OH2  338   1.175   4.994   4.500
  132TIP3    H1  339   1.129   4.911   4.512
  132TIP3    H2  340   1.136   5.031   4.420
  133TIP3   OH2  341   6.441   1.177   5.170
  133TIP3    H1  342   6.478   1.255   5.129
  133TIP3    H2  343   6.456   1.107   5.105
  134TIP3   OH2  344   2.989   1.744   5.704
  134TIP3    H1  345   3.010   1.832   5.737
  134TIP3    H2  346   2.901   1.754   5.665
  135TIP3   OH2  347   7.258   1.879   5.187
  135TIP3    H1  348   7.238   1.838   5.271
  135TIP3    H2  349   7.311   1.955   5.209
  136TIP3   OH2  350   6.008   2.502   2.960
  136TIP3    H1  351   5.975   2.588   2.934
  136TIP3    H2  352   6.061   2.518   3.037
  137TIP3   OH2  353   1.523   2.343   4.893
  137TIP3    H1  354   1.559   2.277   4.952
  137TIP3    H2  355   1.432   2.353   4.921
  138TIP3   OH2  356   2.510   6.788   6.297
  138TIP3    H1  357   2.524   6.704   6.253
  138TIP3    H2  358   2.424   6.780   6.337
  139TIP3   OH2  359   3.817   5.246   6.036
  139TIP3    H1  360   3.774   5.291   6.109
  139TIP3    H2  361   3.776   5.160   6.032
  140TIP3   OH2  362   2.274   5.728   5.064
  140TIP3    H1  363   2.304   5.659   5.122
  140TIP3    H2  364   2.293   5.809   5.111
  141TIP3   OH2  365   3.408   6.238   2.969
  141TIP3    H1  366   3.325   6.281   2.990
  141TIP3    H2  367   3.464   6.309   2.937
  142TIP3   OH2  368   2.331   4.463   2.470
  142TIP3    H1  369   2.305   4.486   2.559
  142TIP3    H2  370   2.382   4.383   2.479
  143TIP3   OH2  371   6.033   1.791   2.411
  143TIP3    H1  372   6.113   1.745   2.387
  143TIP3    H2  373   6.061   1.859   2.472
  144TIP3   OH2  374   5.606   7.165   4.744
  144TIP3    H1  375   5.651   7.083   4.724
  144TIP3    H2  376   5.533   7.168   4.683
  145TIP3   OH2  377   0.111   3.254   5.932
  145TIP3    H1  378   0.154   3.288   5.854
  145TIP3    H2  379   0.065   3.175   5.902
  146TIP3   OH2  380   5.378   0.646   1.870
  146TIP3    H1  381   5.379   0.656   1.965
  146TIP3    H2  382   5.302   0.696   1.841
  147TIP3   OH2  383   4.902   1.207   2.870
  147TIP3    H1  384   4.813   1.191   2.901
  147TIP3    H2  385   4.957   1.189   2.947
  148TIP3   OH2  386   8.140   2.608   3.641
  148TIP3    H1  387   8.205   2.621   3.709
  148TIP3    H2  388   8.173   2.535   3.589
  149TIP3   OH2  389   3.208   4.270   0.697
  149TIP3    H1  390   3.175   4.189   0.737
  149TIP3    H2  391   3.261   4.241   0.623
  150TIP3   OH2  392   6.407   2.432   5.115
  150TIP3    H1  393   6.421   2.359   5.056
  150TIP3    H2  394   6.494   2.467   5.131
  151TIP3   OH2  395   6.651   7.729   0.722
  151TIP3    H1  396   6.704   7.766   0.652
  151TIP3    H2  397   6.686   7.768   0.802
  152TIP3   OH2  398   5.921   3.896   6.131
  152TIP3    H1  399   5.858   3.824   6.126
  152TIP3    H2  400   5.878   3.962   6.184
  153TIP3   OH2  401   7.292   1.819   1.136
  153TIP3    H1  402   7.345   1.885   1.091
  153TIP3    H2  403   7.202   1.850   1.129
  154TIP3   OH2  404   6.814   6.057   0.989
  154TIP3    H1  405   6.843   5.971   0.957
  154TIP3    H2  406   6.881   6.082   1.053
  155TIP3   OH2  407   4.055   5.772   3.067
  155TIP3    H1  408   3.988   5.723   3.020
  155TIP3    H2  409   4.133   5.718   3.060
  156TIP3   OH2  410   0.089   2.135   0.279
  156TIP3    H1  411   0.033   2.195   0.229
  156TIP3    H2  412   0.131   2.191   0.344
  157TIP3   OH2  413   3.226   1.955   6.056
  157TIP3    H1  414   3.243   1.955   5.962
  157TIP3    H2  415   3.234   2.047   6.082
  158TIP3   OH2  416   4.384   7.300   4.112
  158TIP3    H1  417   4.392   7.395   4.112
  158TIP3    H2  418   4.297   7.283   4.075
  159TIP3   OH2  419   2.274   4.666   6.419
  159TIP3    H1  420   2.198   4.651   6.363
  159TIP3    H2  421   2.323   4.584   6.417
  160TIP3   OH2  422   1.808   2.422   3.440
  160TIP3    H1  423   1.797   2.488   3.371
  160TIP3    H2  424   1.888   2.448   3.486
  161TIP3   OH2  425   3.009   1.381   4.930
  161TIP3    H1  426   3.084   1.325   4.910
  161TIP3    H2  427   2.935   1.337   4.889
  162TIP3   OH2  428   6.765   5.209   2.495
  162TIP3    H1  429   6.809   5.223   2.578
  162TIP3    H2  430   6.814   5.263   2.432
  163TIP3   OH2  431   0.631   3.675   2.190
  163TIP3    H1  432   0.712   3.653   2.143
  163TIP3    H2  433   0.607   3.761   2.156
  164TIP3   OH2  434   7.722   3.317   5.871
  164TIP3    H1  435   7.733   3.274   5.786
  164TIP3    H2  436   7.722   3.411   5.850
  165TIP3   OH2  437   2.060   1.407   0.495
  165TIP3    H1  438   1.976   1.420   0.452
  165TIP3    H2  439   2.111   1.353   0.434
  166TIP3   OH2  440   2.891   0.009   1.137
  166TIP3    H1  441   2.825  -0.043   1.183
  166TIP3    H2  442   2.890   0.094   1.183
  167TIP3   OH2  443   1.025   0.604   0.354
  167TIP3    H1  444   1.090   0.658   0.399
  167TIP3    H2  445   1.078   0.537   0.309
  168TIP3   OH2  446   5.607   2.840   1.174
  168TIP3    H1  447   5.639   2.902   1.240
  168TIP3    H2  448   5.654   2.864   1.094
  169TIP3   OH2  449   3.786   7.761   6.359
  169TIP3    H1  450   3.844   7.744   6.433
  169TIP3    H2  451   3.837   7.735   6.282
  170TIP3   OH2  452   3.835   0.046   0.487
  170TIP3    H1  453   3.799   0.135   0.476
  170TIP3    H2  454   3.929   0.058   0.478
  171TIP3   OH2  455   5.775   0.593   4.811
  171TIP3    H1  456   5.803   0.684   4.798
  171TIP3    H2  457   5.691   0.587   4.765
  172TIP3   OH2  458   8.063   0.248   5.373
  172TIP3    H1  459   8.016   0.271   5.453
  172TIP3    H2  460   8.008   0.281   5.302
  173TIP3   OH2  461   3.222   0.404   1.607
  173TIP3    H1  462   3.137   0.370   1.634
  173TIP3    H2  463   3.232   0.485   1.658
  174TIP3   OH2  464   6.573   0.779   4.236
  174TIP3    H1  465   6.512   0.726   4.288
  174TIP3    H2  466   6.634   0.715   4.200
  175TIP3   OH2  467   6.107   5.550   0.279
  175TIP3    H1  468   6.089   5.474   0.225
  175TIP3    H2  469   6.047   5.541   0.354
  176TIP3   OH2  470   4.390   0.704   5.031
  176TIP3    H1  471   4.474   0.743   5.008
  176TIP3    H2  472   4.327   0.744   4.971
  177TIP3   OH2  473   7.427   2.385   1.433
  177TIP3    H1  474   7.394   2.426   1.513
  177TIP3    H2  475   7.453   2.459   1.377
  178TIP3   OH2  476   7.602   5.219   5.122
  178TIP3    H1  477   7.566   5.136   5.091
  178TIP3    H2  478   7.677   5.194   5.176
  179TIP3   OH2  479   4.847   6.980   0.918
  179TIP3    H1  480   4.867   6.917   0.988
  179TIP3    H2  481   4.793   7.046   0.960
  180TIP3   OH2  482   2.543   7.729   5.461
  180TIP3    H1  483   2.510   7.653   5.415
  180TIP3    H2  484   2.629   7.703   5.494
  181TIP3   OH2  485   3.884   1.996   3.187
  181TIP3    H1  486   3.806   2.007   3.132
  181TIP3    H2  487   3.898   2.083   3.226
  182TIP3   OH2  488   0.056   4.371   6.404
  182TIP3    H1  489   0.082   4.348   6.315
  182TIP3    H2  490   0.018   4.459   6.396
  183TIP3   OH2  491   6.170   2.266   2.734
  183TIP3    H1  492   6.103   2.227   2.790
  183TIP3    H2  493   6.245   2.279   2.792
  184TIP3   OH2  494   4.535   0.633   2.710
  184TIP3    H1  495   4.531   0.564   2.777
  184TIP3    H2  496   4.491   0.595   2.634
  185TIP3   OH2  497   6.971   1.597   0.530
  185TIP3    H1  498   7.020   1.517   0.511
  185TIP3    H2  499   7.023   1.667   0.490
  186TIP3   OH2  500   4.868   1.999   2.955
  186TIP3    H1  501   4.956   2.027   2.979
  186TIP3    H2  502   4.813   2.076   2.969
  187TIP3   OH2  503   2.142   6.024   6.213
  187TIP3    H1  504   2.199   5.981   6.277
  187TIP3    H2  505   2.054   5.995   6.235
  188TIP3   OH2  506   3.730   0.823   3.812
  188TIP3    H1  507   3.660   0.820   3.877
  188TIP3    H2  508   3.754   0.915   3.805
  189TIP3   OH2  509   3.914   0.626   0.571
  189TIP3    H1  510   3.847   0.675   0.617
  189TIP3    H2  511   3.990   0.685   0.569
  190TIP3   OH2  512   1.237   5.374   0.624
  190TIP3    H1  513   1.274   5.420   0.550
  190TIP3    H2  514   1.311   5.359   0.683
  191TIP3   OH2  515   7.612   0.729   6.409
  191TIP3    H1  516   7.652   0.656   6.360
  191TIP3    H2  517   7.540   0.688   6.457
  192TIP3   OH2  518   4.238   0.065   5.931
  192TIP3    H1  519   4.222   0.066   5.836
  192TIP3    H2  520   4.150   0.072   5.970
  193TIP3   OH2  521   1.781   5.791   3.526
  193TIP3    H1  522   1.689   5.812   3.512
  193TIP3    H2  523   1.801   5.827   3.612
  194TIP3   OH2  524   4.073   3.638   2.710
  194TIP3    H1  525   4.067   3.731   2.731
  194TIP3    H2  526   4.147   3.632   2.649
  195TIP3   OH2  527   1.560   2.736   3.851
  195TIP3    H1  528   1.594   2.724   3.940
  195TIP3    H2  529   1.624   2.795   3.809
  196TIP3   OH2  530   7.723   4.242   5.054
  196TIP3    H1  531   7.631   4.226   5.038
  196TIP3    H2  532   7.768   4.200   4.981
  197TIP3   OH2  533   5.898   6.952   0.323
  197TIP3    H1  534   5.923   6.991   0.407
  197TIP3    H2  535   5.979   6.952   0.271
  198TIP3   OH2  536   4.930   6.973   4.557
  198TIP3    H1  537   5.015   6.985   4.600
  198TIP3    H2  538   4.899   7.062   4.539
  199TIP3   OH2  539   0.144   6.167   5.920
  199TIP3    H1  540   0.075   6.108   5.889
  199TIP3    H2  541   0.219   6.110   5.935
  200TIP3   OH2  542   1.418   7.380   6.127
  200TIP3    H1  543   1.477   7.341   6.192
  200TIP3    H2  544   1.333   7.340   6.145
  201TIP3   OH2  545   2.569   5.616   2.597
  201TIP3    H1  546   2.561   5.686   2.662
  201TIP3    H2  547   2.640   5.560   2.630
  202TIP3   OH2  548   6.770   2.922   5.479
  202TIP3    H1  549   6.803   2.937   5.568
  202TIP3    H2  550   6.676   2.938   5.485
  203TIP3   OH2  551   7.524   4.049   3.079
  203TIP3    H1  552   7.538   3.999   3.160
  203TIP3    H2  553   7.436   4.025   3.051
  204TIP3   OH2  554   5.417   0.540   4.343
  204TIP3    H1  555   5.404   0.525   4.437
  204TIP3    H2  556   5.479   0.473   4.317
  205TIP3   OH2  557   1.994   0.565   5.930
  205TIP3    H1  558   1.991   0.640   5.990
  205TIP3    H2  559   2.051   0.502   5.974
  206TIP3   OH2  560   6.026   1.914   5.211
  206TIP3    H1  561   5.950   1.956   5.251
  206TIP3    H2  562   5.991   1.833   5.174
  207TIP3   OH2  563   6.661   1.227   5.997
  207TIP3    H1  564   6.754   1.249   6.000
  207TIP3    H2  565   6.658   1.133   5.979
  208TIP3   OH2  566   2.652   6.152   2.316
  208TIP3    H1  567   2.687   6.091   2.381
  208TIP3    H2  568   2.636   6.233   2.365
  209TIP3   OH2  569   5.084   2.999   4.004
  209TIP3    H1  570   5.159   3.057   3.988
  209TIP3    H2  571   5.027   3.014   3.928
  210TIP3   OH2  572   2.261   7.184   3.855
  210TIP3    H1  573   2.207   7.236   3.796
  210TIP3    H2  574   2.343   7.233   3.863
  211TIP3   OH2  575   2.340   2.926   5.837
  211TIP3    H1  576   2.332   2.956   5.928
  211TIP3    H2  577   2.340   2.831   5.844
  212TIP3   OH2  578   3.669   3.920   0.607
  212TIP3    H1  579   3.660   3.920   0.703
  212TIP3    H2  580   3.625   3.840   0.579
  213TIP3   OH2  581   5.802   4.028   3.096
  213TIP3    H1  582   5.748   4.010   3.173
  213TIP3    H2  583   5.837   4.116   3.112
  214TIP3   OH2  584   7.767   5.564   6.054
  214TIP3    H1  585   7.772   5.468   6.054
  214TIP3    H2  586   7.721   5.585   6.135
  215TIP3   OH2  587   7.459   6.721   4.500
  215TIP3    H1  588   7.364   6.713   4.489
  215TIP3    H2  589   7.473   6.714   4.594
  216TIP3   OH2  590   2.456   0.054   5.230
  216TIP3    H1  591   2.399   0.061   5.154
  216TIP3    H2  592   2.414  -0.012   5.286
  217TIP3   OH2  593   7.367   4.511   6.214
  217TIP3    H1  594   7.395   4.428   6.255
  217TIP3    H2  595   7.428   4.576   6.248
  218TIP3   OH2  596   5.384   1.788   3.540
  218TIP3    H1  597   5.348   1.868   3.577
  218TIP3    H2  598   5.365   1.721   3.607
  219TIP3   OH2  599   0.550   5.271   5.283
  219TIP3    H1  600   0.541   5.359   5.246
  219TIP3    H2  601   0.472   5.259   5.336
  220TIP3   OH2  602   1.806   2.423   6.753
  220TIP3    H1  603   1.868   2.349   6.753
  220TIP3    H2  604   1.728   2.389   6.796
  221TIP3   OH2  605   5.654   2.107   2.455
  221TIP3    H1  606   5.676   2.015   2.469
  221TIP3    H2  607   5.738   2.152   2.458
  222TIP3   OH2  608   4.538   2.683   3.287
  222TIP3    H1  609   4.477   2.620   3.325
  222TIP3    H2  610   4.623   2.662   3.326
  223TIP3   OH2  611   5.196   7.812   3.904
  223TIP3    H1  612   5.272   7.758   3.885
  223TIP3    H2  613   5.123   7.750   3.906
  224TIP3   OH2  614   0.367   2.842   2.573
  224TIP3    H1  615   0.453   2.812   2.545
  224TIP3    H2  616   0.313   2.763   2.573
  225TIP3   OH2  617   1.184   1.527   0.518
  225TIP3    H1  618   1.134   1.481   0.585
  225TIP3    H2  619   1.127   1.530   0.442
  226TIP3   OH2  620   4.924   2.286   4.731
  226TIP3    H1  621   4.983   2.341   4.680
  226TIP3    H2  622   4.973   2.205   4.745
  227TIP3   OH2  623   4.991   6.354   0.764
  227TIP3    H1  624   5.069   6.344   0.709
  227TIP3    H2  625   4.931   6.285   0.733
  228TIP3   OH2  626   0.345   2.393   5.601
  228TIP3    H1  627   0.283   2.410   5.530
  228TIP3    H2  628   0.424   2.360   5.556
  229TIP3   OH2  629   7.615   1.678   5.389
  229TIP3    H1  630   7.607   1.756   5.334
  229TIP3    H2  631   7.526   1.661   5.420
  230TIP3   OH2  632   3.588   4.615   5.023
  230TIP3    H1  633   3.538   4.690   4.990
  230TIP3    H2  634   3.676   4.650   5.037
  231TIP3   OH2  635   5.834   0.114   0.151
  231TIP3    H1  636   5.864   0.168   0.079
  231TIP3    H2  637   5.799   0.175   0.215
  232TIP3   OH2  638   4.750   1.130   5.185
  232TIP3    H1  639   4.794   1.215   5.184
  232TIP3    H2  640   4.797   1.080   5.253
  233TIP3   OH2  641   1.168   4.484   3.716
  233TIP3    H1  642   1.213   4.440   3.789
  233TIP3    H2  643   1.204   4.443   3.637
  234TIP3   OH2  644   0.776   7.169   5.719
  234TIP3    H1  645   0.752   7.188   5.810
  234TIP3    H2  646   0.702   7.121   5.684
  235TIP3   OH2  647   7.556   5.627   1.936
  235TIP3    H1  648   7.499   5.679   1.880
  235TIP3    H2  649   7.548   5.668   2.022
  236TIP3   OH2  650   0.431   4.656   0.353
  236TIP3    H1  651   0.475   4.693   0.276
  236TIP3    H2  652   0.494   4.594   0.389
  237TIP3   OH2  653   4.552   4.523   5.487
  237TIP3    H1  654   4.471   4.565   5.513
  237TIP3    H2  655   4.574   4.465   5.560
  238TIP3   OH2  656   5.333   6.879   1.940
  238TIP3    H1  657   5.422   6.872   1.976
  238TIP3    H2  658   5.335   6.959   1.888
  239TIP3   OH2  659   0.779   4.334   6.374
  239TIP3    H1  660   0.824   4.289   6.445
  239TIP3    H2  661   0.843   4.336   6.302
  240TIP3   OH2  662   0.891   0.394   0.559
  240TIP3    H1  663   0.893   0.489   0.545
  240TIP3    H2  664   0.976   0.364   0.527
  241TIP3   OH2  665   6.150   3.146   1.447
  241TIP3    H1  666   6.211   3.169   1.517
  241TIP3    H2  667   6.161   3.215   1.382
  242TIP3   OH2  668   0.479   3.198   0.542
  242TIP3    H1  669   0.472   3.133   0.471
  242TIP3    H2  670   0.545   3.260   0.512
  243TIP3   OH2  671   7.174   6.941   6.083
  243TIP3    H1  672   7.213   6.854   6.085
  243TIP3    H2  673   7.243   6.998   6.048
  244TIP3   OH2  674   7.084   6.845   3.045
  244TIP3    H1  675   7.053   6.762   3.006
  244TIP3    H2  676   7.115   6.820   3.132
  245TIP3   OH2  677   4.651   6.444   3.984
  245TIP3    H1  678   4.567   6.470   4.024
  245TIP3    H2  679   4.647   6.482   3.896
  246TIP3   OH2  680   2.909   3.111   2.916
  246TIP3    H1  681   2.964   3.164   2.974
  246TIP3    H2  682   2.923   3.021   2.946
  247TIP3   OH2  683   7.197   6.512   5.730
  247TIP3    H1  684   7.239   6.583   5.780
  247TIP3    H2  685   7.262   6.442   5.727
  248TIP3   OH2  686   3.581   1.867   2.032
  248TIP3    H1  687   3.643   1.805   2.071
  248TIP3    H2  688   3.498   1.820   2.030
  249TIP3   OH2  689   1.801   5.665   0.800
  249TIP3    H1  690   1.880   5.716   0.822
  249TIP3    H2  691   1.795   5.672   0.705
  250TIP3   OH2  692   2.808   0.222   4.576
  250TIP3    H1  693   2.791   0.305   4.531
  250TIP3    H2  694   2.861   0.172   4.515
  251TIP3   OH2  695   5.750   1.299   1.362
  251TIP3    H1  696   5.784   1.244   1.291
  251TIP3    H2  697   5.807   1.281   1.436
  252TIP3   OH2  698   2.724   5.676   3.873
  252TIP3    H1  699   2.767   5.711   3.951
  252TIP3    H2  700   2.779   5.706   3.800
  253TIP3   OH2  701   6.510   4.234   1.065
  253TIP3    H1  702   6.600   4.231   1.099
  253TIP3    H2  703   6.467   4.302   1.118
  254TIP3   OH2  704   7.222   5.128   1.819
  254TIP3    H1  705   7.274   5.058   1.857
  254TIP3    H2  706   7.258   5.209   1.856
  255TIP3   OH2  707   1.985   5.299   5.696
  255TIP3    H1  708   1.930   5.378   5.698
  255TIP3    H2  709   2.033   5.306   5.614
  256TIP3   OH2  710   3.404   7.724   1.527
  256TIP3    H1  711   3.335   7.659   1.533
  256TIP3    H2  712   3.399   7.772   1.610
  257TIP3   OH2  713   6.667   4.932   0.694
  257TIP3    H1  714   6.723   4.895   0.762
  257TIP3    H2  715   6.694   5.024   0.689
  258TIP3   OH2  716   2.028   6.107   3.919
  258TIP3    H1  717   2.062   6.196   3.915
  258TIP3    H2  718   2.089   6.055   3.866
  259TIP3   OH2  719   5.994   4.959   1.165
  259TIP3    H1  720   5.933   4.886   1.164
  259TIP3    H2  721   5.963   5.018   1.096
  260TIP3   OH2  722   1.398   2.646   5.063
  260TIP3    H1  723   1.325   2.595   5.027
  260TIP3    H2  724   1.446   2.676   4.986
  261TIP3   OH2  725   7.044   1.824   0.433
  261TIP3    H1  726   7.114   1.890   0.427
  261TIP3    H2  727   6.999   1.829   0.349
  262TIP3   OH2  728   1.655   4.323   6.727
  262TIP3    H1  729   1.696   4.340   6.642
  262TIP3    H2  730   1.724   4.341   6.790
  263TIP3   OH2  731   4.946   3.300   4.233
  263TIP3    H1  732   4.877   3.366   4.238
  263TIP3    H2  733   4.944   3.257   4.319
  264TIP3   OH2  734   4.339   2.497   6.155
  264TIP3    H1  735   4.327   2.424   6.095
  264TIP3    H2  736   4.359   2.572   6.099
  265TIP3   OH2  737   1.680   4.514   2.389
  265TIP3    H1  738   1.737   4.530   2.314
  265TIP3    H2  739   1.621   4.589   2.392
  266TIP3   OH2  740   0.953   2.493   3.754
  266TIP3    H1  741   0.938   2.548   3.677
  266TIP3    H2  742   1.037   2.451   3.738
  267TIP3   OH2  743   2.131   5.975   4.506
  267TIP3    H1  744   2.169   5.894   4.473
  267TIP3    H2  745   2.090   5.950   4.589
  268TIP3   OH2  746   7.473   5.503   4.965
  268TIP3    H1  747   7.425   5.502   5.048
  268TIP3    H2  748   7.564   5.487   4.990
  269TIP3   OH2  749   6.777   3.361   0.259
  269TIP3    H1  750   6.722   3.388   0.185
  269TIP3    H2  751   6.866   3.387   0.233
  270TIP3   OH2  752   7.862   1.559   1.790
  270TIP3    H1  753   7.937   1.581   1.845
  270TIP3    H2  754   7.828   1.644   1.761
  271TIP3   OH2  755   7.053   3.324   4.996
  271TIP3    H1  756   7.092   3.318   4.909
  271TIP3    H2  757   7.016   3.237   5.012
  272TIP3   OH2  758   3.875   1.014   5.851
  272TIP3    H1  759   3.946   1.031   5.914
  272TIP3    H2  760   3.853   0.922   5.865
  273TIP3   OH2  761   0.160   0.875   1.765
  273TIP3    H1  762   0.126   0.881   1.676
  273TIP3    H2  763   0.134   0.788   1.795
  274TIP3   OH2  764   3.824   7.090   3.312
  274TIP3    H1  765   3.745   7.106   3.363
  274TIP3    H2  766   3.813   7.145   3.234
  275TIP3   OH2  767   2.042   1.603   6.283
  275TIP3    H1  768   2.098   1.665   6.235
  275TIP3    H2  769   1.960   1.604   6.234
  276TIP3   OH2  770   8.276   2.701   6.219
  276TIP3    H1  771   8.262   2.795   6.203
  276TIP3    H2  772   8.192   2.669   6.252
  277TIP3   OH2  773   1.875   0.560   4.072
  277TIP3    H1  774   1.866   0.558   4.167
  277TIP3    H2  775   1.969   0.552   4.057
  278TIP3   OH2  776   4.747   0.538   6.800
  278TIP3    H1  777   4.788   0.499   6.723
  278TIP3    H2  778   4.684   0.601   6.765
  279TIP3   OH2  779   4.309   2.308   2.920
  279TIP3    H1  780   4.318   2.395   2.880
  279TIP3    H2  781   4.245   2.264   2.865
  280TIP3   OH2  782   8.051   2.202   3.862
  280TIP3    H1  783   8.052   2.131   3.926
  280TIP3    H2  784   7.999   2.167   3.789
  281TIP3   OH2  785   0.506   4.280   6.140
  281TIP3    H1  786   0.573   4.212   6.132
  281TIP3    H2  787   0.426   4.237   6.111
  282TIP3   OH2  788   3.940   1.402   3.740
  282TIP3    H1  789   3.882   1.467   3.699
  282TIP3    H2  790   3.993   1.453   3.802
  283TIP3   OH2  791   6.405   2.130   1.319
  283TIP3    H1  792   6.384   2.138   1.226
  283TIP3    H2  793   6.481   2.071   1.322
  284TIP3   OH2  794   7.445   4.158   4.016
  284TIP3    H1  795   7.517   4.178   3.957
  284TIP3    H2  796   7.413   4.072   3.988
  285TIP3   OH2  797   2.091   4.530   1.883
  285TIP3    H1  798   2.078   4.527   1.788
  285TIP3    H2  799   2.002   4.538   1.919
  286TIP3   OH2  800   6.197   5.462   6.032
  286TIP3    H1  801   6.158   5.486   5.948
  286TIP3    H2  802   6.279   5.419   6.008
  287TIP3   OH2  803   6.087   1.287   4.412
  287TIP3    H1  804   6.032   1.274   4.335
  287TIP3    H2  805   6.077   1.380   4.433
  288TIP3   OH2  806   5.102   4.249   4.895
  288TIP3    H1  807   5.166   4.230   4.964
  288TIP3    H2  808   5.033   4.299   4.939
  289TIP3   OH2  809   5.533   6.257   0.670
  289TIP3    H1  810   5.585   6.337   0.672
  289TIP3    H2  811   5.591   6.190   0.705
  290TIP3   OH2  812   6.135   5.443   5.192
  290TIP3    H1  813   6.164   5.465   5.280
  290TIP3    H2  814   6.058   5.498   5.177
  291TIP3   OH2  815   7.775   3.818   1.570
  291TIP3    H1  816   7.863   3.803   1.603
  291TIP3    H2  817   7.721   3.754   1.616
  292TIP3   OH2  818   7.075   0.315   4.478
  292TIP3    H1  819   7.071   0.409   4.461
  292TIP3    H2  820   7.135   0.281   4.411
  293TIP3   OH2  821   8.146   5.595   1.723
  293TIP3    H1  822   8.223   5.618   1.671
  293TIP3    H2  823   8.181   5.543   1.796
  294TIP3   OH2  824   6.434   0.258   6.149
  294TIP3    H1  825   6.474   0.228   6.231
  294TIP3    H2  826   6.401   0.178   6.109
  295TIP3   OH2  827   2.005   7.164   5.871
  295TIP3    H1  828   1.944   7.183   5.942
  295TIP3    H2  829   1.950   7.155   5.793
  296TIP3   OH2  830   3.653   2.051   3.051
  296TIP3    H1  831   3.639   2.131   3.000
  296TIP3    H2  832   3.567   2.009   3.053
  297TIP3   OH2  833   0.380   7.590   1.001
  297TIP3    H1  834   0.342   7.604   0.914
  297TIP3    H2  835   0.323   7.526   1.043
  298TIP3   OH2  836   4.283   6.953   4.762
  298TIP3    H1  837   4.278   7.045   4.735
  298TIP3    H2  838   4.363   6.948   4.814
  299TIP3   OH2  839   5.281   4.067   2.707
  299TIP3    H1  840   5.216   4.078   2.637
  299TIP3    H2  841   5.233   4.088   2.787
  300TIP3   OH2  842   2.567   7.649   1.954
  300TIP3    H1  843   2.621   7.631   2.030
  300TIP3    H2  844   2.479   7.663   1.990
  301TIP3   OH2  845   6.117   6.653   4.370
  301TIP3    H1  846   6.091   6.634   4.280
  301TIP3    H2  847   6.080   6.581   4.422
  302TIP3   OH2  848   5.734   7.777   3.963
  302TIP3    H1  849   5.749   7.825   3.882
  302TIP3    H2  850   5.778   7.830   4.030
  303TIP3   OH2  851   5.883   6.780   5.813
  303TIP3    H1  852   5.914   6.866   5.843
  303TIP3    H2  853   5.904   6.779   5.719
  304TIP3   OH2  854   3.620   3.272   0.601
  304TIP3    H1  855   3.607   3.354   0.554
  304TIP3    H2  856   3.585   3.205   0.543
  305TIP3   OH2  857   6.506   6.421   3.117
  305TIP3    H1  858   6.420   6.388   3.092
  305TIP3    H2  859   6.515   6.396   3.209
  306TIP3   OH2  860   0.369   5.067   6.470
  306TIP3    H1  861   0.444   5.016   6.501
  306TIP3    H2  862   0.371   5.146   6.524
  307TIP3   OH2  863   4.031   7.235   5.677
  307TIP3    H1  864   3.974   7.170   5.636
  307TIP3    H2  865   4.107   7.239   5.619
  308TIP3   OH2  866   0.292   6.477   3.677
  308TIP3    H1  867   0.240   6.524   3.742
  308TIP3    H2  868   0.314   6.543   3.611
  309TIP3   OH2  869   5.876   0.077   1.569
  309TIP3    H1  870   5.798   0.025   1.551
  309TIP3    H2  871   5.843   0.160   1.602
  310TIP3   OH2  872   6.079   5.508   1.703
  310TIP3    H1  873   6.010   5.442   1.714
  310TIP3    H2  874   6.147   5.481   1.765
  311TIP3   OH2  875   0.232   3.087   2.614
  311TIP3    H1  876   0.287   3.013   2.586
  311TIP3    H2  877   0.143   3.052   2.613
  312TIP3   OH2  878   0.566   1.376   2.007
  312TIP3    H1  879   0.493   1.376   2.068
  312TIP3    H2  880   0.531   1.333   1.928
  313TIP3   OH2  881   3.624   4.416   0.641
  313TIP3    H1  882   3.678   4.495   0.646
  313TIP3    H2  883   3.649   4.375   0.558
  314TIP3   OH2  884   1.643   1.507   4.454
  314TIP3    H1  885   1.640   1.447   4.380
  314TIP3    H2  886   1.563   1.489   4.504
  315TIP3   OH2  887   3.453   3.966   0.860
  315TIP3    H1  888   3.429   3.888   0.910
  315TIP3    H2  889   3.451   4.037   0.925
  316TIP3   OH2  890   4.652   7.614   0.753
  316TIP3    H1  891   4.587   7.605   0.822
  316TIP3    H2  892   4.626   7.550   0.687
  317TIP3   OH2  893   5.027   3.287   6.418
  317TIP3    H1  894   4.987   3.202   6.438
  317TIP3    H2  895   4.953   3.346   6.403
  318TIP3   OH2  896   7.289   4.180   4.534
  318TIP3    H1  897   7.364   4.127   4.510
  318TIP3    H2  898   7.222   4.158   4.469
  319TIP3   OH2  899   1.048   6.707   0.358
  319TIP3    H1  900   1.046   6.725   0.452
  319TIP3    H2  901   0.957   6.714   0.331
  320TIP3   OH2  902   3.127   0.234   3.882
  320TIP3    H1  903   3.173   0.173   3.824
  320TIP3    H2  904   3.061   0.275   3.827
  321TIP3   OH2  905   6.952   2.770   3.123
  321TIP3    H1  906   6.876   2.714   3.108
  321TIP3    H2  907   7.027   2.713   3.108
  322TIP3   OH2  908   6.217   0.101   4.132
  322TIP3    H1  909   6.280   0.083   4.202
  322TIP3    H2  910   6.133   0.110   4.177
  323TIP3   OH2  911   5.331   5.090   1.276
  323TIP3    H1  912   5.379   5.084   1.194
  323TIP3    H2  913   5.245   5.125   1.252
  324TIP3   OH2  914   7.639   0.552   0.393
  324TIP3    H1  915   7.567   0.490   0.407
  324TIP3    H2  916   7.707   0.500   0.351
  325TIP3   OH2  917   3.968   3.610   0.079
  325TIP3    H1  918   3.899   3.670   0.051
  325TIP3    H2  919   4.043   3.634   0.024
  326TIP3   OH2  920   0.309   0.280   0.156
  326TIP3    H1  921   0.220   0.284   0.120
  326TIP3    H2  922   0.332   0.188   0.150
  327TIP3   OH2  923   1.356   0.534   2.720
  327TIP3    H1  924   1.289   0.478   2.759
  327TIP3    H2  925   1.439   0.492   2.743
  328TIP3   OH2  926   1.537   0.437   1.280
  328TIP3    H1  927   1.610   0.495   1.301
  328TIP3    H2  928   1.579   0.354   1.255
  329TIP3   OH2  929   6.203   4.680   5.486
  329TIP3    H1  930   6.273   4.726   5.439
  329TIP3    H2  931   6.138   4.748   5.504
  330TIP3   OH2  932   5.700   3.139   4.160
  330TIP3    H1  933   5.661   3.051   4.159
  330TIP3    H2  934   5.628   3.198   4.139
  331TIP3   OH2  935   1.520   6.773   6.479
  331TIP3    H1  936   1.479   6.785   6.565
  331TIP3    H2  937   1.527   6.861   6.443
  332TIP3   OH2  938   1.660   5.355   0.468
  332TIP3    H1  939   1.654   5.275   0.519
  332TIP3    H2  940   1.705   5.329   0.387
  333TIP3   OH2  941   5.341   6.044   2.467
  333TIP3    H1  942   5.297   6.122   2.434
  333TIP3    H2  943   5.425   6.076   2.501
  334TIP3   OH2  944   6.142   1.028   2.899
  334TIP3    H1  945   6.198   0.950   2.892
  334TIP3    H2  946   6.196   1.091   2.946
  335TIP3   OH2  947   2.070   4.739   5.488
  335TIP3    H1  948   2.136   4.762   5.423
  335TIP3    H2  949   2.012   4.816   5.491
  336TIP3   OH2  950   6.769   2.278   5.723
  336TIP3    H1  951   6.841   2.244   5.777
  336TIP3    H2  952   6.771   2.225   5.644
  337TIP3   OH2  953   0.312   6.599   0.595
  337TIP3    H1  954   0.289   6.515   0.556
  337TIP3    H2  955   0.230   6.630   0.635
  338TIP3   OH2  956   1.997   6.645   1.506
  338TIP3    H1  957   1.932   6.587   1.547
  338TIP3    H2  958   1.957   6.732   1.510
  339TIP3   OH2  959   0.362   0.356   0.424
  339TIP3    H1  960   0.298   0.425   0.410
  339TIP3    H2  961   0.373   0.316   0.338
  340TIP3   OH2  962   6.950   6.599   1.375
  340TIP3    H1  963   7.015   6.649   1.326
  340TIP3    H2  964   6.965   6.623   1.467
  341TIP3   OH2  965   2.129   7.521   1.438
  341TIP3    H1  966   2.047   7.530   1.389
  341TIP3    H2  967   2.117   7.575   1.516
  342TIP3   OH2  968   1.148   5.323   5.604
  342TIP3    H1  969   1.062   5.346   5.640
  342TIP3    H2  970   1.200   5.403   5.614
  343TIP3   OH2  971   0.697   2.966   2.283
  343TIP3    H1  972   0.614   3.013   2.277
  343TIP3    H2  973   0.759   3.032   2.316
  344TIP3   OH2  974   4.691   1.573   2.010
  344TIP3    H1  975   4.616   1.531   1.968
  344TIP3    H2  976   4.757   1.504   2.018
  345TIP3   OH2  977   0.147   2.819   3.289
  345TIP3    H1  978   0.180   2.789   3.374
  345TIP3    H2  979   0.076   2.880   3.311
  346TIP3   OH2  980   0.936   1.425   5.452
  346TIP3    H1  981   0.870   1.359   5.434
  346TIP3    H2  982   0.890   1.508   5.446
  347TIP3   OH2  983   5.391   2.865   3.891
  347TIP3    H1  984   5.385   2.960   3.889
  347TIP3    H2  985   5.340   2.836   3.815
  348TIP3   OH2  986   4.744   1.709   5.700
  348TIP3    H1  987   4.668   1.651   5.696
  348TIP3    H2  988   4.719   1.785   5.648
  349TIP3   OH2  989   7.329   3.821   3.008
  349TIP3    H1  990   7.264   3.891   2.999
  349TIP3    H2  991   7.298   3.752   2.948
  350TIP3   OH2  992   1.232   1.128   6.678
  350TIP3    H1  993   1.312   1.151   6.725
  350TIP3    H2  994   1.215   1.037   6.703
  351TIP3   OH2  995   0.853   7.416   4.877
  351TIP3    H1  996   0.920   7.483   4.864
  351TIP3    H2  997   0.897   7.334   4.855
  352TIP3   OH2  998   1.688   2.959   6.796
  352TIP3    H1  999   1.694   2.871   6.758
  352TIP3    H2 1000   1.613   2.999   6.751
  353TIP3   OH2 1001   6.684   3.083   0.630
  353TIP3    H1 1002   6.720   3.128   0.706
  353TIP3    H2 1003   6.744   3.104   0.558
  354TIP3   OH2 1004   7.702   6.059   0.654
  354TIP3    H1 1005   7.671   6.141   0.693
  354TIP3    H2 1006   7.644   6.045   0.579
  355TIP3   OH2 1007   0.241   0.871   3.345
  355TIP3    H1 1008   0.181   0.923   3.399
  355TIP3    H2 1009   0.208   0.782   3.351
  356TIP3   OH2 1010   1.402   3.144   2.454
  356TIP3    H1 1011   1.382   3.112   2.542
  356TIP3    H2 1012   1.428   3.236   2.468
  357TIP3   OH2 1013   6.338   5.648   3.477
  357TIP3    H1 1014   6.370   5.572   3.429
  357TIP3    H2 1015   6.366   5.723   3.424
  358TIP3   OH2 1016   3.828   4.411   2.030
  358TIP3    H1 1017   3.790   4.331   2.065
  358TIP3    H2 1018   3.758   4.448   1.975
  359TIP3   OH2 1019   2.540   2.305   4.464
  359TIP3    H1 1020   2.532   2.354   4.546
  359TIP3    H2 1021   2.575   2.220   4.491
  360TIP3   OH2 1022   3.477   2.769   3.226
  360TIP3    H1 1023   3.470   2.769   3.130
  360TIP3    H2 1024   3.457   2.680   3.252
  361TIP3   OH2 1025   1.317   6.831   6.654
  361TIP3    H1 1026   1.309   6.804   6.746
  361TIP3    H2 1027   1.346   6.922   6.658
  362TIP3   OH2 1028   5.897   4.030   4.142
  362TIP3    H1 1029   5.869   4.077   4.221
  362TIP3    H2 1030   5.850   3.946   4.147
  363TIP3   OH2 1031   4.895   3.325   5.154
  363TIP3    H1 1032   4.941   3.313   5.071
  363TIP3    H2 1033   4.890   3.420   5.165
  364TIP3   OH2 1034   5.905   6.716   2.335
  364TIP3    H1 1035   5.829   6.748   2.286
  364TIP3    H2 1036   5.875   6.711   2.425
  365TIP3   OH2 1037   3.308   5.217   0.954
  365TIP3    H1 1038   3.212   5.213   0.949
  365TIP3    H2 1039   3.326   5.225   1.048
  366TIP3   OH2 1040   2.530   0.984   1.679
  366TIP3    H1 1041   2.503   0.977   1.587
  366TIP3    H2 1042   2.593   0.914   1.691
  367TIP3   OH2 1043   2.334   6.128   4.073
  367TIP3    H1 1044   2.418   6.124   4.118
  367TIP3    H2 1045   2.348   6.189   4.001
  368TIP3   OH2 1046   1.948   5.768   4.683
  368TIP3    H1 1047   1.862   5.801   4.655
  368TIP3    H2 1048   1.966   5.695   4.624
  369TIP3   OH2 1049   3.747   5.588   1.918
  369TIP3    H1 1050   3.692   5.662   1.893
  369TIP3    H2 1051   3.710   5.514   1.868
  370TIP3   OH2 1052   0.753   3.311   2.816
  370TIP3    H1 1053   0.827   3.330   2.758
  370TIP3    H2 1054   0.760   3.217   2.834
  371TIP3   OH2 1055   4.951   0.959   3.040
  371TIP3    H1 1056   4.955   1.004   3.124
  371TIP3    H2 1057   4.860   0.969   3.012
  372TIP3   OH2 1058   0.945   1.332   1.900
  372TIP3    H1 1059   1.009   1.335   1.830
  372TIP3    H2 1060   0.897   1.414   1.893
  373TIP3   OH2 1061   1.662   2.083   5.530
  373TIP3    H1 1062   1.568   2.088   5.514
  373TIP3    H2 1063   1.689   2.174   5.540
  374TIP3   OH2 1064   3.647   0.551   4.899
  374TIP3    H1 1065   3.686   0.466   4.918
  374TIP3    H2 1066   3.703   0.614   4.945
  375TIP3   OH2 1067   7.936   5.469   2.187
  375TIP3    H1 1068   7.951   5.476   2.093
  375TIP3    H2 1069   7.905   5.380   2.201
  376TIP3   OH2 1070   8.026   6.110   2.534
  376TIP3    H1 1071   7.961   6.089   2.601
  376TIP3    H2 1072   8.109   6.082   2.572
  377TIP3   OH2 1073   7.509   3.637   3.129
  377TIP3    H1 1074   7.447   3.646   3.057
  377TIP3    H2 1075   7.462   3.671   3.206
  378TIP3   OH2 1076   6.885   6.564   2.692
  378TIP3    H1 1077   6.833   6.559   2.611
  378TIP3    H2 1078   6.831   6.521   2.758
  379TIP3   OH2 1079   4.323   1.826   6.168
  379TIP3    H1 1080   4.342   1.739   6.204
  379TIP3    H2 1081   4.318   1.883   6.245
  380TIP3   OH2 1082   6.663   5.342   1.422
  380TIP3    H1 1083   6.595   5.409   1.427
  380TIP3    H2 1084   6.624   5.264   1.461
  381TIP3   OH2 1085   4.559   3.881   4.144
  381TIP3    H1 1086   4.541   3.804   4.091
  381TIP3    H2 1087   4.610   3.849   4.218
  382TIP3   OH2 1088   0.385   3.900   3.086
  382TIP3    H1 1089   0.292   3.925   3.086
  382TIP3    H2 1090   0.383   3.805   3.077
  383TIP3   OH2 1091   6.695   3.253   1.639
  383TIP3    H1 1092   6.788   3.267   1.617
  383TIP3    H2 1093   6.658   3.341   1.640
  384TIP3   OH2 1094   1.765   0.165   6.552
  384TIP3    H1 1095   1.727   0.083   6.582
  384TIP3    H2 1096   1.833   0.185   6.616
  385TIP3   OH2 1097   2.144   0.593   5.459
  385TIP3    H1 1098   2.124   0.617   5.368
  385TIP3    H2 1099   2.088   0.518   5.477
  386TIP3   OH2 1100   5.374   7.132   6.171
  386TIP3    H1 1101   5.452   7.183   6.149
  386TIP3    H2 1102   5.403   7.041   6.174
  387TIP3   OH2 1103   3.266   2.000   1.025
  387TIP3    H1 1104   3.278   2.092   1.002
  387TIP3    H2 1105   3.190   1.998   1.083
  388TIP3   OH2 1106   8.069   0.797   2.882
  388TIP3    H1 1107   8.046   0.885   2.912
  388TIP3    H2 1108   7.997   0.741   2.912
  389TIP3   OH2 1109   4.809   3.679   2.361
  389TIP3    H1 1110   4.887   3.730   2.342
  389TIP3    H2 1111   4.779   3.647   2.276
  390TIP3   OH2 1112   1.186   1.445   5.350
  390TIP3    H1 1113   1.105   1.438   5.401
  390TIP3    H2 1114   1.184   1.369   5.291
  391TIP3   OH2 1115   7.906   5.452   4.402
  391TIP3    H1 1116   7.900   5.478   4.310
  391TIP3    H2 1117   7.999   5.462   4.424
  392TIP3   OH2 1118   7.185   2.675   1.360
  392TIP3    H1 1119   7.281   2.667   1.357
  392TIP3    H2 1120   7.166   2.692   1.452
  393TIP3   OH2 1121   1.313   7.786   6.717
  393TIP3    H1 1122   1.364   7.744   6.786
  393TIP3    H2 1123   1.227   7.800   6.756
  394TIP3   OH2 1124   6.112   2.503   6.144
  394TIP3    H1 1125   6.147   2.570   6.202
  394TIP3    H2 1126   6.072   2.438   6.202
  395TIP3   OH2 1127   2.978   5.050   1.794
  395TIP3    H1 1128   2.986   5.023   1.885
  395TIP3    H2 1129   2.886   5.078   1.786
  396TIP3   OH2 1130   7.659   3.858   6.230
  396TIP3    H1 1131   7.679   3.866   6.323
  396TIP3    H2 1132   7.693   3.939   6.191
  397TIP3   OH2 1133   3.894   2.892   1.137
  397TIP3    H1 1134   3.910   2.984   1.120
  397TIP3    H2 1135   3.910   2.882   1.231
  398TIP3   OH2 1136   4.588   1.380   1.238
  398TIP3    H1 1137   4.664   1.351   1.289
  398TIP3    H2 1138   4.597   1.475   1.234
  399TIP3   OH2 1139   6.786   4.429   2.799
  399TIP3    H1 1140   6.767   4.522   2.794
  399TIP3    H2 1141   6.713   4.387   2.753
  400TIP3   OH2 1142   0.092   3.353   3.433
  400TIP3    H1 1143   0.132   3.395   3.509
  400TIP3    H2 1144   0.119   3.407   3.359
  401TIP3   OH2 1145   8.236   5.978   4.120
  401TIP3    H1 1146   8.268   6.063   4.148
  401TIP3    H2 1147   8.252   5.975   4.026
  402TIP3   OH2 1148   0.333   3.643   6.695
  402TIP3    H1 1149   0.254   3.594   6.718
  402TIP3    H2 1150   0.300   3.719   6.647
  403TIP3   OH2 1151   7.895   3.697   0.840
  403TIP3    H1 1152   7.817   3.657   0.880
  403TIP3    H2 1153   7.867   3.787   0.819
  404TIP3   OH2 1154   7.184   0.300   1.133
  404TIP3    H1 1155   7.253   0.329   1.193
  404TIP3    H2 1156   7.178   0.206   1.148
  405TIP3   OH2 1157   1.175   3.928   0.973
  405TIP3    H1 1158   1.165   3.937   0.878
  405TIP3    H2 1159   1.247   3.867   0.984
  406TIP3   OH2 1160   3.421   4.360   4.758
  406TIP3    H1 1161   3.359   4.372   4.685
  406TIP3    H2 1162   3.367   4.324   4.829
  407TIP3   OH2 1163   1.118   4.752   3.628
  407TIP3    H1 1164   1.205   4.781   3.601
  407TIP3    H2 1165   1.128   4.658   3.647
  408TIP3   OH2 1166   0.051   5.324   2.658
  408TIP3    H1 1167   0.107   5.246   2.663
  408TIP3    H2 1168   0.013   5.321   2.570
  409TIP3   OH2 1169   0.648   3.958   2.179
  409TIP3    H1 1170   0.664   4.023   2.111
  409TIP3    H2 1171   0.664   4.005   2.261
  410TIP3   OH2 1172   4.373   6.378   5.050
  410TIP3    H1 1173   4.312   6.396   4.979
  410TIP3    H2 1174   4.343   6.434   5.122
  411TIP3   OH2 1175   7.780   7.138   2.516
  411TIP3    H1 1176   7.763   7.086   2.437
  411TIP3    H2 1177   7.875   7.142   2.522
  412TIP3   OH2 1178   6.277   3.805   1.677
  412TIP3    H1 1179   6.327   3.807   1.759
  412TIP3    H2 1180   6.264   3.897   1.656
  413TIP3   OH2 1181   6.658   7.481   6.420
  413TIP3    H1 1182   6.749   7.455   6.436
  413TIP3    H2 1183   6.617   7.480   6.506
  414TIP3   OH2 1184   3.807   4.515   5.679
  414TIP3    H1 1185   3.820   4.509   5.774
  414TIP3    H2 1186   3.735   4.577   5.669
  415TIP3   OH2 1187   0.572   0.929   1.080
  415TIP3    H1 1188   0.595   0.836   1.072
  415TIP3    H2 1189   0.505   0.933   1.148
  416TIP3   OH2 1190   8.245   1.720   5.787
  416TIP3    H1 1191   8.332   1.680   5.787
  416TIP3    H2 1192   8.222   1.726   5.880
  417TIP3   OH2 1193   7.180   2.668   3.913
  417TIP3    H1 1194   7.265   2.700   3.883
  417TIP3    H2 1195   7.202   2.603   3.980
  418TIP3   OH2 1196   7.319   4.276   0.125
  418TIP3    H1 1197   7.258   4.343   0.155
  418TIP3    H2 1198   7.402   4.323   0.112
  419TIP3   OH2 1199   1.125   1.824   6.077
  419TIP3    H1 1200   1.044   1.866   6.106
  419TIP3    H2 1201   1.139   1.857   5.988
  420TIP3   OH2 1202   5.307   0.133   1.226
  420TIP3    H1 1203   5.260   0.115   1.308
  420TIP3    H2 1204   5.378   0.069   1.225
  421TIP3   OH2 1205   2.054   2.080   0.080
  421TIP3    H1 1206   2.061   2.060   0.173
  421TIP3    H2 1207   1.990   2.151   0.075
  422TIP3   OH2 1208   7.874   7.354   4.657
  422TIP3    H1 1209   7.886   7.276   4.603
  422TIP3    H2 1210   7.897   7.427   4.599
  423TIP3   OH2 1211   4.792   0.412   1.803
  423TIP3    H1 1212   4.836   0.328   1.804
  423TIP3    H2 1213   4.705   0.394   1.840
  424TIP3   OH2 1214   2.611   7.613   6.197
  424TIP3    H1 1215   2.600   7.522   6.225
  424TIP3    H2 1216   2.661   7.607   6.116
  425TIP3   OH2 1217   7.627   1.417   0.234
  425TIP3    H1 1218   7.676   1.440   0.313
  425TIP3    H2 1219   7.657   1.481   0.168
  426TIP3   OH2 1220   5.608   6.006   1.912
  426TIP3    H1 1221   5.675   6.018   1.844
  426TIP3    H2 1222   5.614   5.914   1.936
  427TIP3   OH2 1223   1.600   0.346   2.689
  427TIP3    H1 1224   1.688   0.325   2.660
  427TIP3    H2 1225   1.565   0.403   2.620
  428TIP3   OH2 1226   0.168   5.201   3.838
  428TIP3    H1 1227   0.180   5.123   3.784
  428TIP3    H2 1228   0.175   5.170   3.928
  429TIP3   OH2 1229   7.643   6.452   6.690
  429TIP3    H1 1230   7.562   6.428   6.644
  429TIP3    H2 1231   7.693   6.370   6.695
  430TIP3   OH2 1232   4.669   6.071   1.923
  430TIP3    H1 1233   4.728   6.116   1.863
  430TIP3    H2 1234   4.641   6.139   1.985
  431TIP3   OH2 1235   6.437   4.959   2.645
  431TIP3    H1 1236   6.387   4.928   2.569
  431TIP3    H2 1237   6.528   4.958   2.615
  432TIP3   OH2 1238   3.190   3.044   3.923
  432TIP3    H1 1239   3.165   3.134   3.945
  432TIP3    H2 1240   3.108   2.995   3.928
  433TIP3   OH2 1241   0.852   0.116   3.691
  433TIP3    H1 1242   0.759   0.131   3.706
  433TIP3    H2 1243   0.861   0.120   3.595
  434TIP3   OH2 1244   3.535   2.719   0.410
  434TIP3    H1 1245   3.500   2.668   0.337
  434TIP3    H2 1246   3.499   2.677   0.488
  435TIP3   OH2 1247   7.447   1.933   4.568
  435TIP3    H1 1248   7.429   2.001   4.503
  435TIP3    H2 1249   7.370   1.933   4.625
  436TIP3   OH2 1250   4.670   5.240   6.251
  436TIP3    H1 1251   4.649   5.329   6.278
  436TIP3    H2 1252   4.717   5.203   6.326
  437TIP3   OH2 1253   4.079   1.306   1.075
  437TIP3    H1 1254   4.061   1.380   1.017
  437TIP3    H2 1255   4.174   1.310   1.090
  438TIP3   OH2 1256   0.144   4.316   2.272
  438TIP3    H1 1257   0.148   4.410   2.293
  438TIP3    H2 1258   0.083   4.280   2.336
  439TIP3   OH2 1259   3.057   3.563   1.596
  439TIP3    H1 1260   3.034   3.475   1.567
  439TIP3    H2 1261   3.143   3.554   1.637
  440TIP3   OH2 1262   2.056   5.574   0.621
  440TIP3    H1 1263   2.027   5.537   0.705
  440TIP3    H2 1264   2.149   5.551   0.615
  441TIP3   OH2 1265   3.604   0.336   4.552
  441TIP3    H1 1266   3.535   0.397   4.582
  441TIP3    H2 1267   3.686   0.377   4.580
  442TIP3   OH2 1268   7.374   3.702   1.579
  442TIP3    H1 1269   7.418   3.715   1.495
  442TIP3    H2 1270   7.441   3.661   1.634
  443TIP3   OH2 1271   4.091   1.836   2.625
  443TIP3    H1 1272   4.064   1.776   2.556
  443TIP3    H2 1273   4.150   1.897   2.583
  444TIP3   OH2 1274   6.974   7.383   1.957
  444TIP3    H1 1275   7.019   7.400   1.874
  444TIP3    H2 1276   6.975   7.288   1.966
  445TIP3   OH2 1277   3.840   5.658   0.675
  445TIP3    H1 1278   3.825   5.595   0.604
  445TIP3    H2 1279   3.889   5.729   0.634
  446TIP3   OH2 1280   7.075   4.874   1.310
  446TIP3    H1 1281   7.149   4.913   1.357
  446TIP3    H2 1282   7.104   4.869   1.219
  447TIP3   OH2 1283   6.134   7.760   2.148
  447TIP3    H1 1284   6.080   7.765   2.227
  447TIP3    H2 1285   6.093   7.691   2.095
  448TIP3   OH2 1286   2.596   1.934   2.690
  448TIP3    H1 1287   2.542   1.990   2.634
  448TIP3    H2 1288   2.662   1.993   2.726
  449TIP3   OH2 1289   6.314   5.734   5.783
  449TIP3    H1 1290   6.317   5.643   5.755
  449TIP3    H2 1291   6.398   5.771   5.754
  450TIP3   OH2 1292   4.255   7.514   1.772
  450TIP3    H1 1293   4.261   7.490   1.680
  450TIP3    H2 1294   4.214   7.438   1.814
  451TIP3   OH2 1295   3.164   5.981   5.896
  451TIP3    H1 1296   3.164   5.933   5.813
  451TIP3    H2 1297   3.203   6.066   5.874
  452TIP3   OH2 1298   4.523   3.083   2.569
  452TIP3    H1 1299   4.438   3.111   2.600
  452TIP3    H2 1300   4.582   3.156   2.590
  453TIP3   OH2 1301   4.451   1.994   2.705
  453TIP3    H1 1302   4.510   2.068   2.690
  453TIP3    H2 1303   4.369   2.020   2.663
  454TIP3   OH2 1304   2.612   6.799   5.891
  454TIP3    H1 1305   2.576   6.862   5.953
  454TIP3    H2 1306   2.621   6.848   5.809
  455TIP3   OH2 1307   2.178   7.212   3.416
  455TIP3    H1 1308   2.211   7.300   3.396
  455TIP3    H2 1309   2.083   7.220   3.409
  456TIP3   OH2 1310   3.308   5.228  -0.030
  456TIP3    H1 1311   3.245   5.214   0.042
  456TIP3    H2 1312   3.354   5.308  -0.006
  457TIP3   OH2 1313   7.426   2.195   3.048
  457TIP3    H1 1314   7.387   2.276   3.015
  457TIP3    H2 1315   7.479   2.162   2.975
  458TIP3   OH2 1316   5.957   0.865   5.980
  458TIP3    H1 1317   5.940   0.895   6.069
  458TIP3    H2 1318   5.976   0.945   5.931
  459TIP3   OH2 1319   0.255   5.887   1.947
  459TIP3    H1 1320   0.160   5.892   1.957
  459TIP3    H2 1321   0.268   5.821   1.878
  460TIP3   OH2 1322   6.158   7.481   1.732
  460TIP3    H1 1323   6.082   7.427   1.709
  460TIP3    H2 1324   6.186   7.447   1.817
  461TIP3   OH2 1325   1.896   2.193   5.166
  461TIP3    H1 1326   1.922   2.274   5.210
  461TIP3    H2 1327   1.978   2.143   5.157
  462TIP3   OH2 1328   4.001   5.153   1.145
  462TIP3    H1 1329   4.090   5.136   1.176
  462TIP3    H2 1330   3.970   5.226   1.199
  463TIP3   OH2 1331   3.699   3.539   5.806
  463TIP3    H1 1332   3.673   3.551   5.897
  463TIP3    H2 1333   3.627   3.578   5.756
  464TIP3   OH2 1334   0.252   5.729   1.734
  464TIP3    H1 1335   0.341   5.733   1.698
  464TIP3    H2 1336   0.202   5.678   1.670
  465TIP3   OH2 1337   3.575   1.394   2.568
  465TIP3    H1 1338   3.551   1.310   2.529
  465TIP3    H2 1339   3.517   1.402   2.644
  466TIP3   OH2 1340   6.864   0.842   0.658
  466TIP3    H1 1341   6.871   0.751   0.684
  466TIP3    H2 1342   6.901   0.845   0.570
  467TIP3   OH2 1343   3.204   1.445   6.477
  467TIP3    H1 1344   3.238   1.458   6.388
  467TIP3    H2 1345   3.281   1.422   6.528
  468TIP3   OH2 1346   1.338   5.832   5.116
  468TIP3    H1 1347   1.295   5.816   5.032
  468TIP3    H2 1348   1.316   5.923   5.137
  469TIP3   OH2 1349   2.661   1.901   4.876
  469TIP3    H1 1350   2.749   1.925   4.903
  469TIP3    H2 1351   2.621   1.984   4.848
  470TIP3   OH2 1352   2.752   1.300   2.213
  470TIP3    H1 1353   2.700   1.369   2.173
  470TIP3    H2 1354   2.837   1.305   2.169
  471TIP3   OH2 1355   7.863   5.437   0.099
  471TIP3    H1 1356   7.818   5.520   0.116
  471TIP3    H2 1357   7.800   5.385   0.050
  472TIP3   OH2 1358   0.407   1.786   1.585
  472TIP3    H1 1359   0.409   1.693   1.605
  472TIP3    H2 1360   0.462   1.794   1.507
  473TIP3   OH2 1361   3.063   1.571   4.373
  473TIP3    H1 1362   3.020   1.656   4.386
  473TIP3    H2 1363   3.038   1.520   4.450
  474TIP3   OH2 1364   4.014   6.669   2.090
  474TIP3    H1 1365   4.070   6.746   2.079
  474TIP3    H2 1366   3.941   6.684   2.030
  475TIP3   OH2 1367   2.226   3.836   3.289
  475TIP3    H1 1368   2.219   3.931   3.291
  475TIP3    H2 1369   2.224   3.811   3.382
  476TIP3   OH2 1370   2.853   4.719   1.302
  476TIP3    H1 1371   2.798   4.652   1.343
  476TIP3    H2 1372   2.798   4.797   1.301
  477TIP3   OH2 1373   6.272   7.491   5.355
  477TIP3    H1 1374   6.199   7.535   5.311
  477TIP3    H2 1375   6.232   7.420   5.403
  478TIP3   OH2 1376   8.247   4.224   1.743
  478TIP3    H1 1377   8.194   4.150   1.711
  478TIP3    H2 1378   8.227   4.295   1.682
  479TIP3   OH2 1379   6.011   7.219   3.520
  479TIP3    H1 1380   6.046   7.225   3.609
  479TIP3    H2 1381   5.956   7.296   3.510
  480TIP3   OH2 1382   2.953   1.186   3.202
  480TIP3    H1 1383   3.015   1.127   3.159
  480TIP3    H2 1384   2.892   1.127   3.248
  481TIP3   OH2 1385   0.757   4.455   2.221
  481TIP3    H1 1386   0.690   4.387   2.207
  481TIP3    H2 1387   0.712   4.537   2.204
  482TIP3   OH2 1388   4.865   3.445   2.477
  482TIP3    H1 1389   4.837   3.535   2.458
  482TIP3    H2 1390   4.882   3.407   2.391
  483TIP3   OH2 1391   4.316   5.125   1.110
  483TIP3    H1 1392   4.408   5.100   1.111
  483TIP3    H2 1393   4.278   5.076   1.037
  484TIP3   OH2 1394   3.878   0.386   2.456
  484TIP3    H1 1395   3.853   0.396   2.364
  484TIP3    H2 1396   3.928   0.305   2.459
  485TIP3   OH2 1397   4.110   4.396   3.745
  485TIP3    H1 1398   4.084   4.423   3.657
  485TIP3    H2 1399   4.202   4.422   3.752
  486TIP3   OH2 1400   4.197   0.462   5.916
  486TIP3    H1 1401   4.142   0.449   5.993
  486TIP3    H2 1402   4.148   0.523   5.861
  487TIP3   OH2 1403   4.566   2.434   5.903
  487TIP3    H1 1404   4.489   2.380   5.885
  487TIP3    H2 1405   4.636   2.371   5.922
  488TIP3   OH2 1406   3.884   0.220   4.056
  488TIP3    H1 1407   3.930   0.232   4.139
  488TIP3    H2 1408   3.922   0.286   3.998
  489TIP3   OH2 1409   0.729   5.633   3.619
  489TIP3    H1 1410   0.702   5.724   3.625
  489TIP3    H2 1411   0.776   5.627   3.535
  490TIP3   OH2 1412   1.369   3.072   2.708
  490TIP3    H1 1413   1.336   3.000   2.763
  490TIP3    H2 1414   1.344   3.151   2.756
  491TIP3   OH2 1415   5.059   1.749   0.665
  491TIP3    H1 1416   5.092   1.807   0.597
  491TIP3    H2 1417   5.071   1.661   0.630
  492TIP3   OH2 1418   5.792   2.636   0.975
  492TIP3    H1 1419   5.746   2.685   0.907
  492TIP3    H2 1420   5.870   2.689   0.995
  493TIP3   OH2 1421   4.385   4.863   4.549
  493TIP3    H1 1422   4.301   4.868   4.594
  493TIP3    H2 1423   4.422   4.779   4.576
  494TIP3   OH2 1424   5.078   0.258   2.993
  494TIP3    H1 1425   4.998   0.302   3.024
  494TIP3    H2 1426   5.149   0.315   3.021
  495TIP3   OH2 1427   1.471   0.379   2.053
  495TIP3    H1 1428   1.393   0.424   2.085
  495TIP3    H2 1429   1.514   0.347   2.132
  496TIP3   OH2 1430   4.057   0.097   4.586
  496TIP3    H1 1431   3.996   0.118   4.515
  496TIP3    H2 1432   4.033   0.159   4.656
  497TIP3   OH2 1433   5.331   2.611   1.909
  497TIP3    H1 1434   5.325   2.517   1.894
  497TIP3    H2 1435   5.240   2.641   1.913
  498TIP3   OH2 1436   5.981   2.034   6.100
  498TIP3    H1 1437   5.931   2.073   6.028
  498TIP3    H2 1438   6.040   1.971   6.057
  499TIP3   OH2 1439   6.405   4.631   1.018
  499TIP3    H1 1440   6.420   4.713   1.065
  499TIP3    H2 1441   6.490   4.611   0.978
  500TIP3   OH2 1442   7.205   1.056   1.241
  500TIP3    H1 1443   7.189   1.134   1.294
  500TIP3    H2 1444   7.294   1.068   1.208
  501TIP3   OH2 1445   5.074   2.737   1.885
  501TIP3    H1 1446   5.029   2.652   1.886
  501TIP3    H2 1447   5.004   2.802   1.882
  502TIP3   OH2 1448   3.686   4.701   3.528
  502TIP3    H1 1449   3.602   4.734   3.558
  502TIP3    H2 1450   3.668   4.613   3.495
  503TIP3   OH2 1451   0.229   0.252   0.805
  503TIP3    H1 1452   0.292   0.317   0.777
  503TIP3    H2 1453   0.179   0.295   0.874
  504TIP3   OH2 1454   3.284   2.611   2.119
  504TIP3    H1 1455   3.356   2.600   2.057
  504TIP3    H2 1456   3.212   2.646   2.066
  505TIP3   OH2 1457   2.983   4.990   5.379
  505TIP3    H1 1458   2.988   4.990   5.283
  505TIP3    H2 1459   3.023   4.908   5.405
  506TIP3   OH2 1460   5.565   0.943   2.629
  506TIP3    H1 1461   5.542   0.851   2.640
  506TIP3    H2 1462   5.599   0.970   2.714
  507TIP3   OH2 1463   3.921   5.852   4.976
  507TIP3    H1 1464   3.957   5.914   5.039
  507TIP3    H2 1465   3.848   5.898   4.935
  508TIP3   OH2 1466   0.345   7.000   0.041
  508TIP3    H1 1467   0.358   7.095   0.049
  508TIP3    H2 1468   0.257   6.991   0.006
  509TIP3   OH2 1469   6.645   5.570   5.783
  509TIP3    H1 1470   6.693   5.622   5.848
  509TIP3    H2 1471   6.571   5.534   5.832
  510TIP3   OH2 1472   5.005   2.762   1.176
  510TIP3    H1 1473   4.948   2.838   1.174
  510TIP3    H2 1474   5.064   2.778   1.250
  511TIP3   OH2 1475   6.270   3.075   6.392
  511TIP3    H1 1476   6.207   3.147   6.400
  511TIP3    H2 1477   6.296   3.076   6.300
  512TIP3   OH2 1478   4.745   5.193   5.898
  512TIP3    H1 1479   4.813   5.235   5.952
  512TIP3    H2 1480   4.723   5.113   5.947
  513TIP3   OH2 1481   0.217   3.635   1.770
  513TIP3    H1 1482   0.264   3.579   1.831
  513TIP3    H2 1483   0.191   3.576   1.699
  514TIP3   OH2 1484   7.817   5.523   1.923
  514TIP3    H1 1485   7.823   5.433   1.891
  514TIP3    H2 1486   7.724   5.535   1.942
  515TIP3   OH2 1487   1.998   3.509  -0.015
  515TIP3    H1 1488   2.032   3.497   0.074
  515TIP3    H2 1489   2.065   3.563  -0.058
  516TIP3   OH2 1490   4.802   3.373   6.281
  516TIP3    H1 1491   4.791   3.302   6.219
  516TIP3    H2 1492   4.755   3.344   6.359
  517TIP3   OH2 1493   3.371   3.535   3.098
  517TIP3    H1 1494   3.377   3.569   3.008
  517TIP3    H2 1495   3.277   3.534   3.117
  518TIP3   OH2 1496   7.068   6.476   4.876
  518TIP3    H1 1497   7.123   6.538   4.924
  518TIP3    H2 1498   7.074   6.504   4.785
  519TIP3   OH2 1499   7.762   1.274   6.176
  519TIP3    H1 1500   7.754   1.189   6.219
  519TIP3    H2 1501   7.689   1.326   6.212
  520TIP3   OH2 1502   5.476   0.355   4.792
  520TIP3    H1 1503   5.457   0.313   4.709
  520TIP3    H2 1504   5.568   0.335   4.810
  521TIP3   OH2 1505   2.742   4.775   0.936
  521TIP3    H1 1506   2.692   4.713   0.989
  521TIP3    H2 1507   2.700   4.860   0.951
  522TIP3   OH2 1508   1.776   0.967   2.854
  522TIP3    H1 1509   1.692   1.003   2.827
  522TIP3    H2 1510   1.841   1.009   2.797
  523TIP3   OH2 1511   3.953   0.633   4.300
  523TIP3    H1 1512   3.921   0.701   4.358
  523TIP3    H2 1513   3.878   0.613   4.243
  524TIP3   OH2 1514   5.677   5.673   1.977
  524TIP3    H1 1515   5.699   5.727   2.053
  524TIP3    H2 1516   5.734   5.706   1.908
  525TIP3   OH2 1517   5.272   3.504   2.939
  525TIP3    H1 1518   5.198   3.501   2.878
  525TIP3    H2 1519   5.340   3.552   2.892
  526TIP3   OH2 1520   1.699   5.487   5.080
  526TIP3    H1 1521   1.751   5.510   5.003
  526TIP3    H2 1522   1.609   5.508   5.055
  527TIP3   OH2 1523   2.271   6.869   2.903
  527TIP3    H1 1524   2.262   6.853   2.809
  527TIP3    H2 1525   2.181   6.879   2.934
  528TIP3   OH2 1526   0.053   2.201   6.690
  528TIP3    H1 1527   0.026   2.253   6.614
  528TIP3    H2 1528   0.057   2.264   6.762
  529TIP3   OH2 1529   7.003   0.847   3.799
  529TIP3    H1 1530   6.942   0.775   3.787
  529TIP3    H2 1531   6.972   0.893   3.878
  530TIP3   OH2 1532   1.065   0.708   3.676
  530TIP3    H1 1533   1.025   0.746   3.597
  530TIP3    H2 1534   1.068   0.781   3.738
  531TIP3   OH2 1535   2.438   2.371   1.381
  531TIP3    H1 1536   2.511   2.313   1.401
  531TIP3    H2 1537   2.479   2.450   1.345
  532TIP3   OH2 1538   4.435   4.601   2.809
  532TIP3    H1 1539   4.503   4.628   2.748
  532TIP3    H2 1540   4.429   4.506   2.799
  533TIP3   OH2 1541   0.596   4.081   3.147
  533TIP3    H1 1542   0.558   4.147   3.206
  533TIP3    H2 1543   0.526   4.016   3.135
  534TIP3   OH2 1544   2.387   1.072   5.117
  534TIP3    H1 1545   2.329   1.081   5.193
  534TIP3    H2 1546   2.399   0.978   5.108
  535TIP3   OH2 1547   2.845   1.860   5.291
  535TIP3    H1 1548   2.892   1.797   5.346
  535TIP3    H2 1549   2.754   1.831   5.293
  536TIP3   OH2 1550   5.089   0.659   5.729
  536TIP3    H1 1551   5.153   0.590   5.713
  536TIP3    H2 1552   5.004   0.615   5.725
  537TIP3   OH2 1553   6.383   2.633   1.774
  537TIP3    H1 1554   6.414   2.646   1.863
  537TIP3    H2 1555   6.414   2.710   1.726
  538TIP3   OH2 1556   0.010   0.186   1.427
  538TIP3    H1 1557  -0.050   0.116   1.451
  538TIP3    H2 1558   0.071   0.146   1.366
  539TIP3   OH2 1559   1.704   1.527   2.692
  539TIP3    H1 1560   1.753   1.587   2.749
  539TIP3    H2 1561   1.651   1.475   2.752
  540TIP3   OH2 1562   4.363   6.275   5.471
  540TIP3    H1 1563   4.405   6.207   5.419
  540TIP3    H2 1564   4.373   6.246   5.562
  541TIP3   OH2 1565   3.522   0.167   4.872
  541TIP3    H1 1566   3.477   0.245   4.905
  541TIP3    H2 1567   3.505   0.168   4.778
  542TIP3   OH2 1568   4.575   5.460   6.385
  542TIP3    H1 1569   4.648   5.484   6.443
  542TIP3    H2 1570   4.497   5.477   6.437
  543TIP3   OH2 1571   7.982   7.725   5.470
  543TIP3    H1 1572   7.959   7.798   5.529
  543TIP3    H2 1573   7.961   7.646   5.521
  544TIP3   OH2 1574   5.379   1.255   2.938
  544TIP3    H1 1575   5.302   1.216   2.898
  544TIP3    H2 1576   5.344   1.304   3.013
  545TIP3   OH2 1577   5.304   6.967   2.432
  545TIP3    H1 1578   5.393   6.942   2.407
  545TIP3    H2 1579   5.270   7.015   2.356
  546TIP3   OH2 1580   0.397   0.379   3.409
  546TIP3    H1 1581   0.321   0.360   3.353
  546TIP3    H2 1582   0.459   0.423   3.351
  547TIP3   OH2 1583   0.605   7.528   0.555
  547TIP3    H1 1584   0.619   7.533   0.649
  547TIP3    H2 1585   0.690   7.503   0.519
  548TIP3   OH2 1586   0.154   2.885   0.844
  548TIP3    H1 1587   0.186   2.966   0.805
  548TIP3    H2 1588   0.148   2.824   0.771
  549TIP3   OH2 1589   5.559   3.643   4.015
  549TIP3    H1 1590   5.487   3.627   3.954
  549TIP3    H2 1591   5.595   3.727   3.988
  550TIP3   OH2 1592   7.146   4.077   3.815
  550TIP3    H1 1593   7.196   4.115   3.743
  550TIP3    H2 1594   7.092   4.149   3.847
  551TIP3   OH2 1595   0.050   4.987   2.884
  551TIP3    H1 1596  -0.008   5.045   2.934
  551TIP3    H2 1597   0.000   4.965   2.806
  552TIP3   OH2 1598   3.218   2.910   4.237
  552TIP3    H1 1599   3.262   2.989   4.266
  552TIP3    H2 1600   3.175   2.934   4.155
  553TIP3   OH2 1601   3.222   0.188   2.281
  553TIP3    H1 1602   3.311   0.224   2.285
  553TIP3    H2 1603   3.235   0.094   2.289
  554TIP3   OH2 1604   6.554   4.847   6.736
  554TIP3    H1 1605   6.586   4.781   6.798
  554TIP3    H2 1606   6.461   4.828   6.728
  555TIP3   OH2 1607   7.101   6.208   4.805
  555TIP3    H1 1608   7.196   6.211   4.817
  555TIP3    H2 1609   7.075   6.300   4.801
  556TIP3   OH2 1610   0.910   5.415   5.741
  556TIP3    H1 1611   0.829   5.377   5.707
  556TIP3    H2 1612   0.918   5.378   5.829
  557TIP3   OH2 1613   5.165   1.181   5.342
  557TIP3    H1 1614   5.125   1.268   5.342
  557TIP3    H2 1615   5.093   1.122   5.320
  558TIP3   OH2 1616   7.868   6.137   4.659
  558TIP3    H1 1617   7.804   6.071   4.634
  558TIP3    H2 1618   7.921   6.150   4.580
  559TIP3   OH2 1619   3.321   1.860   1.865
  559TIP3    H1 1620   3.297   1.889   1.953
  559TIP3    H2 1621   3.394   1.916   1.841
  560TIP3   OH2 1622   6.973   0.229   0.955
  560TIP3    H1 1623   7.003   0.203   0.868
  560TIP3    H2 1624   7.052   0.257   1.001
  561TIP3   OH2 1625   2.943   3.167   3.743
  561TIP3    H1 1626   2.980   3.228   3.807
  561TIP3    H2 1627   2.896   3.221   3.681
  562TIP3   OH2 1628   3.534   7.729   1.798
  562TIP3    H1 1629   3.546   7.824   1.804
  562TIP3    H2 1630   3.564   7.695   1.882
  563TIP3   OH2 1631   5.286   1.416   1.724
  563TIP3    H1 1632   5.346   1.455   1.787
  563TIP3    H2 1633   5.322   1.329   1.707
  564TIP3   OH2 1634   4.697   4.203   3.153
  564TIP3    H1 1635   4.720   4.287   3.192
  564TIP3    H2 1636   4.737   4.138   3.210
  565TIP3   OH2 1637   6.731   3.287   5.820
  565TIP3    H1 1638   6.733   3.366   5.765
  565TIP3    H2 1639   6.803   3.299   5.882
  566TIP3   OH2 1640   6.366   5.709   4.599
  566TIP3    H1 1641   6.450   5.675   4.629
  566TIP3    H2 1642   6.388   5.763   4.523
  567TIP3   OH2 1643   0.720   2.572   0.858
  567TIP3    H1 1644   0.640   2.525   0.882
  567TIP3    H2 1645   0.785   2.503   0.846
  568TIP3   OH2 1646   6.842   3.798   3.407
  568TIP3    H1 1647   6.853   3.856   3.483
  568TIP3    H2 1648   6.799   3.853   3.341
  569TIP3   OH2 1649   2.984   4.568   5.345
  569TIP3    H1 1650   2.983   4.624   5.423
  569TIP3    H2 1651   2.904   4.591   5.298
  570TIP3   OH2 1652   4.498   5.739   0.413
  570TIP3    H1 1653   4.406   5.763   0.420
  570TIP3    H2 1654   4.539   5.774   0.492
  571TIP3   OH2 1655   5.275   2.683   0.540
  571TIP3    H1 1656   5.336   2.610   0.530
  571TIP3    H2 1657   5.284   2.710   0.631
  572TIP3   OH2 1658   3.177   7.514   0.568
  572TIP3    H1 1659   3.210   7.574   0.635
  572TIP3    H2 1660   3.139   7.441   0.618
  573TIP3   OH2 1661   3.535   2.255   4.374
  573TIP3    H1 1662   3.485   2.202   4.436
  573TIP3    H2 1663   3.617   2.275   4.420
  574TIP3   OH2 1664   6.597   3.043   2.700
  574TIP3    H1 1665   6.572   2.952   2.718
  574TIP3    H2 1666   6.692   3.044   2.712
  575TIP3   OH2 1667   2.944   4.007   6.457
  575TIP3    H1 1668   3.034   4.030   6.434
  575TIP3    H2 1669   2.898   4.091   6.461
  576TIP3   OH2 1670   0.219   3.920   6.603
  576TIP3    H1 1671   0.133   3.957   6.620
  576TIP3    H2 1672   0.250   3.964   6.525
  577TIP3   OH2 1673   5.245   2.785   3.678
  577TIP3    H1 1674   5.225   2.875   3.655
  577TIP3    H2 1675   5.171   2.734   3.646
  578TIP3   OH2 1676   0.795   3.470   3.476
  578TIP3    H1 1677   0.704   3.465   3.506
  578TIP3    H2 1678   0.834   3.540   3.529
  579TIP3   OH2 1679   4.179   4.465   2.228
  579TIP3    H1 1680   4.174   4.557   2.254
  579TIP3    H2 1681   4.119   4.420   2.287
  580TIP3   OH2 1682   2.439   6.210   2.556
  580TIP3    H1 1683   2.390   6.241   2.480
  580TIP3    H2 1684   2.428   6.279   2.622
  581TIP3   OH2 1685   5.736   1.978   1.382
  581TIP3    H1 1686   5.702   2.018   1.463
  581TIP3    H2 1687   5.662   1.983   1.321
  582TIP3   OH2 1688   5.766   5.845   3.865
  582TIP3    H1 1689   5.834   5.850   3.799
  582TIP3    H2 1690   5.813   5.835   3.948
  583TIP3   OH2 1691   7.103   3.283   0.478
  583TIP3    H1 1692   7.195   3.263   0.491
  583TIP3    H2 1693   7.101   3.374   0.451
  584TIP3   OH2 1694   2.477   5.882   2.430
  584TIP3    H1 1695   2.516   5.805   2.472
  584TIP3    H2 1696   2.550   5.943   2.421
  585TIP3   OH2 1697   7.888   6.206   3.458
  585TIP3    H1 1698   7.958   6.206   3.523
  585TIP3    H2 1699   7.869   6.299   3.444
  586TIP3   OH2 1700   1.178   0.216  -0.013
  586TIP3    H1 1701   1.131   0.134  -0.003
  586TIP3    H2 1702   1.186   0.251   0.076
  587TIP3   OH2 1703   3.738  -0.011   0.125
  587TIP3    H1 1704   3.710  -0.013   0.217
  587TIP3    H2 1705   3.801   0.061   0.122
  588TIP3   OH2 1706   3.572   3.549   0.222
  588TIP3    H1 1707   3.584   3.640   0.197
  588TIP3    H2 1708   3.538   3.507   0.143
  589TIP3   OH2 1709   7.104   3.090  -0.003
  589TIP3    H1 1710   7.111   2.994   0.002
  589TIP3    H2 1711   7.174   3.122   0.053
  590TIP3   OH2 1712   0.960   7.120   5.058
  590TIP3    H1 1713   0.959   7.120   4.962
  590TIP3    H2 1714   1.031   7.180   5.081
  591TIP3   OH2 1715   4.947   4.927   2.828
  591TIP3    H1 1716   4.969   4.959   2.915
  591TIP3    H2 1717   5.017   4.866   2.805
  592TIP3   OH2 1718   5.918   2.927   4.869
  592TIP3    H1 1719   5.996   2.937   4.815
  592TIP3    H2 1720   5.883   3.016   4.876
  593TIP3   OH2 1721   5.232   4.515   4.204
  593TIP3    H1 1722   5.179   4.445   4.164
  593TIP3    H2 1723   5.232   4.494   4.297
  594TIP3   OH2 1724   2.519   5.639   5.765
  594TIP3    H1 1725   2.580   5.614   5.834
  594TIP3    H2 1726   2.433   5.640   5.807
  595TIP3   OH2 1727   6.817   5.272   0.252
  595TIP3    H1 1728   6.730   5.267   0.291
  595TIP3    H2 1729   6.802   5.313   0.166
  596TIP3   OH2 1730   2.838   6.384   6.445
  596TIP3    H1 1731   2.923   6.343   6.458
  596TIP3    H2 1732   2.836   6.408   6.353
  597TIP3   OH2 1733   7.385   2.308   2.709
  597TIP3    H1 1734   7.454   2.358   2.753
  597TIP3    H2 1735   7.336   2.373   2.660
  598TIP3   OH2 1736   2.109   0.369   6.081
  598TIP3    H1 1737   2.193   0.409   6.104
  598TIP3    H2 1738   2.082   0.323   6.160
  599TIP3   OH2 1739   7.950   5.606   3.690
  599TIP3    H1 1740   8.023   5.667   3.704
  599TIP3    H2 1741   7.959   5.580   3.598
  600TIP3   OH2 1742   8.130   0.758   4.923
  600TIP3    H1 1743   8.107   0.679   4.971
  600TIP3    H2 1744   8.107   0.830   4.983
  601TIP3   OH2 1745   7.116   7.257   5.621
  601TIP3    H1 1746   7.128   7.327   5.556
  601TIP3    H2 1747   7.056   7.294   5.685
  602TIP3   OH2 1748   4.173   1.526   2.697
  602TIP3    H1 1749   4.243   1.468   2.729
  602TIP3    H2 1750   4.219   1.606   2.671
  603TIP3   OH2 1751   2.058   6.619   2.736
  603TIP3    H1 1752   2.146   6.650   2.716
  603TIP3    H2 1753   2.006   6.699   2.742
  604TIP3   OH2 1754   1.857   6.494   6.219
  604TIP3    H1 1755   1.783   6.480   6.161
  604TIP3    H2 1756   1.839   6.579   6.261
  605TIP3   OH2 1757   0.080   2.935   3.682
  605TIP3    H1 1758   0.085   2.920   3.777
  605TIP3    H2 1759  -0.013   2.947   3.664
  606TIP3   OH2 1760   0.315   6.484   4.846
  606TIP3    H1 1761   0.295   6.574   4.820
  606TIP3    H2 1762   0.305   6.484   4.941
  607TIP3   OH2 1763   2.204   7.741   3.169
  607TIP3    H1 1764   2.133   7.765   3.228
  607TIP3    H2 1765   2.160   7.701   3.094
  608TIP3   OH2 1766   4.593   3.943   0.999
  608TIP3    H1 1767   4.641   3.913   0.922
  608TIP3    H2 1768   4.560   3.862   1.039
  609TIP3   OH2 1769   6.636   0.712   5.380
  609TIP3    H1 1770   6.580   0.761   5.320
  609TIP3    H2 1771   6.721   0.753   5.373
  610TIP3   OH2 1772   5.395   2.178   0.273
  610TIP3    H1 1773   5.393   2.089   0.307
  610TIP3    H2 1774   5.465   2.221   0.322
  611TIP3   OH2 1775   5.937   7.585   5.716
  611TIP3    H1 1776   6.021   7.626   5.696
  611TIP3    H2 1777   5.944   7.497   5.679
  612TIP3   OH2 1778   2.963   2.580   0.112
  612TIP3    H1 1779   2.969   2.668   0.149
  612TIP3    H2 1780   2.904   2.533   0.171
  613TIP3   OH2 1781   4.133   0.480   1.116
  613TIP3    H1 1782   4.117   0.557   1.062
  613TIP3    H2 1783   4.131   0.407   1.054
  614TIP3   OH2 1784   2.951   7.334   5.872
  614TIP3    H1 1785   3.020   7.297   5.927
  614TIP3    H2 1786   2.895   7.382   5.933
  615TIP3   OH2 1787   1.362   0.871   1.048
  615TIP3    H1 1788   1.372   0.963   1.024
  615TIP3    H2 1789   1.340   0.872   1.141
  616TIP3   OH2 1790   6.605   6.604   3.562
  616TIP3    H1 1791   6.686   6.622   3.515
  616TIP3    H2 1792   6.634   6.570   3.647
  617TIP3   OH2 1793   0.169   6.369   0.433
  617TIP3    H1 1794   0.196   6.277   0.425
  617TIP3    H2 1795   0.196   6.409   0.350
  618TIP3   OH2 1796   8.186   3.900   6.067
  618TIP3    H1 1797   8.106   3.867   6.107
  618TIP3    H2 1798   8.211   3.834   6.002
  619TIP3   OH2 1799   1.826   4.861   2.643
  619TIP3    H1 1800   1.884   4.927   2.605
  619TIP3    H2 1801   1.756   4.850   2.578
  620TIP3   OH2 1802   6.597   1.613   6.141
  620TIP3    H1 1803   6.561   1.525   6.126
  620TIP3    H2 1804   6.677   1.598   6.191
  621TIP3   OH2 1805   0.441   3.116   5.800
  621TIP3    H1 1806   0.520   3.112   5.746
  621TIP3    H2 1807   0.471   3.156   5.882
  622TIP3   OH2 1808   1.062   5.440   2.464
  622TIP3    H1 1809   1.141   5.389   2.446
  622TIP3    H2 1810   0.995   5.401   2.408
  623TIP3   OH2 1811   0.521   0.215   1.919
  623TIP3    H1 1812   0.508   0.242   1.829
  623TIP3    H2 1813   0.480   0.129   1.926
  624TIP3   OH2 1814   0.166   3.353   0.119
  624TIP3    H1 1815   0.074   3.326   0.123
  624TIP3    H2 1816   0.215   3.271   0.116
  625TIP3   OH2 1817   0.222   3.412   4.993
  625TIP3    H1 1818   0.197   3.494   5.035
  625TIP3    H2 1819   0.172   3.345   5.040
  626TIP3   OH2 1820   1.568   7.601   6.056
  626TIP3    H1 1821   1.551   7.679   6.109
  626TIP3    H2 1822   1.522   7.530   6.102
  627TIP3   OH2 1823   1.107   5.631   0.233
  627TIP3    H1 1824   1.180   5.668   0.184
  627TIP3    H2 1825   1.053   5.587   0.167
  628TIP3   OH2 1826   8.030   2.039   6.329
  628TIP3    H1 1827   8.055   1.947   6.314
  628TIP3    H2 1828   7.952   2.052   6.275
  629TIP3   OH2 1829   2.209   1.992   2.960
  629TIP3    H1 1830   2.147   1.996   3.033
  629TIP3    H2 1831   2.215   2.082   2.928
  630TIP3   OH2 1832   5.460   0.572   2.404
  630TIP3    H1 1833   5.518   0.595   2.332
  630TIP3    H2 1834   5.439   0.479   2.390
  631TIP3   OH2 1835   0.396   7.313   1.983
  631TIP3    H1 1836   0.353   7.306   2.068
  631TIP3    H2 1837   0.393   7.407   1.962
  632TIP3   OH2 1838   2.355   4.027   0.223
  632TIP3    H1 1839   2.333   4.041   0.131
  632TIP3    H2 1840   2.270   4.018   0.267
  633TIP3   OH2 1841   2.362   1.949   6.375
  633TIP3    H1 1842   2.399   1.861   6.372
  633TIP3    H2 1843   2.268   1.935   6.381
  634TIP3   OH2 1844   3.768   6.950   6.197
  634TIP3    H1 1845   3.853   6.972   6.159
  634TIP3    H2 1846   3.778   6.964   6.291
  635TIP3   OH2 1847   1.677   7.283   2.948
  635TIP3    H1 1848   1.711   7.228   2.878
  635TIP3    H2 1849   1.746   7.347   2.964
  636TIP3   OH2 1850   3.037   3.323   5.650
  636TIP3    H1 1851   2.953   3.362   5.671
  636TIP3    H2 1852   3.099   3.396   5.650
  637TIP3   OH2 1853   0.537   0.400   5.173
  637TIP3    H1 1854   0.512   0.422   5.083
  637TIP3    H2 1855   0.455   0.393   5.220
  638TIP3   OH2 1856   3.341   6.313   2.218
  638TIP3    H1 1857   3.257   6.321   2.173
  638TIP3    H2 1858   3.348   6.393   2.271
  639TIP3   OH2 1859   2.570   2.165   4.809
  639TIP3    H1 1860   2.619   2.246   4.825
  639TIP3    H2 1861   2.487   2.179   4.854
  640TIP3   OH2 1862   2.223   4.521   5.633
  640TIP3    H1 1863   2.305   4.541   5.589
  640TIP3    H2 1864   2.156   4.566   5.581
  641TIP3   OH2 1865   0.093   6.217   6.745
  641TIP3    H1 1866   0.043   6.290   6.708
  641TIP3    H2 1867   0.049   6.139   6.711
  642TIP3   OH2 1868   1.083   0.157   6.379
  642TIP3    H1 1869   1.160   0.213   6.365
  642TIP3    H2 1870   1.112   0.070   6.353
  643TIP3   OH2 1871   3.650   7.654   1.403
  643TIP3    H1 1872   3.578   7.659   1.466
  643TIP3    H2 1873   3.723   7.701   1.446
  644TIP3   OH2 1874   3.555   6.062   6.179
  644TIP3    H1 1875   3.545   6.154   6.203
  644TIP3    H2 1876   3.646   6.041   6.198
  645TIP3   OH2 1877   5.457   1.548   3.993
  645TIP3    H1 1878   5.418   1.634   3.978
  645TIP3    H2 1879   5.535   1.566   4.045
  646TIP3   OH2 1880   7.354   0.858   2.252
  646TIP3    H1 1881   7.363   0.780   2.198
  646TIP3    H2 1882   7.441   0.870   2.291
  647TIP3   OH2 1883   5.096   5.185   0.900
  647TIP3    H1 1884   5.023   5.182   0.838
  647TIP3    H2 1885   5.174   5.187   0.846
  648TIP3   OH2 1886   4.880   2.924   1.863
  648TIP3    H1 1887   4.958   2.975   1.886
  648TIP3    H2 1888   4.818   2.988   1.828
  649TIP3   OH2 1889   5.837   4.310   3.161
  649TIP3    H1 1890   5.775   4.352   3.221
  649TIP3    H2 1891   5.821   4.351   3.076
  650TIP3   OH2 1892   5.395   5.716   6.798
  650TIP3    H1 1893   5.434   5.743   6.715
  650TIP3    H2 1894   5.395   5.620   6.794
  651TIP3   OH2 1895   6.846   3.680   5.201
  651TIP3    H1 1896   6.894   3.605   5.235
  651TIP3    H2 1897   6.796   3.713   5.275
  652TIP3   OH2 1898   4.222   3.488   2.246
  652TIP3    H1 1899   4.183   3.456   2.328
  652TIP3    H2 1900   4.149   3.527   2.198
  653TIP3   OH2 1901   0.675   1.901   4.662
  653TIP3    H1 1902   0.709   1.866   4.579
  653TIP3    H2 1903   0.711   1.989   4.667
  654TIP3   OH2 1904   3.270   1.413   1.050
  654TIP3    H1 1905   3.356   1.388   1.016
  654TIP3    H2 1906   3.290   1.476   1.120
  655TIP3   OH2 1907   7.160   2.888   2.465
  655TIP3    H1 1908   7.197   2.895   2.553
  655TIP3    H2 1909   7.145   2.978   2.438
  656TIP3   OH2 1910   1.781   5.546   1.912
  656TIP3    H1 1911   1.799   5.489   1.987
  656TIP3    H2 1912   1.741   5.624   1.950
  657TIP3   OH2 1913   5.231   4.159   4.242
  657TIP3    H1 1914   5.155   4.180   4.188
  657TIP3    H2 1915   5.243   4.237   4.297
  658TIP3   OH2 1916   5.033   6.465   4.837
  658TIP3    H1 1917   5.123   6.497   4.838
  658TIP3    H2 1918   5.019   6.431   4.926
  659TIP3   OH2 1919   4.950   1.231   6.301
  659TIP3    H1 1920   4.908   1.317   6.292
  659TIP3    H2 1921   4.938   1.189   6.217
  660TIP3   OH2 1922   7.598   0.204   6.599
  660TIP3    H1 1923   7.642   0.281   6.635
  660TIP3    H2 1924   7.632   0.131   6.650
  661TIP3   OH2 1925   6.125   3.839   4.519
  661TIP3    H1 1926   6.050   3.784   4.494
  661TIP3    H2 1927   6.086   3.923   4.544
  662TIP3   OH2 1928   4.073   3.878   6.228
  662TIP3    H1 1929   4.047   3.859   6.138
  662TIP3    H2 1930   4.050   3.970   6.241
  663TIP3   OH2 1931   4.616   0.187   0.099
  663TIP3    H1 1932   4.550   0.119   0.087
  663TIP3    H2 1933   4.664   0.159   0.177
  664TIP3   OH2 1934   4.529   1.188   4.217
  664TIP3    H1 1935   4.539   1.277   4.186
  664TIP3    H2 1936   4.606   1.142   4.186
  665TIP3   OH2 1937   5.463   1.543   1.913
  665TIP3    H1 1938   5.396   1.531   1.980
  665TIP3    H2 1939   5.520   1.611   1.948
  666TIP3   OH2 1940   1.189   6.165   2.897
  666TIP3    H1 1941   1.109   6.164   2.844
  666TIP3    H2 1942   1.250   6.109   2.849
  667TIP3   OH2 1943   0.540   2.145   0.534
  667TIP3    H1 1944   0.536   2.100   0.450
  667TIP3    H2 1945   0.487   2.090   0.593
  668TIP3   OH2 1946   2.835   7.038   6.576
  668TIP3    H1 1947   2.745   7.039   6.544
  668TIP3    H2 1948   2.889   7.046   6.497
  669TIP3   OH2 1949   6.691   4.445   1.771
  669TIP3    H1 1950   6.639   4.462   1.849
  669TIP3    H2 1951   6.665   4.513   1.709
  670TIP3   OH2 1952   3.403   0.553   2.984
  670TIP3    H1 1953   3.355   0.590   2.910
  670TIP3    H2 1954   3.355   0.583   3.062
  671TIP3   OH2 1955   0.197   0.557   2.387
  671TIP3    H1 1956   0.114   0.584   2.345
  671TIP3    H2 1957   0.171   0.529   2.474
  672TIP3   OH2 1958   4.366   2.756   4.097
  672TIP3    H1 1959   4.446   2.802   4.071
  672TIP3    H2 1960   4.361   2.681   4.038
  673TIP3   OH2 1961   6.272   4.109   6.631
  673TIP3    H1 1962   6.355   4.094   6.586
  673TIP3    H2 1963   6.242   4.022   6.658
  674TIP3   OH2 1964   3.518   2.594   4.754
  674TIP3    H1 1965   3.423   2.587   4.754
  674TIP3    H2 1966   3.539   2.641   4.835
  675TIP3   OH2 1967   5.752   2.595   2.382
  675TIP3    H1 1968   5.755   2.670   2.441
  675TIP3    H2 1969   5.659   2.576   2.370
  676TIP3   OH2 1970   2.739   7.602   4.412
  676TIP3    H1 1971   2.771   7.569   4.496
  676TIP3    H2 1972   2.654   7.641   4.432
  677TIP3   OH2 1973   4.994   5.212   6.037
  677TIP3    H1 1974   5.031   5.184   6.120
  677TIP3    H2 1975   5.033   5.298   6.020
  678TIP3   OH2 1976   2.930   3.590   6.064
  678TIP3    H1 1977   2.933   3.506   6.017
  678TIP3    H2 1978   2.998   3.582   6.131
  679TIP3   OH2 1979   2.646   2.537   2.962
  679TIP3    H1 1980   2.628   2.496   3.047
  679TIP3    H2 1981   2.729   2.498   2.934
  680TIP3   OH2 1982   0.182   5.051   3.397
  680TIP3    H1 1983   0.225   4.994   3.333
  680TIP3    H2 1984   0.207   5.140   3.371
  681TIP3   OH2 1985   2.402   2.989   5.025
  681TIP3    H1 1986   2.326   2.933   5.016
  681TIP3    H2 1987   2.397   3.049   4.951
  682TIP3   OH2 1988   0.964   3.230   0.815
  682TIP3    H1 1989   0.951   3.283   0.894
  682TIP3    H2 1990   0.891   3.168   0.815
  683TIP3   OH2 1991   6.704   1.651   2.801
  683TIP3    H1 1992   6.658   1.635   2.718
  683TIP3    H2 1993   6.635   1.674   2.862
  684TIP3   OH2 1994   3.202   7.361   4.655
  684TIP3    H1 1995   3.137   7.324   4.715
  684TIP3    H2 1996   3.279   7.306   4.667
  685TIP3   OH2 1997   4.023   2.490   5.117
  685TIP3    H1 1998   4.074   2.528   5.046
  685TIP3    H2 1999   3.942   2.541   5.118
  686TIP3   OH2 2000   1.505   4.184   5.401
  686TIP3    H1 2001   1.596   4.156   5.397
  686TIP3    H2 2002   1.504   4.259   5.459
  687TIP3   OH2 2003   4.284   4.012   0.993
  687TIP3    H1 2004   4.196   4.028   0.958
  687TIP3    H2 2005   4.319   4.099   1.011
  688TIP3   OH2 2006   5.149   2.489   4.034
  688TIP3    H1 2007   5.174   2.568   4.081
  688TIP3    H2 2008   5.087   2.444   4.092
  689TIP3   OH2 2009   7.483   5.755   0.755
  689TIP3    H1 2010   7.571   5.791   0.766
  689TIP3    H2 2011   7.451   5.796   0.675
  690TIP3   OH2 2012   0.336   4.955   5.864
  690TIP3    H1 2013   0.335   4.860   5.859
  690TIP3    H2 2014   0.365   4.974   5.953
  691TIP3   OH2 2015   3.867   3.908   2.671
  691TIP3    H1 2016   3.935   3.923   2.604
  691TIP3    H2 2017   3.840   3.818   2.657
  692TIP3   OH2 2018   0.859   2.565   5.062
  692TIP3    H1 2019   0.892   2.652   5.082
  692TIP3    H2 2020   0.937   2.512   5.045
  693TIP3   OH2 2021   5.230   0.975   1.865
  693TIP3    H1 2022   5.158   0.968   1.802
  693TIP3    H2 2023   5.199   0.927   1.942
  694TIP3   OH2 2024   4.383   1.839   3.080
  694TIP3    H1 2025   4.471   1.822   3.046
  694TIP3    H2 2026   4.397   1.855   3.174
  695TIP3   OH2 2027   7.133   2.050   4.119
  695TIP3    H1 2028   7.052   2.087   4.154
  695TIP3    H2 2029   7.118   2.045   4.024
  696TIP3   OH2 2030   4.955   6.176   6.487
  696TIP3    H1 2031   4.900   6.198   6.411
  696TIP3    H2 2032   5.038   6.148   6.450
  697TIP3   OH2 2033   6.187   5.370   6.654
  697TIP3    H1 2034   6.211   5.428   6.726
  697TIP3    H2 2035   6.242   5.401   6.581
  698TIP3   OH2 2036   1.567   1.032   4.019
  698TIP3    H1 2037   1.644   1.077   4.053
  698TIP3    H2 2038   1.600   0.950   3.983
  699TIP3   OH2 2039   6.235   1.336   0.107
  699TIP3    H1 2040   6.157   1.391   0.105
  699TIP3    H2 2041   6.268   1.339   0.017
  700TIP3   OH2 2042   6.443   4.334   5.188
  700TIP3    H1 2043   6.523   4.348   5.239
  700TIP3    H2 2044   6.473   4.292   5.108
  701TIP3   OH2 2045   3.221   4.104   1.421
  701TIP3    H1 2046   3.161   4.031   1.406
  701TIP3    H2 2047   3.296   4.085   1.365
  702TIP3   OH2 2048   3.971   4.453   3.518
  702TIP3    H1 2049   4.006   4.383   3.462
  702TIP3    H2 2050   3.910   4.500   3.462
  703TIP3   OH2 2051   1.901   3.479   2.609
  703TIP3    H1 2052   1.973   3.452   2.552
  703TIP3    H2 2053   1.858   3.397   2.632
  704TIP3   OH2 2054   0.724   0.038   2.783
  704TIP3    H1 2055   0.671  -0.028   2.739
  704TIP3    H2 2056   0.810   0.031   2.742
  705TIP3   OH2 2057   0.897   1.219   2.929
  705TIP3    H1 2058   0.827   1.273   2.893
  705TIP3    H2 2059   0.893   1.233   3.023
  706TIP3   OH2 2060   8.075   5.331   0.897
  706TIP3    H1 2061   7.997   5.354   0.847
  706TIP3    H2 2062   8.103   5.248   0.861
  707TIP3   OH2 2063   1.859   7.481   3.043
  707TIP3    H1 2064   1.768   7.509   3.053
  707TIP3    H2 2065   1.908   7.537   3.103
  708TIP3   OH2 2066   1.503   6.769   2.836
  708TIP3    H1 2067   1.453   6.725   2.905
  708TIP3    H2 2068   1.448   6.843   2.810
  709TIP3   OH2 2069   2.311   1.071   2.659
  709TIP3    H1 2070   2.315   1.065   2.755
  709TIP3    H2 2071   2.312   1.165   2.641
  710TIP3   OH2 2072   3.212   3.334   1.034
  710TIP3    H1 2073   3.141   3.327   1.096
  710TIP3    H2 2074   3.187   3.407   0.976
  711TIP3   OH2 2075   3.173   1.700   2.736
  711TIP3    H1 2076   3.196   1.635   2.803
  711TIP3    H2 2077   3.080   1.718   2.752
  712TIP3   OH2 2078   3.637   7.673   2.880
  712TIP3    H1 2079   3.622   7.758   2.922
  712TIP3    H2 2080   3.610   7.685   2.789
  713TIP3   OH2 2081   6.090   5.920   0.989
  713TIP3    H1 2082   6.168   5.868   1.008
  713TIP3    H2 2083   6.069   5.900   0.898
  714TIP3   OH2 2084   3.736   2.203   6.067
  714TIP3    H1 2085   3.823   2.201   6.106
  714TIP3    H2 2086   3.745   2.157   5.984
  715TIP3   OH2 2087   5.401   6.532   0.642
  715TIP3    H1 2088   5.346   6.468   0.597
  715TIP3    H2 2089   5.363   6.617   0.618
  716TIP3   OH2 2090   2.405   1.071   0.111
  716TIP3    H1 2091   2.439   0.986   0.135
  716TIP3    H2 2092   2.323   1.052   0.065
  717TIP3   OH2 2093   0.510   2.244   2.578
  717TIP3    H1 2094   0.432   2.273   2.625
  717TIP3    H2 2095   0.494   2.151   2.561
  718TIP3   OH2 2096   2.034   0.792   6.110
  718TIP3    H1 2097   2.084   0.836   6.178
  718TIP3    H2 2098   1.943   0.796   6.140
  719TIP3   OH2 2099   5.041   2.395   5.975
  719TIP3    H1 2100   5.103   2.340   6.023
  719TIP3    H2 2101   5.093   2.473   5.951
  720TIP3   OH2 2102   3.626   1.803   1.687
  720TIP3    H1 2103   3.698   1.858   1.717
  720TIP3    H2 2104   3.626   1.728   1.746
  721TIP3   OH2 2105   5.890   7.061   4.844
  721TIP3    H1 2106   5.821   7.073   4.909
  721TIP3    H2 2107   5.932   7.147   4.837
  722TIP3   OH2 2108   0.285   7.174   6.767
  722TIP3    H1 2109   0.206   7.156   6.716
  722TIP3    H2 2110   0.269   7.260   6.806
  723TIP3   OH2 2111   6.392   4.491   4.946
  723TIP3    H1 2112   6.318   4.441   4.911
  723TIP3    H2 2113   6.403   4.458   5.035
  724TIP3   OH2 2114   8.006   4.959   4.860
  724TIP3    H1 2115   8.002   4.869   4.827
  724TIP3    H2 2116   7.999   5.013   4.782
  725TIP3   OH2 2117   6.848   4.624   4.802
  725TIP3    H1 2118   6.774   4.654   4.856
  725TIP3    H2 2119   6.920   4.683   4.826
  726TIP3   OH2 2120   2.532   0.184   4.426
  726TIP3    H1 2121   2.505   0.096   4.401
  726TIP3    H2 2122   2.627   0.186   4.410
  727TIP3   OH2 2123   5.569   1.172   0.259
  727TIP3    H1 2124   5.615   1.245   0.219
  727TIP3    H2 2125   5.499   1.212   0.311
  728TIP3   OH2 2126   3.805   4.003   5.930
  728TIP3    H1 2127   3.772   3.981   5.843
  728TIP3    H2 2128   3.790   4.097   5.939
  729TIP3   OH2 2129   2.337   2.472   4.342
  729TIP3    H1 2130   2.410   2.415   4.365
  729TIP3    H2 2131   2.270   2.414   4.308
  730TIP3   OH2 2132   6.638   7.009   2.811
  730TIP3    H1 2133   6.543   7.022   2.821
  730TIP3    H2 2134   6.671   7.004   2.900
  731TIP3   OH2 2135   7.022   1.063   4.571
  731TIP3    H1 2136   7.090   1.125   4.546
  731TIP3    H2 2137   6.994   1.091   4.658
  732TIP3   OH2 2138   3.259   4.244   2.201
  732TIP3    H1 2139   3.221   4.285   2.123
  732TIP3    H2 2140   3.252   4.150   2.184
  733TIP3   OH2 2141   7.336   1.853   3.950
  733TIP3    H1 2142   7.279   1.792   3.903
  733TIP3    H2 2143   7.300   1.939   3.931
  734TIP3   OH2 2144   8.047   4.571   2.928
  734TIP3    H1 2145   8.039   4.655   2.882
  734TIP3    H2 2146   8.043   4.506   2.858
  735TIP3   OH2 2147   1.679   2.573   2.150
  735TIP3    H1 2148   1.600   2.544   2.196
  735TIP3    H2 2149   1.711   2.495   2.105
  736TIP3   OH2 2150   7.151   6.607   2.612
  736TIP3    H1 2151   7.060   6.628   2.631
  736TIP3    H2 2152   7.201   6.650   2.682
  737TIP3   OH2 2153   7.236   5.224   6.329
  737TIP3    H1 2154   7.159   5.228   6.272
  737TIP3    H2 2155   7.205   5.180   6.408
  738TIP3   OH2 2156   1.867   2.384   1.502
  738TIP3    H1 2157   1.880   2.385   1.597
  738TIP3    H2 2158   1.946   2.424   1.466
  739TIP3   OH2 2159   2.040   0.520   0.402
  739TIP3    H1 2160   1.994   0.472   0.470
  739TIP3    H2 2161   2.113   0.561   0.447
  740TIP3   OH2 2162   3.641   5.568   4.777
  740TIP3    H1 2163   3.587   5.646   4.760
  740TIP3    H2 2164   3.590   5.495   4.741
  741TIP3   OH2 2165   5.218   3.593   3.183
  741TIP3    H1 2166   5.243   3.567   3.095
  741TIP3    H2 2167   5.182   3.681   3.173
  742TIP3   OH2 2168   4.280   4.512   0.657
  742TIP3    H1 2169   4.303   4.489   0.747
  742TIP3    H2 2170   4.234   4.595   0.664
  743TIP3   OH2 2171   3.195   0.720   3.117
  743TIP3    H1 2172   3.205   0.771   3.037
  743TIP3    H2 2173   3.222   0.779   3.188
  744TIP3   OH2 2174   1.629   7.597   1.927
  744TIP3    H1 2175   1.566   7.621   1.859
  744TIP3    H2 2176   1.605   7.507   1.951
  745TIP3   OH2 2177   5.703   6.480   4.323
  745TIP3    H1 2178   5.765   6.443   4.260
  745TIP3    H2 2179   5.621   6.485   4.275
  746TIP3   OH2 2180   6.064   4.808   5.799
  746TIP3    H1 2181   5.998   4.832   5.733
  746TIP3    H2 2182   6.108   4.732   5.760
  747TIP3   OH2 2183   4.186   6.842   1.161
  747TIP3    H1 2184   4.136   6.808   1.235
  747TIP3    H2 2185   4.271   6.865   1.198
  748TIP3   OH2 2186   1.469   2.883   0.511
  748TIP3    H1 2187   1.420   2.933   0.445
  748TIP3    H2 2188   1.441   2.793   0.497
  749TIP3   OH2 2189   4.580   4.658   4.316
  749TIP3    H1 2190   4.632   4.737   4.335
  749TIP3    H2 2191   4.489   4.686   4.329
  750TIP3   OH2 2192   1.770   1.937   0.340
  750TIP3    H1 2193   1.846   1.946   0.397
  750TIP3    H2 2194   1.767   1.843   0.319
  751TIP3   OH2 2195   6.074   3.543   2.452
  751TIP3    H1 2196   6.101   3.635   2.447
  751TIP3    H2 2197   6.001   3.536   2.390
  752TIP3   OH2 2198   4.278   0.555   3.439
  752TIP3    H1 2199   4.358   0.564   3.490
  752TIP3    H2 2200   4.278   0.631   3.380
  753TIP3   OH2 2201   4.026   1.685   3.508
  753TIP3    H1 2202   4.083   1.621   3.550
  753TIP3    H2 2203   4.040   1.673   3.415
  754TIP3   OH2 2204   2.093   0.122   1.106
  754TIP3    H1 2205   2.140   0.049   1.065
  754TIP3    H2 2206   2.161   0.173   1.150
  755TIP3   OH2 2207   2.493   1.940   1.261
  755TIP3    H1 2208   2.539   1.887   1.196
  755TIP3    H2 2209   2.422   1.983   1.212
  756TIP3   OH2 2210   3.208   6.019   1.113
  756TIP3    H1 2211   3.188   6.027   1.206
  756TIP3    H2 2212   3.282   6.078   1.099
  757TIP3   OH2 2213   4.626   6.117   0.503
  757TIP3    H1 2214   4.625   6.210   0.479
  757TIP3    H2 2215   4.649   6.072   0.422
  758TIP3   OH2 2216   5.466   0.218   3.222
  758TIP3    H1 2217   5.425   0.132   3.215
  758TIP3    H2 2218   5.395   0.278   3.244
  759TIP3   OH2 2219   4.261   4.053   5.167
  759TIP3    H1 2220   4.249   4.045   5.262
  759TIP3    H2 2221   4.199   4.120   5.141
  760TIP3   OH2 2222   5.920   0.426   6.754
  760TIP3    H1 2223   5.931   0.446   6.661
  760TIP3    H2 2224   5.961   0.499   6.799
  761TIP3   OH2 2225   2.948   7.705   2.559
  761TIP3    H1 2226   3.031   7.656   2.565
  761TIP3    H2 2227   2.963   7.783   2.612
  762TIP3   OH2 2228   0.338   2.003   0.392
  762TIP3    H1 2229   0.274   2.021   0.323
  762TIP3    H2 2230   0.355   1.909   0.385
  763TIP3   OH2 2231   0.483   0.850   0.643
  763TIP3    H1 2232   0.397   0.851   0.602
  763TIP3    H2 2233   0.482   0.923   0.705
  764TIP3   OH2 2234   3.411   7.581   4.249
  764TIP3    H1 2235   3.370   7.595   4.335
  764TIP3    H2 2236   3.416   7.668   4.210
  765TIP3   OH2 2237   8.244   1.348   1.591
  765TIP3    H1 2238   8.182   1.419   1.575
  765TIP3    H2 2239   8.329   1.385   1.568
  766TIP3   OH2 2240   2.688   2.076   1.895
  766TIP3    H1 2241   2.707   2.160   1.935
  766TIP3    H2 2242   2.630   2.032   1.958
  767TIP3   OH2 2243   7.390   3.828   6.358
  767TIP3    H1 2244   7.394   3.733   6.369
  767TIP3    H2 2245   7.482   3.854   6.348
  768TIP3   OH2 2246   7.902   5.436   0.403
  768TIP3    H1 2247   7.822   5.408   0.448
  768TIP3    H2 2248   7.880   5.432   0.310
  769TIP3   OH2 2249   7.595   5.093   1.840
  769TIP3    H1 2250   7.554   5.013   1.874
  769TIP3    H2 2251   7.662   5.060   1.779
  770TIP3   OH2 2252   6.750   0.085   2.207
  770TIP3    H1 2253   6.762   0.096   2.301
  770TIP3    H2 2254   6.673   0.028   2.199
  771TIP3   OH2 2255   4.561   6.357   3.568
  771TIP3    H1 2256   4.547   6.444   3.605
  771TIP3    H2 2257   4.591   6.304   3.642
  772TIP3   OH2 2258   3.002   2.064   5.391
  772TIP3    H1 2259   2.958   2.129   5.445
  772TIP3    H2 2260   2.933   2.003   5.366
  773TIP3   OH2 2261   7.557   7.311   6.673
  773TIP3    H1 2262   7.513   7.394   6.658
  773TIP3    H2 2263   7.499   7.263   6.732
  774TIP3   OH2 2264   0.597   7.116   4.035
  774TIP3    H1 2265   0.653   7.193   4.028
  774TIP3    H2 2266   0.577   7.092   3.944
  775TIP3   OH2 2267   5.813   4.163   1.625
  775TIP3    H1 2268   5.809   4.076   1.585
  775TIP3    H2 2269   5.902   4.169   1.660
  776TIP3   OH2 2270   1.569   4.265   5.883
  776TIP3    H1 2271   1.524   4.333   5.932
  776TIP3    H2 2272   1.642   4.239   5.938
  777TIP3   OH2 2273   6.365   7.644   5.559
  777TIP3    H1 2274   6.339   7.608   5.475
  777TIP3    H2 2275   6.416   7.574   5.601
  778TIP3   OH2 2276   4.903   5.313   5.180
  778TIP3    H1 2277   4.937   5.322   5.091
  778TIP3    H2 2278   4.923   5.223   5.205
  779TIP3   OH2 2279   2.162   7.624   5.453
  779TIP3    H1 2280   2.091   7.606   5.392
  779TIP3    H2 2281   2.171   7.545   5.505
  780TIP3   OH2 2282   6.290   5.492   5.684
  780TIP3    H1 2283   6.350   5.460   5.751
  780TIP3    H2 2284   6.286   5.422   5.619
  781TIP3   OH2 2285   5.029   7.846   0.350
  781TIP3    H1 2286   5.035   7.756   0.382
  781TIP3    H2 2287   4.935   7.861   0.339
  782TIP3   OH2 2288   7.480   3.058   3.740
  782TIP3    H1 2289   7.536   3.004   3.684
  782TIP3    H2 2290   7.481   3.145   3.698
  783TIP3   OH2 2291   8.308   2.984   3.944
  783TIP3    H1 2292   8.222   2.942   3.938
  783TIP3    H2 2293   8.293   3.074   3.916
  784TIP3   OH2 2294   6.836   0.306   0.733
  784TIP3    H1 2295   6.926   0.334   0.720
  784TIP3    H2 2296   6.832   0.277   0.824
  785TIP3   OH2 2297   0.964   6.326   1.387
  785TIP3    H1 2298   1.035   6.304   1.446
  785TIP3    H2 2299   0.953   6.248   1.332
  786TIP3   OH2 2300   8.163   1.085  -0.006
  786TIP3    H1 2301   8.121   1.153   0.045
  786TIP3    H2 2302   8.114   1.005   0.016
  787TIP3   OH2 2303   0.953   2.071   4.554
  787TIP3    H1 2304   0.944   2.064   4.459
  787TIP3    H2 2305   1.044   2.098   4.567
  788TIP3   OH2 2306   0.148   0.438   1.539
  788TIP3    H1 2307   0.121   0.350   1.514
  788TIP3    H2 2308   0.067   0.481   1.566
  789TIP3   OH2 2309   5.042   1.081   6.742
  789TIP3    H1 2310   4.973   1.057   6.804
  789TIP3    H2 2311   5.116   1.026   6.767
  790TIP3   OH2 2312   1.521   6.127   3.839
  790TIP3    H1 2313   1.557   6.212   3.865
  790TIP3    H2 2314   1.511   6.133   3.744
  791TIP3   OH2 2315   3.417   4.950   0.932
  791TIP3    H1 2316   3.378   5.035   0.951
  791TIP3    H2 2317   3.394   4.896   1.007
  792TIP3   OH2 2318   0.372   4.496   2.428
  792TIP3    H1 2319   0.412   4.574   2.465
  792TIP3    H2 2320   0.279   4.518   2.420
  793TIP3   OH2 2321   0.285   6.163   1.579
  793TIP3    H1 2322   0.198   6.169   1.540
  793TIP3    H2 2323   0.338   6.227   1.531
  794TIP3   OH2 2324   3.080   7.014   4.223
  794TIP3    H1 2325   3.029   7.017   4.303
  794TIP3    H2 2326   3.158   7.067   4.242
  795TIP3   OH2 2327   2.682   0.091   3.201
  795TIP3    H1 2328   2.769   0.127   3.217
  795TIP3    H2 2329   2.641   0.153   3.140
  796TIP3   OH2 2330   2.169   5.148   1.512
  796TIP3    H1 2331   2.134   5.079   1.457
  796TIP3    H2 2332   2.264   5.143   1.500
  797TIP3   OH2 2333   2.086   1.174   4.066
  797TIP3    H1 2334   2.099   1.256   4.017
  797TIP3    H2 2335   2.116   1.194   4.154
  798TIP3   OH2 2336   6.313   1.003   0.342
  798TIP3    H1 2337   6.376   1.006   0.270
  798TIP3    H2 2338   6.346   0.935   0.400
  799TIP3   OH2 2339   0.847   2.922   4.908
  799TIP3    H1 2340   0.861   3.004   4.954
  799TIP3    H2 2341   0.919   2.866   4.935
  800TIP3   OH2 2342   1.772   5.152   5.430
  800TIP3    H1 2343   1.790   5.164   5.336
  800TIP3    H2 2344   1.815   5.227   5.471
  801TIP3   OH2 2345   7.727   4.834   2.917
  801TIP3    H1 2346   7.648   4.798   2.957
  801TIP3    H2 2347   7.733   4.923   2.952
  802TIP3   OH2 2348   7.951   5.835   5.469
  802TIP3    H1 2349   7.970   5.757   5.417
  802TIP3    H2 2350   7.856   5.831   5.484
  803TIP3   OH2 2351   7.625   2.295   6.312
  803TIP3    H1 2352   7.708   2.264   6.348
  803TIP3    H2 2353   7.583   2.340   6.385
  804TIP3   OH2 2354   2.263   5.155   1.051
  804TIP3    H1 2355   2.282   5.125   0.962
  804TIP3    H2 2356   2.212   5.235   1.039
  805TIP3   OH2 2357   1.672   7.351   3.997
  805TIP3    H1 2358   1.713   7.353   4.084
  805TIP3    H2 2359   1.700   7.268   3.959
  806TIP3   OH2 2360   0.311   2.876   1.283
  806TIP3    H1 2361   0.351   2.924   1.210
  806TIP3    H2 2362   0.237   2.931   1.309
  807TIP3   OH2 2363   7.982   7.488   3.647
  807TIP3    H1 2364   7.954   7.458   3.561
  807TIP3    H2 2365   7.988   7.583   3.639
  808TIP3   OH2 2366   6.927   1.346   1.849
  808TIP3    H1 2367   6.904   1.292   1.773
  808TIP3    H2 2368   7.013   1.381   1.828
  809TIP3   OH2 2369   6.779   4.464   0.354
  809TIP3    H1 2370   6.772   4.417   0.270
  809TIP3    H2 2371   6.789   4.556   0.328
  810TIP3   OH2 2372   4.510   0.088   6.333
  810TIP3    H1 2373   4.419   0.072   6.306
  810TIP3    H2 2374   4.513   0.058   6.424
  811TIP3   OH2 2375   7.270   7.755   2.663
  811TIP3    H1 2376   7.289   7.797   2.747
  811TIP3    H2 2377   7.175   7.746   2.661
  812TIP3   OH2 2378   5.803   2.414   4.346
  812TIP3    H1 2379   5.747   2.452   4.278
  812TIP3    H2 2380   5.890   2.408   4.306
  813TIP3   OH2 2381   3.120   2.863   4.604
  813TIP3    H1 2382   3.156   2.803   4.538
  813TIP3    H2 2383   3.102   2.943   4.555
  814TIP3   OH2 2384   3.472   0.090   5.213
  814TIP3    H1 2385   3.461   0.140   5.294
  814TIP3    H2 2386   3.454   0.153   5.143
  815TIP3   OH2 2387   4.719   4.637   4.631
  815TIP3    H1 2388   4.642   4.590   4.661
  815TIP3    H2 2389   4.695   4.669   4.544
  816TIP3   OH2 2390   6.599   1.876   1.927
  816TIP3    H1 2391   6.595   1.887   2.022
  816TIP3    H2 2392   6.518   1.916   1.895
  817TIP3   OH2 2393   4.545   5.620   1.180
  817TIP3    H1 2394   4.487   5.639   1.254
  817TIP3    H2 2395   4.485   5.606   1.106
  818TIP3   OH2 2396   6.097   5.281   0.930
  818TIP3    H1 2397   6.192   5.267   0.935
  818TIP3    H2 2398   6.068   5.274   1.021
  819TIP3   OH2 2399   2.555   4.587   5.050
  819TIP3    H1 2400   2.515   4.510   5.009
  819TIP3    H2 2401   2.579   4.643   4.977
  820TIP3   OH2 2402   7.574   4.235   1.409
  820TIP3    H1 2403   7.489   4.200   1.381
  820TIP3    H2 2404   7.629   4.158   1.419
  821TIP3   OH2 2405   7.772   3.273   2.002
  821TIP3    H1 2406   7.756   3.294   2.094
  821TIP3    H2 2407   7.711   3.329   1.954
  822TIP3   OH2 2408   6.442   3.183   0.202
  822TIP3    H1 2409   6.366   3.242   0.198
  822TIP3    H2 2410   6.495   3.208   0.126
  823TIP3   OH2 2411   8.055   3.089   1.747
  823TIP3    H1 2412   8.099   3.173   1.730
  823TIP3    H2 2413   7.963   3.106   1.730
  824TIP3   OH2 2414   3.382   5.308   3.318
  824TIP3    H1 2415   3.326   5.273   3.249
  824TIP3    H2 2416   3.460   5.339   3.273
  825TIP3   OH2 2417   1.366   6.996   0.550
  825TIP3    H1 2418   1.434   7.060   0.568
  825TIP3    H2 2419   1.343   7.010   0.458
  826TIP3   OH2 2420   0.324   7.471   1.661
  826TIP3    H1 2421   0.237   7.476   1.621
  826TIP3    H2 2422   0.380   7.522   1.603
  827TIP3   OH2 2423   7.267   0.081   5.003
  827TIP3    H1 2424   7.329   0.151   4.983
  827TIP3    H2 2425   7.184   0.111   4.964
  828TIP3   OH2 2426   0.730   0.464   2.671
  828TIP3    H1 2427   0.659   0.408   2.702
  828TIP3    H2 2428   0.712   0.476   2.578
  829TIP3   OH2 2429   1.451   5.354   0.887
  829TIP3    H1 2430   1.409   5.298   0.952
  829TIP3    H2 2431   1.532   5.308   0.864
  830TIP3   OH2 2432   5.326   1.038   3.939
  830TIP3    H1 2433   5.231   1.032   3.931
  830TIP3    H2 2434   5.345   1.006   4.027
  831TIP3   OH2 2435   5.822   4.915   6.039
  831TIP3    H1 2436   5.868   5.000   6.037
  831TIP3    H2 2437   5.886   4.855   6.077
  832TIP3   OH2 2438   5.348   3.649   4.257
  832TIP3    H1 2439   5.338   3.739   4.226
  832TIP3    H2 2440   5.440   3.627   4.239
  833TIP3   OH2 2441   6.518   2.622   2.013
  833TIP3    H1 2442   6.584   2.561   1.981
  833TIP3    H2 2443   6.561   2.707   2.014
  834TIP3   OH2 2444   8.112   2.967   3.552
  834TIP3    H1 2445   8.046   3.012   3.605
  834TIP3    H2 2446   8.069   2.886   3.525
  835TIP3   OH2 2447   3.821   4.054   0.028
  835TIP3    H1 2448   3.867   3.982   0.071
  835TIP3    H2 2449   3.845   4.047  -0.064
  836TIP3   OH2 2450   6.329   7.460   1.093
  836TIP3    H1 2451   6.368   7.435   1.010
  836TIP3    H2 2452   6.284   7.543   1.075
  837TIP3   OH2 2453   7.175   4.274   1.780
  837TIP3    H1 2454   7.235   4.273   1.705
  837TIP3    H2 2455   7.089   4.254   1.743
  838TIP3   OH2 2456   1.404   1.893   1.252
  838TIP3    H1 2457   1.316   1.862   1.231
  838TIP3    H2 2458   1.431   1.842   1.328
  839TIP3   OH2 2459   4.958   7.192   3.211
  839TIP3    H1 2460   4.908   7.140   3.274
  839TIP3    H2 2461   5.021   7.240   3.265
  840TIP3   OH2 2462   1.334   2.391   3.260
  840TIP3    H1 2463   1.327   2.471   3.207
  840TIP3    H2 2464   1.394   2.335   3.210
  841TIP3   OH2 2465   6.181   5.026   4.425
  841TIP3    H1 2466   6.253   5.089   4.432
  841TIP3    H2 2467   6.188   4.991   4.337
  842TIP3   OH2 2468   3.254   5.432   6.004
  842TIP3    H1 2469   3.200   5.508   6.023
  842TIP3    H2 2470   3.330   5.441   6.061
  843TIP3   OH2 2471   5.626   4.772   5.578
  843TIP3    H1 2472   5.656   4.739   5.493
  843TIP3    H2 2473   5.569   4.846   5.557
  844TIP3   OH2 2474   6.372   2.943   1.013
  844TIP3    H1 2475   6.401   2.871   1.069
  844TIP3    H2 2476   6.400   2.918   0.925
  845TIP3   OH2 2477   1.492   4.932   4.739
  845TIP3    H1 2478   1.416   4.916   4.795
  845TIP3    H2 2479   1.467   5.009   4.687
  846TIP3   OH2 2480   3.061   6.951   1.158
  846TIP3    H1 2481   3.073   6.931   1.251
  846TIP3    H2 2482   3.080   7.045   1.151
  847TIP3   OH2 2483   3.817   3.020   1.809
  847TIP3    H1 2484   3.808   3.107   1.848
  847TIP3    H2 2485   3.806   2.960   1.883
  848TIP3   OH2 2486   7.634   1.862   3.153
  848TIP3    H1 2487   7.700   1.796   3.128
  848TIP3    H2 2488   7.644   1.871   3.247
  849TIP3   OH2 2489   6.637   7.692   1.968
  849TIP3    H1 2490   6.578   7.763   1.990
  849TIP3    H2 2491   6.659   7.651   2.052
  850TIP3   OH2 2492   2.338   1.485   2.282
  850TIP3    H1 2493   2.248   1.505   2.310
  850TIP3    H2 2494   2.374   1.432   2.352
  851TIP3   OH2 2495   5.818   2.692   5.251
  851TIP3    H1 2496   5.765   2.613   5.254
  851TIP3    H2 2497   5.884   2.675   5.185
  852TIP3   OH2 2498   1.185   3.789   4.957
  852TIP3    H1 2499   1.185   3.694   4.945
  852TIP3    H2 2500   1.201   3.823   4.869
  853TIP3   OH2 2501   5.410   5.604   2.020
  853TIP3    H1 2502   5.493   5.651   2.028
  853TIP3    H2 2503   5.406   5.548   2.098
  854TIP3   OH2 2504   5.030   1.319   1.803
  854TIP3    H1 2505   5.054   1.230   1.777
  854TIP3    H2 2506   5.104   1.373   1.774
  855TIP3   OH2 2507   6.608   3.142   2.994
  855TIP3    H1 2508   6.600   3.131   2.900
  855TIP3    H2 2509   6.702   3.151   3.010
  856TIP3   OH2 2510   0.033   4.006   0.791
  856TIP3    H1 2511  -0.004   3.976   0.874
  856TIP3    H2 2512   0.110   4.057   0.816
  857TIP3   OH2 2513   7.198   3.492   3.105
  857TIP3    H1 2514   7.116   3.488   3.155
  857TIP3    H2 2515   7.225   3.584   3.112
  858TIP3   OH2 2516   0.784   1.556   1.883
  858TIP3    H1 2517   0.754   1.521   1.800
  858TIP3    H2 2518   0.731   1.512   1.949
  859TIP3   OH2 2519   6.556   7.052   4.725
  859TIP3    H1 2520   6.538   7.031   4.816
  859TIP3    H2 2521   6.522   6.978   4.675
  860TIP3   OH2 2522   3.742   1.249   3.007
  860TIP3    H1 2523   3.702   1.327   2.968
  860TIP3    H2 2524   3.673   1.183   3.004
  861TIP3   OH2 2525   7.031   6.384   5.378
  861TIP3    H1 2526   7.035   6.397   5.283
  861TIP3    H2 2527   7.001   6.468   5.413
  862TIP3   OH2 2528   4.745   0.560   1.057
  862TIP3    H1 2529   4.803   0.637   1.059
  862TIP3    H2 2530   4.657   0.597   1.061
  863TIP3   OH2 2531   0.969   0.966   0.959
  863TIP3    H1 2532   0.950   1.025   0.885
  863TIP3    H2 2533   0.915   0.889   0.942
  864TIP3   OH2 2534   1.961   4.454   1.056
  864TIP3    H1 2535   1.868   4.471   1.040
  864TIP3    H2 2536   1.966   4.427   1.147
  865TIP3   OH2 2537   3.409   7.371   1.031
  865TIP3    H1 2538   3.445   7.286   1.055
  865TIP3    H2 2539   3.431   7.428   1.105
  866TIP3   OH2 2540   2.725   2.196   6.613
  866TIP3    H1 2541   2.643   2.164   6.576
  866TIP3    H2 2542   2.788   2.126   6.594
  867TIP3   OH2 2543   2.190   2.986   1.278
  867TIP3    H1 2544   2.155   2.912   1.230
  867TIP3    H2 2545   2.124   3.004   1.346
  868TIP3   OH2 2546   0.128   0.362   3.274
  868TIP3    H1 2547   0.142   0.313   3.193
  868TIP3    H2 2548   0.041   0.334   3.304
  869TIP3   OH2 2549   4.168   1.299   3.436
  869TIP3    H1 2550   4.106   1.338   3.374
  869TIP3    H2 2551   4.225   1.371   3.463
  870TIP3   OH2 2552   5.529   2.873   1.554
  870TIP3    H1 2553   5.514   2.795   1.501
  870TIP3    H2 2554   5.585   2.929   1.500
  871TIP3   OH2 2555   3.046   4.959   5.104
  871TIP3    H1 2556   3.017   5.021   5.037
  871TIP3    H2 2557   3.127   4.921   5.068
  872TIP3   OH2 2558   2.164   7.672   4.040
  872TIP3    H1 2559   2.108   7.709   3.971
  872TIP3    H2 2560   2.231   7.623   3.992
  873TIP3   OH2 2561   5.325   4.930   0.761
  873TIP3    H1 2562   5.342   4.993   0.830
  873TIP3    H2 2563   5.412   4.901   0.733
  874TIP3   OH2 2564   3.064   5.223   2.129
  874TIP3    H1 2565   3.010   5.171   2.070
  874TIP3    H2 2566   3.023   5.310   2.130
  875TIP3   OH2 2567   1.473   2.659   6.377
  875TIP3    H1 2568   1.498   2.751   6.369
  875TIP3    H2 2569   1.406   2.658   6.445
  876TIP3   OH2 2570   7.086   4.480   0.155
  876TIP3    H1 2571   7.024   4.414   0.125
  876TIP3    H2 2572   7.098   4.538   0.079
  877TIP3   OH2 2573   5.174   5.380   5.402
  877TIP3    H1 2574   5.225   5.461   5.399
  877TIP3    H2 2575   5.218   5.321   5.341
  878TIP3   OH2 2576   7.245   6.416   3.040
  878TIP3    H1 2577   7.171   6.360   3.062
  878TIP3    H2 2578   7.321   6.359   3.049
  879TIP3   OH2 2579   0.537   2.227   2.264
  879TIP3    H1 2580   0.481   2.275   2.203
  879TIP3    H2 2581   0.582   2.162   2.211
  880TIP3   OH2 2582   6.144   5.729   5.029
  880TIP3    H1 2583   6.142   5.785   4.951
  880TIP3    H2 2584   6.228   5.748   5.070
  881TIP3   OH2 2585   3.856   0.219   3.170
  881TIP3    H1 2586   3.919   0.222   3.098
  881TIP3    H2 2587   3.900   0.171   3.239
  882TIP3   OH2 2588   6.905   2.591   4.368
  882TIP3    H1 2589   6.995   2.574   4.341
  882TIP3    H2 2590   6.903   2.568   4.461
  883TIP3   OH2 2591   6.860   0.834   0.352
  883TIP3    H1 2592   6.893   0.916   0.315
  883TIP3    H2 2593   6.765   0.847   0.355
  884TIP3   OH2 2594   1.340   3.580   4.648
  884TIP3    H1 2595   1.307   3.550   4.733
  884TIP3    H2 2596   1.416   3.525   4.631
  885TIP3   OH2 2597   7.444   6.415   1.192
  885TIP3    H1 2598   7.386   6.487   1.167
  885TIP3    H2 2599   7.398   6.371   1.263
  886TIP3   OH2 2600   1.385   7.491   0.391
  886TIP3    H1 2601   1.445   7.565   0.380
  886TIP3    H2 2602   1.307   7.515   0.341
  887TIP3   OH2 2603   2.462   1.585   4.001
  887TIP3    H1 2604   2.553   1.580   4.028
  887TIP3    H2 2605   2.413   1.584   4.083
  888TIP3   OH2 2606   5.493   6.467   1.916
  888TIP3    H1 2607   5.482   6.386   1.967
  888TIP3    H2 2608   5.573   6.506   1.950
  889TIP3   OH2 2609   2.262   6.827   2.628
  889TIP3    H1 2610   2.233   6.917   2.621
  889TIP3    H2 2611   2.334   6.820   2.564
  890TIP3   OH2 2612   2.019   4.858   1.828
  890TIP3    H1 2613   2.036   4.930   1.888
  890TIP3    H2 2614   2.104   4.817   1.815
  891TIP3   OH2 2615   1.268   3.262   4.621
  891TIP3    H1 2616   1.212   3.323   4.572
  891TIP3    H2 2617   1.218   3.241   4.700
  892TIP3   OH2 2618   4.260   3.473   4.342
  892TIP3    H1 2619   4.286   3.549   4.394
  892TIP3    H2 2620   4.221   3.510   4.263
  893TIP3   OH2 2621   6.969   4.350   4.127
  893TIP3    H1 2622   6.981   4.346   4.032
  893TIP3    H2 2623   6.947   4.441   4.144
  894TIP3   OH2 2624   1.436   6.572   4.087
  894TIP3    H1 2625   1.431   6.619   4.004
  894TIP3    H2 2626   1.484   6.631   4.145
  895TIP3   OH2 2627   0.770   6.843   6.137
  895TIP3    H1 2628   0.787   6.933   6.167
  895TIP3    H2 2629   0.827   6.789   6.192
  896TIP3   OH2 2630   1.101   4.056   0.265
  896TIP3    H1 2631   1.123   4.114   0.338
  896TIP3    H2 2632   1.184   4.043   0.219
  897TIP3   OH2 2633   6.711   3.516   5.646
  897TIP3    H1 2634   6.700   3.559   5.731
  897TIP3    H2 2635   6.805   3.522   5.628
  898TIP3   OH2 2636   3.296   4.549   2.899
  898TIP3    H1 2637   3.337   4.604   2.966
  898TIP3    H2 2638   3.211   4.591   2.881
  899TIP3   OH2 2639   3.436   0.984   0.633
  899TIP3    H1 2640   3.435   0.893   0.663
  899TIP3    H2 2641   3.506   0.986   0.567
  900TIP3   OH2 2642   5.651   3.498   1.798
  900TIP3    H1 2643   5.690   3.420   1.837
  900TIP3    H2 2644   5.560   3.474   1.780
  901TIP3   OH2 2645   2.698   7.187   5.487
  901TIP3    H1 2646   2.604   7.202   5.481
  901TIP3    H2 2647   2.732   7.216   5.402
  902TIP3   OH2 2648   0.336   7.273   0.000
  902TIP3    H1 2649   0.315   7.311   0.085
  902TIP3    H2 2650   0.369   7.346  -0.052
  903TIP3   OH2 2651   0.687   5.364   2.263
  903TIP3    H1 2652   0.632   5.357   2.185
  903TIP3    H2 2653   0.761   5.417   2.236
  904TIP3   OH2 2654   0.695   7.327   1.771
  904TIP3    H1 2655   0.650   7.374   1.840
  904TIP3    H2 2656   0.779   7.300   1.810
  905TIP3   OH2 2657   2.523   0.969   1.406
  905TIP3    H1 2658   2.449   1.013   1.363
  905TIP3    H2 2659   2.507   0.876   1.392
  906TIP3   OH2 2660   2.573   6.131   1.135
  906TIP3    H1 2661   2.483   6.101   1.132
  906TIP3    H2 2662   2.597   6.145   1.043
  907TIP3   OH2 2663   4.333   5.442   3.325
  907TIP3    H1 2664   4.395   5.417   3.257
  907TIP3    H2 2665   4.386   5.486   3.392
  908TIP3   OH2 2666   2.532   3.025   3.542
  908TIP3    H1 2667   2.625   3.012   3.556
  908TIP3    H2 2668   2.492   3.010   3.627
  909TIP3   OH2 2669   2.140   1.373   1.115
  909TIP3    H1 2670   2.114   1.297   1.063
  909TIP3    H2 2671   2.159   1.338   1.201
  910TIP3   OH2 2672   3.469   0.920   1.066
  910TIP3    H1 2673   3.540   0.856   1.076
  910TIP3    H2 2674   3.465   0.937   0.972
  911TIP3   OH2 2675   6.122   2.482   5.207
  911TIP3    H1 2676   6.068   2.474   5.128
  911TIP3    H2 2677   6.123   2.394   5.244
  912TIP3   OH2 2678   2.840   5.782   2.690
  912TIP3    H1 2679   2.754   5.800   2.729
  912TIP3    H2 2680   2.888   5.736   2.758
  913TIP3   OH2 2681   4.844   5.264   3.689
  913TIP3    H1 2682   4.937   5.245   3.695
  913TIP3    H2 2683   4.838   5.359   3.697
  914TIP3   OH2 2684   4.325   7.328   1.099
  914TIP3    H1 2685   4.364   7.315   1.186
  914TIP3    H2 2686   4.243   7.375   1.117
  915TIP3   OH2 2687   3.125   7.328   6.086
  915TIP3    H1 2688   3.193   7.286   6.139
  915TIP3    H2 2689   3.137   7.422   6.103
  916TIP3   OH2 2690   7.407   2.401   2.374
  916TIP3    H1 2691   7.429   2.314   2.340
  916TIP3    H2 2692   7.474   2.459   2.339
  917TIP3   OH2 2693   1.723   6.083   6.698
  917TIP3    H1 2694   1.803   6.054   6.654
  917TIP3    H2 2695   1.754   6.132   6.774
  918TIP3   OH2 2696   0.996   2.851   1.720
  918TIP3    H1 2697   1.029   2.794   1.650
  918TIP3    H2 2698   1.013   2.939   1.689
  919TIP3   OH2 2699   7.941   5.004   2.054
  919TIP3    H1 2700   8.013   5.046   2.008
  919TIP3    H2 2701   7.941   4.914   2.021
  920TIP3   OH2 2702   5.611   6.167   6.654
  920TIP3    H1 2703   5.685   6.224   6.674
  920TIP3    H2 2704   5.649   6.094   6.605
  921TIP3   OH2 2705   2.571   2.572   1.261
  921TIP3    H1 2706   2.586   2.665   1.245
  921TIP3    H2 2707   2.658   2.538   1.283
  922TIP3   OH2 2708   7.061   3.320   1.459
  922TIP3    H1 2709   7.144   3.366   1.443
  922TIP3    H2 2710   7.074   3.234   1.420
  923TIP3   OH2 2711   0.739   5.732   1.285
  923TIP3    H1 2712   0.746   5.705   1.193
  923TIP3    H2 2713   0.826   5.765   1.306
  924TIP3   OH2 2714   7.243   3.008   2.696
  924TIP3    H1 2715   7.172   3.040   2.752
  924TIP3    H2 2716   7.323   3.039   2.739
  925TIP3   OH2 2717   0.076   2.322   4.267
  925TIP3    H1 2718   0.163   2.286   4.249
  925TIP3    H2 2719   0.081   2.413   4.236
  926TIP3   OH2 2720   4.398   5.817   6.646
  926TIP3    H1 2721   4.467   5.775   6.697
  926TIP3    H2 2722   4.339   5.854   6.712
  927TIP3   OH2 2723   7.337   3.865   5.605
  927TIP3    H1 2724   7.369   3.805   5.537
  927TIP3    H2 2725   7.410   3.872   5.667
  928TIP3   OH2 2726   7.314   1.153   5.715
  928TIP3    H1 2727   7.271   1.238   5.705
  928TIP3    H2 2728   7.348   1.154   5.805
  929TIP3   OH2 2729   4.432   5.897   1.736
  929TIP3    H1 2730   4.370   5.899   1.663
  929TIP3    H2 2731   4.518   5.894   1.695
  930TIP3   OH2 2732   5.198   6.425   0.172
  930TIP3    H1 2733   5.102   6.417   0.171
  930TIP3    H2 2734   5.229   6.337   0.192
  931TIP3   OH2 2735   7.182   2.856   5.327
  931TIP3    H1 2736   7.173   2.916   5.401
  931TIP3    H2 2737   7.143   2.774   5.358
  932TIP3   OH2 2738   4.947   5.508   4.975
  932TIP3    H1 2739   4.855   5.482   4.978
  932TIP3    H2 2740   4.950   5.592   5.021
  933TIP3   OH2 2741   2.009   6.795   6.553
  933TIP3    H1 2742   1.933   6.759   6.506
  933TIP3    H2 2743   1.980   6.800   6.644
  934TIP3   OH2 2744   6.215   6.161   5.609
  934TIP3    H1 2745   6.244   6.120   5.528
  934TIP3    H2 2746   6.256   6.247   5.609
  935TIP3   OH2 2747   0.256   5.496   5.571
  935TIP3    H1 2748   0.266   5.565   5.506
  935TIP3    H2 2749   0.174   5.516   5.616
  936TIP3   OH2 2750   1.620   2.200   6.118
  936TIP3    H1 2751   1.704   2.174   6.155
  936TIP3    H2 2752   1.580   2.256   6.185
  937TIP3   OH2 2753   7.430   5.040   6.441
  937TIP3    H1 2754   7.457   5.131   6.453
  937TIP3    H2 2755   7.369   5.042   6.367
  938TIP3   OH2 2756   8.111   2.129   3.546
  938TIP3    H1 2757   8.176   2.077   3.593
  938TIP3    H2 2758   8.028   2.085   3.564
  939TIP3   OH2 2759   0.818   1.698   5.738
  939TIP3    H1 2760   0.910   1.702   5.714
  939TIP3    H2 2761   0.814   1.638   5.812
  940TIP3   OH2 2762   7.269   5.533   4.436
  940TIP3    H1 2763   7.267   5.518   4.531
  940TIP3    H2 2764   7.337   5.599   4.423
  941TIP3   OH2 2765   2.181   4.898   4.027
  941TIP3    H1 2766   2.216   4.911   4.115
  941TIP3    H2 2767   2.233   4.957   3.972
  942TIP3   OH2 2768   7.921   6.467   3.122
  942TIP3    H1 2769   7.993   6.472   3.060
  942TIP3    H2 2770   7.962   6.480   3.208
  943TIP3   OH2 2771   4.521   2.228   4.501
  943TIP3    H1 2772   4.538   2.211   4.594
  943TIP3    H2 2773   4.608   2.233   4.462
  944TIP3   OH2 2774   0.543   2.376   5.880
  944TIP3    H1 2775   0.568   2.420   5.798
  944TIP3    H2 2776   0.456   2.410   5.899
  945TIP3   OH2 2777   2.246   5.431   4.266
  945TIP3    H1 2778   2.176   5.405   4.326
  945TIP3    H2 2779   2.202   5.486   4.201
  946TIP3   OH2 2780   3.202   2.326   2.850
  946TIP3    H1 2781   3.223   2.388   2.921
  946TIP3    H2 2782   3.286   2.310   2.807
  947TIP3   OH2 2783   0.659   5.576   1.591
  947TIP3    H1 2784   0.596   5.555   1.522
  947TIP3    H2 2785   0.620   5.650   1.638
  948TIP3   OH2 2786   0.228   6.836   0.923
  948TIP3    H1 2787   0.322   6.855   0.927
  948TIP3    H2 2788   0.214   6.805   0.834
  949TIP3   OH2 2789   0.400   5.663   3.339
  949TIP3    H1 2790   0.443   5.745   3.317
  949TIP3    H2 2791   0.465   5.595   3.320
  950TIP3   OH2 2792   1.491   4.922   2.887
  950TIP3    H1 2793   1.576   4.954   2.917
  950TIP3    H2 2794   1.443   4.905   2.968
  951TIP3   OH2 2795   4.846   6.695   1.037
  951TIP3    H1 2796   4.934   6.666   1.013
  951TIP3    H2 2797   4.789   6.657   0.970
  952TIP3   OH2 2798   5.299   2.725   4.099
  952TIP3    H1 2799   5.331   2.771   4.021
  952TIP3    H2 2800   5.377   2.706   4.150
  953TIP3   OH2 2801   2.472   2.202   2.573
  953TIP3    H1 2802   2.379   2.213   2.554
  953TIP3    H2 2803   2.516   2.259   2.510
  954TIP3   OH2 2804   2.778   0.730   4.770
  954TIP3    H1 2805   2.782   0.812   4.820
  954TIP3    H2 2806   2.867   0.718   4.737
  955TIP3   OH2 2807   4.563   0.879   1.559
  955TIP3    H1 2808   4.545   0.854   1.469
  955TIP3    H2 2809   4.504   0.825   1.612
  956TIP3   OH2 2810   0.939   2.085   2.997
  956TIP3    H1 2811   0.945   2.069   3.091
  956TIP3    H2 2812   0.848   2.062   2.976
  957TIP3   OH2 2813   7.213   6.398   4.171
  957TIP3    H1 2814   7.257   6.326   4.125
  957TIP3    H2 2815   7.273   6.422   4.242
  958TIP3   OH2 2816   6.711   2.047   0.808
  958TIP3    H1 2817   6.668   2.003   0.880
  958TIP3    H2 2818   6.680   2.001   0.730
  959TIP3   OH2 2819   4.364   7.646   2.752
  959TIP3    H1 2820   4.311   7.719   2.784
  959TIP3    H2 2821   4.301   7.579   2.728
  960TIP3   OH2 2822   0.878   6.889   0.541
  960TIP3    H1 2823   0.863   6.960   0.479
  960TIP3    H2 2824   0.791   6.851   0.556
  961TIP3   OH2 2825   0.971   5.873   1.373
  961TIP3    H1 2826   0.976   5.964   1.345
  961TIP3    H2 2827   1.011   5.824   1.301
  962TIP3   OH2 2828   8.209   0.983   6.523
  962TIP3    H1 2829   8.268   1.030   6.464
  962TIP3    H2 2830   8.205   0.894   6.487
  963TIP3   OH2 2831   0.566   7.627   3.827
  963TIP3    H1 2832   0.564   7.718   3.796
  963TIP3    H2 2833   0.485   7.589   3.794
  964TIP3   OH2 2834   4.311   7.249   3.153
  964TIP3    H1 2835   4.303   7.186   3.224
  964TIP3    H2 2836   4.249   7.319   3.175
  965TIP3   OH2 2837   2.861   3.501   6.729
  965TIP3    H1 2838   2.878   3.456   6.647
  965TIP3    H2 2839   2.861   3.594   6.706
  966TIP3   OH2 2840   4.217   6.966   4.009
  966TIP3    H1 2841   4.273   7.039   3.983
  966TIP3    H2 2842   4.220   6.966   4.105
  967TIP3   OH2 2843   5.555   0.285   4.557
  967TIP3    H1 2844   5.617   0.212   4.569
  967TIP3    H2 2845   5.555   0.301   4.463
  968TIP3   OH2 2846   2.801   1.215   0.647
  968TIP3    H1 2847   2.802   1.301   0.689
  968TIP3    H2 2848   2.710   1.188   0.650
  969TIP3   OH2 2849   3.133   7.446   5.152
  969TIP3    H1 2850   3.156   7.354   5.146
  969TIP3    H2 2851   3.215   7.493   5.134
  970TIP3   OH2 2852   0.384   4.671   1.427
  970TIP3    H1 2853   0.414   4.598   1.373
  970TIP3    H2 2854   0.398   4.749   1.372
  971TIP3   OH2 2855   2.427   0.548   5.448
  971TIP3    H1 2856   2.442   0.512   5.361
  971TIP3    H2 2857   2.341   0.515   5.474
  972TIP3   OH2 2858   4.438   1.658   5.206
  972TIP3    H1 2859   4.359   1.655   5.151
  972TIP3    H2 2860   4.473   1.746   5.192
  973TIP3   OH2 2861   7.289   4.975   1.441
  973TIP3    H1 2862   7.359   5.038   1.459
  973TIP3    H2 2863   7.318   4.894   1.484
  974TIP3   OH2 2864   2.121   3.580   1.165
  974TIP3    H1 2865   2.173   3.618   1.095
  974TIP3    H2 2866   2.178   3.515   1.205
  975TIP3   OH2 2867   4.388   7.540   4.467
  975TIP3    H1 2868   4.446   7.534   4.543
  975TIP3    H2 2869   4.299   7.544   4.504
  976TIP3   OH2 2870   5.371   5.839   1.160
  976TIP3    H1 2871   5.440   5.873   1.103
  976TIP3    H2 2872   5.290   5.854   1.112
  977TIP3   OH2 2873   0.953   7.337   6.704
  977TIP3    H1 2874   1.000   7.397   6.762
  977TIP3    H2 2875   1.021   7.277   6.672
  978TIP3   OH2 2876   5.962   2.130   2.887
  978TIP3    H1 2877   5.980   2.040   2.860
  978TIP3    H2 2878   6.002   2.137   2.974
  979TIP3   OH2 2879   7.652   3.073   0.175
  979TIP3    H1 2880   7.746   3.087   0.166
  979TIP3    H2 2881   7.635   3.083   0.269
  980TIP3   OH2 2882   6.835   6.906   1.596
  980TIP3    H1 2883   6.820   6.905   1.691
  980TIP3    H2 2884   6.880   6.823   1.578
  981TIP3   OH2 2885   3.642   5.284   6.226
  981TIP3    H1 2886   3.588   5.282   6.305
  981TIP3    H2 2887   3.581   5.265   6.155
  982TIP3   OH2 2888   4.686   3.740   3.084
  982TIP3    H1 2889   4.772   3.780   3.075
  982TIP3    H2 2890   4.698   3.650   3.052
  983TIP3   OH2 2891   6.440   4.678   1.475
  983TIP3    H1 2892   6.370   4.646   1.532
  983TIP3    H2 2893   6.403   4.755   1.432
  984TIP3   OH2 2894   3.993   5.719   0.917
  984TIP3    H1 2895   4.065   5.760   0.869
  984TIP3    H2 2896   3.932   5.690   0.848
  985TIP3   OH2 2897   1.282   7.436   0.677
  985TIP3    H1 2898   1.281   7.343   0.698
  985TIP3    H2 2899   1.250   7.440   0.587
  986TIP3   OH2 2900   0.281   7.760   6.130
  986TIP3    H1 2901   0.303   7.668   6.115
  986TIP3    H2 2902   0.319   7.806   6.054
  987TIP3   OH2 2903   1.487   0.080   1.398
  987TIP3    H1 2904   1.463  -0.006   1.363
  987TIP3    H2 2905   1.536   0.122   1.327
  988TIP3   OH2 2906   1.589   7.692   0.405
  988TIP3    H1 2907   1.653   7.627   0.434
  988TIP3    H2 2908   1.595   7.762   0.470
  989TIP3   OH2 2909   2.008   2.354   4.437
  989TIP3    H1 2910   2.015   2.446   4.411
  989TIP3    H2 2911   1.917   2.342   4.462
  990TIP3   OH2 2912   0.398   3.250   3.320
  990TIP3    H1 2913   0.422   3.157   3.322
  990TIP3    H2 2914   0.307   3.252   3.348
  991TIP3   OH2 2915   5.750   7.133   5.086
  991TIP3    H1 2916   5.674   7.083   5.054
  991TIP3    H2 2917   5.713   7.214   5.120
  992TIP3   OH2 2918   3.820   0.498   5.107
  992TIP3    H1 2919   3.742   0.471   5.156
  992TIP3    H2 2920   3.867   0.417   5.090
  993TIP3   OH2 2921   7.035   3.595   3.771
  993TIP3    H1 2922   7.034   3.679   3.816
  993TIP3    H2 2923   7.089   3.609   3.693
  994TIP3   OH2 2924   7.158   2.514   2.303
  994TIP3    H1 2925   7.179   2.589   2.247
  994TIP3    H2 2926   7.243   2.479   2.329
  995TIP3   OH2 2927   2.991   7.624   5.757
  995TIP3    H1 2928   3.008   7.689   5.826
  995TIP3    H2 2929   3.016   7.540   5.795
  996TIP3   OH2 2930   4.305   0.689   0.459
  996TIP3    H1 2931   4.315   0.664   0.368
  996TIP3    H2 2932   4.257   0.617   0.499
  997TIP3   OH2 2933   0.941   0.875   4.964
  997TIP3    H1 2934   0.991   0.896   5.042
  997TIP3    H2 2935   1.006   0.861   4.896
  998TIP3   OH2 2936   6.528   6.596   2.927
  998TIP3    H1 2937   6.434   6.594   2.910
  998TIP3    H2 2938   6.537   6.565   3.017
  999TIP3   OH2 2939   4.007   7.307   5.042
  999TIP3    H1 2940   3.984   7.400   5.035
  999TIP3    H2 2941   3.937   7.261   4.996
 1000TIP3   OH2 2942   7.356   0.113   3.537
 1000TIP3    H1 2943   7.327   0.031   3.496
 1000TIP3    H2 2944   7.448   0.121   3.513
 1001TIP3   OH2 2945   5.977   2.769   1.979
 1001TIP3    H1 2946   6.014   2.845   2.024
 1001TIP3    H2 2947   6.010   2.694   2.027
 1002TIP3   OH2 2948   3.686   2.998   6.190
 1002TIP3    H1 2949   3.637   2.941   6.249
 1002TIP3    H2 2950   3.630   3.006   6.112
 1003TIP3   OH2 2951   3.414   4.566   0.778
 1003TIP3    H1 2952   3.456   4.499   0.724
 1003TIP3    H2 2953   3.322   4.566   0.749
 1004TIP3   OH2 2954   7.276   6.377   4.707
 1004TIP3    H1 2955   7.313   6.410   4.788
 1004TIP3    H2 2956   7.350   6.371   4.647
 1005TIP3   OH2 2957   0.620   5.224   4.841
 1005TIP3    H1 2958   0.693   5.261   4.889
 1005TIP3    H2 2959   0.565   5.183   4.908
 1006TIP3   OH2 2960   1.036   1.445   3.074
 1006TIP3    H1 2961   1.101   1.384   3.040
 1006TIP3    H2 2962   1.072   1.475   3.157
 1007TIP3   OH2 2963   3.374   4.890   4.145
 1007TIP3    H1 2964   3.406   4.976   4.170
 1007TIP3    H2 2965   3.450   4.847   4.105
 1008TIP3   OH2 2966   2.145   5.068   0.328
 1008TIP3    H1 2967   2.174   5.028   0.246
 1008TIP3    H2 2968   2.225   5.102   0.367
 1009TIP3   OH2 2969   4.503   3.209   5.794
 1009TIP3    H1 2970   4.527   3.117   5.804
 1009TIP3    H2 2971   4.580   3.251   5.757
 1010TIP3   OH2 2972   5.362   4.675   1.850
 1010TIP3    H1 2973   5.407   4.590   1.849
 1010TIP3    H2 2974   5.382   4.714   1.765
 1011TIP3   OH2 2975   3.713  -0.023   5.727
 1011TIP3    H1 2976   3.632   0.014   5.692
 1011TIP3    H2 2977   3.741   0.041   5.793
 1012TIP3   OH2 2978   5.615   3.313   5.280
 1012TIP3    H1 2979   5.621   3.236   5.222
 1012TIP3    H2 2980   5.546   3.367   5.242
 1013TIP3   OH2 2981   2.588   6.604   2.994
 1013TIP3    H1 2982   2.585   6.639   2.905
 1013TIP3    H2 2983   2.563   6.678   3.050
 1014TIP3   OH2 2984   0.923   5.985   4.196
 1014TIP3    H1 2985   0.976   5.996   4.116
 1014TIP3    H2 2986   0.983   6.009   4.267
 1015TIP3   OH2 2987   6.162   5.235   0.432
 1015TIP3    H1 2988   6.203   5.227   0.518
 1015TIP3    H2 2989   6.069   5.244   0.450
 1016TIP3   OH2 2990   1.814   0.337   6.345
 1016TIP3    H1 2991   1.906   0.314   6.333
 1016TIP3    H2 2992   1.783   0.274   6.411
 1017TIP3   OH2 2993   2.563   7.030   6.030
 1017TIP3    H1 2994   2.546   7.107   5.976
 1017TIP3    H2 2995   2.495   7.032   6.097
 1018TIP3   OH2 2996   6.525   7.421   1.271
 1018TIP3    H1 2997   6.453   7.450   1.216
 1018TIP3    H2 2998   6.539   7.330   1.246
 1019TIP3   OH2 2999   1.325   3.457   1.467
 1019TIP3    H1 3000   1.325   3.367   1.499
 1019TIP3    H2 3001   1.326   3.449   1.372
 1020TIP3   OH2 3002   8.332   6.138   1.462
 1020TIP3    H1 3003   8.281   6.058   1.475
 1020TIP3    H2 3004   8.276   6.194   1.408
 1021TIP3   OH2 3005   3.088   6.375   2.125
 1021TIP3    H1 3006   3.066   6.300   2.069
 1021TIP3    H2 3007   3.072   6.452   2.071
 1022TIP3   OH2 3008   1.464   0.553   1.594
 1022TIP3    H1 3009   1.490   0.461   1.594
 1022TIP3    H2 3010   1.543   0.600   1.567
 1023TIP3   OH2 3011   0.512   7.724   3.137
 1023TIP3    H1 3012   0.568   7.647   3.125
 1023TIP3    H2 3013   0.565   7.798   3.107
 1024TIP3   OH2 3014   7.551   4.591   4.647
 1024TIP3    H1 3015   7.607   4.595   4.726
 1024TIP3    H2 3016   7.535   4.498   4.634
 1025TIP3   OH2 3017   2.565   1.221   3.710
 1025TIP3    H1 3018   2.487   1.207   3.657
 1025TIP3    H2 3019   2.563   1.313   3.734
 1026TIP3   OH2 3020   5.313   0.109   4.697
 1026TIP3    H1 3021   5.225   0.077   4.679
 1026TIP3    H2 3022   5.336   0.163   4.621
 1027TIP3   OH2 3023   2.001   1.978   5.965
 1027TIP3    H1 3024   1.950   1.954   5.887
 1027TIP3    H2 3025   2.083   2.013   5.930
 1028TIP3   OH2 3026   4.966   4.815   1.856
 1028TIP3    H1 3027   4.991   4.728   1.826
 1028TIP3    H2 3028   4.884   4.834   1.812
 1029TIP3   OH2 3029   0.094   3.867   0.332
 1029TIP3    H1 3030   0.097   3.783   0.379
 1029TIP3    H2 3031   0.176   3.870   0.283
 1030TIP3   OH2 3032   8.081   2.771   5.865
 1030TIP3    H1 3033   8.002   2.725   5.891
 1030TIP3    H2 3034   8.153   2.715   5.894
 1031TIP3   OH2 3035   0.910   0.897   4.586
 1031TIP3    H1 3036   0.832   0.853   4.622
 1031TIP3    H2 3037   0.982   0.865   4.639
 1032TIP3   OH2 3038   7.513   3.051   5.826
 1032TIP3    H1 3039   7.508   3.018   5.916
 1032TIP3    H2 3040   7.503   3.146   5.835
 1033TIP3   OH2 3041   6.159   3.364   6.261
 1033TIP3    H1 3042   6.249   3.386   6.241
 1033TIP3    H2 3043   6.116   3.356   6.176
 1034TIP3   OH2 3044   0.642   1.841   4.013
 1034TIP3    H1 3045   0.708   1.831   3.945
 1034TIP3    H2 3046   0.670   1.782   4.083
 1035TIP3   OH2 3047   0.215   2.002   6.731
 1035TIP3    H1 3048   0.288   2.053   6.766
 1035TIP3    H2 3049   0.143   2.064   6.724
 1036TIP3   OH2 3050   2.833   4.533   5.630
 1036TIP3    H1 3051   2.784   4.537   5.712
 1036TIP3    H2 3052   2.924   4.553   5.656
 1037TIP3   OH2 3053   5.435   2.126   5.119
 1037TIP3    H1 3054   5.415   2.110   5.211
 1037TIP3    H2 3055   5.514   2.075   5.102
 1038TIP3   OH2 3056   4.478   4.216   6.739
 1038TIP3    H1 3057   4.407   4.195   6.678
 1038TIP3    H2 3058   4.502   4.131   6.777
 1039TIP3   OH2 3059   5.606   6.018   2.918
 1039TIP3    H1 3060   5.689   5.977   2.943
 1039TIP3    H2 3061   5.584   5.978   2.834
 1040TIP3   OH2 3062   6.963   2.479   5.906
 1040TIP3    H1 3063   6.921   2.397   5.933
 1040TIP3    H2 3064   7.056   2.457   5.902
 1041TIP3   OH2 3065   3.655   1.681   2.501
 1041TIP3    H1 3066   3.653   1.608   2.439
 1041TIP3    H2 3067   3.569   1.678   2.543
 1042TIP3   OH2 3068   3.538   1.349   1.019
 1042TIP3    H1 3069   3.557   1.284   1.087
 1042TIP3    H2 3070   3.515   1.297   0.942
 1043TIP3   OH2 3071   5.506   4.478   6.567
 1043TIP3    H1 3072   5.455   4.556   6.589
 1043TIP3    H2 3073   5.542   4.449   6.650
 1044TIP3   OH2 3074   5.932   6.605   3.216
 1044TIP3    H1 3075   5.853   6.654   3.197
 1044TIP3    H2 3076   5.921   6.575   3.306
 1045TIP3   OH2 3077   4.826   4.342   1.487
 1045TIP3    H1 3078   4.862   4.272   1.433
 1045TIP3    H2 3079   4.734   4.347   1.462
 1046TIP3   OH2 3080   5.921   3.419   3.084
 1046TIP3    H1 3081   5.961   3.343   3.127
 1046TIP3    H2 3082   5.827   3.397   3.080
 1047TIP3   OH2 3083   1.143   7.081   6.301
 1047TIP3    H1 3084   1.048   7.084   6.287
 1047TIP3    H2 3085   1.180   7.075   6.214
 1048TIP3   OH2 3086   7.858   0.833   1.652
 1048TIP3    H1 3087   7.891   0.904   1.597
 1048TIP3    H2 3088   7.794   0.788   1.598
 1049TIP3   OH2 3089   6.575   5.336   0.420
 1049TIP3    H1 3090   6.556   5.407   0.358
 1049TIP3    H2 3091   6.570   5.377   0.506
 1050TIP3   OH2 3092   7.955   3.616   1.927
 1050TIP3    H1 3093   8.043   3.627   1.964
 1050TIP3    H2 3094   7.968   3.559   1.851
 1051TIP3   OH2 3095   3.448   1.607   5.162
 1051TIP3    H1 3096   3.510   1.567   5.222
 1051TIP3    H2 3097   3.456   1.556   5.081
 1052TIP3   OH2 3098   0.329   6.783   4.805
 1052TIP3    H1 3099   0.310   6.875   4.789
 1052TIP3    H2 3100   0.347   6.778   4.899
 1053TIP3   OH2 3101   8.183   4.617   0.489
 1053TIP3    H1 3102   8.132   4.547   0.530
 1053TIP3    H2 3103   8.274   4.589   0.499
 1054TIP3   OH2 3104   5.289   5.931   2.716
 1054TIP3    H1 3105   5.288   5.973   2.630
 1054TIP3    H2 3106   5.196   5.926   2.741
 1055TIP3   OH2 3107   5.842   0.158   6.480
 1055TIP3    H1 3108   5.832   0.124   6.569
 1055TIP3    H2 3109   5.875   0.084   6.429
 1056TIP3   OH2 3110   7.902   5.673   5.091
 1056TIP3    H1 3111   7.822   5.620   5.086
 1056TIP3    H2 3112   7.968   5.620   5.046
 1057TIP3   OH2 3113   0.272   5.478   1.298
 1057TIP3    H1 3114   0.329   5.440   1.365
 1057TIP3    H2 3115   0.204   5.523   1.348
 1058TIP3   OH2 3116   7.784   1.166   2.280
 1058TIP3    H1 3117   7.699   1.203   2.303
 1058TIP3    H2 3118   7.825   1.233   2.225
 1059TIP3   OH2 3119   5.447   2.399   6.253
 1059TIP3    H1 3120   5.407   2.356   6.177
 1059TIP3    H2 3121   5.464   2.328   6.315
 1060TIP3   OH2 3122   1.810   6.496   2.555
 1060TIP3    H1 3123   1.759   6.526   2.630
 1060TIP3    H2 3124   1.751   6.505   2.481
 1061TIP3   OH2 3125   3.154   3.562   6.205
 1061TIP3    H1 3126   3.211   3.500   6.250
 1061TIP3    H2 3127   3.208   3.640   6.192
 1062TIP3   OH2 3128   2.139   3.930   0.009
 1062TIP3    H1 3129   2.233   3.943  -0.003
 1062TIP3    H2 3130   2.132   3.847   0.057
 1063TIP3   OH2 3131   6.775   6.453   2.926
 1063TIP3    H1 3132   6.687   6.490   2.934
 1063TIP3    H2 3133   6.768   6.365   2.964
 1064TIP3   OH2 3134   7.128   1.802   2.352
 1064TIP3    H1 3135   7.099   1.875   2.298
 1064TIP3    H2 3136   7.077   1.727   2.321
 1065TIP3   OH2 3137   4.138   4.678   6.527
 1065TIP3    H1 3138   4.167   4.763   6.561
 1065TIP3    H2 3139   4.074   4.701   6.459
 1066TIP3   OH2 3140   7.707   0.996   6.276
 1066TIP3    H1 3141   7.635   0.944   6.312
 1066TIP3    H2 3142   7.786   0.954   6.310
 1067TIP3   OH2 3143   5.969   5.140   5.988
 1067TIP3    H1 3144   6.053   5.136   5.943
 1067TIP3    H2 3145   5.956   5.232   6.009
 1068TIP3   OH2 3146   2.429   7.808   0.841
 1068TIP3    H1 3147   2.428   7.739   0.774
 1068TIP3    H2 3148   2.353   7.790   0.896
 1069TIP3   OH2 3149   4.312   5.651   3.101
 1069TIP3    H1 3150   4.260   5.622   3.175
 1069TIP3    H2 3151   4.380   5.706   3.139
 1070TIP3   OH2 3152   3.009   5.209   0.915
 1070TIP3    H1 3153   3.004   5.303   0.896
 1070TIP3    H2 3154   2.960   5.168   0.844
 1071TIP3   OH2 3155   0.884   4.159   5.269
 1071TIP3    H1 3156   0.924   4.096   5.209
 1071TIP3    H2 3157   0.955   4.220   5.290
 1072TIP3   OH2 3158   5.055   3.242   2.468
 1072TIP3    H1 3159   4.970   3.251   2.510
 1072TIP3    H2 3160   5.073   3.328   2.430
 1073TIP3   OH2 3161   7.120   4.210   4.312
 1073TIP3    H1 3162   7.191   4.273   4.303
 1073TIP3    H2 3163   7.048   4.247   4.260
 1074TIP3   OH2 3164   7.684   3.175   5.606
 1074TIP3    H1 3165   7.616   3.182   5.539
 1074TIP3    H2 3166   7.667   3.091   5.649
 1075TIP3   OH2 3167   2.360   7.557   5.186
 1075TIP3    H1 3168   2.333   7.468   5.208
 1075TIP3    H2 3169   2.313   7.578   5.106
 1076TIP3   OH2 3170   7.795   5.294   1.210
 1076TIP3    H1 3171   7.738   5.310   1.286
 1076TIP3    H2 3172   7.871   5.249   1.247
 1077TIP3   OH2 3173   4.446   4.377   2.650
 1077TIP3    H1 3174   4.442   4.453   2.593
 1077TIP3    H2 3175   4.363   4.331   2.634
 1078TIP3   OH2 3176   5.167   6.339   6.637
 1078TIP3    H1 3177   5.081   6.301   6.654
 1078TIP3    H2 3178   5.223   6.264   6.620
 1079TIP3   OH2 3179   0.723   7.349   1.502
 1079TIP3    H1 3180   0.709   7.354   1.597
 1079TIP3    H2 3181   0.634   7.347   1.465
 1080TIP3   OH2 3182   6.235   6.653   5.898
 1080TIP3    H1 3183   6.290   6.731   5.906
 1080TIP3    H2 3184   6.182   6.653   5.978
 1081TIP3   OH2 3185   6.452   5.105   1.447
 1081TIP3    H1 3186   6.396   5.027   1.442
 1081TIP3    H2 3187   6.394   5.178   1.425
 1082TIP3   OH2 3188   1.371   6.870   4.421
 1082TIP3    H1 3189   1.377   6.781   4.456
 1082TIP3    H2 3190   1.292   6.906   4.462
 1083TIP3   OH2 3191   3.875   3.168   5.283
 1083TIP3    H1 3192   3.955   3.209   5.313
 1083TIP3    H2 3193   3.840   3.228   5.217
 1084TIP3   OH2 3194   3.981   1.181   3.570
 1084TIP3    H1 3195   4.061   1.205   3.523
 1084TIP3    H2 3196   3.958   1.259   3.620
 1085TIP3   OH2 3197   5.498   5.359   3.614
 1085TIP3    H1 3198   5.426   5.360   3.551
 1085TIP3    H2 3199   5.479   5.285   3.671
 1086TIP3   OH2 3200   0.599   4.926   4.662
 1086TIP3    H1 3201   0.693   4.911   4.650
 1086TIP3    H2 3202   0.587   4.925   4.757
 1087TIP3   OH2 3203   4.255   5.480   1.572
 1087TIP3    H1 3204   4.325   5.501   1.635
 1087TIP3    H2 3205   4.294   5.415   1.514
 1088TIP3   OH2 3206   5.919   3.031   0.338
 1088TIP3    H1 3207   5.952   3.030   0.248
 1088TIP3    H2 3208   5.930   3.122   0.366
 1089TIP3   OH2 3209   3.221   3.346   3.424
 1089TIP3    H1 3210   3.299   3.400   3.436
 1089TIP3    H2 3211   3.155   3.388   3.480
 1090TIP3   OH2 3212   7.820   6.916   1.160
 1090TIP3    H1 3213   7.791   6.997   1.202
 1090TIP3    H2 3214   7.762   6.906   1.084
 1091TIP3   OH2 3215   3.970   3.172   0.203
 1091TIP3    H1 3216   3.886   3.126   0.206
 1091TIP3    H2 3217   3.949   3.262   0.229
 1092TIP3   OH2 3218   7.736   6.422   1.574
 1092TIP3    H1 3219   7.686   6.344   1.551
 1092TIP3    H2 3220   7.821   6.389   1.604
 1093TIP3   OH2 3221   4.950   1.923   1.079
 1093TIP3    H1 3222   4.993   1.856   1.026
 1093TIP3    H2 3223   4.939   1.882   1.165
 1094TIP3   OH2 3224   0.583   7.278   4.844
 1094TIP3    H1 3225   0.649   7.320   4.899
 1094TIP3    H2 3226   0.555   7.347   4.784
 1095TIP3   OH2 3227   0.109   5.450   3.721
 1095TIP3    H1 3228   0.185   5.490   3.679
 1095TIP3    H2 3229   0.145   5.380   3.775
 1096TIP3   OH2 3230   6.008   3.171   6.425
 1096TIP3    H1 3231   6.032   3.247   6.371
 1096TIP3    H2 3232   5.918   3.151   6.399
 1097TIP3   OH2 3233   5.793   4.827  -0.008
 1097TIP3    H1 3234   5.726   4.896  -0.010
 1097TIP3    H2 3235   5.781   4.784   0.077
 1098TIP3   OH2 3236   3.460   1.264   0.769
 1098TIP3    H1 3237   3.492   1.321   0.698
 1098TIP3    H2 3238   3.386   1.218   0.731
 1099TIP3   OH2 3239   5.647   3.393   3.013
 1099TIP3    H1 3240   5.652   3.443   2.931
 1099TIP3    H2 3241   5.567   3.425   3.056
 1100TIP3   OH2 3242   0.127   1.105   4.183
 1100TIP3    H1 3243   0.194   1.156   4.137
 1100TIP3    H2 3244   0.049   1.114   4.129
 1101TIP3   OH2 3245   4.175   7.532   1.471
 1101TIP3    H1 3246   4.182   7.440   1.448
 1101TIP3    H2 3247   4.256   7.571   1.439
 1102TIP3   OH2 3248   0.498   1.052   0.837
 1102TIP3    H1 3249   0.520   1.012   0.921
 1102TIP3    H2 3250   0.414   1.095   0.852
 1103TIP3   OH2 3251   6.895   7.077   2.683
 1103TIP3    H1 3252   6.939   7.111   2.605
 1103TIP3    H2 3253   6.956   7.096   2.755
 1104TIP3   OH2 3254   2.599   4.740   5.859
 1104TIP3    H1 3255   2.511   4.763   5.830
 1104TIP3    H2 3256   2.617   4.656   5.817
 1105TIP3   OH2 3257   3.078   2.360  -0.025
 1105TIP3    H1 3258   3.099   2.290   0.037
 1105TIP3    H2 3259   3.064   2.437   0.029
 1106TIP3   OH2 3260   4.996   2.901   5.333
 1106TIP3    H1 3261   4.935   2.971   5.357
 1106TIP3    H2 3262   5.083   2.940   5.340
 1107TIP3   OH2 3263   6.872   5.278   4.355
 1107TIP3    H1 3264   6.915   5.297   4.272
 1107TIP3    H2 3265   6.943   5.270   4.418
 1108TIP3   OH2 3266   5.365   7.237   4.880
 1108TIP3    H1 3267   5.355   7.326   4.915
 1108TIP3    H2 3268   5.454   7.234   4.846
 1109TIP3   OH2 3269   1.917   7.192   0.470
 1109TIP3    H1 3270   1.988   7.164   0.413
 1109TIP3    H2 3271   1.847   7.129   0.453
 1110TIP3   OH2 3272   4.057   1.435   5.413
 1110TIP3    H1 3273   4.060   1.531   5.415
 1110TIP3    H2 3274   4.036   1.414   5.322
 1111TIP3   OH2 3275   3.671   3.285   1.404
 1111TIP3    H1 3276   3.583   3.298   1.440
 1111TIP3    H2 3277   3.669   3.328   1.319
 1112TIP3   OH2 3278   6.665   1.498   4.099
 1112TIP3    H1 3279   6.719   1.444   4.156
 1112TIP3    H2 3280   6.653   1.580   4.147
 1113TIP3   OH2 3281   5.726   2.886   2.019
 1113TIP3    H1 3282   5.805   2.842   1.989
 1113TIP3    H2 3283   5.753   2.935   2.097
 1114TIP3   OH2 3284   6.568   7.247   3.646
 1114TIP3    H1 3285   6.534   7.207   3.566
 1114TIP3    H2 3286   6.545   7.340   3.638
 1115TIP3   OH2 3287   3.479   2.096   2.358
 1115TIP3    H1 3288   3.488   2.114   2.264
 1115TIP3    H2 3289   3.456   2.003   2.363
 1116TIP3   OH2 3290   1.312   4.703   0.330
 1116TIP3    H1 3291   1.264   4.786   0.329
 1116TIP3    H2 3292   1.245   4.637   0.311
 1117TIP3   OH2 3293   6.669   5.414   6.377
 1117TIP3    H1 3294   6.596   5.385   6.322
 1117TIP3    H2 3295   6.681   5.506   6.354
 1118TIP3   OH2 3296   5.412   7.317   2.221
 1118TIP3    H1 3297   5.415   7.238   2.167
 1118TIP3    H2 3298   5.319   7.334   2.234
 1119TIP3   OH2 3299   5.817   4.194   0.099
 1119TIP3    H1 3300   5.750   4.163   0.037
 1119TIP3    H2 3301   5.770   4.256   0.155
 1120TIP3   OH2 3302   6.121   1.702   5.458
 1120TIP3    H1 3303   6.183   1.712   5.530
 1120TIP3    H2 3304   6.077   1.787   5.452
 1121TIP3   OH2 3305   4.821   3.795   6.036
 1121TIP3    H1 3306   4.793   3.763   6.122
 1121TIP3    H2 3307   4.915   3.776   6.033
 1122TIP3   OH2 3308   0.969   5.390   6.040
 1122TIP3    H1 3309   0.926   5.341   6.109
 1122TIP3    H2 3310   0.933   5.478   6.046
 1123TIP3   OH2 3311   0.493   2.423   0.482
 1123TIP3    H1 3312   0.487   2.331   0.508
 1123TIP3    H2 3313   0.568   2.456   0.530
 1124TIP3   OH2 3314   6.734   6.178   4.359
 1124TIP3    H1 3315   6.754   6.221   4.276
 1124TIP3    H2 3316   6.699   6.093   4.335
 1125TIP3   OH2 3317   3.050   2.103   4.707
 1125TIP3    H1 3318   3.062   2.009   4.698
 1125TIP3    H2 3319   3.103   2.141   4.637
 1126TIP3   OH2 3320   3.192   1.538   5.254
 1126TIP3    H1 3321   3.228   1.531   5.342
 1126TIP3    H2 3322   3.261   1.580   5.203
 1127TIP3   OH2 3323   2.632   4.700   4.817
 1127TIP3    H1 3324   2.578   4.769   4.778
 1127TIP3    H2 3325   2.602   4.619   4.776
 1128TIP3   OH2 3326   1.369   4.115   4.300
 1128TIP3    H1 3327   1.310   4.174   4.347
 1128TIP3    H2 3328   1.359   4.031   4.344
 1129TIP3   OH2 3329   6.065   1.006   5.713
 1129TIP3    H1 3330   6.039   1.096   5.695
 1129TIP3    H2 3331   5.998   0.952   5.671
 1130TIP3   OH2 3332   4.319   6.038   2.493
 1130TIP3    H1 3333   4.374   5.959   2.492
 1130TIP3    H2 3334   4.235   6.010   2.458
 1131TIP3   OH2 3335   3.075   5.728   4.684
 1131TIP3    H1 3336   3.049   5.680   4.605
 1131TIP3    H2 3337   3.164   5.758   4.664
 1132TIP3   OH2 3338   1.419   1.856   2.748
 1132TIP3    H1 3339   1.472   1.936   2.750
 1132TIP3    H2 3340   1.420   1.828   2.657
 1133TIP3   OH2 3341   2.590   6.494   4.483
 1133TIP3    H1 3342   2.602   6.424   4.548
 1133TIP3    H2 3343   2.521   6.461   4.426
 1134TIP3   OH2 3344   3.357   5.504   0.909
 1134TIP3    H1 3345   3.390   5.447   0.839
 1134TIP3    H2 3346   3.429   5.510   0.972
 1135TIP3   OH2 3347   3.882   3.150   1.065
 1135TIP3    H1 3348   3.946   3.184   1.127
 1135TIP3    H2 3349   3.807   3.210   1.073
 1136TIP3   OH2 3350   3.062   4.680   1.489
 1136TIP3    H1 3351   3.009   4.718   1.420
 1136TIP3    H2 3352   3.104   4.755   1.531
 1137TIP3   OH2 3353   5.084   2.928   3.190
 1137TIP3    H1 3354   5.115   2.925   3.280
 1137TIP3    H2 3355   5.164   2.934   3.137
 1138TIP3   OH2 3356   6.726   2.783   1.994
 1138TIP3    H1 3357   6.804   2.729   1.984
 1138TIP3    H2 3358   6.729   2.843   1.919
 1139TIP3   OH2 3359   3.992   3.952   6.515
 1139TIP3    H1 3360   3.928   3.981   6.580
 1139TIP3    H2 3361   4.013   3.862   6.540
 1140TIP3   OH2 3362   7.015   2.300   0.154
 1140TIP3    H1 3363   7.035   2.233   0.219
 1140TIP3    H2 3364   6.936   2.267   0.110
 1141TIP3   OH2 3365   2.382   2.627   4.901
 1141TIP3    H1 3366   2.330   2.646   4.979
 1141TIP3    H2 3367   2.377   2.707   4.849
 1142TIP3   OH2 3368   4.906   4.972   6.784
 1142TIP3    H1 3369   4.947   5.049   6.745
 1142TIP3    H2 3370   4.822   4.965   6.739
 1143TIP3   OH2 3371   5.118   7.295   2.270
 1143TIP3    H1 3372   5.058   7.226   2.241
 1143TIP3    H2 3373   5.061   7.370   2.289
 1144TIP3   OH2 3374   5.287   2.032   3.638
 1144TIP3    H1 3375   5.265   2.089   3.711
 1144TIP3    H2 3376   5.333   2.088   3.575
 1145TIP3   OH2 3377   6.600   4.285   2.074
 1145TIP3    H1 3378   6.533   4.353   2.065
 1145TIP3    H2 3379   6.606   4.269   2.168
 1146TIP3   OH2 3380   7.780   1.616   5.600
 1146TIP3    H1 3381   7.784   1.672   5.677
 1146TIP3    H2 3382   7.701   1.643   5.554
 1147TIP3   OH2 3383   8.009   4.074   1.273
 1147TIP3    H1 3384   8.050   3.988   1.265
 1147TIP3    H2 3385   7.975   4.093   1.185
 1148TIP3   OH2 3386   0.476   4.537   3.873
 1148TIP3    H1 3387   0.456   4.601   3.804
 1148TIP3    H2 3388   0.563   4.505   3.851
 1149TIP3   OH2 3389   0.330   5.535   4.498
 1149TIP3    H1 3390   0.374   5.481   4.433
 1149TIP3    H2 3391   0.264   5.478   4.537
 1150TIP3   OH2 3392   3.372   5.653   1.646
 1150TIP3    H1 3393   3.383   5.670   1.740
 1150TIP3    H2 3394   3.278   5.637   1.635
 1151TIP3   OH2 3395   6.558   1.265   0.089
 1151TIP3    H1 3396   6.563   1.361   0.089
 1151TIP3    H2 3397   6.471   1.246   0.055
 1152TIP3   OH2 3398   4.695   1.875   6.199
 1152TIP3    H1 3399   4.707   1.796   6.148
 1152TIP3    H2 3400   4.628   1.852   6.264
 1153TIP3   OH2 3401   0.716   6.326   5.664
 1153TIP3    H1 3402   0.786   6.268   5.694
 1153TIP3    H2 3403   0.665   6.345   5.743
 1154TIP3   OH2 3404   2.249   1.696   3.859
 1154TIP3    H1 3405   2.278   1.691   3.768
 1154TIP3    H2 3406   2.296   1.625   3.903
 1155TIP3   OH2 3407   7.802   4.660   0.994
 1155TIP3    H1 3408   7.815   4.701   1.080
 1155TIP3    H2 3409   7.862   4.586   0.994
 1156TIP3   OH2 3410   0.684   7.777   5.934
 1156TIP3    H1 3411   0.771   7.756   5.968
 1156TIP3    H2 3412   0.643   7.830   6.002
 1157TIP3   OH2 3413   5.906   4.860   3.674
 1157TIP3    H1 3414   5.810   4.855   3.679
 1157TIP3    H2 3415   5.936   4.782   3.721
 1158TIP3   OH2 3416   3.089   0.828   0.970
 1158TIP3    H1 3417   3.041   0.750   0.942
 1158TIP3    H2 3418   3.129   0.862   0.890
 1159TIP3   OH2 3419   5.929   3.424   1.025
 1159TIP3    H1 3420   5.940   3.448   1.117
 1159TIP3    H2 3421   5.861   3.483   0.993
 1160TIP3   OH2 3422   8.161   0.660   3.953
 1160TIP3    H1 3423   8.075   0.651   3.910
 1160TIP3    H2 3424   8.159   0.595   4.023
 1161TIP3   OH2 3425   1.415   0.857   3.759
 1161TIP3    H1 3426   1.376   0.938   3.793
 1161TIP3    H2 3427   1.504   0.882   3.735
 1162TIP3   OH2 3428   7.997   0.921   3.828
 1162TIP3    H1 3429   8.044   1.004   3.826
 1162TIP3    H2 3430   7.905   0.945   3.838
 1163TIP3   OH2 3431   3.525   1.168   3.649
 1163TIP3    H1 3432   3.616   1.167   3.679
 1163TIP3    H2 3433   3.485   1.091   3.688
 1164TIP3   OH2 3434   8.205   5.371   6.107
 1164TIP3    H1 3435   8.182   5.463   6.117
 1164TIP3    H2 3436   8.153   5.326   6.174
 1165TIP3   OH2 3437   2.052   7.761   4.935
 1165TIP3    H1 3438   2.102   7.838   4.963
 1165TIP3    H2 3439   1.976   7.759   4.993
 1166TIP3   OH2 3440   6.848   5.669   2.957
 1166TIP3    H1 3441   6.867   5.576   2.946
 1166TIP3    H2 3442   6.889   5.692   3.041
 1167TIP3   OH2 3443   4.912   0.847   5.553
 1167TIP3    H1 3444   4.988   0.791   5.562
 1167TIP3    H2 3445   4.880   0.860   5.643
 1168TIP3   OH2 3446   7.463   6.302   0.087
 1168TIP3    H1 3447   7.482   6.342   0.002
 1168TIP3    H2 3448   7.440   6.376   0.144
 1169TIP3   OH2 3449   5.991   6.836   0.765
 1169TIP3    H1 3450   5.950   6.899   0.824
 1169TIP3    H2 3451   6.066   6.883   0.728
 1170TIP3   OH2 3452   7.969   1.180   6.654
 1170TIP3    H1 3453   7.948   1.245   6.587
 1170TIP3    H2 3454   8.058   1.201   6.681
 1171TIP3   OH2 3455   0.616   4.548   3.067
 1171TIP3    H1 3456   0.710   4.539   3.048
 1171TIP3    H2 3457   0.597   4.640   3.049
 1172TIP3   OH2 3458   5.238   3.848   1.694
 1172TIP3    H1 3459   5.277   3.933   1.676
 1172TIP3    H2 3460   5.256   3.796   1.616
 1173TIP3   OH2 3461   1.156   7.242   5.410
 1173TIP3    H1 3462   1.238   7.256   5.457
 1173TIP3    H2 3463   1.089   7.278   5.468
 1174TIP3   OH2 3464   7.982   1.572   2.750
 1174TIP3    H1 3465   7.973   1.492   2.802
 1174TIP3    H2 3466   8.059   1.556   2.695
 1175TIP3   OH2 3467   5.507   3.264   4.929
 1175TIP3    H1 3468   5.462   3.240   4.848
 1175TIP3    H2 3469   5.459   3.217   4.998
 1176TIP3   OH2 3470   5.519   6.822   0.229
 1176TIP3    H1 3471   5.553   6.733   0.225
 1176TIP3    H2 3472   5.594   6.879   0.212
 1177TIP3   OH2 3473   6.515   7.761   4.755
 1177TIP3    H1 3474   6.600   7.803   4.762
 1177TIP3    H2 3475   6.535   7.669   4.738
 1178TIP3   OH2 3476   3.860   1.067   4.337
 1178TIP3    H1 3477   3.772   1.035   4.359
 1178TIP3    H2 3478   3.916   0.990   4.345
 1179TIP3   OH2 3479   8.119   4.123   4.238
 1179TIP3    H1 3480   8.064   4.125   4.317
 1179TIP3    H2 3481   8.057   4.131   4.166
 1180TIP3   OH2 3482   0.008   7.182   0.480
 1180TIP3    H1 3483   0.038   7.184   0.571
 1180TIP3    H2 3484   0.046   7.260   0.440
 1181TIP3   OH2 3485   7.417   6.673   1.919
 1181TIP3    H1 3486   7.420   6.736   1.991
 1181TIP3    H2 3487   7.508   6.650   1.903
 1182TIP3   OH2 3488   1.994   4.378   2.165
 1182TIP3    H1 3489   2.043   4.317   2.220
 1182TIP3    H2 3490   2.046   4.458   2.166
 1183TIP3   OH2 3491   0.776   0.953   5.707
 1183TIP3    H1 3492   0.869   0.970   5.717
 1183TIP3    H2 3493   0.751   1.002   5.628
 1184TIP3   OH2 3494   5.348   3.866   0.624
 1184TIP3    H1 3495   5.262   3.908   0.615
 1184TIP3    H2 3496   5.348   3.798   0.557
 1185TIP3   OH2 3497   8.247   3.461   6.531
 1185TIP3    H1 3498   8.226   3.518   6.456
 1185TIP3    H2 3499   8.162   3.431   6.562
 1186TIP3   OH2 3500   4.724   5.287   6.721
 1186TIP3    H1 3501   4.664   5.236   6.668
 1186TIP3    H2 3502   4.708   5.378   6.695
 1187TIP3   OH2 3503   5.175   3.041   0.522
 1187TIP3    H1 3504   5.107   2.987   0.562
 1187TIP3    H2 3505   5.252   3.026   0.577
 1188TIP3   OH2 3506   1.127   3.380   1.667
 1188TIP3    H1 3507   1.089   3.445   1.726
 1188TIP3    H2 3508   1.177   3.322   1.725
 1189TIP3   OH2 3509   1.679   0.037   6.252
 1189TIP3    H1 3510   1.642   0.044   6.340
 1189TIP3    H2 3511   1.761  -0.011   6.264
 1190TIP3   OH2 3512   0.385   3.865   1.915
 1190TIP3    H1 3513   0.382   3.855   2.010
 1190TIP3    H2 3514   0.375   3.776   1.881
 1191TIP3   OH2 3515   3.000   7.079   2.008
 1191TIP3    H1 3516   3.011   7.005   1.948
 1191TIP3    H2 3517   2.905   7.087   2.019
 1192TIP3   OH2 3518   4.271   3.012   5.822
 1192TIP3    H1 3519   4.198   2.993   5.881
 1192TIP3    H2 3520   4.291   3.104   5.837
 1193TIP3   OH2 3521   4.186   2.066   3.172
 1193TIP3    H1 3522   4.229   2.035   3.093
 1193TIP3    H2 3523   4.093   2.058   3.154
 1194TIP3   OH2 3524   7.781   5.123   6.344
 1194TIP3    H1 3525   7.690   5.152   6.356
 1194TIP3    H2 3526   7.781   5.031   6.370
 1195TIP3   OH2 3527   2.815   3.935   4.221
 1195TIP3    H1 3528   2.846   3.914   4.133
 1195TIP3    H2 3529   2.836   3.858   4.274
 1196TIP3   OH2 3530   1.241   0.061   0.493
 1196TIP3    H1 3531   1.287   0.136   0.454
 1196TIP3    H2 3532   1.270  -0.014   0.441
 1197TIP3   OH2 3533   6.027   4.178   0.665
 1197TIP3    H1 3534   6.093   4.223   0.612
 1197TIP3    H2 3535   6.056   4.087   0.667
 1198TIP3   OH2 3536   0.254   5.989   6.558
 1198TIP3    H1 3537   0.163   6.016   6.548
 1198TIP3    H2 3538   0.301   6.069   6.581
 1199TIP3   OH2 3539   3.439   2.304   2.703
 1199TIP3    H1 3540   3.484   2.221   2.719
 1199TIP3    H2 3541   3.432   2.309   2.608
 1200TIP3   OH2 3542   1.059   2.109   2.003
 1200TIP3    H1 3543   1.026   2.068   2.082
 1200TIP3    H2 3544   1.146   2.140   2.026
 1201TIP3   OH2 3545   6.044   1.095   4.857
 1201TIP3    H1 3546   6.084   1.162   4.912
 1201TIP3    H2 3547   6.097   1.094   4.777
 1202TIP3   OH2 3548   1.689   4.912   5.812
 1202TIP3    H1 3549   1.624   4.982   5.825
 1202TIP3    H2 3550   1.713   4.920   5.719
 1203TIP3   OH2 3551   2.481   0.512   2.276
 1203TIP3    H1 3552   2.470   0.523   2.182
 1203TIP3    H2 3553   2.575   0.493   2.287
 1204TIP3   OH2 3554   2.789   0.915   0.247
 1204TIP3    H1 3555   2.825   0.867   0.321
 1204TIP3    H2 3556   2.856   0.908   0.179
 1205TIP3   OH2 3557   2.987   5.961   5.455
 1205TIP3    H1 3558   2.905   5.914   5.467
 1205TIP3    H2 3559   2.978   6.039   5.510
 1206TIP3   OH2 3560   4.444   1.240   4.498
 1206TIP3    H1 3561   4.484   1.221   4.413
 1206TIP3    H2 3562   4.375   1.303   4.479
 1207TIP3   OH2 3563   7.906   1.993   3.654
 1207TIP3    H1 3564   7.818   2.029   3.651
 1207TIP3    H2 3565   7.895   1.899   3.639
 1208TIP3   OH2 3566   7.180   4.960   1.046
 1208TIP3    H1 3567   7.159   5.052   1.030
 1208TIP3    H2 3568   7.271   4.960   1.075
 1209TIP3   OH2 3569   2.280   5.126   4.881
 1209TIP3    H1 3570   2.188   5.101   4.876
 1209TIP3    H2 3571   2.323   5.074   4.813
 1210TIP3   OH2 3572   3.917   5.359   3.630
 1210TIP3    H1 3573   3.991   5.346   3.690
 1210TIP3    H2 3574   3.958   5.373   3.545
 1211TIP3   OH2 3575   3.271   2.278   6.040
 1211TIP3    H1 3576   3.331   2.242   6.105
 1211TIP3    H2 3577   3.316   2.355   6.006
 1212TIP3   OH2 3578   3.566   5.418   1.851
 1212TIP3    H1 3579   3.534   5.436   1.939
 1212TIP3    H2 3580   3.495   5.369   1.809
 1213TIP3   OH2 3581   0.225   5.466   6.576
 1213TIP3    H1 3582   0.306   5.423   6.603
 1213TIP3    H2 3583   0.252   5.555   6.551
 1214TIP3   OH2 3584   2.226   1.134   4.330
 1214TIP3    H1 3585   2.287   1.200   4.297
 1214TIP3    H2 3586   2.167   1.183   4.387
 1215TIP3   OH2 3587   0.169   1.945   6.178
 1215TIP3    H1 3588   0.175   1.970   6.270
 1215TIP3    H2 3589   0.210   2.017   6.131
 1216TIP3   OH2 3590   2.234   3.416   4.571
 1216TIP3    H1 3591   2.226   3.379   4.483
 1216TIP3    H2 3592   2.164   3.482   4.575
 1217TIP3   OH2 3593   2.454   5.087   1.254
 1217TIP3    H1 3594   2.420   5.136   1.329
 1217TIP3    H2 3595   2.388   5.098   1.186
 1218TIP3   OH2 3596   6.245   0.535   3.041
 1218TIP3    H1 3597   6.213   0.517   2.953
 1218TIP3    H2 3598   6.197   0.474   3.097
 1219TIP3   OH2 3599   0.846   2.001   1.160
 1219TIP3    H1 3600   0.803   2.010   1.244
 1219TIP3    H2 3601   0.790   1.940   1.110
 1220TIP3   OH2 3602   6.383   5.607   2.052
 1220TIP3    H1 3603   6.436   5.529   2.068
 1220TIP3    H2 3604   6.419   5.644   1.971
 1221TIP3   OH2 3605   0.965   7.493   0.064
 1221TIP3    H1 3606   0.899   7.445   0.013
 1221TIP3    H2 3607   0.969   7.579   0.023
 1222TIP3   OH2 3608   1.449   7.333   3.097
 1222TIP3    H1 3609   1.378   7.304   3.039
 1222TIP3    H2 3610   1.525   7.341   3.038
 1223TIP3   OH2 3611   4.298   7.702   2.415
 1223TIP3    H1 3612   4.388   7.691   2.384
 1223TIP3    H2 3613   4.303   7.775   2.477
 1224TIP3   OH2 3614   5.576   7.379   5.644
 1224TIP3    H1 3615   5.529   7.322   5.704
 1224TIP3    H2 3616   5.565   7.339   5.558
 1225TIP3   OH2 3617   3.483   2.873   1.369
 1225TIP3    H1 3618   3.524   2.897   1.286
 1225TIP3    H2 3619   3.542   2.909   1.436
 1226TIP3   OH2 3620   3.436   5.730   4.017
 1226TIP3    H1 3621   3.412   5.668   3.948
 1226TIP3    H2 3622   3.494   5.793   3.974
 1227TIP3   OH2 3623   1.823   4.794   0.537
 1227TIP3    H1 3624   1.851   4.709   0.570
 1227TIP3    H2 3625   1.739   4.777   0.494
 1228TIP3   OH2 3626   5.839   1.717   4.447
 1228TIP3    H1 3627   5.894   1.726   4.369
 1228TIP3    H2 3628   5.902   1.714   4.520
 1229TIP3   OH2 3629   6.824   2.502   4.612
 1229TIP3    H1 3630   6.824   2.521   4.706
 1229TIP3    H2 3631   6.822   2.406   4.608
 1230TIP3   OH2 3632   2.278   1.688   5.943
 1230TIP3    H1 3633   2.346   1.658   6.003
 1230TIP3    H2 3634   2.326   1.727   5.869
 1231TIP3   OH2 3635   6.050   3.657   2.034
 1231TIP3    H1 3636   6.145   3.652   2.037
 1231TIP3    H2 3637   6.029   3.674   1.942
 1232TIP3   OH2 3638   3.352   4.229   0.962
 1232TIP3    H1 3639   3.294   4.259   1.033
 1232TIP3    H2 3640   3.303   4.249   0.882
 1233TIP3   OH2 3641   8.238   3.662   2.008
 1233TIP3    H1 3642   8.199   3.741   2.045
 1233TIP3    H2 3643   8.262   3.609   2.084
 1234TIP3   OH2 3644   3.373   4.794   2.115
 1234TIP3    H1 3645   3.406   4.753   2.035
 1234TIP3    H2 3646   3.375   4.888   2.096
 1235TIP3   OH2 3647   6.376   7.547   1.488
 1235TIP3    H1 3648   6.436   7.500   1.430
 1235TIP3    H2 3649   6.333   7.478   1.538
 1236TIP3   OH2 3650   5.675   3.552   5.979
 1236TIP3    H1 3651   5.751   3.598   6.012
 1236TIP3    H2 3652   5.600   3.602   6.011
 1237TIP3   OH2 3653   1.864   2.857   6.240
 1237TIP3    H1 3654   1.779   2.900   6.256
 1237TIP3    H2 3655   1.849   2.765   6.263
 1238TIP3   OH2 3656   1.427   6.199   1.886
 1238TIP3    H1 3657   1.426   6.174   1.978
 1238TIP3    H2 3658   1.345   6.163   1.851
 1239TIP3   OH2 3659   2.121   2.924   6.290
 1239TIP3    H1 3660   2.145   2.954   6.202
 1239TIP3    H2 3661   2.030   2.895   6.282
 1240TIP3   OH2 3662   0.204   4.464   3.955
 1240TIP3    H1 3663   0.287   4.480   3.910
 1240TIP3    H2 3664   0.146   4.430   3.886
 1241TIP3   OH2 3665   5.168   1.649   5.786
 1241TIP3    H1 3666   5.219   1.568   5.794
 1241TIP3    H2 3667   5.106   1.645   5.858
 1242TIP3   OH2 3668   2.069   1.920   6.413
 1242TIP3    H1 3669   2.062   1.875   6.329
 1242TIP3    H2 3670   1.997   1.885   6.465
 1243TIP3   OH2 3671   5.162   0.760   2.450
 1243TIP3    H1 3672   5.218   0.726   2.380
 1243TIP3    H2 3673   5.097   0.691   2.464
 1244TIP3   OH2 3674   1.349   1.919   3.055
 1244TIP3    H1 3675   1.304   1.926   2.970
 1244TIP3    H2 3676   1.279   1.906   3.118
 1245TIP3   OH2 3677   3.955   5.832   5.711
 1245TIP3    H1 3678   3.891   5.783   5.660
 1245TIP3    H2 3679   3.958   5.919   5.671
 1246TIP3   OH2 3680   6.539   0.771   1.837
 1246TIP3    H1 3681   6.569   0.860   1.821
 1246TIP3    H2 3682   6.596   0.716   1.784
 1247TIP3   OH2 3683   0.363   3.672   2.831
 1247TIP3    H1 3684   0.432   3.738   2.826
 1247TIP3    H2 3685   0.406   3.594   2.866
 1248TIP3   OH2 3686   7.726   7.206   5.382
 1248TIP3    H1 3687   7.770   7.241   5.304
 1248TIP3    H2 3688   7.787   7.141   5.417
 1249TIP3   OH2 3689   5.940   0.735   1.691
 1249TIP3    H1 3690   5.912   0.671   1.757
 1249TIP3    H2 3691   5.991   0.684   1.628
 1250TIP3   OH2 3692   2.617   0.789   5.141
 1250TIP3    H1 3693   2.525   0.763   5.152
 1250TIP3    H2 3694   2.666   0.731   5.199
 1251TIP3   OH2 3695   0.237   2.385   1.457
 1251TIP3    H1 3696   0.278   2.460   1.499
 1251TIP3    H2 3697   0.176   2.351   1.522
 1252TIP3   OH2 3698   2.623   3.333   1.050
 1252TIP3    H1 3699   2.600   3.301   0.963
 1252TIP3    H2 3700   2.585   3.269   1.110
 1253TIP3   OH2 3701   0.225   4.065   6.362
 1253TIP3    H1 3702   0.281   4.143   6.356
 1253TIP3    H2 3703   0.136   4.098   6.350
 1254TIP3   OH2 3704   7.523   5.991   1.762
 1254TIP3    H1 3705   7.607   5.968   1.801
 1254TIP3    H2 3706   7.481   5.908   1.743
 1255TIP3   OH2 3707   2.774   1.329   0.248
 1255TIP3    H1 3708   2.721   1.251   0.261
 1255TIP3    H2 3709   2.853   1.299   0.204
 1256TIP3   OH2 3710   1.904   7.403   4.851
 1256TIP3    H1 3711   1.817   7.434   4.877
 1256TIP3    H2 3712   1.909   7.315   4.888
 1257TIP3   OH2 3713   6.807   3.213   0.843
 1257TIP3    H1 3714   6.737   3.255   0.894
 1257TIP3    H2 3715   6.873   3.281   0.832
 1258TIP3   OH2 3716   0.369   3.852   2.183
 1258TIP3    H1 3717   0.431   3.829   2.252
 1258TIP3    H2 3718   0.284   3.858   2.227
 1259TIP3   OH2 3719   7.018   0.091   0.731
 1259TIP3    H1 3720   7.009   0.000   0.760
 1259TIP3    H2 3721   6.944   0.105   0.672
 1260TIP3   OH2 3722   1.249   6.782   2.592
 1260TIP3    H1 3723   1.154   6.771   2.600
 1260TIP3    H2 3724   1.271   6.843   2.663
 1261TIP3   OH2 3725   6.728   4.092   6.418
 1261TIP3    H1 3726   6.653   4.055   6.372
 1261TIP3    H2 3727   6.777   4.138   6.349
 1262TIP3   OH2 3728   2.140   7.155   5.498
 1262TIP3    H1 3729   2.119   7.176   5.407
 1262TIP3    H2 3730   2.128   7.238   5.545
 1263TIP3   OH2 3731   4.032   1.666   2.440
 1263TIP3    H1 3732   3.976   1.610   2.386
 1263TIP3    H2 3733   4.120   1.651   2.405
 1264TIP3   OH2 3734   2.084   5.300   4.691
 1264TIP3    H1 3735   2.149   5.274   4.625
 1264TIP3    H2 3736   2.051   5.218   4.726
 1265TIP3   OH2 3737   6.101   3.799   2.329
 1265TIP3    H1 3738   6.149   3.868   2.283
 1265TIP3    H2 3739   6.067   3.743   2.260
 1266TIP3   OH2 3740   8.032   0.721   1.433
 1266TIP3    H1 3741   7.990   0.696   1.516
 1266TIP3    H2 3742   8.118   0.680   1.436
 1267TIP3   OH2 3743   8.013   4.688   1.378
 1267TIP3    H1 3744   7.939   4.724   1.329
 1267TIP3    H2 3745   8.060   4.634   1.314
 1268TIP3   OH2 3746   5.921   6.977   2.631
 1268TIP3    H1 3747   5.890   7.015   2.549
 1268TIP3    H2 3748   5.842   6.969   2.685
 1269TIP3   OH2 3749   1.216   6.054   4.142
 1269TIP3    H1 3750   1.190   6.116   4.074
 1269TIP3    H2 3751   1.311   6.062   4.147
 1270TIP3   OH2 3752   2.338   3.457   2.637
 1270TIP3    H1 3753   2.309   3.428   2.723
 1270TIP3    H2 3754   2.410   3.398   2.614
 1271TIP3   OH2 3755   1.468   5.355   3.437
 1271TIP3    H1 3756   1.403   5.421   3.463
 1271TIP3    H2 3757   1.451   5.341   3.344
 1272TIP3   OH2 3758   2.412   6.997   0.713
 1272TIP3    H1 3759   2.367   7.007   0.796
 1272TIP3    H2 3760   2.475   7.070   0.711
 1273TIP3   OH2 3761   1.644   4.074   1.952
 1273TIP3    H1 3762   1.559   4.079   1.996
 1273TIP3    H2 3763   1.704   4.117   2.013
 1274TIP3   OH2 3764   6.479   2.520   4.700
 1274TIP3    H1 3765   6.549   2.511   4.636
 1274TIP3    H2 3766   6.524   2.533   4.783
 1275TIP3   OH2 3767   1.667   0.382   5.463
 1275TIP3    H1 3768   1.663   0.362   5.369
 1275TIP3    H2 3769   1.705   0.304   5.503
 1276TIP3   OH2 3770   3.292   1.423   4.363
 1276TIP3    H1 3771   3.342   1.474   4.426
 1276TIP3    H2 3772   3.216   1.478   4.343
 1277TIP3   OH2 3773   7.482   4.002   4.409
 1277TIP3    H1 3774   7.422   3.940   4.367
 1277TIP3    H2 3775   7.549   3.947   4.450
 1278TIP3   OH2 3776   5.693   4.075   0.870
 1278TIP3    H1 3777   5.621   4.039   0.818
 1278TIP3    H2 3778   5.735   3.998   0.908
 1279TIP3   OH2 3779   0.105   2.380   3.117
 1279TIP3    H1 3780   0.020   2.354   3.081
 1279TIP3    H2 3781   0.088   2.397   3.209
 1280TIP3   OH2 3782   5.749   6.008   0.725
 1280TIP3    H1 3783   5.758   5.919   0.758
 1280TIP3    H2 3784   5.836   6.029   0.690
 1281TIP3   OH2 3785   4.045   0.875   3.640
 1281TIP3    H1 3786   3.970   0.927   3.611
 1281TIP3    H2 3787   4.087   0.929   3.707
 1282TIP3   OH2 3788   3.060   0.470   6.085
 1282TIP3    H1 3789   2.976   0.469   6.131
 1282TIP3    H2 3790   3.036   0.465   5.992
 1283TIP3   OH2 3791   1.586   4.852   1.624
 1283TIP3    H1 3792   1.580   4.923   1.561
 1283TIP3    H2 3793   1.679   4.826   1.621
 1284TIP3   OH2 3794   3.376   3.158   5.014
 1284TIP3    H1 3795   3.420   3.230   4.969
 1284TIP3    H2 3796   3.330   3.111   4.945
 1285TIP3   OH2 3797   5.692   2.184   5.960
 1285TIP3    H1 3798   5.713   2.262   6.012
 1285TIP3    H2 3799   5.674   2.116   6.025
 1286TIP3   OH2 3800   2.490   0.598   0.736
 1286TIP3    H1 3801   2.452   0.571   0.819
 1286TIP3    H2 3802   2.479   0.693   0.734
 1287TIP3   OH2 3803   1.915   2.106   4.660
 1287TIP3    H1 3804   1.825   2.117   4.631
 1287TIP3    H2 3805   1.951   2.195   4.663
 1288TIP3   OH2 3806   7.967   0.528   5.569
 1288TIP3    H1 3807   7.900   0.479   5.520
 1288TIP3    H2 3808   7.921   0.607   5.597
 1289TIP3   OH2 3809   7.072   5.714   4.069
 1289TIP3    H1 3810   7.014   5.652   4.112
 1289TIP3    H2 3811   7.014   5.770   4.018
 1290TIP3   OH2 3812   0.089   1.690   5.176
 1290TIP3    H1 3813   0.175   1.692   5.218
 1290TIP3    H2 3814   0.049   1.774   5.201
 1291TIP3   OH2 3815   2.935   0.772   0.047
 1291TIP3    H1 3816   2.979   0.784  -0.038
 1291TIP3    H2 3817   2.994   0.717   0.097
 1292TIP3   OH2 3818   6.791   2.164   1.576
 1292TIP3    H1 3819   6.789   2.069   1.573
 1292TIP3    H2 3820   6.884   2.187   1.575
 1293TIP3   OH2 3821   5.325   7.581   0.337
 1293TIP3    H1 3822   5.332   7.486   0.327
 1293TIP3    H2 3823   5.243   7.594   0.386
 1294TIP3   OH2 3824   6.197   3.841   3.990
 1294TIP3    H1 3825   6.144   3.918   3.971
 1294TIP3    H2 3826   6.288   3.871   3.980
 1295TIP3   OH2 3827   3.735   4.500   2.442
 1295TIP3    H1 3828   3.723   4.573   2.381
 1295TIP3    H2 3829   3.647   4.466   2.457
 1296TIP3   OH2 3830   2.492   7.554   4.234
 1296TIP3    H1 3831   2.550   7.592   4.168
 1296TIP3    H2 3832   2.416   7.523   4.184
 1297TIP3   OH2 3833   3.512   5.892   4.277
 1297TIP3    H1 3834   3.440   5.883   4.215
 1297TIP3    H2 3835   3.573   5.951   4.233
 1298TIP3   OH2 3836   3.496   4.218   6.112
 1298TIP3    H1 3837   3.473   4.169   6.191
 1298TIP3    H2 3838   3.412   4.244   6.075
 1299TIP3   OH2 3839   6.379   3.575   4.404
 1299TIP3    H1 3840   6.400   3.659   4.444
 1299TIP3    H2 3841   6.464   3.541   4.374
 1300TIP3   OH2 3842   3.757   5.906   2.868
 1300TIP3    H1 3843   3.722   5.834   2.816
 1300TIP3    H2 3844   3.759   5.980   2.808
 1301TIP3   OH2 3845   5.376   7.719   3.031
 1301TIP3    H1 3846   5.451   7.745   3.085
 1301TIP3    H2 3847   5.409   7.648   2.976
 1302TIP3   OH2 3848   5.900   3.487   5.761
 1302TIP3    H1 3849   5.806   3.490   5.779
 1302TIP3    H2 3850   5.913   3.551   5.691
 1303TIP3   OH2 3851   8.266   1.743   6.055
 1303TIP3    H1 3852   8.319   1.791   6.119
 1303TIP3    H2 3853   8.296   1.652   6.063
 1304TIP3   OH2 3854   1.788   2.188   6.468
 1304TIP3    H1 3855   1.822   2.171   6.380
 1304TIP3    H2 3856   1.698   2.155   6.466
 1305TIP3   OH2 3857   2.346   6.045   4.805
 1305TIP3    H1 3858   2.377   5.982   4.740
 1305TIP3    H2 3859   2.265   6.006   4.839
 1306TIP3   OH2 3860   1.848   6.081   3.004
 1306TIP3    H1 3861   1.857   5.987   3.015
 1306TIP3    H2 3862   1.843   6.094   2.909
 1307TIP3   OH2 3863   4.442   5.007   0.017
 1307TIP3    H1 3864   4.350   5.005   0.043
 1307TIP3    H2 3865   4.479   4.926   0.052
 1308TIP3   OH2 3866   7.371   0.303   3.120
 1308TIP3    H1 3867   7.378   0.309   3.025
 1308TIP3    H2 3868   7.433   0.234   3.144
 1309TIP3   OH2 3869   4.760   2.711   1.704
 1309TIP3    H1 3870   4.826   2.764   1.748
 1309TIP3    H2 3871   4.677   2.755   1.723
 1310TIP3   OH2 3872   1.982   4.550   4.586
 1310TIP3    H1 3873   2.007   4.458   4.574
 1310TIP3    H2 3874   1.895   4.556   4.547
 1311TIP3   OH2 3875   3.753   3.964   3.629
 1311TIP3    H1 3876   3.846   3.988   3.630
 1311TIP3    H2 3877   3.730   3.951   3.721
 1312TIP3   OH2 3878   3.722   5.488   5.294
 1312TIP3    H1 3879   3.644   5.531   5.330
 1312TIP3    H2 3880   3.733   5.527   5.207
 1313TIP3   OH2 3881   4.315   6.732   3.882
 1313TIP3    H1 3882   4.246   6.668   3.900
 1313TIP3    H2 3883   4.274   6.816   3.899
 1314TIP3   OH2 3884   6.494   2.814   4.576
 1314TIP3    H1 3885   6.416   2.846   4.531
 1314TIP3    H2 3886   6.548   2.775   4.507
 1315TIP3   OH2 3887   3.354   0.057   6.184
 1315TIP3    H1 3888   3.307   0.059   6.267
 1315TIP3    H2 3889   3.446   0.049   6.209
 1316TIP3   OH2 3890   5.367   5.762   4.785
 1316TIP3    H1 3891   5.443   5.705   4.781
 1316TIP3    H2 3892   5.299   5.715   4.736
 1317TIP3   OH2 3893   0.645   1.811   2.323
 1317TIP3    H1 3894   0.637   1.906   2.327
 1317TIP3    H2 3895   0.738   1.793   2.335
 1318TIP3   OH2 3896   6.231   4.982   4.133
 1318TIP3    H1 3897   6.238   4.887   4.144
 1318TIP3    H2 3898   6.215   4.993   4.039
 1319TIP3   OH2 3899   2.765   4.851   3.245
 1319TIP3    H1 3900   2.826   4.847   3.318
 1319TIP3    H2 3901   2.722   4.936   3.254
 1320TIP3   OH2 3902   7.321   1.633   4.393
 1320TIP3    H1 3903   7.300   1.724   4.370
 1320TIP3    H2 3904   7.339   1.635   4.487
 1321TIP3   OH2 3905   3.042   2.593   4.013
 1321TIP3    H1 3906   3.127   2.550   4.003
 1321TIP3    H2 3907   2.989   2.558   3.942
 1322TIP3   OH2 3908   6.268   1.659   6.312
 1322TIP3    H1 3909   6.185   1.706   6.319
 1322TIP3    H2 3910   6.285   1.652   6.218
 1323TIP3   OH2 3911   4.383   7.814   1.153
 1323TIP3    H1 3912   4.290   7.801   1.133
 1323TIP3    H2 3913   4.394   7.779   1.241
 1324TIP3   OH2 3914   3.660   2.314   2.957
 1324TIP3    H1 3915   3.707   2.344   3.034
 1324TIP3    H2 3916   3.600   2.385   2.936
 1325TIP3   OH2 3917   3.864   6.422   5.321
 1325TIP3    H1 3918   3.818   6.370   5.255
 1325TIP3    H2 3919   3.902   6.495   5.273
 1326TIP3   OH2 3920   5.163   6.399   2.928
 1326TIP3    H1 3921   5.110   6.419   3.005
 1326TIP3    H2 3922   5.249   6.437   2.948
 1327TIP3   OH2 3923   4.399   6.094   0.698
 1327TIP3    H1 3924   4.448   6.058   0.771
 1327TIP3    H2 3925   4.457   6.084   0.622
 1328TIP3   OH2 3926   6.239   7.267   0.338
 1328TIP3    H1 3927   6.223   7.190   0.284
 1328TIP3    H2 3928   6.175   7.331   0.307
 1329TIP3   OH2 3929   6.958   4.909   5.548
 1329TIP3    H1 3930   6.885   4.954   5.591
 1329TIP3    H2 3931   7.036   4.942   5.593
 1330TIP3   OH2 3932   5.805   3.811   0.689
 1330TIP3    H1 3933   5.883   3.797   0.635
 1330TIP3    H2 3934   5.834   3.794   0.779
 1331TIP3   OH2 3935   2.990   2.474   0.939
 1331TIP3    H1 3936   3.074   2.506   0.908
 1331TIP3    H2 3937   3.011   2.399   0.995
 1332TIP3   OH2 3938   2.146   6.284   3.470
 1332TIP3    H1 3939   2.110   6.340   3.401
 1332TIP3    H2 3940   2.092   6.304   3.547
 1333TIP3   OH2 3941   4.209   2.378   0.386
 1333TIP3    H1 3942   4.148   2.310   0.414
 1333TIP3    H2 3943   4.153   2.450   0.356
 1334TIP3   OH2 3944   3.275   3.994   6.011
 1334TIP3    H1 3945   3.277   4.088   6.032
 1334TIP3    H2 3946   3.278   3.950   6.096
 1335TIP3   OH2 3947   1.098   2.887   1.334
 1335TIP3    H1 3948   1.030   2.954   1.338
 1335TIP3    H2 3949   1.055   2.808   1.365
 1336TIP3   OH2 3950   6.417   3.975   3.855
 1336TIP3    H1 3951   6.417   4.010   3.944
 1336TIP3    H2 3952   6.503   3.999   3.820
 1337TIP3   OH2 3953   2.809   6.919   4.701
 1337TIP3    H1 3954   2.729   6.891   4.656
 1337TIP3    H2 3955   2.879   6.900   4.639
 1338TIP3   OH2 3956   7.373   7.511   6.571
 1338TIP3    H1 3957   7.285   7.482   6.547
 1338TIP3    H2 3958   7.360   7.597   6.611
 1339TIP3   OH2 3959   6.465   5.917   5.982
 1339TIP3    H1 3960   6.492   5.881   5.898
 1339TIP3    H2 3961   6.403   5.853   6.017
 1340TIP3   OH2 3962   3.028   3.937   1.359
 1340TIP3    H1 3963   2.947   3.988   1.361
 1340TIP3    H2 3964   3.015   3.869   1.425
 1341TIP3   OH2 3965   6.487   6.708   3.986
 1341TIP3    H1 3966   6.569   6.698   3.937
 1341TIP3    H2 3967   6.425   6.742   3.922
 1342TIP3   OH2 3968   2.104   7.702   1.704
 1342TIP3    H1 3969   2.027   7.758   1.708
 1342TIP3    H2 3970   2.173   7.758   1.670
 1343TIP3   OH2 3971   4.472   0.356   6.275
 1343TIP3    H1 3972   4.511   0.270   6.294
 1343TIP3    H2 3973   4.541   0.419   6.296
 1344TIP3   OH2 3974   5.475   0.695   2.654
 1344TIP3    H1 3975   5.434   0.615   2.687
 1344TIP3    H2 3976   5.495   0.676   2.562
 1345TIP3   OH2 3977   6.209   4.634   1.217
 1345TIP3    H1 3978   6.128   4.634   1.166
 1345TIP3    H2 3979   6.255   4.555   1.189
 1346TIP3   OH2 3980   4.619   0.739   4.224
 1346TIP3    H1 3981   4.603   0.731   4.318
 1346TIP3    H2 3982   4.680   0.668   4.204
 1347TIP3   OH2 3983   4.765   3.999   2.852
 1347TIP3    H1 3984   4.776   3.906   2.830
 1347TIP3    H2 3985   4.698   4.000   2.920
 1348TIP3   OH2 3986   0.364   4.318   2.624
 1348TIP3    H1 3987   0.442   4.311   2.679
 1348TIP3    H2 3988   0.376   4.399   2.575
 1349TIP3   OH2 3989   2.485   7.697   3.355
 1349TIP3    H1 3990   2.544   7.722   3.283
 1349TIP3    H2 3991   2.401   7.735   3.330
 1350TIP3   OH2 3992   4.281   3.307   4.827
 1350TIP3    H1 3993   4.203   3.331   4.877
 1350TIP3    H2 3994   4.302   3.218   4.856
 1351TIP3   OH2 3995   1.234   0.199   3.703
 1351TIP3    H1 3996   1.245   0.201   3.608
 1351TIP3    H2 3997   1.318   0.228   3.738
 1352TIP3   OH2 3998   0.591   6.337   0.142
 1352TIP3    H1 3999   0.522   6.325   0.076
 1352TIP3    H2 4000   0.647   6.260   0.131
 1353TIP3   OH2 4001   1.063   2.561   6.039
 1353TIP3    H1 4002   1.077   2.588   6.130
 1353TIP3    H2 4003   0.969   2.572   6.025
 1354TIP3   OH2 4004   2.117   3.356   2.471
 1354TIP3    H1 4005   2.143   3.348   2.379
 1354TIP3    H2 4006   2.198   3.379   2.517
 1355TIP3   OH2 4007   1.426   1.286   0.747
 1355TIP3    H1 4008   1.339   1.311   0.716
 1355TIP3    H2 4009   1.447   1.207   0.698
 1356TIP3   OH2 4010   5.843   5.205   0.854
 1356TIP3    H1 4011   5.929   5.243   0.874
 1356TIP3    H2 4012   5.821   5.153   0.931
 1357TIP3   OH2 4013   5.296   7.445   1.443
 1357TIP3    H1 4014   5.277   7.494   1.362
 1357TIP3    H2 4015   5.218   7.392   1.458
 1358TIP3   OH2 4016   5.878   4.139   6.287
 1358TIP3    H1 4017   5.820   4.168   6.357
 1358TIP3    H2 4018   5.966   4.147   6.324
 1359TIP3   OH2 4019   1.210   7.348   2.970
 1359TIP3    H1 4020   1.198   7.441   2.955
 1359TIP3    H2 4021   1.184   7.307   2.887
 1360TIP3   OH2 4022   3.271   7.451   6.313
 1360TIP3    H1 4023   3.314   7.376   6.273
 1360TIP3    H2 4024   3.205   7.412   6.372
 1361TIP3   OH2 4025   1.730   2.743   6.625
 1361TIP3    H1 4026   1.808   2.717   6.576
 1361TIP3    H2 4027   1.717   2.671   6.688
 1362TIP3   OH2 4028   2.796   6.012   4.595
 1362TIP3    H1 4029   2.888   5.996   4.577
 1362TIP3    H2 4030   2.749   5.958   4.531
 1363TIP3   OH2 4031   3.320   3.742   6.381
 1363TIP3    H1 4032   3.336   3.650   6.402
 1363TIP3    H2 4033   3.228   3.756   6.403
 1364TIP3   OH2 4034   6.833   5.437   3.995
 1364TIP3    H1 4035   6.802   5.373   3.932
 1364TIP3    H2 4036   6.904   5.393   4.042
 1365TIP3   OH2 4037   8.223   3.587   2.812
 1365TIP3    H1 4038   8.267   3.663   2.774
 1365TIP3    H2 4039   8.291   3.520   2.818
 1366TIP3   OH2 4040   6.161   0.204   6.036
 1366TIP3    H1 4041   6.144   0.288   5.995
 1366TIP3    H2 4042   6.162   0.141   5.963
 1367TIP3   OH2 4043   7.449   5.693   1.076
 1367TIP3    H1 4044   7.535   5.679   1.037
 1367TIP3    H2 4045   7.466   5.701   1.170
 1368TIP3   OH2 4046   2.096   3.054   0.163
 1368TIP3    H1 4047   2.043   2.988   0.119
 1368TIP3    H2 4048   2.139   3.101   0.092
 1369TIP3   OH2 4049   7.906   2.627   5.996
 1369TIP3    H1 4050   7.882   2.626   6.089
 1369TIP3    H2 4051   7.824   2.609   5.950
 1370TIP3   OH2 4052   2.113   1.528   5.472
 1370TIP3    H1 4053   2.075   1.527   5.559
 1370TIP3    H2 4054   2.038   1.519   5.413
 1371TIP3   OH2 4055   2.870   3.066   0.268
 1371TIP3    H1 4056   2.776   3.057   0.288
 1371TIP3    H2 4057   2.876   3.146   0.217
 1372TIP3   OH2 4058   3.068   3.263   0.318
 1372TIP3    H1 4059   2.995   3.296   0.266
 1372TIP3    H2 4060   3.110   3.342   0.352
 1373TIP3   OH2 4061   1.002   2.420   4.686
 1373TIP3    H1 4062   1.059   2.452   4.756
 1373TIP3    H2 4063   0.955   2.347   4.726
 1374TIP3   OH2 4064   4.858   4.476   5.692
 1374TIP3    H1 4065   4.901   4.402   5.651
 1374TIP3    H2 4066   4.929   4.536   5.715
 1375TIP3   OH2 4067   8.212   0.897   0.964
 1375TIP3    H1 4068   8.291   0.880   1.016
 1375TIP3    H2 4069   8.147   0.835   0.999
 1376TIP3   OH2 4070   4.111   5.007   5.585
 1376TIP3    H1 4071   4.112   4.914   5.606
 1376TIP3    H2 4072   4.203   5.031   5.578
 1377TIP3   OH2 4073   6.820   5.092   4.611
 1377TIP3    H1 4074   6.872   5.026   4.656
 1377TIP3    H2 4075   6.884   5.142   4.559
 1378TIP3   OH2 4076   0.745   0.927   4.320
 1378TIP3    H1 4077   0.820   0.878   4.353
 1378TIP3    H2 4078   0.780   1.013   4.298
 1379TIP3   OH2 4079   2.473   0.414   0.156
 1379TIP3    H1 4080   2.516   0.408   0.071
 1379TIP3    H2 4081   2.526   0.360   0.214
 1380TIP3   OH2 4082   2.596   1.315   5.910
 1380TIP3    H1 4083   2.502   1.316   5.928
 1380TIP3    H2 4084   2.610   1.389   5.851
 1381TIP3   OH2 4085   5.598   2.263   3.556
 1381TIP3    H1 4086   5.533   2.304   3.499
 1381TIP3    H2 4087   5.631   2.189   3.505
 1382TIP3   OH2 4088   0.908   0.000   6.523
 1382TIP3    H1 4089   0.820   0.036   6.519
 1382TIP3    H2 4090   0.962   0.065   6.478
 1383TIP3   OH2 4091   7.521   2.070   0.130
 1383TIP3    H1 4092   7.433   2.091   0.097
 1383TIP3    H2 4093   7.507   2.043   0.221
 1384TIP3   OH2 4094   5.043   1.243   5.047
 1384TIP3    H1 4095   4.974   1.178   5.033
 1384TIP3    H2 4096   5.000   1.313   5.097
 1385TIP3   OH2 4097   6.660   4.591   0.896
 1385TIP3    H1 4098   6.654   4.684   0.872
 1385TIP3    H2 4099   6.689   4.548   0.816
 1386TIP3   OH2 4100   6.655   0.289   2.985
 1386TIP3    H1 4101   6.620   0.373   2.955
 1386TIP3    H2 4102   6.681   0.305   3.076
 1387TIP3   OH2 4103   2.348   3.065   1.060
 1387TIP3    H1 4104   2.314   2.983   1.025
 1387TIP3    H2 4105   2.301   3.079   1.141
 1388TIP3   OH2 4106   0.820   0.749   0.898
 1388TIP3    H1 4107   0.825   0.718   0.807
 1388TIP3    H2 4108   0.731   0.725   0.926
 1389TIP3   OH2 4109   3.464   6.302   3.623
 1389TIP3    H1 4110   3.465   6.292   3.528
 1389TIP3    H2 4111   3.421   6.223   3.656
 1390TIP3   OH2 4112   1.002   3.602   1.814
 1390TIP3    H1 4113   0.975   3.619   1.724
 1390TIP3    H2 4114   1.077   3.660   1.828
 1391TIP3   OH2 4115   4.799   7.226   1.505
 1391TIP3    H1 4116   4.814   7.239   1.599
 1391TIP3    H2 4117   4.711   7.187   1.500
 1392TIP3   OH2 4118   7.025   7.381   4.121
 1392TIP3    H1 4119   7.083   7.306   4.107
 1392TIP3    H2 4120   6.942   7.341   4.149
 1393TIP3   OH2 4121   0.665   4.139   2.402
 1393TIP3    H1 4122   0.628   4.197   2.336
 1393TIP3    H2 4123   0.648   4.182   2.485
 1394TIP3   OH2 4124   6.739   4.285   5.592
 1394TIP3    H1 4125   6.784   4.342   5.654
 1394TIP3    H2 4126   6.703   4.214   5.647
 1395TIP3   OH2 4127   2.732   7.495   5.036
 1395TIP3    H1 4128   2.719   7.471   5.127
 1395TIP3    H2 4129   2.713   7.415   4.987
 1396TIP3   OH2 4130   2.335   3.749   3.050
 1396TIP3    H1 4131   2.301   3.791   3.129
 1396TIP3    H2 4132   2.422   3.717   3.075
 1397TIP3   OH2 4133   3.882   1.517   2.257
 1397TIP3    H1 4134   3.902   1.423   2.250
 1397TIP3    H2 4135   3.787   1.520   2.269
 1398TIP3   OH2 4136   2.066   1.152   0.953
 1398TIP3    H1 4137   2.018   1.075   0.924
 1398TIP3    H2 4138   2.121   1.176   0.879
 1399TIP3   OH2 4139   1.463   3.841   3.933
 1399TIP3    H1 4140   1.497   3.769   3.986
 1399TIP3    H2 4141   1.368   3.835   3.941
 1400TIP3   OH2 4142   7.818   4.486   4.147
 1400TIP3    H1 4143   7.723   4.489   4.139
 1400TIP3    H2 4144   7.846   4.576   4.131
 1401TIP3   OH2 4145   2.170   4.133   1.648
 1401TIP3    H1 4146   2.110   4.067   1.613
 1401TIP3    H2 4147   2.124   4.170   1.723
 1402TIP3   OH2 4148   4.431   2.998   0.934
 1402TIP3    H1 4149   4.511   2.958   0.969
 1402TIP3    H2 4150   4.364   2.980   1.000
 1403TIP3   OH2 4151   0.331   5.699   5.396
 1403TIP3    H1 4152   0.339   5.793   5.377
 1403TIP3    H2 4153   0.256   5.671   5.344
 1404TIP3   OH2 4154   5.411   1.657   0.636
 1404TIP3    H1 4155   5.440   1.675   0.546
 1404TIP3    H2 4156   5.447   1.570   0.655
 1405TIP3   OH2 4157   3.057   1.507   3.779
 1405TIP3    H1 4158   3.144   1.518   3.741
 1405TIP3    H2 4159   3.005   1.578   3.739
 1406TIP3   OH2 4160   6.711   7.494   3.862
 1406TIP3    H1 4161   6.695   7.553   3.935
 1406TIP3    H2 4162   6.643   7.427   3.869
 1407TIP3   OH2 4163   2.308   5.543   2.202
 1407TIP3    H1 4164   2.225   5.515   2.163
 1407TIP3    H2 4165   2.363   5.566   2.126
 1408TIP3   OH2 4166   5.947   0.125   2.524
 1408TIP3    H1 4167   5.893   0.145   2.601
 1408TIP3    H2 4168   5.888   0.142   2.449
 1409TIP3   OH2 4169   2.815   7.542   5.578
 1409TIP3    H1 4170   2.858   7.538   5.493
 1409TIP3    H2 4171   2.882   7.579   5.637
 1410TIP3   OH2 4172   5.220   4.076   5.095
 1410TIP3    H1 4173   5.294   4.116   5.049
 1410TIP3    H2 4174   5.238   4.093   5.188
 1411TIP3   OH2 4175   5.996   2.358   0.307
 1411TIP3    H1 4176   6.010   2.263   0.309
 1411TIP3    H2 4177   6.023   2.384   0.219
 1412TIP3   OH2 4178   1.205   2.608   1.018
 1412TIP3    H1 4179   1.126   2.591   1.068
 1412TIP3    H2 4180   1.237   2.692   1.051
 1413TIP3   OH2 4181   0.393   1.643   5.029
 1413TIP3    H1 4182   0.454   1.714   5.008
 1413TIP3    H2 4183   0.362   1.663   5.117
 1414TIP3   OH2 4184   0.660   3.341   4.940
 1414TIP3    H1 4185   0.710   3.405   4.991
 1414TIP3    H2 4186   0.582   3.390   4.912
 1415TIP3   OH2 4187   1.467   4.212   4.950
 1415TIP3    H1 4188   1.540   4.153   4.969
 1415TIP3    H2 4189   1.506   4.299   4.950
 1416TIP3   OH2 4190   6.592   4.290   0.540
 1416TIP3    H1 4191   6.579   4.196   0.528
 1416TIP3    H2 4192   6.676   4.308   0.497
 1417TIP3   OH2 4193   5.825   0.646   1.161
 1417TIP3    H1 4194   5.917   0.669   1.148
 1417TIP3    H2 4195   5.825   0.551   1.170
 1418TIP3   OH2 4196   4.743   2.425   3.191
 1418TIP3    H1 4197   4.764   2.460   3.277
 1418TIP3    H2 4198   4.774   2.335   3.193
 1419TIP3   OH2 4199   6.878   3.034   2.781
 1419TIP3    H1 4200   6.923   3.114   2.754
 1419TIP3    H2 4201   6.880   3.037   2.877
 1420TIP3   OH2 4202   6.556   6.973   6.346
 1420TIP3    H1 4203   6.627   6.986   6.283
 1420TIP3    H2 4204   6.600   6.970   6.432
 1421TIP3   OH2 4205   6.908   7.673   3.275
 1421TIP3    H1 4206   6.839   7.638   3.331
 1421TIP3    H2 4207   6.986   7.623   3.300
 1422TIP3   OH2 4208   7.868   5.090   4.429
 1422TIP3    H1 4209   7.906   5.130   4.350
 1422TIP3    H2 4210   7.777   5.120   4.429
 1423TIP3   OH2 4211   0.160   7.412   0.456
 1423TIP3    H1 4212   0.104   7.477   0.498
 1423TIP3    H2 4213   0.227   7.393   0.522
 1424TIP3   OH2 4214   3.047   0.789   4.619
 1424TIP3    H1 4215   3.047   0.693   4.612
 1424TIP3    H2 4216   3.130   0.816   4.579
 1425TIP3   OH2 4217   6.448   7.390   0.189
 1425TIP3    H1 4218   6.360   7.388   0.227
 1425TIP3    H2 4219   6.497   7.325   0.238
 1426TIP3   OH2 4220   1.312   5.760   0.608
 1426TIP3    H1 4221   1.352   5.764   0.522
 1426TIP3    H2 4222   1.370   5.703   0.659
 1427TIP3   OH2 4223   7.153   1.201   2.427
 1427TIP3    H1 4224   7.245   1.230   2.427
 1427TIP3    H2 4225   7.130   1.197   2.335
 1428TIP3   OH2 4226   0.180   7.107   0.697
 1428TIP3    H1 4227   0.214   7.017   0.701
 1428TIP3    H2 4228   0.123   7.114   0.774
 1429TIP3   OH2 4229   4.432   2.475   1.473
 1429TIP3    H1 4230   4.490   2.517   1.411
 1429TIP3    H2 4231   4.476   2.394   1.498
 1430TIP3   OH2 4232   1.838   3.462   0.821
 1430TIP3    H1 4233   1.778   3.471   0.746
 1430TIP3    H2 4234   1.858   3.551   0.847
 1431TIP3   OH2 4235   0.494   7.707   2.563
 1431TIP3    H1 4236   0.467   7.703   2.654
 1431TIP3    H2 4237   0.426   7.759   2.520
 1432TIP3   OH2 4238   5.432   5.994   3.590
 1432TIP3    H1 4239   5.506   6.033   3.636
 1432TIP3    H2 4240   5.409   6.058   3.523
 1433TIP3   OH2 4241   0.478   7.025   3.182
 1433TIP3    H1 4242   0.413   7.094   3.198
 1433TIP3    H2 4243   0.528   7.021   3.263
 1434TIP3   OH2 4244   3.935   6.275   4.869
 1434TIP3    H1 4245   3.902   6.233   4.790
 1434TIP3    H2 4246   3.913   6.368   4.857
 1435TIP3   OH2 4247   5.864   7.433   3.394
 1435TIP3    H1 4248   5.882   7.425   3.301
 1435TIP3    H2 4249   5.862   7.527   3.411
 1436TIP3   OH2 4250   6.018   5.213   5.130
 1436TIP3    H1 4251   5.935   5.240   5.090
 1436TIP3    H2 4252   6.060   5.295   5.155
 1437TIP3   OH2 4253   4.952   2.281   3.715
 1437TIP3    H1 4254   4.860   2.301   3.734
 1437TIP3    H2 4255   4.949   2.225   3.637
 1438TIP3   OH2 4256   4.998   1.850   2.468
 1438TIP3    H1 4257   5.037   1.770   2.503
 1438TIP3    H2 4258   4.951   1.889   2.542
 1439TIP3   OH2 4259   5.035   3.970   4.666
 1439TIP3    H1 4260   5.098   3.920   4.719
 1439TIP3    H2 4261   5.074   4.058   4.660
 1440TIP3   OH2 4262   8.151   6.090   5.284
 1440TIP3    H1 4263   8.102   6.022   5.239
 1440TIP3    H2 4264   8.113   6.094   5.372
 1441TIP3   OH2 4265   6.364   0.824   2.039
 1441TIP3    H1 4266   6.413   0.784   1.968
 1441TIP3    H2 4267   6.280   0.848   2.001
 1442TIP3   OH2 4268   5.632   4.381   3.342
 1442TIP3    H1 4269   5.568   4.451   3.351
 1442TIP3    H2 4270   5.669   4.372   3.430
 1443TIP3   OH2 4271   1.100   5.106   5.403
 1443TIP3    H1 4272   1.012   5.068   5.410
 1443TIP3    H2 4273   1.118   5.141   5.490
 1444TIP3   OH2 4274   2.788   3.382   3.693
 1444TIP3    H1 4275   2.706   3.364   3.646
 1444TIP3    H2 4276   2.760   3.435   3.768
 1445TIP3   OH2 4277   0.913   1.104   2.042
 1445TIP3    H1 4278   0.922   1.193   2.009
 1445TIP3    H2 4279   0.819   1.087   2.041
 1446TIP3   OH2 4280   4.077   7.389   3.568
 1446TIP3    H1 4281   4.066   7.451   3.640
 1446TIP3    H2 4282   4.038   7.308   3.601
 1447TIP3   OH2 4283   2.091   4.108   4.979
 1447TIP3    H1 4284   2.089   4.203   4.992
 1447TIP3    H2 4285   2.177   4.090   4.943
 1448TIP3   OH2 4286   5.887   6.298   3.358
 1448TIP3    H1 4287   5.835   6.231   3.401
 1448TIP3    H2 4288   5.888   6.372   3.419
 1449TIP3   OH2 4289   8.311   0.281   5.146
 1449TIP3    H1 4290   8.273   0.345   5.206
 1449TIP3    H2 4291   8.242   0.268   5.080
 1450TIP3   OH2 4292   0.112   4.671   0.061
 1450TIP3    H1 4293   0.206   4.674   0.046
 1450TIP3    H2 4294   0.074   4.658  -0.026
 1451TIP3   OH2 4295   2.380   5.702   3.323
 1451TIP3    H1 4296   2.421   5.625   3.362
 1451TIP3    H2 4297   2.407   5.700   3.232
 1452TIP3   OH2 4298   8.179   5.660   4.035
 1452TIP3    H1 4299   8.214   5.619   3.955
 1452TIP3    H2 4300   8.256   5.691   4.082
 1453TIP3   OH2 4301   7.520   6.514   3.941
 1453TIP3    H1 4302   7.552   6.552   4.023
 1453TIP3    H2 4303   7.578   6.551   3.874
 1454TIP3   OH2 4304   5.341   2.949   6.591
 1454TIP3    H1 4305   5.362   2.888   6.662
 1454TIP3    H2 4306   5.336   2.894   6.513
 1455TIP3   OH2 4307   4.645   7.735   4.449
 1455TIP3    H1 4308   4.550   7.745   4.447
 1455TIP3    H2 4309   4.665   7.707   4.538
 1456TIP3   OH2 4310   8.050   1.617   4.504
 1456TIP3    H1 4311   8.053   1.698   4.555
 1456TIP3    H2 4312   8.131   1.571   4.528
 1457TIP3   OH2 4313   6.869   5.902   4.038
 1457TIP3    H1 4314   6.879   5.945   3.953
 1457TIP3    H2 4315   6.890   5.970   4.102
 1458TIP3   OH2 4316   3.832   5.417   0.492
 1458TIP3    H1 4317   3.740   5.426   0.517
 1458TIP3    H2 4318   3.832   5.428   0.397
 1459TIP3   OH2 4319   7.260   4.033   1.591
 1459TIP3    H1 4320   7.319   4.043   1.666
 1459TIP3    H2 4321   7.301   4.083   1.521
 1460TIP3   OH2 4322   1.282   4.968   2.395
 1460TIP3    H1 4323   1.222   4.897   2.413
 1460TIP3    H2 4324   1.344   4.967   2.468
 1461TIP3   OH2 4325   5.715   0.052   4.577
 1461TIP3    H1 4326   5.791  -0.005   4.567
 1461TIP3    H2 4327   5.655   0.004   4.633
 1462TIP3   OH2 4328   1.242   2.512   1.360
 1462TIP3    H1 4329   1.185   2.436   1.347
 1462TIP3    H2 4330   1.330   2.479   1.341
 1463TIP3   OH2 4331   5.312   4.306   6.488
 1463TIP3    H1 4332   5.400   4.338   6.508
 1463TIP3    H2 4333   5.312   4.293   6.393
 1464TIP3   OH2 4334   5.728   7.224   2.932
 1464TIP3    H1 4335   5.668   7.215   2.858
 1464TIP3    H2 4336   5.698   7.303   2.977
 1465TIP3   OH2 4337   3.057   4.671   3.984
 1465TIP3    H1 4338   3.015   4.613   3.921
 1465TIP3    H2 4339   3.126   4.618   4.025
 1466TIP3   OH2 4340   2.705   4.679   2.680
 1466TIP3    H1 4341   2.728   4.590   2.652
 1466TIP3    H2 4342   2.785   4.730   2.668
 1467TIP3   OH2 4343   4.225   0.677   4.167
 1467TIP3    H1 4344   4.218   0.593   4.122
 1467TIP3    H2 4345   4.146   0.682   4.221
 1468TIP3   OH2 4346   7.871   2.290   1.925
 1468TIP3    H1 4347   7.809   2.272   1.996
 1468TIP3    H2 4348   7.840   2.238   1.851
 1469TIP3   OH2 4349   2.444   1.305   4.346
 1469TIP3    H1 4350   2.463   1.388   4.390
 1469TIP3    H2 4351   2.475   1.238   4.407
 1470TIP3   OH2 4352   6.665   7.641   3.416
 1470TIP3    H1 4353   6.636   7.661   3.504
 1470TIP3    H2 4354   6.584   7.628   3.366
 1471TIP3   OH2 4355   2.480   6.544   1.856
 1471TIP3    H1 4356   2.539   6.511   1.789
 1471TIP3    H2 4357   2.394   6.547   1.813
 1472TIP3   OH2 4358   6.738   5.774   5.097
 1472TIP3    H1 4359   6.685   5.699   5.068
 1472TIP3    H2 4360   6.812   5.734   5.142
 1473TIP3   OH2 4361   0.281   4.472   3.568
 1473TIP3    H1 4362   0.374   4.493   3.571
 1473TIP3    H2 4363   0.262   4.431   3.652
 1474TIP3   OH2 4364   5.016   2.436   4.439
 1474TIP3    H1 4365   5.029   2.500   4.508
 1474TIP3    H2 4366   4.994   2.488   4.362
 1475TIP3   OH2 4367   7.989   7.400   2.551
 1475TIP3    H1 4368   7.922   7.382   2.617
 1475TIP3    H2 4369   7.940   7.436   2.477
 1476TIP3   OH2 4370   5.341   5.851   5.600
 1476TIP3    H1 4371   5.408   5.897   5.650
 1476TIP3    H2 4372   5.302   5.918   5.544
 1477TIP3   OH2 4373   5.395   2.179   4.766
 1477TIP3    H1 4374   5.389   2.231   4.847
 1477TIP3    H2 4375   5.304   2.161   4.743
 1478TIP3   OH2 4376   5.585   0.896   6.379
 1478TIP3    H1 4377   5.524   0.966   6.398
 1478TIP3    H2 4378   5.534   0.816   6.387
 1479TIP3   OH2 4379   0.732   5.194   1.860
 1479TIP3    H1 4380   0.682   5.275   1.874
 1479TIP3    H2 4381   0.686   5.128   1.912
 1480TIP3   OH2 4382   0.189   2.700   0.645
 1480TIP3    H1 4383   0.260   2.706   0.581
 1480TIP3    H2 4384   0.143   2.619   0.622
 1481TIP3   OH2 4385   5.412   4.088   1.610
 1481TIP3    H1 4386   5.368   4.113   1.528
 1481TIP3    H2 4387   5.498   4.058   1.582
 1482TIP3   OH2 4388   6.910   3.449   1.642
 1482TIP3    H1 4389   6.940   3.389   1.574
 1482TIP3    H2 4390   6.910   3.535   1.600
 1483TIP3   OH2 4391   1.006   7.189   0.582
 1483TIP3    H1 4392   0.922   7.231   0.600
 1483TIP3    H2 4393   0.994   7.098   0.611
 1484TIP3   OH2 4394   6.383   0.213   4.666
 1484TIP3    H1 4395   6.388   0.122   4.697
 1484TIP3    H2 4396   6.393   0.266   4.744
 1485TIP3   OH2 4397   2.802   1.238   4.831
 1485TIP3    H1 4398   2.727   1.280   4.789
 1485TIP3    H2 4399   2.766   1.201   4.912
 1486TIP3   OH2 4400   7.917   1.887   0.779
 1486TIP3    H1 4401   7.967   1.828   0.723
 1486TIP3    H2 4402   7.887   1.957   0.721
 1487TIP3   OH2 4403   2.236   1.920   4.587
 1487TIP3    H1 4404   2.253   2.013   4.596
 1487TIP3    H2 4405   2.144   1.914   4.559
 1488TIP3   OH2 4406   1.176   6.898   0.208
 1488TIP3    H1 4407   1.133   6.823   0.250
 1488TIP3    H2 4408   1.258   6.862   0.173
 1489TIP3   OH2 4409   3.205   4.208   5.736
 1489TIP3    H1 4410   3.117   4.171   5.732
 1489TIP3    H2 4411   3.204   4.281   5.674
 1490TIP3   OH2 4412   4.784   5.576   6.566
 1490TIP3    H1 4413   4.856   5.523   6.532
 1490TIP3    H2 4414   4.815   5.666   6.559
 1491TIP3   OH2 4415   2.788   1.328   1.355
 1491TIP3    H1 4416   2.698   1.323   1.388
 1491TIP3    H2 4417   2.801   1.245   1.309
 1492TIP3   OH2 4418   5.391   2.588   3.500
 1492TIP3    H1 4419   5.368   2.513   3.556
 1492TIP3    H2 4420   5.405   2.660   3.562
 1493TIP3   OH2 4421   4.760   0.449   5.437
 1493TIP3    H1 4422   4.669   0.443   5.408
 1493TIP3    H2 4423   4.795   0.361   5.426
 1494TIP3   OH2 4424   5.482   7.683   2.737
 1494TIP3    H1 4425   5.497   7.778   2.732
 1494TIP3    H2 4426   5.418   7.665   2.668
 1495TIP3   OH2 4427   3.010   1.939   3.378
 1495TIP3    H1 4428   3.101   1.912   3.387
 1495TIP3    H2 4429   2.992   1.934   3.284
 1496TIP3   OH2 4430   3.564   2.072   2.708
 1496TIP3    H1 4431   3.636   2.028   2.662
 1496TIP3    H2 4432   3.493   2.008   2.710
 1497TIP3   OH2 4433   4.436   6.191   5.989
 1497TIP3    H1 4434   4.421   6.143   6.071
 1497TIP3    H2 4435   4.530   6.186   5.975
 1498TIP3   OH2 4436   5.596   3.729   2.254
 1498TIP3    H1 4437   5.607   3.651   2.199
 1498TIP3    H2 4438   5.516   3.770   2.221
 1499TIP3   OH2 4439   3.896   4.249   4.005
 1499TIP3    H1 4440   3.869   4.258   3.913
 1499TIP3    H2 4441   3.832   4.300   4.054
 1500TIP3   OH2 4442   8.216   3.364   0.696
 1500TIP3    H1 4443   8.181   3.295   0.640
 1500TIP3    H2 4444   8.142   3.422   0.713
 1501TIP3   OH2 4445   7.023   5.008   5.247
 1501TIP3    H1 4446   6.996   5.021   5.338
 1501TIP3    H2 4447   6.942   5.007   5.197
 1502TIP3   OH2 4448   4.110   6.857   2.907
 1502TIP3    H1 4449   4.152   6.799   2.843
 1502TIP3    H2 4450   4.120   6.812   2.991
 1503TIP3   OH2 4451   3.171   5.195   2.371
 1503TIP3    H1 4452   3.137   5.201   2.282
 1503TIP3    H2 4453   3.129   5.268   2.417
 1504TIP3   OH2 4454   5.689   0.999   0.609
 1504TIP3    H1 4455   5.744   0.969   0.536
 1504TIP3    H2 4456   5.752   1.024   0.677
 1505TIP3   OH2 4457   7.376   0.010   5.280
 1505TIP3    H1 4458   7.333   0.017   5.195
 1505TIP3    H2 4459   7.395   0.100   5.305
 1506TIP3   OH2 4460   2.101   2.739   6.569
 1506TIP3    H1 4461   2.122   2.791   6.492
 1506TIP3    H2 4462   2.162   2.665   6.566
 1507TIP3   OH2 4463   7.852   6.597   0.516
 1507TIP3    H1 4464   7.897   6.593   0.432
 1507TIP3    H2 4465   7.874   6.515   0.559
 1508TIP3   OH2 4466   2.799   1.467   0.749
 1508TIP3    H1 4467   2.869   1.507   0.801
 1508TIP3    H2 4468   2.719   1.488   0.796
 1509TIP3   OH2 4469   6.427   1.561   4.571
 1509TIP3    H1 4470   6.365   1.531   4.637
 1509TIP3    H2 4471   6.380   1.627   4.521
 1510TIP3   OH2 4472   0.353   5.846   2.998
 1510TIP3    H1 4473   0.393   5.762   2.975
 1510TIP3    H2 4474   0.415   5.888   3.057
 1511TIP3   OH2 4475   7.010   6.644   5.512
 1511TIP3    H1 4476   7.067   6.686   5.577
 1511TIP3    H2 4477   6.931   6.698   5.511
 1512TIP3   OH2 4478   8.269   2.785   1.315
 1512TIP3    H1 4479   8.244   2.725   1.244
 1512TIP3    H2 4480   8.186   2.824   1.343
 1513TIP3   OH2 4481   7.284   7.255   2.384
 1513TIP3    H1 4482   7.377   7.267   2.402
 1513TIP3    H2 4483   7.273   7.284   2.294
 1514TIP3   OH2 4484   2.430   4.148   2.476
 1514TIP3    H1 4485   2.405   4.077   2.417
 1514TIP3    H2 4486   2.379   4.134   2.555
 1515TIP3   OH2 4487   4.636   1.553   5.039
 1515TIP3    H1 4488   4.711   1.611   5.026
 1515TIP3    H2 4489   4.570   1.608   5.080
 1516TIP3   OH2 4490   1.791   7.578   3.352
 1516TIP3    H1 4491   1.713   7.555   3.303
 1516TIP3    H2 4492   1.759   7.624   3.429
 1517TIP3   OH2 4493   7.900   5.708   4.787
 1517TIP3    H1 4494   7.912   5.613   4.782
 1517TIP3    H2 4495   7.875   5.724   4.878
 1518TIP3   OH2 4496   7.858   7.309   4.910
 1518TIP3    H1 4497   7.868   7.336   4.819
 1518TIP3    H2 4498   7.806   7.229   4.906
 1519TIP3   OH2 4499   7.012  -0.005   0.347
 1519TIP3    H1 4500   6.992   0.088   0.337
 1519TIP3    H2 4501   6.930  -0.049   0.326
 1520TIP3   OH2 4502   2.092   2.003   3.260
 1520TIP3    H1 4503   2.037   2.037   3.330
 1520TIP3    H2 4504   2.171   2.057   3.263
 1521TIP3   OH2 4505   6.486   2.778   5.476
 1521TIP3    H1 4506   6.439   2.723   5.540
 1521TIP3    H2 4507   6.463   2.867   5.500
 1522TIP3   OH2 4508   3.778   2.275   2.043
 1522TIP3    H1 4509   3.844   2.319   1.990
 1522TIP3    H2 4510   3.827   2.206   2.088
 1523TIP3   OH2 4511   3.265   3.042   2.732
 1523TIP3    H1 4512   3.226   3.099   2.798
 1523TIP3    H2 4513   3.353   3.025   2.763
 1524TIP3   OH2 4514   6.537   4.855   1.103
 1524TIP3    H1 4515   6.611   4.870   1.161
 1524TIP3    H2 4516   6.539   4.928   1.041
 1525TIP3   OH2 4517   7.924   3.863   5.208
 1525TIP3    H1 4518   7.993   3.811   5.168
 1525TIP3    H2 4519   7.949   3.954   5.190
 1526TIP3   OH2 4520   1.627   3.240   5.221
 1526TIP3    H1 4521   1.684   3.292   5.278
 1526TIP3    H2 4522   1.662   3.151   5.226
 1527TIP3   OH2 4523   4.649   1.729   6.512
 1527TIP3    H1 4524   4.680   1.641   6.533
 1527TIP3    H2 4525   4.642   1.773   6.596
 1528TIP3   OH2 4526   2.583   5.961   1.393
 1528TIP3    H1 4527   2.613   5.870   1.398
 1528TIP3    H2 4528   2.624   5.995   1.313
 1529TIP3   OH2 4529   7.270   1.210   1.624
 1529TIP3    H1 4530   7.269   1.199   1.719
 1529TIP3    H2 4531   7.355   1.175   1.597
 1530TIP3   OH2 4532   8.042   2.614   0.079
 1530TIP3    H1 4533   8.124   2.597   0.033
 1530TIP3    H2 4534   7.976   2.563   0.032
 1531TIP3   OH2 4535   5.280   5.559   6.514
 1531TIP3    H1 4536   5.279   5.594   6.425
 1531TIP3    H2 4537   5.215   5.611   6.561
 1532TIP3   OH2 4538   4.560   2.950   5.178
 1532TIP3    H1 4539   4.653   2.932   5.159
 1532TIP3    H2 4540   4.516   2.936   5.095
 1533TIP3   OH2 4541   7.865   6.834   2.883
 1533TIP3    H1 4542   7.951   6.795   2.896
 1533TIP3    H2 4543   7.829   6.791   2.806
 1534TIP3   OH2 4544   1.960   6.392   5.188
 1534TIP3    H1 4545   1.983   6.306   5.152
 1534TIP3    H2 4546   1.986   6.387   5.280
 1535TIP3   OH2 4547   7.249   0.491   4.706
 1535TIP3    H1 4548   7.229   0.541   4.627
 1535TIP3    H2 4549   7.164   0.476   4.747
 1536TIP3   OH2 4550   6.006   6.907   6.359
 1536TIP3    H1 4551   5.926   6.874   6.399
 1536TIP3    H2 4552   6.073   6.843   6.384
 1537TIP3   OH2 4553   3.899   2.994   3.925
 1537TIP3    H1 4554   3.931   2.936   3.856
 1537TIP3    H2 4555   3.964   2.986   3.995
 1538TIP3   OH2 4556   1.684   2.481   0.600
 1538TIP3    H1 4557   1.593   2.504   0.617
 1538TIP3    H2 4558   1.726   2.484   0.687
 1539TIP3   OH2 4559   2.227   1.979   1.807
 1539TIP3    H1 4560   2.190   1.897   1.774
 1539TIP3    H2 4561   2.247   1.962   1.899
 1540TIP3   OH2 4562   0.845   6.540   6.150
 1540TIP3    H1 4563   0.860   6.514   6.060
 1540TIP3    H2 4564   0.931   6.537   6.191
 1541TIP3   OH2 4565   0.239   5.226   0.868
 1541TIP3    H1 4566   0.154   5.234   0.911
 1541TIP3    H2 4567   0.224   5.163   0.797
 1542TIP3   OH2 4568   3.443   2.665   4.111
 1542TIP3    H1 4569   3.413   2.745   4.067
 1542TIP3    H2 4570   3.446   2.689   4.204
 1543TIP3   OH2 4571   7.573   5.708   0.304
 1543TIP3    H1 4572   7.637   5.694   0.374
 1543TIP3    H2 4573   7.572   5.626   0.255
 1544TIP3   OH2 4574   6.645   5.524   2.430
 1544TIP3    H1 4575   6.667   5.537   2.523
 1544TIP3    H2 4576   6.730   5.509   2.388
 1545TIP3   OH2 4577   5.316   6.994   3.908
 1545TIP3    H1 4578   5.221   6.990   3.920
 1545TIP3    H2 4579   5.328   7.031   3.821
 1546TIP3   OH2 4580   4.765   5.858   4.375
 1546TIP3    H1 4581   4.853   5.876   4.406
 1546TIP3    H2 4582   4.716   5.939   4.393
 1547TIP3   OH2 4583   6.182   6.037   5.159
 1547TIP3    H1 4584   6.229   6.027   5.241
 1547TIP3    H2 4585   6.241   6.087   5.103
 1548TIP3   OH2 4586   1.500   5.088   5.840
 1548TIP3    H1 4587   1.506   5.172   5.886
 1548TIP3    H2 4588   1.450   5.107   5.761
 1549TIP3   OH2 4589   1.640   0.295   1.858
 1549TIP3    H1 4590   1.593   0.296   1.774
 1549TIP3    H2 4591   1.572   0.304   1.924
 1550TIP3   OH2 4592   6.142   2.287   1.996
 1550TIP3    H1 4593   6.236   2.281   1.980
 1550TIP3    H2 4594   6.102   2.295   1.909
 1551TIP3   OH2 4595   1.117   0.094   5.433
 1551TIP3    H1 4596   1.068   0.079   5.353
 1551TIP3    H2 4597   1.053   0.129   5.495
 1552TIP3   OH2 4598   7.209   7.478   5.461
 1552TIP3    H1 4599   7.161   7.519   5.388
 1552TIP3    H2 4600   7.301   7.481   5.434
 1553TIP3   OH2 4601   4.621   4.356   5.691
 1553TIP3    H1 4602   4.622   4.261   5.681
 1553TIP3    H2 4603   4.713   4.380   5.701
 1554TIP3   OH2 4604   2.835   7.156   3.023
 1554TIP3    H1 4605   2.765   7.119   2.970
 1554TIP3    H2 4606   2.860   7.084   3.082
 1555TIP3   OH2 4607   4.168   5.795   1.125
 1555TIP3    H1 4608   4.172   5.721   1.186
 1555TIP3    H2 4609   4.126   5.758   1.047
 1556TIP3   OH2 4610   5.589   4.915   0.648
 1556TIP3    H1 4611   5.679   4.882   0.645
 1556TIP3    H2 4612   5.597   5.008   0.667
 1557TIP3   OH2 4613   0.584   0.269   2.196
 1557TIP3    H1 4614   0.581   0.223   2.112
 1557TIP3    H2 4615   0.495   0.304   2.207
 1558TIP3   OH2 4616   4.234   7.241   4.330
 1558TIP3    H1 4617   4.295   7.245   4.256
 1558TIP3    H2 4618   4.262   7.164   4.380
 1559TIP3   OH2 4619   2.525   7.790   6.415
 1559TIP3    H1 4620   2.541   7.745   6.332
 1559TIP3    H2 4621   2.612   7.809   6.449
 1560TIP3   OH2 4622   4.881   6.603   4.272
 1560TIP3    H1 4623   4.914   6.678   4.322
 1560TIP3    H2 4624   4.909   6.620   4.182
 1561TIP3   OH2 4625   4.700   5.410   4.952
 1561TIP3    H1 4626   4.618   5.394   4.998
 1561TIP3    H2 4627   4.747   5.327   4.957
 1562TIP3   OH2 4628   6.263   2.502   2.581
 1562TIP3    H1 4629   6.255   2.429   2.643
 1562TIP3    H2 4630   6.351   2.536   2.596
 1563TIP3   OH2 4631   3.132   3.764   4.548
 1563TIP3    H1 4632   3.215   3.811   4.536
 1563TIP3    H2 4633   3.123   3.754   4.642
 1564TIP3   OH2 4634   6.892   3.251   4.297
 1564TIP3    H1 4635   6.812   3.248   4.244
 1564TIP3    H2 4636   6.885   3.176   4.357
 1565TIP3   OH2 4637   7.615   1.994   2.919
 1565TIP3    H1 4638   7.622   1.943   3.000
 1565TIP3    H2 4639   7.673   2.069   2.933
 1566TIP3   OH2 4640   3.908   3.367   4.663
 1566TIP3    H1 4641   3.853   3.322   4.726
 1566TIP3    H2 4642   3.924   3.454   4.701
 1567TIP3   OH2 4643   2.474   4.182   5.097
 1567TIP3    H1 4644   2.432   4.126   5.031
 1567TIP3    H2 4645   2.532   4.238   5.046
 1568TIP3   OH2 4646   1.530   7.776   1.036
 1568TIP3    H1 4647   1.472   7.704   1.011
 1568TIP3    H2 4648   1.506   7.848   0.978
 1569TIP3   OH2 4649   6.388   5.346   0.897
 1569TIP3    H1 4650   6.481   5.371   0.891
 1569TIP3    H2 4651   6.391   5.256   0.930
 1570TIP3   OH2 4652   4.691   5.741   4.939
 1570TIP3    H1 4653   4.628   5.719   5.008
 1570TIP3    H2 4654   4.695   5.663   4.884
 1571TIP3   OH2 4655   5.062   7.522   2.685
 1571TIP3    H1 4656   5.113   7.602   2.690
 1571TIP3    H2 4657   5.117   7.462   2.634
 1572TIP3   OH2 4658   4.336   2.316   2.037
 1572TIP3    H1 4659   4.361   2.407   2.021
 1572TIP3    H2 4660   4.303   2.284   1.953
 1573TIP3   OH2 4661   3.395   1.261   5.436
 1573TIP3    H1 4662   3.365   1.352   5.433
 1573TIP3    H2 4663   3.322   1.214   5.477
 1574TIP3   OH2 4664   1.330   0.863   5.393
 1574TIP3    H1 4665   1.382   0.789   5.423
 1574TIP3    H2 4666   1.391   0.937   5.392
 1575TIP3   OH2 4667   2.034   6.938   4.857
 1575TIP3    H1 4668   1.991   6.995   4.921
 1575TIP3    H2 4669   2.002   6.968   4.772
 1576TIP3   OH2 4670   1.422   6.222   2.169
 1576TIP3    H1 4671   1.406   6.147   2.226
 1576TIP3    H2 4672   1.516   6.239   2.178
 1577TIP3   OH2 4673   0.039   7.530   0.671
 1577TIP3    H1 4674   0.016   7.622   0.655
 1577TIP3    H2 4675  -0.041   7.491   0.707
 1578TIP3   OH2 4676   4.405   1.982   3.730
 1578TIP3    H1 4677   4.452   2.040   3.790
 1578TIP3    H2 4678   4.471   1.919   3.700
 1579TIP3   OH2 4679   1.646   6.499   0.335
 1579TIP3    H1 4680   1.616   6.529   0.250
 1579TIP3    H2 4681   1.728   6.546   0.350
 1580TIP3   OH2 4682   7.724   7.162   1.255
 1580TIP3    H1 4683   7.691   7.166   1.345
 1580TIP3    H2 4684   7.660   7.213   1.204
 1581TIP3   OH2 4685   5.454   6.120   6.290
 1581TIP3    H1 4686   5.372   6.089   6.328
 1581TIP3    H2 4687   5.427   6.188   6.228
 1582TIP3   OH2 4688   2.682   6.696   4.864
 1582TIP3    H1 4689   2.724   6.733   4.941
 1582TIP3    H2 4690   2.711   6.751   4.792
 1583TIP3   OH2 4691   8.218   5.471   2.190
 1583TIP3    H1 4692   8.125   5.468   2.169
 1583TIP3    H2 4693   8.221   5.502   2.281
 1584TIP3   OH2 4694   1.591   2.965   6.073
 1584TIP3    H1 4695   1.641   2.923   6.003
 1584TIP3    H2 4696   1.500   2.958   6.044
 1585TIP3   OH2 4697   4.829   0.350   3.129
 1585TIP3    H1 4698   4.859   0.381   3.215
 1585TIP3    H2 4699   4.744   0.309   3.147
 1586TIP3   OH2 4700   3.986   6.790   4.061
 1586TIP3    H1 4701   4.053   6.796   4.128
 1586TIP3    H2 4702   4.029   6.822   3.981
 1587TIP3   OH2 4703   1.587   5.634   2.563
 1587TIP3    H1 4704   1.572   5.728   2.553
 1587TIP3    H2 4705   1.601   5.622   2.657
 1588TIP3   OH2 4706   3.015   7.224   0.669
 1588TIP3    H1 4707   3.080   7.270   0.722
 1588TIP3    H2 4708   2.947   7.199   0.732
 1589TIP3   OH2 4709   2.239   0.874   4.174
 1589TIP3    H1 4710   2.219   0.967   4.168
 1589TIP3    H2 4711   2.322   0.871   4.221
 1590TIP3   OH2 4712   6.177   7.195   3.128
 1590TIP3    H1 4713   6.108   7.136   3.159
 1590TIP3    H2 4714   6.133   7.280   3.117
 1591TIP3   OH2 4715   3.500   6.280   1.299
 1591TIP3    H1 4716   3.439   6.287   1.225
 1591TIP3    H2 4717   3.562   6.351   1.286
 1592TIP3   OH2 4718   0.393   2.888   5.945
 1592TIP3    H1 4719   0.408   2.947   5.871
 1592TIP3    H2 4720   0.302   2.860   5.934
 1593TIP3   OH2 4721   1.980   6.868   2.790
 1593TIP3    H1 4722   1.911   6.922   2.828
 1593TIP3    H2 4723   1.960   6.866   2.696
 1594TIP3   OH2 4724   6.551   0.625   3.773
 1594TIP3    H1 4725   6.490   0.568   3.726
 1594TIP3    H2 4726   6.496   0.693   3.811
 1595TIP3   OH2 4727   5.890   1.453   0.910
 1595TIP3    H1 4728   5.962   1.481   0.853
 1595TIP3    H2 4729   5.824   1.521   0.901
 1596TIP3   OH2 4730   6.272   5.231   0.664
 1596TIP3    H1 4731   6.331   5.175   0.715
 1596TIP3    H2 4732   6.239   5.295   0.728
 1597TIP3   OH2 4733   5.749   3.738   1.309
 1597TIP3    H1 4734   5.699   3.680   1.366
 1597TIP3    H2 4735   5.837   3.739   1.346
 1598TIP3   OH2 4736   6.653   5.553   2.708
 1598TIP3    H1 4737   6.652   5.490   2.780
 1598TIP3    H2 4738   6.606   5.629   2.743
 1599TIP3   OH2 4739   2.504   7.383   2.230
 1599TIP3    H1 4740   2.571   7.450   2.243
 1599TIP3    H2 4741   2.510   7.361   2.137
 1600TIP3   OH2 4742   8.236   0.284   3.926
 1600TIP3    H1 4743   8.231   0.233   3.845
 1600TIP3    H2 4744   8.318   0.332   3.920
 1601TIP3   OH2 4745   3.896   7.006   2.216
 1601TIP3    H1 4746   3.981   6.969   2.192
 1601TIP3    H2 4747   3.909   7.036   2.306
 1602TIP3   OH2 4748   5.037   0.479   4.454
 1602TIP3    H1 4749   5.029   0.566   4.415
 1602TIP3    H2 4750   4.988   0.422   4.395
 1603TIP3   OH2 4751   0.720   6.643   0.576
 1603TIP3    H1 4752   0.807   6.606   0.592
 1603TIP3    H2 4753   0.686   6.592   0.503
 1604TIP3   OH2 4754   2.229   4.591   2.258
 1604TIP3    H1 4755   2.275   4.545   2.328
 1604TIP3    H2 4756   2.202   4.674   2.298
 1605TIP3   OH2 4757   3.871   2.635   5.506
 1605TIP3    H1 4758   3.936   2.704   5.519
 1605TIP3    H2 4759   3.812   2.670   5.439
 1606TIP3   OH2 4760   2.858   6.806   0.715
 1606TIP3    H1 4761   2.781   6.751   0.699
 1606TIP3    H2 4762   2.822   6.894   0.728
 1607TIP3   OH2 4763   0.833   3.686   3.634
 1607TIP3    H1 4764   0.889   3.762   3.653
 1607TIP3    H2 4765   0.779   3.676   3.712
 1608TIP3   OH2 4766   2.118   5.107   6.587
 1608TIP3    H1 4767   2.162   5.052   6.523
 1608TIP3    H2 4768   2.055   5.158   6.536
 1609TIP3   OH2 4769   4.596   3.813   3.391
 1609TIP3    H1 4770   4.606   3.781   3.301
 1609TIP3    H2 4771   4.645   3.750   3.444
 1610TIP3   OH2 4772   4.320   0.255   3.654
 1610TIP3    H1 4773   4.330   0.311   3.731
 1610TIP3    H2 4774   4.229   0.226   3.657
 1611TIP3   OH2 4775   3.278   3.465   5.610
 1611TIP3    H1 4776   3.345   3.507   5.664
 1611TIP3    H2 4777   3.226   3.538   5.576
 1612TIP3   OH2 4778   1.327   5.569   3.503
 1612TIP3    H1 4779   1.325   5.629   3.428
 1612TIP3    H2 4780   1.379   5.615   3.569
 1613TIP3   OH2 4781   6.452   3.039   5.573
 1613TIP3    H1 4782   6.482   3.097   5.503
 1613TIP3    H2 4783   6.412   3.098   5.638
 1614TIP3   OH2 4784   6.566   2.441   5.544
 1614TIP3    H1 4785   6.626   2.391   5.601
 1614TIP3    H2 4786   6.484   2.393   5.548
 1615TIP3   OH2 4787   5.199   6.070   6.425
 1615TIP3    H1 4788   5.207   5.978   6.401
 1615TIP3    H2 4789   5.245   6.077   6.509
 1616TIP3   OH2 4790   5.103   2.282   6.266
 1616TIP3    H1 4791   5.105   2.235   6.182
 1616TIP3    H2 4792   5.130   2.218   6.331
 1617TIP3   OH2 4793   4.393   5.616   0.935
 1617TIP3    H1 4794   4.343   5.683   0.889
 1617TIP3    H2 4795   4.331   5.544   0.949
 1618TIP3   OH2 4796   7.820   2.464   1.404
 1618TIP3    H1 4797   7.780   2.468   1.491
 1618TIP3    H2 4798   7.833   2.555   1.379
 1619TIP3   OH2 4799   7.936   0.182   4.310
 1619TIP3    H1 4800   7.959   0.097   4.271
 1619TIP3    H2 4801   7.842   0.176   4.325
 1620TIP3   OH2 4802   2.011   7.604   0.261
 1620TIP3    H1 4803   2.046   7.554   0.335
 1620TIP3    H2 4804   2.072   7.587   0.189
 1621TIP3   OH2 4805   5.599   1.197   3.212
 1621TIP3    H1 4806   5.595   1.218   3.305
 1621TIP3    H2 4807   5.594   1.282   3.168
 1622TIP3   OH2 4808   7.781   0.206   2.640
 1622TIP3    H1 4809   7.704   0.149   2.647
 1622TIP3    H2 4810   7.843   0.171   2.703
 1623TIP3   OH2 4811   7.082   1.385   4.727
 1623TIP3    H1 4812   7.054   1.475   4.738
 1623TIP3    H2 4813   7.135   1.366   4.804
 1624TIP3   OH2 4814   7.497   3.653   5.001
 1624TIP3    H1 4815   7.531   3.726   5.053
 1624TIP3    H2 4816   7.473   3.587   5.066
 1625TIP3   OH2 4817   7.581   6.298   0.669
 1625TIP3    H1 4818   7.500   6.305   0.719
 1625TIP3    H2 4819   7.569   6.357   0.595
 1626TIP3   OH2 4820   0.458   3.126   0.215
 1626TIP3    H1 4821   0.550   3.111   0.193
 1626TIP3    H2 4822   0.416   3.146   0.131
 1627TIP3   OH2 4823   5.056   4.069   5.430
 1627TIP3    H1 4824   4.991   4.059   5.500
 1627TIP3    H2 4825   5.010   4.118   5.362
 1628TIP3   OH2 4826   0.950   7.703   3.864
 1628TIP3    H1 4827   0.935   7.790   3.901
 1628TIP3    H2 4828   0.929   7.643   3.936
 1629TIP3   OH2 4829   3.602   6.312   0.520
 1629TIP3    H1 4830   3.533   6.339   0.460
 1629TIP3    H2 4831   3.611   6.218   0.504
 1630TIP3   OH2 4832   4.077   0.367   3.394
 1630TIP3    H1 4833   4.090   0.316   3.473
 1630TIP3    H2 4834   4.149   0.431   3.394
 1631TIP3   OH2 4835   6.054   7.327   0.649
 1631TIP3    H1 4836   6.049   7.323   0.745
 1631TIP3    H2 4837   6.020   7.414   0.627
 1632TIP3   OH2 4838   6.329   2.446   0.669
 1632TIP3    H1 4839   6.418   2.414   0.655
 1632TIP3    H2 4840   6.342   2.535   0.704
 1633TIP3   OH2 4841   2.307   6.087   1.483
 1633TIP3    H1 4842   2.375   6.028   1.451
 1633TIP3    H2 4843   2.238   6.081   1.416
 1634TIP3   OH2 4844   0.561   5.987   2.261
 1634TIP3    H1 4845   0.597   5.899   2.259
 1634TIP3    H2 4846   0.466   5.973   2.267
 1635TIP3   OH2 4847   1.993   6.933   1.064
 1635TIP3    H1 4848   1.926   7.000   1.079
 1635TIP3    H2 4849   2.035   6.922   1.150
 1636TIP3   OH2 4850   1.736   6.861   6.026
 1636TIP3    H1 4851   1.660   6.807   6.043
 1636TIP3    H2 4852   1.790   6.809   5.966
 1637TIP3   OH2 4853   8.108   6.057   2.167
 1637TIP3    H1 4854   8.140   5.983   2.219
 1637TIP3    H2 4855   8.128   6.134   2.220
 1638TIP3   OH2 4856   1.480   1.779   3.449
 1638TIP3    H1 4857   1.396   1.751   3.485
 1638TIP3    H2 4858   1.509   1.706   3.395
 1639TIP3   OH2 4859   7.219   3.548   6.718
 1639TIP3    H1 4860   7.236   3.526   6.810
 1639TIP3    H2 4861   7.133   3.590   6.719
 1640TIP3   OH2 4862   5.225   3.785   0.284
 1640TIP3    H1 4863   5.161   3.730   0.329
 1640TIP3    H2 4864   5.185   3.872   0.282
 1641TIP3   OH2 4865   2.481   0.953   4.273
 1641TIP3    H1 4866   2.554   0.955   4.211
 1641TIP3    H2 4867   2.482   1.039   4.314
 1642TIP3   OH2 4868   5.944   1.024   5.293
 1642TIP3    H1 4869   6.015   1.067   5.341
 1642TIP3    H2 4870   5.888   1.096   5.264
 1643TIP3   OH2 4871   2.949   0.373   0.362
 1643TIP3    H1 4872   2.941   0.312   0.435
 1643TIP3    H2 4873   3.028   0.344   0.316
 1644TIP3   OH2 4874   5.176   6.006   5.419
 1644TIP3    H1 4875   5.256   6.017   5.367
 1644TIP3    H2 4876   5.117   6.076   5.388
 1645TIP3   OH2 4877   2.367   0.320   4.205
 1645TIP3    H1 4878   2.433   0.366   4.154
 1645TIP3    H2 4879   2.414   0.284   4.280
 1646TIP3   OH2 4880   0.135   3.776   2.785
 1646TIP3    H1 4881   0.123   3.808   2.874
 1646TIP3    H2 4882   0.206   3.712   2.791
 1647TIP3   OH2 4883   3.641   7.401   2.925
 1647TIP3    H1 4884   3.625   7.493   2.903
 1647TIP3    H2 4885   3.717   7.377   2.871
 1648TIP3   OH2 4886   0.030   6.228   4.162
 1648TIP3    H1 4887   0.037   6.254   4.253
 1648TIP3    H2 4888   0.064   6.303   4.113
 1649TIP3   OH2 4889   6.781   5.360   0.738
 1649TIP3    H1 4890   6.838   5.343   0.814
 1649TIP3    H2 4891   6.791   5.281   0.684
 1650TIP3   OH2 4892   5.021   0.793   1.690
 1650TIP3    H1 4893   5.038   0.737   1.765
 1650TIP3    H2 4894   4.952   0.747   1.641
 1651TIP3   OH2 4895   8.275   0.222   2.923
 1651TIP3    H1 4896   8.303   0.299   2.972
 1651TIP3    H2 4897   8.254   0.157   2.991
 1652TIP3   OH2 4898   1.026   7.662   4.742
 1652TIP3    H1 4899   1.081   7.740   4.744
 1652TIP3    H2 4900   0.954   7.685   4.682
 1653TIP3   OH2 4901   7.666   3.601   0.969
 1653TIP3    H1 4902   7.573   3.588   0.990
 1653TIP3    H2 4903   7.712   3.534   1.018
 1654TIP3   OH2 4904   4.875   5.204   4.590
 1654TIP3    H1 4905   4.881   5.112   4.563
 1654TIP3    H2 4906   4.787   5.230   4.566
 1655TIP3   OH2 4907   0.607   0.652   5.534
 1655TIP3    H1 4908   0.512   0.639   5.534
 1655TIP3    H2 4909   0.626   0.687   5.447
 1656TIP3   OH2 4910   4.471   7.772   0.172
 1656TIP3    H1 4911   4.419   7.766   0.092
 1656TIP3    H2 4912   4.409   7.802   0.239
 1657TIP3   OH2 4913   4.198   6.185   1.501
 1657TIP3    H1 4914   4.118   6.182   1.449
 1657TIP3    H2 4915   4.180   6.251   1.569
 1658TIP3   OH2 4916   0.513   7.559   6.102
 1658TIP3    H1 4917   0.480   7.543   6.013
 1658TIP3    H2 4918   0.536   7.652   6.102
 1659TIP3   OH2 4919   0.619   2.538   4.935
 1659TIP3    H1 4920   0.691   2.521   4.996
 1659TIP3    H2 4921   0.582   2.622   4.964
 1660TIP3   OH2 4922   5.978   0.595   1.427
 1660TIP3    H1 4923   6.018   0.512   1.403
 1660TIP3    H2 4924   6.001   0.654   1.355
 1661TIP3   OH2 4925   2.340   0.041   5.005
 1661TIP3    H1 4926   2.344   0.111   4.940
 1661TIP3    H2 4927   2.313  -0.037   4.956
 1662TIP3   OH2 4928   4.694   5.985   1.399
 1662TIP3    H1 4929   4.755   6.011   1.331
 1662TIP3    H2 4930   4.656   6.067   1.431
 1663TIP3   OH2 4931   3.548   2.904   2.117
 1663TIP3    H1 4932   3.635   2.928   2.149
 1663TIP3    H2 4933   3.535   2.814   2.147
 1664TIP3   OH2 4934   3.513   3.874   2.986
 1664TIP3    H1 4935   3.593   3.844   2.942
 1664TIP3    H2 4936   3.537   3.958   3.025
 1665TIP3   OH2 4937   7.898   6.720   3.936
 1665TIP3    H1 4938   7.911   6.810   3.906
 1665TIP3    H2 4939   7.986   6.691   3.962
 1666TIP3   OH2 4940   5.408   2.327   2.138
 1666TIP3    H1 4941   5.407   2.243   2.184
 1666TIP3    H2 4942   5.318   2.341   2.110
 1667TIP3   OH2 4943   3.259   0.754   6.681
 1667TIP3    H1 4944   3.279   0.704   6.760
 1667TIP3    H2 4945   3.191   0.816   6.708
 1668TIP3   OH2 4946   6.928   3.814   1.029
 1668TIP3    H1 4947   6.879   3.829   0.948
 1668TIP3    H2 4948   7.014   3.784   1.000
 1669TIP3   OH2 4949   0.652   4.063   1.096
 1669TIP3    H1 4950   0.739   4.066   1.136
 1669TIP3    H2 4951   0.642   3.972   1.066
 1670TIP3   OH2 4952   2.325   0.113   4.017
 1670TIP3    H1 4953   2.274   0.038   4.047
 1670TIP3    H2 4954   2.335   0.168   4.095
 1671TIP3   OH2 4955   7.736   0.598   4.828
 1671TIP3    H1 4956   7.804   0.654   4.791
 1671TIP3    H2 4957   7.779   0.514   4.843
 1672TIP3   OH2 4958   4.007   0.429   0.793
 1672TIP3    H1 4959   3.947   0.380   0.849
 1672TIP3    H2 4960   3.950   0.479   0.735
 1673TIP3   OH2 4961   8.092   2.814   4.311
 1673TIP3    H1 4962   8.036   2.883   4.347
 1673TIP3    H2 4963   8.125   2.850   4.229
 1674TIP3   OH2 4964   3.474   3.580   4.118
 1674TIP3    H1 4965   3.503   3.642   4.184
 1674TIP3    H2 4966   3.407   3.628   4.069
 1675TIP3   OH2 4967   2.900   5.613   2.896
 1675TIP3    H1 4968   2.972   5.551   2.885
 1675TIP3    H2 4969   2.858   5.587   2.978
 1676TIP3   OH2 4970   7.940   2.989   0.084
 1676TIP3    H1 4971   7.994   3.024   0.155
 1676TIP3    H2 4972   8.003   2.962   0.017
 1677TIP3   OH2 4973   1.867   0.163   6.062
 1677TIP3    H1 4974   1.955   0.134   6.088
 1677TIP3    H2 4975   1.809   0.125   6.128
 1678TIP3   OH2 4976   2.576   1.833   5.317
 1678TIP3    H1 4977   2.523   1.911   5.301
 1678TIP3    H2 4978   2.513   1.765   5.339
 1679TIP3   OH2 4979   0.991   6.993   5.930
 1679TIP3    H1 4980   1.030   6.906   5.924
 1679TIP3    H2 4981   0.977   7.020   5.840
 1680TIP3   OH2 4982   3.451   3.785   6.128
 1680TIP3    H1 4983   3.420   3.766   6.216
 1680TIP3    H2 4984   3.546   3.795   6.137
 1681TIP3   OH2 4985   2.902   2.286   0.560
 1681TIP3    H1 4986   2.990   2.276   0.523
 1681TIP3    H2 4987   2.871   2.196   0.573
 1682TIP3   OH2 4988   0.297   5.422   4.769
 1682TIP3    H1 4989   0.369   5.426   4.705
 1682TIP3    H2 4990   0.316   5.492   4.831
 1683TIP3   OH2 4991   0.932   3.469   5.070
 1683TIP3    H1 4992   0.918   3.376   5.052
 1683TIP3    H2 4993   0.964   3.471   5.160
 1684TIP3   OH2 4994   0.751   3.080   0.796
 1684TIP3    H1 4995   0.676   3.040   0.751
 1684TIP3    H2 4996   0.737   3.060   0.888
 1685TIP3   OH2 4997   7.604   4.950   2.234
 1685TIP3    H1 4998   7.532   4.949   2.297
 1685TIP3    H2 4999   7.585   4.878   2.173
 1686TIP3   OH2 5000   0.238   0.860   4.985
 1686TIP3    H1 5001   0.201   0.880   4.899
 1686TIP3    H2 5002   0.244   0.764   4.986
 1687TIP3   OH2 5003   7.332   1.182   3.740
 1687TIP3    H1 5004   7.397   1.206   3.807
 1687TIP3    H2 5005   7.248   1.203   3.780
 1688TIP3   OH2 5006   3.028   2.048   6.378
 1688TIP3    H1 5007   3.081   2.125   6.399
 1688TIP3    H2 5008   3.061   2.018   6.294
 1689TIP3   OH2 5009   3.125   4.904   6.385
 1689TIP3    H1 5010   3.180   4.950   6.448
 1689TIP3    H2 5011   3.107   4.819   6.426
 1690TIP3   OH2 5012   6.564   1.307   1.163
 1690TIP3    H1 5013   6.530   1.356   1.088
 1690TIP3    H2 5014   6.640   1.358   1.192
 1691TIP3   OH2 5015   7.109   5.650   2.104
 1691TIP3    H1 5016   7.048   5.665   2.176
 1691TIP3    H2 5017   7.176   5.718   2.115
 1692TIP3   OH2 5018   0.880   3.155   2.341
 1692TIP3    H1 5019   0.974   3.150   2.361
 1692TIP3    H2 5020   0.872   3.234   2.286
 1693TIP3   OH2 5021   1.322   6.139   6.706
 1693TIP3    H1 5022   1.306   6.076   6.636
 1693TIP3    H2 5023   1.283   6.099   6.784
 1694TIP3   OH2 5024   3.051   2.458   5.424
 1694TIP3    H1 5025   3.006   2.380   5.456
 1694TIP3    H2 5026   3.126   2.468   5.483
 1695TIP3   OH2 5027   2.070   4.960   6.031
 1695TIP3    H1 5028   2.150   4.995   5.992
 1695TIP3    H2 5029   2.090   4.869   6.052
 1696TIP3   OH2 5030   3.358   4.661   3.165
 1696TIP3    H1 5031   3.438   4.712   3.177
 1696TIP3    H2 5032   3.317   4.660   3.252
 1697TIP3   OH2 5033   2.425   0.044   0.038
 1697TIP3    H1 5034   2.444   0.100  -0.037
 1697TIP3    H2 5035   2.505  -0.007   0.051
 1698TIP3   OH2 5036   0.325   4.874   3.215
 1698TIP3    H1 5037   0.305   4.821   3.291
 1698TIP3    H2 5038   0.275   4.835   3.144
 1699TIP3   OH2 5039   4.953   6.478   2.763
 1699TIP3    H1 5040   5.026   6.458   2.822
 1699TIP3    H2 5041   4.942   6.399   2.711
 1700TIP3   OH2 5042   4.623   5.212   5.646
 1700TIP3    H1 5043   4.562   5.276   5.682
 1700TIP3    H2 5044   4.675   5.183   5.721
 1701TIP3   OH2 5045   6.473   3.038   4.811
 1701TIP3    H1 5046   6.461   3.088   4.892
 1701TIP3    H2 5047   6.465   3.103   4.741
 1702TIP3   OH2 5048   5.839   3.381   4.342
 1702TIP3    H1 5049   5.852   3.346   4.430
 1702TIP3    H2 5050   5.882   3.317   4.284
 1703TIP3   OH2 5051   6.935   7.509   6.411
 1703TIP3    H1 5052   7.006   7.444   6.412
 1703TIP3    H2 5053   6.971   7.582   6.361
 1704TIP3   OH2 5054   1.904   5.494   6.700
 1704TIP3    H1 5055   1.836   5.540   6.650
 1704TIP3    H2 5056   1.912   5.544   6.781
 1705TIP3   OH2 5057   6.805   0.723   1.663
 1705TIP3    H1 5058   6.807   0.646   1.607
 1705TIP3    H2 5059   6.761   0.790   1.611
 1706TIP3   OH2 5060   1.848   1.810   5.466
 1706TIP3    H1 5061   1.899   1.797   5.546
 1706TIP3    H2 5062   1.862   1.902   5.444
 1707TIP3   OH2 5063   5.183   2.697   6.271
 1707TIP3    H1 5064   5.242   2.647   6.328
 1707TIP3    H2 5065   5.096   2.683   6.307
 1708TIP3   OH2 5066   4.039   5.649   6.191
 1708TIP3    H1 5067   4.080   5.568   6.220
 1708TIP3    H2 5068   4.000   5.628   6.106
 1709TIP3   OH2 5069   5.985   6.433   6.226
 1709TIP3    H1 5070   5.985   6.379   6.306
 1709TIP3    H2 5071   6.004   6.371   6.156
 1710TIP3   OH2 5072   2.810   6.037   5.909
 1710TIP3    H1 5073   2.738   6.081   5.955
 1710TIP3    H2 5074   2.878   6.028   5.976
 1711TIP3   OH2 5075   5.281   7.082   3.616
 1711TIP3    H1 5076   5.373   7.054   3.623
 1711TIP3    H2 5077   5.257   7.059   3.526
 1712TIP3   OH2 5078   4.862   0.208   6.398
 1712TIP3    H1 5079   4.935   0.171   6.349
 1712TIP3    H2 5080   4.808   0.133   6.421
 1713TIP3   OH2 5081   4.389   1.132   3.364
 1713TIP3    H1 5082   4.432   1.139   3.450
 1713TIP3    H2 5083   4.300   1.162   3.380
 1714TIP3   OH2 5084   3.429   7.273   1.971
 1714TIP3    H1 5085   3.461   7.220   1.898
 1714TIP3    H2 5086   3.472   7.358   1.959
 1715TIP3   OH2 5087   4.205   2.881   3.891
 1715TIP3    H1 5088   4.172   2.793   3.872
 1715TIP3    H2 5089   4.286   2.867   3.940
 1716TIP3   OH2 5090   5.771   1.014   6.662
 1716TIP3    H1 5091   5.746   0.933   6.617
 1716TIP3    H2 5092   5.780   1.078   6.592
 1717TIP3   OH2 5093   3.101   1.673   3.242
 1717TIP3    H1 5094   3.113   1.730   3.166
 1717TIP3    H2 5095   3.084   1.587   3.204
 1718TIP3   OH2 5096   5.005   0.225   2.681
 1718TIP3    H1 5097   5.077   0.245   2.620
 1718TIP3    H2 5098   5.036   0.258   2.765
 1719TIP3   OH2 5099   1.322   0.389   0.865
 1719TIP3    H1 5100   1.272   0.463   0.900
 1719TIP3    H2 5101   1.373   0.426   0.793
 1720TIP3   OH2 5102   0.230   4.996   3.676
 1720TIP3    H1 5103   0.315   4.967   3.708
 1720TIP3    H2 5104   0.243   5.010   3.582
 1721TIP3   OH2 5105   0.574   6.052   4.914
 1721TIP3    H1 5106   0.614   6.117   4.971
 1721TIP3    H2 5107   0.534   6.103   4.844
 1722TIP3   OH2 5108   4.359   6.968   6.581
 1722TIP3    H1 5109   4.391   7.056   6.565
 1722TIP3    H2 5110   4.428   6.926   6.634
 1723TIP3   OH2 5111   0.880   1.091   3.440
 1723TIP3    H1 5112   0.904   1.010   3.395
 1723TIP3    H2 5113   0.956   1.148   3.429
 1724TIP3   OH2 5114   0.849   1.502   2.848
 1724TIP3    H1 5115   0.921   1.472   2.903
 1724TIP3    H2 5116   0.823   1.586   2.886
 1725TIP3   OH2 5117   7.084   2.278   1.581
 1725TIP3    H1 5118   7.127   2.273   1.496
 1725TIP3    H2 5119   7.131   2.346   1.628
 1726TIP3   OH2 5120   3.895   5.952   5.296
 1726TIP3    H1 5121   3.919   5.878   5.352
 1726TIP3    H2 5122   3.976   5.974   5.249
 1727TIP3   OH2 5123   1.519   3.582   4.037
 1727TIP3    H1 5124   1.548   3.517   3.973
 1727TIP3    H2 5125   1.424   3.585   4.026
 1728TIP3   OH2 5126   7.487   2.750   6.238
 1728TIP3    H1 5127   7.556   2.691   6.269
 1728TIP3    H2 5128   7.435   2.697   6.178
 1729TIP3   OH2 5129   5.682   0.860   2.355
 1729TIP3    H1 5130   5.651   0.903   2.275
 1729TIP3    H2 5131   5.612   0.877   2.419
 1730TIP3   OH2 5132   3.955   1.916   3.668
 1730TIP3    H1 5133   3.963   1.825   3.639
 1730TIP3    H2 5134   3.879   1.950   3.620
 1731TIP3   OH2 5135   1.206   2.711   5.323
 1731TIP3    H1 5136   1.232   2.646   5.257
 1731TIP3    H2 5137   1.279   2.715   5.383
 1732TIP3   OH2 5138   7.585   3.961   5.369
 1732TIP3    H1 5139   7.665   3.929   5.409
 1732TIP3    H2 5140   7.584   3.922   5.282
 1733TIP3   OH2 5141   0.748   3.446   1.311
 1733TIP3    H1 5142   0.830   3.408   1.345
 1733TIP3    H2 5143   0.711   3.493   1.385
 1734TIP3   OH2 5144   7.244   3.791   0.467
 1734TIP3    H1 5145   7.273   3.864   0.412
 1734TIP3    H2 5146   7.216   3.832   0.548
 1735TIP3   OH2 5147   5.756   7.444   1.987
 1735TIP3    H1 5148   5.688   7.493   1.941
 1735TIP3    H2 5149   5.726   7.441   2.078
 1736TIP3   OH2 5150   5.028   5.912   2.516
 1736TIP3    H1 5151   5.026   5.913   2.612
 1736TIP3    H2 5152   5.041   5.820   2.493
 1737TIP3   OH2 5153   1.167   7.671   5.655
 1737TIP3    H1 5154   1.161   7.635   5.566
 1737TIP3    H2 5155   1.093   7.731   5.662
 1738TIP3   OH2 5156   8.196   4.571   3.853
 1738TIP3    H1 5157   8.175   4.478   3.843
 1738TIP3    H2 5158   8.115   4.616   3.829
 1739TIP3   OH2 5159   6.708   0.827   2.539
 1739TIP3    H1 5160   6.741   0.864   2.621
 1739TIP3    H2 5161   6.739   0.888   2.471
 1740TIP3   OH2 5162   1.757   7.357   5.312
 1740TIP3    H1 5163   1.688   7.377   5.250
 1740TIP3    H2 5164   1.734   7.407   5.390
 1741TIP3   OH2 5165   5.769   6.677   2.588
 1741TIP3    H1 5166   5.712   6.615   2.633
 1741TIP3    H2 5167   5.766   6.756   2.643
 1742TIP3   OH2 5168   1.787   7.158   4.891
 1742TIP3    H1 5169   1.796   7.105   4.812
 1742TIP3    H2 5170   1.692   7.163   4.906
 1743TIP3   OH2 5171   0.941   5.929   4.613
 1743TIP3    H1 5172   0.998   5.868   4.567
 1743TIP3    H2 5173   0.858   5.924   4.567
 1744TIP3   OH2 5174   7.888   0.755   6.206
 1744TIP3    H1 5175   7.879   0.700   6.128
 1744TIP3    H2 5176   7.851   0.702   6.277
 1745TIP3   OH2 5177   5.301   0.592   3.815
 1745TIP3    H1 5178   5.273   0.619   3.903
 1745TIP3    H2 5179   5.253   0.511   3.798
 1746TIP3   OH2 5180   0.932   1.550   5.961
 1746TIP3    H1 5181   1.022   1.573   5.987
 1746TIP3    H2 5182   0.896   1.506   6.037
 1747TIP3   OH2 5183   1.662   2.400   0.342
 1747TIP3    H1 5184   1.683   2.307   0.346
 1747TIP3    H2 5185   1.657   2.427   0.434
 1748TIP3   OH2 5186   4.778   7.237   1.779
 1748TIP3    H1 5187   4.834   7.203   1.848
 1748TIP3    H2 5188   4.808   7.327   1.766
 1749TIP3   OH2 5189   3.359   3.799   4.352
 1749TIP3    H1 5190   3.449   3.768   4.346
 1749TIP3    H2 5191   3.332   3.814   4.262
 1750TIP3   OH2 5192   3.453   7.477   3.324
 1750TIP3    H1 5193   3.475   7.387   3.298
 1750TIP3    H2 5194   3.435   7.521   3.241
 1751TIP3   OH2 5195   4.282   1.294   3.795
 1751TIP3    H1 5196   4.282   1.364   3.729
 1751TIP3    H2 5197   4.213   1.319   3.857
 1752TIP3   OH2 5198   0.458   6.166   2.569
 1752TIP3    H1 5199   0.553   6.157   2.559
 1752TIP3    H2 5200   0.436   6.239   2.511
 1753TIP3   OH2 5201   6.045   6.988   1.481
 1753TIP3    H1 5202   6.050   6.903   1.437
 1753TIP3    H2 5203   6.020   7.049   1.412
 1754TIP3   OH2 5204   5.405   6.425   0.368
 1754TIP3    H1 5205   5.335   6.483   0.339
 1754TIP3    H2 5206   5.413   6.360   0.298
 1755TIP3   OH2 5207   4.979   3.615   1.489
 1755TIP3    H1 5208   4.965   3.708   1.472
 1755TIP3    H2 5209   4.897   3.586   1.530
 1756TIP3   OH2 5210   6.596   0.487   1.836
 1756TIP3    H1 5211   6.685   0.457   1.851
 1756TIP3    H2 5212   6.570   0.527   1.919
 1757TIP3   OH2 5213   2.607   6.097   0.866
 1757TIP3    H1 5214   2.619   6.006   0.892
 1757TIP3    H2 5215   2.531   6.096   0.808
 1758TIP3   OH2 5216   1.159   4.156   4.764
 1758TIP3    H1 5217   1.231   4.094   4.755
 1758TIP3    H2 5218   1.168   4.191   4.852
 1759TIP3   OH2 5219   3.025   6.179   0.306
 1759TIP3    H1 5220   2.937   6.157   0.337
 1759TIP3    H2 5221   3.076   6.187   0.387
 1760TIP3   OH2 5222   5.948   5.613   5.496
 1760TIP3    H1 5223   5.914   5.687   5.546
 1760TIP3    H2 5224   6.011   5.652   5.435
 1761TIP3   OH2 5225   0.799   3.112   0.453
 1761TIP3    H1 5226   0.794   3.191   0.398
 1761TIP3    H2 5227   0.886   3.117   0.493
 1762TIP3   OH2 5228   6.096   5.664   2.770
 1762TIP3    H1 5229   6.177   5.640   2.817
 1762TIP3    H2 5230   6.067   5.744   2.812
 1763TIP3   OH2 5231   5.337   5.479   1.485
 1763TIP3    H1 5232   5.328   5.527   1.567
 1763TIP3    H2 5233   5.431   5.468   1.474
 1764TIP3   OH2 5234   4.809   2.589   4.335
 1764TIP3    H1 5235   4.797   2.580   4.429
 1764TIP3    H2 5236   4.740   2.535   4.296
 1765TIP3   OH2 5237   4.956   2.329   4.163
 1765TIP3    H1 5238   5.031   2.319   4.222
 1765TIP3    H2 5239   4.927   2.239   4.147
 1766TIP3   OH2 5240   5.405   5.683   3.575
 1766TIP3    H1 5241   5.491   5.725   3.582
 1766TIP3    H2 5242   5.343   5.755   3.564
 1767TIP3   OH2 5243   5.119   1.833   4.205
 1767TIP3    H1 5244   5.210   1.840   4.232
 1767TIP3    H2 5245   5.079   1.776   4.271
 1768TIP3   OH2 5246   4.819   7.231   2.482
 1768TIP3    H1 5247   4.827   7.294   2.554
 1768TIP3    H2 5248   4.864   7.273   2.409
 1769TIP3   OH2 5249   4.778   0.046   0.288
 1769TIP3    H1 5250   4.756  -0.047   0.291
 1769TIP3    H2 5251   4.727   0.086   0.358
 1770TIP3   OH2 5252   0.223   4.190   0.166
 1770TIP3    H1 5253   0.277   4.259   0.127
 1770TIP3    H2 5254   0.142   4.235   0.192
 1771TIP3   OH2 5255   5.140   1.989   5.629
 1771TIP3    H1 5256   5.206   2.056   5.647
 1771TIP3    H2 5257   5.148   1.974   5.535
 1772TIP3   OH2 5258   4.217   2.163   3.642
 1772TIP3    H1 5259   4.205   2.186   3.550
 1772TIP3    H2 5260   4.253   2.075   3.641
 1773TIP3   OH2 5261   3.838   5.483   2.156
 1773TIP3    H1 5262   3.789   5.540   2.097
 1773TIP3    H2 5263   3.893   5.430   2.097
 1774TIP3   OH2 5264   3.313   1.976   5.818
 1774TIP3    H1 5265   3.316   1.884   5.792
 1774TIP3    H2 5266   3.375   2.020   5.760
 1775TIP3   OH2 5267   5.371   1.828   5.834
 1775TIP3    H1 5268   5.301   1.778   5.791
 1775TIP3    H2 5269   5.367   1.801   5.925
 1776TIP3   OH2 5270   3.839   6.387   4.370
 1776TIP3    H1 5271   3.820   6.317   4.433
 1776TIP3    H2 5272   3.935   6.386   4.361
 1777TIP3   OH2 5273   5.306   3.397   0.659
 1777TIP3    H1 5274   5.318   3.304   0.637
 1777TIP3    H2 5275   5.234   3.397   0.722
 1778TIP3   OH2 5276   7.298   0.988   6.535
 1778TIP3    H1 5277   7.239   0.977   6.610
 1778TIP3    H2 5278   7.340   1.073   6.550
 1779TIP3   OH2 5279   1.733   2.259   1.155
 1779TIP3    H1 5280   1.788   2.205   1.212
 1779TIP3    H2 5281   1.648   2.214   1.156
 1780TIP3   OH2 5282   5.345   2.957   1.227
 1780TIP3    H1 5283   5.310   2.970   1.139
 1780TIP3    H2 5284   5.426   2.908   1.214
 1781TIP3   OH2 5285   7.822   3.855   4.027
 1781TIP3    H1 5286   7.911   3.891   4.032
 1781TIP3    H2 5287   7.765   3.929   4.047
 1782TIP3   OH2 5288   0.611   2.196   0.239
 1782TIP3    H1 5289   0.549   2.268   0.234
 1782TIP3    H2 5290   0.683   2.230   0.292
 1783TIP3   OH2 5291   2.346   4.376   0.124
 1783TIP3    H1 5292   2.406   4.389   0.051
 1783TIP3    H2 5293   2.265   4.419   0.098
 1784TIP3   OH2 5294   3.636   3.867   1.757
 1784TIP3    H1 5295   3.711   3.823   1.718
 1784TIP3    H2 5296   3.634   3.836   1.848
 1785TIP3   OH2 5297   4.850   2.609   4.644
 1785TIP3    H1 5298   4.838   2.704   4.654
 1785TIP3    H2 5299   4.929   2.590   4.694
 1786TIP3   OH2 5300   6.891   3.635   0.207
 1786TIP3    H1 5301   6.859   3.563   0.152
 1786TIP3    H2 5302   6.814   3.663   0.257
 1787TIP3   OH2 5303   8.081   1.768   6.315
 1787TIP3    H1 5304   8.051   1.711   6.386
 1787TIP3    H2 5305   8.168   1.735   6.293
 1788TIP3   OH2 5306   7.845   0.817   5.154
 1788TIP3    H1 5307   7.796   0.804   5.235
 1788TIP3    H2 5308   7.781   0.801   5.084
 1789TIP3   OH2 5309   0.594   1.067   0.316
 1789TIP3    H1 5310   0.553   0.989   0.281
 1789TIP3    H2 5311   0.628   1.113   0.239
 1790TIP3   OH2 5312   4.201   6.820   6.373
 1790TIP3    H1 5313   4.230   6.729   6.373
 1790TIP3    H2 5314   4.270   6.868   6.419
 1791TIP3   OH2 5315   1.488   3.492   2.573
 1791TIP3    H1 5316   1.452   3.578   2.593
 1791TIP3    H2 5317   1.431   3.458   2.503
 1792TIP3   OH2 5318   3.275   3.730   3.752
 1792TIP3    H1 5319   3.329   3.757   3.827
 1792TIP3    H2 5320   3.188   3.715   3.789
 1793TIP3   OH2 5321   3.892   5.242   4.589
 1793TIP3    H1 5322   3.861   5.332   4.590
 1793TIP3    H2 5323   3.896   5.218   4.496
 1794TIP3   OH2 5324   7.775   1.704   5.865
 1794TIP3    H1 5325   7.820   1.623   5.842
 1794TIP3    H2 5326   7.825   1.740   5.938
 1795TIP3   OH2 5327   0.860   5.610   3.867
 1795TIP3    H1 5328   0.805   5.653   3.932
 1795TIP3    H2 5329   0.805   5.603   3.789
 1796TIP3   OH2 5330   3.422   1.220   6.342
 1796TIP3    H1 5331   3.479   1.283   6.386
 1796TIP3    H2 5332   3.464   1.135   6.354
 1797TIP3   OH2 5333   0.862   0.787   4.029
 1797TIP3    H1 5334   0.914   0.833   3.963
 1797TIP3    H2 5335   0.902   0.812   4.112
 1798TIP3   OH2 5336   6.991   5.988   5.635
 1798TIP3    H1 5337   7.011   5.917   5.697
 1798TIP3    H2 5338   6.988   6.067   5.690
 1799TIP3   OH2 5339   5.184   2.809   5.991
 1799TIP3    H1 5340   5.213   2.755   5.917
 1799TIP3    H2 5341   5.183   2.748   6.065
 1800TIP3   OH2 5342   5.764   6.089   5.221
 1800TIP3    H1 5343   5.675   6.056   5.208
 1800TIP3    H2 5344   5.763   6.177   5.185
 1801TIP3   OH2 5345   7.840   3.220   0.550
 1801TIP3    H1 5346   7.897   3.165   0.497
 1801TIP3    H2 5347   7.888   3.234   0.631
 1802TIP3   OH2 5348   2.340   7.286   0.941
 1802TIP3    H1 5349   2.256   7.242   0.955
 1802TIP3    H2 5350   2.391   7.267   1.020
 1803TIP3   OH2 5351   6.668   1.341   0.389
 1803TIP3    H1 5352   6.697   1.255   0.420
 1803TIP3    H2 5353   6.598   1.366   0.450
 1804TIP3   OH2 5354   0.719   6.257   4.488
 1804TIP3    H1 5355   0.686   6.345   4.467
 1804TIP3    H2 5356   0.768   6.269   4.570
 1805TIP3   OH2 5357   5.803   2.290   3.763
 1805TIP3    H1 5358   5.777   2.372   3.805
 1805TIP3    H2 5359   5.748   2.284   3.685
 1806TIP3   OH2 5360   1.948   0.039   0.535
 1806TIP3    H1 5361   1.912  -0.049   0.521
 1806TIP3    H2 5362   1.986   0.035   0.623
 1807TIP3   OH2 5363   5.700   2.667   0.100
 1807TIP3    H1 5364   5.776   2.671   0.158
 1807TIP3    H2 5365   5.705   2.747   0.049
 1808TIP3   OH2 5366   3.272   3.957   2.154
 1808TIP3    H1 5367   3.204   3.948   2.221
 1808TIP3    H2 5368   3.333   3.885   2.173
 1809TIP3   OH2 5369   7.792   5.042   5.198
 1809TIP3    H1 5370   7.797   4.962   5.146
 1809TIP3    H2 5371   7.768   5.013   5.285
 1810TIP3   OH2 5372   7.648   1.501   4.359
 1810TIP3    H1 5373   7.585   1.504   4.432
 1810TIP3    H2 5374   7.593   1.489   4.281
 1811TIP3   OH2 5375   1.407   0.080   1.961
 1811TIP3    H1 5376   1.332   0.065   1.904
 1811TIP3    H2 5377   1.390   0.166   2.001
 1812TIP3   OH2 5378   5.569   1.783   0.359
 1812TIP3    H1 5379   5.621   1.857   0.392
 1812TIP3    H2 5380   5.619   1.750   0.285
 1813TIP3   OH2 5381   1.076   6.052   3.188
 1813TIP3    H1 5382   1.144   6.066   3.122
 1813TIP3    H2 5383   0.997   6.035   3.137
 1814TIP3   OH2 5384   3.806   5.215   1.540
 1814TIP3    H1 5385   3.739   5.185   1.479
 1814TIP3    H2 5386   3.823   5.306   1.514
 1815TIP3   OH2 5387   0.337   0.595   3.948
 1815TIP3    H1 5388   0.406   0.660   3.930
 1815TIP3    H2 5389   0.265   0.646   3.986
 1816TIP3   OH2 5390   2.821   0.988   3.336
 1816TIP3    H1 5391   2.850   0.897   3.325
 1816TIP3    H2 5392   2.774   0.988   3.419
 1817TIP3   OH2 5393   4.422   3.026   1.421
 1817TIP3    H1 5394   4.371   3.052   1.499
 1817TIP3    H2 5395   4.471   2.949   1.449
 1818TIP3   OH2 5396   6.297   6.496   2.014
 1818TIP3    H1 5397   6.209   6.470   1.987
 1818TIP3    H2 5398   6.298   6.483   2.109
 1819TIP3   OH2 5399   2.895   4.718   5.064
 1819TIP3    H1 5400   2.960   4.785   5.084
 1819TIP3    H2 5401   2.946   4.641   5.038
 1820TIP3   OH2 5402   7.614   3.215   0.895
 1820TIP3    H1 5403   7.687   3.155   0.879
 1820TIP3    H2 5404   7.631   3.249   0.983
 1821TIP3   OH2 5405   2.576   2.994   3.200
 1821TIP3    H1 5406   2.658   2.960   3.236
 1821TIP3    H2 5407   2.589   2.992   3.106
 1822TIP3   OH2 5408   6.534   6.143   5.632
 1822TIP3    H1 5409   6.531   6.187   5.547
 1822TIP3    H2 5410   6.517   6.212   5.695
 1823TIP3   OH2 5411   8.075   7.088   3.556
 1823TIP3    H1 5412   7.992   7.128   3.580
 1823TIP3    H2 5413   8.066   7.069   3.462
 1824TIP3   OH2 5414   3.369   6.433   1.501
 1824TIP3    H1 5415   3.442   6.490   1.475
 1824TIP3    H2 5416   3.384   6.352   1.451
 1825TIP3   OH2 5417   3.488   1.741   5.944
 1825TIP3    H1 5418   3.442   1.733   6.027
 1825TIP3    H2 5419   3.556   1.806   5.960
 1826TIP3   OH2 5420   1.539   6.410   3.842
 1826TIP3    H1 5421   1.603   6.403   3.771
 1826TIP3    H2 5422   1.592   6.426   3.921
 1827TIP3   OH2 5423   2.803   5.442   3.564
 1827TIP3    H1 5424   2.777   5.351   3.580
 1827TIP3    H2 5425   2.889   5.435   3.522
 1828TIP3   OH2 5426   2.225   4.872   0.111
 1828TIP3    H1 5427   2.314   4.908   0.107
 1828TIP3    H2 5428   2.204   4.851   0.019
 1829TIP3   OH2 5429   1.893   1.144   4.624
 1829TIP3    H1 5430   1.926   1.203   4.692
 1829TIP3    H2 5431   1.830   1.088   4.670
 1830TIP3   OH2 5432   1.115   4.256   3.417
 1830TIP3    H1 5433   1.152   4.344   3.406
 1830TIP3    H2 5434   1.184   4.197   3.388
 1831TIP3   OH2 5435   7.963   2.690   5.048
 1831TIP3    H1 5436   7.930   2.623   4.989
 1831TIP3    H2 5437   8.037   2.729   5.001
 1832TIP3   OH2 5438   1.813   3.411   5.652
 1832TIP3    H1 5439   1.849   3.350   5.716
 1832TIP3    H2 5440   1.743   3.457   5.699
 1833TIP3   OH2 5441   1.773   7.293   5.974
 1833TIP3    H1 5442   1.741   7.277   6.063
 1833TIP3    H2 5443   1.695   7.288   5.919
 1834TIP3   OH2 5444   2.177   2.047   1.142
 1834TIP3    H1 5445   2.114   2.073   1.074
 1834TIP3    H2 5446   2.168   1.951   1.147
 1835TIP3   OH2 5447   3.897   4.578   3.256
 1835TIP3    H1 5448   3.964   4.523   3.216
 1835TIP3    H2 5449   3.941   4.662   3.272
 1836TIP3   OH2 5450   3.736   5.035   3.525
 1836TIP3    H1 5451   3.815   5.000   3.565
 1836TIP3    H2 5452   3.733   4.996   3.438
 1837TIP3   OH2 5453   1.699   3.644   2.594
 1837TIP3    H1 5454   1.661   3.586   2.529
 1837TIP3    H2 5455   1.783   3.604   2.616
 1838TIP3   OH2 5456   2.751   7.734   4.746
 1838TIP3    H1 5457   2.684   7.800   4.730
 1838TIP3    H2 5458   2.746   7.717   4.840
 1839TIP3   OH2 5459   2.289   0.568   6.280
 1839TIP3    H1 5460   2.205   0.558   6.325
 1839TIP3    H2 5461   2.284   0.654   6.238
 1840TIP3   OH2 5462   0.414   6.971   2.709
 1840TIP3    H1 5463   0.502   6.966   2.670
 1840TIP3    H2 5464   0.414   7.053   2.758
 1841TIP3   OH2 5465   0.945   7.454   0.799
 1841TIP3    H1 5466   0.945   7.520   0.729
 1841TIP3    H2 5467   0.893   7.382   0.764
 1842TIP3   OH2 5468   7.152   6.432   6.524
 1842TIP3    H1 5469   7.065   6.397   6.505
 1842TIP3    H2 5470   7.145   6.525   6.503
 1843TIP3   OH2 5471   5.983   0.744   3.636
 1843TIP3    H1 5472   6.046   0.809   3.668
 1843TIP3    H2 5473   5.897   0.782   3.654
 1844TIP3   OH2 5474   1.098   5.087   2.198
 1844TIP3    H1 5475   1.149   5.050   2.269
 1844TIP3    H2 5476   1.027   5.135   2.242
 1845TIP3   OH2 5477   7.427   0.417   0.102
 1845TIP3    H1 5478   7.482   0.385   0.173
 1845TIP3    H2 5479   7.489   0.439   0.031
 1846TIP3   OH2 5480   8.041   3.343   3.426
 1846TIP3    H1 5481   8.076   3.325   3.513
 1846TIP3    H2 5482   7.948   3.319   3.432
 1847TIP3   OH2 5483   7.966   1.960   3.077
 1847TIP3    H1 5484   7.993   1.878   3.119
 1847TIP3    H2 5485   8.006   2.028   3.130
 1848TIP3   OH2 5486   7.702   5.752   4.204
 1848TIP3    H1 5487   7.650   5.795   4.135
 1848TIP3    H2 5488   7.789   5.742   4.166
 1849TIP3   OH2 5489   2.638   0.586   6.748
 1849TIP3    H1 5490   2.674   0.522   6.688
 1849TIP3    H2 5491   2.710   0.647   6.765
 1850TIP3   OH2 5492   5.339   5.295   3.416
 1850TIP3    H1 5493   5.368   5.365   3.357
 1850TIP3    H2 5494   5.381   5.217   3.382
 1851TIP3   OH2 5495   0.558   6.347   5.225
 1851TIP3    H1 5496   0.614   6.279   5.188
 1851TIP3    H2 5497   0.562   6.332   5.319
 1852TIP3   OH2 5498   0.751   6.678   3.197
 1852TIP3    H1 5499   0.703   6.700   3.118
 1852TIP3    H2 5500   0.721   6.591   3.221
 1853TIP3   OH2 5501   0.926   1.966   4.241
 1853TIP3    H1 5502   0.974   1.911   4.179
 1853TIP3    H2 5503   0.961   2.055   4.226
 1854TIP3   OH2 5504   7.155   7.321   1.752
 1854TIP3    H1 5505   7.117   7.248   1.704
 1854TIP3    H2 5506   7.165   7.390   1.685
 1855TIP3   OH2 5507   6.090   1.336   6.466
 1855TIP3    H1 5508   6.054   1.390   6.536
 1855TIP3    H2 5509   6.056   1.375   6.385
 1856TIP3   OH2 5510   5.620   1.366   2.368
 1856TIP3    H1 5511   5.701   1.316   2.355
 1856TIP3    H2 5512   5.605   1.363   2.463
 1857TIP3   OH2 5513   1.807   4.987   0.078
 1857TIP3    H1 5514   1.850   4.967   0.161
 1857TIP3    H2 5515   1.729   5.036   0.102
 1858TIP3   OH2 5516   6.724   1.974   6.151
 1858TIP3    H1 5517   6.797   2.034   6.153
 1858TIP3    H2 5518   6.764   1.887   6.153
 1859TIP3   OH2 5519   1.106   3.915   3.135
 1859TIP3    H1 5520   1.104   3.820   3.147
 1859TIP3    H2 5521   1.015   3.938   3.117
 1860TIP3   OH2 5522   7.370   0.972   1.779
 1860TIP3    H1 5523   7.345   1.016   1.861
 1860TIP3    H2 5524   7.452   1.014   1.754
 1861TIP3   OH2 5525   6.175   2.925   5.507
 1861TIP3    H1 5526   6.105   2.876   5.552
 1861TIP3    H2 5527   6.214   2.979   5.575
 1862TIP3   OH2 5528   6.175   3.588   2.982
 1862TIP3    H1 5529   6.238   3.603   2.911
 1862TIP3    H2 5530   6.229   3.568   3.058
 1863TIP3   OH2 5531   0.332   4.082   2.867
 1863TIP3    H1 5532   0.240   4.056   2.858
 1863TIP3    H2 5533   0.363   4.031   2.942
 1864TIP3   OH2 5534   2.167   3.973   4.352
 1864TIP3    H1 5535   2.212   3.891   4.371
 1864TIP3    H2 5536   2.237   4.038   4.348
 1865TIP3   OH2 5537   2.635   5.145   2.015
 1865TIP3    H1 5538   2.595   5.072   1.967
 1865TIP3    H2 5539   2.581   5.155   2.093
 1866TIP3   OH2 5540   5.899   5.289   1.696
 1866TIP3    H1 5541   5.918   5.308   1.788
 1866TIP3    H2 5542   5.899   5.194   1.691
 1867TIP3   OH2 5543   4.427   7.124   6.166
 1867TIP3    H1 5544   4.381   7.199   6.203
 1867TIP3    H2 5545   4.518   7.151   6.162
 1868TIP3   OH2 5546   6.117   5.967   6.498
 1868TIP3    H1 5547   6.195   6.018   6.476
 1868TIP3    H2 5548   6.050   5.998   6.437
 1869TIP3   OH2 5549   6.175   7.782   5.949
 1869TIP3    H1 5550   6.201   7.726   5.875
 1869TIP3    H2 5551   6.103   7.734   5.991
 1870TIP3   OH2 5552   7.255   0.074   0.895
 1870TIP3    H1 5553   7.220   0.039   0.976
 1870TIP3    H2 5554   7.184   0.065   0.832
 1871TIP3   OH2 5555   0.210   4.151   1.768
 1871TIP3    H1 5556   0.176   4.094   1.836
 1871TIP3    H2 5557   0.141   4.217   1.755
 1872TIP3   OH2 5558   3.348   3.167   2.502
 1872TIP3    H1 5559   3.374   3.134   2.588
 1872TIP3    H2 5560   3.255   3.188   2.511
 1873TIP3   OH2 5561   0.530   2.227   5.112
 1873TIP3    H1 5562   0.535   2.194   5.202
 1873TIP3    H2 5563   0.540   2.321   5.121
 1874TIP3   OH2 5564   6.909   7.256   0.140
 1874TIP3    H1 5565   6.927   7.342   0.102
 1874TIP3    H2 5566   6.991   7.232   0.184
 1875TIP3   OH2 5567   0.640   4.664   3.332
 1875TIP3    H1 5568   0.564   4.634   3.282
 1875TIP3    H2 5569   0.633   4.759   3.332
 1876TIP3   OH2 5570   6.144   4.554   2.638
 1876TIP3    H1 5571   6.152   4.459   2.647
 1876TIP3    H2 5572   6.123   4.568   2.545
 1877TIP3   OH2 5573   5.564   7.171   1.589
 1877TIP3    H1 5574   5.635   7.127   1.636
 1877TIP3    H2 5575   5.557   7.124   1.506
 1878TIP3   OH2 5576   3.808   0.765   4.484
 1878TIP3    H1 5577   3.838   0.853   4.506
 1878TIP3    H2 5578   3.802   0.720   4.568
 1879TIP3   OH2 5579   7.600   5.464   0.228
 1879TIP3    H1 5580   7.562   5.442   0.144
 1879TIP3    H2 5581   7.560   5.403   0.290
 1880TIP3   OH2 5582   2.423   0.834   2.184
 1880TIP3    H1 5583   2.408   0.786   2.266
 1880TIP3    H2 5584   2.443   0.923   2.212
 1881TIP3   OH2 5585   2.728   0.624   1.528
 1881TIP3    H1 5586   2.762   0.595   1.613
 1881TIP3    H2 5587   2.751   0.717   1.524
 1882TIP3   OH2 5588   6.515   7.155   1.233
 1882TIP3    H1 5589   6.521   7.107   1.315
 1882TIP3    H2 5590   6.567   7.104   1.171
 1883TIP3   OH2 5591   7.574   4.778   2.014
 1883TIP3    H1 5592   7.537   4.694   2.041
 1883TIP3    H2 5593   7.637   4.756   1.945
 1884TIP3   OH2 5594   6.956   6.094   3.035
 1884TIP3    H1 5595   7.015   6.075   2.962
 1884TIP3    H2 5596   6.871   6.109   2.994
 1885TIP3   OH2 5597   6.634   6.150   0.328
 1885TIP3    H1 5598   6.705   6.086   0.325
 1885TIP3    H2 5599   6.565   6.108   0.380
 1886TIP3   OH2 5600   2.030   0.348   3.540
 1886TIP3    H1 5601   2.077   0.429   3.518
 1886TIP3    H2 5602   1.942   0.361   3.504
 1887TIP3   OH2 5603   1.482   0.979   2.041
 1887TIP3    H1 5604   1.421   1.022   2.100
 1887TIP3    H2 5605   1.434   0.974   1.958
 1888TIP3   OH2 5606   5.182   4.983   5.450
 1888TIP3    H1 5607   5.168   4.974   5.355
 1888TIP3    H2 5608   5.095   4.997   5.485
 1889TIP3   OH2 5609   0.199   3.301   5.670
 1889TIP3    H1 5610   0.291   3.288   5.649
 1889TIP3    H2 5611   0.152   3.256   5.600
 1890TIP3   OH2 5612   6.649   1.970   3.562
 1890TIP3    H1 5613   6.699   1.948   3.483
 1890TIP3    H2 5614   6.558   1.969   3.535
 1891TIP3   OH2 5615   1.372   6.738   1.631
 1891TIP3    H1 5616   1.283   6.704   1.632
 1891TIP3    H2 5617   1.404   6.720   1.543
 1892TIP3   OH2 5618   0.916   0.225   1.642
 1892TIP3    H1 5619   0.833   0.251   1.682
 1892TIP3    H2 5620   0.894   0.146   1.591
 1893TIP3   OH2 5621   7.580   7.480   6.014
 1893TIP3    H1 5622   7.588   7.443   5.926
 1893TIP3    H2 5623   7.667   7.470   6.052
 1894TIP3   OH2 5624   3.125   2.607   2.740
 1894TIP3    H1 5625   3.172   2.538   2.693
 1894TIP3    H2 5626   3.140   2.686   2.688
 1895TIP3   OH2 5627   8.290   2.712   6.632
 1895TIP3    H1 5628   8.347   2.686   6.560
 1895TIP3    H2 5629   8.225   2.642   6.637
 1896TIP3   OH2 5630   6.275   6.365   3.018
 1896TIP3    H1 5631   6.283   6.337   2.926
 1896TIP3    H2 5632   6.189   6.407   3.022
 1897TIP3   OH2 5633   3.775   4.860   3.880
 1897TIP3    H1 5634   3.783   4.769   3.853
 1897TIP3    H2 5635   3.721   4.900   3.812
 1898TIP3   OH2 5636   5.020   2.847   0.645
 1898TIP3    H1 5637   5.054   2.795   0.571
 1898TIP3    H2 5638   5.054   2.802   0.722
 1899TIP3   OH2 5639   4.593   2.227   1.510
 1899TIP3    H1 5640   4.662   2.161   1.500
 1899TIP3    H2 5641   4.636   2.299   1.556
 1900TIP3   OH2 5642   5.851   5.838   5.792
 1900TIP3    H1 5643   5.837   5.858   5.699
 1900TIP3    H2 5644   5.946   5.837   5.802
 1901TIP3   OH2 5645   2.854   4.651   0.340
 1901TIP3    H1 5646   2.784   4.705   0.376
 1901TIP3    H2 5647   2.826   4.561   0.357
 1902TIP3   OH2 5648   5.241   0.068   2.902
 1902TIP3    H1 5649   5.204  -0.018   2.919
 1902TIP3    H2 5650   5.179   0.129   2.940
 1903TIP3   OH2 5651   8.169   4.912   3.211
 1903TIP3    H1 5652   8.082   4.880   3.184
 1903TIP3    H2 5653   8.230   4.847   3.177
 1904TIP3   OH2 5654   5.567   5.693   5.544
 1904TIP3    H1 5655   5.494   5.750   5.521
 1904TIP3    H2 5656   5.638   5.719   5.485
 1905TIP3   OH2 5657   2.727   3.168   3.979
 1905TIP3    H1 5658   2.753   3.120   3.900
 1905TIP3    H2 5659   2.652   3.221   3.950
 1906TIP3   OH2 5660   2.975   3.321   5.954
 1906TIP3    H1 5661   2.963   3.268   5.875
 1906TIP3    H2 5662   3.070   3.327   5.964
 1907TIP3   OH2 5663   6.964   3.669   1.483
 1907TIP3    H1 5664   7.039   3.686   1.539
 1907TIP3    H2 5665   6.946   3.752   1.440
 1908TIP3   OH2 5666   0.970   6.102   1.208
 1908TIP3    H1 5667   0.916   6.161   1.156
 1908TIP3    H2 5668   1.014   6.046   1.144
 1909TIP3   OH2 5669   4.646   7.609   1.200
 1909TIP3    H1 5670   4.589   7.685   1.214
 1909TIP3    H2 5671   4.703   7.608   1.277
 1910TIP3   OH2 5672   4.481   0.682   6.048
 1910TIP3    H1 5673   4.538   0.606   6.056
 1910TIP3    H2 5674   4.539   0.753   6.020
 1911TIP3   OH2 5675   6.213   1.592   6.056
 1911TIP3    H1 5676   6.146   1.524   6.054
 1911TIP3    H2 5677   6.296   1.545   6.042
 1912TIP3   OH2 5678   0.884   5.654   3.391
 1912TIP3    H1 5679   0.955   5.718   3.403
 1912TIP3    H2 5680   0.845   5.678   3.307
 1913TIP3   OH2 5681   2.494   4.892   1.969
 1913TIP3    H1 5682   2.534   4.826   2.024
 1913TIP3    H2 5683   2.484   4.849   1.884
 1914TIP3   OH2 5684   2.862   2.254   5.561
 1914TIP3    H1 5685   2.891   2.213   5.642
 1914TIP3    H2 5686   2.767   2.265   5.573
 1915TIP3   OH2 5687   6.586   2.139   1.745
 1915TIP3    H1 5688   6.542   2.057   1.722
 1915TIP3    H2 5689   6.664   2.141   1.689
 1916TIP3   OH2 5690   6.098   3.966   2.743
 1916TIP3    H1 5691   6.072   4.034   2.805
 1916TIP3    H2 5692   6.015   3.930   2.711
 1917TIP3   OH2 5693   7.922   2.851   0.527
 1917TIP3    H1 5694   7.971   2.820   0.451
 1917TIP3    H2 5695   7.957   2.799   0.600
 1918TIP3   OH2 5696   7.801   5.739   0.125
 1918TIP3    H1 5697   7.869   5.776   0.182
 1918TIP3    H2 5698   7.719   5.757   0.171
 1919TIP3   OH2 5699   7.469   2.117   5.252
 1919TIP3    H1 5700   7.499   2.205   5.229
 1919TIP3    H2 5701   7.543   2.079   5.300
 1920TIP3   OH2 5702   3.658   3.096   5.485
 1920TIP3    H1 5703   3.649   3.164   5.551
 1920TIP3    H2 5704   3.720   3.133   5.422
 1921TIP3   OH2 5705   0.204   6.708   2.260
 1921TIP3    H1 5706   0.122   6.661   2.271
 1921TIP3    H2 5707   0.179   6.796   2.232
 1922TIP3   OH2 5708   2.102   0.073   0.145
 1922TIP3    H1 5709   2.076   0.161   0.173
 1922TIP3    H2 5710   2.028   0.041   0.094
 1923TIP3   OH2 5711   4.087   0.880   0.441
 1923TIP3    H1 5712   4.132   0.960   0.467
 1923TIP3    H2 5713   4.153   0.811   0.448
 1924TIP3   OH2 5714   5.089   5.860   1.010
 1924TIP3    H1 5715   5.023   5.825   0.950
 1924TIP3    H2 5716   5.144   5.917   0.955
 1925TIP3   OH2 5717   1.584   1.344   4.251
 1925TIP3    H1 5718   1.495   1.308   4.251
 1925TIP3    H2 5719   1.638   1.275   4.214
 1926TIP3   OH2 5720   2.297   1.265   6.496
 1926TIP3    H1 5721   2.217   1.287   6.542
 1926TIP3    H2 5722   2.358   1.236   6.564
 1927TIP3   OH2 5723   1.194   5.468   6.219
 1927TIP3    H1 5724   1.266   5.482   6.158
 1927TIP3    H2 5725   1.125   5.427   6.167
 1928TIP3   OH2 5726   7.585   4.947   0.144
 1928TIP3    H1 5727   7.572   4.994   0.227
 1928TIP3    H2 5728   7.622   4.863   0.170
 1929TIP3   OH2 5729   2.821   7.420   1.907
 1929TIP3    H1 5730   2.826   7.416   2.002
 1929TIP3    H2 5731   2.862   7.504   1.884
 1930TIP3   OH2 5732   1.329   7.399   6.584
 1930TIP3    H1 5733   1.418   7.429   6.600
 1930TIP3    H2 5734   1.336   7.340   6.508
 1931TIP3   OH2 5735   2.066   0.501   0.911
 1931TIP3    H1 5736   1.996   0.547   0.865
 1931TIP3    H2 5737   2.055   0.526   1.002
 1932TIP3   OH2 5738   1.257   5.488   3.773
 1932TIP3    H1 5739   1.259   5.508   3.679
 1932TIP3    H2 5740   1.348   5.496   3.801
 1933TIP3   OH2 5741   2.135   5.581   3.168
 1933TIP3    H1 5742   2.198   5.602   3.099
 1933TIP3    H2 5743   2.161   5.635   3.242
 1934TIP3   OH2 5744   7.167   7.183   0.237
 1934TIP3    H1 5745   7.176   7.099   0.192
 1934TIP3    H2 5746   7.251   7.195   0.282
 1935TIP3   OH2 5747   3.738   4.848   2.807
 1935TIP3    H1 5748   3.808   4.834   2.870
 1935TIP3    H2 5749   3.663   4.877   2.859
 1936TIP3   OH2 5750   7.783   6.515   6.437
 1936TIP3    H1 5751   7.789   6.566   6.517
 1936TIP3    H2 5752   7.874   6.489   6.418
 1937TIP3   OH2 5753   6.819   3.742   2.567
 1937TIP3    H1 5754   6.753   3.807   2.590
 1937TIP3    H2 5755   6.827   3.748   2.472
 1938TIP3   OH2 5756   6.533   4.416   3.052
 1938TIP3    H1 5757   6.544   4.400   3.146
 1938TIP3    H2 5758   6.560   4.334   3.011
 1939TIP3   OH2 5759   1.847   6.075   6.234
 1939TIP3    H1 5760   1.830   6.055   6.326
 1939TIP3    H2 5761   1.767   6.116   6.203
 1940TIP3   OH2 5762   0.027   4.728   3.642
 1940TIP3    H1 5763  -0.006   4.661   3.702
 1940TIP3    H2 5764  -0.016   4.809   3.670
 1941TIP3   OH2 5765   0.010   5.677   6.116
 1941TIP3    H1 5766   0.019   5.772   6.124
 1941TIP3    H2 5767   0.100   5.645   6.113
 1942TIP3   OH2 5768   2.956   6.205   1.411
 1942TIP3    H1 5769   2.934   6.147   1.338
 1942TIP3    H2 5770   2.950   6.293   1.375
 1943TIP3   OH2 5771   6.358   1.185   0.902
 1943TIP3    H1 5772   6.338   1.262   0.956
 1943TIP3    H2 5773   6.390   1.221   0.820
 1944TIP3   OH2 5774   1.798   1.809   2.168
 1944TIP3    H1 5775   1.715   1.776   2.204
 1944TIP3    H2 5776   1.865   1.750   2.203
 1945TIP3   OH2 5777   0.225   0.886   4.323
 1945TIP3    H1 5778   0.219   0.981   4.317
 1945TIP3    H2 5779   0.315   0.866   4.296
 1946TIP3   OH2 5780   5.294   0.186   5.217
 1946TIP3    H1 5781   5.290   0.159   5.125
 1946TIP3    H2 5782   5.240   0.123   5.263
 1947TIP3   OH2 5783   1.244   3.231   6.717
 1947TIP3    H1 5784   1.235   3.232   6.812
 1947TIP3    H2 5785   1.319   3.287   6.699
 1948TIP3   OH2 5786   3.749   7.601   3.708
 1948TIP3    H1 5787   3.836   7.639   3.700
 1948TIP3    H2 5788   3.702   7.632   3.631
 1949TIP3   OH2 5789   7.855   0.522   1.593
 1949TIP3    H1 5790   7.799   0.535   1.669
 1949TIP3    H2 5791   7.918   0.456   1.622
 1950TIP3   OH2 5792   0.025   1.950   3.357
 1950TIP3    H1 5793   0.075   2.006   3.416
 1950TIP3    H2 5794   0.071   1.866   3.360
 1951TIP3   OH2 5795   0.124   3.861   1.545
 1951TIP3    H1 5796   0.089   3.931   1.489
 1951TIP3    H2 5797   0.097   3.885   1.633
 1952TIP3   OH2 5798   6.922   0.436   4.257
 1952TIP3    H1 5799   6.922   0.342   4.273
 1952TIP3    H2 5800   6.977   0.447   4.180
 1953TIP3   OH2 5801   4.435   3.870   6.211
 1953TIP3    H1 5802   4.469   3.781   6.206
 1953TIP3    H2 5803   4.377   3.870   6.287
 1954TIP3   OH2 5804   1.644   3.385   2.786
 1954TIP3    H1 5805   1.674   3.463   2.832
 1954TIP3    H2 5806   1.610   3.418   2.702
 1955TIP3   OH2 5807   6.612   4.428   6.530
 1955TIP3    H1 5808   6.571   4.375   6.462
 1955TIP3    H2 5809   6.705   4.406   6.524
 1956TIP3   OH2 5810   0.040   3.056   4.996
 1956TIP3    H1 5811  -0.016   3.072   4.920
 1956TIP3    H2 5812   0.008   3.118   5.062
 1957TIP3   OH2 5813   0.499   5.563   6.417
 1957TIP3    H1 5814   0.484   5.492   6.354
 1957TIP3    H2 5815   0.454   5.638   6.379
 1958TIP3   OH2 5816   7.493   7.312   3.735
 1958TIP3    H1 5817   7.407   7.352   3.740
 1958TIP3    H2 5818   7.553   7.385   3.721
 1959TIP3   OH2 5819   4.752   5.801   2.763
 1959TIP3    H1 5820   4.833   5.786   2.812
 1959TIP3    H2 5821   4.747   5.727   2.703
 1960TIP3   OH2 5822   6.806   0.942   5.305
 1960TIP3    H1 5823   6.771   1.028   5.285
 1960TIP3    H2 5824   6.892   0.940   5.262
 1961TIP3   OH2 5825   5.921   2.883   1.706
 1961TIP3    H1 5826   5.899   2.846   1.791
 1961TIP3    H2 5827   5.915   2.809   1.645
 1962TIP3   OH2 5828   7.191   0.136   2.813
 1962TIP3    H1 5829   7.127   0.072   2.845
 1962TIP3    H2 5830   7.190   0.206   2.879
 1963TIP3   OH2 5831   1.228   6.434   2.134
 1963TIP3    H1 5832   1.168   6.387   2.076
 1963TIP3    H2 5833   1.305   6.377   2.141
 1964TIP3   OH2 5834   4.891   0.371   4.966
 1964TIP3    H1 5835   4.948   0.298   4.990
 1964TIP3    H2 5836   4.808   0.351   5.009
 1965TIP3   OH2 5837   0.218   4.674   3.409
 1965TIP3    H1 5838   0.243   4.594   3.456
 1965TIP3    H2 5839   0.163   4.722   3.471
 1966TIP3   OH2 5840   4.387   1.545   1.071
 1966TIP3    H1 5841   4.343   1.566   0.989
 1966TIP3    H2 5842   4.425   1.458   1.058
 1967TIP3   OH2 5843   6.265   2.035   5.520
 1967TIP3    H1 5844   6.257   1.959   5.577
 1967TIP3    H2 5845   6.357   2.061   5.526
 1968TIP3   OH2 5846   8.253   3.309   1.646
 1968TIP3    H1 5847   8.328   3.297   1.588
 1968TIP3    H2 5848   8.178   3.286   1.592
 1969TIP3   OH2 5849   4.819   1.488   6.285
 1969TIP3    H1 5850   4.797   1.490   6.378
 1969TIP3    H2 5851   4.884   1.558   6.274
 1970TIP3   OH2 5852   0.855   2.847   3.765
 1970TIP3    H1 5853   0.872   2.806   3.681
 1970TIP3    H2 5854   0.779   2.801   3.800
 1971TIP3   OH2 5855   1.133   2.454   2.940
 1971TIP3    H1 5856   1.078   2.403   2.881
 1971TIP3    H2 5857   1.111   2.545   2.921
 1972TIP3   OH2 5858   5.493   0.500   6.658
 1972TIP3    H1 5859   5.528   0.436   6.597
 1972TIP3    H2 5860   5.456   0.448   6.730
 1973TIP3   OH2 5861   0.741   3.514   4.184
 1973TIP3    H1 5862   0.745   3.419   4.178
 1973TIP3    H2 5863   0.698   3.531   4.268
 1974TIP3   OH2 5864   1.105   4.185   4.210
 1974TIP3    H1 5865   1.185   4.180   4.158
 1974TIP3    H2 5866   1.110   4.109   4.268
 1975TIP3   OH2 5867   5.583   5.968   0.992
 1975TIP3    H1 5868   5.628   6.011   0.920
 1975TIP3    H2 5869   5.572   6.035   1.058
 1976TIP3   OH2 5870   4.306   1.573   3.152
 1976TIP3    H1 5871   4.332   1.657   3.115
 1976TIP3    H2 5872   4.212   1.579   3.162
 1977TIP3   OH2 5873   6.224   4.400   5.368
 1977TIP3    H1 5874   6.265   4.484   5.390
 1977TIP3    H2 5875   6.285   4.359   5.306
 1978TIP3   OH2 5876   1.699   5.817   5.045
 1978TIP3    H1 5877   1.626   5.756   5.044
 1978TIP3    H2 5878   1.773   5.766   5.079
 1979TIP3   OH2 5879   1.138   2.252   1.627
 1979TIP3    H1 5880   1.121   2.243   1.533
 1979TIP3    H2 5881   1.220   2.205   1.641
 1980TIP3   OH2 5882   2.761   0.494   1.868
 1980TIP3    H1 5883   2.847   0.492   1.825
 1980TIP3    H2 5884   2.732   0.403   1.866
 1981TIP3   OH2 5885   1.754   0.679   5.220
 1981TIP3    H1 5886   1.778   0.632   5.300
 1981TIP3    H2 5887   1.818   0.749   5.213
 1982TIP3   OH2 5888  -0.020   1.396   4.003
 1982TIP3    H1 5889   0.065   1.415   3.964
 1982TIP3    H2 5890  -0.032   1.463   4.070
 1983TIP3   OH2 5891   3.152   5.578   5.361
 1983TIP3    H1 5892   3.184   5.664   5.390
 1983TIP3    H2 5893   3.083   5.556   5.424
 1984TIP3   OH2 5894   6.066   1.895   3.533
 1984TIP3    H1 5895   6.147   1.855   3.565
 1984TIP3    H2 5896   6.037   1.951   3.604
 1985TIP3   OH2 5897   4.376   4.973   2.389
 1985TIP3    H1 5898   4.411   4.972   2.300
 1985TIP3    H2 5899   4.407   5.056   2.426
 1986TIP3   OH2 5900   4.130   0.086   6.466
 1986TIP3    H1 5901   4.106   0.047   6.551
 1986TIP3    H2 5902   4.208   0.038   6.439
 1987TIP3   OH2 5903   7.721   0.016   4.621
 1987TIP3    H1 5904   7.716   0.111   4.631
 1987TIP3    H2 5905   7.801  -0.009   4.667
 1988TIP3   OH2 5906   3.537   4.872   2.998
 1988TIP3    H1 5907   3.475   4.941   2.976
 1988TIP3    H2 5908   3.585   4.906   3.074
 1989TIP3   OH2 5909   1.352   4.095   2.060
 1989TIP3    H1 5910   1.280   4.145   2.021
 1989TIP3    H2 5911   1.341   4.106   2.154
 1990TIP3   OH2 5912   1.256   5.904   3.572
 1990TIP3    H1 5913   1.225   5.909   3.481
 1990TIP3    H2 5914   1.200   5.837   3.612
 1991TIP3   OH2 5915   3.768   3.970   6.219
 1991TIP3    H1 5916   3.794   4.046   6.271
 1991TIP3    H2 5917   3.796   3.991   6.130
 1992TIP3   OH2 5918   3.877   3.741   3.079
 1992TIP3    H1 5919   3.915   3.801   3.015
 1992TIP3    H2 5920   3.808   3.695   3.032
 1993TIP3   OH2 5921   6.756   3.211   4.662
 1993TIP3    H1 5922   6.739   3.268   4.737
 1993TIP3    H2 5923   6.704   3.133   4.679
 1994TIP3   OH2 5924   6.007   1.423   6.035
 1994TIP3    H1 5925   6.045   1.451   5.952
 1994TIP3    H2 5926   5.957   1.499   6.065
 1995TIP3   OH2 5927   6.208   2.343   0.928
 1995TIP3    H1 5928   6.212   2.423   0.980
 1995TIP3    H2 5929   6.217   2.373   0.838
 1996TIP3   OH2 5930   6.605   6.634   0.591
 1996TIP3    H1 5931   6.699   6.630   0.575
 1996TIP3    H2 5932   6.566   6.638   0.504
 1997TIP3   OH2 5933   8.071   1.769   1.170
 1997TIP3    H1 5934   8.103   1.857   1.149
 1997TIP3    H2 5935   7.976   1.776   1.164
 1998TIP3   OH2 5936   3.617   7.772   6.038
 1998TIP3    H1 5937   3.562   7.762   6.116
 1998TIP3    H2 5938   3.706   7.757   6.070
 1999TIP3   OH2 5939   0.379   3.507   0.412
 1999TIP3    H1 5940   0.454   3.462   0.373
 1999TIP3    H2 5941   0.338   3.441   0.469
 2000TIP3   OH2 5942   3.201   3.085   5.509
 2000TIP3    H1 5943   3.250   3.156   5.467
 2000TIP3    H2 5944   3.141   3.130   5.568
 2001TIP3   OH2 5945   3.079   2.044   2.318
 2001TIP3    H1 5946   3.095   1.960   2.275
 2001TIP3    H2 5947   3.102   2.110   2.253
 2002TIP3   OH2 5948   1.203   7.658   1.544
 2002TIP3    H1 5949   1.221   7.588   1.481
 2002TIP3    H2 5950   1.121   7.632   1.587
 2003TIP3   OH2 5951   3.665   3.776   0.948
 2003TIP3    H1 5952   3.658   3.694   0.998
 2003TIP3    H2 5953   3.715   3.834   1.006
 2004TIP3   OH2 5954   0.994   2.636   2.615
 2004TIP3    H1 5955   0.970   2.722   2.649
 2004TIP3    H2 5956   1.086   2.645   2.589
 2005TIP3   OH2 5957   4.532   1.380   5.602
 2005TIP3    H1 5958   4.476   1.385   5.524
 2005TIP3    H2 5959   4.516   1.461   5.649
 2006TIP3   OH2 5960   3.177   0.011   1.540
 2006TIP3    H1 5961   3.206   0.076   1.476
 2006TIP3    H2 5962   3.153  -0.066   1.489
 2007TIP3   OH2 5963   4.514   5.154   6.597
 2007TIP3    H1 5964   4.475   5.145   6.510
 2007TIP3    H2 5965   4.448   5.201   6.648
 2008TIP3   OH2 5966   1.785   1.732   1.330
 2008TIP3    H1 5967   1.727   1.656   1.336
 2008TIP3    H2 5968   1.869   1.696   1.300
 2009TIP3   OH2 5969   6.047   2.775   1.379
 2009TIP3    H1 5970   6.024   2.745   1.467
 2009TIP3    H2 5971   6.080   2.696   1.336
 2010TIP3   OH2 5972   7.237   7.080   6.577
 2010TIP3    H1 5973   7.328   7.050   6.570
 2010TIP3    H2 5974   7.191   7.010   6.623
 2011TIP3   OH2 5975   4.366   1.251   1.099
 2011TIP3    H1 5976   4.450   1.257   1.145
 2011TIP3    H2 5977   4.362   1.160   1.069
 2012TIP3   OH2 5978   3.762   6.320   6.189
 2012TIP3    H1 5979   3.812   6.399   6.211
 2012TIP3    H2 5980   3.754   6.321   6.094
 2013TIP3   OH2 5981   0.725   6.343   4.912
 2013TIP3    H1 5982   0.805   6.310   4.871
 2013TIP3    H2 5983   0.720   6.297   4.996
 2014TIP3   OH2 5984   6.636   0.554   2.102
 2014TIP3    H1 5985   6.704   0.495   2.071
 2014TIP3    H2 5986   6.568   0.496   2.138
 2015TIP3   OH2 5987   4.121   2.225   2.703
 2015TIP3    H1 5988   4.146   2.170   2.629
 2015TIP3    H2 5989   4.026   2.221   2.705
 2016TIP3   OH2 5990   1.547   4.446   3.827
 2016TIP3    H1 5991   1.542   4.428   3.921
 2016TIP3    H2 5992   1.640   4.446   3.808
 2017TIP3   OH2 5993   1.736   4.901   5.504
 2017TIP3    H1 5994   1.738   4.984   5.457
 2017TIP3    H2 5995   1.820   4.898   5.551
 2018TIP3   OH2 5996   0.616   5.442   1.850
 2018TIP3    H1 5997   0.616   5.459   1.755
 2018TIP3    H2 5998   0.649   5.523   1.889
 2019TIP3   OH2 5999   4.018   7.592   5.678
 2019TIP3    H1 6000   3.940   7.574   5.731
 2019TIP3    H2 6001   3.989   7.578   5.587
 2020TIP3   OH2 6002   4.761   7.497   1.433
 2020TIP3    H1 6003   4.770   7.402   1.425
 2020TIP3    H2 6004   4.839   7.532   1.391
 2021TIP3   OH2 6005   7.608   5.764   2.217
 2021TIP3    H1 6006   7.554   5.689   2.241
 2021TIP3    H2 6007   7.690   5.752   2.266
 2022TIP3   OH2 6008   4.049   2.312   1.595
 2022TIP3    H1 6009   4.007   2.236   1.634
 2022TIP3    H2 6010   4.133   2.280   1.563
 2023TIP3   OH2 6011   7.280   5.912   6.778
 2023TIP3    H1 6012   7.362   5.888   6.734
 2023TIP3    H2 6013   7.223   5.837   6.764
 2024TIP3   OH2 6014   4.241   3.371   2.531
 2024TIP3    H1 6015   4.148   3.388   2.515
 2024TIP3    H2 6016   4.263   3.303   2.468
 2025TIP3   OH2 6017   7.177   0.262   3.323
 2025TIP3    H1 6018   7.225   0.216   3.392
 2025TIP3    H2 6019   7.245   0.298   3.267
 2026TIP3   OH2 6020   0.547   4.060   3.490
 2026TIP3    H1 6021   0.581   4.145   3.464
 2026TIP3    H2 6022   0.591   3.998   3.432
 2027TIP3   OH2 6023   0.090   0.485   1.277
 2027TIP3    H1 6024   0.103   0.579   1.286
 2027TIP3    H2 6025   0.115   0.449   1.362
 2028TIP3   OH2 6026   0.200   5.406   4.277
 2028TIP3    H1 6027   0.288   5.403   4.240
 2028TIP3    H2 6028   0.149   5.456   4.213
 2029TIP3   OH2 6029   2.778   0.733   6.297
 2029TIP3    H1 6030   2.791   0.639   6.313
 2029TIP3    H2 6031   2.863   0.772   6.314
 2030TIP3   OH2 6032   6.987   2.374   0.480
 2030TIP3    H1 6033   6.919   2.346   0.541
 2030TIP3    H2 6034   7.010   2.294   0.432
 2031TIP3   OH2 6035   7.472   2.405   3.488
 2031TIP3    H1 6036   7.479   2.485   3.437
 2031TIP3    H2 6037   7.471   2.335   3.423
 2032TIP3   OH2 6038   3.588   0.783   5.301
 2032TIP3    H1 6039   3.616   0.858   5.354
 2032TIP3    H2 6040   3.620   0.803   5.213
 2033TIP3   OH2 6041   4.000   4.785   0.197
 2033TIP3    H1 6042   3.960   4.759   0.114
 2033TIP3    H2 6043   3.925   4.808   0.252
 2034TIP3   OH2 6044   1.236   3.062   3.153
 2034TIP3    H1 6045   1.222   3.081   3.246
 2034TIP3    H2 6046   1.326   3.029   3.149
 2035TIP3   OH2 6047   1.490   6.399   4.631
 2035TIP3    H1 6048   1.443   6.327   4.673
 2035TIP3    H2 6049   1.547   6.434   4.699
 2036TIP3   OH2 6050   5.886   0.720   3.149
 2036TIP3    H1 6051   5.948   0.680   3.210
 2036TIP3    H2 6052   5.801   0.684   3.173
 2037TIP3   OH2 6053   8.173   6.704   4.795
 2037TIP3    H1 6054   8.175   6.610   4.777
 2037TIP3    H2 6055   8.175   6.710   4.890
 2038TIP3   OH2 6056   3.432   4.830   5.950
 2038TIP3    H1 6057   3.349   4.878   5.943
 2038TIP3    H2 6058   3.407   4.738   5.946
 2039TIP3   OH2 6059   0.128   3.485   6.734
 2039TIP3    H1 6060   0.071   3.535   6.792
 2039TIP3    H2 6061   0.077   3.475   6.654
 2040TIP3   OH2 6062   4.691   3.407   0.838
 2040TIP3    H1 6063   4.704   3.460   0.917
 2040TIP3    H2 6064   4.612   3.357   0.856
 2041TIP3   OH2 6065   3.470   3.641   5.713
 2041TIP3    H1 6066   3.459   3.667   5.622
 2041TIP3    H2 6067   3.464   3.723   5.762
 2042TIP3   OH2 6068   8.088   2.128   1.296
 2042TIP3    H1 6069   8.090   2.187   1.372
 2042TIP3    H2 6070   8.041   2.177   1.228
 2043TIP3   OH2 6071   3.846   6.352   5.605
 2043TIP3    H1 6072   3.911   6.398   5.659
 2043TIP3    H2 6073   3.864   6.381   5.516
 2044TIP3   OH2 6074   3.672   6.629   0.254
 2044TIP3    H1 6075   3.745   6.690   0.245
 2044TIP3    H2 6076   3.629   6.656   0.335
 2045TIP3   OH2 6077   7.766   3.602   3.825
 2045TIP3    H1 6078   7.720   3.562   3.899
 2045TIP3    H2 6079   7.856   3.610   3.855
 2046TIP3   OH2 6080   4.660   0.746   5.421
 2046TIP3    H1 6081   4.741   0.770   5.465
 2046TIP3    H2 6082   4.618   0.683   5.480
 2047TIP3   OH2 6083   0.360   6.554   1.234
 2047TIP3    H1 6084   0.380   6.476   1.181
 2047TIP3    H2 6085   0.278   6.532   1.278
 2048TIP3   OH2 6086   4.571   7.072   3.143
 2048TIP3    H1 6087   4.543   7.084   3.234
 2048TIP3    H2 6088   4.665   7.058   3.148
 2049TIP3   OH2 6089   1.516   4.896   3.200
 2049TIP3    H1 6090   1.597   4.862   3.162
 2049TIP3    H2 6091   1.545   4.961   3.264
 2050TIP3   OH2 6092   5.687   1.600   2.669
 2050TIP3    H1 6093   5.633   1.598   2.748
 2050TIP3    H2 6094   5.717   1.510   2.658
 2051TIP3   OH2 6095   3.108   0.305   4.440
 2051TIP3    H1 6096   3.199   0.324   4.461
 2051TIP3    H2 6097   3.108   0.288   4.346
 2052TIP3   OH2 6098   0.104   6.251   3.584
 2052TIP3    H1 6099   0.146   6.331   3.614
 2052TIP3    H2 6100   0.176   6.195   3.556
 2053TIP3   OH2 6101   4.538   5.246   0.077
 2053TIP3    H1 6102   4.511   5.159   0.048
 2053TIP3    H2 6103   4.580   5.231   0.162
 2054TIP3   OH2 6104   2.630   4.852   0.277
 2054TIP3    H1 6105   2.689   4.839   0.202
 2054TIP3    H2 6106   2.566   4.781   0.269
 2055TIP3   OH2 6107   5.075   7.368   0.623
 2055TIP3    H1 6108   5.010   7.325   0.568
 2055TIP3    H2 6109   5.059   7.334   0.711
 2056TIP3   OH2 6110   0.012   2.200   4.793
 2056TIP3    H1 6111   0.078   2.255   4.752
 2056TIP3    H2 6112  -0.062   2.258   4.809
 2057TIP3   OH2 6113   8.252   3.548   3.921
 2057TIP3    H1 6114   8.172   3.585   3.960
 2057TIP3    H2 6115   8.220   3.477   3.865
 2058TIP3   OH2 6116   6.851   4.262   6.234
 2058TIP3    H1 6117   6.810   4.274   6.148
 2058TIP3    H2 6118   6.930   4.212   6.216
 2059TIP3   OH2 6119   0.871   6.825   4.835
 2059TIP3    H1 6120   0.824   6.742   4.831
 2059TIP3    H2 6121   0.806   6.888   4.868
 2060TIP3   OH2 6122   5.634   6.085   2.263
 2060TIP3    H1 6123   5.623   6.113   2.355
 2060TIP3    H2 6124   5.563   6.129   2.217
 2061TIP3   OH2 6125   3.426   4.268   4.166
 2061TIP3    H1 6126   3.417   4.311   4.251
 2061TIP3    H2 6127   3.349   4.211   4.159
 2062TIP3   OH2 6128   6.253   4.769   0.843
 2062TIP3    H1 6129   6.269   4.749   0.935
 2062TIP3    H2 6130   6.330   4.734   0.797
 2063TIP3   OH2 6131   7.064   0.683   6.574
 2063TIP3    H1 6132   7.072   0.705   6.481
 2063TIP3    H2 6133   6.970   0.665   6.585
 2064TIP3   OH2 6134   4.827   3.384   3.303
 2064TIP3    H1 6135   4.750   3.393   3.359
 2064TIP3    H2 6136   4.821   3.295   3.268
 2065TIP3   OH2 6137   0.449   4.723   4.516
 2065TIP3    H1 6138   0.439   4.776   4.437
 2065TIP3    H2 6139   0.481   4.784   4.582
 2066TIP3   OH2 6140   0.606   2.962   3.633
 2066TIP3    H1 6141   0.543   3.027   3.664
 2066TIP3    H2 6142   0.684   3.013   3.610
 2067TIP3   OH2 6143   4.595   1.243   6.293
 2067TIP3    H1 6144   4.618   1.286   6.211
 2067TIP3    H2 6145   4.601   1.313   6.358
 2068TIP3   OH2 6146   4.857   2.019   2.317
 2068TIP3    H1 6147   4.917   1.960   2.362
 2068TIP3    H2 6148   4.848   1.983   2.229
 2069TIP3   OH2 6149   2.459   5.508   1.539
 2069TIP3    H1 6150   2.549   5.487   1.565
 2069TIP3    H2 6151   2.454   5.604   1.545
 2070TIP3   OH2 6152   3.231   6.793   0.985
 2070TIP3    H1 6153   3.162   6.744   0.941
 2070TIP3    H2 6154   3.186   6.840   1.055
 2071TIP3   OH2 6155   4.502   2.028   2.384
 2071TIP3    H1 6156   4.583   2.045   2.431
 2071TIP3    H2 6157   4.511   2.076   2.302
 2072TIP3   OH2 6158   0.657   3.698   5.811
 2072TIP3    H1 6159   0.723   3.735   5.752
 2072TIP3    H2 6160   0.618   3.775   5.853
 2073TIP3   OH2 6161   4.079   5.015   2.122
 2073TIP3    H1 6162   4.071   5.104   2.089
 2073TIP3    H2 6163   4.053   5.022   2.214
 2074TIP3   OH2 6164   8.022   2.689   1.621
 2074TIP3    H1 6165   8.097   2.642   1.583
 2074TIP3    H2 6166   8.000   2.755   1.555
 2075TIP3   OH2 6167   0.866   7.248   2.441
 2075TIP3    H1 6168   0.799   7.195   2.398
 2075TIP3    H2 6169   0.941   7.245   2.381
 2076TIP3   OH2 6170   2.523   2.670   0.722
 2076TIP3    H1 6171   2.595   2.607   0.725
 2076TIP3    H2 6172   2.547   2.729   0.650
 2077TIP3   OH2 6173   0.892   1.286   4.827
 2077TIP3    H1 6174   0.838   1.355   4.788
 2077TIP3    H2 6175   0.833   1.212   4.837
 2078TIP3   OH2 6176   5.333   0.694   5.115
 2078TIP3    H1 6177   5.418   0.702   5.072
 2078TIP3    H2 6178   5.353   0.693   5.208
 2079TIP3   OH2 6179   4.141   6.892   2.461
 2079TIP3    H1 6180   4.202   6.922   2.394
 2079TIP3    H2 6181   4.196   6.845   2.524
 2080TIP3   OH2 6182   0.026   6.933   0.012
 2080TIP3    H1 6183   0.071   6.893  -0.063
 2080TIP3    H2 6184   0.023   6.863   0.077
 2081TIP3   OH2 6185   2.830   6.633   4.064
 2081TIP3    H1 6186   2.830   6.586   4.147
 2081TIP3    H2 6187   2.881   6.712   4.080
 2082TIP3   OH2 6188   5.615   0.180   6.145
 2082TIP3    H1 6189   5.568   0.185   6.062
 2082TIP3    H2 6190   5.703   0.211   6.125
 2083TIP3   OH2 6191   6.798   3.170   2.034
 2083TIP3    H1 6192   6.884   3.150   2.073
 2083TIP3    H2 6193   6.817   3.238   1.969
 2084TIP3   OH2 6194   6.920   5.155   2.721
 2084TIP3    H1 6195   6.995   5.177   2.776
 2084TIP3    H2 6196   6.883   5.077   2.762
 2085TIP3   OH2 6197   6.074   3.429   5.987
 2085TIP3    H1 6198   6.026   3.424   5.905
 2085TIP3    H2 6199   6.073   3.523   6.010
 2086TIP3   OH2 6200   2.029   2.584   6.206
 2086TIP3    H1 6201   2.094   2.586   6.276
 2086TIP3    H2 6202   1.945   2.589   6.251
 2087TIP3   OH2 6203   2.396   5.035   5.878
 2087TIP3    H1 6204   2.389   4.948   5.837
 2087TIP3    H2 6205   2.362   5.095   5.812
 2088TIP3   OH2 6206   6.663   2.731   6.179
 2088TIP3    H1 6207   6.569   2.714   6.192
 2088TIP3    H2 6208   6.687   2.789   6.251
 2089TIP3   OH2 6209   5.612   6.561   5.327
 2089TIP3    H1 6210   5.608   6.606   5.243
 2089TIP3    H2 6211   5.632   6.470   5.305
 2090TIP3   OH2 6212   1.210   2.911   6.250
 2090TIP3    H1 6213   1.247   2.998   6.265
 2090TIP3    H2 6214   1.115   2.926   6.251
 2091TIP3   OH2 6215   6.241   1.807   5.679
 2091TIP3    H1 6216   6.167   1.832   5.735
 2091TIP3    H2 6217   6.315   1.800   5.739
 2092TIP3   OH2 6218   6.507   3.764   2.429
 2092TIP3    H1 6219   6.559   3.686   2.446
 2092TIP3    H2 6220   6.446   3.769   2.502
 2093TIP3   OH2 6221   4.544   5.097   1.666
 2093TIP3    H1 6222   4.480   5.079   1.735
 2093TIP3    H2 6223   4.495   5.085   1.585
 2094TIP3   OH2 6224   2.022   7.245   3.000
 2094TIP3    H1 6225   1.989   7.335   2.995
 2094TIP3    H2 6226   1.957   7.199   3.054
 2095TIP3   OH2 6227   3.693   7.604   6.719
 2095TIP3    H1 6228   3.635   7.545   6.768
 2095TIP3    H2 6229   3.720   7.554   6.642
 2096TIP3   OH2 6230   5.207   0.215   3.991
 2096TIP3    H1 6231   5.191   0.276   4.063
 2096TIP3    H2 6232   5.273   0.155   4.025
 2097TIP3   OH2 6233   5.912   3.602   6.639
 2097TIP3    H1 6234   5.895   3.679   6.693
 2097TIP3    H2 6235   6.002   3.614   6.608
 2098TIP3   OH2 6236   0.241   5.174   5.733
 2098TIP3    H1 6237   0.273   5.108   5.795
 2098TIP3    H2 6238   0.146   5.169   5.740
 2099TIP3   OH2 6239   5.280   6.543   5.943
 2099TIP3    H1 6240   5.321   6.577   5.864
 2099TIP3    H2 6241   5.278   6.617   6.004
 2100TIP3   OH2 6242   2.454   5.646   3.904
 2100TIP3    H1 6243   2.548   5.666   3.909
 2100TIP3    H2 6244   2.434   5.649   3.810
 2101TIP3   OH2 6245   1.244   1.762   4.667
 2101TIP3    H1 6246   1.306   1.834   4.680
 2101TIP3    H2 6247   1.200   1.754   4.752
 2102TIP3   OH2 6248   2.794   3.430   5.709
 2102TIP3    H1 6249   2.746   3.471   5.781
 2102TIP3    H2 6250   2.726   3.390   5.655
 2103TIP3   OH2 6251   1.873   3.204   3.621
 2103TIP3    H1 6252   1.858   3.188   3.528
 2103TIP3    H2 6253   1.788   3.187   3.662
 2104TIP3   OH2 6254   0.417   1.791   4.722
 2104TIP3    H1 6255   0.510   1.812   4.714
 2104TIP3    H2 6256   0.374   1.876   4.733
 2105TIP3   OH2 6257   0.285   5.916   2.208
 2105TIP3    H1 6258   0.288   5.889   2.117
 2105TIP3    H2 6259   0.244   5.842   2.254
 2106TIP3   OH2 6260   2.160   0.512   3.238
 2106TIP3    H1 6261   2.072   0.551   3.238
 2106TIP3    H2 6262   2.166   0.467   3.154
 2107TIP3   OH2 6263   7.383   6.721   5.097
 2107TIP3    H1 6264   7.367   6.794   5.037
 2107TIP3    H2 6265   7.409   6.763   5.179
 2108TIP3   OH2 6266   5.131   1.684   2.035
 2108TIP3    H1 6267   5.127   1.593   2.063
 2108TIP3    H2 6268   5.109   1.734   2.113
 2109TIP3   OH2 6269   0.384   4.311   6.386
 2109TIP3    H1 6270   0.370   4.398   6.423
 2109TIP3    H2 6271   0.425   4.327   6.301
 2110TIP3   OH2 6272   6.073   5.630   4.245
 2110TIP3    H1 6273   6.125   5.696   4.200
 2110TIP3    H2 6274   6.124   5.609   4.323
 2111TIP3   OH2 6275   0.300   4.428   0.703
 2111TIP3    H1 6276   0.305   4.358   0.767
 2111TIP3    H2 6277   0.358   4.496   0.737
 2112TIP3   OH2 6278   1.344   4.864   3.521
 2112TIP3    H1 6279   1.395   4.926   3.469
 2112TIP3    H2 6280   1.407   4.827   3.583
 2113TIP3   OH2 6281   4.453   4.840   2.157
 2113TIP3    H1 6282   4.449   4.756   2.203
 2113TIP3    H2 6283   4.536   4.838   2.111
 2114TIP3   OH2 6284   3.563   0.621   4.649
 2114TIP3    H1 6285   3.569   0.716   4.655
 2114TIP3    H2 6286   3.597   0.590   4.734
 2115TIP3   OH2 6287   0.345   2.031   4.835
 2115TIP3    H1 6288   0.270   2.064   4.786
 2115TIP3    H2 6289   0.334   2.067   4.923
 2116TIP3   OH2 6290   7.004   5.476   0.488
 2116TIP3    H1 6291   6.961   5.404   0.533
 2116TIP3    H2 6292   7.065   5.434   0.428
 2117TIP3   OH2 6293   1.846   2.126   1.381
 2117TIP3    H1 6294   1.818   2.214   1.408
 2117TIP3    H2 6295   1.942   2.130   1.382
 2118TIP3   OH2 6296   4.594   5.660   5.640
 2118TIP3    H1 6297   4.657   5.679   5.710
 2118TIP3    H2 6298   4.612   5.727   5.574
 2119TIP3   OH2 6299   6.626   7.335   3.237
 2119TIP3    H1 6300   6.575   7.412   3.264
 2119TIP3    H2 6301   6.584   7.307   3.155
 2120TIP3   OH2 6302   6.638   0.164   0.166
 2120TIP3    H1 6303   6.568   0.229   0.160
 2120TIP3    H2 6304   6.598   0.091   0.214
 2121TIP3   OH2 6305   2.267   7.150   4.628
 2121TIP3    H1 6306   2.268   7.193   4.714
 2121TIP3    H2 6307   2.256   7.057   4.648
 2122TIP3   OH2 6308   1.575   6.000   4.064
 2122TIP3    H1 6309   1.562   6.042   3.979
 2122TIP3    H2 6310   1.669   6.009   4.081
 2123TIP3   OH2 6311   3.129   1.110   2.613
 2123TIP3    H1 6312   3.040   1.099   2.646
 2123TIP3    H2 6313   3.120   1.173   2.540
 2124TIP3   OH2 6314   6.464   6.509   4.943
 2124TIP3    H1 6315   6.413   6.458   4.880
 2124TIP3    H2 6316   6.537   6.545   4.892
 2125TIP3   OH2 6317   1.228   5.907   6.577
 2125TIP3    H1 6318   1.219   5.844   6.649
 2125TIP3    H2 6319   1.222   5.854   6.498
 2126TIP3   OH2 6320   0.218   2.740   5.031
 2126TIP3    H1 6321   0.156   2.777   5.093
 2126TIP3    H2 6322   0.277   2.687   5.084
 2127TIP3   OH2 6323   6.708   5.728   1.212
 2127TIP3    H1 6324   6.775   5.719   1.144
 2127TIP3    H2 6325   6.652   5.799   1.181
 2128TIP3   OH2 6326   3.391   6.476   4.041
 2128TIP3    H1 6327   3.363   6.513   3.957
 2128TIP3    H2 6328   3.434   6.549   4.086
 2129TIP3   OH2 6329   5.509   4.050   4.387
 2129TIP3    H1 6330   5.556   4.003   4.318
 2129TIP3    H2 6331   5.541   4.140   4.381
 2130TIP3   OH2 6332   5.438   3.641   6.185
 2130TIP3    H1 6333   5.403   3.655   6.098
 2130TIP3    H2 6334   5.405   3.554   6.210
 2131TIP3   OH2 6335   7.407   5.754   4.570
 2131TIP3    H1 6336   7.442   5.787   4.487
 2131TIP3    H2 6337   7.327   5.803   4.584
 2132TIP3   OH2 6338   0.773   2.282   4.112
 2132TIP3    H1 6339   0.848   2.222   4.110
 2132TIP3    H2 6340   0.806   2.359   4.159
 2133TIP3   OH2 6341   6.285   3.355   0.496
 2133TIP3    H1 6342   6.306   3.267   0.528
 2133TIP3    H2 6343   6.250   3.340   0.408
 2134TIP3   OH2 6344   4.302   5.388   1.214
 2134TIP3    H1 6345   4.237   5.425   1.153
 2134TIP3    H2 6346   4.326   5.305   1.174
 2135TIP3   OH2 6347   7.509   7.171   4.959
 2135TIP3    H1 6348   7.496   7.171   5.053
 2135TIP3    H2 6349   7.588   7.119   4.945
 2136TIP3   OH2 6350   1.634   3.882   2.448
 2136TIP3    H1 6351   1.579   3.833   2.387
 2136TIP3    H2 6352   1.661   3.818   2.513
 2137TIP3   OH2 6353   0.306   3.882   0.994
 2137TIP3    H1 6354   0.378   3.843   1.043
 2137TIP3    H2 6355   0.347   3.912   0.912
 2138TIP3   OH2 6356   2.150   4.625   0.234
 2138TIP3    H1 6357   2.060   4.657   0.234
 2138TIP3    H2 6358   2.199   4.690   0.184
 2139TIP3   OH2 6359   2.415   7.704   5.747
 2139TIP3    H1 6360   2.441   7.770   5.811
 2139TIP3    H2 6361   2.486   7.704   5.683
 2140TIP3   OH2 6362   7.771   6.439   5.661
 2140TIP3    H1 6363   7.684   6.453   5.699
 2140TIP3    H2 6364   7.827   6.420   5.736
 2141TIP3   OH2 6365   0.899   5.513   2.173
 2141TIP3    H1 6366   0.943   5.593   2.202
 2141TIP3    H2 6367   0.908   5.514   2.077
 2142TIP3   OH2 6368   7.546   2.765   0.685
 2142TIP3    H1 6369   7.471   2.815   0.653
 2142TIP3    H2 6370   7.551   2.689   0.628
 2143TIP3   OH2 6371   3.541   4.351   5.089
 2143TIP3    H1 6372   3.573   4.440   5.096
 2143TIP3    H2 6373   3.462   4.358   5.035
 2144TIP3   OH2 6374   6.173   0.591   1.954
 2144TIP3    H1 6375   6.095   0.550   1.916
 2144TIP3    H2 6376   6.170   0.565   2.046
 2145TIP3   OH2 6377   7.859   4.466   0.343
 2145TIP3    H1 6378   7.847   4.524   0.419
 2145TIP3    H2 6379   7.904   4.389   0.379
 2146TIP3   OH2 6380   3.448   4.046   1.288
 2146TIP3    H1 6381   3.471   4.133   1.255
 2146TIP3    H2 6382   3.511   3.987   1.245
 2147TIP3   OH2 6383   7.349   5.322   0.224
 2147TIP3    H1 6384   7.365   5.392   0.161
 2147TIP3    H2 6385   7.254   5.319   0.234
 2148TIP3   OH2 6386   3.985   3.819   5.973
 2148TIP3    H1 6387   3.954   3.754   5.910
 2148TIP3    H2 6388   3.940   3.900   5.949
 2149TIP3   OH2 6389   2.334   1.265   2.056
 2149TIP3    H1 6390   2.357   1.202   2.125
 2149TIP3    H2 6391   2.297   1.340   2.103
 2150TIP3   OH2 6392   7.553   6.006   3.250
 2150TIP3    H1 6393   7.555   6.017   3.155
 2150TIP3    H2 6394   7.558   5.912   3.264
 2151TIP3   OH2 6395   3.837   3.014   3.161
 2151TIP3    H1 6396   3.755   3.062   3.176
 2151TIP3    H2 6397   3.892   3.036   3.236
 2152TIP3   OH2 6398   1.997   4.455   6.625
 2152TIP3    H1 6399   2.058   4.523   6.600
 2152TIP3    H2 6400   1.911   4.498   6.625
 2153TIP3   OH2 6401   5.915   1.668   6.100
 2153TIP3    H1 6402   5.957   1.738   6.151
 2153TIP3    H2 6403   5.836   1.647   6.150
 2154TIP3   OH2 6404   4.248   3.727   5.463
 2154TIP3    H1 6405   4.209   3.645   5.433
 2154TIP3    H2 6406   4.191   3.795   5.427
 2155TIP3   OH2 6407   6.393   2.585   3.779
 2155TIP3    H1 6408   6.399   2.617   3.689
 2155TIP3    H2 6409   6.418   2.493   3.773
 2156TIP3   OH2 6410   7.900   5.954   3.358
 2156TIP3    H1 6411   7.943   6.005   3.290
 2156TIP3    H2 6412   7.853   6.019   3.410
 2157TIP3   OH2 6413   2.016   1.703   0.484
 2157TIP3    H1 6414   2.030   1.797   0.497
 2157TIP3    H2 6415   2.044   1.663   0.566
 2158TIP3   OH2 6416   3.837   1.168   5.423
 2158TIP3    H1 6417   3.877   1.081   5.423
 2158TIP3    H2 6418   3.849   1.199   5.333
 2159TIP3   OH2 6419   5.640   4.294   1.440
 2159TIP3    H1 6420   5.697   4.234   1.488
 2159TIP3    H2 6421   5.553   4.254   1.445
 2160TIP3   OH2 6422   6.625   2.589   2.582
 2160TIP3    H1 6423   6.668   2.609   2.499
 2160TIP3    H2 6424   6.637   2.495   2.594
 2161TIP3   OH2 6425   7.687   4.803   5.740
 2161TIP3    H1 6426   7.763   4.757   5.778
 2161TIP3    H2 6427   7.669   4.755   5.659
 2162TIP3   OH2 6428   4.095   2.465   3.281
 2162TIP3    H1 6429   4.058   2.551   3.262
 2162TIP3    H2 6430   4.181   2.466   3.239
 2163TIP3   OH2 6431   2.926   3.330   4.759
 2163TIP3    H1 6432   2.858   3.265   4.741
 2163TIP3    H2 6433   2.880   3.414   4.753
 2164TIP3   OH2 6434   0.085   3.872   1.851
 2164TIP3    H1 6435   0.065   3.779   1.861
 2164TIP3    H2 6436   0.178   3.880   1.874
 2165TIP3   OH2 6437   4.874   3.289   1.955
 2165TIP3    H1 6438   4.947   3.229   1.966
 2165TIP3    H2 6439   4.819   3.249   1.887
 2166TIP3   OH2 6440   5.217   7.538   0.065
 2166TIP3    H1 6441   5.174   7.484   0.132
 2166TIP3    H2 6442   5.267   7.603   0.115
 2167TIP3   OH2 6443   6.635   1.686   1.444
 2167TIP3    H1 6444   6.546   1.656   1.463
 2167TIP3    H2 6445   6.691   1.641   1.507
 2168TIP3   OH2 6446   3.391   7.464   5.734
 2168TIP3    H1 6447   3.374   7.372   5.754
 2168TIP3    H2 6448   3.404   7.505   5.820
 2169TIP3   OH2 6449   0.266   5.655   3.584
 2169TIP3    H1 6450   0.281   5.748   3.602
 2169TIP3    H2 6451   0.279   5.647   3.490
 2170TIP3   OH2 6452   4.236   2.352   4.196
 2170TIP3    H1 6453   4.171   2.421   4.209
 2170TIP3    H2 6454   4.301   2.366   4.265
 2171TIP3   OH2 6455   2.433   6.018   2.165
 2171TIP3    H1 6456   2.484   6.045   2.242
 2171TIP3    H2 6457   2.348   6.061   2.177
 2172TIP3   OH2 6458   0.543   4.895   1.966
 2172TIP3    H1 6459   0.485   4.952   2.015
 2172TIP3    H2 6460   0.487   4.851   1.902
 2173TIP3   OH2 6461   4.330   6.862   3.128
 2173TIP3    H1 6462   4.258   6.900   3.180
 2173TIP3    H2 6463   4.295   6.779   3.097
 2174TIP3   OH2 6464   3.394   3.995   5.157
 2174TIP3    H1 6465   3.299   3.984   5.163
 2174TIP3    H2 6466   3.420   4.027   5.244
 2175TIP3   OH2 6467   7.793   7.750   0.992
 2175TIP3    H1 6468   7.745   7.674   0.961
 2175TIP3    H2 6469   7.881   7.717   1.011
 2176TIP3   OH2 6470   2.199   5.558   5.709
 2176TIP3    H1 6471   2.202   5.472   5.666
 2176TIP3    H2 6472   2.170   5.618   5.641
 2177TIP3   OH2 6473   2.328   1.019   6.012
 2177TIP3    H1 6474   2.344   1.113   6.014
 2177TIP3    H2 6475   2.234   1.011   5.999
 2178TIP3   OH2 6476   6.235   6.695   0.174
 2178TIP3    H1 6477   6.314   6.693   0.120
 2178TIP3    H2 6478   6.182   6.765   0.138
 2179TIP3   OH2 6479   5.807   7.050   1.677
 2179TIP3    H1 6480   5.876   7.007   1.625
 2179TIP3    H2 6481   5.855   7.097   1.745
 2180TIP3   OH2 6482   7.151   2.805   1.107
 2180TIP3    H1 6483   7.216   2.753   1.060
 2180TIP3    H2 6484   7.140   2.759   1.190
 2181TIP3   OH2 6485   2.878   6.956   5.808
 2181TIP3    H1 6486   2.946   7.018   5.780
 2181TIP3    H2 6487   2.799   6.987   5.764
 2182TIP3   OH2 6488   6.546   7.161   1.974
 2182TIP3    H1 6489   6.552   7.148   1.880
 2182TIP3    H2 6490   6.504   7.247   1.984
 2183TIP3   OH2 6491   0.635   5.053   4.282
 2183TIP3    H1 6492   0.571   4.982   4.285
 2183TIP3    H2 6493   0.646   5.073   4.189
 2184TIP3   OH2 6494   7.507   3.949   5.805
 2184TIP3    H1 6495   7.602   3.939   5.795
 2184TIP3    H2 6496   7.484   3.886   5.874
 2185TIP3   OH2 6497   3.733   6.009   4.429
 2185TIP3    H1 6498   3.668   6.076   4.407
 2185TIP3    H2 6499   3.818   6.051   4.415
 2186TIP3   OH2 6500   6.643   5.959   3.536
 2186TIP3    H1 6501   6.684   5.943   3.621
 2186TIP3    H2 6502   6.558   5.917   3.542
 2187TIP3   OH2 6503   7.953   4.694   3.775
 2187TIP3    H1 6504   7.876   4.639   3.791
 2187TIP3    H2 6505   7.954   4.707   3.680
 2188TIP3   OH2 6506   5.812   6.659   4.491
 2188TIP3    H1 6507   5.864   6.714   4.432
 2188TIP3    H2 6508   5.763   6.601   4.433
 2189TIP3   OH2 6509   1.485   4.494   3.326
 2189TIP3    H1 6510   1.459   4.452   3.408
 2189TIP3    H2 6511   1.565   4.448   3.299
 2190TIP3   OH2 6512   2.442   2.470   4.678
 2190TIP3    H1 6513   2.427   2.537   4.612
 2190TIP3    H2 6514   2.414   2.510   4.760
 2191TIP3   OH2 6515   4.675   5.764   0.031
 2191TIP3    H1 6516   4.668   5.755  -0.065
 2191TIP3    H2 6517   4.585   5.755   0.062
 2192TIP3   OH2 6518   4.249   7.548   6.636
 2192TIP3    H1 6519   4.207   7.513   6.715
 2192TIP3    H2 6520   4.343   7.539   6.652
 2193TIP3   OH2 6521   3.105   2.614   6.033
 2193TIP3    H1 6522   3.197   2.587   6.031
 2193TIP3    H2 6523   3.093   2.668   5.955
 2194TIP3   OH2 6524   3.284   7.650   2.772
 2194TIP3    H1 6525   3.259   7.612   2.688
 2194TIP3    H2 6526   3.209   7.704   2.797
 2195TIP3   OH2 6527   5.396   2.194   2.529
 2195TIP3    H1 6528   5.479   2.152   2.507
 2195TIP3    H2 6529   5.418   2.256   2.599
 2196TIP3   OH2 6530   7.930   7.488   2.816
 2196TIP3    H1 6531   7.965   7.546   2.883
 2196TIP3    H2 6532   7.953   7.400   2.847
 2197TIP3   OH2 6533   2.544   0.854   5.961
 2197TIP3    H1 6534   2.533   0.789   6.029
 2197TIP3    H2 6535   2.482   0.924   5.984
 2198TIP3   OH2 6536   1.859   1.530   5.682
 2198TIP3    H1 6537   1.884   1.567   5.766
 2198TIP3    H2 6538   1.881   1.437   5.689
 2199TIP3   OH2 6539   4.232   0.584   4.727
 2199TIP3    H1 6540   4.230   0.568   4.632
 2199TIP3    H2 6541   4.239   0.679   4.736
 2200TIP3   OH2 6542   0.580   1.557   3.461
 2200TIP3    H1 6543   0.663   1.553   3.414
 2200TIP3    H2 6544   0.526   1.489   3.420
 2201TIP3   OH2 6545   4.961   7.072   2.262
 2201TIP3    H1 6546   4.894   7.003   2.262
 2201TIP3    H2 6547   5.020   7.049   2.334
 2202TIP3   OH2 6548   3.764   0.730   5.896
 2202TIP3    H1 6549   3.689   0.748   5.840
 2202TIP3    H2 6550   3.725   0.706   5.981
 2203TIP3   OH2 6551   3.628   1.598   1.860
 2203TIP3    H1 6552   3.640   1.507   1.834
 2203TIP3    H2 6553   3.688   1.610   1.934
 2204TIP3   OH2 6554   5.476   7.594   5.963
 2204TIP3    H1 6555   5.567   7.621   5.950
 2204TIP3    H2 6556   5.425   7.662   5.919
 2205TIP3   OH2 6557   1.805   1.610   6.141
 2205TIP3    H1 6558   1.768   1.549   6.078
 2205TIP3    H2 6559   1.746   1.685   6.141
 2206TIP3   OH2 6560   6.116   3.872   0.691
 2206TIP3    H1 6561   6.174   3.842   0.761
 2206TIP3    H2 6562   6.129   3.808   0.620
 2207TIP3   OH2 6563   1.022   3.869   4.620
 2207TIP3    H1 6564   0.991   3.891   4.708
 2207TIP3    H2 6565   1.114   3.846   4.633
 2208TIP3   OH2 6566   6.947   7.073   2.995
 2208TIP3    H1 6567   7.006   6.997   2.996
 2208TIP3    H2 6568   6.859   7.035   3.007
 2209TIP3   OH2 6569   4.094   5.214   4.131
 2209TIP3    H1 6570   4.148   5.153   4.182
 2209TIP3    H2 6571   4.104   5.185   4.041
 2210TIP3   OH2 6572   3.322   5.270   1.240
 2210TIP3    H1 6573   3.325   5.175   1.248
 2210TIP3    H2 6574   3.344   5.302   1.328
 2211TIP3   OH2 6575   2.675   3.118   5.344
 2211TIP3    H1 6576   2.721   3.095   5.262
 2211TIP3    H2 6577   2.585   3.092   5.329
 2212TIP3   OH2 6578   7.502   4.646   1.205
 2212TIP3    H1 6579   7.493   4.634   1.300
 2212TIP3    H2 6580   7.566   4.580   1.178
 2213TIP3   OH2 6581   0.538   0.366   0.640
 2213TIP3    H1 6582   0.464   0.343   0.585
 2213TIP3    H2 6583   0.550   0.460   0.627
 2214TIP3   OH2 6584   5.709   0.791   1.382
 2214TIP3    H1 6585   5.725   0.726   1.313
 2214TIP3    H2 6586   5.642   0.848   1.346
 2215TIP3   OH2 6587   0.611   6.625   5.997
 2215TIP3    H1 6588   0.581   6.534   5.996
 2215TIP3    H2 6589   0.649   6.636   6.084
 2216TIP3   OH2 6590   1.476   5.058   6.226
 2216TIP3    H1 6591   1.517   4.972   6.233
 2216TIP3    H2 6592   1.541   5.111   6.180
 2217TIP3   OH2 6593   4.951   0.178   1.831
 2217TIP3    H1 6594   4.907   0.113   1.886
 2217TIP3    H2 6595   4.974   0.130   1.752
 2218TIP3   OH2 6596   4.701   1.394   3.743
 2218TIP3    H1 6597   4.641   1.361   3.677
 2218TIP3    H2 6598   4.677   1.487   3.753
 2219TIP3   OH2 6599   2.586   3.712   6.469
 2219TIP3    H1 6600   2.611   3.747   6.383
 2219TIP3    H2 6601   2.551   3.625   6.450
 2220TIP3   OH2 6602   5.914   7.657   1.568
 2220TIP3    H1 6603   5.899   7.563   1.564
 2220TIP3    H2 6604   6.008   7.665   1.586
 2221TIP3   OH2 6605   0.783   3.464   5.964
 2221TIP3    H1 6606   0.731   3.531   5.920
 2221TIP3    H2 6607   0.869   3.505   5.977
 2222TIP3   OH2 6608   0.336   4.312   2.998
 2222TIP3    H1 6609   0.431   4.314   3.007
 2222TIP3    H2 6610   0.319   4.241   2.936
 2223TIP3   OH2 6611   1.484   2.178   6.511
 2223TIP3    H1 6612   1.407   2.188   6.568
 2223TIP3    H2 6613   1.471   2.243   6.442
 2224TIP3   OH2 6614   3.825   2.068   5.827
 2224TIP3    H1 6615   3.807   2.074   5.733
 2224TIP3    H2 6616   3.846   1.975   5.841
 2225TIP3   OH2 6617   3.175   3.082   6.423
 2225TIP3    H1 6618   3.160   3.157   6.480
 2225TIP3    H2 6619   3.090   3.040   6.417
 2226TIP3   OH2 6620   3.669   1.189   6.734
 2226TIP3    H1 6621   3.642   1.099   6.719
 2226TIP3    H2 6622   3.758   1.193   6.699
 2227TIP3   OH2 6623   5.967   0.824   2.872
 2227TIP3    H1 6624   6.010   0.909   2.879
 2227TIP3    H2 6625   5.952   0.797   2.963
 2228TIP3   OH2 6626   6.066   4.129   4.474
 2228TIP3    H1 6627   6.150   4.144   4.431
 2228TIP3    H2 6628   6.066   4.189   4.549
 2229TIP3   OH2 6629   5.336   3.283   3.091
 2229TIP3    H1 6630   5.274   3.348   3.058
 2229TIP3    H2 6631   5.393   3.264   3.017
 2230TIP3   OH2 6632   5.470   1.329   2.680
 2230TIP3    H1 6633   5.448   1.250   2.631
 2230TIP3    H2 6634   5.445   1.309   2.770
 2231TIP3   OH2 6635   3.509   0.435   1.479
 2231TIP3    H1 6636   3.540   0.410   1.392
 2231TIP3    H2 6637   3.427   0.482   1.462
 2232TIP3   OH2 6638   5.633   1.868   4.213
 2232TIP3    H1 6639   5.718   1.878   4.256
 2232TIP3    H2 6640   5.636   1.782   4.173
 2233TIP3   OH2 6641   4.186   3.381   1.760
 2233TIP3    H1 6642   4.168   3.382   1.854
 2233TIP3    H2 6643   4.190   3.473   1.735
 2234TIP3   OH2 6644   5.235   2.336   2.960
 2234TIP3    H1 6645   5.202   2.323   2.871
 2234TIP3    H2 6646   5.174   2.396   3.000
 2235TIP3   OH2 6647   4.830   7.538   0.135
 2235TIP3    H1 6648   4.891   7.587   0.080
 2235TIP3    H2 6649   4.835   7.448   0.101
 2236TIP3   OH2 6650   7.941   4.828   0.158
 2236TIP3    H1 6651   7.930   4.874   0.241
 2236TIP3    H2 6652   8.030   4.791   0.163
 2237TIP3   OH2 6653   7.046   6.886   3.607
 2237TIP3    H1 6654   7.057   6.795   3.580
 2237TIP3    H2 6655   7.053   6.936   3.525
 2238TIP3   OH2 6656   7.803   6.567   5.438
 2238TIP3    H1 6657   7.731   6.561   5.375
 2238TIP3    H2 6658   7.770   6.522   5.516
 2239TIP3   OH2 6659   0.964   6.663   3.680
 2239TIP3    H1 6660   0.966   6.743   3.628
 2239TIP3    H2 6661   0.969   6.592   3.616
 2240TIP3   OH2 6662   4.559   6.661   5.303
 2240TIP3    H1 6663   4.638   6.608   5.300
 2240TIP3    H2 6664   4.577   6.735   5.244
 2241TIP3   OH2 6665   7.385   0.499   5.381
 2241TIP3    H1 6666   7.300   0.463   5.406
 2241TIP3    H2 6667   7.371   0.537   5.295
 2242TIP3   OH2 6668   1.354   5.548   2.714
 2242TIP3    H1 6669   1.405   5.479   2.671
 2242TIP3    H2 6670   1.336   5.513   2.801
 2243TIP3   OH2 6671   5.989   7.608   2.937
 2243TIP3    H1 6672   5.917   7.665   2.912
 2243TIP3    H2 6673   6.050   7.613   2.863
 2244TIP3   OH2 6674   3.275   2.628   3.636
 2244TIP3    H1 6675   3.294   2.535   3.620
 2244TIP3    H2 6676   3.356   2.663   3.674
 2245TIP3   OH2 6677   1.887   6.427   5.932
 2245TIP3    H1 6678   1.799   6.404   5.961
 2245TIP3    H2 6679   1.945   6.385   5.996
 2246TIP3   OH2 6680   4.178   7.492   2.921
 2246TIP3    H1 6681   4.162   7.398   2.923
 2246TIP3    H2 6682   4.093   7.532   2.942
 2247TIP3   OH2 6683   2.876   0.439   6.274
 2247TIP3    H1 6684   2.921   0.388   6.341
 2247TIP3    H2 6685   2.793   0.393   6.259
 2248TIP3   OH2 6686   0.703   6.149   3.791
 2248TIP3    H1 6687   0.771   6.191   3.738
 2248TIP3    H2 6688   0.669   6.079   3.735
 2249TIP3   OH2 6689   7.740   2.345   3.536
 2249TIP3    H1 6690   7.773   2.431   3.560
 2249TIP3    H2 6691   7.650   2.362   3.507
 2250TIP3   OH2 6692   4.953   0.243   0.220
 2250TIP3    H1 6693   4.921   0.155   0.242
 2250TIP3    H2 6694   4.888   0.301   0.259
 2251TIP3   OH2 6695   3.186   2.143   0.138
 2251TIP3    H1 6696   3.124   2.070   0.132
 2251TIP3    H2 6697   3.272   2.103   0.122
 2252TIP3   OH2 6698   4.454   1.997   4.363
 2252TIP3    H1 6699   4.502   2.069   4.402
 2252TIP3    H2 6700   4.427   1.943   4.437
 2253TIP3   OH2 6701   4.678   0.065   6.568
 2253TIP3    H1 6702   4.708   0.120   6.640
 2253TIP3    H2 6703   4.723  -0.019   6.582
 2254TIP3   OH2 6704   5.541   7.608   1.181
 2254TIP3    H1 6705   5.570   7.519   1.201
 2254TIP3    H2 6706   5.457   7.595   1.136
 2255TIP3   OH2 6707   3.160   0.046   0.166
 2255TIP3    H1 6708   3.190   0.010   0.249
 2255TIP3    H2 6709   3.104  -0.023   0.129
 2256TIP3   OH2 6710   2.553   3.632   4.825
 2256TIP3    H1 6711   2.533   3.552   4.775
 2256TIP3    H2 6712   2.502   3.623   4.905
 2257TIP3   OH2 6713   6.392   1.602   1.537
 2257TIP3    H1 6714   6.349   1.518   1.519
 2257TIP3    H2 6715   6.363   1.625   1.625
 2258TIP3   OH2 6716   7.954   2.262   0.411
 2258TIP3    H1 6717   7.874   2.303   0.379
 2258TIP3    H2 6718   8.003   2.334   0.451
 2259TIP3   OH2 6719   0.805   1.389   5.080
 2259TIP3    H1 6720   0.881   1.427   5.124
 2259TIP3    H2 6721   0.837   1.364   4.994
 2260TIP3   OH2 6722   0.893   6.503   5.871
 2260TIP3    H1 6723   0.838   6.535   5.800
 2260TIP3    H2 6724   0.958   6.447   5.828
 2261TIP3   OH2 6725   3.134   1.092   5.067
 2261TIP3    H1 6726   3.056   1.103   5.122
 2261TIP3    H2 6727   3.201   1.147   5.108
 2262TIP3   OH2 6728   2.354   5.031   2.765
 2262TIP3    H1 6729   2.402   5.071   2.692
 2262TIP3    H2 6730   2.312   4.954   2.727
 2263TIP3   OH2 6731   6.186   1.905   3.963
 2263TIP3    H1 6732   6.149   1.831   4.011
 2263TIP3    H2 6733   6.142   1.902   3.878
 2264TIP3   OH2 6734   4.904   1.694   3.342
 2264TIP3    H1 6735   4.995   1.722   3.334
 2264TIP3    H2 6736   4.909   1.602   3.367
 2265TIP3   OH2 6737   7.961   3.109   4.462
 2265TIP3    H1 6738   8.003   3.182   4.508
 2265TIP3    H2 6739   7.888   3.149   4.415
 2266TIP3   OH2 6740   7.589   7.616   4.912
 2266TIP3    H1 6741   7.589   7.574   4.826
 2266TIP3    H2 6742   7.625   7.550   4.971
 2267TIP3   OH2 6743   0.206   0.711   0.300
 2267TIP3    H1 6744   0.201   0.774   0.228
 2267TIP3    H2 6745   0.114   0.694   0.323
 2268TIP3   OH2 6746   0.865   4.957   4.642
 2268TIP3    H1 6747   0.863   5.020   4.713
 2268TIP3    H2 6748   0.918   4.885   4.675
 2269TIP3   OH2 6749   5.968   1.444   4.758
 2269TIP3    H1 6750   5.882   1.411   4.783
 2269TIP3    H2 6751   6.028   1.407   4.822
 2270TIP3   OH2 6752   6.734   3.872   4.292
 2270TIP3    H1 6753   6.737   3.803   4.358
 2270TIP3    H2 6754   6.825   3.898   4.280
 2271TIP3   OH2 6755   6.886   3.540   4.972
 2271TIP3    H1 6756   6.901   3.589   5.052
 2271TIP3    H2 6757   6.941   3.462   4.980
 2272TIP3   OH2 6758   3.860   0.249   6.690
 2272TIP3    H1 6759   3.871   0.309   6.764
 2272TIP3    H2 6760   3.914   0.287   6.621
 2273TIP3   OH2 6761   7.692   6.375   4.662
 2273TIP3    H1 6762   7.685   6.288   4.702
 2273TIP3    H2 6763   7.696   6.358   4.568
 2274TIP3   OH2 6764   0.989   6.294   5.018
 2274TIP3    H1 6765   0.936   6.328   5.091
 2274TIP3    H2 6766   1.076   6.279   5.057
 2275TIP3   OH2 6767   4.423   4.905   5.372
 2275TIP3    H1 6768   4.400   4.953   5.452
 2275TIP3    H2 6769   4.519   4.908   5.370
 2276TIP3   OH2 6770   7.795   5.053   2.501
 2276TIP3    H1 6771   7.781   5.116   2.572
 2276TIP3    H2 6772   7.877   5.009   2.524
 2277TIP3   OH2 6773   7.404   0.869   5.184
 2277TIP3    H1 6774   7.388   0.775   5.178
 2277TIP3    H2 6775   7.492   0.881   5.148
 2278TIP3   OH2 6776   2.740   4.209   6.790
 2278TIP3    H1 6777   2.668   4.188   6.730
 2278TIP3    H2 6778   2.744   4.305   6.790
 2279TIP3   OH2 6779   5.759   2.131   4.464
 2279TIP3    H1 6780   5.795   2.069   4.401
 2279TIP3    H2 6781   5.777   2.217   4.426
 2280TIP3   OH2 6782   5.499   7.305   3.254
 2280TIP3    H1 6783   5.434   7.312   3.184
 2280TIP3    H2 6784   5.448   7.315   3.335
 2281TIP3   OH2 6785   0.483   2.617   0.109
 2281TIP3    H1 6786   0.442   2.618   0.023
 2281TIP3    H2 6787   0.576   2.636   0.092
 2282TIP3   OH2 6788   0.133   4.599   2.348
 2282TIP3    H1 6789   0.038   4.611   2.358
 2282TIP3    H2 6790   0.165   4.684   2.317
 2283TIP3   OH2 6791   2.508   2.296   1.711
 2283TIP3    H1 6792   2.558   2.239   1.770
 2283TIP3    H2 6793   2.572   2.325   1.646
 2284TIP3   OH2 6794   2.250   1.128   4.857
 2284TIP3    H1 6795   2.241   1.098   4.947
 2284TIP3    H2 6796   2.215   1.217   4.858
 2285TIP3   OH2 6797   3.860   2.993   4.837
 2285TIP3    H1 6798   3.835   2.904   4.813
 2285TIP3    H2 6799   3.953   2.999   4.814
 2286TIP3   OH2 6800   6.253   6.502   5.673
 2286TIP3    H1 6801   6.260   6.518   5.767
 2286TIP3    H2 6802   6.232   6.587   5.635
 2287TIP3   OH2 6803   8.223   2.540   0.867
 2287TIP3    H1 6804   8.245   2.472   0.930
 2287TIP3    H2 6805   8.232   2.497   0.782
 2288TIP3   OH2 6806   7.974   4.138   5.197
 2288TIP3    H1 6807   7.908   4.190   5.152
 2288TIP3    H2 6808   8.053   4.147   5.144
 2289TIP3   OH2 6809   7.918   6.006   0.024
 2289TIP3    H1 6810   7.914   6.004   0.119
 2289TIP3    H2 6811   7.988   5.945   0.002
 2290TIP3   OH2 6812   4.823   2.884   5.115
 2290TIP3    H1 6813   4.889   2.860   5.181
 2290TIP3    H2 6814   4.873   2.920   5.043
 2291TIP3   OH2 6815   5.267   3.354   2.118
 2291TIP3    H1 6816   5.305   3.269   2.143
 2291TIP3    H2 6817   5.282   3.359   2.023
 2292TIP3   OH2 6818   4.403   5.434   2.964
 2292TIP3    H1 6819   4.461   5.383   3.019
 2292TIP3    H2 6820   4.381   5.511   3.017
 2293TIP3   OH2 6821   5.170   4.211   2.918
 2293TIP3    H1 6822   5.238   4.247   2.975
 2293TIP3    H2 6823   5.096   4.270   2.929
 2294TIP3   OH2 6824   0.439   1.501   3.789
 2294TIP3    H1 6825   0.457   1.532   3.878
 2294TIP3    H2 6826   0.518   1.520   3.740
 2295TIP3   OH2 6827   3.220   2.972   1.948
 2295TIP3    H1 6828   3.291   2.944   1.890
 2295TIP3    H2 6829   3.173   3.039   1.899
 2296TIP3   OH2 6830   4.942   6.280   6.756
 2296TIP3    H1 6831   4.923   6.285   6.662
 2296TIP3    H2 6832   4.862   6.244   6.795
 2297TIP3   OH2 6833   4.823   2.494   2.363
 2297TIP3    H1 6834   4.813   2.587   2.346
 2297TIP3    H2 6835   4.904   2.487   2.414
 2298TIP3   OH2 6836   1.970   3.954   1.043
 2298TIP3    H1 6837   1.986   3.939   1.137
 2298TIP3    H2 6838   1.895   4.013   1.041
 2299TIP3   OH2 6839   1.113   1.307   1.683
 2299TIP3    H1 6840   1.098   1.225   1.635
 2299TIP3    H2 6841   1.183   1.285   1.746
 2300TIP3   OH2 6842   5.467   2.630   4.293
 2300TIP3    H1 6843   5.528   2.572   4.247
 2300TIP3    H2 6844   5.521   2.674   4.359
 2301TIP3   OH2 6845   6.966   0.282   5.266
 2301TIP3    H1 6846   6.918   0.204   5.238
 2301TIP3    H2 6847   7.035   0.250   5.324
 2302TIP3   OH2 6848   4.072   5.343   2.683
 2302TIP3    H1 6849   4.076   5.435   2.709
 2302TIP3    H2 6850   4.097   5.343   2.591
 2303TIP3   OH2 6851   3.363   3.211   5.752
 2303TIP3    H1 6852   3.354   3.286   5.694
 2303TIP3    H2 6853   3.331   3.242   5.837
 2304TIP3   OH2 6854   3.627   0.835   2.411
 2304TIP3    H1 6855   3.540   0.806   2.438
 2304TIP3    H2 6856   3.681   0.826   2.489
 2305TIP3   OH2 6857   4.675   5.221   1.012
 2305TIP3    H1 6858   4.701   5.292   1.071
 2305TIP3    H2 6859   4.645   5.151   1.071
 2306TIP3   OH2 6860   0.416   1.126   2.489
 2306TIP3    H1 6861   0.465   1.136   2.407
 2306TIP3    H2 6862   0.476   1.080   2.547
 2307TIP3   OH2 6863   6.994   6.482   3.316
 2307TIP3    H1 6864   6.990   6.514   3.226
 2307TIP3    H2 6865   6.998   6.386   3.306
 2308TIP3   OH2 6866   8.160   6.580   3.916
 2308TIP3    H1 6867   8.155   6.598   3.822
 2308TIP3    H2 6868   8.155   6.484   3.923
 2309TIP3   OH2 6869   3.582   3.600   4.668
 2309TIP3    H1 6870   3.645   3.624   4.735
 2309TIP3    H2 6871   3.635   3.585   4.589
 2310TIP3   OH2 6872   7.005   6.572   3.047
 2310TIP3    H1 6873   6.938   6.523   2.999
 2310TIP3    H2 6874   7.087   6.545   3.006
 2311TIP3   OH2 6875   5.534   4.470   6.308
 2311TIP3    H1 6876   5.557   4.468   6.401
 2311TIP3    H2 6877   5.464   4.535   6.301
 2312TIP3   OH2 6878   6.129   3.967   2.064
 2312TIP3    H1 6879   6.105   4.059   2.074
 2312TIP3    H2 6880   6.090   3.940   1.981
 2313TIP3   OH2 6881   1.584   1.396   4.857
 2313TIP3    H1 6882   1.664   1.440   4.888
 2313TIP3    H2 6883   1.556   1.449   4.782
 2314TIP3   OH2 6884   7.262   1.343   0.776
 2314TIP3    H1 6885   7.355   1.319   0.781
 2314TIP3    H2 6886   7.216   1.266   0.808
 2315TIP3   OH2 6887   7.704   2.737   3.890
 2315TIP3    H1 6888   7.727   2.697   3.805
 2315TIP3    H2 6889   7.716   2.666   3.953
 2316TIP3   OH2 6890   4.689   1.761   3.520
 2316TIP3    H1 6891   4.667   1.729   3.432
 2316TIP3    H2 6892   4.782   1.781   3.515
 2317TIP3   OH2 6893   6.833   0.034   3.291
 2317TIP3    H1 6894   6.744   0.067   3.280
 2317TIP3    H2 6895   6.887   0.091   3.236
 2318TIP3   OH2 6896   2.812   7.612   3.053
 2318TIP3    H1 6897   2.900   7.589   3.023
 2318TIP3    H2 6898   2.761   7.533   3.040
 2319TIP3   OH2 6899   2.698   3.604   5.405
 2319TIP3    H1 6900   2.672   3.590   5.496
 2319TIP3    H2 6901   2.639   3.549   5.355
 2320TIP3   OH2 6902   3.284   4.049   6.690
 2320TIP3    H1 6903   3.271   3.963   6.731
 2320TIP3    H2 6904   3.235   4.109   6.745
 2321TIP3   OH2 6905   2.657   0.265   0.565
 2321TIP3    H1 6906   2.640   0.356   0.541
 2321TIP3    H2 6907   2.668   0.267   0.660
 2322TIP3   OH2 6908   1.696   6.494   4.799
 2322TIP3    H1 6909   1.751   6.538   4.863
 2322TIP3    H2 6910   1.722   6.532   4.715
 2323TIP3   OH2 6911   3.549   5.208   5.279
 2323TIP3    H1 6912   3.571   5.228   5.370
 2323TIP3    H2 6913   3.459   5.240   5.269
 2324TIP3   OH2 6914   8.284   0.109   5.422
 2324TIP3    H1 6915   8.289   0.028   5.371
 2324TIP3    H2 6916   8.209   0.156   5.386
 2325TIP3   OH2 6917   1.191   1.182   5.858
 2325TIP3    H1 6918   1.152   1.177   5.946
 2325TIP3    H2 6919   1.141   1.250   5.814
 2326TIP3   OH2 6920   3.340   7.591   5.501
 2326TIP3    H1 6921   3.285   7.655   5.545
 2326TIP3    H2 6922   3.359   7.525   5.568
 2327TIP3   OH2 6923   7.214   5.007   4.449
 2327TIP3    H1 6924   7.170   4.931   4.411
 2327TIP3    H2 6925   7.268   4.971   4.519
 2328TIP3   OH2 6926   8.205   7.007   5.230
 2328TIP3    H1 6927   8.278   7.066   5.215
 2328TIP3    H2 6928   8.223   6.968   5.316
 2329TIP3   OH2 6929   3.096   4.759   5.777
 2329TIP3    H1 6930   3.099   4.681   5.831
 2329TIP3    H2 6931   3.004   4.769   5.754
 2330TIP3   OH2 6932   5.930   3.626   5.538
 2330TIP3    H1 6933   5.878   3.563   5.488
 2330TIP3    H2 6934   5.901   3.711   5.506
 2331TIP3   OH2 6935   6.218   5.843   4.796
 2331TIP3    H1 6936   6.228   5.789   4.717
 2331TIP3    H2 6937   6.306   5.876   4.814
 2332TIP3   OH2 6938   3.259   5.132   4.384
 2332TIP3    H1 6939   3.231   5.040   4.384
 2332TIP3    H2 6940   3.210   5.171   4.311
 2333TIP3   OH2 6941   7.169   4.610   1.348
 2333TIP3    H1 6942   7.174   4.564   1.264
 2333TIP3    H2 6943   7.102   4.678   1.334
 2334TIP3   OH2 6944   3.894   7.675   6.081
 2334TIP3    H1 6945   3.899   7.580   6.093
 2334TIP3    H2 6946   3.976   7.708   6.115
 2335TIP3   OH2 6947   0.913   7.261   1.275
 2335TIP3    H1 6948   0.871   7.207   1.209
 2335TIP3    H2 6949   0.843   7.283   1.337
 2336TIP3   OH2 6950   1.287   2.660   2.249
 2336TIP3    H1 6951   1.199   2.682   2.280
 2336TIP3    H2 6952   1.280   2.660   2.153
 2337TIP3   OH2 6953   0.817   0.103   5.542
 2337TIP3    H1 6954   0.730   0.103   5.503
 2337TIP3    H2 6955   0.836   0.011   5.558
 2338TIP3   OH2 6956   1.697   3.639   1.788
 2338TIP3    H1 6957   1.727   3.550   1.806
 2338TIP3    H2 6958   1.662   3.635   1.699
 2339TIP3   OH2 6959   5.187   5.399   2.168
 2339TIP3    H1 6960   5.120   5.349   2.123
 2339TIP3    H2 6961   5.141   5.440   2.241
 2340TIP3   OH2 6962   0.035   3.856   5.034
 2340TIP3    H1 6963   0.065   3.874   5.123
 2340TIP3    H2 6964   0.090   3.912   4.979
 2341TIP3   OH2 6965   0.413   0.104   5.236
 2341TIP3    H1 6966   0.360   0.159   5.295
 2341TIP3    H2 6967   0.364   0.102   5.154
 2342TIP3   OH2 6968   0.166   2.218   3.498
 2342TIP3    H1 6969   0.223   2.148   3.465
 2342TIP3    H2 6970   0.176   2.213   3.593
 2343TIP3   OH2 6971   1.677   2.891   3.626
 2343TIP3    H1 6972   1.690   2.942   3.547
 2343TIP3    H2 6973   1.698   2.801   3.601
 2344TIP3   OH2 6974   3.556   3.525   2.466
 2344TIP3    H1 6975   3.472   3.495   2.434
 2344TIP3    H2 6976   3.535   3.598   2.525
 2345TIP3   OH2 6977   4.426   1.856   3.373
 2345TIP3    H1 6978   4.424   1.782   3.433
 2345TIP3    H2 6979   4.363   1.918   3.409
 2346TIP3   OH2 6980   7.277   4.450   4.028
 2346TIP3    H1 6981   7.301   4.464   3.936
 2346TIP3    H2 6982   7.260   4.356   4.034
 2347TIP3   OH2 6983   1.669   6.506   1.045
 2347TIP3    H1 6984   1.719   6.587   1.038
 2347TIP3    H2 6985   1.729   6.444   1.087
 2348TIP3   OH2 6986   4.920   6.506   3.896
 2348TIP3    H1 6987   4.850   6.466   3.949
 2348TIP3    H2 6988   4.934   6.592   3.937
 2349TIP3   OH2 6989   6.483   5.660   0.346
 2349TIP3    H1 6990   6.562   5.715   0.350
 2349TIP3    H2 6991   6.413   5.721   0.324
 2350TIP3   OH2 6992   0.344   6.186   0.628
 2350TIP3    H1 6993   0.401   6.136   0.569
 2350TIP3    H2 6994   0.385   6.177   0.714
 2351TIP3   OH2 6995   2.126   0.345   0.193
 2351TIP3    H1 6996   2.077   0.400   0.254
 2351TIP3    H2 6997   2.213   0.337   0.233
 2352TIP3   OH2 6998   1.068   4.978   1.617
 2352TIP3    H1 6999   1.110   5.063   1.602
 2352TIP3    H2 7000   1.111   4.943   1.694
 2353TIP3   OH2 7001   6.707   2.581   3.491
 2353TIP3    H1 7002   6.611   2.590   3.497
 2353TIP3    H2 7003   6.720   2.496   3.448
 2354TIP3   OH2 7004   2.794   2.244   3.783
 2354TIP3    H1 7005   2.782   2.182   3.855
 2354TIP3    H2 7006   2.718   2.232   3.727
 2355TIP3   OH2 7007   2.439   5.249   3.114
 2355TIP3    H1 7008   2.371   5.220   3.174
 2355TIP3    H2 7009   2.463   5.171   3.065
 2356TIP3   OH2 7010   2.828   0.191   5.312
 2356TIP3    H1 7011   2.842   0.197   5.217
 2356TIP3    H2 7012   2.734   0.199   5.323
 2357TIP3   OH2 7013   7.079   0.184   0.057
 2357TIP3    H1 7014   6.990   0.158   0.032
 2357TIP3    H2 7015   7.099   0.259   0.001
 2358TIP3   OH2 7016   0.164   3.035   4.294
 2358TIP3    H1 7017   0.138   2.944   4.275
 2358TIP3    H2 7018   0.087   3.074   4.334
 2359TIP3   OH2 7019   6.427   4.661   5.946
 2359TIP3    H1 7020   6.443   4.650   5.852
 2359TIP3    H2 7021   6.380   4.581   5.971
 2360TIP3   OH2 7022   2.784   5.741   5.413
 2360TIP3    H1 7023   2.702   5.752   5.461
 2360TIP3    H2 7024   2.835   5.679   5.466
 2361TIP3   OH2 7025   3.232   4.840   1.086
 2361TIP3    H1 7026   3.137   4.838   1.075
 2361TIP3    H2 7027   3.256   4.751   1.112
 2362TIP3   OH2 7028   1.224   4.306   2.495
 2362TIP3    H1 7029   1.152   4.348   2.543
 2362TIP3    H2 7030   1.245   4.228   2.546
 2363TIP3   OH2 7031   4.062   3.841   3.458
 2363TIP3    H1 7032   4.126   3.863   3.391
 2363TIP3    H2 7033   3.980   3.881   3.429
 2364TIP3   OH2 7034   6.382   5.511   2.550
 2364TIP3    H1 7035   6.457   5.486   2.496
 2364TIP3    H2 7036   6.306   5.493   2.495
 2365TIP3   OH2 7037   4.246   1.417   4.472
 2365TIP3    H1 7038   4.153   1.402   4.492
 2365TIP3    H2 7039   4.247   1.500   4.424
 2366TIP3   OH2 7040   2.621   5.977   6.489
 2366TIP3    H1 7041   2.678   5.964   6.565
 2366TIP3    H2 7042   2.597   6.069   6.492
 2367TIP3   OH2 7043   4.971   6.122   6.078
 2367TIP3    H1 7044   4.909   6.145   6.148
 2367TIP3    H2 7045   5.047   6.177   6.096
 2368TIP3   OH2 7046   1.652   1.584   2.023
 2368TIP3    H1 7047   1.673   1.571   1.931
 2368TIP3    H2 7048   1.670   1.677   2.039
 2369TIP3   OH2 7049   2.520   5.030   2.979
 2369TIP3    H1 7050   2.489   5.032   2.888
 2369TIP3    H2 7051   2.514   4.938   3.005
 2370TIP3   OH2 7052   2.479   1.313   0.039
 2370TIP3    H1 7053   2.483   1.223   0.071
 2370TIP3    H2 7054   2.392   1.344   0.066
 2371TIP3   OH2 7055   6.094   3.405   5.478
 2371TIP3    H1 7056   6.061   3.485   5.520
 2371TIP3    H2 7057   6.033   3.337   5.505
 2372TIP3   OH2 7058   2.264   2.997   0.381
 2372TIP3    H1 7059   2.213   3.033   0.309
 2372TIP3    H2 7060   2.215   3.022   0.460
 2373TIP3   OH2 7061   7.899   1.925   4.339
 2373TIP3    H1 7062   7.876   1.834   4.322
 2373TIP3    H2 7063   7.896   1.966   4.252
 2374TIP3   OH2 7064   1.519   0.804   4.613
 2374TIP3    H1 7065   1.510   0.833   4.522
 2374TIP3    H2 7066   1.488   0.879   4.665
 2375TIP3   OH2 7067   6.433   4.132   0.218
 2375TIP3    H1 7068   6.366   4.176   0.165
 2375TIP3    H2 7069   6.405   4.146   0.309
 2376TIP3   OH2 7070   1.442   4.383   3.565
 2376TIP3    H1 7071   1.479   4.421   3.644
 2376TIP3    H2 7072   1.441   4.289   3.583
 2377TIP3   OH2 7073   2.752   6.078   6.184
 2377TIP3    H1 7074   2.843   6.090   6.156
 2377TIP3    H2 7075   2.716   6.166   6.184
 2378TIP3   OH2 7076   0.044   6.944   1.367
 2378TIP3    H1 7077   0.138   6.927   1.361
 2378TIP3    H2 7078   0.017   6.960   1.277
 2379TIP3   OH2 7079   4.605   0.982   0.881
 2379TIP3    H1 7080   4.615   0.889   0.859
 2379TIP3    H2 7081   4.531   1.011   0.829
 2380TIP3   OH2 7082   0.517   0.213   4.306
 2380TIP3    H1 7083   0.519   0.118   4.299
 2380TIP3    H2 7084   0.550   0.232   4.393
 2381TIP3   OH2 7085   5.051   5.388   0.242
 2381TIP3    H1 7086   5.022   5.479   0.249
 2381TIP3    H2 7087   5.002   5.342   0.310
 2382TIP3   OH2 7088   5.060   5.416   3.424
 2382TIP3    H1 7089   5.012   5.333   3.415
 2382TIP3    H2 7090   5.120   5.401   3.498
 2383TIP3   OH2 7091   1.286   5.654   4.235
 2383TIP3    H1 7092   1.250   5.650   4.324
 2383TIP3    H2 7093   1.336   5.736   4.234
 2384TIP3   OH2 7094   7.388   0.443   6.108
 2384TIP3    H1 7095   7.419   0.358   6.139
 2384TIP3    H2 7096   7.378   0.432   6.013
 2385TIP3   OH2 7097   4.711   4.247   1.715
 2385TIP3    H1 7098   4.763   4.312   1.668
 2385TIP3    H2 7099   4.630   4.294   1.739
 2386TIP3   OH2 7100   2.319   3.795   5.513
 2386TIP3    H1 7101   2.340   3.702   5.522
 2386TIP3    H2 7102   2.298   3.806   5.420
 2387TIP3   OH2 7103   5.611   7.785   2.440
 2387TIP3    H1 7104   5.648   7.776   2.527
 2387TIP3    H2 7105   5.563   7.703   2.425
 2388TIP3   OH2 7106   1.698   2.773   4.958
 2388TIP3    H1 7107   1.785   2.732   4.957
 2388TIP3    H2 7108   1.666   2.761   4.868
 2389TIP3   OH2 7109   0.198   7.344   2.941
 2389TIP3    H1 7110   0.106   7.366   2.928
 2389TIP3    H2 7111   0.241   7.430   2.950
 2390TIP3   OH2 7112   7.068   3.180   2.164
 2390TIP3    H1 7113   7.104   3.145   2.246
 2390TIP3    H2 7114   7.048   3.271   2.183
 2391TIP3   OH2 7115   2.030   3.710   3.185
 2391TIP3    H1 7116   2.112   3.747   3.218
 2391TIP3    H2 7117   2.045   3.697   3.091
 2392TIP3   OH2 7118   2.544   6.509   4.057
 2392TIP3    H1 7119   2.606   6.575   4.026
 2392TIP3    H2 7120   2.504   6.548   4.135
 2393TIP3   OH2 7121   3.325   5.476   0.431
 2393TIP3    H1 7122   3.259   5.406   0.433
 2393TIP3    H2 7123   3.318   5.513   0.343
 2394TIP3   OH2 7124   6.120   0.525   3.572
 2394TIP3    H1 7125   6.074   0.606   3.596
 2394TIP3    H2 7126   6.186   0.553   3.509
 2395TIP3   OH2 7127   1.586   3.174   1.098
 2395TIP3    H1 7128   1.525   3.100   1.102
 2395TIP3    H2 7129   1.660   3.146   1.151
 2396TIP3   OH2 7130   6.660   2.758   3.274
 2396TIP3    H1 7131   6.733   2.818   3.259
 2396TIP3    H2 7132   6.702   2.676   3.300
 2397TIP3   OH2 7133   2.252   5.651   6.105
 2397TIP3    H1 7134   2.296   5.638   6.189
 2397TIP3    H2 7135   2.323   5.648   6.041
 2398TIP3   OH2 7136   6.611   0.497   0.388
 2398TIP3    H1 7137   6.572   0.531   0.308
 2398TIP3    H2 7138   6.704   0.491   0.370
 2399TIP3   OH2 7139   1.874   3.290   4.659
 2399TIP3    H1 7140   1.846   3.260   4.745
 2399TIP3    H2 7141   1.917   3.374   4.675
 2400TIP3   OH2 7142   1.665   3.970   5.854
 2400TIP3    H1 7143   1.715   4.044   5.889
 2400TIP3    H2 7144   1.575   4.001   5.853
 2401TIP3   OH2 7145   0.826   7.260   2.083
 2401TIP3    H1 7146   0.749   7.232   2.134
 2401TIP3    H2 7147   0.836   7.191   2.017
 2402TIP3   OH2 7148   7.599   1.116   1.681
 2402TIP3    H1 7149   7.658   1.176   1.726
 2402TIP3    H2 7150   7.607   1.139   1.589
 2403TIP3   OH2 7151   3.556   6.570   5.114
 2403TIP3    H1 7152   3.486   6.514   5.149
 2403TIP3    H2 7153   3.614   6.586   5.189
 2404TIP3   OH2 7154   3.962   3.386   6.115
 2404TIP3    H1 7155   4.000   3.464   6.155
 2404TIP3    H2 7156   3.868   3.406   6.108
 2405TIP3   OH2 7157   4.308   2.770   6.359
 2405TIP3    H1 7158   4.227   2.819   6.370
 2405TIP3    H2 7159   4.279   2.679   6.346
 2406TIP3   OH2 7160   6.948   0.486   2.401
 2406TIP3    H1 7161   6.922   0.553   2.337
 2406TIP3    H2 7162   7.029   0.449   2.366
 2407TIP3   OH2 7163   3.915   0.188   0.163
 2407TIP3    H1 7164   3.892   0.242   0.238
 2407TIP3    H2 7165   3.880   0.236   0.088
 2408TIP3   OH2 7166   7.623   3.877   5.116
 2408TIP3    H1 7167   7.622   3.958   5.066
 2408TIP3    H2 7168   7.715   3.851   5.118
 2409TIP3   OH2 7169   5.761   0.897   3.716
 2409TIP3    H1 7170   5.681   0.845   3.726
 2409TIP3    H2 7171   5.753   0.936   3.629
 2410TIP3   OH2 7172   2.515   1.222   4.767
 2410TIP3    H1 7173   2.425   1.206   4.795
 2410TIP3    H2 7174   2.520   1.317   4.756
 2411TIP3   OH2 7175   1.434   2.282   4.326
 2411TIP3    H1 7176   1.361   2.221   4.333
 2411TIP3    H2 7177   1.456   2.304   4.417
 2412TIP3   OH2 7178   6.142   1.610   0.861
 2412TIP3    H1 7179   6.202   1.607   0.787
 2412TIP3    H2 7180   6.194   1.579   0.935
 2413TIP3   OH2 7181   6.880   2.423   1.438
 2413TIP3    H1 7182   6.818   2.377   1.494
 2413TIP3    H2 7183   6.887   2.368   1.360
 2414TIP3   OH2 7184   6.792   3.688   4.486
 2414TIP3    H1 7185   6.885   3.673   4.467
 2414TIP3    H2 7186   6.790   3.709   4.579
 2415TIP3   OH2 7187   6.388   5.904   3.326
 2415TIP3    H1 7188   6.325   5.938   3.262
 2415TIP3    H2 7189   6.468   5.890   3.275
 2416TIP3   OH2 7190   1.530   1.707   4.984
 2416TIP3    H1 7191   1.550   1.783   4.930
 2416TIP3    H2 7192   1.521   1.634   4.922
 2417TIP3   OH2 7193   6.915   6.124   6.391
 2417TIP3    H1 7194   6.942   6.144   6.480
 2417TIP3    H2 7195   6.833   6.173   6.379
 2418TIP3   OH2 7196   5.518   5.147   1.774
 2418TIP3    H1 7197   5.601   5.171   1.815
 2418TIP3    H2 7198   5.486   5.229   1.734
 2419TIP3   OH2 7199   0.165   6.555   2.617
 2419TIP3    H1 7200   0.076   6.589   2.613
 2419TIP3    H2 7201   0.221   6.633   2.622
 2420TIP3   OH2 7202   8.129   1.384   3.130
 2420TIP3    H1 7203   8.096   1.460   3.083
 2420TIP3    H2 7204   8.057   1.355   3.185
 2421TIP3   OH2 7205   2.151   5.547   1.767
 2421TIP3    H1 7206   2.082   5.495   1.725
 2421TIP3    H2 7207   2.136   5.636   1.734
 2422TIP3   OH2 7208   3.412   6.767   0.172
 2422TIP3    H1 7209   3.329   6.814   0.181
 2422TIP3    H2 7210   3.479   6.836   0.172
 2423TIP3   OH2 7211   1.470   2.308   2.787
 2423TIP3    H1 7212   1.408   2.251   2.833
 2423TIP3    H2 7213   1.415   2.358   2.727
 2424TIP3   OH2 7214   4.445   1.772   1.686
 2424TIP3    H1 7215   4.383   1.767   1.759
 2424TIP3    H2 7216   4.507   1.840   1.713
 2425TIP3   OH2 7217   7.237   5.958   3.680
 2425TIP3    H1 7218   7.260   5.954   3.587
 2425TIP3    H2 7219   7.213   5.868   3.703
 2426TIP3   OH2 7220   1.722   4.681   0.958
 2426TIP3    H1 7221   1.744   4.620   0.888
 2426TIP3    H2 7222   1.664   4.745   0.917
 2427TIP3   OH2 7223   1.093   3.532   1.038
 2427TIP3    H1 7224   1.044   3.591   1.096
 2427TIP3    H2 7225   1.034   3.517   0.964
 2428TIP3   OH2 7226   0.283   7.257   3.184
 2428TIP3    H1 7227   0.259   7.264   3.091
 2428TIP3    H2 7228   0.202   7.236   3.229
 2429TIP3   OH2 7229   0.763   5.231   1.210
 2429TIP3    H1 7230   0.841   5.175   1.203
 2429TIP3    H2 7231   0.743   5.233   1.303
 2430TIP3   OH2 7232   5.916   0.384   5.739
 2430TIP3    H1 7233   6.008   0.407   5.747
 2430TIP3    H2 7234   5.870   0.446   5.796
 2431TIP3   OH2 7235   5.919   7.381   5.567
 2431TIP3    H1 7236   5.891   7.297   5.604
 2431TIP3    H2 7237   5.981   7.358   5.498
 2432TIP3   OH2 7238   0.094   0.941   4.749
 2432TIP3    H1 7239   0.005   0.910   4.762
 2432TIP3    H2 7240   0.124   0.894   4.671
 2433TIP3   OH2 7241   0.781   1.505   4.668
 2433TIP3    H1 7242   0.801   1.544   4.583
 2433TIP3    H2 7243   0.701   1.454   4.653
 2434TIP3   OH2 7244   7.178   4.641   2.899
 2434TIP3    H1 7245   7.148   4.726   2.868
 2434TIP3    H2 7246   7.143   4.633   2.987
 2435TIP3   OH2 7247   7.037   2.505   5.385
 2435TIP3    H1 7248   6.985   2.531   5.461
 2435TIP3    H2 7249   6.991   2.542   5.310
 2436TIP3   OH2 7250   5.121   7.370   3.356
 2436TIP3    H1 7251   5.164   7.388   3.273
 2436TIP3    H2 7252   5.064   7.445   3.371
 2437TIP3   OH2 7253   7.826   2.691   5.459
 2437TIP3    H1 7254   7.732   2.709   5.456
 2437TIP3    H2 7255   7.866   2.774   5.483
 2438TIP3   OH2 7256   6.191   3.280   1.878
 2438TIP3    H1 7257   6.230   3.217   1.818
 2438TIP3    H2 7258   6.261   3.344   1.894
 2439TIP3   OH2 7259   7.826   6.912   2.337
 2439TIP3    H1 7260   7.856   6.941   2.251
 2439TIP3    H2 7261   7.760   6.845   2.318
 2440TIP3   OH2 7262   4.899   1.528   5.941
 2440TIP3    H1 7263   4.866   1.471   6.010
 2440TIP3    H2 7264   4.822   1.578   5.913
 2441TIP3   OH2 7265   3.409   2.353   2.424
 2441TIP3    H1 7266   3.449   2.269   2.403
 2441TIP3    H2 7267   3.455   2.417   2.370
 2442TIP3   OH2 7268   4.633   5.073   3.694
 2442TIP3    H1 7269   4.706   5.129   3.722
 2442TIP3    H2 7270   4.573   5.074   3.768
 2443TIP3   OH2 7271   5.151   6.703   2.073
 2443TIP3    H1 7272   5.201   6.755   2.011
 2443TIP3    H2 7273   5.064   6.695   2.034
 2444TIP3   OH2 7274   7.481   1.701   4.722
 2444TIP3    H1 7275   7.415   1.708   4.792
 2444TIP3    H2 7276   7.462   1.776   4.665
 2445TIP3   OH2 7277   3.625   7.197   4.299
 2445TIP3    H1 7278   3.709   7.182   4.340
 2445TIP3    H2 7279   3.644   7.257   4.226
 2446TIP3   OH2 7280   2.392   4.128   1.949
 2446TIP3    H1 7281   2.303   4.164   1.955
 2446TIP3    H2 7282   2.421   4.149   1.860
 2447TIP3   OH2 7283   5.629   2.050   6.710
 2447TIP3    H1 7284   5.638   1.981   6.645
 2447TIP3    H2 7285   5.663   2.011   6.791
 2448TIP3   OH2 7286   5.593   6.562   2.245
 2448TIP3    H1 7287   5.500   6.580   2.251
 2448TIP3    H2 7288   5.600   6.468   2.260
 2449TIP3   OH2 7289   0.438   5.953   0.452
 2449TIP3    H1 7290   0.530   5.976   0.436
 2449TIP3    H2 7291   0.422   5.879   0.393
 2450TIP3   OH2 7292   6.842   7.017   0.059
 2450TIP3    H1 7293   6.879   7.093   0.104
 2450TIP3    H2 7294   6.876   7.023  -0.030
 2451TIP3   OH2 7295   1.701   0.781   4.269
 2451TIP3    H1 7296   1.649   0.711   4.308
 2451TIP3    H2 7297   1.788   0.770   4.309
 2452TIP3   OH2 7298   3.246   4.062   3.304
 2452TIP3    H1 7299   3.312   4.091   3.367
 2452TIP3    H2 7300   3.274   4.100   3.220
 2453TIP3   OH2 7301   1.193   7.219   3.715
 2453TIP3    H1 7302   1.156   7.307   3.724
 2453TIP3    H2 7303   1.130   7.161   3.758
 2454TIP3   OH2 7304   6.949   3.339   6.299
 2454TIP3    H1 7305   6.969   3.382   6.216
 2454TIP3    H2 7306   6.912   3.408   6.354
 2455TIP3   OH2 7307   6.063   0.316   3.176
 2455TIP3    H1 7308   6.002   0.324   3.102
 2455TIP3    H2 7309   6.012   0.343   3.252
 2456TIP3   OH2 7310   0.140   5.192   6.742
 2456TIP3    H1 7311   0.115   5.221   6.830
 2456TIP3    H2 7312   0.197   5.261   6.709
 2457TIP3   OH2 7313   4.981   7.649   5.170
 2457TIP3    H1 7314   4.996   7.589   5.097
 2457TIP3    H2 7315   5.062   7.646   5.221
 2458TIP3   OH2 7316   3.702   6.289   3.072
 2458TIP3    H1 7317   3.717   6.201   3.105
 2458TIP3    H2 7318   3.629   6.279   3.011
 2459TIP3   OH2 7319   2.817   6.235   5.267
 2459TIP3    H1 7320   2.845   6.144   5.252
 2459TIP3    H2 7321   2.731   6.226   5.308
 2460TIP3   OH2 7322   2.973   6.835   1.839
 2460TIP3    H1 7323   2.903   6.858   1.778
 2460TIP3    H2 7324   3.054   6.863   1.795
 2461TIP3   OH2 7325   1.821   6.901   3.916
 2461TIP3    H1 7326   1.803   6.960   3.842
 2461TIP3    H2 7327   1.915   6.909   3.930
 2462TIP3   OH2 7328   3.820   7.083   1.061
 2462TIP3    H1 7329   3.834   7.046   0.974
 2462TIP3    H2 7330   3.906   7.115   1.088
 2463TIP3   OH2 7331   6.675   4.039   3.260
 2463TIP3    H1 7332   6.625   4.103   3.210
 2463TIP3    H2 7333   6.622   3.960   3.260
 2464TIP3   OH2 7334   5.905   6.067   1.176
 2464TIP3    H1 7335   5.942   6.006   1.112
 2464TIP3    H2 7336   5.880   6.012   1.250
 2465TIP3   OH2 7337   3.800   7.383   5.738
 2465TIP3    H1 7338   3.867   7.349   5.679
 2465TIP3    H2 7339   3.806   7.327   5.816
 2466TIP3   OH2 7340   1.382   2.105   5.843
 2466TIP3    H1 7341   1.398   2.169   5.912
 2466TIP3    H2 7342   1.453   2.041   5.853
 2467TIP3   OH2 7343   6.384  -0.007   5.475
 2467TIP3    H1 7344   6.389  -0.027   5.569
 2467TIP3    H2 7345   6.300   0.039   5.465
 2468TIP3   OH2 7346   6.495   0.198   6.440
 2468TIP3    H1 7347   6.513   0.108   6.414
 2468TIP3    H2 7348   6.438   0.191   6.517
 2469TIP3   OH2 7349   4.594   4.066   3.838
 2469TIP3    H1 7350   4.524   4.001   3.845
 2469TIP3    H2 7351   4.575   4.130   3.907
 2470TIP3   OH2 7352   3.592   0.834   5.690
 2470TIP3    H1 7353   3.590   0.871   5.601
 2470TIP3    H2 7354   3.504   0.801   5.704
 2471TIP3   OH2 7355   6.344   6.315   2.285
 2471TIP3    H1 7356   6.268   6.372   2.298
 2471TIP3    H2 7357   6.342   6.256   2.361
 2472TIP3   OH2 7358   0.262   4.874   1.605
 2472TIP3    H1 7359   0.278   4.833   1.691
 2472TIP3    H2 7360   0.325   4.831   1.547
 2473TIP3   OH2 7361   6.028   4.551   2.366
 2473TIP3    H1 7362   5.976   4.470   2.361
 2473TIP3    H2 7363   6.107   4.532   2.316
 2474TIP3   OH2 7364   6.322   2.429   6.688
 2474TIP3    H1 7365   6.262   2.481   6.741
 2474TIP3    H2 7366   6.406   2.434   6.734
 2475TIP3   OH2 7367   7.181   1.327   2.849
 2475TIP3    H1 7368   7.252   1.263   2.845
 2475TIP3    H2 7369   7.225   1.411   2.864
 2476TIP3   OH2 7370   3.903   0.576   6.655
 2476TIP3    H1 7371   3.983   0.586   6.604
 2476TIP3    H2 7372   3.833   0.600   6.594
 2477TIP3   OH2 7373   4.122   0.360   0.354
 2477TIP3    H1 7374   4.187   0.396   0.294
 2477TIP3    H2 7375   4.113   0.268   0.327
 2478TIP3   OH2 7376   7.993   1.862   2.616
 2478TIP3    H1 7377   8.013   1.830   2.529
 2478TIP3    H2 7378   8.028   1.951   2.618
 2479TIP3   OH2 7379   0.797   7.547   5.371
 2479TIP3    H1 7380   0.746   7.503   5.303
 2479TIP3    H2 7381   0.754   7.631   5.384
 2480TIP3   OH2 7382   4.605   2.927   1.143
 2480TIP3    H1 7383   4.692   2.936   1.183
 2480TIP3    H2 7384   4.545   2.953   1.213
 2481TIP3   OH2 7385   7.641   1.117   5.375
 2481TIP3    H1 7386   7.559   1.151   5.339
 2481TIP3    H2 7387   7.673   1.187   5.432
 2482TIP3   OH2 7388   5.905   1.909   5.529
 2482TIP3    H1 7389   5.962   1.925   5.604
 2482TIP3    H2 7390   5.863   1.993   5.512
 2483TIP3   OH2 7391   4.081   0.579   1.484
 2483TIP3    H1 7392   4.043   0.513   1.427
 2483TIP3    H2 7393   4.169   0.593   1.449
 2484TIP3   OH2 7394   4.258   2.154   6.742
 2484TIP3    H1 7395   4.344   2.170   6.702
 2484TIP3    H2 7396   4.196   2.174   6.673
 2485TIP3   OH2 7397   8.258   4.786   1.950
 2485TIP3    H1 7398   8.286   4.787   2.042
 2485TIP3    H2 7399   8.314   4.720   1.909
 2486TIP3   OH2 7400   1.590   1.949   4.863
 2486TIP3    H1 7401   1.685   1.953   4.860
 2486TIP3    H2 7402   1.564   2.024   4.918
 2487TIP3   OH2 7403   4.235   6.065   2.141
 2487TIP3    H1 7404   4.249   5.972   2.158
 2487TIP3    H2 7405   4.257   6.075   2.048
 2488TIP3   OH2 7406   2.923   5.123   6.463
 2488TIP3    H1 7407   2.840   5.169   6.447
 2488TIP3    H2 7408   2.990   5.189   6.446
 2489TIP3   OH2 7409   2.456   6.707   5.551
 2489TIP3    H1 7410   2.524   6.673   5.608
 2489TIP3    H2 7411   2.383   6.727   5.610
 2490TIP3   OH2 7412   1.883   0.986   0.510
 2490TIP3    H1 7413   1.927   1.038   0.443
 2490TIP3    H2 7414   1.795   0.971   0.476
 2491TIP3   OH2 7415   7.442   0.841   3.120
 2491TIP3    H1 7416   7.377   0.774   3.099
 2491TIP3    H2 7417   7.516   0.793   3.158
 2492TIP3   OH2 7418   3.659   4.482   1.822
 2492TIP3    H1 7419   3.733   4.507   1.767
 2492TIP3    H2 7420   3.602   4.432   1.763
 2493TIP3   OH2 7421   3.396   5.244   3.757
 2493TIP3    H1 7422   3.491   5.246   3.756
 2493TIP3    H2 7423   3.370   5.230   3.666
 2494TIP3   OH2 7424   6.226   6.787   6.432
 2494TIP3    H1 7425   6.242   6.719   6.498
 2494TIP3    H2 7426   6.305   6.786   6.377
 2495TIP3   OH2 7427   6.399   3.988   4.798
 2495TIP3    H1 7428   6.432   4.078   4.790
 2495TIP3    H2 7429   6.455   3.937   4.740
 2496TIP3   OH2 7430   7.711   1.624   0.924
 2496TIP3    H1 7431   7.737   1.609   0.833
 2496TIP3    H2 7432   7.765   1.699   0.952
 2497TIP3   OH2 7433   6.715   2.026   5.610
 2497TIP3    H1 7434   6.784   2.013   5.545
 2497TIP3    H2 7435   6.638   2.051   5.559
 2498TIP3   OH2 7436   6.979   5.186   1.224
 2498TIP3    H1 7437   7.070   5.210   1.208
 2498TIP3    H2 7438   6.933   5.269   1.229
 2499TIP3   OH2 7439   0.170   1.268   0.693
 2499TIP3    H1 7440   0.181   1.228   0.779
 2499TIP3    H2 7441   0.258   1.275   0.658
 2500TIP3   OH2 7442   2.860   6.344   0.064
 2500TIP3    H1 7443   2.772   6.360   0.097
 2500TIP3    H2 7444   2.917   6.394   0.124
 2501TIP3   OH2 7445   5.405   1.809   2.841
 2501TIP3    H1 7446   5.344   1.879   2.816
 2501TIP3    H2 7447   5.492   1.847   2.830
 2502TIP3   OH2 7448   7.033   7.402   4.958
 2502TIP3    H1 7449   6.947   7.442   4.965
 2502TIP3    H2 7450   7.015   7.308   4.946
 2503TIP3   OH2 7451   5.837   3.710   4.458
 2503TIP3    H1 7452   5.769   3.686   4.395
 2503TIP3    H2 7453   5.901   3.638   4.453
 2504TIP3   OH2 7454   7.086   6.465   0.182
 2504TIP3    H1 7455   6.993   6.480   0.197
 2504TIP3    H2 7456   7.095   6.369   0.180
 2505TIP3   OH2 7457   1.754   2.563   6.045
 2505TIP3    H1 7458   1.793   2.648   6.065
 2505TIP3    H2 7459   1.779   2.507   6.119
 2506TIP3   OH2 7460   4.175   3.074   3.132
 2506TIP3    H1 7461   4.155   3.131   3.206
 2506TIP3    H2 7462   4.227   3.003   3.170
 2507TIP3   OH2 7463   0.808   3.267   5.382
 2507TIP3    H1 7464   0.845   3.185   5.415
 2507TIP3    H2 7465   0.875   3.302   5.324
 2508TIP3   OH2 7466   0.283   5.772   0.630
 2508TIP3    H1 7467   0.368   5.797   0.667
 2508TIP3    H2 7468   0.226   5.846   0.651
 2509TIP3   OH2 7469   0.404   3.201   2.926
 2509TIP3    H1 7470   0.338   3.194   2.995
 2509TIP3    H2 7471   0.412   3.295   2.910
 2510TIP3   OH2 7472   1.001   0.568   1.001
 2510TIP3    H1 7473   0.973   0.487   0.958
 2510TIP3    H2 7474   0.963   0.637   0.947
 2511TIP3   OH2 7475   5.879   0.881   4.776
 2511TIP3    H1 7476   5.903   0.969   4.746
 2511TIP3    H2 7477   5.891   0.884   4.871
 2512TIP3   OH2 7478   4.913   6.182   3.931
 2512TIP3    H1 7479   4.985   6.198   3.992
 2512TIP3    H2 7480   4.951   6.126   3.863
 2513TIP3   OH2 7481   2.226   3.831   4.724
 2513TIP3    H1 7482   2.196   3.794   4.808
 2513TIP3    H2 7483   2.155   3.810   4.663
 2514TIP3   OH2 7484   5.358   2.312   6.003
 2514TIP3    H1 7485   5.383   2.220   6.012
 2514TIP3    H2 7486   5.345   2.325   5.910
 2515TIP3   OH2 7487   8.049   2.418   4.745
 2515TIP3    H1 7488   8.067   2.438   4.837
 2515TIP3    H2 7489   8.049   2.503   4.702
 2516TIP3   OH2 7490   0.211   3.128   0.344
 2516TIP3    H1 7491   0.301   3.124   0.311
 2516TIP3    H2 7492   0.183   3.037   0.351
 2517TIP3   OH2 7493   6.810   1.546   3.064
 2517TIP3    H1 7494   6.791   1.573   2.975
 2517TIP3    H2 7495   6.812   1.628   3.114
 2518TIP3   OH2 7496   4.246   1.764   5.904
 2518TIP3    H1 7497   4.169   1.711   5.923
 2518TIP3    H2 7498   4.274   1.797   5.989
 2519TIP3   OH2 7499   5.870   4.248   5.422
 2519TIP3    H1 7500   5.818   4.269   5.345
 2519TIP3    H2 7501   5.806   4.237   5.493
 2520TIP3   OH2 7502   5.746   5.508   3.754
 2520TIP3    H1 7503   5.682   5.450   3.712
 2520TIP3    H2 7504   5.754   5.582   3.694
 2521TIP3   OH2 7505   4.479   4.573   5.104
 2521TIP3    H1 7506   4.449   4.496   5.153
 2521TIP3    H2 7507   4.562   4.545   5.066
 2522TIP3   OH2 7508   3.601   6.566   6.035
 2522TIP3    H1 7509   3.685   6.579   6.080
 2522TIP3    H2 7510   3.607   6.478   5.999
 2523TIP3   OH2 7511   2.617   3.341   5.521
 2523TIP3    H1 7512   2.529   3.360   5.487
 2523TIP3    H2 7513   2.647   3.266   5.470
 2524TIP3   OH2 7514   0.650   5.318   6.515
 2524TIP3    H1 7515   0.745   5.309   6.526
 2524TIP3    H2 7516   0.639   5.398   6.463
 2525TIP3   OH2 7517   1.141   2.853   3.402
 2525TIP3    H1 7518   1.137   2.809   3.487
 2525TIP3    H2 7519   1.159   2.945   3.424
 2526TIP3   OH2 7520   1.926   2.628   4.902
 2526TIP3    H1 7521   1.921   2.541   4.941
 2526TIP3    H2 7522   2.005   2.626   4.848
 2527TIP3   OH2 7523   5.016   3.021   0.283
 2527TIP3    H1 7524   4.946   2.964   0.313
 2527TIP3    H2 7525   4.971   3.097   0.247
 2528TIP3   OH2 7526   3.960   0.968   0.222
 2528TIP3    H1 7527   3.876   0.924   0.233
 2528TIP3    H2 7528   4.011   0.943   0.298
 2529TIP3   OH2 7529   6.793   5.617   4.350
 2529TIP3    H1 7530   6.808   5.678   4.423
 2529TIP3    H2 7531   6.881   5.592   4.321
 2530TIP3   OH2 7532   1.932   1.148   3.429
 2530TIP3    H1 7533   1.848   1.193   3.418
 2530TIP3    H2 7534   1.918   1.061   3.393
 2531TIP3   OH2 7535   1.011   1.107   1.212
 2531TIP3    H1 7536   0.995   1.134   1.122
 2531TIP3    H2 7537   0.945   1.041   1.230
 2532TIP3   OH2 7538   1.816   0.810   2.172
 2532TIP3    H1 7539   1.807   0.901   2.142
 2532TIP3    H2 7540   1.755   0.761   2.118
 2533TIP3   OH2 7541   1.172   7.071   1.626
 2533TIP3    H1 7542   1.170   6.978   1.650
 2533TIP3    H2 7543   1.148   7.073   1.534
 2534TIP3   OH2 7544   6.903   3.567   1.226
 2534TIP3    H1 7545   6.928   3.584   1.317
 2534TIP3    H2 7546   6.946   3.637   1.176
 2535TIP3   OH2 7547   7.108   2.537   0.682
 2535TIP3    H1 7548   7.092   2.481   0.606
 2535TIP3    H2 7549   7.149   2.616   0.645
 2536TIP3   OH2 7550   3.128   1.530   4.058
 2536TIP3    H1 7551   3.083   1.612   4.079
 2536TIP3    H2 7552   3.124   1.524   3.962
 2537TIP3   OH2 7553   5.893   2.805   6.762
 2537TIP3    H1 7554   5.915   2.897   6.748
 2537TIP3    H2 7555   5.822   2.788   6.699
 2538TIP3   OH2 7556   6.564   7.532  -0.015
 2538TIP3    H1 7557   6.516   7.482   0.050
 2538TIP3    H2 7558   6.653   7.539   0.019
 2539TIP3   OH2 7559   0.594   6.083   2.877
 2539TIP3    H1 7560   0.614   6.175   2.892
 2539TIP3    H2 7561   0.546   6.082   2.794
 2540TIP3   OH2 7562   1.370   2.049   4.697
 2540TIP3    H1 7563   1.318   2.114   4.744
 2540TIP3    H2 7564   1.449   2.039   4.748
 2541TIP3   OH2 7565   5.420   4.259   0.363
 2541TIP3    H1 7566   5.432   4.193   0.295
 2541TIP3    H2 7567   5.480   4.233   0.433
 2542TIP3   OH2 7568   4.913   5.321   1.343
 2542TIP3    H1 7569   4.848   5.313   1.413
 2542TIP3    H2 7570   4.868   5.371   1.275
 2543TIP3   OH2 7571   6.121   6.415   2.684
 2543TIP3    H1 7572   6.067   6.338   2.668
 2543TIP3    H2 7573   6.078   6.486   2.636
 2544TIP3   OH2 7574   5.959   1.212   0.118
 2544TIP3    H1 7575   5.924   1.197   0.206
 2544TIP3    H2 7576   6.043   1.167   0.118
 2545TIP3   OH2 7577   1.831   2.536   0.842
 2545TIP3    H1 7578   1.853   2.629   0.840
 2545TIP3    H2 7579   1.858   2.507   0.929
 2546TIP3   OH2 7580   2.384   0.966   1.912
 2546TIP3    H1 7581   2.442   0.920   1.973
 2546TIP3    H2 7582   2.436   0.974   1.832
 2547TIP3   OH2 7583   6.367   2.476   2.252
 2547TIP3    H1 7584   6.446   2.429   2.223
 2547TIP3    H2 7585   6.337   2.522   2.173
 2548TIP3   OH2 7586   8.117   5.270   4.826
 2548TIP3    H1 7587   8.212   5.266   4.830
 2548TIP3    H2 7588   8.093   5.216   4.751
 2549TIP3   OH2 7589   5.533   5.397   6.111
 2549TIP3    H1 7590   5.594   5.443   6.168
 2549TIP3    H2 7591   5.589   5.341   6.057
 2550TIP3   OH2 7592   3.151   3.497   2.675
 2550TIP3    H1 7593   3.058   3.515   2.692
 2550TIP3    H2 7594   3.152   3.409   2.638
 2551TIP3   OH2 7595   0.546   5.761   0.835
 2551TIP3    H1 7596   0.597   5.679   0.831
 2551TIP3    H2 7597   0.502   5.758   0.920
 2552TIP3   OH2 7598   7.476   5.980   2.042
 2552TIP3    H1 7599   7.548   6.015   1.990
 2552TIP3    H2 7600   7.516   5.909   2.093
 2553TIP3   OH2 7601   6.987   7.675   6.219
 2553TIP3    H1 7602   6.997   7.596   6.166
 2553TIP3    H2 7603   7.050   7.737   6.182
 2554TIP3   OH2 7604   7.499   3.148   2.849
 2554TIP3    H1 7605   7.568   3.176   2.909
 2554TIP3    H2 7606   7.534   3.166   2.762
 2555TIP3   OH2 7607   6.071   6.374   1.457
 2555TIP3    H1 7608   6.165   6.377   1.472
 2555TIP3    H2 7609   6.034   6.437   1.520
 2556TIP3   OH2 7610   0.263   3.972   4.376
 2556TIP3    H1 7611   0.231   4.016   4.298
 2556TIP3    H2 7612   0.273   3.880   4.350
 2557TIP3   OH2 7613   2.261   0.276   5.170
 2557TIP3    H1 7614   2.191   0.225   5.128
 2557TIP3    H2 7615   2.325   0.290   5.101
 2558TIP3   OH2 7616   7.940   3.381   1.747
 2558TIP3    H1 7617   7.848   3.400   1.767
 2558TIP3    H2 7618   7.937   3.316   1.677
 2559TIP3   OH2 7619   3.697   2.425   5.111
 2559TIP3    H1 7620   3.737   2.432   5.198
 2559TIP3    H2 7621   3.636   2.499   5.108
 2560TIP3   OH2 7622   2.289   6.683   3.164
 2560TIP3    H1 7623   2.276   6.623   3.091
 2560TIP3    H2 7624   2.223   6.751   3.150
 2561TIP3   OH2 7625   0.221   1.912   1.216
 2561TIP3    H1 7626   0.256   1.824   1.202
 2561TIP3    H2 7627   0.266   1.943   1.295
 2562TIP3   OH2 7628   0.112   5.740   3.138
 2562TIP3    H1 7629   0.187   5.785   3.100
 2562TIP3    H2 7630   0.150   5.675   3.197
 2563TIP3   OH2 7631   1.700   4.480   4.610
 2563TIP3    H1 7632   1.766   4.432   4.659
 2563TIP3    H2 7633   1.617   4.459   4.653
 2564TIP3   OH2 7634   7.539   1.173   0.211
 2564TIP3    H1 7635   7.601   1.150   0.141
 2564TIP3    H2 7636   7.563   1.262   0.235
 2565TIP3   OH2 7637   6.404   4.018   2.805
 2565TIP3    H1 7638   6.450   4.001   2.723
 2565TIP3    H2 7639   6.316   3.984   2.791
 2566TIP3   OH2 7640   7.629   1.982   5.674
 2566TIP3    H1 7641   7.570   2.054   5.652
 2566TIP3    H2 7642   7.587   1.905   5.635
 2567TIP3   OH2 7643   4.191   2.358   5.492
 2567TIP3    H1 7644   4.179   2.451   5.472
 2567TIP3    H2 7645   4.196   2.315   5.407
 2568TIP3   OH2 7646   1.920   1.343   2.654
 2568TIP3    H1 7647   1.961   1.371   2.572
 2568TIP3    H2 7648   1.829   1.369   2.645
 2569TIP3   OH2 7649   5.780   4.741   5.799
 2569TIP3    H1 7650   5.736   4.757   5.715
 2569TIP3    H2 7651   5.761   4.819   5.851
 2570TIP3   OH2 7652   4.673   4.435   4.982
 2570TIP3    H1 7653   4.635   4.404   4.900
 2570TIP3    H2 7654   4.729   4.508   4.956
 2571TIP3   OH2 7655   0.879   7.690   0.613
 2571TIP3    H1 7656   0.926   7.740   0.546
 2571TIP3    H2 7657   0.830   7.755   0.663
 2572TIP3   OH2 7658   3.876   3.810   4.719
 2572TIP3    H1 7659   3.797   3.781   4.764
 2572TIP3    H2 7660   3.903   3.889   4.767
 2573TIP3   OH2 7661   0.887   3.042   5.948
 2573TIP3    H1 7662   0.903   3.110   6.014
 2573TIP3    H2 7663   0.968   2.991   5.946
 2574TIP3   OH2 7664   0.982   7.451   1.532
 2574TIP3    H1 7665   0.899   7.405   1.524
 2574TIP3    H2 7666   1.033   7.399   1.594
 2575TIP3   OH2 7667   0.857   6.750   2.118
 2575TIP3    H1 7668   0.790   6.777   2.181
 2575TIP3    H2 7669   0.813   6.755   2.033
 2576TIP3   OH2 7670   2.017   6.185   2.497
 2576TIP3    H1 7671   2.022   6.109   2.439
 2576TIP3    H2 7672   2.071   6.162   2.572
 2577TIP3   OH2 7673   7.479   3.004   6.106
 2577TIP3    H1 7674   7.393   3.043   6.123
 2577TIP3    H2 7675   7.469   2.912   6.132
 2578TIP3   OH2 7676   1.723   6.076   3.425
 2578TIP3    H1 7677   1.800   6.044   3.471
 2578TIP3    H2 7678   1.715   6.018   3.349
 2579TIP3   OH2 7679   7.215   6.795   0.353
 2579TIP3    H1 7680   7.213   6.726   0.419
 2579TIP3    H2 7681   7.134   6.783   0.304
 2580TIP3   OH2 7682   5.815   6.320   1.313
 2580TIP3    H1 7683   5.893   6.333   1.367
 2580TIP3    H2 7684   5.836   6.243   1.260
 2581TIP3   OH2 7685   5.013   7.631   3.816
 2581TIP3    H1 7686   4.933   7.674   3.785
 2581TIP3    H2 7687   4.984   7.545   3.846
 2582TIP3   OH2 7688   5.831   3.459   5.333
 2582TIP3    H1 7689   5.882   3.425   5.259
 2582TIP3    H2 7690   5.749   3.408   5.331
 2583TIP3   OH2 7691   1.445   7.382   4.910
 2583TIP3    H1 7692   1.351   7.402   4.905
 2583TIP3    H2 7693   1.474   7.385   4.819
 2584TIP3   OH2 7694   7.540   2.727   0.199
 2584TIP3    H1 7695   7.492   2.683   0.129
 2584TIP3    H2 7696   7.631   2.728   0.169
 2585TIP3   OH2 7697   3.270   4.919   4.926
 2585TIP3    H1 7698   3.302   4.829   4.924
 2585TIP3    H2 7699   3.349   4.973   4.929
 2586TIP3   OH2 7700   2.679   5.820   3.391
 2586TIP3    H1 7701   2.641   5.902   3.424
 2586TIP3    H2 7702   2.603   5.766   3.371
 2587TIP3   OH2 7703   7.701   3.825   6.499
 2587TIP3    H1 7704   7.629   3.840   6.560
 2587TIP3    H2 7705   7.779   3.854   6.546
 2588TIP3   OH2 7706   3.239   4.504   4.133
 2588TIP3    H1 7707   3.253   4.486   4.226
 2588TIP3    H2 7708   3.324   4.530   4.100
 2589TIP3   OH2 7709   4.499   1.870   1.290
 2589TIP3    H1 7710   4.433   1.896   1.354
 2589TIP3    H2 7711   4.546   1.798   1.332
 2590TIP3   OH2 7712   3.189   3.622   0.181
 2590TIP3    H1 7713   3.183   3.578   0.266
 2590TIP3    H2 7714   3.198   3.715   0.202
 2591TIP3   OH2 7715   6.522   3.681   3.447
 2591TIP3    H1 7716   6.511   3.586   3.434
 2591TIP3    H2 7717   6.549   3.714   3.361
 2592TIP3   OH2 7718   7.742   0.149   5.185
 2592TIP3    H1 7719   7.675   0.217   5.178
 2592TIP3    H2 7720   7.717   0.084   5.120
 2593TIP3   OH2 7721   4.131   6.023   2.997
 2593TIP3    H1 7722   4.104   5.943   3.041
 2593TIP3    H2 7723   4.085   6.093   3.043
 2594TIP3   OH2 7724   2.468   5.794   1.586
 2594TIP3    H1 7725   2.498   5.847   1.512
 2594TIP3    H2 7726   2.498   5.842   1.663
 2595TIP3   OH2 7727   1.725   6.029   1.795
 2595TIP3    H1 7728   1.706   5.990   1.880
 2595TIP3    H2 7729   1.741   5.954   1.737
 2596TIP3   OH2 7730   5.698   1.175   5.198
 2596TIP3    H1 7731   5.615   1.138   5.228
 2596TIP3    H2 7732   5.692   1.269   5.218
 2597TIP3   OH2 7733   2.481   4.820   2.537
 2597TIP3    H1 7734   2.392   4.839   2.564
 2597TIP3    H2 7735   2.519   4.770   2.609
 2598TIP3   OH2 7736   5.738   6.979   0.098
 2598TIP3    H1 7737   5.796   6.944   0.167
 2598TIP3    H2 7738   5.742   7.074   0.110
 2599TIP3   OH2 7739   0.245   0.949   6.346
 2599TIP3    H1 7740   0.197   0.866   6.340
 2599TIP3    H2 7741   0.234   0.989   6.260
 2600TIP3   OH2 7742   2.398   7.167   1.179
 2600TIP3    H1 7743   2.395   7.228   1.252
 2600TIP3    H2 7744   2.316   7.119   1.184
 2601TIP3   OH2 7745   0.049   5.040   4.535
 2601TIP3    H1 7746  -0.002   5.035   4.454
 2601TIP3    H2 7747   0.100   5.121   4.526
 2602TIP3   OH2 7748   5.419   2.611   1.416
 2602TIP3    H1 7749   5.394   2.575   1.331
 2602TIP3    H2 7750   5.336   2.633   1.459
 2603TIP3   OH2 7751   6.770   6.695   3.158
 2603TIP3    H1 7752   6.859   6.675   3.127
 2603TIP3    H2 7753   6.780   6.706   3.252
 2604TIP3   OH2 7754   7.069   3.680   4.503
 2604TIP3    H1 7755   7.139   3.663   4.440
 2604TIP3    H2 7756   7.050   3.773   4.493
 2605TIP3   OH2 7757   0.780   6.799   0.217
 2605TIP3    H1 7758   0.787   6.877   0.273
 2605TIP3    H2 7759   0.754   6.834   0.132
 2606TIP3   OH2 7760   4.411   2.652   1.710
 2606TIP3    H1 7761   4.405   2.604   1.627
 2606TIP3    H2 7762   4.322   2.649   1.745
 2607TIP3   OH2 7763   2.045   2.439   1.293
 2607TIP3    H1 7764   2.117   2.397   1.245
 2607TIP3    H2 7765   1.985   2.469   1.225
 2608TIP3   OH2 7766   4.844   4.637   2.205
 2608TIP3    H1 7767   4.846   4.699   2.277
 2608TIP3    H2 7768   4.935   4.610   2.194
 2609TIP3   OH2 7769   1.736   5.602   2.853
 2609TIP3    H1 7770   1.799   5.570   2.918
 2609TIP3    H2 7771   1.755   5.551   2.774
 2610TIP3   OH2 7772   7.988   4.636   6.242
 2610TIP3    H1 7773   8.001   4.578   6.168
 2610TIP3    H2 7774   8.051   4.606   6.308
 2611TIP3   OH2 7775   3.392   4.479   4.365
 2611TIP3    H1 7776   3.331   4.454   4.435
 2611TIP3    H2 7777   3.463   4.525   4.410
 2612TIP3   OH2 7778   6.337   7.532   6.575
 2612TIP3    H1 7779   6.410   7.593   6.564
 2612TIP3    H2 7780   6.262   7.588   6.599
 2613TIP3   OH2 7781   1.830   4.833   6.094
 2613TIP3    H1 7782   1.899   4.894   6.065
 2613TIP3    H2 7783   1.776   4.819   6.017
 2614TIP3   OH2 7784   0.260   5.393   5.105
 2614TIP3    H1 7785   0.213   5.394   5.188
 2614TIP3    H2 7786   0.197   5.359   5.042
 2615TIP3   OH2 7787   2.723   0.160   2.550
 2615TIP3    H1 7788   2.807   0.126   2.520
 2615TIP3    H2 7789   2.664   0.148   2.475
 2616TIP3   OH2 7790   6.507   5.944   4.070
 2616TIP3    H1 7791   6.470   6.025   4.104
 2616TIP3    H2 7792   6.564   5.912   4.141
 2617TIP3   OH2 7793   7.015   0.071   5.961
 2617TIP3    H1 7794   6.987   0.003   6.022
 2617TIP3    H2 7795   6.980   0.152   5.999
 2618TIP3   OH2 7796   4.764   4.447   3.245
 2618TIP3    H1 7797   4.815   4.500   3.307
 2618TIP3    H2 7798   4.695   4.505   3.214
 2619TIP3   OH2 7799   6.233   6.943   1.022
 2619TIP3    H1 7800   6.299   6.928   0.954
 2619TIP3    H2 7801   6.264   7.020   1.069
 2620TIP3   OH2 7802   4.159   0.193   5.188
 2620TIP3    H1 7803   4.195   0.282   5.192
 2620TIP3    H2 7804   4.064   0.204   5.196
 2621TIP3   OH2 7805   0.478   0.669   2.670
 2621TIP3    H1 7806   0.485   0.610   2.595
 2621TIP3    H2 7807   0.553   0.728   2.661
 2622TIP3   OH2 7808   4.787   5.935   6.586
 2622TIP3    H1 7809   4.740   6.016   6.568
 2622TIP3    H2 7810   4.815   5.943   6.677
 2623TIP3   OH2 7811   7.289   2.638   5.611
 2623TIP3    H1 7812   7.366   2.689   5.585
 2623TIP3    H2 7813   7.215   2.690   5.582
 2624TIP3   OH2 7814   3.071   5.131   6.188
 2624TIP3    H1 7815   3.125   5.107   6.264
 2624TIP3    H2 7816   2.983   5.101   6.211
 2625TIP3   OH2 7817   5.772   0.311   4.820
 2625TIP3    H1 7818   5.772   0.400   4.785
 2625TIP3    H2 7819   5.830   0.262   4.762
 2626TIP3   OH2 7820   3.458   0.328   2.305
 2626TIP3    H1 7821   3.540   0.300   2.264
 2626TIP3    H2 7822   3.438   0.411   2.262
 2627TIP3   OH2 7823   3.548   6.393   2.526
 2627TIP3    H1 7824   3.617   6.367   2.465
 2627TIP3    H2 7825   3.522   6.480   2.498
 2628TIP3   OH2 7826   5.242   2.691   1.640
 2628TIP3    H1 7827   5.335   2.680   1.661
 2628TIP3    H2 7828   5.205   2.732   1.718
 2629TIP3   OH2 7829   1.952   4.050   3.746
 2629TIP3    H1 7830   1.870   4.000   3.746
 2629TIP3    H2 7831   2.016   3.989   3.783
 2630TIP3   OH2 7832   0.932   2.191   5.326
 2630TIP3    H1 7833   0.905   2.182   5.235
 2630TIP3    H2 7834   0.933   2.286   5.341
 2631TIP3   OH2 7835   4.002   4.868   1.290
 2631TIP3    H1 7836   3.959   4.784   1.300
 2631TIP3    H2 7837   4.093   4.852   1.315
 2632TIP3   OH2 7838   6.261   3.098   0.512
 2632TIP3    H1 7839   6.198   3.073   0.580
 2632TIP3    H2 7840   6.284   3.015   0.469
 2633TIP3   OH2 7841   0.755   5.390   2.769
 2633TIP3    H1 7842   0.780   5.482   2.759
 2633TIP3    H2 7843   0.670   5.383   2.725
 2634TIP3   OH2 7844   5.218   0.115   5.897
 2634TIP3    H1 7845   5.131   0.139   5.929
 2634TIP3    H2 7846   5.267   0.198   5.896
 2635TIP3   OH2 7847   6.122   2.191   5.358
 2635TIP3    H1 7848   6.166   2.122   5.408
 2635TIP3    H2 7849   6.120   2.157   5.268
 2636TIP3   OH2 7850   1.238   2.472   5.828
 2636TIP3    H1 7851   1.190   2.465   5.911
 2636TIP3    H2 7852   1.325   2.439   5.849
 2637TIP3   OH2 7853   3.751   7.086   5.873
 2637TIP3    H1 7854   3.713   7.000   5.891
 2637TIP3    H2 7855   3.842   7.067   5.847
 2638TIP3   OH2 7856   8.280   2.425   2.520
 2638TIP3    H1 7857   8.236   2.454   2.440
 2638TIP3    H2 7858   8.336   2.353   2.492
 2639TIP3   OH2 7859   0.696   7.281   6.304
 2639TIP3    H1 7860   0.734   7.369   6.305
 2639TIP3    H2 7861   0.639   7.279   6.381
 2640TIP3   OH2 7862   5.365   1.589   2.584
 2640TIP3    H1 7863   5.272   1.568   2.579
 2640TIP3    H2 7864   5.406   1.507   2.612
 2641TIP3   OH2 7865   3.695   5.051   3.207
 2641TIP3    H1 7866   3.662   5.126   3.158
 2641TIP3    H2 7867   3.789   5.053   3.194
 2642TIP3   OH2 7868   1.407   7.188   2.350
 2642TIP3    H1 7869   1.378   7.211   2.438
 2642TIP3    H2 7870   1.352   7.114   2.325
 2643TIP3   OH2 7871   3.072   4.781   4.280
 2643TIP3    H1 7872   3.034   4.860   4.242
 2643TIP3    H2 7873   3.135   4.750   4.215
 2644TIP3   OH2 7874   1.142   2.992   0.331
 2644TIP3    H1 7875   1.120   3.028   0.417
 2644TIP3    H2 7876   1.236   3.005   0.321
 2645TIP3   OH2 7877   4.313   4.510   5.842
 2645TIP3    H1 7878   4.393   4.480   5.798
 2645TIP3    H2 7879   4.244   4.454   5.807
 2646TIP3   OH2 7880   3.213   4.933   2.458
 2646TIP3    H1 7881   3.186   4.878   2.384
 2646TIP3    H2 7882   3.201   5.023   2.427
 2647TIP3   OH2 7883   6.526   6.171   0.067
 2647TIP3    H1 7884   6.543   6.167   0.161
 2647TIP3    H2 7885   6.499   6.261   0.051
 2648TIP3   OH2 7886   3.691   6.018   3.116
 2648TIP3    H1 7887   3.679   6.005   3.022
 2648TIP3    H2 7888   3.775   5.976   3.136
 2649TIP3   OH2 7889   3.794   1.841   3.421
 2649TIP3    H1 7890   3.840   1.758   3.412
 2649TIP3    H2 7891   3.838   1.900   3.359
 2650TIP3   OH2 7892   2.140   2.341   4.166
 2650TIP3    H1 7893   2.128   2.428   4.128
 2650TIP3    H2 7894   2.054   2.316   4.199
 2651TIP3   OH2 7895   8.266   2.521   5.002
 2651TIP3    H1 7896   8.358   2.547   5.007
 2651TIP3    H2 7897   8.221   2.600   4.971
 2652TIP3   OH2 7898   2.707   1.318   4.034
 2652TIP3    H1 7899   2.712   1.393   4.093
 2652TIP3    H2 7900   2.661   1.351   3.957
 2653TIP3   OH2 7901   4.034   6.345   0.028
 2653TIP3    H1 7902   4.014   6.287  -0.046
 2653TIP3    H2 7903   4.024   6.289   0.105
 2654TIP3   OH2 7904   5.897   1.474   3.083
 2654TIP3    H1 7905   5.824   1.480   3.021
 2654TIP3    H2 7906   5.874   1.402   3.141
 2655TIP3   OH2 7907   2.874   3.467   1.055
 2655TIP3    H1 7908   2.785   3.445   1.081
 2655TIP3    H2 7909   2.907   3.523   1.125
 2656TIP3   OH2 7910   0.851   7.124   4.415
 2656TIP3    H1 7911   0.815   7.111   4.502
 2656TIP3    H2 7912   0.870   7.035   4.383
 2657TIP3   OH2 7913   5.296   1.284   0.300
 2657TIP3    H1 7914   5.251   1.366   0.322
 2657TIP3    H2 7915   5.261   1.259   0.214
 2658TIP3   OH2 7916   6.895   7.160   0.971
 2658TIP3    H1 7917   6.892   7.079   0.918
 2658TIP3    H2 7918   6.804   7.175   0.995
 2659TIP3   OH2 7919   2.321   5.975   5.121
 2659TIP3    H1 7920   2.415   5.994   5.123
 2659TIP3    H2 7921   2.279   6.060   5.108
 2660TIP3   OH2 7922   4.779   4.344   6.232
 2660TIP3    H1 7923   4.721   4.289   6.286
 2660TIP3    H2 7924   4.862   4.297   6.229
 2661TIP3   OH2 7925   6.230   5.586   0.962
 2661TIP3    H1 7926   6.222   5.587   1.058
 2661TIP3    H2 7927   6.290   5.513   0.944
 2662TIP3   OH2 7928   5.069   6.768   4.349
 2662TIP3    H1 7929   5.121   6.761   4.428
 2662TIP3    H2 7930   5.055   6.862   4.337
 2663TIP3   OH2 7931   3.140   7.017   5.478
 2663TIP3    H1 7932   3.101   7.094   5.519
 2663TIP3    H2 7933   3.219   7.000   5.529
 2664TIP3   OH2 7934   6.961   0.718   1.885
 2664TIP3    H1 7935   6.915   0.728   1.802
 2664TIP3    H2 7936   6.994   0.629   1.884
 2665TIP3   OH2 7937   1.194   1.259   5.135
 2665TIP3    H1 7938   1.163   1.224   5.051
 2665TIP3    H2 7939   1.275   1.305   5.114
 2666TIP3   OH2 7940   6.745   2.588   6.488
 2666TIP3    H1 7941   6.804   2.652   6.448
 2666TIP3    H2 7942   6.802   2.534   6.543
 2667TIP3   OH2 7943   3.019   0.090   5.148
 2667TIP3    H1 7944   2.981   0.006   5.172
 2667TIP3    H2 7945   2.965   0.122   5.076
 2668TIP3   OH2 7946   3.736   1.376   1.751
 2668TIP3    H1 7947   3.800   1.315   1.715
 2668TIP3    H2 7948   3.657   1.323   1.762
 2669TIP3   OH2 7949   7.843   3.314   0.232
 2669TIP3    H1 7950   7.874   3.385   0.176
 2669TIP3    H2 7951   7.922   3.280   0.273
 2670TIP3   OH2 7952   6.647   2.262   1.165
 2670TIP3    H1 7953   6.587   2.197   1.127
 2670TIP3    H2 7954   6.592   2.314   1.223
 2671TIP3   OH2 7955   4.646   0.400   5.939
 2671TIP3    H1 7956   4.685   0.349   5.868
 2671TIP3    H2 7957   4.689   0.366   6.018
 2672TIP3   OH2 7958   5.766   7.046   3.635
 2672TIP3    H1 7959   5.740   7.073   3.723
 2672TIP3    H2 7960   5.848   6.999   3.648
 2673TIP3   OH2 7961   8.270   2.337   3.931
 2673TIP3    H1 7962   8.277   2.352   4.025
 2673TIP3    H2 7963   8.180   2.307   3.919
 2674TIP3   OH2 7964   4.634   2.843   4.108
 2674TIP3    H1 7965   4.690   2.767   4.097
 2674TIP3    H2 7966   4.679   2.898   4.172
 2675TIP3   OH2 7967   2.602   6.307   6.207
 2675TIP3    H1 7968   2.614   6.401   6.203
 2675TIP3    H2 7969   2.519   6.290   6.162
 2676TIP3   OH2 7970   7.963   1.139   0.274
 2676TIP3    H1 7971   7.958   1.194   0.196
 2676TIP3    H2 7972   8.017   1.065   0.247
 2677TIP3   OH2 7973   7.656   1.421   3.615
 2677TIP3    H1 7974   7.652   1.495   3.675
 2677TIP3    H2 7975   7.687   1.348   3.669
 2678TIP3   OH2 7976   5.715   2.422   6.115
 2678TIP3    H1 7977   5.738   2.496   6.172
 2678TIP3    H2 7978   5.644   2.377   6.161
 2679TIP3   OH2 7979   1.300   7.650   2.633
 2679TIP3    H1 7980   1.279   7.710   2.562
 2679TIP3    H2 7981   1.257   7.688   2.710
 2680TIP3   OH2 7982   7.803   6.491   2.402
 2680TIP3    H1 7983   7.798   6.449   2.488
 2680TIP3    H2 7984   7.727   6.549   2.399
 2681TIP3   OH2 7985   7.982   6.921   5.808
 2681TIP3    H1 7986   8.017   6.838   5.776
 2681TIP3    H2 7987   8.056   6.962   5.854
 2682TIP3   OH2 7988   5.504   3.702   0.423
 2682TIP3    H1 7989   5.430   3.648   0.396
 2682TIP3    H2 7990   5.516   3.763   0.350
 2683TIP3   OH2 7991   6.690   0.032   0.868
 2683TIP3    H1 7992   6.616  -0.029   0.868
 2683TIP3    H2 7993   6.729   0.022   0.781
 2684TIP3   OH2 7994   3.268   2.098   5.432
 2684TIP3    H1 7995   3.173   2.102   5.423
 2684TIP3    H2 7996   3.301   2.157   5.364
 2685TIP3   OH2 7997   7.978   7.160   5.188
 2685TIP3    H1 7998   8.002   7.160   5.095
 2685TIP3    H2 7999   8.042   7.101   5.229
 2686TIP3   OH2 8000   1.764   5.926   3.780
 2686TIP3    H1 8001   1.688   5.979   3.755
 2686TIP3    H2 8002   1.782   5.951   3.870
 2687TIP3   OH2 8003   0.706   1.885   4.375
 2687TIP3    H1 8004   0.661   1.969   4.372
 2687TIP3    H2 8005   0.784   1.898   4.321
 2688TIP3   OH2 8006   7.371   7.016   3.179
 2688TIP3    H1 8007   7.362   6.979   3.267
 2688TIP3    H2 8008   7.387   6.940   3.123
 2689TIP3   OH2 8009   3.652   7.561   5.056
 2689TIP3    H1 8010   3.638   7.559   5.151
 2689TIP3    H2 8011   3.565   7.565   5.018
 2690TIP3   OH2 8012   0.062   4.021   3.752
 2690TIP3    H1 8013   0.040   3.928   3.743
 2690TIP3    H2 8014   0.154   4.027   3.729
 2691TIP3   OH2 8015   3.138   1.320   5.685
 2691TIP3    H1 8016   3.203   1.267   5.731
 2691TIP3    H2 8017   3.056   1.274   5.697
 2692TIP3   OH2 8018   0.112   0.898   5.922
 2692TIP3    H1 8019   0.094   0.987   5.893
 2692TIP3    H2 8020   0.044   0.845   5.881
 2693TIP3   OH2 8021   0.323   6.765   2.858
 2693TIP3    H1 8022   0.358   6.840   2.810
 2693TIP3    H2 8023   0.400   6.712   2.877
 2694TIP3   OH2 8024   1.208   3.166   2.136
 2694TIP3    H1 8025   1.139   3.101   2.145
 2694TIP3    H2 8026   1.183   3.237   2.196
 2695TIP3   OH2 8027   5.292   2.494   2.576
 2695TIP3    H1 8028   5.386   2.485   2.560
 2695TIP3    H2 8029   5.280   2.586   2.600
 2696TIP3   OH2 8030   3.064   5.089   1.332
 2696TIP3    H1 8031   3.064   5.175   1.373
 2696TIP3    H2 8032   3.153   5.079   1.298
 2697TIP3   OH2 8033   4.429   4.264   0.388
 2697TIP3    H1 8034   4.397   4.211   0.460
 2697TIP3    H2 8035   4.410   4.213   0.309
 2698TIP3   OH2 8036   5.909   5.478   0.446
 2698TIP3    H1 8037   5.884   5.389   0.423
 2698TIP3    H2 8038   5.836   5.532   0.416
 2699TIP3   OH2 8039   4.867   7.803   2.666
 2699TIP3    H1 8040   4.795   7.859   2.638
 2699TIP3    H2 8041   4.829   7.744   2.731
 2700TIP3   OH2 8042   2.645   5.048   1.036
 2700TIP3    H1 8043   2.566   5.077   1.081
 2700TIP3    H2 8044   2.717   5.079   1.091
 2701TIP3   OH2 8045   7.892   2.605   2.526
 2701TIP3    H1 8046   7.913   2.666   2.456
 2701TIP3    H2 8047   7.798   2.612   2.538
 2702TIP3   OH2 8048   0.926   7.762   5.070
 2702TIP3    H1 8049   0.872   7.783   5.146
 2702TIP3    H2 8050   0.876   7.796   4.996
 2703TIP3   OH2 8051   2.818   3.915   3.468
 2703TIP3    H1 8052   2.875   3.853   3.423
 2703TIP3    H2 8053   2.857   4.001   3.450
 2704TIP3   OH2 8054   2.409   4.287   5.345
 2704TIP3    H1 8055   2.483   4.298   5.404
 2704TIP3    H2 8056   2.446   4.250   5.265
 2705TIP3   OH2 8057   6.882   3.025   3.041
 2705TIP3    H1 8058   6.902   2.934   3.061
 2705TIP3    H2 8059   6.926   3.075   3.110
 2706TIP3   OH2 8060   5.951   0.634   5.429
 2706TIP3    H1 8061   6.041   0.636   5.395
 2706TIP3    H2 8062   5.926   0.541   5.424
 2707TIP3   OH2 8063   6.846   4.168   4.904
 2707TIP3    H1 8064   6.887   4.184   4.989
 2707TIP3    H2 8065   6.864   4.076   4.884
 2708TIP3   OH2 8066   0.763   0.635   0.301
 2708TIP3    H1 8067   0.857   0.623   0.314
 2708TIP3    H2 8068   0.722   0.559   0.342
 2709TIP3   OH2 8069   4.187   1.827   1.213
 2709TIP3    H1 8070   4.189   1.898   1.277
 2709TIP3    H2 8071   4.232   1.755   1.256
 2710TIP3   OH2 8072   0.786   4.486   2.804
 2710TIP3    H1 8073   0.715   4.451   2.858
 2710TIP3    H2 8074   0.839   4.537   2.865
 2711TIP3   OH2 8075   5.294   5.589   1.781
 2711TIP3    H1 8076   5.330   5.599   1.869
 2711TIP3    H2 8077   5.270   5.497   1.774
 2712TIP3   OH2 8078   3.510   0.835   3.964
 2712TIP3    H1 8079   3.443   0.880   3.913
 2712TIP3    H2 8080   3.480   0.842   4.054
 2713TIP3   OH2 8081   0.931   2.350   0.863
 2713TIP3    H1 8082   1.021   2.331   0.837
 2713TIP3    H2 8083   0.930   2.334   0.958
 2714TIP3   OH2 8084   0.828   6.395   3.923
 2714TIP3    H1 8085   0.846   6.345   3.843
 2714TIP3    H2 8086   0.903   6.378   3.980
 2715TIP3   OH2 8087   2.563   6.843   1.251
 2715TIP3    H1 8088   2.511   6.917   1.282
 2715TIP3    H2 8089   2.608   6.876   1.173
 2716TIP3   OH2 8090   6.490   0.979   5.865
 2716TIP3    H1 8091   6.544   0.983   5.944
 2716TIP3    H2 8092   6.551   0.959   5.794
 2717TIP3   OH2 8093   1.440   7.457   0.128
 2717TIP3    H1 8094   1.427   7.418   0.214
 2717TIP3    H2 8095   1.361   7.432   0.079
 2718TIP3   OH2 8096   5.794   6.653   0.671
 2718TIP3    H1 8097   5.740   6.720   0.628
 2718TIP3    H2 8098   5.862   6.703   0.716
 2719TIP3   OH2 8099   7.491   7.084   2.186
 2719TIP3    H1 8100   7.585   7.084   2.167
 2719TIP3    H2 8101   7.467   7.177   2.189
 2720TIP3   OH2 8102   2.260   4.815   0.830
 2720TIP3    H1 8103   2.316   4.749   0.872
 2720TIP3    H2 8104   2.276   4.804   0.737
 2721TIP3   OH2 8105   1.991   3.740   2.641
 2721TIP3    H1 8106   2.065   3.753   2.581
 2721TIP3    H2 8107   1.950   3.659   2.610
 2722TIP3   OH2 8108   3.438   7.509   0.098
 2722TIP3    H1 8109   3.355   7.461   0.097
 2722TIP3    H2 8110   3.412   7.601   0.084
 2723TIP3   OH2 8111   3.749   5.598   6.363
 2723TIP3    H1 8112   3.718   5.572   6.450
 2723TIP3    H2 8113   3.811   5.530   6.338
 2724TIP3   OH2 8114   0.726   5.987   0.393
 2724TIP3    H1 8115   0.779   6.039   0.332
 2724TIP3    H2 8116   0.721   5.901   0.352
 2725TIP3   OH2 8117   7.842   7.317   0.217
 2725TIP3    H1 8118   7.826   7.292   0.126
 2725TIP3    H2 8119   7.788   7.256   0.269
 2726TIP3   OH2 8120   7.661   0.930   2.684
 2726TIP3    H1 8121   7.749   0.951   2.655
 2726TIP3    H2 8122   7.656   0.964   2.773
 2727TIP3   OH2 8123   7.021   1.725   5.803
 2727TIP3    H1 8124   6.960   1.656   5.828
 2727TIP3    H2 8125   6.996   1.749   5.714
 2728TIP3   OH2 8126   1.165   3.349   4.192
 2728TIP3    H1 8127   1.135   3.394   4.113
 2728TIP3    H2 8128   1.171   3.257   4.166
 2729TIP3   OH2 8129   5.332   2.126   0.870
 2729TIP3    H1 8130   5.347   2.220   0.865
 2729TIP3    H2 8131   5.289   2.113   0.955
 2730TIP3   OH2 8132   5.961   2.686   4.508
 2730TIP3    H1 8133   5.901   2.614   4.528
 2730TIP3    H2 8134   6.040   2.666   4.559
 2731TIP3   OH2 8135   0.243   1.138   2.146
 2731TIP3    H1 8136   0.192   1.172   2.220
 2731TIP3    H2 8137   0.333   1.166   2.165
 2732TIP3   OH2 8138   0.502   3.623   0.736
 2732TIP3    H1 8139   0.594   3.636   0.712
 2732TIP3    H2 8140   0.453   3.661   0.662
 2733TIP3   OH2 8141   6.016   5.844   4.552
 2733TIP3    H1 8142   6.024   5.794   4.633
 2733TIP3    H2 8143   5.952   5.795   4.500
 2734TIP3   OH2 8144   2.288   7.499   5.887
 2734TIP3    H1 8145   2.239   7.549   5.953
 2734TIP3    H2 8146   2.333   7.566   5.835
 2735TIP3   OH2 8147   7.044   2.770   5.548
 2735TIP3    H1 8148   6.973   2.716   5.582
 2735TIP3    H2 8149   7.015   2.860   5.563
 2736TIP3   OH2 8150   6.160   0.188   5.472
 2736TIP3    H1 8151   6.166   0.260   5.410
 2736TIP3    H2 8152   6.068   0.160   5.468
 2737TIP3   OH2 8153   7.471   3.949   4.786
 2737TIP3    H1 8154   7.401   3.884   4.788
 2737TIP3    H2 8155   7.544   3.906   4.742
 2738TIP3   OH2 8156   5.138   2.052   5.307
 2738TIP3    H1 8157   5.123   2.126   5.248
 2738TIP3    H2 8158   5.233   2.047   5.317
 2739TIP3   OH2 8159   7.357   6.973   3.440
 2739TIP3    H1 8160   7.334   6.882   3.458
 2739TIP3    H2 8161   7.429   6.991   3.501
 2740TIP3   OH2 8162   4.779   4.034   5.027
 2740TIP3    H1 8163   4.704   4.093   5.043
 2740TIP3    H2 8164   4.808   4.056   4.939
 2741TIP3   OH2 8165   7.131   4.519   0.455
 2741TIP3    H1 8166   7.073   4.482   0.388
 2741TIP3    H2 8167   7.077   4.584   0.500
 2742TIP3   OH2 8168   5.770   2.530   4.640
 2742TIP3    H1 8169   5.713   2.455   4.651
 2742TIP3    H2 8170   5.772   2.572   4.726
 2743TIP3   OH2 8171   2.387   4.873   5.010
 2743TIP3    H1 8172   2.394   4.954   5.061
 2743TIP3    H2 8173   2.353   4.808   5.071
 2744TIP3   OH2 8174   5.919   1.178   2.849
 2744TIP3    H1 8175   5.864   1.150   2.923
 2744TIP3    H2 8176   5.998   1.125   2.857
 2745TIP3   OH2 8177   3.877   6.119   6.392
 2745TIP3    H1 8178   3.872   6.215   6.384
 2745TIP3    H2 8179   3.902   6.089   6.305
 2746TIP3   OH2 8180   6.618   5.183   2.258
 2746TIP3    H1 8181   6.707   5.191   2.224
 2746TIP3    H2 8182   6.630   5.170   2.352
 2747TIP3   OH2 8183   7.269   4.037   0.377
 2747TIP3    H1 8184   7.364   4.047   0.365
 2747TIP3    H2 8185   7.230   4.096   0.313
 2748TIP3   OH2 8186   5.939   0.711   0.811
 2748TIP3    H1 8187   5.973   0.741   0.726
 2748TIP3    H2 8188   5.951   0.616   0.809
 2749TIP3   OH2 8189   8.244   0.758   5.751
 2749TIP3    H1 8190   8.280   0.730   5.666
 2749TIP3    H2 8191   8.167   0.704   5.763
 2750TIP3   OH2 8192   8.109   0.517   4.723
 2750TIP3    H1 8193   8.126   0.594   4.669
 2750TIP3    H2 8194   8.109   0.550   4.813
 2751TIP3   OH2 8195   6.315   3.011   2.246
 2751TIP3    H1 8196   6.250   2.990   2.179
 2751TIP3    H2 8197   6.382   3.061   2.199
 2752TIP3   OH2 8198   5.056   4.369   5.925
 2752TIP3    H1 8199   4.979   4.424   5.913
 2752TIP3    H2 8200   5.130   4.428   5.908
 2753TIP3   OH2 8201   7.505   2.133   4.375
 2753TIP3    H1 8202   7.478   2.152   4.285
 2753TIP3    H2 8203   7.601   2.138   4.372
 2754TIP3   OH2 8204   4.178   5.272   2.432
 2754TIP3    H1 8205   4.243   5.249   2.498
 2754TIP3    H2 8206   4.229   5.312   2.361
 2755TIP3   OH2 8207   7.439   7.199   4.159
 2755TIP3    H1 8208   7.388   7.121   4.135
 2755TIP3    H2 8209   7.518   7.193   4.106
 2756TIP3   OH2 8210   4.802   5.170   2.834
 2756TIP3    H1 8211   4.856   5.099   2.800
 2756TIP3    H2 8212   4.735   5.183   2.767
 2757TIP3   OH2 8213   3.150   0.878   5.911
 2757TIP3    H1 8214   3.082   0.840   5.965
 2757TIP3    H2 8215   3.120   0.865   5.821
 2758TIP3   OH2 8216   2.812   2.681   1.028
 2758TIP3    H1 8217   2.861   2.606   0.996
 2758TIP3    H2 8218   2.878   2.747   1.048
 2759TIP3   OH2 8219   6.526   1.544   5.737
 2759TIP3    H1 8220   6.486   1.486   5.803
 2759TIP3    H2 8221   6.458   1.609   5.719
 2760TIP3   OH2 8222   5.350   0.453   2.705
 2760TIP3    H1 8223   5.299   0.428   2.628
 2760TIP3    H2 8224   5.393   0.373   2.733
 2761TIP3   OH2 8225   7.787   0.977   4.011
 2761TIP3    H1 8226   7.789   1.033   4.089
 2761TIP3    H2 8227   7.695   0.953   4.002
 2762TIP3   OH2 8228   7.933   1.647   4.010
 2762TIP3    H1 8229   7.895   1.644   4.098
 2762TIP3    H2 8230   8.021   1.681   4.023
 2763TIP3   OH2 8231   5.884   0.200   5.388
 2763TIP3    H1 8232   5.868   0.136   5.318
 2763TIP3    H2 8233   5.914   0.279   5.342
 2764TIP3   OH2 8234   1.981   1.578   0.977
 2764TIP3    H1 8235   2.035   1.530   1.040
 2764TIP3    H2 8236   1.974   1.520   0.902
 2765TIP3   OH2 8237   1.116   5.668   2.192
 2765TIP3    H1 8238   1.207   5.687   2.216
 2765TIP3    H2 8239   1.098   5.727   2.119
 2766TIP3   OH2 8240   1.981   0.484   6.668
 2766TIP3    H1 8241   1.969   0.549   6.599
 2766TIP3    H2 8242   2.006   0.536   6.745
 2767TIP3   OH2 8243   1.200   6.999   1.347
 2767TIP3    H1 8244   1.244   6.996   1.262
 2767TIP3    H2 8245   1.125   6.941   1.338
 2768TIP3   OH2 8246   6.327   7.833   0.102
 2768TIP3    H1 8247   6.334   7.777   0.179
 2768TIP3    H2 8248   6.245   7.806   0.060
 2769TIP3   OH2 8249   6.729   7.159   6.521
 2769TIP3    H1 8250   6.730   7.191   6.431
 2769TIP3    H2 8251   6.674   7.222   6.568
 2770TIP3   OH2 8252   6.270   5.025   6.307
 2770TIP3    H1 8253   6.200   4.983   6.256
 2770TIP3    H2 8254   6.350   4.982   6.277
 2771TIP3   OH2 8255   6.110   6.140   4.073
 2771TIP3    H1 8256   6.122   6.091   4.155
 2771TIP3    H2 8257   6.199   6.153   4.039
 2772TIP3   OH2 8258   0.649   6.216   2.079
 2772TIP3    H1 8259   0.562   6.238   2.114
 2772TIP3    H2 8260   0.647   6.247   1.989
 2773TIP3   OH2 8261   0.100   2.792   4.695
 2773TIP3    H1 8262   0.050   2.874   4.700
 2773TIP3    H2 8263   0.138   2.782   4.782
 2774TIP3   OH2 8264   8.165   6.268   3.892
 2774TIP3    H1 8265   8.157   6.176   3.866
 2774TIP3    H2 8266   8.257   6.289   3.878
 2775TIP3   OH2 8267   1.230   2.997   4.197
 2775TIP3    H1 8268   1.316   2.982   4.158
 2775TIP3    H2 8269   1.174   3.019   4.123
 2776TIP3   OH2 8270   5.558   7.024   0.863
 2776TIP3    H1 8271   5.617   7.052   0.793
 2776TIP3    H2 8272   5.554   6.929   0.855
 2777TIP3   OH2 8273   5.855   2.284   2.524
 2777TIP3    H1 8274   5.873   2.333   2.605
 2777TIP3    H2 8275   5.804   2.344   2.470
 2778TIP3   OH2 8276   1.189   2.489   5.551
 2778TIP3    H1 8277   1.276   2.522   5.527
 2778TIP3    H2 8278   1.189   2.486   5.646
 2779TIP3   OH2 8279   8.192   0.552   1.583
 2779TIP3    H1 8280   8.175   0.613   1.655
 2779TIP3    H2 8281   8.142   0.473   1.606
 2780TIP3   OH2 8282   6.583   1.319   2.805
 2780TIP3    H1 8283   6.626   1.402   2.822
 2780TIP3    H2 8284   6.505   1.341   2.755
 2781TIP3   OH2 8285   4.997   4.776   6.244
 2781TIP3    H1 8286   4.922   4.723   6.219
 2781TIP3    H2 8287   4.970   4.818   6.326
 2782TIP3   OH2 8288   7.593   5.809   6.445
 2782TIP3    H1 8289   7.548   5.803   6.361
 2782TIP3    H2 8290   7.681   5.841   6.424
 2783TIP3   OH2 8291   5.957   3.408   1.958
 2783TIP3    H1 8292   6.007   3.475   2.005
 2783TIP3    H2 8293   6.023   3.359   1.909
 2784TIP3   OH2 8294   5.716   0.865   2.002
 2784TIP3    H1 8295   5.694   0.807   1.930
 2784TIP3    H2 8296   5.639   0.920   2.013
 2785TIP3   OH2 8297   5.062   6.348   5.469
 2785TIP3    H1 8298   5.111   6.324   5.390
 2785TIP3    H2 8299   5.062   6.443   5.469
 2786TIP3   OH2 8300   7.293   2.442   1.678
 2786TIP3    H1 8301   7.361   2.458   1.743
 2786TIP3    H2 8302   7.215   2.484   1.714
 2787TIP3   OH2 8303   4.224   4.394   4.985
 2787TIP3    H1 8304   4.281   4.386   5.061
 2787TIP3    H2 8305   4.172   4.473   5.003
 2788TIP3   OH2 8306   4.366   5.692   1.901
 2788TIP3    H1 8307   4.401   5.762   1.846
 2788TIP3    H2 8308   4.412   5.613   1.872
 2789TIP3   OH2 8309   4.226   1.679   4.362
 2789TIP3    H1 8310   4.253   1.665   4.271
 2789TIP3    H2 8311   4.166   1.753   4.359
 2790TIP3   OH2 8312   1.797   6.812   3.089
 2790TIP3    H1 8313   1.750   6.851   3.015
 2790TIP3    H2 8314   1.773   6.720   3.087
 2791TIP3   OH2 8315   4.903   7.180   4.878
 2791TIP3    H1 8316   4.922   7.138   4.962
 2791TIP3    H2 8317   4.832   7.128   4.840
 2792TIP3   OH2 8318   0.462   7.412   2.391
 2792TIP3    H1 8319   0.399   7.409   2.319
 2792TIP3    H2 8320   0.410   7.428   2.469
 2793TIP3   OH2 8321   5.347   4.754   1.170
 2793TIP3    H1 8322   5.268   4.808   1.167
 2793TIP3    H2 8323   5.376   4.749   1.079
 2794TIP3   OH2 8324   4.830   7.222   4.055
 2794TIP3    H1 8325   4.747   7.203   4.098
 2794TIP3    H2 8326   4.810   7.215   3.962
 2795TIP3   OH2 8327   5.101   1.182   0.552
 2795TIP3    H1 8328   5.072   1.102   0.597
 2795TIP3    H2 8329   5.065   1.174   0.464
 2796TIP3   OH2 8330   3.201   7.334   0.826
 2796TIP3    H1 8331   3.228   7.365   0.913
 2796TIP3    H2 8332   3.270   7.275   0.798
 2797TIP3   OH2 8333   4.308   1.591   1.320
 2797TIP3    H1 8334   4.347   1.576   1.234
 2797TIP3    H2 8335   4.383   1.596   1.380
 2798TIP3   OH2 8336   1.382   5.034   4.210
 2798TIP3    H1 8337   1.446   4.987   4.263
 2798TIP3    H2 8338   1.332   5.086   4.274
 2799TIP3   OH2 8339   7.783   2.485   0.018
 2799TIP3    H1 8340   7.710   2.533  -0.022
 2799TIP3    H2 8341   7.741   2.425   0.080
 2800TIP3   OH2 8342   5.077   5.473   5.974
 2800TIP3    H1 8343   5.019   5.502   6.045
 2800TIP3    H2 8344   5.116   5.554   5.941
 2801TIP3   OH2 8345   7.738   5.493   2.534
 2801TIP3    H1 8346   7.809   5.533   2.483
 2801TIP3    H2 8347   7.740   5.538   2.618
 2802TIP3   OH2 8348   2.788   5.398   2.204
 2802TIP3    H1 8349   2.703   5.427   2.236
 2802TIP3    H2 8350   2.815   5.330   2.266
 2803TIP3   OH2 8351   0.775   2.410   2.464
 2803TIP3    H1 8352   0.821   2.474   2.518
 2803TIP3    H2 8353   0.842   2.347   2.437
 2804TIP3   OH2 8354   0.990   3.963   1.826
 2804TIP3    H1 8355   1.014   4.033   1.766
 2804TIP3    H2 8356   1.064   3.902   1.823
 2805TIP3   OH2 8357   1.589   6.001   1.417
 2805TIP3    H1 8358   1.641   5.926   1.387
 2805TIP3    H2 8359   1.517   5.962   1.466
 2806TIP3   OH2 8360   5.924   0.870   3.958
 2806TIP3    H1 8361   5.867   0.937   3.996
 2806TIP3    H2 8362   5.933   0.896   3.866
 2807TIP3   OH2 8363   2.743   2.658   2.730
 2807TIP3    H1 8364   2.768   2.608   2.808
 2807TIP3    H2 8365   2.649   2.674   2.740
 2808TIP3   OH2 8366   6.237   0.847   4.800
 2808TIP3    H1 8367   6.146   0.859   4.826
 2808TIP3    H2 8368   6.252   0.753   4.810
 2809TIP3   OH2 8369   5.178   3.330   5.197
 2809TIP3    H1 8370   5.088   3.336   5.227
 2809TIP3    H2 8371   5.181   3.248   5.147
 2810TIP3   OH2 8372   5.636   6.294   5.469
 2810TIP3    H1 8373   5.667   6.371   5.517
 2810TIP3    H2 8374   5.712   6.235   5.467
 2811TIP3   OH2 8375   6.596   0.951   4.497
 2811TIP3    H1 8376   6.654   1.002   4.440
 2811TIP3    H2 8377   6.604   0.861   4.465
 2812TIP3   OH2 8378   5.209   7.635   0.799
 2812TIP3    H1 8379   5.115   7.647   0.800
 2812TIP3    H2 8380   5.243   7.715   0.758
 2813TIP3   OH2 8381   1.168   2.073   6.755
 2813TIP3    H1 8382   1.100   2.131   6.720
 2813TIP3    H2 8383   1.120   2.009   6.808
 2814TIP3   OH2 8384   6.993   6.602   0.925
 2814TIP3    H1 8385   6.973   6.535   0.859
 2814TIP3    H2 8386   7.084   6.627   0.908
 2815TIP3   OH2 8387   5.716   1.400   0.228
 2815TIP3    H1 8388   5.695   1.420   0.319
 2815TIP3    H2 8389   5.806   1.431   0.217
 2816TIP3   OH2 8390   1.060   0.947   5.732
 2816TIP3    H1 8391   1.109   0.866   5.721
 2816TIP3    H2 8392   1.109   1.012   5.681
 2817TIP3   OH2 8393   0.444   4.711   5.707
 2817TIP3    H1 8394   0.523   4.703   5.653
 2817TIP3    H2 8395   0.464   4.664   5.788
 2818TIP3   OH2 8396   7.465   3.829   0.213
 2818TIP3    H1 8397   7.546   3.823   0.162
 2818TIP3    H2 8398   7.472   3.913   0.259
 2819TIP3   OH2 8399   7.503   0.238   5.882
 2819TIP3    H1 8400   7.429   0.199   5.929
 2819TIP3    H2 8401   7.471   0.323   5.852
 2820TIP3   OH2 8402   0.989   4.914   0.116
 2820TIP3    H1 8403   0.970   4.999   0.076
 2820TIP3    H2 8404   0.930   4.853   0.072
 2821TIP3   OH2 8405   5.983   2.474   4.982
 2821TIP3    H1 8406   5.907   2.417   4.971
 2821TIP3    H2 8407   5.963   2.550   4.927
 2822TIP3   OH2 8408   3.142   0.208   4.873
 2822TIP3    H1 8409   3.151   0.303   4.873
 2822TIP3    H2 8410   3.131   0.185   4.965
 2823TIP3   OH2 8411   3.064   3.639   5.581
 2823TIP3    H1 8412   2.975   3.605   5.583
 2823TIP3    H2 8413   3.055   3.734   5.588
 2824TIP3   OH2 8414   6.913   5.320   1.541
 2824TIP3    H1 8415   6.964   5.240   1.525
 2824TIP3    H2 8416   6.834   5.309   1.489
 2825TIP3   OH2 8417   0.016   5.550   4.717
 2825TIP3    H1 8418   0.041   5.519   4.804
 2825TIP3    H2 8419   0.063   5.633   4.706
 2826TIP3   OH2 8420   5.107   2.689   2.453
 2826TIP3    H1 8421   5.078   2.779   2.469
 2826TIP3    H2 8422   5.169   2.697   2.380
 2827TIP3   OH2 8423   7.261   3.252   0.172
 2827TIP3    H1 8424   7.341   3.278   0.127
 2827TIP3    H2 8425   7.283   3.259   0.265
 2828TIP3   OH2 8426   5.275   6.241   0.758
 2828TIP3    H1 8427   5.275   6.147   0.775
 2828TIP3    H2 8428   5.365   6.259   0.730
 2829TIP3   OH2 8429   3.865   0.357   5.933
 2829TIP3    H1 8430   3.781   0.402   5.927
 2829TIP3    H2 8431   3.916   0.391   5.860
 2830TIP3   OH2 8432   1.647   7.267   4.352
 2830TIP3    H1 8433   1.735   7.293   4.323
 2830TIP3    H2 8434   1.655   7.174   4.372
 2831TIP3   OH2 8435   7.348   3.924   3.918
 2831TIP3    H1 8436   7.361   3.877   3.836
 2831TIP3    H2 8437   7.263   3.968   3.906
 2832TIP3   OH2 8438   8.263   7.339   6.130
 2832TIP3    H1 8439   8.181   7.336   6.081
 2832TIP3    H2 8440   8.237   7.359   6.220
 2833TIP3   OH2 8441   8.000   5.485   1.483
 2833TIP3    H1 8442   8.065   5.529   1.538
 2833TIP3    H2 8443   7.966   5.555   1.426
 2834TIP3   OH2 8444   5.469   0.757   6.590
 2834TIP3    H1 8445   5.492   0.667   6.614
 2834TIP3    H2 8446   5.379   0.751   6.559
 2835TIP3   OH2 8447   5.535   5.970   5.750
 2835TIP3    H1 8448   5.566   6.055   5.782
 2835TIP3    H2 8449   5.608   5.910   5.768
 2836TIP3   OH2 8450   7.765   6.793   1.739
 2836TIP3    H1 8451   7.786   6.828   1.826
 2836TIP3    H2 8452   7.716   6.712   1.757
 2837TIP3   OH2 8453   7.377   2.155   4.895
 2837TIP3    H1 8454   7.342   2.079   4.849
 2837TIP3    H2 8455   7.312   2.174   4.962
 2838TIP3   OH2 8456   7.501   6.838   3.894
 2838TIP3    H1 8457   7.541   6.841   3.981
 2838TIP3    H2 8458   7.575   6.832   3.833
 2839TIP3   OH2 8459   6.488   1.268   6.786
 2839TIP3    H1 8460   6.580   1.258   6.811
 2839TIP3    H2 8461   6.491   1.294   6.694
 2840TIP3   OH2 8462   0.143   6.225   1.800
 2840TIP3    H1 8463   0.185   6.183   1.725
 2840TIP3    H2 8464   0.064   6.265   1.765
 2841TIP3   OH2 8465   5.477   7.275   0.247
 2841TIP3    H1 8466   5.463   7.289   0.153
 2841TIP3    H2 8467   5.567   7.303   0.263
 2842TIP3   OH2 8468   0.828   7.058   6.295
 2842TIP3    H1 8469   0.784   7.140   6.272
 2842TIP3    H2 8470   0.774   7.021   6.365
 2843TIP3   OH2 8471   2.665   4.476   3.426
 2843TIP3    H1 8472   2.601   4.546   3.439
 2843TIP3    H2 8473   2.750   4.519   3.430
 2844TIP3   OH2 8474   6.030   1.199   3.801
 2844TIP3    H1 8475   5.944   1.236   3.824
 2844TIP3    H2 8476   6.089   1.275   3.803
 2845TIP3   OH2 8477   5.655   1.147   1.852
 2845TIP3    H1 8478   5.692   1.228   1.815
 2845TIP3    H2 8479   5.586   1.178   1.910
 2846TIP3   OH2 8480   8.105   1.170   3.446
 2846TIP3    H1 8481   8.071   1.259   3.453
 2846TIP3    H2 8482   8.196   1.177   3.475
 2847TIP3   OH2 8483   3.359   5.611   3.778
 2847TIP3    H1 8484   3.362   5.515   3.778
 2847TIP3    H2 8485   3.287   5.633   3.718
 2848TIP3   OH2 8486   2.888   7.183   5.222
 2848TIP3    H1 8487   2.968   7.182   5.168
 2848TIP3    H2 8488   2.826   7.129   5.174
 2849TIP3   OH2 8489   0.683   2.845   0.966
 2849TIP3    H1 8490   0.713   2.774   0.909
 2849TIP3    H2 8491   0.604   2.810   1.008
 2850TIP3   OH2 8492   6.125   2.421   6.472
 2850TIP3    H1 8493   6.075   2.364   6.413
 2850TIP3    H2 8494   6.068   2.496   6.487
 2851TIP3   OH2 8495   7.601   5.085   4.398
 2851TIP3    H1 8496   7.596   5.001   4.443
 2851TIP3    H2 8497   7.531   5.137   4.436
 2852TIP3   OH2 8498   6.066   7.344   2.519
 2852TIP3    H1 8499   6.020   7.336   2.603
 2852TIP3    H2 8500   6.156   7.368   2.544
 2853TIP3   OH2 8501   6.215   0.037   3.397
 2853TIP3    H1 8502   6.139   0.085   3.429
 2853TIP3    H2 8503   6.288   0.068   3.451
 2854TIP3   OH2 8504   2.237   2.538   3.886
 2854TIP3    H1 8505   2.264   2.458   3.841
 2854TIP3    H2 8506   2.315   2.592   3.889
 2855TIP3   OH2 8507   6.424   7.209   3.411
 2855TIP3    H1 8508   6.354   7.145   3.419
 2855TIP3    H2 8509   6.455   7.199   3.320
 2856TIP3   OH2 8510   0.980   6.781   2.991
 2856TIP3    H1 8511   0.925   6.858   3.008
 2856TIP3    H2 8512   0.948   6.715   3.052
 2857TIP3   OH2 8513   4.686   1.227   4.705
 2857TIP3    H1 8514   4.614   1.283   4.678
 2857TIP3    H2 8515   4.646   1.141   4.719
 2858TIP3   OH2 8516   2.675   1.147   1.069
 2858TIP3    H1 8517   2.750   1.146   1.010
 2858TIP3    H2 8518   2.705   1.100   1.147
 2859TIP3   OH2 8519   5.521   4.343   4.312
 2859TIP3    H1 8520   5.435   4.324   4.351
 2859TIP3    H2 8521   5.548   4.425   4.353
 2860TIP3   OH2 8522   4.521   0.324   0.338
 2860TIP3    H1 8523   4.600   0.345   0.289
 2860TIP3    H2 8524   4.452   0.376   0.295
 2861TIP3   OH2 8525   2.091   3.078   2.537
 2861TIP3    H1 8526   2.004   3.047   2.564
 2861TIP3    H2 8527   2.085   3.173   2.541
 2862TIP3   OH2 8528   3.492   4.826   4.763
 2862TIP3    H1 8529   3.553   4.752   4.763
 2862TIP3    H2 8530   3.406   4.786   4.749
 2863TIP3   OH2 8531   1.210   3.237   5.489
 2863TIP3    H1 8532   1.259   3.302   5.438
 2863TIP3    H2 8533   1.261   3.157   5.481
 2864TIP3   OH2 8534   8.222   0.459   5.619
 2864TIP3    H1 8535   8.222   0.395   5.690
 2864TIP3    H2 8536   8.129   0.475   5.601
 2865TIP3   OH2 8537   1.651   0.931   3.639
 2865TIP3    H1 8538   1.737   0.889   3.647
 2865TIP3    H2 8539   1.669   1.016   3.598
 2866TIP3   OH2 8540   1.977   2.086   0.761
 2866TIP3    H1 8541   1.910   2.023   0.790
 2866TIP3    H2 8542   1.975   2.154   0.828
 2867TIP3   OH2 8543   4.683   2.165   0.379
 2867TIP3    H1 8544   4.612   2.165   0.443
 2867TIP3    H2 8545   4.714   2.074   0.378
 2868TIP3   OH2 8546   0.020   6.920   1.108
 2868TIP3    H1 8547   0.090   6.882   1.054
 2868TIP3    H2 8548  -0.056   6.864   1.093
 2869TIP3   OH2 8549   5.135   4.357   3.506
 2869TIP3    H1 8550   5.229   4.373   3.515
 2869TIP3    H2 8551   5.123   4.336   3.414
 2870TIP3   OH2 8552   3.074   0.938   4.227
 2870TIP3    H1 8553   3.101   1.018   4.272
 2870TIP3    H2 8554   2.998   0.908   4.278
 2871TIP3   OH2 8555   4.677   6.127   4.485
 2871TIP3    H1 8556   4.755   6.169   4.448
 2871TIP3    H2 8557   4.666   6.167   4.571
 2872TIP3   OH2 8558   2.792   2.366   1.207
 2872TIP3    H1 8559   2.769   2.379   1.115
 2872TIP3    H2 8560   2.793   2.271   1.218
 2873TIP3   OH2 8561   3.179   7.751   4.675
 2873TIP3    H1 8562   3.133   7.721   4.754
 2873TIP3    H2 8563   3.249   7.807   4.708
 2874TIP3   OH2 8564   2.693   6.539   2.294
 2874TIP3    H1 8565   2.699   6.534   2.199
 2874TIP3    H2 8566   2.620   6.481   2.317
 2875TIP3   OH2 8567   7.570   3.812   2.833
 2875TIP3    H1 8568   7.544   3.892   2.786
 2875TIP3    H2 8569   7.513   3.809   2.910
 2876TIP3   OH2 8570   0.856   6.066   6.229
 2876TIP3    H1 8571   0.915   6.113   6.287
 2876TIP3    H2 8572   0.784   6.038   6.286
 2877TIP3   OH2 8573   3.773   7.603   2.178
 2877TIP3    H1 8574   3.793   7.575   2.268
 2877TIP3    H2 8575   3.750   7.695   2.186
 2878TIP3   OH2 8576   5.957   4.584   5.968
 2878TIP3    H1 8577   5.984   4.634   6.045
 2878TIP3    H2 8578   5.912   4.648   5.912
 2879TIP3   OH2 8579   3.111   5.844   4.152
 2879TIP3    H1 8580   3.072   5.866   4.067
 2879TIP3    H2 8581   3.183   5.784   4.130
 2880TIP3   OH2 8582   0.549   2.407   0.993
 2880TIP3    H1 8583   0.553   2.358   0.911
 2880TIP3    H2 8584   0.471   2.374   1.038
 2881TIP3   OH2 8585   0.263   1.339   3.913
 2881TIP3    H1 8586   0.309   1.300   3.987
 2881TIP3    H2 8587   0.324   1.403   3.877
 2882TIP3   OH2 8588   5.971   1.475   3.617
 2882TIP3    H1 8589   5.891   1.423   3.610
 2882TIP3    H2 8590   6.025   1.447   3.543
 2883TIP3   OH2 8591   3.163   4.123   2.637
 2883TIP3    H1 8592   3.217   4.090   2.709
 2883TIP3    H2 8593   3.075   4.091   2.657
 2884TIP3   OH2 8594   1.337   1.288   6.366
 2884TIP3    H1 8595   1.379   1.344   6.301
 2884TIP3    H2 8596   1.245   1.315   6.366
 2885TIP3   OH2 8597   3.075   5.680   6.039
 2885TIP3    H1 8598   3.112   5.768   6.033
 2885TIP3    H2 8599   3.062   5.666   6.133
 2886TIP3   OH2 8600   6.687   1.629   0.489
 2886TIP3    H1 8601   6.782   1.615   0.488
 2886TIP3    H2 8602   6.652   1.552   0.534
 2887TIP3   OH2 8603   0.327   7.318   5.568
 2887TIP3    H1 8604   0.247   7.313   5.515
 2887TIP3    H2 8605   0.310   7.261   5.643
 2888TIP3   OH2 8606   5.031   1.484   0.222
 2888TIP3    H1 8607   5.005   1.548   0.289
 2888TIP3    H2 8608   5.072   1.536   0.153
 2889TIP3   OH2 8609   0.477   3.871   2.458
 2889TIP3    H1 8610   0.544   3.809   2.487
 2889TIP3    H2 8611   0.496   3.951   2.508
 2890TIP3   OH2 8612   2.130   0.527   2.434
 2890TIP3    H1 8613   2.195   0.456   2.433
 2890TIP3    H2 8614   2.086   0.520   2.349
 2891TIP3   OH2 8615   4.053   7.829   4.440
 2891TIP3    H1 8616   3.974   7.781   4.466
 2891TIP3    H2 8617   4.106   7.833   4.519
 2892TIP3   OH2 8618   5.258   2.465   4.974
 2892TIP3    H1 8619   5.229   2.374   4.972
 2892TIP3    H2 8620   5.248   2.492   5.065
 2893TIP3   OH2 8621   0.150   3.002   2.302
 2893TIP3    H1 8622   0.100   3.001   2.221
 2893TIP3    H2 8623   0.101   3.061   2.360
 2894TIP3   OH2 8624   8.278   0.612   2.252
 2894TIP3    H1 8625   8.186   0.623   2.272
 2894TIP3    H2 8626   8.285   0.628   2.158
 2895TIP3   OH2 8627   0.576   5.648   6.706
 2895TIP3    H1 8628   0.670   5.652   6.719
 2895TIP3    H2 8629   0.565   5.628   6.613
 2896TIP3   OH2 8630   1.734   0.688   0.534
 2896TIP3    H1 8631   1.640   0.704   0.548
 2896TIP3    H2 8632   1.737   0.615   0.472
 2897TIP3   OH2 8633   7.158   5.897   5.287
 2897TIP3    H1 8634   7.142   5.988   5.312
 2897TIP3    H2 8635   7.114   5.846   5.355
 2898TIP3   OH2 8636   0.500   1.706   4.292
 2898TIP3    H1 8637   0.557   1.780   4.312
 2898TIP3    H2 8638   0.468   1.677   4.377
 2899TIP3   OH2 8639   0.848   2.308   0.358
 2899TIP3    H1 8640   0.870   2.364   0.283
 2899TIP3    H2 8641   0.886   2.352   0.433
 2900TIP3   OH2 8642   4.641   7.549   4.671
 2900TIP3    H1 8643   4.643   7.487   4.744
 2900TIP3    H2 8644   4.606   7.630   4.709
 2901TIP3   OH2 8645   3.052   3.773   6.440
 2901TIP3    H1 8646   3.008   3.756   6.523
 2901TIP3    H2 8647   3.017   3.858   6.411
 2902TIP3   OH2 8648   3.981   3.601   1.472
 2902TIP3    H1 8649   4.060   3.655   1.469
 2902TIP3    H2 8650   3.963   3.579   1.381
 2903TIP3   OH2 8651   1.968   6.505   4.469
 2903TIP3    H1 8652   2.005   6.428   4.512
 2903TIP3    H2 8653   2.037   6.535   4.410
 2904TIP3   OH2 8654   8.175   6.257   2.335
 2904TIP3    H1 8655   8.267   6.259   2.361
 2904TIP3    H2 8656   8.129   6.221   2.412
 2905TIP3   OH2 8657   2.185   3.337   4.320
 2905TIP3    H1 8658   2.241   3.281   4.266
 2905TIP3    H2 8659   2.113   3.362   4.262
 2906TIP3   OH2 8660   0.037   0.160   6.343
 2906TIP3    H1 8661  -0.005   0.225   6.400
 2906TIP3    H2 8662  -0.012   0.079   6.359
 2907TIP3   OH2 8663   1.513   7.263   5.906
 2907TIP3    H1 8664   1.494   7.333   5.844
 2907TIP3    H2 8665   1.491   7.299   5.991
 2908TIP3   OH2 8666   4.125   7.277   4.036
 2908TIP3    H1 8667   4.056   7.283   3.971
 2908TIP3    H2 8668   4.087   7.225   4.107
 2909TIP3   OH2 8669   3.421   3.749   5.452
 2909TIP3    H1 8670   3.391   3.722   5.366
 2909TIP3    H2 8671   3.354   3.809   5.483
 2910TIP3   OH2 8672   4.342   7.051   5.096
 2910TIP3    H1 8673   4.351   7.097   5.179
 2910TIP3    H2 8674   4.375   7.113   5.031
 2911TIP3   OH2 8675   4.883   0.788   1.071
 2911TIP3    H1 8676   4.873   0.870   1.023
 2911TIP3    H2 8677   4.872   0.813   1.163
 2912TIP3   OH2 8678   1.690   5.710   4.688
 2912TIP3    H1 8679   1.640   5.670   4.617
 2912TIP3    H2 8680   1.625   5.753   4.743
 2913TIP3   OH2 8681   7.304   0.124   1.988
 2913TIP3    H1 8682   7.242   0.052   1.991
 2913TIP3    H2 8683   7.287   0.174   2.068
 2914TIP3   OH2 8684   0.514   3.546   4.626
 2914TIP3    H1 8685   0.559   3.631   4.630
 2914TIP3    H2 8686   0.461   3.543   4.706
 2915TIP3   OH2 8687   8.293   2.018   2.185
 2915TIP3    H1 8688   8.203   2.030   2.155
 2915TIP3    H2 8689   8.285   1.968   2.266
 2916TIP3   OH2 8690   2.024   2.745   2.925
 2916TIP3    H1 8691   2.055   2.717   3.011
 2916TIP3    H2 8692   1.960   2.813   2.943
 2917TIP3   OH2 8693   3.023   7.700   1.873
 2917TIP3    H1 8694   3.018   7.682   1.967
 2917TIP3    H2 8695   2.944   7.752   1.856
 2918TIP3   OH2 8696   7.279   7.741   5.295
 2918TIP3    H1 8697   7.356   7.777   5.338
 2918TIP3    H2 8698   7.206   7.768   5.349
 2919TIP3   OH2 8699   3.931   0.708   6.173
 2919TIP3    H1 8700   3.932   0.769   6.099
 2919TIP3    H2 8701   3.852   0.656   6.160
 2920TIP3   OH2 8702   5.664   3.025   2.800
 2920TIP3    H1 8703   5.679   2.933   2.780
 2920TIP3    H2 8704   5.725   3.072   2.743
 2921TIP3   OH2 8705   2.750   5.583   1.007
 2921TIP3    H1 8706   2.770   5.539   0.924
 2921TIP3    H2 8707   2.831   5.629   1.030
 2922TIP3   OH2 8708   1.309   4.650   3.208
 2922TIP3    H1 8709   1.378   4.593   3.244
 2922TIP3    H2 8710   1.338   4.738   3.230
 2923TIP3   OH2 8711   4.172   7.485   5.306
 2923TIP3    H1 8712   4.078   7.469   5.301
 2923TIP3    H2 8713   4.181   7.562   5.362
 2924TIP3   OH2 8714   3.302   4.246   5.005
 2924TIP3    H1 8715   3.309   4.177   5.070
 2924TIP3    H2 8716   3.221   4.293   5.028
 2925TIP3   OH2 8717   4.478   0.206   4.301
 2925TIP3    H1 8718   4.487   0.290   4.345
 2925TIP3    H2 8719   4.384   0.185   4.309
 2926TIP3   OH2 8720   2.729   1.109   1.871
 2926TIP3    H1 8721   2.732   1.014   1.868
 2926TIP3    H2 8722   2.746   1.137   1.781
 2927TIP3   OH2 8723   2.840   4.383   6.255
 2927TIP3    H1 8724   2.790   4.460   6.283
 2927TIP3    H2 8725   2.844   4.327   6.332
 2928TIP3   OH2 8726   2.617   4.450   3.693
 2928TIP3    H1 8727   2.561   4.375   3.713
 2928TIP3    H2 8728   2.653   4.431   3.607
 2929TIP3   OH2 8729   4.372   5.532   4.381
 2929TIP3    H1 8730   4.400   5.623   4.365
 2929TIP3    H2 8731   4.280   5.531   4.357
 2930TIP3   OH2 8732   4.948   7.104   0.253
 2930TIP3    H1 8733   4.987   7.042   0.191
 2930TIP3    H2 8734   4.950   7.059   0.337
 2931TIP3   OH2 8735   6.854   3.543   3.308
 2931TIP3    H1 8736   6.852   3.473   3.374
 2931TIP3    H2 8737   6.834   3.623   3.357
 2932TIP3   OH2 8738   7.166   6.746   4.448
 2932TIP3    H1 8739   7.161   6.840   4.466
 2932TIP3    H2 8740   7.132   6.736   4.359
 2933TIP3   OH2 8741   3.714   5.228   5.070
 2933TIP3    H1 8742   3.668   5.242   5.153
 2933TIP3    H2 8743   3.784   5.167   5.091
 2934TIP3   OH2 8744   1.856   0.012   4.173
 2934TIP3    H1 8745   1.888   0.035   4.085
 2934TIP3    H2 8746   1.862   0.094   4.223
 2935TIP3   OH2 8747   3.260   1.844   3.933
 2935TIP3    H1 8748   3.286   1.811   4.018
 2935TIP3    H2 8749   3.179   1.892   3.950
 2936TIP3   OH2 8750   0.074   7.795   3.800
 2936TIP3    H1 8751   0.025   7.713   3.801
 2936TIP3    H2 8752   0.162   7.771   3.827
 2937TIP3   OH2 8753   3.335   1.207   2.416
 2937TIP3    H1 8754   3.314   1.183   2.326
 2937TIP3    H2 8755   3.430   1.198   2.423
 2938TIP3   OH2 8756   7.105   4.223   0.560
 2938TIP3    H1 8757   7.101   4.318   0.566
 2938TIP3    H2 8758   7.123   4.206   0.467
 2939TIP3   OH2 8759   2.611   5.046   0.768
 2939TIP3    H1 8760   2.639   5.066   0.857
 2939TIP3    H2 8761   2.519   5.074   0.764
 2940TIP3   OH2 8762   1.236   2.955   4.937
 2940TIP3    H1 8763   1.296   2.984   5.006
 2940TIP3    H2 8764   1.215   3.035   4.888
 2941TIP3   OH2 8765   7.522   4.057   2.693
 2941TIP3    H1 8766   7.471   4.086   2.769
 2941TIP3    H2 8767   7.463   4.070   2.619
 2942TIP3   OH2 8768   2.756   2.651   1.922
 2942TIP3    H1 8769   2.783   2.729   1.972
 2942TIP3    H2 8770   2.664   2.639   1.946
 2943TIP3   OH2 8771   2.444   0.495   6.533
 2943TIP3    H1 8772   2.388   0.530   6.464
 2943TIP3    H2 8773   2.506   0.565   6.551
 2944TIP3   OH2 8774   8.189   6.610   3.627
 2944TIP3    H1 8775   8.259   6.590   3.564
 2944TIP3    H2 8776   8.198   6.704   3.644
 2945TIP3   OH2 8777   3.902   6.765   3.432
 2945TIP3    H1 8778   3.844   6.828   3.475
 2945TIP3    H2 8779   3.844   6.716   3.373
 2946TIP3   OH2 8780   2.853   5.862   4.815
 2946TIP3    H1 8781   2.822   5.926   4.751
 2946TIP3    H2 8782   2.927   5.819   4.771
 2947TIP3   OH2 8783   5.492   6.690   4.846
 2947TIP3    H1 8784   5.428   6.758   4.867
 2947TIP3    H2 8785   5.441   6.609   4.847
 2948TIP3   OH2 8786   6.493   6.219   1.251
 2948TIP3    H1 8787   6.506   6.283   1.182
 2948TIP3    H2 8788   6.440   6.150   1.211
 2949TIP3   OH2 8789   4.511   3.450   2.491
 2949TIP3    H1 8790   4.421   3.429   2.514
 2949TIP3    H2 8791   4.515   3.441   2.396
 2950TIP3   OH2 8792   0.571   6.845   4.678
 2950TIP3    H1 8793   0.494   6.837   4.733
 2950TIP3    H2 8794   0.626   6.771   4.702
 2951TIP3   OH2 8795   6.764   2.685   2.374
 2951TIP3    H1 8796   6.780   2.773   2.407
 2951TIP3    H2 8797   6.702   2.698   2.302
 2952TIP3   OH2 8798   4.624   0.453   2.965
 2952TIP3    H1 8799   4.695   0.436   3.027
 2952TIP3    H2 8800   4.639   0.389   2.894
 2953TIP3   OH2 8801   1.955   5.868   3.296
 2953TIP3    H1 8802   1.866   5.881   3.263
 2953TIP3    H2 8803   1.948   5.883   3.390
 2954TIP3   OH2 8804   4.122   1.805   4.624
 2954TIP3    H1 8805   4.144   1.893   4.594
 2954TIP3    H2 8806   4.163   1.746   4.560
 2955TIP3   OH2 8807   1.860   4.423   4.211
 2955TIP3    H1 8808   1.866   4.467   4.127
 2955TIP3    H2 8809   1.799   4.476   4.262
 2956TIP3   OH2 8810   7.578   4.064   3.594
 2956TIP3    H1 8811   7.596   3.998   3.661
 2956TIP3    H2 8812   7.484   4.081   3.601
 2957TIP3   OH2 8813   0.458   3.613   3.294
 2957TIP3    H1 8814   0.517   3.539   3.283
 2957TIP3    H2 8815   0.374   3.573   3.318
 2958TIP3   OH2 8816   5.903   6.393   0.984
 2958TIP3    H1 8817   5.963   6.433   0.921
 2958TIP3    H2 8818   5.960   6.357   1.052
 2959TIP3   OH2 8819   7.265   7.468   3.727
 2959TIP3    H1 8820   7.241   7.536   3.790
 2959TIP3    H2 8821   7.206   7.481   3.653
 2960TIP3   OH2 8822   4.304   1.017   4.129
 2960TIP3    H1 8823   4.392   1.047   4.152
 2960TIP3    H2 8824   4.316   0.925   4.106
 2961TIP3   OH2 8825   4.190   0.465   0.581
 2961TIP3    H1 8826   4.165   0.401   0.514
 2961TIP3    H2 8827   4.131   0.447   0.654
 2962TIP3   OH2 8828   2.999   7.199   5.629
 2962TIP3    H1 8829   2.987   7.254   5.706
 2962TIP3    H2 8830   2.984   7.257   5.555
 2963TIP3   OH2 8831   8.032   4.487   4.369
 2963TIP3    H1 8832   7.976   4.522   4.438
 2963TIP3    H2 8833   7.971   4.467   4.297
 2964TIP3   OH2 8834   0.230   6.229   3.096
 2964TIP3    H1 8835   0.148   6.191   3.125
 2964TIP3    H2 8836   0.296   6.164   3.119
 2965TIP3   OH2 8837   5.892   6.084   6.001
 2965TIP3    H1 8838   5.876   6.018   5.933
 2965TIP3    H2 8839   5.838   6.159   5.974
 2966TIP3   OH2 8840   3.809   4.890   6.748
 2966TIP3    H1 8841   3.887   4.910   6.697
 2966TIP3    H2 8842   3.842   4.841   6.824
 2967TIP3   OH2 8843   0.236   1.679   5.825
 2967TIP3    H1 8844   0.310   1.628   5.792
 2967TIP3    H2 8845   0.267   1.717   5.907
 2968TIP3   OH2 8846   1.596   0.179   1.172
 2968TIP3    H1 8847   1.523   0.152   1.117
 2968TIP3    H2 8848   1.670   0.128   1.140
 2969TIP3   OH2 8849   2.530   3.796   3.925
 2969TIP3    H1 8850   2.525   3.706   3.893
 2969TIP3    H2 8851   2.540   3.849   3.847
 2970TIP3   OH2 8852   6.114   0.332   2.542
 2970TIP3    H1 8853   6.099   0.372   2.457
 2970TIP3    H2 8854   6.048   0.263   2.548
 2971TIP3   OH2 8855   5.691   1.374   4.860
 2971TIP3    H1 8856   5.634   1.322   4.803
 2971TIP3    H2 8857   5.708   1.317   4.935
 2972TIP3   OH2 8858   6.746   2.145   2.378
 2972TIP3    H1 8859   6.783   2.076   2.434
 2972TIP3    H2 8860   6.802   2.145   2.300
 2973TIP3   OH2 8861   1.473   3.091   2.198
 2973TIP3    H1 8862   1.471   3.092   2.294
 2973TIP3    H2 8863   1.393   3.137   2.173
 2974TIP3   OH2 8864   4.643   6.773   2.998
 2974TIP3    H1 8865   4.568   6.735   2.952
 2974TIP3    H2 8866   4.681   6.699   3.046
 2975TIP3   OH2 8867   1.734   5.285   3.492
 2975TIP3    H1 8868   1.736   5.244   3.578
 2975TIP3    H2 8869   1.646   5.322   3.485
 2976TIP3   OH2 8870   0.366   0.688   1.150
 2976TIP3    H1 8871   0.421   0.663   1.076
 2976TIP3    H2 8872   0.398   0.633   1.223
 2977TIP3   OH2 8873   0.915   5.338   6.609
 2977TIP3    H1 8874   0.995   5.335   6.556
 2977TIP3    H2 8875   0.908   5.249   6.646
 2978TIP3   OH2 8876   5.702   6.173   3.523
 2978TIP3    H1 8877   5.701   6.145   3.615
 2978TIP3    H2 8878   5.620   6.222   3.513
 2979TIP3   OH2 8879   4.392   7.218   2.467
 2979TIP3    H1 8880   4.395   7.232   2.562
 2979TIP3    H2 8881   4.479   7.187   2.444
 2980TIP3   OH2 8882   4.948   7.746   1.677
 2980TIP3    H1 8883   5.033   7.774   1.709
 2980TIP3    H2 8884   4.947   7.773   1.585
 2981TIP3   OH2 8885   2.671   5.064   5.833
 2981TIP3    H1 8886   2.585   5.031   5.857
 2981TIP3    H2 8887   2.678   5.149   5.876
 2982TIP3   OH2 8888   5.755   3.560   0.457
 2982TIP3    H1 8889   5.686   3.596   0.511
 2982TIP3    H2 8890   5.715   3.551   0.370
 2983TIP3   OH2 8891   3.279   2.837   5.208
 2983TIP3    H1 8892   3.221   2.890   5.153
 2983TIP3    H2 8893   3.354   2.894   5.225
 2984TIP3   OH2 8894   4.259   4.814   3.161
 2984TIP3    H1 8895   4.285   4.901   3.192
 2984TIP3    H2 8896   4.223   4.830   3.074
 2985TIP3   OH2 8897   4.483   6.060   6.534
 2985TIP3    H1 8898   4.493   6.115   6.611
 2985TIP3    H2 8899   4.459   5.974   6.569
 2986TIP3   OH2 8900   1.857   5.947   4.055
 2986TIP3    H1 8901   1.889   5.895   4.129
 2986TIP3    H2 8902   1.931   6.003   4.032
 2987TIP3   OH2 8903   7.051   3.960   4.423
 2987TIP3    H1 8904   7.068   4.042   4.376
 2987TIP3    H2 8905   7.123   3.902   4.398
 2988TIP3   OH2 8906   4.012   5.923   0.594
 2988TIP3    H1 8907   4.027   5.985   0.666
 2988TIP3    H2 8908   3.950   5.968   0.536
 2989TIP3   OH2 8909   5.206   3.675   1.899
 2989TIP3    H1 8910   5.114   3.653   1.910
 2989TIP3    H2 8911   5.208   3.736   1.826
 2990TIP3   OH2 8912   1.939   4.833   0.265
 2990TIP3    H1 8913   2.024   4.877   0.267
 2990TIP3    H2 8914   1.900   4.852   0.350
 2991TIP3   OH2 8915   0.525   2.829   6.654
 2991TIP3    H1 8916   0.430   2.828   6.658
 2991TIP3    H2 8917   0.552   2.863   6.740
 2992TIP3   OH2 8918   5.940   4.504   5.344
 2992TIP3    H1 8919   5.963   4.413   5.365
 2992TIP3    H2 8920   6.015   4.555   5.374
 2993TIP3   OH2 8921   6.466   3.408   1.960
 2993TIP3    H1 8922   6.407   3.472   2.001
 2993TIP3    H2 8923   6.528   3.461   1.910
 2994TIP3   OH2 8924   7.530   0.753   4.551
 2994TIP3    H1 8925   7.442   0.772   4.584
 2994TIP3    H2 8926   7.538   0.658   4.561
 2995TIP3   OH2 8927   0.506   4.335   3.249
 2995TIP3    H1 8928   0.541   4.410   3.201
 2995TIP3    H2 8929   0.580   4.305   3.302
 2996TIP3   OH2 8930   5.828   0.607   3.999
 2996TIP3    H1 8931   5.916   0.581   3.973
 2996TIP3    H2 8932   5.833   0.702   4.011
 2997TIP3   OH2 8933   5.439   1.511   2.232
 2997TIP3    H1 8934   5.384   1.574   2.279
 2997TIP3    H2 8935   5.495   1.473   2.300
 2998TIP3   OH2 8936   3.696   3.667   5.438
 2998TIP3    H1 8937   3.614   3.691   5.393
 2998TIP3    H2 8938   3.692   3.571   5.445
 2999TIP3   OH2 8939   5.362   4.506   3.296
 2999TIP3    H1 8940   5.347   4.543   3.209
 2999TIP3    H2 8941   5.292   4.442   3.307
 3000TIP3   OH2 8942   8.180   7.634   5.847
 3000TIP3    H1 8943   8.264   7.595   5.872
 3000TIP3    H2 8944   8.203   7.702   5.784
 3001TIP3   OH2 8945   6.724   6.949   3.057
 3001TIP3    H1 8946   6.694   6.986   3.141
 3001TIP3    H2 8947   6.718   6.854   3.069
 3002TIP3   OH2 8948   1.165   3.128   3.435
 3002TIP3    H1 8949   1.228   3.171   3.493
 3002TIP3    H2 8950   1.079   3.149   3.471
 3003TIP3   OH2 8951   1.134   5.957   2.714
 3003TIP3    H1 8952   1.182   5.880   2.742
 3003TIP3    H2 8953   1.168   5.977   2.627
 3004TIP3   OH2 8954   1.454   1.450   6.186
 3004TIP3    H1 8955   1.445   1.543   6.210
 3004TIP3    H2 8956   1.493   1.451   6.099
 3005TIP3   OH2 8957   1.824   3.553   5.036
 3005TIP3    H1 8958   1.866   3.614   5.096
 3005TIP3    H2 8959   1.740   3.593   5.016
 3006TIP3   OH2 8960   7.125   4.920   3.245
 3006TIP3    H1 8961   7.057   4.866   3.204
 3006TIP3    H2 8962   7.081   4.965   3.317
 3007TIP3   OH2 8963   7.175   7.579   2.949
 3007TIP3    H1 8964   7.196   7.496   2.992
 3007TIP3    H2 8965   7.132   7.554   2.867
 3008TIP3   OH2 8966   3.595   1.171   5.010
 3008TIP3    H1 8967   3.507   1.181   5.046
 3008TIP3    H2 8968   3.608   1.248   4.954
 3009TIP3   OH2 8969   6.836   3.848   0.583
 3009TIP3    H1 8970   6.811   3.801   0.504
 3009TIP3    H2 8971   6.812   3.790   0.655
 3010TIP3   OH2 8972   0.535   0.536   6.421
 3010TIP3    H1 8973   0.494   0.619   6.446
 3010TIP3    H2 8974   0.580   0.556   6.339
 3011TIP3   OH2 8975   5.472   1.005   0.749
 3011TIP3    H1 8976   5.553   1.008   0.698
 3011TIP3    H2 8977   5.421   0.934   0.709
 3012TIP3   OH2 8978   0.139   2.212   5.789
 3012TIP3    H1 8979   0.094   2.256   5.717
 3012TIP3    H2 8980   0.109   2.121   5.784
 3013TIP3   OH2 8981   6.961   0.421   3.432
 3013TIP3    H1 8982   7.026   0.376   3.378
 3013TIP3    H2 8983   6.943   0.360   3.503
 3014TIP3   OH2 8984   5.593   2.804   0.398
 3014TIP3    H1 8985   5.678   2.778   0.364
 3014TIP3    H2 8986   5.577   2.890   0.359
 3015TIP3   OH2 8987   5.490   3.416   6.474
 3015TIP3    H1 8988   5.461   3.445   6.561
 3015TIP3    H2 8989   5.447   3.331   6.462
 3016TIP3   OH2 8990   2.377   1.838   4.238
 3016TIP3    H1 8991   2.312   1.903   4.264
 3016TIP3    H2 8992   2.329   1.756   4.234
 3017TIP3   OH2 8993   7.328   3.353   5.887
 3017TIP3    H1 8994   7.357   3.341   5.977
 3017TIP3    H2 8995   7.381   3.427   5.855
 3018TIP3   OH2 8996   1.852   4.656   1.961
 3018TIP3    H1 8997   1.891   4.736   1.925
 3018TIP3    H2 8998   1.848   4.671   2.055
 3019TIP3   OH2 8999   7.764   4.681   1.851
 3019TIP3    H1 9000   7.825   4.754   1.856
 3019TIP3    H2 9001   7.777   4.645   1.763
 3020TIP3   OH2 9002   2.028   5.339   1.645
 3020TIP3    H1 9003   1.987   5.271   1.698
 3020TIP3    H2 9004   2.073   5.291   1.575
 3021TIP3   OH2 9005   2.361   1.868   0.985
 3021TIP3    H1 9006   2.317   1.912   0.911
 3021TIP3    H2 9007   2.339   1.776   0.973
 3022TIP3   OH2 9008   4.505   6.442   6.251
 3022TIP3    H1 9009   4.470   6.354   6.265
 3022TIP3    H2 9010   4.502   6.455   6.157
 3023TIP3   OH2 9011   2.723   2.625   6.094
 3023TIP3    H1 9012   2.757   2.665   6.015
 3023TIP3    H2 9013   2.701   2.699   6.151
 3024TIP3   OH2 9014   1.958   3.328   5.221
 3024TIP3    H1 9015   2.000   3.413   5.210
 3024TIP3    H2 9016   1.885   3.346   5.280
 3025TIP3   OH2 9017   4.398   5.840   4.685
 3025TIP3    H1 9018   4.376   5.747   4.689
 3025TIP3    H2 9019   4.337   5.875   4.620
 3026TIP3   OH2 9020   2.648   3.705   2.611
 3026TIP3    H1 9021   2.671   3.614   2.628
 3026TIP3    H2 9022   2.553   3.703   2.598
 3027TIP3   OH2 9023   7.743   4.493   5.433
 3027TIP3    H1 9024   7.724   4.404   5.405
 3027TIP3    H2 9025   7.839   4.497   5.437
 3028TIP3   OH2 9026   0.796   7.493   0.323
 3028TIP3    H1 9027   0.885   7.478   0.290
 3028TIP3    H2 9028   0.740   7.445   0.262
 3029TIP3   OH2 9029   4.493   1.605   5.747
 3029TIP3    H1 9030   4.467   1.567   5.831
 3029TIP3    H2 9031   4.426   1.670   5.728
 3030TIP3   OH2 9032   2.751   4.504   6.678
 3030TIP3    H1 9033   2.727   4.510   6.586
 3030TIP3    H2 9034   2.834   4.553   6.684
 3031TIP3   OH2 9035   4.584   3.236   6.377
 3031TIP3    H1 9036   4.523   3.258   6.307
 3031TIP3    H2 9037   4.538   3.258   6.458
 3032TIP3   OH2 9038   6.001   0.425   0.794
 3032TIP3    H1 9039   6.094   0.441   0.809
 3032TIP3    H2 9040   5.993   0.330   0.790
 3033TIP3   OH2 9041   0.201   3.670   4.099
 3033TIP3    H1 9042   0.294   3.670   4.125
 3033TIP3    H2 9043   0.194   3.598   4.037
 3034TIP3   OH2 9044   7.877   0.494   5.214
 3034TIP3    H1 9045   7.798   0.518   5.263
 3034TIP3    H2 9046   7.939   0.566   5.231
 3035TIP3   OH2 9047   7.949   5.146   0.530
 3035TIP3    H1 9048   7.883   5.136   0.599
 3035TIP3    H2 9049   8.028   5.174   0.576
 3036TIP3   OH2 9050   1.703   4.118   1.388
 3036TIP3    H1 9051   1.721   4.074   1.471
 3036TIP3    H2 9052   1.634   4.066   1.348
 3037TIP3   OH2 9053   2.769   5.422   2.736
 3037TIP3    H1 9054   2.805   5.339   2.768
 3037TIP3    H2 9055   2.814   5.489   2.787
 3038TIP3   OH2 9056   1.915   4.359   5.324
 3038TIP3    H1 9057   1.987   4.327   5.378
 3038TIP3    H2 9058   1.840   4.363   5.383
 3039TIP3   OH2 9059   4.762   5.447   1.162
 3039TIP3    H1 9060   4.811   5.448   1.081
 3039TIP3    H2 9061   4.700   5.519   1.153
 3040TIP3   OH2 9062   1.258   4.228   2.949
 3040TIP3    H1 9063   1.252   4.323   2.950
 3040TIP3    H2 9064   1.169   4.198   2.966
 3041TIP3   OH2 9065   1.878   0.615   3.221
 3041TIP3    H1 9066   1.852   0.617   3.129
 3041TIP3    H2 9067   1.797   0.632   3.269
 3042TIP3   OH2 9068   3.390   3.435   4.905
 3042TIP3    H1 9069   3.433   3.495   4.843
 3042TIP3    H2 9070   3.296   3.453   4.894
 3043TIP3   OH2 9071   3.905   4.813   4.597
 3043TIP3    H1 9072   3.861   4.862   4.527
 3043TIP3    H2 9073   3.901   4.722   4.569
 3044TIP3   OH2 9074   7.114   5.650   6.752
 3044TIP3    H1 9075   7.051   5.583   6.726
 3044TIP3    H2 9076   7.073   5.695   6.826
 3045TIP3   OH2 9077   6.772   6.033   1.413
 3045TIP3    H1 9078   6.776   5.951   1.364
 3045TIP3    H2 9079   6.753   6.099   1.347
 3046TIP3   OH2 9080   5.565   0.753   5.007
 3046TIP3    H1 9081   5.558   0.787   4.918
 3046TIP3    H2 9082   5.650   0.783   5.038
 3047TIP3   OH2 9083   4.875   3.985   5.659
 3047TIP3    H1 9084   4.950   3.929   5.678
 3047TIP3    H2 9085   4.835   4.001   5.744
 3048TIP3   OH2 9086   6.616   4.966   2.005
 3048TIP3    H1 9087   6.677   4.909   1.959
 3048TIP3    H2 9088   6.591   5.032   1.940
 3049TIP3   OH2 9089   3.995   7.670   0.352
 3049TIP3    H1 9090   3.961   7.598   0.406
 3049TIP3    H2 9091   3.920   7.729   0.343
 3050TIP3   OH2 9092   6.725   7.629   1.320
 3050TIP3    H1 9093   6.724   7.646   1.414
 3050TIP3    H2 9094   6.668   7.553   1.309
 3051TIP3   OH2 9095   0.121   3.547   0.768
 3051TIP3    H1 9096   0.080   3.463   0.788
 3051TIP3    H2 9097   0.214   3.533   0.783
 3052TIP3   OH2 9098   7.940   2.285   3.368
 3052TIP3    H1 9099   7.916   2.285   3.461
 3052TIP3    H2 9100   7.869   2.238   3.325
 3053TIP3   OH2 9101   4.880   6.773   4.035
 3053TIP3    H1 9102   4.803   6.825   4.012
 3053TIP3    H2 9103   4.954   6.826   4.005
 3054TIP3   OH2 9104   3.497   4.255   2.889
 3054TIP3    H1 9105   3.535   4.214   2.968
 3054TIP3    H2 9106   3.444   4.185   2.849
 3055TIP3   OH2 9107   6.074   5.917   0.071
 3055TIP3    H1 9108   5.984   5.905   0.039
 3055TIP3    H2 9109   6.090   6.011   0.062
 3056TIP3   OH2 9110   6.839   0.824   4.929
 3056TIP3    H1 9111   6.774   0.779   4.983
 3056TIP3    H2 9112   6.805   0.816   4.840
 3057TIP3   OH2 9113   2.830   5.676   3.196
 3057TIP3    H1 9114   2.788   5.734   3.259
 3057TIP3    H2 9115   2.923   5.697   3.203
 3058TIP3   OH2 9116   2.564   2.079   6.162
 3058TIP3    H1 9117   2.603   2.000   6.198
 3058TIP3    H2 9118   2.486   2.094   6.216
 3059TIP3   OH2 9119   1.203   7.216   1.127
 3059TIP3    H1 9120   1.176   7.293   1.078
 3059TIP3    H2 9121   1.128   7.194   1.182
 3060TIP3   OH2 9122   4.877   3.844   0.516
 3060TIP3    H1 9123   4.881   3.785   0.440
 3060TIP3    H2 9124   4.810   3.908   0.493
 3061TIP3   OH2 9125   5.753   6.576   5.554
 3061TIP3    H1 9126   5.787   6.665   5.546
 3061TIP3    H2 9127   5.694   6.566   5.479
 3062TIP3   OH2 9128   3.770   1.963   0.583
 3062TIP3    H1 9129   3.725   1.985   0.502
 3062TIP3    H2 9130   3.722   2.012   0.651
 3063TIP3   OH2 9131   6.467   6.940   1.744
 3063TIP3    H1 9132   6.454   7.030   1.713
 3063TIP3    H2 9133   6.548   6.943   1.795
 3064TIP3   OH2 9134   2.485   0.591   5.799
 3064TIP3    H1 9135   2.534   0.673   5.793
 3064TIP3    H2 9136   2.397   0.614   5.768
 3065TIP3   OH2 9137   5.358   6.473   0.987
 3065TIP3    H1 9138   5.387   6.438   0.903
 3065TIP3    H2 9139   5.439   6.491   1.035
 3066TIP3   OH2 9140   6.725   2.886   4.730
 3066TIP3    H1 9141   6.676   2.862   4.651
 3066TIP3    H2 9142   6.657   2.902   4.796
 3067TIP3   OH2 9143   2.603   2.353   2.370
 3067TIP3    H1 9144   2.617   2.302   2.290
 3067TIP3    H2 9145   2.691   2.375   2.400
 3068TIP3   OH2 9146   1.711   0.795   1.095
 3068TIP3    H1 9147   1.662   0.836   1.166
 3068TIP3    H2 9148   1.767   0.864   1.060
 3069TIP3   OH2 9149   0.541   5.198   1.015
 3069TIP3    H1 9150   0.501   5.285   1.011
 3069TIP3    H2 9151   0.601   5.203   1.090
 3070TIP3   OH2 9152   7.272   5.445   2.918
 3070TIP3    H1 9153   7.249   5.491   2.999
 3070TIP3    H2 9154   7.197   5.387   2.902
 3071TIP3   OH2 9155   4.442   0.673   3.653
 3071TIP3    H1 9156   4.434   0.757   3.698
 3071TIP3    H2 9157   4.529   0.641   3.677
 3072TIP3   OH2 9158   0.833   4.909   3.059
 3072TIP3    H1 9159   0.783   4.879   2.983
 3072TIP3    H2 9160   0.887   4.981   3.025
 3073TIP3   OH2 9161   7.791   0.738   2.067
 3073TIP3    H1 9162   7.776   0.817   2.015
 3073TIP3    H2 9163   7.823   0.772   2.151
 3074TIP3   OH2 9164   2.253   7.403   3.689
 3074TIP3    H1 9165   2.310   7.420   3.614
 3074TIP3    H2 9166   2.267   7.478   3.748
 3075TIP3   OH2 9167   4.589   5.526   1.490
 3075TIP3    H1 9168   4.528   5.594   1.462
 3075TIP3    H2 9169   4.546   5.444   1.464
 3076TIP3   OH2 9170   1.873   1.711   4.748
 3076TIP3    H1 9171   1.851   1.803   4.758
 3076TIP3    H2 9172   1.900   1.682   4.835
 3077TIP3   OH2 9173   3.370   7.535   5.030
 3077TIP3    H1 9174   3.366   7.585   4.949
 3077TIP3    H2 9175   3.357   7.599   5.100
 3078TIP3   OH2 9176   7.561   3.171   4.896
 3078TIP3    H1 9177   7.471   3.145   4.916
 3078TIP3    H2 9178   7.588   3.224   4.971
 3079TIP3   OH2 9179   3.109   4.053   0.839
 3079TIP3    H1 9180   3.105   4.057   0.935
 3079TIP3    H2 9181   3.048   3.982   0.816
 3080TIP3   OH2 9182   6.214   6.754   4.896
 3080TIP3    H1 9183   6.145   6.786   4.839
 3080TIP3    H2 9184   6.229   6.664   4.866
 3081TIP3   OH2 9185   7.516   0.465   4.575
 3081TIP3    H1 9186   7.429   0.472   4.614
 3081TIP3    H2 9187   7.502   0.418   4.492
 3082TIP3   OH2 9188   6.303   0.949   4.553
 3082TIP3    H1 9189   6.278   0.914   4.639
 3082TIP3    H2 9190   6.398   0.960   4.558
 3083TIP3   OH2 9191   6.181   5.841   2.175
 3083TIP3    H1 9192   6.110   5.903   2.159
 3083TIP3    H2 9193   6.216   5.866   2.261
 3084TIP3   OH2 9194   4.629   6.702   1.561
 3084TIP3    H1 9195   4.706   6.654   1.592
 3084TIP3    H2 9196   4.590   6.643   1.496
 3085TIP3   OH2 9197   0.454   5.093   0.551
 3085TIP3    H1 9198   0.464   5.106   0.456
 3085TIP3    H2 9199   0.448   4.999   0.562
 3086TIP3   OH2 9200   6.316   1.379   2.754
 3086TIP3    H1 9201   6.278   1.460   2.721
 3086TIP3    H2 9202   6.295   1.314   2.688
 3087TIP3   OH2 9203   1.701   6.963   2.880
 3087TIP3    H1 9204   1.707   6.996   2.791
 3087TIP3    H2 9205   1.628   6.900   2.877
 3088TIP3   OH2 9206   4.326   5.067   1.467
 3088TIP3    H1 9207   4.231   5.055   1.472
 3088TIP3    H2 9208   4.353   5.016   1.391
 3089TIP3   OH2 9209   4.056   5.353   6.043
 3089TIP3    H1 9210   3.972   5.309   6.032
 3089TIP3    H2 9211   4.091   5.359   5.954
 3090TIP3   OH2 9212   7.857   1.513   1.135
 3090TIP3    H1 9213   7.911   1.449   1.087
 3090TIP3    H2 9214   7.796   1.546   1.070
 3091TIP3   OH2 9215   1.890   3.612   2.180
 3091TIP3    H1 9216   1.888   3.532   2.129
 3091TIP3    H2 9217   1.802   3.619   2.217
 3092TIP3   OH2 9218   1.550   6.646   5.800
 3092TIP3    H1 9219   1.572   6.553   5.806
 3092TIP3    H2 9220   1.612   6.681   5.736
 3093TIP3   OH2 9221   2.940   3.259   3.286
 3093TIP3    H1 9222   3.032   3.243   3.269
 3093TIP3    H2 9223   2.899   3.173   3.280
 3094TIP3   OH2 9224   0.468   2.027   4.131
 3094TIP3    H1 9225   0.528   1.958   4.102
 3094TIP3    H2 9226   0.497   2.048   4.219
 3095TIP3   OH2 9227   0.365   6.922   4.160
 3095TIP3    H1 9228   0.280   6.967   4.153
 3095TIP3    H2 9229   0.343   6.829   4.148
 3096TIP3   OH2 9230   6.580   7.262   5.837
 3096TIP3    H1 9231   6.609   7.319   5.766
 3096TIP3    H2 9232   6.495   7.297   5.863
 3097TIP3   OH2 9233   4.291   1.167   1.388
 3097TIP3    H1 9234   4.216   1.178   1.447
 3097TIP3    H2 9235   4.286   1.243   1.329
 3098TIP3   OH2 9236   4.153   5.188   0.523
 3098TIP3    H1 9237   4.166   5.112   0.579
 3098TIP3    H2 9238   4.093   5.244   0.573
 3099TIP3   OH2 9239   6.613   3.627   2.169
 3099TIP3    H1 9240   6.613   3.703   2.227
 3099TIP3    H2 9241   6.562   3.655   2.093
 3100TIP3   OH2 9242   6.371   6.121   4.964
 3100TIP3    H1 9243   6.406   6.043   4.919
 3100TIP3    H2 9244   6.339   6.177   4.893
 3101TIP3   OH2 9245   3.831   1.215   5.150
 3101TIP3    H1 9246   3.887   1.157   5.099
 3101TIP3    H2 9247   3.744   1.204   5.111
 3102TIP3   OH2 9248   7.272   4.865   6.614
 3102TIP3    H1 9249   7.299   4.898   6.700
 3102TIP3    H2 9250   7.282   4.770   6.622
 3103TIP3   OH2 9251   2.565   4.688   1.198
 3103TIP3    H1 9252   2.564   4.764   1.256
 3103TIP3    H2 9253   2.596   4.617   1.254
 3104TIP3   OH2 9254   5.850   4.151   4.695
 3104TIP3    H1 9255   5.889   4.141   4.782
 3104TIP3    H2 9256   5.816   4.064   4.674
 3105TIP3   OH2 9257   0.520   1.707   1.311
 3105TIP3    H1 9258   0.543   1.799   1.311
 3105TIP3    H2 9259   0.476   1.692   1.228
 3106TIP3   OH2 9260   8.178   0.790   6.335
 3106TIP3    H1 9261   8.211   0.709   6.294
 3106TIP3    H2 9262   8.090   0.767   6.365
 3107TIP3   OH2 9263   2.126   1.705   0.742
 3107TIP3    H1 9264   2.145   1.799   0.744
 3107TIP3    H2 9265   2.066   1.691   0.815
 3108TIP3   OH2 9266   2.635   7.053   4.290
 3108TIP3    H1 9267   2.549   7.014   4.276
 3108TIP3    H2 9268   2.617   7.145   4.309
 3109TIP3   OH2 9269   3.029   1.138   4.721
 3109TIP3    H1 9270   3.064   1.070   4.778
 3109TIP3    H2 9271   2.946   1.163   4.761
 3110TIP3   OH2 9272   1.398   3.037   0.302
 3110TIP3    H1 9273   1.459   3.108   0.280
 3110TIP3    H2 9274   1.420   2.967   0.240
 3111TIP3   OH2 9275   0.533   2.817   3.121
 3111TIP3    H1 9276   0.541   2.862   3.036
 3111TIP3    H2 9277   0.474   2.744   3.104
 3112TIP3   OH2 9278   4.451   6.295   4.692
 3112TIP3    H1 9279   4.457   6.282   4.597
 3112TIP3    H2 9280   4.357   6.286   4.711
 3113TIP3   OH2 9281   7.951   4.142   3.785
 3113TIP3    H1 9282   7.996   4.067   3.825
 3113TIP3    H2 9283   8.012   4.175   3.720
 3114TIP3   OH2 9284   1.102   5.337   5.280
 3114TIP3    H1 9285   1.115   5.249   5.316
 3114TIP3    H2 9286   1.007   5.346   5.273
 3115TIP3   OH2 9287   2.577   5.201   3.806
 3115TIP3    H1 9288   2.493   5.164   3.831
 3115TIP3    H2 9289   2.584   5.281   3.858
 3116TIP3   OH2 9290   3.856   0.768   2.587
 3116TIP3    H1 9291   3.909   0.738   2.661
 3116TIP3    H2 9292   3.865   0.863   2.588
 3117TIP3   OH2 9293   3.444   0.228   6.606
 3117TIP3    H1 9294   3.420   0.245   6.697
 3117TIP3    H2 9295   3.516   0.165   6.612
 3118TIP3   OH2 9296   2.750   1.122   4.314
 3118TIP3    H1 9297   2.769   1.100   4.223
 3118TIP3    H2 9298   2.814   1.072   4.365
 3119TIP3   OH2 9299   6.702   1.986   4.277
 3119TIP3    H1 9300   6.661   2.055   4.226
 3119TIP3    H2 9301   6.734   2.029   4.356
 3120TIP3   OH2 9302   1.147   4.720   2.153
 3120TIP3    H1 9303   1.160   4.803   2.198
 3120TIP3    H2 9304   1.200   4.657   2.202
 3121TIP3   OH2 9305   0.651   1.326   2.835
 3121TIP3    H1 9306   0.707   1.403   2.826
 3121TIP3    H2 9307   0.615   1.313   2.747
 3122TIP3   OH2 9308   7.306   7.129   5.933
 3122TIP3    H1 9309   7.343   7.149   5.847
 3122TIP3    H2 9310   7.280   7.214   5.968
 3123TIP3   OH2 9311   1.555   4.757   1.323
 3123TIP3    H1 9312   1.630   4.721   1.276
 3123TIP3    H2 9313   1.588   4.778   1.410
 3124TIP3   OH2 9314   4.063   1.007   2.248
 3124TIP3    H1 9315   4.098   0.975   2.332
 3124TIP3    H2 9316   4.138   1.008   2.190
 3125TIP3   OH2 9317   3.889   2.703   1.628
 3125TIP3    H1 9318   3.856   2.617   1.605
 3125TIP3    H2 9319   3.881   2.754   1.547
 3126TIP3   OH2 9320   3.545   1.063   3.013
 3126TIP3    H1 9321   3.608   0.991   3.003
 3126TIP3    H2 9322   3.514   1.055   3.103
 3127TIP3   OH2 9323   5.251   3.005   0.964
 3127TIP3    H1 9324   5.170   3.028   1.008
 3127TIP3    H2 9325   5.253   3.060   0.886
 3128TIP3   OH2 9326   1.980   2.181   3.482
 3128TIP3    H1 9327   1.972   2.271   3.512
 3128TIP3    H2 9328   1.896   2.162   3.439
 3129TIP3   OH2 9329   0.465   5.313   0.700
 3129TIP3    H1 9330   0.390   5.331   0.757
 3129TIP3    H2 9331   0.439   5.237   0.649
 3130TIP3   OH2 9332   0.354   0.379   6.127
 3130TIP3    H1 9333   0.396   0.447   6.179
 3130TIP3    H2 9334   0.372   0.403   6.036
 3131TIP3   OH2 9335   7.092   0.935   2.372
 3131TIP3    H1 9336   7.182   0.918   2.345
 3131TIP3    H2 9337   7.096   1.018   2.419
 3132TIP3   OH2 9338   2.414   0.569   4.425
 3132TIP3    H1 9339   2.472   0.632   4.468
 3132TIP3    H2 9340   2.441   0.571   4.333
 3133TIP3   OH2 9341   8.173   1.569   5.325
 3133TIP3    H1 9342   8.252   1.590   5.275
 3133TIP3    H2 9343   8.199   1.495   5.380
 3134TIP3   OH2 9344   1.894   5.815   3.042
 3134TIP3    H1 9345   1.942   5.742   3.004
 3134TIP3    H2 9346   1.940   5.833   3.124
 3135TIP3   OH2 9347   7.065   6.178   3.660
 3135TIP3    H1 9348   7.139   6.118   3.664
 3135TIP3    H2 9349   7.091   6.244   3.596
 3136TIP3   OH2 9350   5.301   4.200   1.389
 3136TIP3    H1 9351   5.211   4.224   1.367
 3136TIP3    H2 9352   5.346   4.195   1.305
 3137TIP3   OH2 9353   1.367   4.877   1.890
 3137TIP3    H1 9354   1.385   4.895   1.982
 3137TIP3    H2 9355   1.273   4.897   1.880
 3138TIP3   OH2 9356   7.090   0.666   5.281
 3138TIP3    H1 9357   7.046   0.735   5.232
 3138TIP3    H2 9358   7.071   0.586   5.233
 3139TIP3   OH2 9359   3.814   3.533   1.932
 3139TIP3    H1 9360   3.753   3.488   1.873
 3139TIP3    H2 9361   3.759   3.594   1.981
 3140TIP3   OH2 9362   2.320   3.747   3.522
 3140TIP3    H1 9363   2.400   3.768   3.475
 3140TIP3    H2 9364   2.335   3.659   3.557
 3141TIP3   OH2 9365  -0.017   0.718   3.183
 3141TIP3    H1 9366  -0.050   0.745   3.269
 3141TIP3    H2 9367   0.074   0.748   3.182
 3142TIP3   OH2 9368   5.837   4.721   1.121
 3142TIP3    H1 9369   5.790   4.655   1.172
 3142TIP3    H2 9370   5.913   4.674   1.086
 3143TIP3   OH2 9371   5.375   4.137   3.166
 3143TIP3    H1 9372   5.441   4.202   3.140
 3143TIP3    H2 9373   5.305   4.189   3.206
 3144TIP3   OH2 9374   2.566   1.902   0.733
 3144TIP3    H1 9375   2.535   1.812   0.739
 3144TIP3    H2 9376   2.488   1.956   0.742
 3145TIP3   OH2 9377   5.862   7.736   4.409
 3145TIP3    H1 9378   5.813   7.673   4.356
 3145TIP3    H2 9379   5.935   7.762   4.354
 3146TIP3   OH2 9380   3.491   5.076   4.587
 3146TIP3    H1 9381   3.554   5.125   4.640
 3146TIP3    H2 9382   3.500   4.985   4.616
 3147TIP3   OH2 9383   1.647   7.237   6.238
 3147TIP3    H1 9384   1.715   7.170   6.245
 3147TIP3    H2 9385   1.640   7.274   6.326
 3148TIP3   OH2 9386   7.039   0.471   2.661
 3148TIP3    H1 9387   7.018   0.482   2.569
 3148TIP3    H2 9388   7.045   0.560   2.695
 3149TIP3   OH2 9389   7.636   3.856   4.582
 3149TIP3    H1 9390   7.644   3.766   4.614
 3149TIP3    H2 9391   7.723   3.878   4.550
 3150TIP3   OH2 9392   1.040   3.424   5.323
 3150TIP3    H1 9393   1.046   3.401   5.416
 3150TIP3    H2 9394   1.131   3.436   5.296
 3151TIP3   OH2 9395   2.683   1.947   0.982
 3151TIP3    H1 9396   2.669   1.868   1.035
 3151TIP3    H2 9397   2.634   1.931   0.902
 3152TIP3   OH2 9398   0.696   2.356   1.393
 3152TIP3    H1 9399   0.763   2.350   1.325
 3152TIP3    H2 9400   0.613   2.364   1.345
 3153TIP3   OH2 9401   6.932   6.821   3.905
 3153TIP3    H1 9402   6.949   6.915   3.916
 3153TIP3    H2 9403   7.016   6.779   3.920
 3154TIP3   OH2 9404   5.961   2.438   5.708
 3154TIP3    H1 9405   6.022   2.390   5.765
 3154TIP3    H2 9406   5.897   2.475   5.768
 3155TIP3   OH2 9407   0.181   6.370   0.728
 3155TIP3    H1 9408   0.241   6.310   0.683
 3155TIP3    H2 9409   0.126   6.405   0.658
 3156TIP3   OH2 9410   5.261   2.835   0.311
 3156TIP3    H1 9411   5.325   2.793   0.369
 3156TIP3    H2 9412   5.282   2.802   0.224
 3157TIP3   OH2 9413   0.192   5.875   5.727
 3157TIP3    H1 9414   0.153   5.790   5.705
 3157TIP3    H2 9415   0.133   5.913   5.792
 3158TIP3   OH2 9416   3.715   4.188   2.169
 3158TIP3    H1 9417   3.626   4.167   2.197
 3158TIP3    H2 9418   3.767   4.189   2.250
 3159TIP3   OH2 9419   5.388   6.663   3.783
 3159TIP3    H1 9420   5.365   6.643   3.693
 3159TIP3    H2 9421   5.307   6.697   3.822
 3160TIP3   OH2 9422   0.822   2.235   5.642
 3160TIP3    H1 9423   0.880   2.254   5.568
 3160TIP3    H2 9424   0.734   2.234   5.604
 3161TIP3   OH2 9425   7.813   4.639   1.571
 3161TIP3    H1 9426   7.887   4.655   1.512
 3161TIP3    H2 9427   7.767   4.564   1.532
 3162TIP3   OH2 9428   5.792   1.948   2.230
 3162TIP3    H1 9429   5.738   1.987   2.161
 3162TIP3    H2 9430   5.862   2.011   2.244
 3163TIP3   OH2 9431   3.054   1.541   5.866
 3163TIP3    H1 9432   3.087   1.472   5.809
 3163TIP3    H2 9433   3.051   1.619   5.809
 3164TIP3   OH2 9434   1.655   2.090   0.624
 3164TIP3    H1 9435   1.607   2.077   0.543
 3164TIP3    H2 9436   1.588   2.107   0.690
 3165TIP3   OH2 9437   4.792   0.016   2.708
 3165TIP3    H1 9438   4.868   0.074   2.718
 3165TIP3    H2 9439   4.750   0.045   2.627
 3166TIP3   OH2 9440   4.290   1.521   6.759
 3166TIP3    H1 9441   4.205   1.558   6.785
 3166TIP3    H2 9442   4.267   1.444   6.707
 3167TIP3   OH2 9443   5.129   3.865   6.037
 3167TIP3    H1 9444   5.116   3.830   5.949
 3167TIP3    H2 9445   5.127   3.960   6.025
 3168TIP3   OH2 9446   0.591   1.553   2.349
 3168TIP3    H1 9447   0.578   1.642   2.317
 3168TIP3    H2 9448   0.572   1.557   2.443
 3169TIP3   OH2 9449   5.081   4.360   5.548
 3169TIP3    H1 9450   5.162   4.384   5.593
 3169TIP3    H2 9451   5.080   4.415   5.470
 3170TIP3   OH2 9452   6.545   4.695   6.493
 3170TIP3    H1 9453   6.575   4.748   6.566
 3170TIP3    H2 9454   6.565   4.605   6.518
 3171TIP3   OH2 9455   5.037   4.590   5.341
 3171TIP3    H1 9456   5.064   4.637   5.420
 3171TIP3    H2 9457   4.942   4.600   5.338
 3172TIP3   OH2 9458   7.597   3.936   6.725
 3172TIP3    H1 9459   7.524   3.875   6.712
 3172TIP3    H2 9460   7.570   3.989   6.800
 3173TIP3   OH2 9461   3.270   0.179   1.801
 3173TIP3    H1 9462   3.343   0.129   1.763
 3173TIP3    H2 9463   3.260   0.255   1.742
 3174TIP3   OH2 9464   5.367   4.207   1.097
 3174TIP3    H1 9465   5.382   4.167   1.012
 3174TIP3    H2 9466   5.356   4.300   1.079
 3175TIP3   OH2 9467   1.948   2.264   0.565
 3175TIP3    H1 9468   1.853   2.266   0.549
 3175TIP3    H2 9469   1.959   2.200   0.635
 3176TIP3   OH2 9470   6.728   2.963   2.201
 3176TIP3    H1 9471   6.753   3.041   2.151
 3176TIP3    H2 9472   6.713   2.896   2.134
 3177TIP3   OH2 9473   2.104   0.428   2.969
 3177TIP3    H1 9474   2.019   0.420   2.926
 3177TIP3    H2 9475   2.113   0.522   2.988
 3178TIP3   OH2 9476   3.199   4.010   4.733
 3178TIP3    H1 9477   3.181   3.916   4.736
 3178TIP3    H2 9478   3.290   4.017   4.763
 3179TIP3   OH2 9479   0.619   6.526   3.640
 3179TIP3    H1 9480   0.696   6.498   3.590
 3179TIP3    H2 9481   0.559   6.560   3.574
 3180TIP3   OH2 9482   4.051   0.181   3.640
 3180TIP3    H1 9483   4.028   0.106   3.695
 3180TIP3    H2 9484   3.997   0.252   3.672
 3181TIP3   OH2 9485   4.820   2.381   4.963
 3181TIP3    H1 9486   4.739   2.426   4.941
 3181TIP3    H2 9487   4.864   2.367   4.879
 3182TIP3   OH2 9488   7.429   2.767   0.981
 3182TIP3    H1 9489   7.396   2.759   0.892
 3182TIP3    H2 9490   7.449   2.677   1.007
 3183TIP3   OH2 9491   2.224   7.214   2.046
 3183TIP3    H1 9492   2.319   7.224   2.044
 3183TIP3    H2 9493   2.191   7.295   2.084
 3184TIP3   OH2 9494   2.466   6.060   2.773
 3184TIP3    H1 9495   2.452   6.098   2.686
 3184TIP3    H2 9496   2.454   6.134   2.833
 3185TIP3   OH2 9497   7.933   4.854   3.114
 3185TIP3    H1 9498   7.880   4.776   3.105
 3185TIP3    H2 9499   7.873   4.927   3.099
 3186TIP3   OH2 9500   6.140   2.282   0.016
 3186TIP3    H1 9501   6.215   2.336  -0.010
 3186TIP3    H2 9502   6.169   2.192   0.002
 3187TIP3   OH2 9503   4.600   4.556   0.234
 3187TIP3    H1 9504   4.571   4.519   0.318
 3187TIP3    H2 9505   4.562   4.498   0.168
 3188TIP3   OH2 9506   5.098   3.148   4.514
 3188TIP3    H1 9507   5.153   3.173   4.440
 3188TIP3    H2 9508   5.013   3.126   4.475
 3189TIP3   OH2 9509   6.523   1.511   0.201
 3189TIP3    H1 9510   6.575   1.454   0.258
 3189TIP3    H2 9511   6.434   1.477   0.208
 3190TIP3   OH2 9512   7.428   0.620   5.107
 3190TIP3    H1 9513   7.336   0.603   5.088
 3190TIP3    H2 9514   7.467   0.641   5.022
 3191TIP3   OH2 9515   4.564   6.807   6.371
 3191TIP3    H1 9516   4.600   6.718   6.371
 3191TIP3    H2 9517   4.581   6.839   6.460
 3192TIP3   OH2 9518   5.567   2.659   3.313
 3192TIP3    H1 9519   5.495   2.659   3.249
 3192TIP3    H2 9520   5.533   2.609   3.387
 3193TIP3   OH2 9521   2.571   1.516   2.112
 3193TIP3    H1 9522   2.500   1.493   2.172
 3193TIP3    H2 9523   2.557   1.458   2.036
 3194TIP3   OH2 9524   3.101   3.265   4.268
 3194TIP3    H1 9525   3.187   3.252   4.229
 3194TIP3    H2 9526   3.119   3.292   4.358
 3195TIP3   OH2 9527   3.099   2.755   5.768
 3195TIP3    H1 9528   3.045   2.679   5.745
 3195TIP3    H2 9529   3.189   2.726   5.756
 3196TIP3   OH2 9530   1.605   4.458   1.484
 3196TIP3    H1 9531   1.515   4.474   1.510
 3196TIP3    H2 9532   1.657   4.476   1.562
 3197TIP3   OH2 9533   6.332   4.572   5.697
 3197TIP3    H1 9534   6.280   4.608   5.626
 3197TIP3    H2 9535   6.388   4.507   5.656
 3198TIP3   OH2 9536   2.929   6.504   3.845
 3198TIP3    H1 9537   2.877   6.517   3.924
 3198TIP3    H2 9538   3.000   6.568   3.852
 3199TIP3   OH2 9539   0.036   3.717   4.536
 3199TIP3    H1 9540  -0.006   3.779   4.596
 3199TIP3    H2 9541  -0.010   3.731   4.453
 3200TIP3   OH2 9542   1.893   3.070   0.905
 3200TIP3    H1 9543   1.826   3.138   0.900
 3200TIP3    H2 9544   1.948   3.095   0.979
 3201TIP3   OH2 9545   6.929   5.137   0.630
 3201TIP3    H1 9546   6.979   5.123   0.549
 3201TIP3    H2 9547   6.996   5.154   0.696
 3202TIP3   OH2 9548   3.985   2.523   0.344
 3202TIP3    H1 9549   3.944   2.610   0.353
 3202TIP3    H2 9550   3.935   2.468   0.405
 3203TIP3   OH2 9551   1.702   2.581   1.399
 3203TIP3    H1 9552   1.629   2.555   1.343
 3203TIP3    H2 9553   1.749   2.499   1.416
 3204TIP3   OH2 9554   6.919   4.892   4.360
 3204TIP3    H1 9555   6.911   4.840   4.440
 3204TIP3    H2 9556   6.969   4.970   4.386
 3205TIP3   OH2 9557   7.866   2.049   4.832
 3205TIP3    H1 9558   7.938   1.986   4.838
 3205TIP3    H2 9559   7.805   2.009   4.770
 3206TIP3   OH2 9560   8.084   4.156   0.849
 3206TIP3    H1 9561   8.057   4.219   0.916
 3206TIP3    H2 9562   8.177   4.140   0.868
 3207TIP3   OH2 9563   6.734   6.923   1.872
 3207TIP3    H1 9564   6.782   6.994   1.915
 3207TIP3    H2 9565   6.757   6.845   1.922
 3208TIP3   OH2 9566   2.974   0.881   5.327
 3208TIP3    H1 9567   3.000   0.849   5.414
 3208TIP3    H2 9568   3.001   0.812   5.267
 3209TIP3   OH2 9569   8.124   1.943   0.067
 3209TIP3    H1 9570   8.207   1.978   0.099
 3209TIP3    H2 9571   8.058   1.998   0.108
 3210TIP3   OH2 9572   3.664   4.730   2.293
 3210TIP3    H1 9573   3.593   4.699   2.236
 3210TIP3    H2 9574   3.622   4.796   2.349
 3211TIP3   OH2 9575   2.047   0.567   0.026
 3211TIP3    H1 9576   2.074   0.489   0.074
 3211TIP3    H2 9577   1.993   0.616   0.088
 3212TIP3   OH2 9578   0.954   1.803   1.995
 3212TIP3    H1 9579   0.880   1.847   2.037
 3212TIP3    H2 9580   0.914   1.748   1.928
 3213TIP3   OH2 9581   7.239   2.506   6.130
 3213TIP3    H1 9582   7.252   2.495   6.036
 3213TIP3    H2 9583   7.274   2.426   6.169
 3214TIP3   OH2 9584   7.118   6.813   1.240
 3214TIP3    H1 9585   7.191   6.870   1.213
 3214TIP3    H2 9586   7.041   6.870   1.237
 3215TIP3   OH2 9587   3.483   0.984   0.097
 3215TIP3    H1 9588   3.489   0.970   0.003
 3215TIP3    H2 9589   3.498   1.078   0.109
 3216TIP3   OH2 9590   0.614   5.187   5.978
 3216TIP3    H1 9591   0.618   5.136   6.059
 3216TIP3    H2 9592   0.622   5.122   5.909
 3217TIP3   OH2 9593   3.410   5.811   6.215
 3217TIP3    H1 9594   3.322   5.834   6.243
 3217TIP3    H2 9595   3.457   5.894   6.213
 3218TIP3   OH2 9596   1.785   7.817   4.550
 3218TIP3    H1 9597   1.782   7.778   4.637
 3218TIP3    H2 9598   1.694   7.817   4.520
 3219TIP3   OH2 9599   0.325   6.812   1.318
 3219TIP3    H1 9600   0.310   6.766   1.401
 3219TIP3    H2 9601   0.336   6.742   1.254
 3220TIP3   OH2 9602   3.907   2.063   1.648
 3220TIP3    H1 9603   3.870   2.014   1.721
 3220TIP3    H2 9604   3.964   2.000   1.603
 3221TIP3   OH2 9605   2.383   3.889   2.798
 3221TIP3    H1 9606   2.412   3.823   2.736
 3221TIP3    H2 9607   2.371   3.841   2.880
 3222TIP3   OH2 9608   4.803   0.612   0.474
 3222TIP3    H1 9609   4.735   0.598   0.408
 3222TIP3    H2 9610   4.770   0.567   0.552
 3223TIP3   OH2 9611   6.289   2.818   3.270
 3223TIP3    H1 9612   6.315   2.909   3.264
 3223TIP3    H2 9613   6.213   2.818   3.329
 3224TIP3   OH2 9614   5.873   7.501   3.976
 3224TIP3    H1 9615   5.935   7.466   3.912
 3224TIP3    H2 9616   5.868   7.595   3.955
 3225TIP3   OH2 9617   0.027   5.053   1.589
 3225TIP3    H1 9618   0.106   5.007   1.616
 3225TIP3    H2 9619   0.058   5.121   1.529
 3226TIP3   OH2 9620   4.427   0.422   0.774
 3226TIP3    H1 9621   4.434   0.327   0.769
 3226TIP3    H2 9622   4.358   0.444   0.712
 3227TIP3   OH2 9623   1.839   0.056   1.119
 3227TIP3    H1 9624   1.934   0.065   1.122
 3227TIP3    H2 9625   1.815   0.015   1.202
 3228TIP3   OH2 9626   0.565   0.885   2.836
 3228TIP3    H1 9627   0.617   0.805   2.828
 3228TIP3    H2 9628   0.564   0.903   2.930
 3229TIP3   OH2 9629   6.297   0.317   1.900
 3229TIP3    H1 9630   6.315   0.391   1.957
 3229TIP3    H2 9631   6.373   0.259   1.912
 3230TIP3   OH2 9632   0.728   6.938   3.782
 3230TIP3    H1 9633   0.760   6.861   3.829
 3230TIP3    H2 9634   0.634   6.922   3.771
 3231TIP3   OH2 9635   5.194   1.996   2.349
 3231TIP3    H1 9636   5.186   2.077   2.400
 3231TIP3    H2 9637   5.127   1.938   2.384
 3232TIP3   OH2 9638   0.848   5.191   4.486
 3232TIP3    H1 9639   0.848   5.156   4.397
 3232TIP3    H2 9640   0.819   5.118   4.541
 3233TIP3   OH2 9641   7.779   2.203   2.931
 3233TIP3    H1 9642   7.873   2.212   2.948
 3233TIP3    H2 9643   7.771   2.211   2.836
 3234TIP3   OH2 9644   3.901   3.750   5.098
 3234TIP3    H1 9645   3.921   3.742   5.191
 3234TIP3    H2 9646   3.979   3.788   5.059
 3235TIP3   OH2 9647   5.800   4.103   4.375
 3235TIP3    H1 9648   5.884   4.120   4.417
 3235TIP3    H2 9649   5.755   4.042   4.433
 3236TIP3   OH2 9650   3.951   0.018   3.876
 3236TIP3    H1 9651   3.856   0.014   3.867
 3236TIP3    H2 9652   3.965   0.056   3.962
 3237TIP3   OH2 9653   3.332   4.024   0.018
 3237TIP3    H1 9654   3.394   4.022   0.090
 3237TIP3    H2 9655   3.291   4.111   0.025
 3238TIP3   OH2 9656   2.344   3.417   1.331
 3238TIP3    H1 9657   2.397   3.493   1.310
 3238TIP3    H2 9658   2.357   3.405   1.425
 3239TIP3   OH2 9659   6.249   6.135   3.157
 3239TIP3    H1 9660   6.154   6.144   3.169
 3239TIP3    H2 9661   6.277   6.220   3.123
 3240TIP3   OH2 9662   1.804   1.864   0.735
 3240TIP3    H1 9663   1.734   1.799   0.741
 3240TIP3    H2 9664   1.774   1.925   0.668
 3241TIP3   OH2 9665   1.806   7.005   0.722
 3241TIP3    H1 9666   1.899   6.993   0.742
 3241TIP3    H2 9667   1.798   6.978   0.630
 3242TIP3   OH2 9668   0.692   2.611   4.195
 3242TIP3    H1 9669   0.681   2.599   4.290
 3242TIP3    H2 9670   0.784   2.637   4.185
 3243TIP3   OH2 9671   2.699   1.573   4.159
 3243TIP3    H1 9672   2.657   1.609   4.237
 3243TIP3    H2 9673   2.781   1.623   4.151
 3244TIP3   OH2 9674   6.028   2.803   5.075
 3244TIP3    H1 9675   6.079   2.730   5.038
 3244TIP3    H2 9676   5.987   2.844   4.999
 3245TIP3   OH2 9677   4.014   6.578   0.165
 3245TIP3    H1 9678   4.021   6.525   0.085
 3245TIP3    H2 9679   4.100   6.572   0.206
 3246TIP3   OH2 9680   4.579   6.883   2.743
 3246TIP3    H1 9681   4.604   6.975   2.735
 3246TIP3    H2 9682   4.662   6.836   2.747
 3247TIP3   OH2 9683   5.283   0.535   4.858
 3247TIP3    H1 9684   5.312   0.576   4.940
 3247TIP3    H2 9685   5.349   0.468   4.840
 3248TIP3   OH2 9686   6.412   6.381   6.077
 3248TIP3    H1 9687   6.335   6.340   6.116
 3248TIP3    H2 9688   6.419   6.342   5.990
 3249TIP3   OH2 9689   3.891   6.416   6.474
 3249TIP3    H1 9690   3.900   6.512   6.469
 3249TIP3    H2 9691   3.949   6.390   6.545
 3250TIP3   OH2 9692   1.767   6.628   4.551
 3250TIP3    H1 9693   1.849   6.585   4.529
 3250TIP3    H2 9694   1.777   6.718   4.521
 3251TIP3   OH2 9695   3.443   5.828   1.438
 3251TIP3    H1 9696   3.433   5.765   1.508
 3251TIP3    H2 9697   3.514   5.885   1.466
 3252TIP3   OH2 9698   8.290   2.276   5.563
 3252TIP3    H1 9699   8.201   2.241   5.560
 3252TIP3    H2 9700   8.281   2.365   5.529
 3253TIP3   OH2 9701   1.106   2.206   3.285
 3253TIP3    H1 9702   1.022   2.250   3.294
 3253TIP3    H2 9703   1.166   2.275   3.257
 3254TIP3   OH2 9704   2.883   5.116   1.136
 3254TIP3    H1 9705   2.934   5.112   1.055
 3254TIP3    H2 9706   2.945   5.088   1.204
 3255TIP3   OH2 9707   0.092   0.002   5.167
 3255TIP3    H1 9708   0.056  -0.027   5.084
 3255TIP3    H2 9709   0.078   0.097   5.168
 3256TIP3   OH2 9710   6.414   3.168   4.574
 3256TIP3    H1 9711   6.348   3.209   4.518
 3256TIP3    H2 9712   6.450   3.098   4.520
 3257TIP3   OH2 9713   6.449   3.814   5.414
 3257TIP3    H1 9714   6.399   3.861   5.347
 3257TIP3    H2 9715   6.413   3.726   5.412
 3258TIP3   OH2 9716   8.188   4.655   0.219
 3258TIP3    H1 9717   8.268   4.645   0.167
 3258TIP3    H2 9718   8.216   4.640   0.309
 3259TIP3   OH2 9719   2.164   1.383   3.198
 3259TIP3    H1 9720   2.072   1.372   3.174
 3259TIP3    H2 9721   2.186   1.472   3.172
 3260TIP3   OH2 9722   4.881   5.651   3.081
 3260TIP3    H1 9723   4.974   5.671   3.079
 3260TIP3    H2 9724   4.840   5.722   3.032
 3261TIP3   OH2 9725   5.914   3.212   5.521
 3261TIP3    H1 9726   5.907   3.220   5.426
 3261TIP3    H2 9727   5.828   3.241   5.553
 3262TIP3   OH2 9728   0.744   1.933   5.241
 3262TIP3    H1 9729   0.804   1.979   5.183
 3262TIP3    H2 9730   0.718   1.855   5.192
 3263TIP3   OH2 9731   3.632   4.689   2.603
 3263TIP3    H1 9732   3.600   4.614   2.653
 3263TIP3    H2 9733   3.553   4.727   2.563
 3264TIP3   OH2 9734   2.242   0.241   4.836
 3264TIP3    H1 9735   2.247   0.309   4.769
 3264TIP3    H2 9736   2.181   0.275   4.901
 3265TIP3   OH2 9737   0.880   1.885   0.146
 3265TIP3    H1 9738   0.937   1.960   0.131
 3265TIP3    H2 9739   0.902   1.824   0.075
 3266TIP3   OH2 9740   3.871   2.613   6.284
 3266TIP3    H1 9741   3.908   2.546   6.228
 3266TIP3    H2 9742   3.816   2.565   6.346
 3267TIP3   OH2 9743   6.078   4.042   5.952
 3267TIP3    H1 9744   5.995   4.062   5.909
 3267TIP3    H2 9745   6.053   3.987   6.027
 3268TIP3   OH2 9746   4.839   4.720   4.087
 3268TIP3    H1 9747   4.807   4.810   4.077
 3268TIP3    H2 9748   4.782   4.681   4.153
 3269TIP3   OH2 9749   6.378   0.332   3.326
 3269TIP3    H1 9750   6.295   0.289   3.306
 3269TIP3    H2 9751   6.443   0.262   3.317
 3270TIP3   OH2 9752   1.123   1.940   6.487
 3270TIP3    H1 9753   1.064   1.919   6.560
 3270TIP3    H2 9754   1.086   2.021   6.450
 3271TIP3   OH2 9755   5.486   2.796   2.088
 3271TIP3    H1 9756   5.564   2.851   2.088
 3271TIP3    H2 9757   5.497   2.738   2.013
 3272TIP3   OH2 9758   6.050   5.024   3.841
 3272TIP3    H1 9759   6.009   5.111   3.841
 3272TIP3    H2 9760   5.981   4.965   3.809
 3273TIP3   OH2 9761   5.491   5.705   3.947
 3273TIP3    H1 9762   5.481   5.661   3.863
 3273TIP3    H2 9763   5.573   5.669   3.983
 3274TIP3   OH2 9764   5.779   5.342   5.048
 3274TIP3    H1 9765   5.830   5.421   5.065
 3274TIP3    H2 9766   5.695   5.358   5.091
 3275TIP3   OH2 9767   3.328   6.729   2.129
 3275TIP3    H1 9768   3.321   6.807   2.075
 3275TIP3    H2 9769   3.279   6.662   2.082
 3276TIP3   OH2 9770   7.496   0.738   2.791
 3276TIP3    H1 9771   7.548   0.681   2.848
 3276TIP3    H2 9772   7.560   0.794   2.748
 3277TIP3   OH2 9773   1.665   3.225   4.115
 3277TIP3    H1 9774   1.635   3.138   4.090
 3277TIP3    H2 9775   1.598   3.258   4.174
 3278TIP3   OH2 9776   5.807   4.455   4.252
 3278TIP3    H1 9777   5.880   4.417   4.301
 3278TIP3    H2 9778   5.738   4.388   4.254
 3279TIP3   OH2 9779   7.311   1.382   4.276
 3279TIP3    H1 9780   7.323   1.474   4.300
 3279TIP3    H2 9781   7.229   1.357   4.318
 3280TIP3   OH2 9782   5.866   3.453   2.623
 3280TIP3    H1 9783   5.951   3.472   2.582
 3280TIP3    H2 9784   5.801   3.488   2.561
 3281TIP3   OH2 9785   3.824   6.714   5.905
 3281TIP3    H1 9786   3.755   6.780   5.906
 3281TIP3    H2 9787   3.848   6.707   5.812
 3282TIP3   OH2 9788   3.173   0.470   4.871
 3282TIP3    H1 9789   3.248   0.457   4.929
 3282TIP3    H2 9790   3.205   0.530   4.803
 3283TIP3   OH2 9791   3.590   1.041   5.418
 3283TIP3    H1 9792   3.537   1.120   5.432
 3283TIP3    H2 9793   3.681   1.072   5.427
 3284TIP3   OH2 9794   2.795   2.781   5.465
 3284TIP3    H1 9795   2.881   2.789   5.425
 3284TIP3    H2 9796   2.788   2.856   5.523
 3285TIP3   OH2 9797   2.298   5.696   6.372
 3285TIP3    H1 9798   2.354   5.773   6.385
 3285TIP3    H2 9799   2.210   5.732   6.360
 3286TIP3   OH2 9800   4.995   7.772   5.883
 3286TIP3    H1 9801   4.989   7.816   5.798
 3286TIP3    H2 9802   5.087   7.746   5.891
 3287TIP3   OH2 9803   2.977   1.755   4.108
 3287TIP3    H1 9804   2.948   1.843   4.084
 3287TIP3    H2 9805   2.955   1.746   4.201
 3288TIP3   OH2 9806   0.189   2.137   5.419
 3288TIP3    H1 9807   0.256   2.093   5.471
 3288TIP3    H2 9808   0.124   2.166   5.483
 3289TIP3   OH2 9809   3.410   1.842   6.617
 3289TIP3    H1 9810   3.389   1.754   6.648
 3289TIP3    H2 9811   3.381   1.901   6.687
 3290TIP3   OH2 9812   3.924   1.163   6.600
 3290TIP3    H1 9813   3.978   1.110   6.541
 3290TIP3    H2 9814   3.952   1.253   6.584
 3291TIP3   OH2 9815   7.431   2.762   6.697
 3291TIP3    H1 9816   7.524   2.739   6.698
 3291TIP3    H2 9817   7.430   2.857   6.713
 3292TIP3   OH2 9818   7.883   2.969   5.002
 3292TIP3    H1 9819   7.919   2.884   5.028
 3292TIP3    H2 9820   7.788   2.957   5.007
 3293TIP3   OH2 9821   2.917   1.910   5.031
 3293TIP3    H1 9822   2.949   2.000   5.041
 3293TIP3    H2 9823   2.884   1.886   5.118
 3294TIP3   OH2 9824   7.299   6.692   5.888
 3294TIP3    H1 9825   7.369   6.755   5.905
 3294TIP3    H2 9826   7.264   6.671   5.975
 3295TIP3   OH2 9827   1.160   7.290   2.709
 3295TIP3    H1 9828   1.083   7.347   2.704
 3295TIP3    H2 9829   1.124   7.202   2.698
 3296TIP3   OH2 9830   6.847   1.542   4.485
 3296TIP3    H1 9831   6.776   1.485   4.455
 3296TIP3    H2 9832   6.852   1.611   4.419
 3297TIP3   OH2 9833   0.873   3.395   3.796
 3297TIP3    H1 9834   0.796   3.448   3.777
 3297TIP3    H2 9835   0.841   3.305   3.799
 3298TIP3   OH2 9836   7.006   1.010   3.579
 3298TIP3    H1 9837   7.025   0.946   3.510
 3298TIP3    H2 9838   7.002   0.958   3.659
 3299TIP3   OH2 9839   5.582   1.735   4.518
 3299TIP3    H1 9840   5.587   1.818   4.566
 3299TIP3    H2 9841   5.665   1.731   4.470
 3300TIP3   OH2 9842   4.002   1.279   4.352
 3300TIP3    H1 9843   3.946   1.201   4.348
 3300TIP3    H2 9844   3.945   1.351   4.325
 3301TIP3   OH2 9845   4.232   0.548   4.446
 3301TIP3    H1 9846   4.145   0.529   4.411
 3301TIP3    H2 9847   4.246   0.641   4.429
 3302TIP3   OH2 9848   7.863   5.742   2.078
 3302TIP3    H1 9849   7.797   5.696   2.026
 3302TIP3    H2 9850   7.902   5.674   2.132
 3303TIP3   OH2 9851   7.660   0.557   6.726
 3303TIP3    H1 9852   7.612   0.528   6.804
 3303TIP3    H2 9853   7.592   0.578   6.662
 3304TIP3   OH2 9854   1.995   2.080   5.436
 3304TIP3    H1 9855   2.052   2.088   5.359
 3304TIP3    H2 9856   2.049   2.110   5.509
 3305TIP3   OH2 9857   4.533   7.222   4.933
 3305TIP3    H1 9858   4.537   7.318   4.932
 3305TIP3    H2 9859   4.585   7.196   5.009
 3306TIP3   OH2 9860   8.117   1.296   5.939
 3306TIP3    H1 9861   8.112   1.213   5.986
 3306TIP3    H2 9862   8.206   1.299   5.903
 3307TIP3   OH2 9863   3.449   6.037   1.909
 3307TIP3    H1 9864   3.441   6.094   1.833
 3307TIP3    H2 9865   3.360   6.032   1.945
 3308TIP3   OH2 9866   4.876   7.475   1.721
 3308TIP3    H1 9867   4.963   7.449   1.690
 3308TIP3    H2 9868   4.869   7.567   1.699
 3309TIP3   OH2 9869   7.745   1.051   3.221
 3309TIP3    H1 9870   7.677   1.080   3.281
 3309TIP3    H2 9871   7.823   1.041   3.276
 3310TIP3   OH2 9872   7.468   2.531   4.533
 3310TIP3    H1 9873   7.561   2.539   4.516
 3310TIP3    H2 9874   7.461   2.459   4.596
 3311TIP3   OH2 9875   4.963   2.522   2.624
 3311TIP3    H1 9876   5.029   2.578   2.584
 3311TIP3    H2 9877   4.904   2.582   2.670
 3312TIP3   OH2 9878   7.473   5.425   2.463
 3312TIP3    H1 9879   7.425   5.475   2.530
 3312TIP3    H2 9880   7.565   5.447   2.477
 3313TIP3   OH2 9881   1.095   3.266   3.052
 3313TIP3    H1 9882   1.028   3.288   3.117
 3313TIP3    H2 9883   1.131   3.183   3.082
 3314TIP3   OH2 9884   0.949   2.717   4.160
 3314TIP3    H1 9885   0.997   2.732   4.078
 3314TIP3    H2 9886   1.006   2.754   4.228
 3315TIP3   OH2 9887   7.419   6.700   3.532
 3315TIP3    H1 9888   7.330   6.666   3.547
 3315TIP3    H2 9889   7.469   6.624   3.503
 3316TIP3   OH2 9890   2.031   0.223   5.072
 3316TIP3    H1 9891   1.968   0.151   5.078
 3316TIP3    H2 9892   1.982   0.300   5.102
 3317TIP3   OH2 9893   6.312   0.697   1.700
 3317TIP3    H1 9894   6.264   0.656   1.771
 3317TIP3    H2 9895   6.397   0.721   1.738
 3318TIP3   OH2 9896   4.153   1.871   2.912
 3318TIP3    H1 9897   4.149   1.844   2.820
 3318TIP3    H2 9898   4.245   1.860   2.936
 3319TIP3   OH2 9899   1.683   5.203   0.893
 3319TIP3    H1 9900   1.764   5.203   0.842
 3319TIP3    H2 9901   1.700   5.142   0.965
 3320TIP3   OH2 9902   2.984   6.729   5.694
 3320TIP3    H1 9903   3.000   6.655   5.753
 3320TIP3    H2 9904   2.924   6.786   5.742
 3321TIP3   OH2 9905   6.400   3.515   6.168
 3321TIP3    H1 9906   6.436   3.486   6.084
 3321TIP3    H2 9907   6.463   3.483   6.233
 3322TIP3   OH2 9908   2.671   0.501   0.364
 3322TIP3    H1 9909   2.759   0.463   0.355
 3322TIP3    H2 9910   2.687   0.596   0.360
 3323TIP3   OH2 9911   6.443   4.473   0.230
 3323TIP3    H1 9912   6.423   4.459   0.323
 3323TIP3    H2 9913   6.425   4.566   0.216
 3324TIP3   OH2 9914   7.441   0.672   0.715
 3324TIP3    H1 9915   7.455   0.594   0.769
 3324TIP3    H2 9916   7.528   0.709   0.702
 3325TIP3   OH2 9917   0.390   2.894   1.016
 3325TIP3    H1 9918   0.310   2.873   0.968
 3325TIP3    H2 9919   0.436   2.955   0.960
 3326TIP3   OH2 9920   2.264   5.995   3.821
 3326TIP3    H1 9921   2.274   5.972   3.913
 3326TIP3    H2 9922   2.339   6.050   3.801
 3327TIP3   OH2 9923   0.390   7.793   5.596
 3327TIP3    H1 9924   0.437   7.711   5.588
 3327TIP3    H2 9925   0.334   7.796   5.518
 3328TIP3   OH2 9926   2.012   7.242   5.258
 3328TIP3    H1 9927   1.940   7.291   5.299
 3328TIP3    H2 9928   1.970   7.166   5.218
 3329TIP3   OH2 9929   7.726   1.288   4.559
 3329TIP3    H1 9930   7.724   1.235   4.479
 3329TIP3    H2 9931   7.809   1.335   4.554
 3330TIP3   OH2 9932   4.519   1.564   3.328
 3330TIP3    H1 9933   4.452   1.558   3.261
 3330TIP3    H2 9934   4.470   1.571   3.410
 3331TIP3   OH2 9935   2.600   4.250   6.239
 3331TIP3    H1 9936   2.686   4.289   6.222
 3331TIP3    H2 9937   2.619   4.169   6.285
 3332TIP3   OH2 9938   5.702   5.597   4.329
 3332TIP3    H1 9939   5.779   5.599   4.385
 3332TIP3    H2 9940   5.733   5.631   4.245
 3333TIP3   OH2 9941   8.056   1.667   5.593
 3333TIP3    H1 9942   7.983   1.618   5.631
 3333TIP3    H2 9943   8.122   1.668   5.663
 3334TIP3   OH2 9944   7.978   2.364   2.620
 3334TIP3    H1 9945   7.941   2.443   2.580
 3334TIP3    H2 9946   8.046   2.397   2.678
 3335TIP3   OH2 9947   1.840   2.679   1.812
 3335TIP3    H1 9948   1.868   2.748   1.872
 3335TIP3    H2 9949   1.814   2.725   1.732
 3336TIP3   OH2 9950   5.961   5.894   2.810
 3336TIP3    H1 9951   6.030   5.953   2.778
 3336TIP3    H2 9952   5.925   5.939   2.886
 3337TIP3   OH2 9953   5.939   6.080   1.929
 3337TIP3    H1 9954   5.910   6.071   1.838
 3337TIP3    H2 9955   6.034   6.095   1.922
 3338TIP3   OH2 9956   2.412   7.280   1.460
 3338TIP3    H1 9957   2.319   7.302   1.451
 3338TIP3    H2 9958   2.456   7.363   1.476
 3339TIP3   OH2 9959   2.158   6.872   5.565
 3339TIP3    H1 9960   2.138   6.965   5.556
 3339TIP3    H2 9961   2.170   6.841   5.475
 3340TIP3   OH2 9962   6.796   5.909   6.253
 3340TIP3    H1 9963   6.853   5.958   6.312
 3340TIP3    H2 9964   6.722   5.968   6.237
 3341TIP3   OH2 9965   3.138   3.900   5.799
 3341TIP3    H1 9966   3.191   3.908   5.879
 3341TIP3    H2 9967   3.200   3.919   5.728
 3342TIP3   OH2 9968   7.225   2.390   5.876
 3342TIP3    H1 9969   7.263   2.313   5.918
 3342TIP3    H2 9970   7.191   2.358   5.792
 3343TIP3   OH2 9971   3.795   3.564   2.319
 3343TIP3    H1 9972   3.778   3.650   2.280
 3343TIP3    H2 9973   3.710   3.520   2.317
 3344TIP3   OH2 9974   7.296   0.672   1.591
 3344TIP3    H1 9975   7.304   0.689   1.498
 3344TIP3    H2 9976   7.231   0.735   1.622
 3345TIP3   OH2 9977   4.679   0.784   1.927
 3345TIP3    H1 9978   4.680   0.874   1.894
 3345TIP3    H2 9979   4.735   0.736   1.866
 3346TIP3   OH2 9980   6.664   5.113   1.253
 3346TIP3    H1 9981   6.732   5.169   1.291
 3346TIP3    H2 9982   6.596   5.110   1.319
 3347TIP3   OH2 9983   4.660   6.014   0.249
 3347TIP3    H1 9984   4.696   5.941   0.299
 3347TIP3    H2 9985   4.681   5.993   0.158
 3348TIP3   OH2 9986   7.491   4.690   4.326
 3348TIP3    H1 9987   7.558   4.712   4.262
 3348TIP3    H2 9988   7.517   4.738   4.405
 3349TIP3   OH2 9989   5.333   1.736   1.702
 3349TIP3    H1 9990   5.427   1.747   1.689
 3349TIP3    H2 9991   5.322   1.730   1.796
 3350TIP3   OH2 9992   1.583   4.472   4.934
 3350TIP3    H1 9993   1.658   4.463   4.992
 3350TIP3    H2 9994   1.544   4.556   4.958
 3351TIP3   OH2 9995   7.742   3.780   0.232
 3351TIP3    H1 9996   7.834   3.779   0.257
 3351TIP3    H2 9997   7.720   3.688   0.217
 3352TIP3   OH2 9998   4.175   6.189   4.777
 3352TIP3    H1 9999   4.097   6.152   4.735
 3352TIP3    H210000   4.140   6.255   4.837
 3353TIP3   OH210001   1.382   0.046   6.515
 3353TIP3    H110002   1.363   0.134   6.485
 3353TIP3    H210003   1.302  -0.004   6.495
 3354TIP3   OH210004   1.545   4.862   0.852
 3354TIP3    H110005   1.475   4.816   0.805
 3354TIP3    H210006   1.502   4.894   0.932
 3355TIP3   OH210007   1.102   6.333   5.753
 3355TIP3    H110008   1.128   6.302   5.666
 3355TIP3    H210009   1.184   6.337   5.802
 3356TIP3   OH210010   6.966   5.837   1.365
 3356TIP3    H110011   6.978   5.914   1.420
 3356TIP3    H210012   6.967   5.763   1.426
 3357TIP3   OH210013   7.937   6.712   0.742
 3357TIP3    H110014   7.924   6.659   0.663
 3357TIP3    H210015   7.988   6.787   0.713
 3358TIP3   OH210016   0.601   5.228   3.264
 3358TIP3    H110017   0.584   5.141   3.229
 3358TIP3    H210018   0.679   5.217   3.319
 3359TIP3   OH210019   1.272   7.146   6.048
 3359TIP3    H110020   1.246   7.064   6.005
 3359TIP3    H210021   1.308   7.200   5.977
 3360TIP3   OH210022   6.303   0.341   4.434
 3360TIP3    H110023   6.326   0.276   4.501
 3360TIP3    H210024   6.208   0.337   4.429
 3361TIP3   OH210025   1.238   6.715   5.621
 3361TIP3    H110026   1.205   6.691   5.707
 3361TIP3    H210027   1.262   6.807   5.629
 3362TIP3   OH210028   6.195   7.731   1.594
 3362TIP3    H110029   6.276   7.700   1.552
 3362TIP3    H210030   6.187   7.676   1.672
 3363TIP3   OH210031   5.160   5.298   5.684
 3363TIP3    H110032   5.205   5.316   5.766
 3363TIP3    H210033   5.140   5.205   5.688
 3364TIP3   OH210034   2.577   0.091   1.522
 3364TIP3    H110035   2.602   0.043   1.601
 3364TIP3    H210036   2.636   0.166   1.520
 3365TIP3   OH210037   3.802   2.610   3.505
 3365TIP3    H110038   3.800   2.570   3.592
 3365TIP3    H210039   3.736   2.680   3.509
 3366TIP3   OH210040   2.226   2.081   0.326
 3366TIP3    H110041   2.275   2.160   0.350
 3366TIP3    H210042   2.294   2.020   0.297
 3367TIP3   OH210043   5.951   6.488   5.729
 3367TIP3    H110044   6.011   6.562   5.729
 3367TIP3    H210045   5.888   6.509   5.660
 3368TIP3   OH210046   4.027   4.704   4.024
 3368TIP3    H110047   3.965   4.701   4.097
 3368TIP3    H210048   3.976   4.677   3.948
 3369TIP3   OH210049   4.057   3.613   2.028
 3369TIP3    H110050   3.976   3.589   1.983
 3369TIP3    H210051   4.094   3.682   1.973
 3370TIP3   OH210052   3.216   6.742   4.137
 3370TIP3    H110053   3.258   6.692   4.207
 3370TIP3    H210054   3.170   6.812   4.183
 3371TIP3   OH210055   5.445   4.841   2.380
 3371TIP3    H110056   5.503   4.773   2.414
 3371TIP3    H210057   5.454   4.835   2.284
 3372TIP3   OH210058   2.197   5.710   4.060
 3372TIP3    H110059   2.275   5.668   4.022
 3372TIP3    H210060   2.139   5.724   3.985
 3373TIP3   OH210061   1.991   5.601   1.284
 3373TIP3    H110062   2.005   5.603   1.189
 3373TIP3    H210063   2.074   5.568   1.319
 3374TIP3   OH210064   3.395   2.947   4.596
 3374TIP3    H110065   3.390   2.978   4.506
 3374TIP3    H210066   3.312   2.900   4.610
 3375TIP3   OH210067   6.445   5.320   6.248
 3375TIP3    H110068   6.450   5.346   6.156
 3375TIP3    H210069   6.420   5.227   6.246
 3376TIP3   OH210070   7.582   4.234   1.995
 3376TIP3    H110071   7.623   4.152   2.025
 3376TIP3    H210072   7.543   4.272   2.073
 3377TIP3   OH210073   6.857   5.941   0.149
 3377TIP3    H110074   6.933   5.926   0.093
 3377TIP3    H210075   6.794   5.986   0.093
 3378TIP3   OH210076   4.627   7.436   3.561
 3378TIP3    H110077   4.707   7.476   3.526
 3378TIP3    H210078   4.568   7.511   3.576
 3379TIP3   OH210079   3.237   2.196   2.124
 3379TIP3    H110080   3.219   2.261   2.192
 3379TIP3    H210081   3.331   2.177   2.133
 3380TIP3   OH210082   8.149   4.833   0.735
 3380TIP3    H110083   8.056   4.821   0.719
 3380TIP3    H210084   8.166   4.782   0.814
 3381TIP3   OH210085   6.135   3.931   3.470
 3381TIP3    H110086   6.186   3.879   3.532
 3381TIP3    H210087   6.048   3.890   3.469
 3382TIP3   OH210088   5.205   4.802   2.544
 3382TIP3    H110089   5.298   4.807   2.522
 3382TIP3    H210090   5.163   4.775   2.462
 3383TIP3   OH210091   3.227   7.101   6.566
 3383TIP3    H110092   3.221   7.054   6.484
 3383TIP3    H210093   3.211   7.035   6.633
 3384TIP3   OH210094   3.249   5.105   6.558
 3384TIP3    H110095   3.326   5.162   6.553
 3384TIP3    H210096   3.200   5.138   6.634
 3385TIP3   OH210097   4.100   0.103   5.621
 3385TIP3    H110098   4.048   0.026   5.642
 3385TIP3    H210099   4.153   0.077   5.546
 3386TIP3   OH210100   3.293   0.945   4.478
 3386TIP3    H110101   3.249   1.006   4.419
 3386TIP3    H210102   3.328   0.878   4.421
 3387TIP3   OH210103   7.747   1.942   4.592
 3387TIP3    H110104   7.781   1.919   4.506
 3387TIP3    H210105   7.652   1.942   4.583
 3388TIP3   OH210106   2.540   1.959   2.072
 3388TIP3    H110107   2.496   1.875   2.056
 3388TIP3    H210108   2.572   1.952   2.162
 3389TIP3   OH210109   5.936   0.727   2.117
 3389TIP3    H110110   5.868   0.790   2.093
 3389TIP3    H210111   5.935   0.663   2.047
 3390TIP3   OH210112   0.441   1.353   3.313
 3390TIP3    H110113   0.497   1.276   3.326
 3390TIP3    H210114   0.473   1.391   3.231
 3391TIP3   OH210115   6.859   0.163   4.217
 3391TIP3    H110116   6.777   0.162   4.168
 3391TIP3    H210117   6.840   0.115   4.297
 3392TIP3   OH210118   5.918   7.530   0.477
 3392TIP3    H110119   5.875   7.603   0.433
 3392TIP3    H210120   5.943   7.565   0.563
 3393TIP3   OH210121   0.040   7.794   6.238
 3393TIP3    H110122   0.124   7.773   6.197
 3393TIP3    H210123  -0.017   7.817   6.164
 3394TIP3   OH210124   0.607   1.145   3.382
 3394TIP3    H110125   0.583   1.056   3.359
 3394TIP3    H210126   0.672   1.135   3.451
 3395TIP3   OH210127   5.609   4.159   2.210
 3395TIP3    H110128   5.572   4.079   2.175
 3395TIP3    H210129   5.565   4.229   2.162
 3396TIP3   OH210130   0.583   3.245   5.995
 3396TIP3    H110131   0.638   3.320   5.971
 3396TIP3    H210132   0.547   3.268   6.081
 3397TIP3   OH210133   6.882   4.839   3.099
 3397TIP3    H110134   6.888   4.882   3.014
 3397TIP3    H210135   6.801   4.788   3.095
 3398TIP3   OH210136   6.494   6.722   3.316
 3398TIP3    H110137   6.517   6.682   3.400
 3398TIP3    H210138   6.568   6.701   3.259
 3399TIP3   OH210139   2.256   5.248   4.478
 3399TIP3    H110140   2.229   5.175   4.423
 3399TIP3    H210141   2.334   5.284   4.434
 3400TIP3   OH210142   0.714   4.357   5.157
 3400TIP3    H110143   0.764   4.295   5.210
 3400TIP3    H210144   0.724   4.324   5.067
 3401TIP3   OH210145   4.931   5.886   4.862
 3401TIP3    H110146   4.842   5.860   4.841
 3401TIP3    H210147   4.963   5.821   4.924
 3402TIP3   OH210148   4.274   1.028   0.910
 3402TIP3    H110149   4.325   1.075   0.845
 3402TIP3    H210150   4.200   0.991   0.861
 3403TIP3   OH210151   1.717   1.588   3.788
 3403TIP3    H110152   1.794   1.593   3.844
 3403TIP3    H210153   1.741   1.636   3.709
 3404TIP3   OH210154   0.527   6.118   3.146
 3404TIP3    H110155   0.542   6.113   3.052
 3404TIP3    H210156   0.538   6.210   3.167
 3405TIP3   OH210157   5.795   6.876   5.252
 3405TIP3    H110158   5.841   6.944   5.204
 3405TIP3    H210159   5.776   6.809   5.186
 3406TIP3   OH210160   7.348   5.337   6.754
 3406TIP3    H110161   7.298   5.390   6.692
 3406TIP3    H210162   7.313   5.249   6.745
 3407TIP3   OH210163   4.990   4.103   6.046
 3407TIP3    H110164   5.029   4.184   6.013
 3407TIP3    H210165   4.924   4.079   5.981
 3408TIP3   OH210166   0.702   4.613   0.543
 3408TIP3    H110167   0.754   4.546   0.587
 3408TIP3    H210168   0.625   4.625   0.598
 3409TIP3   OH210169   4.196   7.185   1.696
 3409TIP3    H110170   4.195   7.201   1.602
 3409TIP3    H210171   4.104   7.172   1.719
 3410TIP3   OH210172   7.047   2.557   1.696
 3410TIP3    H110173   7.049   2.653   1.701
 3410TIP3    H210174   6.976   2.538   1.635
 3411TIP3   OH210175   6.431   4.421   4.435
 3411TIP3    H110176   6.484   4.488   4.392
 3411TIP3    H210177   6.441   4.439   4.528
 3412TIP3   OH210178   3.581   0.674   1.842
 3412TIP3    H110179   3.595   0.697   1.934
 3412TIP3    H210180   3.627   0.743   1.794
 3413TIP3   OH210181   2.253   6.547   3.407
 3413TIP3    H110182   2.240   6.584   3.320
 3413TIP3    H210183   2.253   6.622   3.466
 3414TIP3   OH210184   2.144   5.938   4.159
 3414TIP3    H110185   2.172   5.848   4.145
 3414TIP3    H210186   2.223   5.990   4.148
 3415TIP3   OH210187   0.880   1.716   6.576
 3415TIP3    H110188   0.876   1.811   6.564
 3415TIP3    H210189   0.921   1.684   6.496
 3416TIP3   OH210190   2.030   5.718   2.009
 3416TIP3    H110191   2.062   5.631   1.989
 3416TIP3    H210192   2.101   5.777   1.985
 3417TIP3   OH210193   1.822   0.175   4.381
 3417TIP3    H110194   1.818   0.232   4.458
 3417TIP3    H210195   1.905   0.128   4.391
 3418TIP3   OH210196   4.683   5.426   4.050
 3418TIP3    H110197   4.685   5.507   4.101
 3418TIP3    H210198   4.590   5.404   4.044
 3419TIP3   OH210199   3.693   0.111   1.198
 3419TIP3    H110200   3.782   0.089   1.224
 3419TIP3    H210201   3.687   0.084   1.106
 3420TIP3   OH210202   5.141   7.353   0.278
 3420TIP3    H110203   5.060   7.304   0.261
 3420TIP3    H210204   5.188   7.301   0.342
 3421TIP3   OH210205   0.865   5.640   5.157
 3421TIP3    H110206   0.904   5.644   5.070
 3421TIP3    H210207   0.937   5.610   5.214
 3422TIP3   OH210208   1.895   6.136   0.676
 3422TIP3    H110209   1.983   6.120   0.642
 3422TIP3    H210210   1.906   6.208   0.738
 3423TIP3   OH210211   5.159   3.373   5.497
 3423TIP3    H110212   5.240   3.403   5.539
 3423TIP3    H210213   5.102   3.450   5.497
 3424TIP3   OH210214   1.280   5.642   2.435
 3424TIP3    H110215   1.326   5.621   2.516
 3424TIP3    H210216   1.188   5.622   2.453
 3425TIP3   OH210217   2.755   0.348   3.382
 3425TIP3    H110218   2.730   0.423   3.436
 3425TIP3    H210219   2.713   0.365   3.297
 3426TIP3   OH210220   6.751   5.752   0.337
 3426TIP3    H110221   6.794   5.826   0.293
 3426TIP3    H210222   6.823   5.700   0.372
 3427TIP3   OH210223   1.256   2.302   2.011
 3427TIP3    H110224   1.169   2.339   1.993
 3427TIP3    H210225   1.297   2.296   1.925
 3428TIP3   OH210226   5.245   7.031   2.169
 3428TIP3    H110227   5.323   7.065   2.125
 3428TIP3    H210228   5.241   6.939   2.142
 3429TIP3   OH210229   7.965   4.339   2.161
 3429TIP3    H110230   7.995   4.289   2.085
 3429TIP3    H210231   7.954   4.273   2.230
 3430TIP3   OH210232   4.794   3.146   6.118
 3430TIP3    H110233   4.820   3.057   6.139
 3430TIP3    H210234   4.706   3.138   6.081
 3431TIP3   OH210235   3.947   2.171   6.671
 3431TIP3    H110236   3.881   2.197   6.735
 3431TIP3    H210237   3.952   2.244   6.610
 3432TIP3   OH210238   2.483   5.120   5.169
 3432TIP3    H110239   2.471   5.065   5.246
 3432TIP3    H210240   2.578   5.126   5.159
 3433TIP3   OH210241   1.322   5.396   4.153
 3433TIP3    H110242   1.297   5.488   4.148
 3433TIP3    H210243   1.255   5.350   4.102
 3434TIP3   OH210244   7.978   2.031   5.684
 3434TIP3    H110245   7.888   2.031   5.653
 3434TIP3    H210246   8.022   1.966   5.629
 3435TIP3   OH210247   3.119   3.130   4.808
 3435TIP3    H110248   3.151   3.152   4.720
 3435TIP3    H210249   3.049   3.194   4.824
 3436TIP3   OH210250   4.824   7.105   3.790
 3436TIP3    H110251   4.879   7.064   3.723
 3436TIP3    H210252   4.804   7.191   3.756
 3437TIP3   OH210253   5.103   6.914   2.766
 3437TIP3    H110254   5.102   6.867   2.850
 3437TIP3    H210255   5.067   6.852   2.703
 3438TIP3   OH210256   1.534   0.578   1.002
 3438TIP3    H110257   1.442   0.605   1.003
 3438TIP3    H210258   1.582   0.661   1.002
 3439TIP3   OH210259   3.557   0.528   4.261
 3439TIP3    H110260   3.579   0.511   4.352
 3439TIP3    H210261   3.575   0.622   4.249
 3440TIP3   OH210262   7.781   7.646   3.027
 3440TIP3    H110263   7.842   7.704   2.981
 3440TIP3    H210264   7.765   7.689   3.111
 3441TIP3   OH210265   6.570   6.791   5.274
 3441TIP3    H110266   6.564   6.850   5.350
 3441TIP3    H210267   6.652   6.816   5.231
 3442TIP3   OH210268   2.355   1.625   5.358
 3442TIP3    H110269   2.280   1.606   5.414
 3442TIP3    H210270   2.410   1.547   5.364
 3443TIP3   OH210271   1.875   5.134   1.806
 3443TIP3    H110272   1.793   5.148   1.853
 3443TIP3    H210273   1.938   5.110   1.875
 3444TIP3   OH210274   2.384   2.665   1.455
 3444TIP3    H110275   2.420   2.598   1.396
 3444TIP3    H210276   2.454   2.679   1.519
 3445TIP3   OH210277   0.279   0.852   2.109
 3445TIP3    H110278   0.307   0.824   2.196
 3445TIP3    H210279   0.297   0.946   2.107
 3446TIP3   OH210280   7.510   1.160   6.647
 3446TIP3    H110281   7.569   1.085   6.642
 3446TIP3    H210282   7.450   1.139   6.718
 3447TIP3   OH210283   2.749   6.316   3.200
 3447TIP3    H110284   2.743   6.338   3.293
 3447TIP3    H210285   2.778   6.397   3.157
 3448TIP3   OH210286   6.697   0.403   4.569
 3448TIP3    H110287   6.780   0.422   4.526
 3448TIP3    H210288   6.660   0.490   4.588
 3449TIP3   OH210289   2.528   7.036   4.781
 3449TIP3    H110290   2.606   6.989   4.752
 3449TIP3    H210291   2.500   7.085   4.703
 3450TIP3   OH210292   0.871   1.561   2.575
 3450TIP3    H110293   0.859   1.472   2.541
 3450TIP3    H210294   0.851   1.554   2.668
 3451TIP3   OH210295   2.178   6.435   1.067
 3451TIP3    H110296   2.186   6.473   1.154
 3451TIP3    H210297   2.111   6.368   1.075
 3452TIP3   OH210298   1.573   2.885   4.697
 3452TIP3    H110299   1.487   2.918   4.672
 3452TIP3    H210300   1.601   2.831   4.623
 3453TIP3   OH210301   0.411   2.123   5.768
 3453TIP3    H110302   0.321   2.153   5.755
 3453TIP3    H210303   0.464   2.202   5.758
 3454TIP3   OH210304   2.330   7.029   3.600
 3454TIP3    H110305   2.296   7.084   3.530
 3454TIP3    H210306   2.399   7.082   3.640
 3455TIP3   OH210307   7.266   6.708   0.857
 3455TIP3    H110308   7.266   6.673   0.946
 3455TIP3    H210309   7.357   6.701   0.828
 3456TIP3   OH210310   2.048   2.340   4.762
 3456TIP3    H110311   2.130   2.293   4.750
 3456TIP3    H210312   2.062   2.425   4.720
 3457TIP3   OH210313   3.182   7.352   0.082
 3457TIP3    H110314   3.149   7.402   0.157
 3457TIP3    H210315   3.142   7.393   0.006
 3458TIP3   OH210316   4.106   2.923   0.374
 3458TIP3    H110317   4.083   2.963   0.458
 3458TIP3    H210318   4.077   2.832   0.382
 3459TIP3   OH210319   7.195   1.386   5.619
 3459TIP3    H110320   7.110   1.420   5.645
 3459TIP3    H210321   7.232   1.454   5.562
 3460TIP3   OH210322   0.621   6.580   6.323
 3460TIP3    H110323   0.697   6.563   6.266
 3460TIP3    H210324   0.561   6.507   6.305
 3461TIP3   OH210325   5.363   2.752   2.659
 3461TIP3    H110326   5.352   2.802   2.578
 3461TIP3    H210327   5.455   2.763   2.682
 3462TIP3   OH210328   7.926   2.524   5.274
 3462TIP3    H110329   7.938   2.570   5.191
 3462TIP3    H210330   7.891   2.590   5.334
 3463TIP3   OH210331   7.940   5.798   1.722
 3463TIP3    H110332   7.909   5.798   1.813
 3463TIP3    H210333   8.005   5.727   1.720
 3464TIP3   OH210334   6.753   1.102   0.585
 3464TIP3    H110335   6.841   1.127   0.559
 3464TIP3    H210336   6.765   1.021   0.635
 3465TIP3   OH210337   3.663   0.135   2.229
 3465TIP3    H110338   3.717   0.065   2.265
 3465TIP3    H210339   3.581   0.091   2.203
 3466TIP3   OH210340   0.653   5.765   5.303
 3466TIP3    H110341   0.732   5.738   5.256
 3466TIP3    H210342   0.600   5.686   5.308
 3467TIP3   OH210343   0.165   1.975   3.100
 3467TIP3    H110344   0.124   2.001   3.018
 3467TIP3    H210345   0.101   1.998   3.167
 3468TIP3   OH210346   5.088   3.459   3.372
 3468TIP3    H110347   5.131   3.508   3.302
 3468TIP3    H210348   4.994   3.464   3.350
 3469TIP3   OH210349   6.564   1.813   3.929
 3469TIP3    H110350   6.595   1.782   4.015
 3469TIP3    H210351   6.486   1.760   3.912
 3470TIP3   OH210352   1.491   0.611   3.067
 3470TIP3    H110353   1.405   0.583   3.038
 3470TIP3    H210354   1.487   0.707   3.068
 3471TIP3   OH210355   6.276   6.481   3.845
 3471TIP3    H110356   6.226   6.506   3.923
 3471TIP3    H210357   6.361   6.453   3.880
 3472TIP3   OH210358   7.712   0.622   5.672
 3472TIP3    H110359   7.706   0.530   5.645
 3472TIP3    H210360   7.621   0.651   5.677
 3473TIP3   OH210361   2.459   0.770   3.257
 3473TIP3    H110362   2.482   0.855   3.221
 3473TIP3    H210363   2.427   0.789   3.345
 3474TIP3   OH210364   2.024   0.579   2.132
 3474TIP3    H110365   1.975   0.658   2.111
 3474TIP3    H210366   2.071   0.558   2.051
 3475TIP3   OH210367   4.721   6.225   4.775
 3475TIP3    H110368   4.638   6.274   4.778
 3475TIP3    H210369   4.710   6.156   4.841
 3476TIP3   OH210370   2.561   3.989   4.880
 3476TIP3    H110371   2.633   3.985   4.943
 3476TIP3    H210372   2.601   3.960   4.797
 3477TIP3   OH210373   1.768   3.503   0.285
 3477TIP3    H110374   1.819   3.582   0.272
 3477TIP3    H210375   1.825   3.432   0.255
 3478TIP3   OH210376   7.438   1.178   6.229
 3478TIP3    H110377   7.504   1.160   6.296
 3478TIP3    H210378   7.379   1.102   6.232
 3479TIP3   OH210379   3.925   5.077   5.124
 3479TIP3    H110380   3.929   5.084   5.220
 3479TIP3    H210381   3.904   4.985   5.108
 3480TIP3   OH210382   0.691   5.763   4.021
 3480TIP3    H110383   0.659   5.789   4.108
 3480TIP3    H210384   0.616   5.774   3.963
 3481TIP3   OH210385   5.996   6.829   4.755
 3481TIP3    H110386   5.941   6.753   4.773
 3481TIP3    H210387   5.940   6.905   4.774
 3482TIP3   OH210388   6.952   0.451   1.241
 3482TIP3    H110389   7.032   0.414   1.205
 3482TIP3    H210390   6.912   0.499   1.168
 3483TIP3   OH210391   5.549   4.523   4.542
 3483TIP3    H110392   5.608   4.565   4.603
 3483TIP3    H210393   5.462   4.550   4.570
 3484TIP3   OH210394   4.865   6.614   0.743
 3484TIP3    H110395   4.895   6.525   0.757
 3484TIP3    H210396   4.939   6.670   0.768
 3485TIP3   OH210397   4.561   0.084   4.916
 3485TIP3    H110398   4.564   0.067   4.822
 3485TIP3    H210399   4.491   0.026   4.948
 3486TIP3   OH210400   3.253   6.833   4.463
 3486TIP3    H110401   3.280   6.835   4.555
 3486TIP3    H210402   3.318   6.886   4.417
 3487TIP3   OH210403   7.333   3.735   3.305
 3487TIP3    H110404   7.241   3.739   3.277
 3487TIP3    H210405   7.359   3.826   3.314
 3488TIP3   OH210406   6.751   5.322   5.659
 3488TIP3    H110407   6.688   5.286   5.596
 3488TIP3    H210408   6.716   5.407   5.683
 3489TIP3   OH210409   4.333   0.088   2.949
 3489TIP3    H110410   4.305   0.104   2.858
 3489TIP3    H210411   4.281   0.150   3.000
 3490TIP3   OH210412   3.748   6.931  -0.010
 3490TIP3    H110413   3.761   6.855  -0.066
 3490TIP3    H210414   3.774   6.902   0.077
 3491TIP3   OH210415   3.728   4.167   5.122
 3491TIP3    H110416   3.653   4.225   5.117
 3491TIP3    H210417   3.696   4.091   5.172
 3492TIP3   OH210418   6.326   1.302   3.497
 3492TIP3    H110419   6.279   1.360   3.558
 3492TIP3    H210420   6.409   1.283   3.541
 3493TIP3   OH210421   5.671   5.414   1.903
 3493TIP3    H110422   5.767   5.417   1.903
 3493TIP3    H210423   5.644   5.500   1.935
 3494TIP3   OH210424   5.064   2.493   1.216
 3494TIP3    H110425   4.974   2.472   1.240
 3494TIP3    H210426   5.067   2.589   1.216
 3495TIP3   OH210427   1.763   1.369   3.632
 3495TIP3    H110428   1.741   1.444   3.687
 3495TIP3    H210429   1.858   1.377   3.619
 3496TIP3   OH210430   0.826   5.352   5.284
 3496TIP3    H110431   0.737   5.317   5.279
 3496TIP3    H210432   0.824   5.411   5.359
 3497TIP3   OH210433   0.914   7.383   3.452
 3497TIP3    H110434   1.007   7.391   3.429
 3497TIP3    H210435   0.894   7.464   3.499
 3498TIP3   OH210436   6.283   1.725   6.574
 3498TIP3    H110437   6.325   1.810   6.560
 3498TIP3    H210438   6.261   1.693   6.487
 3499TIP3   OH210439   1.768   4.798   3.114
 3499TIP3    H110440   1.796   4.813   3.024
 3499TIP3    H210441   1.790   4.707   3.131
 3500TIP3   OH210442   1.710   4.150   6.075
 3500TIP3    H110443   1.740   4.227   6.124
 3500TIP3    H210444   1.636   4.117   6.126
 3501TIP3   OH210445   2.620   7.063   3.669
 3501TIP3    H110446   2.681   7.015   3.613
 3501TIP3    H210447   2.664   7.070   3.754
 3502TIP3   OH210448   4.008   6.856   3.763
 3502TIP3    H110449   4.086   6.909   3.746
 3502TIP3    H210450   3.943   6.920   3.793
 3503TIP3   OH210451   0.509   3.407   3.505
 3503TIP3    H110452   0.438   3.426   3.566
 3503TIP3    H210453   0.475   3.339   3.448
 3504TIP3   OH210454   6.368   7.458   0.826
 3504TIP3    H110455   6.362   7.402   0.748
 3504TIP3    H210456   6.344   7.545   0.794
 3505TIP3   OH210457   5.823   5.917   4.314
 3505TIP3    H110458   5.796   5.968   4.390
 3505TIP3    H210459   5.743   5.910   4.261
 3506TIP3   OH210460   5.902   4.802   2.279
 3506TIP3    H110461   5.928   4.714   2.307
 3506TIP3    H210462   5.885   4.793   2.185
 3507TIP3   OH210463   1.644   7.431   1.550
 3507TIP3    H110464   1.721   7.393   1.508
 3507TIP3    H210465   1.584   7.357   1.561
 3508TIP3   OH210466   4.762   2.483   5.322
 3508TIP3    H110467   4.808   2.399   5.319
 3508TIP3    H210468   4.825   2.545   5.357
 3509TIP3   OH210469   2.241   7.358   2.575
 3509TIP3    H110470   2.332   7.333   2.559
 3509TIP3    H210471   2.203   7.283   2.621
 3510TIP3   OH210472   0.471   2.315   3.658
 3510TIP3    H110473   0.405   2.247   3.667
 3510TIP3    H210474   0.520   2.312   3.740
 3511TIP3   OH210475   0.148   1.453   1.208
 3511TIP3    H110476   0.057   1.451   1.179
 3511TIP3    H210477   0.188   1.376   1.168
 3512TIP3   OH210478   3.044   5.232   5.938
 3512TIP3    H110479   3.071   5.197   6.022
 3512TIP3    H210480   3.107   5.302   5.919
 3513TIP3   OH210481   0.737   0.461   1.345
 3513TIP3    H110482   0.774   0.545   1.370
 3513TIP3    H210483   0.813   0.404   1.329
 3514TIP3   OH210484   1.197   0.946   2.378
 3514TIP3    H110485   1.283   0.989   2.383
 3514TIP3    H210486   1.171   0.955   2.287
 3515TIP3   OH210487   6.224   3.988   1.324
 3515TIP3    H110488   6.242   3.901   1.288
 3515TIP3    H210489   6.209   4.043   1.247
 3516TIP3   OH210490   4.706   7.201   6.599
 3516TIP3    H110491   4.781   7.182   6.542
 3516TIP3    H210492   4.738   7.268   6.659
 3517TIP3   OH210493   6.291   4.804   3.581
 3517TIP3    H110494   6.239   4.881   3.557
 3517TIP3    H210495   6.287   4.748   3.503
 3518TIP3   OH210496   6.286   5.306   5.435
 3518TIP3    H110497   6.236   5.240   5.483
 3518TIP3    H210498   6.271   5.285   5.343
 3519TIP3   OH210499   1.826   0.422   0.241
 3519TIP3    H110500   1.787   0.400   0.156
 3519TIP3    H210501   1.858   0.338   0.275
 3520TIP3   OH210502   6.362   2.879   0.113
 3520TIP3    H110503   6.424   2.938   0.155
 3520TIP3    H210504   6.383   2.884   0.020
 3521TIP3   OH210505   1.791   2.334   2.106
 3521TIP3    H110506   1.752   2.247   2.100
 3521TIP3    H210507   1.883   2.320   2.081
 3522TIP3   OH210508   4.471   3.348   1.221
 3522TIP3    H110509   4.413   3.340   1.296
 3522TIP3    H210510   4.412   3.359   1.146
 3523TIP3   OH210511   3.794   2.223   2.457
 3523TIP3    H110512   3.792   2.243   2.551
 3523TIP3    H210513   3.734   2.149   2.447
 3524TIP3   OH210514   6.681   0.050   2.831
 3524TIP3    H110515   6.671   0.140   2.862
 3524TIP3    H210516   6.655   0.053   2.739
 3525TIP3   OH210517   0.696   0.692   6.705
 3525TIP3    H110518   0.737   0.631   6.645
 3525TIP3    H210519   0.768   0.722   6.761
 3526TIP3   OH210520   0.330   0.895   2.677
 3526TIP3    H110521   0.381   0.937   2.746
 3526TIP3    H210522   0.345   0.801   2.689
 3527TIP3   OH210523   1.096   6.492   3.423
 3527TIP3    H110524   1.179   6.448   3.437
 3527TIP3    H210525   1.120   6.580   3.394
 3528TIP3   OH210526   1.384   3.748   2.628
 3528TIP3    H110527   1.347   3.806   2.561
 3528TIP3    H210528   1.467   3.790   2.652
 3529TIP3   OH210529   2.810   1.614   4.909
 3529TIP3    H110530   2.801   1.708   4.925
 3529TIP3    H210531   2.850   1.580   4.989
 3530TIP3   OH210532   3.200   0.612   2.370
 3530TIP3    H110533   3.132   0.678   2.380
 3530TIP3    H210534   3.153   0.529   2.363
 3531TIP3   OH210535   0.273   5.841   1.352
 3531TIP3    H110536   0.347   5.784   1.375
 3531TIP3    H210537   0.197   5.795   1.386
 3532TIP3   OH210538   7.241   0.582   3.911
 3532TIP3    H110539   7.179   0.580   3.838
 3532TIP3    H210540   7.316   0.532   3.881
 3533TIP3   OH210541   2.942   5.059   2.568
 3533TIP3    H110542   2.889   5.131   2.533
 3533TIP3    H210543   3.030   5.096   2.577
 3534TIP3   OH210544   1.653   6.077   0.459
 3534TIP3    H110545   1.653   6.098   0.552
 3534TIP3    H210546   1.567   6.106   0.429
 3535TIP3   OH210547   1.731   3.020   3.367
 3535TIP3    H110548   1.639   2.997   3.352
 3535TIP3    H210549   1.735   3.114   3.346
 3536TIP3   OH210550   4.729   3.643   6.759
 3536TIP3    H110551   4.658   3.592   6.721
 3536TIP3    H210552   4.806   3.623   6.705
 3537TIP3   OH210553   0.480   7.121   0.794
 3537TIP3    H110554   0.458   7.186   0.728
 3537TIP3    H210555   0.500   7.172   0.873
 3538TIP3   OH210556   3.505   6.197   4.414
 3538TIP3    H110557   3.415   6.166   4.420
 3538TIP3    H210558   3.499   6.281   4.368
 3539TIP3   OH210559   6.212   6.960   0.653
 3539TIP3    H110560   6.276   6.922   0.594
 3539TIP3    H210561   6.264   6.996   0.725
 3540TIP3   OH210562   7.248   4.338   5.508
 3540TIP3    H110563   7.171   4.285   5.529
 3540TIP3    H210564   7.310   4.276   5.469
 3541TIP3   OH210565   2.816   4.065   5.915
 3541TIP3    H110566   2.860   3.984   5.942
 3541TIP3    H210567   2.734   4.035   5.875
 3542TIP3   OH210568   1.584   5.610   6.664
 3542TIP3    H110569   1.626   5.685   6.707
 3542TIP3    H210570   1.595   5.538   6.727
 3543TIP3   OH210571   8.089   1.264   3.818
 3543TIP3    H110572   8.167   1.241   3.767
 3543TIP3    H210573   8.113   1.344   3.864
 3544TIP3   OH210574   2.884   6.443   5.068
 3544TIP3    H110575   2.895   6.366   5.123
 3544TIP3    H210576   2.946   6.430   4.996
 3545TIP3   OH210577   3.851   0.347   3.693
 3545TIP3    H110578   3.785   0.389   3.749
 3545TIP3    H210579   3.893   0.420   3.647
 3546TIP3   OH210580   4.121   2.573   1.734
 3546TIP3    H110581   4.109   2.485   1.697
 3546TIP3    H210582   4.043   2.621   1.705
 3547TIP3   OH210583   3.310   6.549   6.088
 3547TIP3    H110584   3.381   6.594   6.040
 3547TIP3    H210585   3.355   6.500   6.156
 3548TIP3   OH210586   5.008   0.345   0.767
 3548TIP3    H110587   4.960   0.300   0.837
 3548TIP3    H210588   4.976   0.435   0.771
 3549TIP3   OH210589   1.993   3.820   0.288
 3549TIP3    H110590   1.930   3.789   0.353
 3549TIP3    H210591   1.961   3.907   0.263
 3550TIP3   OH210592   2.059   1.185   5.076
 3550TIP3    H110593   2.065   1.166   5.170
 3550TIP3    H210594   2.045   1.099   5.036
 3551TIP3   OH210595   7.804   4.597   4.816
 3551TIP3    H110596   7.889   4.638   4.797
 3551TIP3    H210597   7.823   4.536   4.887
 3552TIP3   OH210598   6.233   3.058   6.764
 3552TIP3    H110599   6.175   3.113   6.712
 3552TIP3    H210600   6.313   3.050   6.712
 3553TIP3   OH210601   1.019   1.789   3.605
 3553TIP3    H110602   1.043   1.882   3.603
 3553TIP3    H210603   0.949   1.781   3.540
 3554TIP3   OH210604   8.145   1.008   0.443
 3554TIP3    H110605   8.050   1.021   0.432
 3554TIP3    H210606   8.180   1.096   0.454
 3555TIP3   OH210607   0.546   6.329   1.631
 3555TIP3    H110608   0.616   6.343   1.695
 3555TIP3    H210609   0.590   6.330   1.546
 3556TIP3   OH210610   0.887   5.164   4.852
 3556TIP3    H110611   0.835   5.118   4.917
 3556TIP3    H210612   0.883   5.256   4.878
 3557TIP3   OH210613   0.864   1.897   6.242
 3557TIP3    H110614   0.781   1.861   6.211
 3557TIP3    H210615   0.843   1.987   6.268
 3558TIP3   OH210616   2.908   7.506   5.339
 3558TIP3    H110617   2.965   7.512   5.262
 3558TIP3    H210618   2.847   7.435   5.319
 3559TIP3   OH210619   0.964   4.748   0.920
 3559TIP3    H110620   0.960   4.772   0.828
 3559TIP3    H210621   0.970   4.831   0.967
 3560TIP3   OH210622   4.956   5.401   1.879
 3560TIP3    H110623   4.963   5.495   1.897
 3560TIP3    H210624   4.984   5.392   1.788
 3561TIP3   OH210625   2.588   5.957   5.214
 3561TIP3    H110626   2.581   6.011   5.293
 3561TIP3    H210627   2.526   5.886   5.228
 3562TIP3   OH210628   4.975   0.296   5.649
 3562TIP3    H110629   5.044   0.351   5.611
 3562TIP3    H210630   4.952   0.234   5.580
 3563TIP3   OH210631   0.526   3.546   5.644
 3563TIP3    H110632   0.573   3.463   5.639
 3563TIP3    H210633   0.574   3.597   5.709
 3564TIP3   OH210634   3.948   5.397   6.315
 3564TIP3    H110635   4.031   5.408   6.361
 3564TIP3    H210636   3.973   5.378   6.225
 3565TIP3   OH210637   5.822   1.717   1.919
 3565TIP3    H110638   5.787   1.690   1.834
 3565TIP3    H210639   5.745   1.739   1.971
 3566TIP3   OH210640   1.270   5.056   6.074
 3566TIP3    H110641   1.310   4.996   6.011
 3566TIP3    H210642   1.341   5.078   6.135
 3567TIP3   OH210643   3.033   5.022   2.940
 3567TIP3    H110644   3.041   4.987   3.028
 3567TIP3    H210645   3.012   4.947   2.886
 3568TIP3   OH210646   4.953   4.582   3.476
 3568TIP3    H110647   4.898   4.602   3.552
 3568TIP3    H210648   4.994   4.498   3.497
 3569TIP3   OH210649   4.432   7.592   4.211
 3569TIP3    H110650   4.387   7.676   4.217
 3569TIP3    H210651   4.424   7.555   4.298
 3570TIP3   OH210652   7.670   1.822   0.527
 3570TIP3    H110653   7.576   1.843   0.523
 3570TIP3    H210654   7.710   1.899   0.568
 3571TIP3   OH210655   8.153   5.402   5.517
 3571TIP3    H110656   8.127   5.336   5.581
 3571TIP3    H210657   8.153   5.355   5.433
 3572TIP3   OH210658   5.668   3.580   4.274
 3572TIP3    H110659   5.680   3.595   4.180
 3572TIP3    H210660   5.713   3.498   4.291
 3573TIP3   OH210661   1.447   6.209   4.307
 3573TIP3    H110662   1.508   6.282   4.319
 3573TIP3    H210663   1.385   6.240   4.241
 3574TIP3   OH210664   0.754   2.755   6.280
 3574TIP3    H110665   0.730   2.797   6.198
 3574TIP3    H210666   0.743   2.823   6.346
 3575TIP3   OH210667   2.350   7.349   0.678
 3575TIP3    H110668   2.259   7.324   0.663
 3575TIP3    H210669   2.356   7.358   0.773
 3576TIP3   OH210670   1.360   3.068   0.770
 3576TIP3    H110671   1.386   3.020   0.692
 3576TIP3    H210672   1.315   3.004   0.825
 3577TIP3   OH210673   2.591   5.813   2.784
 3577TIP3    H110674   2.542   5.893   2.762
 3577TIP3    H210675   2.590   5.809   2.879
 3578TIP3   OH210676   0.614   5.502   3.197
 3578TIP3    H110677   0.637   5.409   3.209
 3578TIP3    H210678   0.696   5.548   3.215
 3579TIP3   OH210679   2.180   2.242   5.541
 3579TIP3    H110680   2.174   2.337   5.530
 3579TIP3    H210681   2.266   2.219   5.507
 3580TIP3   OH210682   3.713   1.871   1.076
 3580TIP3    H110683   3.621   1.845   1.079
 3580TIP3    H210684   3.720   1.927   0.999
 3581TIP3   OH210685   2.153   3.130   2.910
 3581TIP3    H110686   2.100   3.085   2.844
 3581TIP3    H210687   2.238   3.085   2.907
 3582TIP3   OH210688   5.347   1.722   1.376
 3582TIP3    H110689   5.264   1.685   1.344
 3582TIP3    H210690   5.330   1.741   1.468
 3583TIP3   OH210691   1.102   6.891   0.905
 3583TIP3    H110692   1.059   6.806   0.912
 3583TIP3    H210693   1.185   6.873   0.862
 3584TIP3   OH210694   1.771   4.779   5.174
 3584TIP3    H110695   1.711   4.709   5.198
 3584TIP3    H210696   1.719   4.859   5.181
 3585TIP3   OH210697   1.341   0.900   4.144
 3585TIP3    H110698   1.395   0.938   4.075
 3585TIP3    H210699   1.327   0.810   4.116
 3586TIP3   OH210700   3.253   1.100   1.628
 3586TIP3    H110701   3.299   1.121   1.709
 3586TIP3    H210702   3.196   1.175   1.613
 3587TIP3   OH210703   5.809   7.761   0.406
 3587TIP3    H110704   5.778   7.831   0.464
 3587TIP3    H210705   5.734   7.743   0.349
 3588TIP3   OH210706   3.015   4.599   2.851
 3588TIP3    H110707   2.930   4.594   2.894
 3588TIP3    H210708   2.999   4.648   2.771
 3589TIP3   OH210709   0.786   2.405   4.484
 3589TIP3    H110710   0.728   2.480   4.472
 3589TIP3    H210711   0.819   2.414   4.573
 3590TIP3   OH210712   3.781   6.847   1.336
 3590TIP3    H110713   3.873   6.822   1.342
 3590TIP3    H210714   3.762   6.891   1.418
 3591TIP3   OH210715   1.020   6.331   0.861
 3591TIP3    H110716   1.045   6.343   0.953
 3591TIP3    H210717   0.925   6.317   0.865
 3592TIP3   OH210718   3.434   0.035   2.040
 3592TIP3    H110719   3.451   0.124   2.009
 3592TIP3    H210720   3.514  -0.014   2.018
 3593TIP3   OH210721   5.677   3.198   1.617
 3593TIP3    H110722   5.773   3.198   1.629
 3593TIP3    H210723   5.645   3.139   1.685
 3594TIP3   OH210724   4.152   5.942   5.473
 3594TIP3    H110725   4.088   5.991   5.524
 3594TIP3    H210726   4.234   5.950   5.523
 3595TIP3   OH210727   0.721   4.574   5.881
 3595TIP3    H110728   0.740   4.661   5.845
 3595TIP3    H210729   0.765   4.573   5.966
 3596TIP3   OH210730   3.449   2.756   5.445
 3596TIP3    H110731   3.439   2.851   5.435
 3596TIP3    H210732   3.441   2.742   5.539
 3597TIP3   OH210733   2.551   3.985   4.168
 3597TIP3    H110734   2.636   3.942   4.159
 3597TIP3    H210735   2.563   4.072   4.130
 3598TIP3   OH210736   5.706   0.767   0.946
 3598TIP3    H110737   5.782   0.758   0.888
 3598TIP3    H210738   5.735   0.731   1.029
 3599TIP3   OH210739   5.954   4.874   4.230
 3599TIP3    H110740   6.001   4.812   4.174
 3599TIP3    H210741   5.886   4.822   4.272
 3600TIP3   OH210742   3.411   5.010   1.675
 3600TIP3    H110743   3.403   5.104   1.686
 3600TIP3    H210744   3.502   4.991   1.700
 3601TIP3   OH210745   0.235   0.938   0.540
 3601TIP3    H110746   0.155   0.935   0.594
 3601TIP3    H210747   0.212   0.994   0.467
 3602TIP3   OH210748   0.637   3.231   3.724
 3602TIP3    H110749   0.638   3.315   3.679
 3602TIP3    H210750   0.600   3.251   3.810
 3603TIP3   OH210751   0.262   4.745   1.141
 3603TIP3    H110752   0.217   4.790   1.213
 3603TIP3    H210753   0.288   4.815   1.082
 3604TIP3   OH210754   1.070   1.942   5.839
 3604TIP3    H110755   0.983   1.972   5.867
 3604TIP3    H210756   1.089   1.992   5.760
 3605TIP3   OH210757   7.032   4.204   0.293
 3605TIP3    H110758   6.956   4.152   0.319
 3605TIP3    H210759   7.014   4.232   0.203
 3606TIP3   OH210760   7.439   7.321   1.818
 3606TIP3    H110761   7.360   7.268   1.807
 3606TIP3    H210762   7.430   7.392   1.755
 3607TIP3   OH210763   3.831   4.642   0.452
 3607TIP3    H110764   3.847   4.662   0.544
 3607TIP3    H210765   3.918   4.640   0.412
 3608TIP3   OH210766   6.739   6.806   4.928
 3608TIP3    H110767   6.771   6.798   5.018
 3608TIP3    H210768   6.654   6.848   4.936
 3609TIP3   OH210769   7.114   7.562   3.520
 3609TIP3    H110770   7.096   7.655   3.533
 3609TIP3    H210771   7.030   7.519   3.536
 3610TIP3   OH210772   2.990   2.847   3.949
 3610TIP3    H110773   2.939   2.895   4.015
 3610TIP3    H210774   3.001   2.760   3.986
 3611TIP3   OH210775   4.585   0.827   6.439
 3611TIP3    H110776   4.504   0.799   6.396
 3611TIP3    H210777   4.641   0.859   6.368
 3612TIP3   OH210778   6.283   0.155   0.720
 3612TIP3    H110779   6.340   0.092   0.764
 3612TIP3    H210780   6.305   0.239   0.761
 3613TIP3   OH210781   6.971   2.764   4.729
 3613TIP3    H110782   6.899   2.822   4.754
 3613TIP3    H210783   7.010   2.806   4.652
 3614TIP3   OH210784   6.285   0.448   0.829
 3614TIP3    H110785   6.342   0.432   0.904
 3614TIP3    H210786   6.344   0.479   0.760
 3615TIP3   OH210787   5.188   2.551   5.203
 3615TIP3    H110788   5.247   2.538   5.277
 3615TIP3    H210789   5.105   2.576   5.244
 3616TIP3   OH210790   2.786   5.536   5.217
 3616TIP3    H110791   2.761   5.576   5.134
 3616TIP3    H210792   2.754   5.598   5.283
 3617TIP3   OH210793   4.872   1.658   2.911
 3617TIP3    H110794   4.873   1.711   2.831
 3617TIP3    H210795   4.804   1.698   2.965
 3618TIP3   OH210796   7.375   2.829   4.534
 3618TIP3    H110797   7.420   2.753   4.571
 3618TIP3    H210798   7.364   2.806   4.441
 3619TIP3   OH210799   4.676   6.824   0.393
 3619TIP3    H110800   4.684   6.738   0.351
 3619TIP3    H210801   4.760   6.838   0.436
 3620TIP3   OH210802   7.516   6.966   1.715
 3620TIP3    H110803   7.573   7.001   1.783
 3620TIP3    H210804   7.520   6.871   1.727
 3621TIP3   OH210805   4.134   2.502   4.517
 3621TIP3    H110806   4.125   2.590   4.555
 3621TIP3    H210807   4.047   2.481   4.484
 3622TIP3   OH210808   0.609   4.903   3.527
 3622TIP3    H110809   0.704   4.910   3.531
 3622TIP3    H210810   0.586   4.926   3.437
 3623TIP3   OH210811   0.769   5.170   3.464
 3623TIP3    H110812   0.785   5.086   3.506
 3623TIP3    H210813   0.844   5.224   3.490
 3624TIP3   OH210814   3.915   6.557   4.832
 3624TIP3    H110815   3.845   6.548   4.767
 3624TIP3    H210816   3.948   6.646   4.819
 3625TIP3   OH210817   5.039   7.370   3.946
 3625TIP3    H110818   4.970   7.310   3.974
 3625TIP3    H210819   5.061   7.419   4.025
 3626TIP3   OH210820   2.627   2.035   2.328
 3626TIP3    H110821   2.701   2.088   2.357
 3626TIP3    H210822   2.633   1.955   2.380
 3627TIP3   OH210823   4.896   2.823   1.497
 3627TIP3    H110824   4.864   2.758   1.561
 3627TIP3    H210825   4.989   2.803   1.488
 3628TIP3   OH210826   1.914   2.054   1.699
 3628TIP3    H110827   1.948   2.061   1.610
 3628TIP3    H210828   1.954   2.129   1.745
 3629TIP3   OH210829   6.767   3.831   1.802
 3629TIP3    H110830   6.722   3.894   1.858
 3629TIP3    H210831   6.788   3.881   1.722
 3630TIP3   OH210832   3.250   6.167   5.528
 3630TIP3    H110833   3.242   6.092   5.586
 3630TIP3    H210834   3.163   6.206   5.527
 3631TIP3   OH210835   4.115   4.170   6.369
 3631TIP3    H110836   4.032   4.217   6.356
 3631TIP3    H210837   4.093   4.099   6.429
 3632TIP3   OH210838   5.664   7.529   2.999
 3632TIP3    H110839   5.630   7.549   3.086
 3632TIP3    H210840   5.756   7.557   3.003
 3633TIP3   OH210841   6.538   3.206   5.384
 3633TIP3    H110842   6.448   3.213   5.352
 3633TIP3    H210843   6.572   3.295   5.380
 3634TIP3   OH210844   0.363   3.360   0.750
 3634TIP3    H110845   0.411   3.439   0.774
 3634TIP3    H210846   0.404   3.329   0.670
 3635TIP3   OH210847   4.053   6.560   2.435
 3635TIP3    H110848   4.035   6.623   2.505
 3635TIP3    H210849   4.115   6.498   2.474
 3636TIP3   OH210850   4.036   3.001   2.330
 3636TIP3    H110851   3.955   3.046   2.307
 3636TIP3    H210852   4.093   3.014   2.254
 3637TIP3   OH210853   6.110   2.507   1.300
 3637TIP3    H110854   6.016   2.489   1.299
 3637TIP3    H210855   6.148   2.436   1.352
 3638TIP3   OH210856   4.944   2.644   5.690
 3638TIP3    H110857   4.920   2.556   5.660
 3638TIP3    H210858   4.882   2.702   5.646
 3639TIP3   OH210859   4.674   3.309   2.636
 3639TIP3    H110860   4.599   3.357   2.600
 3639TIP3    H210861   4.750   3.349   2.595
 3640TIP3   OH210862   0.307   2.228   0.940
 3640TIP3    H110863   0.224   2.214   0.985
 3640TIP3    H210864   0.293   2.309   0.891
 3641TIP3   OH210865   1.822   4.170   2.148
 3641TIP3    H110866   1.870   4.100   2.192
 3641TIP3    H210867   1.881   4.245   2.150
 3642TIP3   OH210868   7.006   2.921   3.935
 3642TIP3    H110869   7.042   2.835   3.913
 3642TIP3    H210870   7.082   2.978   3.943
 3643TIP3   OH210871   3.321   6.247   2.632
 3643TIP3    H110872   3.315   6.327   2.685
 3643TIP3    H210873   3.382   6.270   2.561
 3644TIP3   OH210874   7.731   5.310   6.102
 3644TIP3    H110875   7.764   5.245   6.164
 3644TIP3    H210876   7.636   5.307   6.113
 3645TIP3   OH210877   8.044   6.184   4.388
 3645TIP3    H110878   8.136   6.210   4.386
 3645TIP3    H210879   8.045   6.090   4.372
 3646TIP3   OH210880   0.917   2.791   5.728
 3646TIP3    H110881   0.969   2.827   5.799
 3646TIP3    H210882   0.976   2.788   5.653
 3647TIP3   OH210883   8.026   5.395   6.546
 3647TIP3    H110884   7.938   5.357   6.552
 3647TIP3    H210885   8.049   5.388   6.453
 3648TIP3   OH210886   7.542   3.045   4.006
 3648TIP3    H110887   7.531   3.018   3.915
 3648TIP3    H210888   7.460   3.088   4.029
 3649TIP3   OH210889   6.452   3.737   1.468
 3649TIP3    H110890   6.394   3.755   1.542
 3649TIP3    H210891   6.473   3.823   1.432
 3650TIP3   OH210892   7.835   0.176   3.240
 3650TIP3    H110893   7.838   0.270   3.220
 3650TIP3    H210894   7.878   0.134   3.165
 3651TIP3   OH210895   6.233   2.131   4.181
 3651TIP3    H110896   6.220   2.116   4.088
 3651TIP3    H210897   6.260   2.045   4.216
 3652TIP3   OH210898   4.536   1.625   1.470
 3652TIP3    H110899   4.542   1.538   1.509
 3652TIP3    H210900   4.532   1.685   1.544
 3653TIP3   OH210901   7.298   4.697   0.290
 3653TIP3    H110902   7.309   4.662   0.202
 3653TIP3    H210903   7.236   4.638   0.332
 3654TIP3   OH210904   0.521   1.423   3.068
 3654TIP3    H110905   0.444   1.476   3.050
 3654TIP3    H210906   0.543   1.383   2.984
 3655TIP3   OH210907   2.197   1.156   0.640
 3655TIP3    H110908   2.246   1.075   0.648
 3655TIP3    H210909   2.110   1.130   0.608
 3656TIP3   OH210910   6.569   4.134   5.767
 3656TIP3    H110911   6.481   4.161   5.789
 3656TIP3    H210912   6.559   4.043   5.737
 3657TIP3   OH210913   4.783   4.905   1.006
 3657TIP3    H110914   4.807   4.930   0.917
 3657TIP3    H210915   4.861   4.921   1.058
 3658TIP3   OH210916   3.818   2.344   4.182
 3658TIP3    H110917   3.808   2.367   4.275
 3658TIP3    H210918   3.835   2.249   4.184
 3659TIP3   OH210919   4.905   4.396   4.646
 3659TIP3    H110920   4.951   4.392   4.563
 3659TIP3    H210921   4.870   4.486   4.650
 3660TIP3   OH210922   7.310   2.503   3.675
 3660TIP3    H110923   7.314   2.599   3.681
 3660TIP3    H210924   7.391   2.479   3.630
 3661TIP3   OH210925   7.111   6.938   0.814
 3661TIP3    H110926   7.165   6.859   0.812
 3661TIP3    H210927   7.028   6.909   0.852
 3662TIP3   OH210928   1.276   6.714   2.200
 3662TIP3    H110929   1.346   6.731   2.137
 3662TIP3    H210930   1.267   6.619   2.201
 3663TIP3   OH210931   7.274   4.423   3.255
 3663TIP3    H110932   7.350   4.380   3.294
 3663TIP3    H210933   7.274   4.511   3.292
 3664TIP3   OH210934   7.959   7.396   0.455
 3664TIP3    H110935   7.941   7.326   0.519
 3664TIP3    H210936   7.904   7.373   0.379
 3665TIP3   OH210937   2.857   5.710   1.482
 3665TIP3    H110938   2.930   5.772   1.482
 3665TIP3    H210939   2.809   5.730   1.402
 3666TIP3   OH210940   1.661   5.020   5.119
 3666TIP3    H110941   1.566   5.015   5.108
 3666TIP3    H210942   1.696   5.010   5.030
 3667TIP3   OH210943   1.569   4.706   2.062
 3667TIP3    H110944   1.508   4.725   2.134
 3667TIP3    H210945   1.653   4.743   2.092
 3668TIP3   OH210946   6.938   4.913   2.576
 3668TIP3    H110947   6.957   4.850   2.506
 3668TIP3    H210948   6.961   4.998   2.539
 3669TIP3   OH210949   2.014   4.160   3.494
 3669TIP3    H110950   2.003   4.117   3.579
 3669TIP3    H210951   2.066   4.238   3.513
 3670TIP3   OH210952   5.212   0.751   6.473
 3670TIP3    H110953   5.141   0.804   6.435
 3670TIP3    H210954   5.192   0.661   6.446
 3671TIP3   OH210955   7.949   3.634   5.605
 3671TIP3    H110956   7.956   3.540   5.589
 3671TIP3    H210957   7.981   3.645   5.695
 3672TIP3   OH210958   6.650   0.229   5.013
 3672TIP3    H110959   6.638   0.136   5.029
 3672TIP3    H210960   6.628   0.271   5.096
 3673TIP3   OH210961   5.863   5.877   5.526
 3673TIP3    H110962   5.910   5.960   5.513
 3673TIP3    H210963   5.816   5.863   5.444
 3674TIP3   OH210964   8.081   7.636   0.442
 3674TIP3    H110965   8.105   7.662   0.531
 3674TIP3    H210966   8.061   7.543   0.449
 3675TIP3   OH210967   6.278   4.730   4.760
 3675TIP3    H110968   6.279   4.810   4.707
 3675TIP3    H210969   6.294   4.760   4.849
 3676TIP3   OH210970   5.365   1.789   3.973
 3676TIP3    H110971   5.378   1.880   4.001
 3676TIP3    H210972   5.275   1.786   3.942
 3677TIP3   OH210973   7.020   3.590   2.675
 3677TIP3    H110974   7.091   3.596   2.612
 3677TIP3    H210975   6.943   3.620   2.628
 3678TIP3   OH210976   0.175   7.228   1.836
 3678TIP3    H110977   0.255   7.221   1.888
 3678TIP3    H210978   0.160   7.322   1.826
 3679TIP3   OH210979   3.935   6.675   6.416
 3679TIP3    H110980   4.026   6.695   6.393
 3679TIP3    H210981   3.895   6.760   6.431
 3680TIP3   OH210982   3.695   6.272   4.648
 3680TIP3    H110983   3.637   6.303   4.717
 3680TIP3    H210984   3.637   6.235   4.582
 3681TIP3   OH210985   3.686   7.789   2.616
 3681TIP3    H110986   3.623   7.783   2.545
 3681TIP3    H210987   3.683   7.881   2.642
 3682TIP3   OH210988   1.801   6.302   0.125
 3682TIP3    H110989   1.841   6.247   0.192
 3682TIP3    H210990   1.712   6.268   0.116
 3683TIP3   OH210991   3.267   7.642   3.499
 3683TIP3    H110992   3.330   7.671   3.432
 3683TIP3    H210993   3.184   7.680   3.471
 3684TIP3   OH210994   2.269   7.583   4.931
 3684TIP3    H110995   2.176   7.604   4.936
 3684TIP3    H210996   2.304   7.643   4.865
 3685TIP3   OH210997   5.005   2.182   1.966
 3685TIP3    H110998   5.039   2.095   1.945
 3685TIP3    H210999   4.954   2.170   2.046
 3686TIP3   OH211000   4.807   3.518   0.418
 3686TIP3    H111001   4.731   3.461   0.428
 3686TIP3    H211002   4.779   3.583   0.353
 3687TIP3   OH211003   5.649   6.017   1.430
 3687TIP3    H111004   5.719   5.956   1.404
 3687TIP3    H211005   5.590   6.019   1.354
 3688TIP3   OH211006   1.992   4.330   5.933
 3688TIP3    H111007   2.018   4.280   6.011
 3688TIP3    H211008   1.986   4.420   5.964
 3689TIP3   OH211009   7.270   6.475   3.566
 3689TIP3    H111010   7.281   6.408   3.499
 3689TIP3    H211011   7.316   6.440   3.643
 3690TIP3   OH211012   0.029   4.913   2.613
 3690TIP3    H111013  -0.004   4.974   2.547
 3690TIP3    H211014   0.105   4.872   2.571
 3691TIP3   OH211015   4.823   1.782   1.584
 3691TIP3    H111016   4.918   1.785   1.571
 3691TIP3    H211017   4.812   1.784   1.679
 3692TIP3   OH211018   1.476   1.318   2.065
 3692TIP3    H111019   1.383   1.318   2.043
 3692TIP3    H211020   1.507   1.404   2.037
 3693TIP3   OH211021   1.397   1.732   5.238
 3693TIP3    H111022   1.375   1.639   5.237
 3693TIP3    H211023   1.445   1.747   5.157
 3694TIP3   OH211024   3.255   6.374   0.716
 3694TIP3    H111025   3.299   6.429   0.781
 3694TIP3    H211026   3.326   6.333   0.667
 3695TIP3   OH211027   2.533   3.917   2.265
 3695TIP3    H111028   2.562   3.955   2.182
 3695TIP3    H211029   2.437   3.914   2.257
 3696TIP3   OH211030   0.753   7.256   0.916
 3696TIP3    H111031   0.691   7.270   0.987
 3696TIP3    H211032   0.795   7.173   0.936
 3697TIP3   OH211033   4.429   4.752   6.557
 3697TIP3    H111034   4.450   4.730   6.648
 3697TIP3    H211035   4.494   4.704   6.506
 3698TIP3   OH211036   3.989   2.949   0.608
 3698TIP3    H111037   3.898   2.979   0.604
 3698TIP3    H211038   4.025   2.992   0.686
 3699TIP3   OH211039   4.062   2.324   0.917
 3699TIP3    H111040   4.074   2.395   0.853
 3699TIP3    H211041   4.148   2.313   0.957
 3700TIP3   OH211042   6.334   7.625   2.503
 3700TIP3    H111043   6.330   7.683   2.427
 3700TIP3    H211044   6.387   7.551   2.473
 3701TIP3   OH211045   0.012   5.134   0.297
 3701TIP3    H111046   0.075   5.070   0.263
 3701TIP3    H211047  -0.057   5.136   0.232
 3702TIP3   OH211048   0.907   6.279   3.665
 3702TIP3    H111049   1.003   6.284   3.664
 3702TIP3    H211050   0.882   6.295   3.574
 3703TIP3   OH211051   5.627   2.740   2.784
 3703TIP3    H111052   5.715   2.771   2.763
 3703TIP3    H211053   5.640   2.678   2.857
 3704TIP3   OH211054   0.995   7.168   4.797
 3704TIP3    H111055   1.051   7.220   4.739
 3704TIP3    H211056   0.932   7.127   4.737
 3705TIP3   OH211057   4.972   5.071   1.647
 3705TIP3    H111058   5.042   5.110   1.700
 3705TIP3    H211059   5.010   4.991   1.611
 3706TIP3   OH211060   7.989   3.662   5.874
 3706TIP3    H111061   7.991   3.706   5.959
 3706TIP3    H211062   8.035   3.579   5.889
 3707TIP3   OH211063   0.153   2.650   6.430
 3707TIP3    H111064   0.235   2.667   6.384
 3707TIP3    H211065   0.085   2.683   6.370
 3708TIP3   OH211066   3.146   2.910   0.610
 3708TIP3    H111067   3.151   3.003   0.632
 3708TIP3    H211068   3.057   2.885   0.634
 3709TIP3   OH211069   1.928   3.187   5.781
 3709TIP3    H111070   2.014   3.157   5.750
 3709TIP3    H211071   1.867   3.120   5.751
 3710TIP3   OH211072   8.097   3.736   5.051
 3710TIP3    H111073   8.177   3.787   5.039
 3710TIP3    H211074   8.118   3.650   5.016
 3711TIP3   OH211075   0.190   1.603   4.810
 3711TIP3    H111076   0.206   1.558   4.893
 3711TIP3    H211077   0.271   1.651   4.793
 3712TIP3   OH211078   2.762   6.247   0.419
 3712TIP3    H111079   2.748   6.220   0.510
 3712TIP3    H211080   2.810   6.330   0.426
 3713TIP3   OH211081   0.765   2.295   3.105
 3713TIP3    H111082   0.780   2.229   3.173
 3713TIP3    H211083   0.822   2.368   3.129
 3714TIP3   OH211084   0.849   1.052   5.480
 3714TIP3    H111085   0.810   1.140   5.475
 3714TIP3    H211086   0.937   1.063   5.443
 3715TIP3   OH211087   5.575   2.602   3.709
 3715TIP3    H111088   5.500   2.550   3.739
 3715TIP3    H211089   5.615   2.635   3.789
 3716TIP3   OH211090   6.872   0.500   1.503
 3716TIP3    H111091   6.949   0.512   1.558
 3716TIP3    H211092   6.906   0.490   1.414
 3717TIP3   OH211093   1.556   3.646   5.430
 3717TIP3    H111094   1.549   3.568   5.484
 3717TIP3    H211095   1.580   3.715   5.492
 3718TIP3   OH211096   8.136   0.293   3.273
 3718TIP3    H111097   8.087   0.367   3.311
 3718TIP3    H211098   8.095   0.279   3.187
 3719TIP3   OH211099   6.672   0.060   5.904
 3719TIP3    H111100   6.661  -0.026   5.946
 3719TIP3    H211101   6.734   0.043   5.833
 3720TIP3   OH211102   3.527   3.577   1.555
 3720TIP3    H111103   3.456   3.637   1.577
 3720TIP3    H211104   3.590   3.631   1.507
 3721TIP3   OH211105   4.061   6.988   6.156
 3721TIP3    H111106   4.141   6.979   6.207
 3721TIP3    H211107   4.091   7.011   6.068
 3722TIP3   OH211108   5.866   5.852   3.293
 3722TIP3    H111109   5.835   5.762   3.302
 3722TIP3    H211110   5.939   5.857   3.355
 3723TIP3   OH211111   1.949   2.812   0.027
 3723TIP3    H111112   1.905   2.728   0.015
 3723TIP3    H211113   1.998   2.802   0.108
 3724TIP3   OH211114   5.815   3.782   4.082
 3724TIP3    H111115   5.842   3.690   4.079
 3724TIP3    H211116   5.830   3.814   3.993
 3725TIP3   OH211117   3.375   4.295   0.049
 3725TIP3    H111118   3.451   4.260   0.003
 3725TIP3    H211119   3.413   4.345   0.122
 3726TIP3   OH211120   1.087   0.285   4.700
 3726TIP3    H111121   1.104   0.230   4.777
 3726TIP3    H211122   1.030   0.354   4.733
 3727TIP3   OH211123   4.256   6.231   5.762
 3727TIP3    H111124   4.197   6.297   5.798
 3727TIP3    H211125   4.310   6.204   5.836
 3728TIP3   OH211126   1.477   5.669   2.247
 3728TIP3    H111127   1.534   5.600   2.282
 3728TIP3    H211128   1.400   5.668   2.304
 3729TIP3   OH211129   5.975   2.016   4.687
 3729TIP3    H111130   6.013   1.929   4.679
 3729TIP3    H211131   5.991   2.058   4.602
 3730TIP3   OH211132   5.785   3.005   5.932
 3730TIP3    H111133   5.755   3.094   5.950
 3730TIP3    H211134   5.851   3.015   5.863
 3731TIP3   OH211135   0.337   4.773   2.243
 3731TIP3    H111136   0.395   4.724   2.184
 3731TIP3    H211137   0.387   4.780   2.325
 3732TIP3   OH211138   5.491   2.538   2.358
 3732TIP3    H111139   5.477   2.444   2.355
 3732TIP3    H211140   5.409   2.576   2.329
 3733TIP3   OH211141   3.047   2.816   2.933
 3733TIP3    H111142   3.142   2.821   2.944
 3733TIP3    H211143   3.034   2.748   2.867
 3734TIP3   OH211144   2.267   0.233   2.841
 3734TIP3    H111145   2.231   0.299   2.900
 3734TIP3    H211146   2.319   0.283   2.778
 3735TIP3   OH211147   5.892   1.798   5.836
 3735TIP3    H111148   5.913   1.766   5.924
 3735TIP3    H211149   5.799   1.779   5.825
 3736TIP3   OH211150   2.387   6.460   2.680
 3736TIP3    H111151   2.466   6.511   2.698
 3736TIP3    H211152   2.338   6.513   2.617
 3737TIP3   OH211153   7.156   5.163   2.874
 3737TIP3    H111154   7.242   5.123   2.886
 3737TIP3    H211155   7.106   5.136   2.951
 3738TIP3   OH211156   4.471   2.962   0.388
 3738TIP3    H111157   4.554   2.993   0.351
 3738TIP3    H211158   4.466   3.006   0.473
 3739TIP3   OH211159   7.935   0.169   0.563
 3739TIP3    H111160   7.998   0.110   0.523
 3739TIP3    H211161   7.850   0.136   0.534
 3740TIP3   OH211162   1.084   6.698   1.981
 3740TIP3    H111163   1.000   6.718   2.022
 3740TIP3    H211164   1.150   6.722   2.046
 3741TIP3   OH211165   5.069   3.482   0.320
 3741TIP3    H111166   5.005   3.511   0.386
 3741TIP3    H211167   5.033   3.512   0.237
 3742TIP3   OH211168   3.383   5.323   2.771
 3742TIP3    H111169   3.298   5.331   2.727
 3742TIP3    H211170   3.368   5.259   2.840
 3743TIP3   OH211171   3.558   7.026   3.897
 3743TIP3    H111172   3.491   7.002   3.961
 3743TIP3    H211173   3.523   7.103   3.853
 3744TIP3   OH211174   7.617   5.514   0.766
 3744TIP3    H111175   7.581   5.456   0.833
 3744TIP3    H211176   7.556   5.588   0.763
 3745TIP3   OH211177   3.749   0.970   1.379
 3745TIP3    H111178   3.768   0.878   1.400
 3745TIP3    H211179   3.835   1.012   1.377
 3746TIP3   OH211180   5.695   4.549   2.167
 3746TIP3    H111181   5.770   4.513   2.120
 3746TIP3    H211182   5.682   4.636   2.127
 3747TIP3   OH211183   8.060   4.237   6.537
 3747TIP3    H111184   7.979   4.276   6.569
 3747TIP3    H211185   8.127   4.305   6.549
 3748TIP3   OH211186   5.368   5.301   6.316
 3748TIP3    H111187   5.421   5.314   6.238
 3748TIP3    H211188   5.431   5.292   6.387
 3749TIP3   OH211189   7.125   3.047   1.385
 3749TIP3    H111190   7.075   2.968   1.366
 3749TIP3    H211191   7.140   3.087   1.300
 3750TIP3   OH211192   3.435   7.039   1.768
 3750TIP3    H111193   3.516   7.087   1.755
 3750TIP3    H211194   3.369   7.090   1.721
 3751TIP3   OH211195   7.206   5.329   5.273
 3751TIP3    H111196   7.255   5.275   5.335
 3751TIP3    H211197   7.190   5.272   5.199
 3752TIP3   OH211198   2.557   5.473   2.981
 3752TIP3    H111199   2.558   5.459   2.886
 3752TIP3    H211200   2.495   5.409   3.014
 3753TIP3   OH211201   8.203   0.356   6.482
 3753TIP3    H111202   8.234   0.429   6.428
 3753TIP3    H211203   8.181   0.396   6.566
 3754TIP3   OH211204   3.767   6.192   3.680
 3754TIP3    H111205   3.679   6.230   3.682
 3754TIP3    H211206   3.768   6.139   3.600
 3755TIP3   OH211207   1.436   1.189   1.016
 3755TIP3    H111208   1.433   1.205   0.922
 3755TIP3    H211209   1.422   1.275   1.056
 3756TIP3   OH211210   1.330   5.474   5.322
 3756TIP3    H111211   1.348   5.431   5.406
 3756TIP3    H211212   1.253   5.429   5.287
 3757TIP3   OH211213   2.509   4.279   3.308
 3757TIP3    H111214   2.559   4.342   3.359
 3757TIP3    H211215   2.567   4.256   3.235
 3758TIP3   OH211216   4.401   2.383   3.157
 3758TIP3    H111217   4.458   2.460   3.147
 3758TIP3    H211218   4.377   2.359   3.068
 3759TIP3   OH211219   4.746   6.427   3.367
 3759TIP3    H111220   4.682   6.397   3.431
 3759TIP3    H211221   4.751   6.522   3.381
 3760TIP3   OH211222   5.835   2.965   4.529
 3760TIP3    H111223   5.893   2.890   4.540
 3760TIP3    H211224   5.760   2.946   4.585
 3761TIP3   OH211225   4.854   4.193   4.818
 3761TIP3    H111226   4.864   4.271   4.763
 3761TIP3    H211227   4.943   4.158   4.827
 3762TIP3   OH211228   7.572   1.103   0.470
 3762TIP3    H111229   7.539   1.127   0.383
 3762TIP3    H211230   7.562   1.008   0.475
 3763TIP3   OH211231   5.755   7.030   2.121
 3763TIP3    H111232   5.849   7.041   2.106
 3763TIP3    H211233   5.742   6.936   2.123
 3764TIP3   OH211234   6.347   5.756   1.643
 3764TIP3    H111235   6.378   5.824   1.583
 3764TIP3    H211236   6.347   5.799   1.729
 3765TIP3   OH211237   2.908   2.437   2.869
 3765TIP3    H111238   2.958   2.366   2.910
 3765TIP3    H211239   2.975   2.494   2.831
 3766TIP3   OH211240   2.123   3.372   5.583
 3766TIP3    H111241   2.032   3.401   5.589
 3766TIP3    H211242   2.135   3.315   5.658
 3767TIP3   OH211243   3.624   1.396   6.473
 3767TIP3    H111244   3.611   1.489   6.493
 3767TIP3    H211245   3.659   1.359   6.555
 3768TIP3   OH211246   5.878   1.626   3.934
 3768TIP3    H111247   5.875   1.680   4.013
 3768TIP3    H211248   5.929   1.678   3.872
 3769TIP3   OH211249   0.568   2.659   5.310
 3769TIP3    H111250   0.613   2.727   5.361
 3769TIP3    H211251   0.492   2.703   5.272
 3770TIP3   OH211252   8.263   5.479   6.715
 3770TIP3    H111253   8.333   5.475   6.651
 3770TIP3    H211254   8.191   5.429   6.676
 3771TIP3   OH211255   0.706   3.792   0.597
 3771TIP3    H111256   0.686   3.820   0.508
 3771TIP3    H211257   0.800   3.805   0.606
 3772TIP3   OH211258   3.059   4.296   6.665
 3772TIP3    H111259   3.083   4.385   6.642
 3772TIP3    H211260   3.108   4.277   6.745
 3773TIP3   OH211261   7.631   7.208   4.373
 3773TIP3    H111262   7.546   7.226   4.333
 3773TIP3    H211263   7.694   7.258   4.320
 3774TIP3   OH211264   8.250   7.532   3.821
 3774TIP3    H111265   8.266   7.456   3.766
 3774TIP3    H211266   8.156   7.548   3.814
 3775TIP3   OH211267   7.168   2.090   1.766
 3775TIP3    H111268   7.124   2.114   1.684
 3775TIP3    H211269   7.253   2.134   1.761
 3776TIP3   OH211270   0.953   4.218   0.689
 3776TIP3    H111271   1.031   4.167   0.712
 3776TIP3    H211272   0.938   4.198   0.596
 3777TIP3   OH211273   7.641   2.394   5.423
 3777TIP3    H111274   7.571   2.390   5.358
 3777TIP3    H211275   7.677   2.483   5.414
 3778TIP3   OH211276   1.220   3.111   5.755
 3778TIP3    H111277   1.186   3.152   5.675
 3778TIP3    H211278   1.306   3.149   5.768
 3779TIP3   OH211279   0.335   5.486   3.967
 3779TIP3    H111280   0.412   5.540   3.954
 3779TIP3    H211281   0.368   5.403   4.003
 3780TIP3   OH211282   1.634   0.025   0.680
 3780TIP3    H111283   1.705  -0.032   0.651
 3780TIP3    H211284   1.665   0.114   0.662
 3781TIP3   OH211285   5.836   3.135   0.580
 3781TIP3    H111286   5.924   3.112   0.609
 3781TIP3    H211287   5.830   3.099   0.491
 3782TIP3   OH211288   5.543   0.065   6.498
 3782TIP3    H111289   5.596   0.095   6.572
 3782TIP3    H211290   5.606   0.056   6.426
 3783TIP3   OH211291   1.636   0.386   4.272
 3783TIP3    H111292   1.645   0.296   4.302
 3783TIP3    H211293   1.718   0.428   4.297
 3784TIP3   OH211294   4.364   1.883   5.512
 3784TIP3    H111295   4.293   1.885   5.575
 3784TIP3    H211296   4.379   1.790   5.496
 3785TIP3   OH211297   8.215   7.556   1.041
 3785TIP3    H111298   8.170   7.527   1.120
 3785TIP3    H211299   8.300   7.513   1.044
 3786TIP3   OH211300   3.782   0.250   4.941
 3786TIP3    H111301   3.695   0.223   4.910
 3786TIP3    H211302   3.843   0.202   4.885
 3787TIP3   OH211303   0.227   0.234   5.400
 3787TIP3    H111304   0.143   0.192   5.418
 3787TIP3    H211305   0.252   0.276   5.483
 3788TIP3   OH211306   0.396   2.385   6.113
 3788TIP3    H111307   0.418   2.374   6.205
 3788TIP3    H211308   0.436   2.469   6.088
 3789TIP3   OH211309   3.792   3.253   1.976
 3789TIP3    H111310   3.842   3.333   1.995
 3789TIP3    H211311   3.701   3.281   1.975
 3790TIP3   OH211312   7.274   1.500   1.088
 3790TIP3    H111313   7.323   1.550   1.023
 3790TIP3    H211314   7.277   1.554   1.167
 3791TIP3   OH211315   5.463   0.807   1.594
 3791TIP3    H111316   5.386   0.843   1.551
 3791TIP3    H211317   5.526   0.880   1.596
 3792TIP3   OH211318   3.257   2.905   3.278
 3792TIP3    H111319   3.350   2.884   3.272
 3792TIP3    H211320   3.216   2.824   3.307
 3793TIP3   OH211321   0.094   3.322   2.741
 3793TIP3    H111322   0.160   3.271   2.694
 3793TIP3    H211323   0.065   3.263   2.811
 3794TIP3   OH211324   5.555   7.443   6.300
 3794TIP3    H111325   5.613   7.517   6.280
 3794TIP3    H211326   5.612   7.376   6.336
 3795TIP3   OH211327   2.700   2.710   3.256
 3795TIP3    H111328   2.748   2.628   3.246
 3795TIP3    H211329   2.719   2.737   3.346
 3796TIP3   OH211330   5.574   5.039   2.479
 3796TIP3    H111331   5.566   5.109   2.414
 3796TIP3    H211332   5.527   4.965   2.441
 3797TIP3   OH211333   3.094   5.455   0.810
 3797TIP3    H111334   3.059   5.542   0.792
 3797TIP3    H211335   3.174   5.471   0.862
 3798TIP3   OH211336   0.773   5.762   3.170
 3798TIP3    H111337   0.767   5.835   3.108
 3798TIP3    H211338   0.701   5.777   3.231
 3799TIP3   OH211339   3.055   5.396   6.436
 3799TIP3    H111340   3.077   5.450   6.360
 3799TIP3    H211341   3.131   5.403   6.493
 3800TIP3   OH211342   5.046   6.489   2.218
 3800TIP3    H111343   5.065   6.570   2.170
 3800TIP3    H211344   5.023   6.425   2.151
 3801TIP3   OH211345   4.407   6.466   4.104
 3801TIP3    H111346   4.324   6.464   4.057
 3801TIP3    H211347   4.423   6.374   4.128
 3802TIP3   OH211348   6.971   0.658   2.176
 3802TIP3    H111349   6.927   0.731   2.134
 3802TIP3    H211350   7.024   0.618   2.107
 3803TIP3   OH211351   3.656   5.113   0.191
 3803TIP3    H111352   3.724   5.165   0.148
 3803TIP3    H211353   3.705   5.046   0.240
 3804TIP3   OH211354   4.643   6.791   0.793
 3804TIP3    H111355   4.680   6.877   0.772
 3804TIP3    H211356   4.689   6.730   0.736
 3805TIP3   OH211357   5.633   2.149   4.182
 3805TIP3    H111358   5.721   2.147   4.143
 3805TIP3    H211359   5.616   2.058   4.207
 3806TIP3   OH211360   2.185   5.982   5.952
 3806TIP3    H111361   2.182   6.028   6.035
 3806TIP3    H211362   2.110   5.922   5.954
 3807TIP3   OH211363   5.553   6.419   3.552
 3807TIP3    H111364   5.497   6.421   3.630
 3807TIP3    H211365   5.642   6.418   3.586
 3808TIP3   OH211366   6.942   7.286   6.743
 3808TIP3    H111367   6.932   7.377   6.717
 3808TIP3    H211368   6.854   7.249   6.735
 3809TIP3   OH211369   4.047   1.741   3.234
 3809TIP3    H111370   4.075   1.832   3.237
 3809TIP3    H211371   4.011   1.729   3.146
 3810TIP3   OH211372   1.348   1.606   5.549
 3810TIP3    H111373   1.314   1.569   5.467
 3810TIP3    H211374   1.443   1.593   5.543
 3811TIP3   OH211375   1.195   3.727   6.349
 3811TIP3    H111376   1.103   3.718   6.373
 3811TIP3    H211377   1.198   3.800   6.288
 3812TIP3   OH211378   3.639   1.660   6.577
 3812TIP3    H111379   3.563   1.718   6.572
 3812TIP3    H211380   3.694   1.698   6.645
 3813TIP3   OH211381   1.818   6.780   2.235
 3813TIP3    H111382   1.804   6.874   2.226
 3813TIP3    H211383   1.847   6.752   2.148
 3814TIP3   OH211384   1.204   4.648   6.367
 3814TIP3    H111385   1.285   4.602   6.389
 3814TIP3    H211386   1.219   4.683   6.279
 3815TIP3   OH211387   7.673   5.106   5.801
 3815TIP3    H111388   7.704   5.031   5.751
 3815TIP3    H211389   7.740   5.119   5.868
 3816TIP3   OH211390   3.636   2.620   0.762
 3816TIP3    H111391   3.696   2.694   0.766
 3816TIP3    H211392   3.552   2.658   0.736
 3817TIP3   OH211393   1.917   4.798   4.726
 3817TIP3    H111394   1.832   4.793   4.770
 3817TIP3    H211395   1.912   4.732   4.657
 3818TIP3   OH211396   2.986   0.242   0.704
 3818TIP3    H111397   2.900   0.274   0.729
 3818TIP3    H211398   3.046   0.313   0.725
 3819TIP3   OH211399   5.989   6.326   4.926
 3819TIP3    H111400   6.034   6.241   4.920
 3819TIP3    H211401   5.898   6.306   4.904
 3820TIP3   OH211402   6.606   3.436   5.131
 3820TIP3    H111403   6.621   3.525   5.098
 3820TIP3    H211404   6.606   3.446   5.226
 3821TIP3   OH211405   7.628   3.616   1.665
 3821TIP3    H111406   7.601   3.632   1.755
 3821TIP3    H211407   7.658   3.525   1.664
 3822TIP3   OH211408   6.569   1.246   3.579
 3822TIP3    H111409   6.624   1.177   3.541
 3822TIP3    H211410   6.616   1.327   3.559
 3823TIP3   OH211411   4.990   7.206   5.893
 3823TIP3    H111412   5.068   7.257   5.914
 3823TIP3    H211413   4.969   7.160   5.974
 3824TIP3   OH211414   2.283   3.474   1.934
 3824TIP3    H111415   2.272   3.565   1.961
 3824TIP3    H211416   2.376   3.456   1.947
 3825TIP3   OH211417   3.055   0.119   0.956
 3825TIP3    H111418   3.026   0.112   0.865
 3825TIP3    H211419   2.996   0.062   1.005
 3826TIP3   OH211420   6.853   2.372   2.070
 3826TIP3    H111421   6.919   2.318   2.027
 3826TIP3    H211422   6.885   2.462   2.060
 3827TIP3   OH211423   2.055   4.959   3.535
 3827TIP3    H111424   2.135   4.966   3.484
 3827TIP3    H211425   2.075   5.003   3.618
 3828TIP3   OH211426   3.055   6.572   4.655
 3828TIP3    H111427   3.083   6.663   4.639
 3828TIP3    H211428   3.112   6.519   4.599
 3829TIP3   OH211429   2.864   6.732   3.357
 3829TIP3    H111430   2.779   6.710   3.395
 3829TIP3    H211431   2.852   6.717   3.263
 3830TIP3   OH211432   7.599   7.071   6.520
 3830TIP3    H111433   7.554   7.061   6.436
 3830TIP3    H211434   7.580   7.160   6.548
 3831TIP3   OH211435   7.735   6.041   5.276
 3831TIP3    H111436   7.761   6.112   5.334
 3831TIP3    H211437   7.739   5.963   5.331
 3832TIP3   OH211438   6.528   4.221   1.393
 3832TIP3    H111439   6.499   4.299   1.346
 3832TIP3    H211440   6.500   4.236   1.484
 3833TIP3   OH211441   5.962   2.130   1.314
 3833TIP3    H111442   5.897   2.079   1.362
 3833TIP3    H211443   5.962   2.092   1.226
 3834TIP3   OH211444   6.471   5.689   2.306
 3834TIP3    H111445   6.382   5.655   2.307
 3834TIP3    H211446   6.525   5.619   2.343
 3835TIP3   OH211447   5.241   0.824   2.711
 3835TIP3    H111448   5.315   0.764   2.721
 3835TIP3    H211449   5.198   0.795   2.630
 3836TIP3   OH211450   2.562   3.017   4.491
 3836TIP3    H111451   2.590   2.978   4.408
 3836TIP3    H211452   2.504   2.952   4.530
 3837TIP3   OH211453   7.533   1.227   2.335
 3837TIP3    H111454   7.464   1.179   2.289
 3837TIP3    H211455   7.489   1.271   2.407
 3838TIP3   OH211456   5.219   5.476   3.648
 3838TIP3    H111457   5.306   5.514   3.649
 3838TIP3    H211458   5.171   5.523   3.716
 3839TIP3   OH211459   7.157   6.898   1.861
 3839TIP3    H111460   7.194   6.894   1.773
 3839TIP3    H211461   7.113   6.814   1.872
 3840TIP3   OH211462   7.936   6.069   0.523
 3840TIP3    H111463   7.850   6.081   0.562
 3840TIP3    H211464   7.997   6.092   0.593
 3841TIP3   OH211465   1.206   2.295   3.740
 3841TIP3    H111466   1.266   2.323   3.671
 3841TIP3    H211467   1.206   2.367   3.803
 3842TIP3   OH211468   7.546   4.648   3.231
 3842TIP3    H111469   7.486   4.664   3.158
 3842TIP3    H211470   7.632   4.641   3.191
 3843TIP3   OH211471   0.448   5.604   4.898
 3843TIP3    H111472   0.530   5.565   4.927
 3843TIP3    H211473   0.440   5.684   4.950
 3844TIP3   OH211474   6.137   7.408   4.083
 3844TIP3    H111475   6.179   7.473   4.139
 3844TIP3    H211476   6.044   7.431   4.086
 3845TIP3   OH211477   5.162   4.588   0.572
 3845TIP3    H111478   5.252   4.565   0.548
 3845TIP3    H211479   5.170   4.620   0.662
 3846TIP3   OH211480   4.696   5.206   0.338
 3846TIP3    H111481   4.771   5.198   0.397
 3846TIP3    H211482   4.661   5.293   0.356
 3847TIP3   OH211483   7.826   2.055   0.569
 3847TIP3    H111484   7.761   2.124   0.586
 3847TIP3    H211485   7.889   2.096   0.511
 3848TIP3   OH211486   0.993   2.246   2.393
 3848TIP3    H111487   0.962   2.156   2.390
 3848TIP3    H211488   1.086   2.239   2.413
 3849TIP3   OH211489   6.460   3.532   4.107
 3849TIP3    H111490   6.520   3.491   4.168
 3849TIP3    H211491   6.466   3.626   4.125
 3850TIP3   OH211492   7.813   3.311   4.733
 3850TIP3    H111493   7.809   3.280   4.643
 3850TIP3    H211494   7.723   3.335   4.754
 3851TIP3   OH211495   8.007   5.183   4.188
 3851TIP3    H111496   8.010   5.153   4.097
 3851TIP3    H211497   7.975   5.273   4.182
 3852TIP3   OH211498   7.670   7.623   4.087
 3852TIP3    H111499   7.579   7.611   4.061
 3852TIP3    H211500   7.679   7.574   4.168
 3853TIP3   OH211501   5.343   7.416   5.111
 3853TIP3    H111502   5.307   7.420   5.200
 3853TIP3    H211503   5.431   7.380   5.124
 3854TIP3   OH211504   1.616   6.426   4.348
 3854TIP3    H111505   1.626   6.448   4.441
 3854TIP3    H211506   1.606   6.511   4.305
 3855TIP3   OH211507   0.737   0.667   2.252
 3855TIP3    H111508   0.670   0.671   2.184
 3855TIP3    H211509   0.759   0.758   2.270
 3856TIP3   OH211510   2.035   1.754   3.475
 3856TIP3    H111511   1.981   1.788   3.403
 3856TIP3    H211512   1.994   1.789   3.554
 3857TIP3   OH211513   5.163   1.172   2.061
 3857TIP3    H111514   5.245   1.161   2.013
 3857TIP3    H211515   5.102   1.110   2.020
 3858TIP3   OH211516   5.483   6.510   4.153
 3858TIP3    H111517   5.501   6.604   4.155
 3858TIP3    H211518   5.388   6.504   4.149
 3859TIP3   OH211519   1.919   2.514   4.159
 3859TIP3    H111520   1.854   2.567   4.113
 3859TIP3    H211521   1.873   2.481   4.236
 3860TIP3   OH211522   1.996   1.637   5.903
 3860TIP3    H111523   2.089   1.643   5.924
 3860TIP3    H211524   1.952   1.634   5.989
 3861TIP3   OH211525   6.660   3.470   3.661
 3861TIP3    H111526   6.589   3.490   3.600
 3861TIP3    H211527   6.659   3.542   3.724
 3862TIP3   OH211528   6.799   0.719   6.744
 3862TIP3    H111529   6.713   0.710   6.785
 3862TIP3    H211530   6.851   0.649   6.783
 3863TIP3   OH211531   0.997   2.986   0.076
 3863TIP3    H111532   1.036   2.918   0.021
 3863TIP3    H211533   1.044   2.981   0.159
 3864TIP3   OH211534   3.072   0.240   2.834
 3864TIP3    H111535   2.983   0.258   2.805
 3864TIP3    H211536   3.125   0.251   2.755
 3865TIP3   OH211537   8.018   0.130   0.240
 3865TIP3    H111538   7.958   0.083   0.297
 3865TIP3    H211539   8.104   0.121   0.282
 3866TIP3   OH211540   1.535   1.740   2.253
 3866TIP3    H111541   1.489   1.809   2.207
 3866TIP3    H211542   1.498   1.741   2.342
 3867TIP3   OH211543   0.974   0.623   1.702
 3867TIP3    H111544   0.894   0.591   1.743
 3867TIP3    H211545   1.036   0.550   1.710
 3868TIP3   OH211546   6.660   2.323   5.245
 3868TIP3    H111547   6.677   2.416   5.260
 3868TIP3    H211548   6.738   2.279   5.279
 3869TIP3   OH211549   0.130   4.116   4.583
 3869TIP3    H111550   0.195   4.047   4.570
 3869TIP3    H211551   0.109   4.146   4.494
 3870TIP3   OH211552   6.088   5.069   1.430
 3870TIP3    H111553   6.057   5.000   1.370
 3870TIP3    H211554   6.073   5.151   1.381
 3871TIP3   OH211555   3.808   0.072   5.415
 3871TIP3    H111556   3.774  -0.017   5.418
 3871TIP3    H211557   3.760   0.118   5.484
 3872TIP3   OH211558   0.459   6.056   0.827
 3872TIP3    H111559   0.551   6.041   0.804
 3872TIP3    H211560   0.455   6.040   0.921
 3873TIP3   OH211561   2.262   7.187   0.107
 3873TIP3    H111562   2.329   7.187   0.038
 3873TIP3    H211563   2.312   7.183   0.189
 3874TIP3   OH211564   2.002   1.053   1.242
 3874TIP3    H111565   1.940   1.110   1.196
 3874TIP3    H211566   1.955   1.022   1.319
 3875TIP3   OH211567   3.350   1.020   3.815
 3875TIP3    H111568   3.267   0.986   3.781
 3875TIP3    H211569   3.327   1.101   3.860
 3876TIP3   OH211570   2.079   3.086   3.739
 3876TIP3    H111571   2.064   3.001   3.697
 3876TIP3    H211572   2.010   3.142   3.704
 3877TIP3   OH211573   2.184   0.844   1.081
 3877TIP3    H111574   2.171   0.877   0.992
 3877TIP3    H211575   2.164   0.919   1.137
 3878TIP3   OH211576   1.913   2.184   6.705
 3878TIP3    H111577   1.994   2.135   6.693
 3878TIP3    H211578   1.862   2.168   6.625
 3879TIP3   OH211579   4.477   3.710   3.938
 3879TIP3    H111580   4.407   3.664   3.984
 3879TIP3    H211581   4.436   3.790   3.905
 3880TIP3   OH211582   6.184   0.412   2.218
 3880TIP3    H111583   6.092   0.437   2.210
 3880TIP3    H211584   6.221   0.474   2.280
 3881TIP3   OH211585   7.948   5.901   4.407
 3881TIP3    H111586   7.925   5.836   4.341
 3881TIP3    H211587   7.865   5.941   4.432
 3882TIP3   OH211588   3.125   4.672   3.662
 3882TIP3    H111589   3.101   4.759   3.694
 3882TIP3    H211590   3.202   4.648   3.712
 3883TIP3   OH211591   2.255   2.948   5.464
 3883TIP3    H111592   2.299   2.996   5.394
 3883TIP3    H211593   2.322   2.889   5.499
 3884TIP3   OH211594   7.368   7.009   6.298
 3884TIP3    H111595   7.292   7.061   6.270
 3884TIP3    H211596   7.348   6.920   6.270
 3885TIP3   OH211597   5.526   2.805   6.252
 3885TIP3    H111598   5.510   2.897   6.235
 3885TIP3    H211599   5.444   2.772   6.287
 3886TIP3   OH211600   5.749   2.093   5.669
 3886TIP3    H111601   5.691   2.089   5.745
 3886TIP3    H211602   5.707   2.154   5.609
 3887TIP3   OH211603   1.325   1.320   5.594
 3887TIP3    H111604   1.291   1.252   5.536
 3887TIP3    H211605   1.327   1.399   5.540
 3888TIP3   OH211606   7.002   1.739   0.987
 3888TIP3    H111607   6.944   1.773   0.919
 3888TIP3    H211608   7.025   1.651   0.957
 3889TIP3   OH211609   2.239   4.131   1.314
 3889TIP3    H111610   2.147   4.148   1.336
 3889TIP3    H211611   2.253   4.040   1.342
 3890TIP3   OH211612   1.013   7.391   6.304
 3890TIP3    H111613   1.062   7.349   6.376
 3890TIP3    H211614   0.960   7.458   6.348
 3891TIP3   OH211615   8.275   6.015   6.546
 3891TIP3    H111616   8.244   5.931   6.580
 3891TIP3    H211617   8.237   6.022   6.459
 3892TIP3   OH211618   2.290   3.959   3.990
 3892TIP3    H111619   2.275   4.054   3.991
 3892TIP3    H211620   2.231   3.926   3.923
 3893TIP3   OH211621   0.377   4.599   5.014
 3893TIP3    H111622   0.290   4.572   5.043
 3893TIP3    H211623   0.402   4.534   4.948
 3894TIP3   OH211624   0.668   1.249   0.804
 3894TIP3    H111625   0.635   1.335   0.777
 3894TIP3    H211626   0.592   1.191   0.796
 3895TIP3   OH211627   2.375   6.238   0.375
 3895TIP3    H111628   2.298   6.248   0.318
 3895TIP3    H211629   2.449   6.237   0.315
 3896TIP3   OH211630   3.509   7.148   4.683
 3896TIP3    H111631   3.560   7.076   4.719
 3896TIP3    H211632   3.463   7.185   4.758
 3897TIP3   OH211633   3.618   3.566   3.725
 3897TIP3    H111634   3.605   3.572   3.820
 3897TIP3    H211635   3.711   3.587   3.712
 3898TIP3   OH211636   7.963   3.813   6.612
 3898TIP3    H111637   8.041   3.798   6.559
 3898TIP3    H211638   7.972   3.903   6.644
 3899TIP3   OH211639   4.370   6.597   1.989
 3899TIP3    H111640   4.384   6.670   1.928
 3899TIP3    H211641   4.395   6.631   2.074
 3900TIP3   OH211642   6.958   5.574   1.472
 3900TIP3    H111643   6.952   5.495   1.524
 3900TIP3    H211644   6.981   5.543   1.384
 3901TIP3   OH211645   0.802   4.894   5.920
 3901TIP3    H111646   0.723   4.866   5.964
 3901TIP3    H211647   0.873   4.858   5.972
 3902TIP3   OH211648   5.007   5.995   3.132
 3902TIP3    H111649   5.026   6.055   3.059
 3902TIP3    H211650   5.059   5.917   3.112
 3903TIP3   OH211651   7.054   2.432   4.033
 3903TIP3    H111652   7.064   2.462   4.123
 3903TIP3    H211653   6.962   2.446   4.013
 3904TIP3   OH211654   0.242   2.214   0.538
 3904TIP3    H111655   0.236   2.161   0.617
 3904TIP3    H211656   0.324   2.186   0.497
 3905TIP3   OH211657   4.027   4.938   6.314
 3905TIP3    H111658   4.100   4.989   6.281
 3905TIP3    H211659   4.043   4.849   6.284
 3906TIP3   OH211660   7.370   5.312   0.504
 3906TIP3    H111661   7.321   5.394   0.507
 3906TIP3    H211662   7.384   5.296   0.411
 3907TIP3   OH211663   1.339   7.097   6.661
 3907TIP3    H111664   1.418   7.088   6.715
 3907TIP3    H211665   1.333   7.190   6.643
 3908TIP3   OH211666   4.165   3.648   3.155
 3908TIP3    H111667   4.086   3.695   3.128
 3908TIP3    H211668   4.237   3.701   3.121
 3909TIP3   OH211669   2.978   3.627   1.861
 3909TIP3    H111670   3.049   3.576   1.902
 3909TIP3    H211671   3.005   3.636   1.770
 3910TIP3   OH211672   5.913   7.702   3.391
 3910TIP3    H111673   5.879   7.698   3.480
 3910TIP3    H211674   5.978   7.772   3.393
 3911TIP3   OH211675   5.152   1.026   2.878
 3911TIP3    H111676   5.061   0.999   2.891
 3911TIP3    H211677   5.189   0.958   2.823
 3912TIP3   OH211678   3.084   4.321   3.989
 3912TIP3    H111679   3.118   4.242   4.031
 3912TIP3    H211680   3.129   4.393   4.033
 3913TIP3   OH211681   4.204   4.311   4.007
 3913TIP3    H111682   4.137   4.307   3.938
 3913TIP3    H211683   4.242   4.223   4.008
 3914TIP3   OH211684   1.320   1.429   3.522
 3914TIP3    H111685   1.331   1.352   3.577
 3914TIP3    H211686   1.325   1.503   3.584
 3915TIP3   OH211687   3.196   1.896   4.972
 3915TIP3    H111688   3.106   1.890   5.003
 3915TIP3    H211689   3.187   1.908   4.877
 3916TIP3   OH211690   4.782   2.972   0.929
 3916TIP3    H111691   4.738   2.964   1.013
 3916TIP3    H211692   4.869   2.936   0.944
 3917TIP3   OH211693   2.955   2.668   2.467
 3917TIP3    H111694   2.951   2.626   2.553
 3917TIP3    H211695   3.027   2.731   2.474
 3918TIP3   OH211696   4.332   0.830   5.257
 3918TIP3    H111697   4.359   0.754   5.309
 3918TIP3    H211698   4.340   0.801   5.166
 3919TIP3   OH211699   5.212   1.458   4.370
 3919TIP3    H111700   5.189   1.371   4.403
 3919TIP3    H211701   5.199   1.453   4.275
 3920TIP3   OH211702   6.957   5.270   4.962
 3920TIP3    H111703   7.041   5.248   5.003
 3920TIP3    H211704   6.978   5.281   4.869
 3921TIP3   OH211705   1.532   5.051   3.422
 3921TIP3    H111706   1.509   5.143   3.438
 3921TIP3    H211707   1.627   5.048   3.426
 3922TIP3   OH211708   5.008   3.268   0.150
 3922TIP3    H111709   4.988   3.330   0.221
 3922TIP3    H211710   5.083   3.306   0.105
 3923TIP3   OH211711   6.214   6.029   0.672
 3923TIP3    H111712   6.230   5.935   0.661
 3923TIP3    H211713   6.301   6.069   0.665
 3924TIP3   OH211714   5.179   4.360   1.641
 3924TIP3    H111715   5.132   4.285   1.677
 3924TIP3    H211716   5.245   4.322   1.583
 3925TIP3   OH211717   3.323   6.654   4.964
 3925TIP3    H111718   3.388   6.604   5.012
 3925TIP3    H211719   3.245   6.598   4.964
 3926TIP3   OH211720   4.160   5.037   3.562
 3926TIP3    H111721   4.078   5.040   3.513
 3926TIP3    H211722   4.169   4.946   3.589
 3927TIP3   OH211723   5.166   5.488   2.828
 3927TIP3    H111724   5.239   5.476   2.768
 3927TIP3    H211725   5.204   5.532   2.904
 3928TIP3   OH211726   1.000   7.351   1.799
 3928TIP3    H111727   1.081   7.305   1.819
 3928TIP3    H211728   0.986   7.409   1.873
 3929TIP3   OH211729   7.838   7.278   6.595
 3929TIP3    H111730   7.749   7.275   6.629
 3929TIP3    H211731   7.834   7.343   6.524
 3930TIP3   OH211732   2.932   2.469   4.702
 3930TIP3    H111733   2.900   2.388   4.743
 3930TIP3    H211734   2.888   2.539   4.751
 3931TIP3   OH211735   1.097   0.775   0.651
 3931TIP3    H111736   1.170   0.769   0.589
 3931TIP3    H211737   1.062   0.863   0.639
 3932TIP3   OH211738   7.370   6.342   2.758
 3932TIP3    H111739   7.286   6.353   2.803
 3932TIP3    H211740   7.362   6.257   2.714
 3933TIP3   OH211741   3.801   2.534   6.607
 3933TIP3    H111742   3.805   2.630   6.598
 3933TIP3    H211743   3.708   2.515   6.614
 3934TIP3   OH211744   3.555   3.318   2.078
 3934TIP3    H111745   3.541   3.246   2.139
 3934TIP3    H211746   3.478   3.374   2.089
 3935TIP3   OH211747   4.452   5.900   3.588
 3935TIP3    H111748   4.400   5.965   3.636
 3935TIP3    H211749   4.522   5.951   3.548
 3936TIP3   OH211750   5.624   0.422   5.460
 3936TIP3    H111751   5.689   0.432   5.391
 3936TIP3    H211752   5.541   0.410   5.413
 3937TIP3   OH211753   5.007   6.441   5.124
 3937TIP3    H111754   5.037   6.508   5.185
 3937TIP3    H211755   5.014   6.359   5.173
 3938TIP3   OH211756   5.380   4.044   3.759
 3938TIP3    H111757   5.302   4.012   3.804
 3938TIP3    H211758   5.381   4.138   3.777
 3939TIP3   OH211759   7.366   6.316   0.854
 3939TIP3    H111760   7.291   6.282   0.902
 3939TIP3    H211761   7.388   6.398   0.897
 3940TIP3   OH211762   2.697   2.436   3.501
 3940TIP3    H111763   2.605   2.420   3.481
 3940TIP3    H211764   2.719   2.373   3.569
 3941TIP3   OH211765   1.177   0.406   5.207
 3941TIP3    H111766   1.205   0.405   5.298
 3941TIP3    H211767   1.168   0.314   5.183
 3942TIP3   OH211768   8.147   4.875   4.091
 3942TIP3    H111769   8.121   4.957   4.047
 3942TIP3    H211770   8.227   4.848   4.045
 3943TIP3   OH211771   7.767   5.683   4.550
 3943TIP3    H111772   7.820   5.613   4.510
 3943TIP3    H211773   7.823   5.719   4.619
 3944TIP3   OH211774   3.762   7.776   0.319
 3944TIP3    H111775   3.695   7.734   0.264
 3944TIP3    H211776   3.712   7.824   0.384
 3945TIP3   OH211777   8.202   1.473   2.606
 3945TIP3    H111778   8.264   1.499   2.537
 3945TIP3    H211779   8.257   1.432   2.673
 3946TIP3   OH211780   4.899   5.621   0.190
 3946TIP3    H111781   4.936   5.634   0.277
 3946TIP3    H211782   4.809   5.650   0.197
 3947TIP3   OH211783   4.945   5.281   0.004
 3947TIP3    H111784   4.996   5.309   0.080
 3947TIP3    H211785   4.897   5.360  -0.022
 3948TIP3   OH211786   6.191   2.583   4.628
 3948TIP3    H111787   6.282   2.563   4.609
 3948TIP3    H211788   6.148   2.497   4.633
 3949TIP3   OH211789   2.749   0.359   0.830
 3949TIP3    H111790   2.751   0.445   0.874
 3949TIP3    H211791   2.705   0.302   0.892
 3950TIP3   OH211792  -0.006   6.789   3.187
 3950TIP3    H111793   0.083   6.824   3.184
 3950TIP3    H211794  -0.011   6.729   3.113
 3951TIP3   OH211795   2.651   2.812   1.209
 3951TIP3    H111796   2.645   2.888   1.151
 3951TIP3    H211797   2.707   2.751   1.161
 3952TIP3   OH211798   0.912   3.392   3.250
 3952TIP3    H111799   0.892   3.392   3.344
 3952TIP3    H211800   0.828   3.409   3.207
 3953TIP3   OH211801   4.294   3.143   0.174
 3953TIP3    H111802   4.384   3.131   0.206
 3953TIP3    H211803   4.283   3.238   0.169
 3954TIP3   OH211804   1.619   0.290   0.632
 3954TIP3    H111805   1.627   0.345   0.710
 3954TIP3    H211806   1.658   0.343   0.562
 3955TIP3   OH211807   0.547   6.246   3.497
 3955TIP3    H111808   0.531   6.307   3.426
 3955TIP3    H211809   0.557   6.301   3.575
 3956TIP3   OH211810   0.238   4.666   4.678
 3956TIP3    H111811   0.324   4.685   4.640
 3956TIP3    H211812   0.207   4.590   4.628
 3957TIP3   OH211813   4.864   4.311   2.136
 3957TIP3    H111814   4.880   4.371   2.208
 3957TIP3    H211815   4.777   4.334   2.104
 3958TIP3   OH211816   4.164   6.242   0.481
 3958TIP3    H111817   4.222   6.196   0.541
 3958TIP3    H211818   4.223   6.288   0.421
 3959TIP3   OH211819   4.084   6.369   1.678
 3959TIP3    H111820   4.149   6.424   1.633
 3959TIP3    H211821   4.014   6.429   1.703
 3960TIP3   OH211822   2.994   7.579   2.132
 3960TIP3    H111823   3.040   7.498   2.108
 3960TIP3    H211824   2.912   7.549   2.171
 3961TIP3   OH211825   5.995   6.860   1.073
 3961TIP3    H111826   5.951   6.942   1.053
 3961TIP3    H211827   6.088   6.879   1.061
 3962TIP3   OH211828   2.416   0.393   0.424
 3962TIP3    H111829   2.495   0.412   0.374
 3962TIP3    H211830   2.391   0.478   0.462
 3963TIP3   OH211831   1.741   3.427   5.370
 3963TIP3    H111832   1.747   3.427   5.465
 3963TIP3    H211833   1.759   3.518   5.345
 3964TIP3   OH211834   0.473   0.966   4.847
 3964TIP3    H111835   0.417   0.896   4.880
 3964TIP3    H211836   0.438   1.046   4.884
 3965TIP3   OH211837   3.040   4.901   0.295
 3965TIP3    H111838   3.065   4.943   0.377
 3965TIP3    H211839   2.982   4.829   0.321
 3966TIP3   OH211840   2.913   7.569   0.898
 3966TIP3    H111841   2.919   7.664   0.889
 3966TIP3    H211842   2.825   7.547   0.868
 3967TIP3   OH211843   4.944   6.812   3.145
 3967TIP3    H111844   5.003   6.830   3.219
 3967TIP3    H211845   4.896   6.894   3.132
 3968TIP3   OH211846   4.432   2.112   6.104
 3968TIP3    H111847   4.389   2.179   6.050
 3968TIP3    H211848   4.381   2.033   6.088
 3969TIP3   OH211849   1.194   0.981   3.573
 3969TIP3    H111850   1.234   0.920   3.635
 3969TIP3    H211851   1.123   1.022   3.622
 3970TIP3   OH211852   5.896   2.318   5.465
 3970TIP3    H111853   5.922   2.346   5.553
 3970TIP3    H211854   5.969   2.263   5.435
 3971TIP3   OH211855   7.737   4.315   1.631
 3971TIP3    H111856   7.673   4.383   1.607
 3971TIP3    H211857   7.737   4.255   1.556
 3972TIP3   OH211858   0.638   3.547   3.829
 3972TIP3    H111859   0.606   3.637   3.820
 3972TIP3    H211860   0.560   3.497   3.854
 3973TIP3   OH211861   6.632   3.202   3.735
 3973TIP3    H111862   6.722   3.168   3.740
 3973TIP3    H211863   6.639   3.280   3.679
 3974TIP3   OH211864   5.568   2.767   0.666
 3974TIP3    H111865   5.605   2.800   0.584
 3974TIP3    H211866   5.540   2.678   0.645
 3975TIP3   OH211867   5.435   0.792   4.463
 3975TIP3    H111868   5.521   0.835   4.462
 3975TIP3    H211869   5.452   0.703   4.434
 3976TIP3   OH211870   3.751   3.219   4.130
 3976TIP3    H111871   3.823   3.181   4.080
 3976TIP3    H211872   3.735   3.304   4.089
 3977TIP3   OH211873   7.044   4.663   1.661
 3977TIP3    H111874   6.970   4.606   1.683
 3977TIP3    H211875   7.007   4.733   1.608
 3978TIP3   OH211876   0.688   5.393   6.142
 3978TIP3    H111877   0.678   5.325   6.075
 3978TIP3    H211878   0.605   5.391   6.190
 3979TIP3   OH211879   3.636   2.256   5.483
 3979TIP3    H111880   3.691   2.330   5.461
 3979TIP3    H211881   3.660   2.188   5.419
 3980TIP3   OH211882   0.084   1.952   4.370
 3980TIP3    H111883   0.162   1.950   4.316
 3980TIP3    H211884   0.040   2.034   4.345
 3981TIP3   OH211885   4.226   6.316   0.960
 3981TIP3    H111886   4.197   6.301   1.050
 3981TIP3    H211887   4.321   6.321   0.965
 3982TIP3   OH211888   0.174   7.455   4.294
 3982TIP3    H111889   0.252   7.422   4.249
 3982TIP3    H211890   0.145   7.383   4.349
 3983TIP3   OH211891   2.959   4.782   2.603
 3983TIP3    H111892   2.977   4.744   2.517
 3983TIP3    H211893   2.967   4.876   2.589
 3984TIP3   OH211894   0.430   2.962   6.226
 3984TIP3    H111895   0.424   2.915   6.143
 3984TIP3    H211896   0.389   3.047   6.210
 3985TIP3   OH211897   1.827   5.291   4.321
 3985TIP3    H111898   1.899   5.240   4.284
 3985TIP3    H211899   1.776   5.319   4.246
 3986TIP3   OH211900   3.546   2.739   1.020
 3986TIP3    H111901   3.582   2.811   1.072
 3986TIP3    H211902   3.595   2.742   0.938
 3987TIP3   OH211903   1.783   1.540   6.642
 3987TIP3    H111904   1.791   1.498   6.728
 3987TIP3    H211905   1.873   1.552   6.612
 3988TIP3   OH211906   5.175   3.636   0.953
 3988TIP3    H111907   5.105   3.686   0.910
 3988TIP3    H211908   5.161   3.650   1.046
 3989TIP3   OH211909   2.490   1.050   3.903
 3989TIP3    H111910   2.497   1.101   3.822
 3989TIP3    H211911   2.469   1.115   3.970
 3990TIP3   OH211912   1.487   5.460   6.285
 3990TIP3    H111913   1.529   5.542   6.261
 3990TIP3    H211914   1.421   5.485   6.350
 3991TIP3   OH211915   1.266   6.266   2.529
 3991TIP3    H111916   1.223   6.191   2.488
 3991TIP3    H211917   1.316   6.228   2.602
 3992TIP3   OH211918   3.282   3.744   0.984
 3992TIP3    H111919   3.207   3.786   1.025
 3992TIP3    H211920   3.244   3.677   0.927
 3993TIP3   OH211921   1.952   0.854   1.500
 3993TIP3    H111922   1.902   0.784   1.542
 3993TIP3    H211923   1.915   0.935   1.535
 3994TIP3   OH211924   7.949   3.143   6.625
 3994TIP3    H111925   8.007   3.079   6.666
 3994TIP3    H211926   7.923   3.103   6.542
 3995TIP3   OH211927   7.907   4.816   2.291
 3995TIP3    H111928   7.846   4.881   2.255
 3995TIP3    H211929   7.918   4.753   2.220
 3996TIP3   OH211930   4.955   2.928   2.591
 3996TIP3    H111931   4.903   2.869   2.646
 3996TIP3    H211932   4.965   3.007   2.645
 3997TIP3   OH211933   2.815   2.503   0.689
 3997TIP3    H111934   2.840   2.418   0.652
 3997TIP3    H211935   2.814   2.488   0.784
 3998TIP3   OH211936   3.930   7.094   4.161
 3998TIP3    H111937   3.964   7.005   4.177
 3998TIP3    H211938   3.908   7.127   4.248
 3999TIP3   OH211939   1.703   1.141   5.058
 3999TIP3    H111940   1.644   1.200   5.011
 3999TIP3    H211941   1.743   1.196   5.125
 4000TIP3   OH211942   1.920   3.771   6.611
 4000TIP3    H111943   1.919   3.682   6.646
 4000TIP3    H211944   1.947   3.826   6.685
 4001TIP3   OH211945   2.422   4.212   1.708
 4001TIP3    H111946   2.333   4.185   1.687
 4001TIP3    H211947   2.477   4.163   1.646
 4002TIP3   OH211948   7.536   3.570   4.409
 4002TIP3    H111949   7.519   3.483   4.445
 4002TIP3    H211950   7.454   3.597   4.368
 4003TIP3   OH211951   1.141   7.750   6.038
 4003TIP3    H111952   1.106   7.674   5.992
 4003TIP3    H211953   1.072   7.816   6.034
 4004TIP3   OH211954   0.982   3.891   2.193
 4004TIP3    H111955   0.944   3.977   2.180
 4004TIP3    H211956   0.949   3.838   2.120
 4005TIP3   OH211957   8.283   0.913   0.693
 4005TIP3    H111958   8.274   0.929   0.787
 4005TIP3    H211959   8.207   0.957   0.654
 4006TIP3   OH211960   1.503   3.779   2.005
 4006TIP3    H111961   1.471   3.869   1.997
 4006TIP3    H211962   1.586   3.778   1.958
 4007TIP3   OH211963   4.121   0.994   2.966
 4007TIP3    H111964   4.084   0.921   2.917
 4007TIP3    H211965   4.086   1.073   2.923
 4008TIP3   OH211966   1.555   4.341   2.772
 4008TIP3    H111967   1.563   4.300   2.686
 4008TIP3    H211968   1.562   4.269   2.834
 4009TIP3   OH211969   7.862   1.540   0.719
 4009TIP3    H111970   7.843   1.463   0.772
 4009TIP3    H211971   7.951   1.565   0.743
 4010TIP3   OH211972   1.821   6.848   0.459
 4010TIP3    H111973   1.824   6.773   0.400
 4010TIP3    H211974   1.808   6.923   0.401
 4011TIP3   OH211975   4.127   1.881   0.154
 4011TIP3    H111976   4.180   1.961   0.157
 4011TIP3    H211977   4.092   1.878   0.065
 4012TIP3   OH211978   2.974   0.602   3.408
 4012TIP3    H111979   2.923   0.626   3.330
 4012TIP3    H211980   3.020   0.682   3.433
 4013TIP3   OH211981   2.971   0.592   0.927
 4013TIP3    H111982   2.970   0.609   1.021
 4013TIP3    H211983   2.890   0.633   0.895
 4014TIP3   OH211984   8.183   1.798   4.021
 4014TIP3    H111985   8.189   1.748   3.940
 4014TIP3    H211986   8.251   1.865   4.013
 4015TIP3   OH211987   0.732   4.228   1.775
 4015TIP3    H111988   0.638   4.238   1.787
 4015TIP3    H211989   0.745   4.227   1.680
 4016TIP3   OH211990   4.867   0.321   3.470
 4016TIP3    H111991   4.813   0.294   3.544
 4016TIP3    H211992   4.923   0.245   3.452
 4017TIP3   OH211993   7.159   6.225   0.995
 4017TIP3    H111994   7.103   6.188   0.927
 4017TIP3    H211995   7.109   6.216   1.076
 4018TIP3   OH211996   0.934   3.630   3.086
 4018TIP3    H111997   0.943   3.544   3.128
 4018TIP3    H211998   1.009   3.635   3.026
 4019TIP3   OH211999   7.189   1.053   6.273
 4019TIP3    H112000   7.160   1.017   6.357
 4019TIP3    H212001   7.140   1.003   6.207
 4020TIP3   OH212002   7.605   6.589   5.156
 4020TIP3    H112003   7.660   6.578   5.078
 4020TIP3    H212004   7.516   6.598   5.121
 4021TIP3   OH212005   7.655   3.861   3.748
 4021TIP3    H112006   7.703   3.780   3.731
 4021TIP3    H212007   7.700   3.901   3.822
 4022TIP3   OH212008   1.450   5.171   3.869
 4022TIP3    H112009   1.413   5.260   3.871
 4022TIP3    H212010   1.386   5.118   3.917
 4023TIP3   OH212011   0.491   0.885   4.192
 4023TIP3    H112012   0.521   0.875   4.102
 4023TIP3    H212013   0.570   0.897   4.244
 4024TIP3   OH212014   6.242   4.450   6.233
 4024TIP3    H112015   6.330   4.415   6.248
 4024TIP3    H212016   6.214   4.412   6.150
 4025TIP3   OH212017   6.204   3.518   4.717
 4025TIP3    H112018   6.265   3.445   4.705
 4025TIP3    H212019   6.178   3.542   4.628
 4026TIP3   OH212020   6.487   5.012   3.896
 4026TIP3    H112021   6.443   5.034   3.814
 4026TIP3    H212022   6.432   4.943   3.934
 4027TIP3   OH212023   4.092   1.281   2.530
 4027TIP3    H112024   4.121   1.311   2.444
 4027TIP3    H212025   4.131   1.343   2.591
 4028TIP3   OH212026   1.337   6.504   6.383
 4028TIP3    H112027   1.411   6.561   6.363
 4028TIP3    H212028   1.333   6.503   6.479
 4029TIP3   OH212029   6.138   7.238   2.284
 4029TIP3    H112030   6.088   7.256   2.363
 4029TIP3    H212031   6.229   7.245   2.311
 4030TIP3   OH212032   1.430   5.188   4.661
 4030TIP3    H112033   1.377   5.186   4.582
 4030TIP3    H212034   1.505   5.244   4.639
 4031TIP3   OH212035   4.090   2.184   0.598
 4031TIP3    H112036   4.109   2.091   0.614
 4031TIP3    H212037   4.091   2.224   0.684
 4032TIP3   OH212038   5.502   1.461   4.375
 4032TIP3    H112039   5.420   1.489   4.335
 4032TIP3    H212040   5.479   1.443   4.467
 4033TIP3   OH212041   7.703   0.718   0.692
 4033TIP3    H112042   7.793   0.722   0.725
 4033TIP3    H212043   7.709   0.664   0.613
 4034TIP3   OH212044   1.655   0.335   4.599
 4034TIP3    H112045   1.711   0.281   4.655
 4034TIP3    H212046   1.677   0.425   4.622
 4035TIP3   OH212047   3.128   4.645   1.898
 4035TIP3    H112048   3.147   4.722   1.844
 4035TIP3    H212049   3.212   4.600   1.906
 4036TIP3   OH212050   7.795   0.281   1.833
 4036TIP3    H112051   7.749   0.228   1.897
 4036TIP3    H212052   7.761   0.370   1.845
 4037TIP3   OH212053   0.775   1.468   2.172
 4037TIP3    H112054   0.718   1.502   2.242
 4037TIP3    H212055   0.717   1.417   2.116
 4038TIP3   OH212056   2.731   1.510   6.770
 4038TIP3    H112057   2.778   1.592   6.784
 4038TIP3    H212058   2.764   1.478   6.686
 4039TIP3   OH212059   0.533   0.579   2.041
 4039TIP3    H112060   0.518   0.515   2.110
 4039TIP3    H212061   0.457   0.571   1.983
 4040TIP3   OH212062   2.710   5.737   4.996
 4040TIP3    H112063   2.765   5.801   4.952
 4040TIP3    H212064   2.687   5.673   4.928
 4041TIP3   OH212065   6.475   5.340   0.056
 4041TIP3    H112066   6.384   5.362   0.075
 4041TIP3    H212067   6.477   5.245   0.056
 4042TIP3   OH212068   0.345   3.955   0.214
 4042TIP3    H112069   0.309   4.043   0.203
 4042TIP3    H212070   0.434   3.970   0.247
 4043TIP3   OH212071   2.340   4.151   4.843
 4043TIP3    H112072   2.401   4.084   4.812
 4043TIP3    H212073   2.292   4.178   4.765
 4044TIP3   OH212074   6.388   5.227   4.409
 4044TIP3    H112075   6.480   5.207   4.391
 4044TIP3    H212076   6.389   5.267   4.496
 4045TIP3   OH212077   3.992   5.809   2.177
 4045TIP3    H112078   4.023   5.812   2.086
 4045TIP3    H212079   4.070   5.782   2.227
 4046TIP3   OH212080   3.096   4.402   0.974
 4046TIP3    H112081   3.067   4.483   1.016
 4046TIP3    H212082   3.136   4.431   0.892
 4047TIP3   OH212083   1.607   1.026   5.292
 4047TIP3    H112084   1.650   1.056   5.211
 4047TIP3    H212085   1.676   1.031   5.358
 4048TIP3   OH212086   2.491   3.873   6.661
 4048TIP3    H112087   2.526   3.813   6.595
 4048TIP3    H212088   2.418   3.917   6.618
 4049TIP3   OH212089   7.596   6.318   2.600
 4049TIP3    H112090   7.517   6.331   2.652
 4049TIP3    H212091   7.580   6.237   2.552
 4050TIP3   OH212092   3.421   1.143   0.364
 4050TIP3    H112093   3.504   1.097   0.381
 4050TIP3    H212094   3.360   1.073   0.342
 4051TIP3   OH212095   5.482   6.257   5.081
 4051TIP3    H112096   5.551   6.321   5.065
 4051TIP3    H212097   5.446   6.238   4.994
 4052TIP3   OH212098   5.624   7.506   0.894
 4052TIP3    H112099   5.534   7.501   0.927
 4052TIP3    H212100   5.618   7.565   0.819
 4053TIP3   OH212101   1.937   2.502   0.156
 4053TIP3    H112102   1.958   2.438   0.223
 4053TIP3    H212103   1.974   2.584   0.188
 4054TIP3   OH212104   5.830   7.319   6.526
 4054TIP3    H112105   5.763   7.354   6.585
 4054TIP3    H212106   5.911   7.323   6.576
 4055TIP3   OH212107   7.993   5.558   3.389
 4055TIP3    H112108   7.956   5.480   3.347
 4055TIP3    H212109   8.067   5.582   3.334
 4056TIP3   OH212110   5.587   2.647   1.830
 4056TIP3    H112111   5.496   2.627   1.848
 4056TIP3    H212112   5.637   2.587   1.885
 4057TIP3   OH212113   4.192   5.975   0.041
 4057TIP3    H112114   4.099   5.970   0.019
 4057TIP3    H212115   4.200   6.057   0.090
 4058TIP3   OH212116   7.104   1.938   0.051
 4058TIP3    H112117   7.133   1.959   0.140
 4058TIP3    H212118   7.141   2.007  -0.004
 4059TIP3   OH212119   5.392   5.061   5.893
 4059TIP3    H112120   5.370   5.153   5.906
 4059TIP3    H212121   5.447   5.038   5.968
 4060TIP3   OH212122   8.152   2.463   6.575
 4060TIP3    H112123   8.162   2.383   6.523
 4060TIP3    H212124   8.124   2.433   6.662
 4061TIP3   OH212125   0.316   2.488   5.091
 4061TIP3    H112126   0.282   2.407   5.130
 4061TIP3    H212127   0.374   2.457   5.021
 4062TIP3   OH212128   5.305   2.717   4.718
 4062TIP3    H112129   5.344   2.671   4.644
 4062TIP3    H212130   5.224   2.753   4.684
 4063TIP3   OH212131   0.032   1.298   6.617
 4063TIP3    H112132   0.033   1.313   6.523
 4063TIP3    H212133   0.095   1.226   6.631
 4064TIP3   OH212134   1.451   6.608   5.216
 4064TIP3    H112135   1.366   6.651   5.223
 4064TIP3    H212136   1.493   6.624   5.301
 4065TIP3   OH212137   0.707   6.142   4.237
 4065TIP3    H112138   0.724   6.167   4.328
 4065TIP3    H212139   0.772   6.075   4.218
 4066TIP3   OH212140   0.463   1.889   3.782
 4066TIP3    H112141   0.538   1.903   3.723
 4066TIP3    H212142   0.503   1.881   3.869
 4067TIP3   OH212143   7.434   0.937   5.559
 4067TIP3    H112144   7.360   0.917   5.502
 4067TIP3    H212145   7.407   1.015   5.609
 4068TIP3   OH212146   0.517   4.578   0.061
 4068TIP3    H112147   0.492   4.670   0.057
 4068TIP3    H212148   0.553   4.558  -0.025
 4069TIP3   OH212149   0.987   4.269   6.191
 4069TIP3    H112150   0.931   4.205   6.145
 4069TIP3    H212151   1.074   4.254   6.154
 4070TIP3   OH212152   0.656   3.681   3.092
 4070TIP3    H112153   0.598   3.626   3.145
 4070TIP3    H212154   0.741   3.636   3.095
 4071TIP3   OH212155   7.990   0.410   2.081
 4071TIP3    H112156   7.979   0.505   2.091
 4071TIP3    H212157   7.902   0.375   2.088
 4072TIP3   OH212158   4.550   6.586   3.741
 4072TIP3    H112159   4.477   6.627   3.788
 4072TIP3    H212160   4.600   6.658   3.705
 4073TIP3   OH212161   7.905   6.823   3.296
 4073TIP3    H112162   7.873   6.783   3.377
 4073TIP3    H212163   7.988   6.863   3.320
 4074TIP3   OH212164   3.178   3.752   4.817
 4074TIP3    H112165   3.261   3.753   4.865
 4074TIP3    H212166   3.114   3.721   4.881
 4075TIP3   OH212167   1.267   5.507   1.182
 4075TIP3    H112168   1.252   5.448   1.108
 4075TIP3    H212169   1.216   5.585   1.160
 4076TIP3   OH212170   3.046   7.429   1.103
 4076TIP3    H112171   3.033   7.494   1.172
 4076TIP3    H212172   3.004   7.467   1.026
 4077TIP3   OH212173   5.039   7.575   0.449
 4077TIP3    H112174   5.089   7.523   0.511
 4077TIP3    H212175   5.022   7.515   0.376
 4078TIP3   OH212176   5.086   0.313   2.016
 4078TIP3    H112177   5.050   0.250   1.953
 4078TIP3    H212178   5.009   0.344   2.065
 4079TIP3   OH212179   8.163   3.564   3.351
 4079TIP3    H112180   8.088   3.616   3.381
 4079TIP3    H212181   8.136   3.473   3.365
 4080TIP3   OH212182   1.327   7.491   5.830
 4080TIP3    H112183   1.342   7.532   5.915
 4080TIP3    H212184   1.279   7.557   5.780
 4081TIP3   OH212185   1.766   5.060   4.846
 4081TIP3    H112186   1.740   4.971   4.825
 4081TIP3    H212187   1.728   5.113   4.776
 4082TIP3   OH212188   4.468   5.446   5.480
 4082TIP3    H112189   4.521   5.481   5.552
 4082TIP3    H212190   4.418   5.522   5.449
 4083TIP3   OH212191   0.466   1.982   2.495
 4083TIP3    H112192   0.440   1.937   2.415
 4083TIP3    H212193   0.488   1.912   2.557
 4084TIP3   OH212194   2.134   3.067   2.136
 4084TIP3    H112195   2.208   3.008   2.125
 4084TIP3    H212196   2.127   3.080   2.230
 4085TIP3   OH212197   2.839   4.846   5.736
 4085TIP3    H112198   2.833   4.941   5.736
 4085TIP3    H212199   2.792   4.819   5.815
 4086TIP3   OH212200   2.879   2.521   3.794
 4086TIP3    H112201   2.837   2.437   3.811
 4086TIP3    H212202   2.894   2.521   3.699
 4087TIP3   OH212203   0.677   0.191   4.827
 4087TIP3    H112204   0.737   0.244   4.879
 4087TIP3    H212205   0.609   0.163   4.888
 4088TIP3   OH212206   3.992   2.449   3.011
 4088TIP3    H112207   3.931   2.475   2.942
 4088TIP3    H212208   4.078   2.453   2.971
 4089TIP3   OH212209   5.122   1.456   2.703
 4089TIP3    H112210   5.163   1.396   2.640
 4089TIP3    H212211   5.029   1.452   2.682
 4090TIP3   OH212212   3.046   3.818   0.372
 4090TIP3    H112213   3.016   3.853   0.288
 4090TIP3    H212214   3.073   3.896   0.422
 4091TIP3   OH212215   2.398   4.478   0.420
 4091TIP3    H112216   2.353   4.454   0.339
 4091TIP3    H212217   2.464   4.410   0.431
 4092TIP3   OH212218   7.912   3.890   1.911
 4092TIP3    H112219   7.922   3.806   1.867
 4092TIP3    H212220   7.830   3.926   1.876
 4093TIP3   OH212221   6.407   5.876   1.878
 4093TIP3    H112222   6.353   5.900   1.953
 4093TIP3    H212223   6.492   5.916   1.896
 4094TIP3   OH212224   3.235   0.022   4.423
 4094TIP3    H112225   3.268   0.098   4.471
 4094TIP3    H212226   3.200  -0.036   4.490
 4095TIP3   OH212227   7.248   7.762   3.803
 4095TIP3    H112228   7.313   7.829   3.782
 4095TIP3    H212229   7.207   7.741   3.719
 4096TIP3   OH212230   6.253   0.732   2.674
 4096TIP3    H112231   6.259   0.767   2.763
 4096TIP3    H212232   6.327   0.772   2.627
 4097TIP3   OH212233   1.251   0.957   4.458
 4097TIP3    H112234   1.338   0.996   4.447
 4097TIP3    H212235   1.258   0.872   4.414
 4098TIP3   OH212236   2.817   0.662   4.080
 4098TIP3    H112237   2.762   0.741   4.081
 4098TIP3    H212238   2.764   0.596   4.036
 4099TIP3   OH212239   8.128   0.118   2.517
 4099TIP3    H112240   8.184   0.195   2.516
 4099TIP3    H212241   8.187   0.045   2.497
 4100TIP3   OH212242   2.258   4.424   6.717
 4100TIP3    H112243   2.164   4.424   6.700
 4100TIP3    H212244   2.273   4.344   6.768
 4101TIP3   OH212245   5.030   4.872   0.441
 4101TIP3    H112246   5.093   4.863   0.369
 4101TIP3    H212247   5.075   4.927   0.505
 4102TIP3   OH212248   0.133   4.671   5.159
 4102TIP3    H112249   0.114   4.728   5.084
 4102TIP3    H212250   0.065   4.692   5.223
 4103TIP3   OH212251   6.195   2.267   1.436
 4103TIP3    H112252   6.120   2.217   1.405
 4103TIP3    H212253   6.271   2.227   1.393
 4104TIP3   OH212254   4.033   2.149   6.239
 4104TIP3    H112255   3.995   2.206   6.307
 4104TIP3    H212256   4.071   2.076   6.288
 4105TIP3   OH212257   7.502   6.639   0.751
 4105TIP3    H112258   7.588   6.599   0.769
 4105TIP3    H212259   7.481   6.611   0.662
 4106TIP3   OH212260   5.483   5.067   4.468
 4106TIP3    H112261   5.531   5.138   4.510
 4106TIP3    H212262   5.391   5.086   4.487
 4107TIP3   OH212263   1.469   0.689   6.363
 4107TIP3    H112264   1.489   0.722   6.275
 4107TIP3    H212265   1.481   0.594   6.355
 4108TIP3   OH212266   0.546   3.995   1.555
 4108TIP3    H112267   0.640   3.978   1.558
 4108TIP3    H212268   0.522   4.019   1.645
 4109TIP3   OH212269   7.648   1.063   4.796
 4109TIP3    H112270   7.731   1.107   4.813
 4109TIP3    H212271   7.614   1.107   4.718
 4110TIP3   OH212272   7.927   6.626   2.045
 4110TIP3    H112273   8.012   6.666   2.063
 4110TIP3    H212274   7.944   6.532   2.046
 4111TIP3   OH212275   6.116   0.253   0.311
 4111TIP3    H112276   6.102   0.319   0.243
 4111TIP3    H212277   6.080   0.293   0.390
 4112TIP3   OH212278   5.211   5.939   5.937
 4112TIP3    H112279   5.165   5.935   6.021
 4112TIP3    H212280   5.207   5.849   5.903
 4113TIP3   OH212281   1.927   6.394   0.781
 4113TIP3    H112282   2.022   6.391   0.798
 4113TIP3    H212283   1.905   6.487   0.782
 4114TIP3   OH212284   2.722   5.122   3.221
 4114TIP3    H112285   2.685   5.116   3.134
 4114TIP3    H212286   2.779   5.200   3.218
 4115TIP3   OH212287   2.025   2.054   2.134
 4115TIP3    H112288   2.089   1.983   2.128
 4115TIP3    H212289   2.078   2.133   2.148
 4116TIP3   OH212290   6.068   2.176   3.134
 4116TIP3    H112291   6.062   2.266   3.166
 4116TIP3    H212292   6.018   2.125   3.198
 4117TIP3   OH212293   0.578   2.148   6.064
 4117TIP3    H112294   0.575   2.220   6.001
 4117TIP3    H212295   0.497   2.099   6.047
 4118TIP3   OH212296   4.724   2.042   6.540
 4118TIP3    H112297   4.677   2.009   6.616
 4118TIP3    H212298   4.801   2.087   6.577
 4119TIP3   OH212299   3.597   7.420   5.552
 4119TIP3    H112300   3.674   7.395   5.603
 4119TIP3    H212301   3.537   7.459   5.616
 4120TIP3   OH212302   3.282   4.868   5.281
 4120TIP3    H112303   3.346   4.885   5.213
 4120TIP3    H212304   3.201   4.907   5.249
 4121TIP3   OH212305   4.665   0.989   6.227
 4121TIP3    H112306   4.630   1.076   6.249
 4121TIP3    H212307   4.753   1.007   6.193
 4122TIP3   OH212308   2.833   5.134   5.023
 4122TIP3    H112309   2.792   5.050   5.005
 4122TIP3    H212310   2.784   5.170   5.097
 4123TIP3   OH212311   1.593   0.266   2.979
 4123TIP3    H112312   1.592   0.328   2.906
 4123TIP3    H212313   1.503   0.234   2.985
 4124TIP3   OH212314   6.313   4.907   6.615
 4124TIP3    H112315   6.369   4.866   6.548
 4124TIP3    H212316   6.324   5.001   6.601
 4125TIP3   OH212317   6.793   6.365   0.286
 4125TIP3    H112318   6.777   6.382   0.193
 4125TIP3    H212319   6.717   6.314   0.315
 4126TIP3   OH212320   0.023   5.327   2.388
 4126TIP3    H112321  -0.004   5.350   2.299
 4126TIP3    H212322   0.119   5.334   2.386
 4127TIP3   OH212323   1.429   7.410   2.221
 4127TIP3    H112324   1.495   7.432   2.288
 4127TIP3    H212325   1.409   7.318   2.236
 4128TIP3   OH212326   4.001   0.576   2.017
 4128TIP3    H112327   4.062   0.536   2.079
 4128TIP3    H212328   3.953   0.503   1.979
 4129TIP3   OH212329   4.212   3.608   6.185
 4129TIP3    H112330   4.231   3.612   6.091
 4129TIP3    H212331   4.175   3.693   6.206
 4130TIP3   OH212332   0.396   7.518   3.670
 4130TIP3    H112333   0.467   7.458   3.646
 4130TIP3    H212334   0.389   7.577   3.595
 4131TIP3   OH212335   1.922   3.328   2.104
 4131TIP3    H112336   1.877   3.268   2.163
 4131TIP3    H212337   2.012   3.295   2.101
 4132TIP3   OH212338   4.430   6.853   6.129
 4132TIP3    H112339   4.397   6.940   6.151
 4132TIP3    H212340   4.470   6.821   6.209
 4133TIP3   OH212341   2.918   2.587   5.632
 4133TIP3    H112342   2.963   2.503   5.644
 4133TIP3    H212343   2.915   2.600   5.538
 4134TIP3   OH212344   1.685   5.155   3.744
 4134TIP3    H112345   1.698   5.062   3.760
 4134TIP3    H212346   1.613   5.180   3.802
 4135TIP3   OH212347   5.631   6.844   0.538
 4135TIP3    H112348   5.539   6.858   0.561
 4135TIP3    H212349   5.658   6.927   0.498
 4136TIP3   OH212350   1.618   6.637   5.440
 4136TIP3    H112351   1.631   6.708   5.503
 4136TIP3    H212352   1.706   6.619   5.406
 4137TIP3   OH212353   5.056   1.441   5.399
 4137TIP3    H112354   5.100   1.517   5.359
 4137TIP3    H212355   5.025   1.474   5.484
 4138TIP3   OH212356   7.702   7.837   4.256
 4138TIP3    H112357   7.696   7.744   4.234
 4138TIP3    H212358   7.639   7.849   4.327
 4139TIP3   OH212359   2.664   7.261   4.903
 4139TIP3    H112360   2.630   7.174   4.922
 4139TIP3    H212361   2.618   7.288   4.824
 4140TIP3   OH212362   3.557   3.502   0.475
 4140TIP3    H112363   3.647   3.533   0.481
 4140TIP3    H212364   3.532   3.518   0.384
 4141TIP3   OH212365   5.731   3.106   6.314
 4141TIP3    H112366   5.649   3.065   6.286
 4141TIP3    H212367   5.748   3.173   6.248
 4142TIP3   OH212368   5.552   5.649   1.010
 4142TIP3    H112369   5.569   5.612   1.097
 4142TIP3    H212370   5.595   5.735   1.012
 4143TIP3   OH212371   2.529   2.703   3.645
 4143TIP3    H112372   2.522   2.661   3.731
 4143TIP3    H212373   2.623   2.706   3.627
 4144TIP3   OH212374   2.436   5.704   5.390
 4144TIP3    H112375   2.499   5.756   5.440
 4144TIP3    H212376   2.484   5.625   5.367
 4145TIP3   OH212377   4.246   5.085   4.330
 4145TIP3    H112378   4.288   5.161   4.371
 4145TIP3    H212379   4.225   5.027   4.403
 4146TIP3   OH212380   1.846   3.492   1.234
 4146TIP3    H112381   1.892   3.414   1.204
 4146TIP3    H212382   1.915   3.558   1.243
 4147TIP3   OH212383   5.105   4.963   2.080
 4147TIP3    H112384   5.046   4.888   2.072
 4147TIP3    H212385   5.143   4.973   1.993
 4148TIP3   OH212386   7.239   4.295   6.720
 4148TIP3    H112387   7.187   4.230   6.672
 4148TIP3    H212388   7.285   4.244   6.787
 4149TIP3   OH212389   7.811   1.007   1.432
 4149TIP3    H112390   7.861   1.088   1.439
 4149TIP3    H212391   7.725   1.035   1.400
 4150TIP3   OH212392   4.233   5.020   0.725
 4150TIP3    H112393   4.226   4.990   0.815
 4150TIP3    H212394   4.291   4.957   0.683
 4151TIP3   OH212395   4.416   1.379   0.405
 4151TIP3    H112396   4.484   1.429   0.360
 4151TIP3    H212397   4.335   1.426   0.385
 4152TIP3   OH212398   1.251   6.868   3.566
 4152TIP3    H112399   1.258   6.785   3.614
 4152TIP3    H212400   1.337   6.909   3.577
 4153TIP3   OH212401   6.010   4.696   3.475
 4153TIP3    H112402   5.939   4.722   3.417
 4153TIP3    H212403   5.992   4.742   3.557
 4154TIP3   OH212404   3.778   0.149   1.735
 4154TIP3    H112405   3.849   0.213   1.728
 4154TIP3    H212406   3.726   0.162   1.656
 4155TIP3   OH212407   3.113   6.296   6.445
 4155TIP3    H112408   3.144   6.253   6.525
 4155TIP3    H212409   3.160   6.252   6.374
 4156TIP3   OH212410   2.694   7.402   3.742
 4156TIP3    H112411   2.684   7.476   3.682
 4156TIP3    H212412   2.726   7.330   3.688
 4157TIP3   OH212413   8.263   6.717   1.514
 4157TIP3    H112414   8.172   6.719   1.544
 4157TIP3    H212415   8.269   6.790   1.452
 4158TIP3   OH212416   5.277   0.184   4.945
 4158TIP3    H112417   5.285   0.139   4.861
 4158TIP3    H212418   5.317   0.270   4.929
 4159TIP3   OH212419   2.242   1.383   6.216
 4159TIP3    H112420   2.198   1.460   6.252
 4159TIP3    H212421   2.316   1.368   6.274
 4160TIP3   OH212422   7.328   3.045   4.919
 4160TIP3    H112423   7.308   2.964   4.968
 4160TIP3    H212424   7.252   3.057   4.862
 4161TIP3   OH212425   5.213   2.243   3.811
 4161TIP3    H112426   5.125   2.273   3.786
 4161TIP3    H212427   5.271   2.315   3.786
 4162TIP3   OH212428   5.829   5.038   5.761
 4162TIP3    H112429   5.742   5.069   5.784
 4162TIP3    H212430   5.874   5.029   5.845
 4163TIP3   OH212431   0.898   5.630   2.640
 4163TIP3    H112432   0.942   5.684   2.574
 4163TIP3    H212433   0.931   5.542   2.625
 4164TIP3   OH212434   0.056   6.732   5.812
 4164TIP3    H112435  -0.018   6.712   5.869
 4164TIP3    H212436   0.121   6.665   5.832
 4165TIP3   OH212437   7.767   1.338   5.538
 4165TIP3    H112438   7.707   1.333   5.612
 4165TIP3    H212439   7.783   1.432   5.526
 4166TIP3   OH212440   5.237   0.690   1.315
 4166TIP3    H112441   5.174   0.708   1.244
 4166TIP3    H212442   5.237   0.769   1.367
 4167TIP3   OH212443   8.285   2.977   2.602
 4167TIP3    H112444   8.266   2.889   2.568
 4167TIP3    H212445   8.210   3.030   2.574
 4168TIP3   OH212446   2.236   0.196   3.646
 4168TIP3    H112447   2.206   0.270   3.593
 4168TIP3    H212448   2.210   0.220   3.736
 4169TIP3   OH212449   6.431   4.458   1.260
 4169TIP3    H112450   6.521   4.468   1.229
 4169TIP3    H212451   6.414   4.538   1.309
 4170TIP3   OH212452   5.300   5.294   0.535
 4170TIP3    H112453   5.263   5.374   0.573
 4170TIP3    H212454   5.395   5.307   0.540
 4171TIP3   OH212455   4.331   3.472   0.954
 4171TIP3    H112456   4.411   3.424   0.930
 4171TIP3    H212457   4.363   3.554   0.993
 4172TIP3   OH212458   5.411   7.660   3.894
 4172TIP3    H112459   5.478   7.656   3.962
 4172TIP3    H212460   5.454   7.623   3.817
 4173TIP3   OH212461   3.501   6.734   6.636
 4173TIP3    H112462   3.530   6.642   6.636
 4173TIP3    H212463   3.484   6.753   6.728
 4174TIP3   OH212464   0.875   7.720   3.040
 4174TIP3    H112465   0.807   7.665   3.001
 4174TIP3    H212466   0.853   7.724   3.133
 4175TIP3   OH212467   1.335   6.017   4.472
 4175TIP3    H112468   1.287   6.052   4.548
 4175TIP3    H212469   1.367   6.095   4.427
 4176TIP3   OH212470   6.871   7.310   2.227
 4176TIP3    H112471   6.820   7.237   2.191
 4176TIP3    H212472   6.942   7.323   2.164
 4177TIP3   OH212473   2.394   2.104   0.032
 4177TIP3    H112474   2.321   2.163   0.050
 4177TIP3    H212475   2.393   2.041   0.105
 4178TIP3   OH212476   6.973   3.967   6.502
 4178TIP3    H112477   7.032   3.920   6.444
 4178TIP3    H212478   6.891   3.975   6.453
 4179TIP3   OH212479   1.386   5.133   1.755
 4179TIP3    H112480   1.462   5.143   1.813
 4179TIP3    H212481   1.313   5.111   1.813
 4180TIP3   OH212482   2.849   4.068   0.542
 4180TIP3    H112483   2.940   4.082   0.514
 4180TIP3    H212484   2.847   4.098   0.633
 4181TIP3   OH212485   4.502   3.861   1.836
 4181TIP3    H112486   4.443   3.917   1.786
 4181TIP3    H212487   4.589   3.884   1.803
 4182TIP3   OH212488   7.263   5.283   3.238
 4182TIP3    H112489   7.294   5.210   3.185
 4182TIP3    H212490   7.227   5.242   3.316
 4183TIP3   OH212491   1.605   6.183   6.259
 4183TIP3    H112492   1.550   6.106   6.248
 4183TIP3    H212493   1.583   6.217   6.346
 4184TIP3   OH212494   1.281   1.262   0.221
 4184TIP3    H112495   1.223   1.203   0.269
 4184TIP3    H212496   1.227   1.339   0.203
 4185TIP3   OH212497   5.017   1.918   3.592
 4185TIP3    H112498   5.008   1.980   3.520
 4185TIP3    H212499   5.109   1.924   3.618
 4186TIP3   OH212500   1.999   5.620   3.533
 4186TIP3    H112501   2.056   5.681   3.580
 4186TIP3    H212502   1.913   5.664   3.531
 4187TIP3   OH212503   3.164   4.112   4.147
 4187TIP3    H112504   3.182   4.018   4.150
 4187TIP3    H212505   3.084   4.122   4.197
 4188TIP3   OH212506   7.987   2.999   6.024
 4188TIP3    H112507   7.917   2.983   6.087
 4188TIP3    H212508   8.001   2.914   5.982
 4189TIP3   OH212509   3.269   6.640   5.370
 4189TIP3    H112510   3.173   6.639   5.378
 4189TIP3    H212511   3.290   6.558   5.326
 4190TIP3   OH212512   7.364   2.671   5.912
 4190TIP3    H112513   7.334   2.598   5.858
 4190TIP3    H212514   7.318   2.747   5.876
 4191TIP3   OH212515   5.723   2.308   4.981
 4191TIP3    H112516   5.655   2.373   4.965
 4191TIP3    H212517   5.726   2.299   5.076
 4192TIP3   OH212518   7.936   6.169   1.984
 4192TIP3    H112519   7.992   6.121   2.044
 4192TIP3    H212520   7.985   6.249   1.963
 4193TIP3   OH212521   1.282   4.316   0.875
 4193TIP3    H112522   1.207   4.376   0.871
 4193TIP3    H212523   1.348   4.356   0.818
 4194TIP3   OH212524   7.233   4.846   0.762
 4194TIP3    H112525   7.215   4.875   0.851
 4194TIP3    H212526   7.149   4.813   0.730
 4195TIP3   OH212527   6.324   1.031   1.554
 4195TIP3    H112528   6.296   0.941   1.536
 4195TIP3    H212529   6.352   1.064   1.469
 4196TIP3   OH212530   2.332   5.719   0.933
 4196TIP3    H112531   2.314   5.661   1.008
 4196TIP3    H212532   2.245   5.744   0.902
 4197TIP3   OH212533   3.498   4.158   2.352
 4197TIP3    H112534   3.429   4.185   2.291
 4197TIP3    H212535   3.497   4.225   2.420
 4198TIP3   OH212536   1.608   2.294   0.003
 4198TIP3    H112537   1.625   2.253   0.088
 4198TIP3    H212538   1.519   2.329   0.011
 4199TIP3   OH212539   3.477   2.374   6.665
 4199TIP3    H112540   3.406   2.386   6.601
 4199TIP3    H212541   3.441   2.313   6.729
 4200TIP3   OH212542   2.372   7.594   3.884
 4200TIP3    H112543   2.383   7.504   3.916
 4200TIP3    H212544   2.460   7.624   3.863
 4201TIP3   OH212545   0.049   3.394   4.776
 4201TIP3    H112546   0.057   3.474   4.724
 4201TIP3    H212547   0.131   3.389   4.825
 4202TIP3   OH212548   5.516   7.723   4.140
 4202TIP3    H112549   5.557   7.663   4.202
 4202TIP3    H212550   5.587   7.750   4.082
 4203TIP3   OH212551   7.288   1.245   4.626
 4203TIP3    H112552   7.353   1.315   4.616
 4203TIP3    H212553   7.233   1.274   4.699
 4204TIP3   OH212554   7.796   1.630   3.150
 4204TIP3    H112555   7.834   1.638   3.237
 4204TIP3    H212556   7.870   1.616   3.091
 4205TIP3   OH212557   3.245   6.879   6.735
 4205TIP3    H112558   3.326   6.853   6.779
 4205TIP3    H212559   3.236   6.816   6.663
 4206TIP3   OH212560   2.163   6.671   3.907
 4206TIP3    H112561   2.075   6.639   3.887
 4206TIP3    H212562   2.149   6.759   3.940
 4207TIP3   OH212563   1.501   4.024   6.537
 4207TIP3    H112564   1.575   3.964   6.542
 4207TIP3    H212565   1.438   3.991   6.601
 4208TIP3   OH212566   4.551   7.171   3.460
 4208TIP3    H112567   4.560   7.243   3.523
 4208TIP3    H212568   4.457   7.165   3.445
 4209TIP3   OH212569   5.056   7.026   5.684
 4209TIP3    H112570   4.973   7.067   5.661
 4209TIP3    H212571   5.076   7.061   5.771
 4210TIP3   OH212572   2.667   4.921   5.042
 4210TIP3    H112573   2.574   4.900   5.044
 4210TIP3    H212574   2.702   4.873   4.967
 4211TIP3   OH212575   0.608   5.954   1.975
 4211TIP3    H112576   0.560   6.018   1.923
 4211TIP3    H212577   0.607   5.990   2.064
 4212TIP3   OH212578   5.627   2.516   2.071
 4212TIP3    H112579   5.709   2.468   2.081
 4212TIP3    H212580   5.565   2.469   2.128
 4213TIP3   OH212581   6.396   4.254   4.690
 4213TIP3    H112582   6.319   4.266   4.746
 4213TIP3    H212583   6.375   4.304   4.611
 4214TIP3   OH212584   1.881   2.282   0.014
 4214TIP3    H112585   1.794   2.310  -0.013
 4214TIP3    H212586   1.914   2.354   0.068
 4215TIP3   OH212587   4.285   0.352   4.870
 4215TIP3    H112588   4.258   0.434   4.828
 4215TIP3    H212589   4.355   0.318   4.814
 4216TIP3   OH212590   0.125   1.348   5.176
 4216TIP3    H112591   0.155   1.284   5.112
 4216TIP3    H212592   0.179   1.425   5.159
 4217TIP3   OH212593   2.935   2.346   4.432
 4217TIP3    H112594   2.929   2.402   4.510
 4217TIP3    H212595   3.026   2.355   4.403
 4218TIP3   OH212596   5.319   6.818   0.590
 4218TIP3    H112597   5.249   6.858   0.642
 4218TIP3    H212598   5.284   6.814   0.501
 4219TIP3   OH212599   5.540   6.581   5.760
 4219TIP3    H112600   5.612   6.594   5.699
 4219TIP3    H212601   5.495   6.504   5.728
 4220TIP3   OH212602   6.842   1.439   6.651
 4220TIP3    H112603   6.792   1.505   6.604
 4220TIP3    H212604   6.794   1.357   6.635
 4221TIP3   OH212605   1.168   4.192   6.409
 4221TIP3    H112606   1.138   4.107   6.441
 4221TIP3    H212607   1.105   4.215   6.340
 4222TIP3   OH212608   2.045   5.803   0.818
 4222TIP3    H112609   2.047   5.807   0.723
 4222TIP3    H212610   2.054   5.894   0.846
 4223TIP3   OH212611   6.834   1.563   6.264
 4223TIP3    H112612   6.795   1.571   6.351
 4223TIP3    H212613   6.883   1.481   6.267
 4224TIP3   OH212614   8.153   0.396   3.618
 4224TIP3    H112615   8.115   0.446   3.546
 4224TIP3    H212616   8.087   0.399   3.687
 4225TIP3   OH212617   3.854   2.329   0.525
 4225TIP3    H112618   3.823   2.318   0.614
 4225TIP3    H212619   3.932   2.273   0.520
 4226TIP3   OH212620   4.635   1.020   3.238
 4226TIP3    H112621   4.705   1.064   3.285
 4226TIP3    H212622   4.555   1.044   3.285
 4227TIP3   OH212623   7.003   4.259   5.128
 4227TIP3    H112624   6.960   4.231   5.208
 4227TIP3    H212625   7.014   4.354   5.138
 4228TIP3   OH212626   0.810   7.256   5.408
 4228TIP3    H112627   0.789   7.347   5.387
 4228TIP3    H212628   0.847   7.261   5.496
 4229TIP3   OH212629   2.328   6.554   1.260
 4229TIP3    H112630   2.307   6.598   1.342
 4229TIP3    H212631   2.392   6.487   1.284
 4230TIP3   OH212632   2.738   7.547   0.104
 4230TIP3    H112633   2.769   7.571   0.191
 4230TIP3    H212634   2.645   7.569   0.106
 4231TIP3   OH212635   1.438   3.820   6.059
 4231TIP3    H112636   1.441   3.814   5.964
 4231TIP3    H212637   1.402   3.736   6.087
 4232TIP3   OH212638   4.298   6.122   1.880
 4232TIP3    H112639   4.361   6.194   1.881
 4232TIP3    H212640   4.338   6.056   1.823
 4233TIP3   OH212641   5.483   1.276   2.032
 4233TIP3    H112642   5.445   1.306   2.114
 4233TIP3    H212643   5.509   1.356   1.986
 4234TIP3   OH212644   0.858   2.703   0.649
 4234TIP3    H112645   0.814   2.658   0.721
 4234TIP3    H212646   0.862   2.638   0.579
 4235TIP3   OH212647   6.050   6.617   0.463
 4235TIP3    H112648   5.991   6.633   0.389
 4235TIP3    H212649   5.994   6.581   0.531
 4236TIP3   OH212650   5.481   5.554   3.337
 4236TIP3    H112651   5.467   5.640   3.296
 4236TIP3    H212652   5.461   5.568   3.429
 4237TIP3   OH212653   0.154   5.437   3.264
 4237TIP3    H112654   0.235   5.402   3.303
 4237TIP3    H212655   0.094   5.446   3.338
 4238TIP3   OH212656   0.635   6.647   2.957
 4238TIP3    H112657   0.718   6.607   2.931
 4238TIP3    H212658   0.570   6.602   2.903
 4239TIP3   OH212659   0.665   0.396   5.727
 4239TIP3    H112660   0.697   0.341   5.799
 4239TIP3    H212661   0.611   0.337   5.674
 4240TIP3   OH212662   4.246   0.823   6.037
 4240TIP3    H112663   4.215   0.832   5.947
 4240TIP3    H212664   4.315   0.758   6.032
 4241TIP3   OH212665   1.450   7.192   1.510
 4241TIP3    H112666   1.470   7.105   1.474
 4241TIP3    H212667   1.368   7.217   1.468
 4242TIP3   OH212668   6.338   1.901   0.799
 4242TIP3    H112669   6.339   1.839   0.872
 4242TIP3    H212670   6.387   1.976   0.832
 4243TIP3   OH212671   2.377   7.446   3.437
 4243TIP3    H112672   2.417   7.524   3.398
 4243TIP3    H212673   2.432   7.374   3.408
 4244TIP3   OH212674   4.976   6.109   4.726
 4244TIP3    H112675   4.889   6.149   4.725
 4244TIP3    H212676   4.962   6.025   4.770
 4245TIP3   OH212677   2.241   0.879   4.467
 4245TIP3    H112678   2.246   0.819   4.392
 4245TIP3    H212679   2.250   0.966   4.429
 4246TIP3   OH212680   1.593   7.062   6.490
 4246TIP3    H112681   1.563   7.030   6.575
 4246TIP3    H212682   1.684   7.087   6.504
 4247TIP3   OH212683   1.197   3.381   5.959
 4247TIP3    H112684   1.148   3.337   5.889
 4247TIP3    H212685   1.133   3.395   6.028
 4248TIP3   OH212686   7.822   7.690   0.278
 4248TIP3    H112687   7.894   7.638   0.315
 4248TIP3    H212688   7.747   7.669   0.334
 4249TIP3   OH212689   1.989   6.259   6.637
 4249TIP3    H112690   1.953   6.175   6.610
 4249TIP3    H212691   2.031   6.241   6.721
 4250TIP3   OH212692   7.568   5.522   6.766
 4250TIP3    H112693   7.662   5.509   6.754
 4250TIP3    H212694   7.531   5.434   6.762
 4251TIP3   OH212695   3.065   0.090   0.478
 4251TIP3    H112696   3.005   0.121   0.545
 4251TIP3    H212697   3.152   0.098   0.517
 4252TIP3   OH212698   1.034   1.403   2.228
 4252TIP3    H112699   1.064   1.485   2.190
 4252TIP3    H212700   0.939   1.409   2.225
 4253TIP3   OH212701   1.675   0.332   5.192
 4253TIP3    H112702   1.683   0.249   5.144
 4253TIP3    H212703   1.609   0.381   5.145
 4254TIP3   OH212704   6.262   5.392   1.891
 4254TIP3    H112705   6.340   5.345   1.919
 4254TIP3    H212706   6.250   5.461   1.956
 4255TIP3   OH212707   4.837   3.760   0.265
 4255TIP3    H112708   4.822   3.848   0.230
 4255TIP3    H212709   4.883   3.714   0.195
 4256TIP3   OH212710   7.280   2.299   6.459
 4256TIP3    H112711   7.188   2.324   6.464
 4256TIP3    H212712   7.301   2.303   6.366
 4257TIP3   OH212713   2.554   4.062   1.505
 4257TIP3    H112714   2.475   4.070   1.450
 4257TIP3    H212715   2.541   3.981   1.554
 4258TIP3   OH212716   4.514   4.726   0.763
 4258TIP3    H112717   4.508   4.798   0.700
 4258TIP3    H212718   4.538   4.650   0.710
 4259TIP3   OH212719   5.701   7.832   1.293
 4259TIP3    H112720   5.755   7.847   1.216
 4259TIP3    H212721   5.643   7.760   1.269
 4260TIP3   OH212722   2.933   6.130   4.090
 4260TIP3    H112723   3.004   6.195   4.096
 4260TIP3    H212724   2.923   6.115   3.996
 4261TIP3   OH212725   0.800   0.561   4.208
 4261TIP3    H112726   0.798   0.646   4.165
 4261TIP3    H212727   0.760   0.501   4.146
 4262TIP3   OH212728   1.565   0.463   4.881
 4262TIP3    H112729   1.605   0.541   4.843
 4262TIP3    H212730   1.527   0.493   4.964
 4263TIP3   OH212731   4.858   7.282   0.467
 4263TIP3    H112732   4.831   7.205   0.417
 4263TIP3    H212733   4.778   7.313   0.509
 4264TIP3   OH212734   4.517   0.215   1.606
 4264TIP3    H112735   4.505   0.216   1.511
 4264TIP3    H212736   4.439   0.258   1.641
 4265TIP3   OH212737   5.810   4.568   1.865
 4265TIP3    H112738   5.870   4.508   1.821
 4265TIP3    H212739   5.846   4.655   1.848
 4266TIP3   OH212740   3.981   7.494   6.291
 4266TIP3    H112741   4.008   7.409   6.326
 4266TIP3    H212742   4.000   7.556   6.362
 4267TIP3   OH212743   4.304   2.102   0.172
 4267TIP3    H112744   4.370   2.065   0.114
 4267TIP3    H212745   4.353   2.158   0.233
 4268TIP3   OH212746   1.182   0.595   2.994
 4268TIP3    H112747   1.149   0.522   2.942
 4268TIP3    H212748   1.189   0.668   2.932
 4269TIP3   OH212749   3.959   1.530   4.889
 4269TIP3    H112750   3.934   1.525   4.982
 4269TIP3    H212751   3.966   1.623   4.871
 4270TIP3   OH212752   4.470   6.152   0.127
 4270TIP3    H112753   4.460   6.067   0.085
 4270TIP3    H212754   4.549   6.145   0.180
 4271TIP3   OH212755   4.655   2.965   6.358
 4271TIP3    H112756   4.614   3.051   6.347
 4271TIP3    H212757   4.589   2.903   6.329
 4272TIP3   OH212758   4.389   1.694   4.818
 4272TIP3    H112759   4.300   1.659   4.816
 4272TIP3    H212760   4.389   1.758   4.889
 4273TIP3   OH212761   6.155   2.783   3.775
 4273TIP3    H112762   6.244   2.750   3.785
 4273TIP3    H212763   6.158   2.872   3.810
 4274TIP3   OH212764   3.133   0.397   3.338
 4274TIP3    H112765   3.141   0.431   3.249
 4274TIP3    H212766   3.100   0.471   3.390
 4275TIP3   OH212767   0.258   2.835   6.691
 4275TIP3    H112768   0.205   2.910   6.666
 4275TIP3    H212769   0.207   2.759   6.664
 4276TIP3   OH212770   7.740   6.206   6.708
 4276TIP3    H112771   7.827   6.172   6.728
 4276TIP3    H212772   7.686   6.179   6.783
 4277TIP3   OH212773   6.306   6.365   3.583
 4277TIP3    H112774   6.292   6.391   3.674
 4277TIP3    H212775   6.306   6.269   3.585
 4278TIP3   OH212776   6.307   4.912   5.880
 4278TIP3    H112777   6.218   4.879   5.864
 4278TIP3    H212778   6.352   4.839   5.921
 4279TIP3   OH212779   7.687   6.294   4.390
 4279TIP3    H112780   7.757   6.336   4.340
 4279TIP3    H212781   7.672   6.210   4.346
 4280TIP3   OH212782   7.650   3.533   3.581
 4280TIP3    H112783   7.721   3.561   3.523
 4280TIP3    H212784   7.684   3.546   3.669
 4281TIP3   OH212785   4.516   4.769   4.020
 4281TIP3    H112786   4.561   4.853   4.028
 4281TIP3    H212787   4.500   4.742   4.110
 4282TIP3   OH212788   0.696   2.044   2.086
 4282TIP3    H112789   0.613   2.001   2.063
 4282TIP3    H212790   0.740   2.057   2.002
 4283TIP3   OH212791   6.784   0.499   5.236
 4283TIP3    H112792   6.856   0.441   5.261
 4283TIP3    H212793   6.772   0.556   5.312
 4284TIP3   OH212794   2.210   0.229   0.791
 4284TIP3    H112795   2.218   0.311   0.840
 4284TIP3    H212796   2.259   0.243   0.710
 4285TIP3   OH212797   6.528   2.976   5.842
 4285TIP3    H112798   6.504   2.886   5.863
 4285TIP3    H212799   6.588   2.969   5.767
 4286TIP3   OH212800   3.188   1.165   5.953
 4286TIP3    H112801   3.109   1.215   5.971
 4286TIP3    H212802   3.158   1.077   5.933
 4287TIP3   OH212803   8.057   5.073   3.914
 4287TIP3    H112804   7.963   5.091   3.906
 4287TIP3    H212805   8.081   5.034   3.830
 4288TIP3   OH212806   4.922   1.886   6.409
 4288TIP3    H112807   4.868   1.932   6.474
 4288TIP3    H212808   4.859   1.855   6.344
 4289TIP3   OH212809   2.930   2.904   3.352
 4289TIP3    H112810   2.985   2.853   3.292
 4289TIP3    H212811   2.987   2.923   3.427
 4290TIP3   OH212812   3.242   4.930   2.727
 4290TIP3    H112813   3.257   4.906   2.636
 4290TIP3    H212814   3.248   4.848   2.775
 4291TIP3   OH212815   2.409   1.442   3.625
 4291TIP3    H112816   2.358   1.523   3.623
 4291TIP3    H212817   2.343   1.373   3.615
 4292TIP3   OH212818   1.931   6.659   0.786
 4292TIP3    H112819   1.983   6.728   0.744
 4292TIP3    H212820   1.890   6.703   0.861
 4293TIP3   OH212821   3.405   2.531   5.974
 4293TIP3    H112822   3.486   2.544   6.024
 4293TIP3    H212823   3.422   2.574   5.890
 4294TIP3   OH212824   2.165   4.277   2.355
 4294TIP3    H112825   2.174   4.353   2.413
 4294TIP3    H212826   2.127   4.209   2.411
 4295TIP3   OH212827   4.448   2.506   5.532
 4295TIP3    H112828   4.422   2.507   5.624
 4295TIP3    H212829   4.511   2.434   5.526
 4296TIP3   OH212830   1.190   1.518   6.042
 4296TIP3    H112831   1.238   1.546   6.120
 4296TIP3    H212832   1.253   1.527   5.971
 4297TIP3   OH212833   2.535   7.239   3.470
 4297TIP3    H112834   2.599   7.303   3.440
 4297TIP3    H212835   2.585   7.181   3.529
 4298TIP3   OH212836   2.134   5.094   6.311
 4298TIP3    H112837   2.060   5.099   6.251
 4298TIP3    H212838   2.162   5.185   6.322
 4299TIP3   OH212839   4.971   4.408   4.362
 4299TIP3    H112840   5.014   4.399   4.277
 4299TIP3    H212841   4.878   4.396   4.342
 4300TIP3   OH212842   2.773   4.591   4.113
 4300TIP3    H112843   2.756   4.498   4.129
 4300TIP3    H212844   2.686   4.629   4.100
 4301TIP3   OH212845   6.784   4.412   3.635
 4301TIP3    H112846   6.710   4.437   3.691
 4301TIP3    H212847   6.833   4.348   3.688
 4302TIP3   OH212848   2.346   7.193   0.380
 4302TIP3    H112849   2.368   7.285   0.394
 4302TIP3    H212850   2.313   7.162   0.464
 4303TIP3   OH212851   4.632   5.464   0.434
 4303TIP3    H112852   4.573   5.428   0.501
 4303TIP3    H212853   4.614   5.558   0.435
 4304TIP3   OH212854   4.240   7.269   5.498
 4304TIP3    H112855   4.220   7.345   5.444
 4304TIP3    H212856   4.316   7.229   5.457
 4305TIP3   OH212857   2.528   1.637   6.084
 4305TIP3    H112858   2.606   1.583   6.098
 4305TIP3    H212859   2.466   1.608   6.150
 4306TIP3   OH212860   6.008   1.696   4.687
 4306TIP3    H112861   5.988   1.605   4.710
 4306TIP3    H212862   6.042   1.734   4.767
 4307TIP3   OH212863   1.989   2.889   4.048
 4307TIP3    H112864   2.003   2.856   3.959
 4307TIP3    H212865   2.064   2.857   4.098
 4308TIP3   OH212866   7.196   6.363   2.459
 4308TIP3    H112867   7.269   6.418   2.432
 4308TIP3    H212868   7.162   6.406   2.537
 4309TIP3   OH212869   4.858   3.505   6.560
 4309TIP3    H112870   4.885   3.585   6.514
 4309TIP3    H212871   4.769   3.488   6.530
 4310TIP3   OH212872   0.746   7.247   0.633
 4310TIP3    H112873   0.661   7.224   0.596
 4310TIP3    H212874   0.736   7.234   0.727
 4311TIP3   OH212875   7.693   7.559   0.783
 4311TIP3    H112876   7.635   7.634   0.793
 4311TIP3    H212877   7.673   7.502   0.857
 4312TIP3   OH212878   7.967   3.634   2.847
 4312TIP3    H112879   7.954   3.719   2.889
 4312TIP3    H212880   8.062   3.621   2.848
 4313TIP3   OH212881   4.822   0.612   1.604
 4313TIP3    H112882   4.804   0.558   1.680
 4313TIP3    H212883   4.763   0.580   1.536
 4314TIP3   OH212884   0.528   7.572   0.114
 4314TIP3    H112885   0.507   7.590   0.205
 4314TIP3    H212886   0.576   7.489   0.116
 4315TIP3   OH212887   4.306   3.945   6.682
 4315TIP3    H112888   4.229   3.997   6.706
 4315TIP3    H212889   4.331   3.902   6.764
 4316TIP3   OH212890   5.180   6.776   1.642
 4316TIP3    H112891   5.173   6.696   1.694
 4316TIP3    H212892   5.258   6.763   1.589
 4317TIP3   OH212893   3.123   0.068   5.872
 4317TIP3    H112894   3.149   0.029   5.788
 4317TIP3    H212895   3.186   0.138   5.886
 4318TIP3   OH212896   3.482   2.169   6.205
 4318TIP3    H112897   3.486   2.085   6.252
 4318TIP3    H212898   3.567   2.176   6.162
 4319TIP3   OH212899   6.501   3.802   4.109
 4319TIP3    H112900   6.439   3.833   4.174
 4319TIP3    H212901   6.585   3.838   4.136
 4320TIP3   OH212902   4.996   2.637   5.400
 4320TIP3    H112903   4.991   2.730   5.378
 4320TIP3    H212904   5.031   2.634   5.489
 4321TIP3   OH212905   4.571   0.635   4.734
 4321TIP3    H112906   4.478   0.620   4.749
 4321TIP3    H212907   4.607   0.649   4.822
 4322TIP3   OH212908   6.862   0.298   5.964
 4322TIP3    H112909   6.813   0.304   6.046
 4322TIP3    H212910   6.794   0.298   5.896
 4323TIP3   OH212911   6.245   0.112   5.156
 4323TIP3    H112912   6.195   0.034   5.130
 4323TIP3    H212913   6.189   0.156   5.219
 4324TIP3   OH212914   1.349   0.467   0.572
 4324TIP3    H112915   1.438   0.439   0.554
 4324TIP3    H212916   1.339   0.550   0.527
 4325TIP3   OH212917   2.134   3.572   6.369
 4325TIP3    H112918   2.187   3.604   6.442
 4325TIP3    H212919   2.066   3.518   6.410
 4326TIP3   OH212920   3.185   4.864   1.727
 4326TIP3    H112921   3.121   4.933   1.745
 4326TIP3    H212922   3.266   4.910   1.707
 4327TIP3   OH212923   5.422   1.474   3.249
 4327TIP3    H112924   5.473   1.545   3.288
 4327TIP3    H212925   5.404   1.503   3.160
 4328TIP3   OH212926   1.427   5.700   4.825
 4328TIP3    H112927   1.348   5.667   4.784
 4328TIP3    H212928   1.447   5.637   4.894
 4329TIP3   OH212929   0.688   0.824   1.792
 4329TIP3    H112930   0.715   0.745   1.837
 4329TIP3    H212931   0.606   0.850   1.835
 4330TIP3   OH212932   0.026   7.687   4.553
 4330TIP3    H112933   0.013   7.645   4.638
 4330TIP3    H212934   0.048   7.778   4.575
 4331TIP3   OH212935   2.323   1.292   5.945
 4331TIP3    H112936   2.242   1.282   5.894
 4331TIP3    H212937   2.294   1.327   6.029
 4332TIP3   OH212938   1.426   6.107   2.724
 4332TIP3    H112939   1.464   6.020   2.725
 4332TIP3    H212940   1.501   6.166   2.723
 4333TIP3   OH212941   6.362   0.230   2.739
 4333TIP3    H112942   6.347   0.323   2.752
 4333TIP3    H212943   6.280   0.189   2.767
 4334TIP3   OH212944   0.660   6.853   4.226
 4334TIP3    H112945   0.617   6.800   4.159
 4334TIP3    H212946   0.752   6.827   4.222
 4335TIP3   OH212947   6.560   5.248   5.441
 4335TIP3    H112948   6.492   5.313   5.454
 4335TIP3    H212949   6.540   5.208   5.356
 4336TIP3   OH212950   8.091   6.713   5.594
 4336TIP3    H112951   8.171   6.700   5.647
 4336TIP3    H212952   8.103   6.656   5.519
 4337TIP3   OH212953   2.080   5.679   2.589
 4337TIP3    H112954   2.144   5.715   2.528
 4337TIP3    H212955   2.069   5.588   2.563
 4338TIP3   OH212956   7.524   2.959   5.257
 4338TIP3    H112957   7.568   2.910   5.188
 4338TIP3    H212958   7.593   3.012   5.296
 4339TIP3   OH212959   6.395   3.152   3.421
 4339TIP3    H112960   6.393   3.144   3.326
 4339TIP3    H212961   6.455   3.084   3.450
 4340TIP3   OH212962   0.604   7.183   2.367
 4340TIP3    H112963   0.626   7.125   2.440
 4340TIP3    H212964   0.552   7.253   2.407
 4341TIP3   OH212965   6.884   1.585   2.279
 4341TIP3    H112966   6.814   1.644   2.252
 4341TIP3    H212967   6.866   1.567   2.372
 4342TIP3   OH212968   2.048   4.645   1.594
 4342TIP3    H112969   2.092   4.640   1.510
 4342TIP3    H212970   1.987   4.718   1.585
 4343TIP3   OH212971   6.603   2.616   5.082
 4343TIP3    H112972   6.559   2.700   5.069
 4343TIP3    H212973   6.659   2.629   5.159
 4344TIP3   OH212974   2.419   4.661   0.983
 4344TIP3    H112975   2.468   4.688   1.060
 4344TIP3    H212976   2.476   4.597   0.939
 4345TIP3   OH212977   3.660   2.406   3.354
 4345TIP3    H112978   3.727   2.383   3.290
 4345TIP3    H212979   3.706   2.457   3.421
 4346TIP3   OH212980   2.409   5.560   1.937
 4346TIP3    H112981   2.422   5.479   1.887
 4346TIP3    H212982   2.332   5.601   1.898
 4347TIP3   OH212983   6.675   2.638   5.349
 4347TIP3    H112984   6.641   2.575   5.413
 4347TIP3    H212985   6.639   2.722   5.376
 4348TIP3   OH212986   6.712   6.056   4.867
 4348TIP3    H112987   6.748   6.092   4.948
 4348TIP3    H212988   6.742   6.115   4.799
 4349TIP3   OH212989   3.793   5.118   0.571
 4349TIP3    H112990   3.772   5.112   0.664
 4349TIP3    H212991   3.804   5.212   0.555
 4350TIP3   OH212992   2.439   5.197   1.525
 4350TIP3    H112993   2.461   5.141   1.600
 4350TIP3    H212994   2.521   5.243   1.505
 4351TIP3   OH212995   5.997   0.335   1.948
 4351TIP3    H112996   5.951   0.252   1.940
 4351TIP3    H212997   6.087   0.316   1.921
 4352TIP3   OH212998   4.976   5.595   0.448
 4352TIP3    H112999   4.974   5.527   0.516
 4352TIP3    H213000   5.021   5.668   0.488
 4353TIP3   OH213001   7.089   2.746   0.221
 4353TIP3    H113002   7.004   2.705   0.208
 4353TIP3    H213003   7.109   2.788   0.138
 4354TIP3   OH213004   3.120   3.744   3.503
 4354TIP3    H113005   3.194   3.716   3.448
 4354TIP3    H213006   3.158   3.758   3.589
 4355TIP3   OH213007   3.463   4.747   1.859
 4355TIP3    H113008   3.519   4.810   1.816
 4355TIP3    H213009   3.420   4.700   1.788
 4356TIP3   OH213010   4.413   6.581   2.521
 4356TIP3    H113011   4.433   6.599   2.429
 4356TIP3    H213012   4.372   6.495   2.520
 4357TIP3   OH213013   1.038   0.744   1.935
 4357TIP3    H113014   0.998   0.709   1.855
 4357TIP3    H213015   1.100   0.810   1.905
 4358TIP3   OH213016   7.527   6.868   5.925
 4358TIP3    H113017   7.610   6.882   5.970
 4358TIP3    H213018   7.551   6.821   5.845
 4359TIP3   OH213019   4.550   4.601   3.190
 4359TIP3    H113020   4.548   4.690   3.225
 4359TIP3    H213021   4.490   4.603   3.115
 4360TIP3   OH213022   3.307   5.129   0.301
 4360TIP3    H113023   3.355   5.057   0.261
 4360TIP3    H213024   3.373   5.198   0.311
 4361TIP3   OH213025   5.288   2.640   2.217
 4361TIP3    H113026   5.335   2.676   2.142
 4361TIP3    H213027   5.233   2.571   2.180
 4362TIP3   OH213028   0.059   0.024   3.181
 4362TIP3    H113029   0.128   0.063   3.236
 4362TIP3    H213030   0.044  -0.063   3.219
 4363TIP3   OH213031   7.914   1.811   6.078
 4363TIP3    H113032   7.878   1.896   6.104
 4363TIP3    H213033   7.985   1.795   6.141
 4364TIP3   OH213034   6.021   7.326   4.826
 4364TIP3    H113035   5.962   7.375   4.882
 4364TIP3    H213036   6.040   7.385   4.753
 4365TIP3   OH213037   2.920   1.549   5.141
 4365TIP3    H113038   2.977   1.598   5.201
 4365TIP3    H213039   2.980   1.497   5.087
 4366TIP3   OH213040   2.933   5.547   4.215
 4366TIP3    H113041   2.901   5.637   4.201
 4366TIP3    H213042   2.928   5.535   4.310
 4367TIP3   OH213043   6.770   6.995   0.522
 4367TIP3    H113044   6.769   6.909   0.482
 4367TIP3    H213045   6.693   6.996   0.579
 4368TIP3   OH213046   1.947   5.003   5.668
 4368TIP3    H113047   1.928   5.092   5.699
 4368TIP3    H213048   2.001   5.016   5.590
 4369TIP3   OH213049   8.003   6.480   3.382
 4369TIP3    H113050   8.002   6.554   3.442
 4369TIP3    H213051   8.055   6.413   3.427
 4370TIP3   OH213052   5.769   3.515   6.385
 4370TIP3    H113053   5.813   3.537   6.467
 4370TIP3    H213054   5.697   3.457   6.411
 4371TIP3   OH213055   0.516   2.088   3.243
 4371TIP3    H113056   0.510   2.009   3.189
 4371TIP3    H213057   0.451   2.148   3.206
 4372TIP3   OH213058   3.059   2.467   5.158
 4372TIP3    H113059   3.052   2.489   5.251
 4372TIP3    H213060   3.152   2.478   5.137
 4373TIP3   OH213061   7.529   7.058   5.226
 4373TIP3    H113062   7.548   6.974   5.268
 4373TIP3    H213063   7.586   7.120   5.271
 4374TIP3   OH213064   5.655   5.385   4.688
 4374TIP3    H113065   5.642   5.296   4.720
 4374TIP3    H213066   5.628   5.382   4.596
 4375TIP3   OH213067   5.205   4.874   6.102
 4375TIP3    H113068   5.142   4.839   6.165
 4375TIP3    H213069   5.209   4.967   6.122
 4376TIP3   OH213070   5.049   6.699   2.595
 4376TIP3    H113071   4.979   6.724   2.535
 4376TIP3    H213072   5.011   6.629   2.648
 4377TIP3   OH213073   6.591   2.362   0.622
 4377TIP3    H113074   6.596   2.458   0.621
 4377TIP3    H213075   6.676   2.334   0.658
 4378TIP3   OH213076   8.041   3.265   2.015
 4378TIP3    H113077   7.988   3.191   2.044
 4378TIP3    H213078   7.991   3.304   1.943
 4379TIP3   OH213079   7.883   3.185   4.002
 4379TIP3    H113080   7.914   3.099   4.031
 4379TIP3    H213081   7.798   3.196   4.046
 4380TIP3   OH213082   5.115   0.155   6.298
 4380TIP3    H113083   5.186   0.177   6.359
 4380TIP3    H213084   5.104   0.060   6.307
 4381TIP3   OH213085   4.007   4.258   3.302
 4381TIP3    H113086   3.934   4.293   3.250
 4381TIP3    H213087   3.979   4.170   3.326
 4382TIP3   OH213088   7.791   4.484   6.542
 4382TIP3    H113089   7.760   4.433   6.467
 4382TIP3    H213090   7.840   4.557   6.503
 4383TIP3   OH213091   2.539   4.444   2.143
 4383TIP3    H113092   2.456   4.458   2.097
 4383TIP3    H213093   2.518   4.380   2.211
 4384TIP3   OH213094   2.421   6.165   0.672
 4384TIP3    H113095   2.429   6.259   0.656
 4384TIP3    H213096   2.417   6.126   0.585
 4385TIP3   OH213097   1.327   3.813   4.368
 4385TIP3    H113098   1.416   3.811   4.402
 4385TIP3    H213099   1.311   3.724   4.336
 4386TIP3   OH213100   1.421   4.273   6.474
 4386TIP3    H113101   1.467   4.194   6.504
 4386TIP3    H213102   1.337   4.240   6.443
 4387TIP3   OH213103   8.002   6.164   6.023
 4387TIP3    H113104   8.033   6.184   5.935
 4387TIP3    H213105   7.908   6.151   6.014
 4388TIP3   OH213106   0.454   1.930   2.033
 4388TIP3    H113107   0.406   1.891   1.960
 4388TIP3    H213108   0.397   1.919   2.108
 4389TIP3   OH213109   5.608   3.234   5.566
 4389TIP3    H113110   5.607   3.282   5.483
 4389TIP3    H213111   5.565   3.151   5.546
 4390TIP3   OH213112   6.131   7.446   6.406
 4390TIP3    H113113   6.078   7.501   6.463
 4390TIP3    H213114   6.219   7.449   6.444
 4391TIP3   OH213115   4.534   0.452   1.961
 4391TIP3    H113116   4.576   0.526   2.004
 4391TIP3    H213117   4.532   0.383   2.028
 4392TIP3   OH213118   7.672   4.761   5.378
 4392TIP3    H113119   7.715   4.679   5.401
 4392TIP3    H213120   7.624   4.742   5.298
 4393TIP3   OH213121   3.210   5.732   3.418
 4393TIP3    H113122   3.163   5.815   3.422
 4393TIP3    H213123   3.172   5.680   3.489
 4394TIP3   OH213124   0.604   1.267   4.760
 4394TIP3    H113125   0.635   1.177   4.762
 4394TIP3    H213126   0.555   1.273   4.678
 4395TIP3   OH213127   4.785   3.169   3.534
 4395TIP3    H113128   4.871   3.201   3.561
 4395TIP3    H213129   4.803   3.086   3.491
 4396TIP3   OH213130   2.399   5.357   0.161
 4396TIP3    H113131   2.390   5.290   0.229
 4396TIP3    H213132   2.474   5.329   0.109
 4397TIP3   OH213133   2.978   0.751   1.832
 4397TIP3    H113134   3.045   0.686   1.813
 4397TIP3    H213135   2.984   0.765   1.927
 4398TIP3   OH213136   7.854   1.704   3.739
 4398TIP3    H113137   7.902   1.698   3.821
 4398TIP3    H213138   7.762   1.713   3.765
 4399TIP3   OH213139   5.091   2.061   3.366
 4399TIP3    H113140   5.173   2.111   3.361
 4399TIP3    H213141   5.111   1.978   3.322
 4400TIP3   OH213142   0.431   7.284   5.193
 4400TIP3    H113143   0.516   7.313   5.158
 4400TIP3    H213144   0.406   7.354   5.253
 4401TIP3   OH213145   3.224   0.318   0.266
 4401TIP3    H113146   3.270   0.239   0.239
 4401TIP3    H213147   3.274   0.350   0.342
 4402TIP3   OH213148   3.649   3.208   6.656
 4402TIP3    H113149   3.639   3.193   6.562
 4402TIP3    H213150   3.736   3.247   6.665
 4403TIP3   OH213151   7.026   6.105   4.141
 4403TIP3    H113152   7.112   6.121   4.103
 4403TIP3    H213153   6.985   6.192   4.144
 4404TIP3   OH213154   0.779   1.955   5.604
 4404TIP3    H113155   0.800   1.892   5.673
 4404TIP3    H213156   0.770   2.039   5.650
 4405TIP3   OH213157   5.808   6.426   1.702
 4405TIP3    H113158   5.779   6.343   1.665
 4405TIP3    H213159   5.746   6.491   1.668
 4406TIP3   OH213160   1.695   2.443   2.869
 4406TIP3    H113161   1.669   2.533   2.887
 4406TIP3    H213162   1.614   2.393   2.869
 4407TIP3   OH213163   7.943   0.387   3.051
 4407TIP3    H113164   8.016   0.449   3.050
 4407TIP3    H213165   7.866   0.442   3.066
 4408TIP3   OH213166   2.912   1.276   3.845
 4408TIP3    H113167   2.949   1.353   3.803
 4408TIP3    H213168   2.854   1.311   3.913
 4409TIP3   OH213169   7.262   1.317   4.916
 4409TIP3    H113170   7.270   1.222   4.927
 4409TIP3    H213171   7.343   1.352   4.952
 4410TIP3   OH213172   4.630   0.727   0.740
 4410TIP3    H113173   4.599   0.741   0.651
 4410TIP3    H213174   4.705   0.668   0.731
 4411TIP3   OH213175   1.040   5.403   0.382
 4411TIP3    H113176   1.053   5.492   0.350
 4411TIP3    H213177   1.100   5.395   0.456
 4412TIP3   OH213178   2.193   0.862   0.239
 4412TIP3    H113179   2.262   0.796   0.235
 4412TIP3    H213180   2.186   0.895   0.150
 4413TIP3   OH213181   7.334   1.850   5.839
 4413TIP3    H113182   7.306   1.764   5.871
 4413TIP3    H213183   7.412   1.870   5.892
 4414TIP3   OH213184   0.673   0.342   5.402
 4414TIP3    H113185   0.751   0.377   5.360
 4414TIP3    H213186   0.601   0.368   5.344
 4415TIP3   OH213187   2.048   0.264   4.175
 4415TIP3    H113188   2.074   0.178   4.143
 4415TIP3    H213189   2.127   0.299   4.217
 4416TIP3   OH213190   1.812   6.445   1.581
 4416TIP3    H113191   1.774   6.357   1.578
 4416TIP3    H213192   1.852   6.451   1.668
 4417TIP3   OH213193   7.776   3.507   0.512
 4417TIP3    H113194   7.761   3.432   0.455
 4417TIP3    H213195   7.836   3.563   0.463
 4418TIP3   OH213196   2.160   3.119   6.507
 4418TIP3    H113197   2.131   3.036   6.470
 4418TIP3    H213198   2.252   3.126   6.481
 4419TIP3   OH213199   6.906   2.242   6.015
 4419TIP3    H113200   6.925   2.241   6.108
 4419TIP3    H213201   6.945   2.161   5.981
 4420TIP3   OH213202   3.584   3.396   5.358
 4420TIP3    H113203   3.616   3.358   5.440
 4420TIP3    H213204   3.567   3.320   5.302
 4421TIP3   OH213205   4.596   3.721   2.512
 4421TIP3    H113206   4.665   3.711   2.446
 4421TIP3    H213207   4.563   3.632   2.525
 4422TIP3   OH213208   7.649   0.124   1.471
 4422TIP3    H113209   7.676   0.216   1.470
 4422TIP3    H213210   7.554   0.127   1.461
 4423TIP3   OH213211   8.043   7.213   1.020
 4423TIP3    H113212   7.953   7.192   0.996
 4423TIP3    H213213   8.046   7.198   1.114
 4424TIP3   OH213214   7.530   2.144   5.930
 4424TIP3    H113215   7.517   2.238   5.944
 4424TIP3    H213216   7.467   2.120   5.863
 4425TIP3   OH213217   5.153   4.317   2.359
 4425TIP3    H113218   5.067   4.350   2.335
 4425TIP3    H213219   5.212   4.392   2.349
 4426TIP3   OH213220   1.625   1.879   6.790
 4426TIP3    H113221   1.557   1.945   6.806
 4426TIP3    H213222   1.591   1.828   6.716
 4427TIP3   OH213223   1.727   2.314   3.092
 4427TIP3    H113224   1.727   2.369   3.013
 4427TIP3    H213225   1.635   2.289   3.103
 4428TIP3   OH213226   5.362   5.835   1.426
 4428TIP3    H113227   5.396   5.848   1.337
 4428TIP3    H213228   5.267   5.826   1.414
 4429TIP3   OH213229   5.146   7.816   4.813
 4429TIP3    H113230   5.204   7.742   4.832
 4429TIP3    H213231   5.199   7.893   4.829
 4430TIP3   OH213232   1.546   0.639   2.298
 4430TIP3    H113233   1.579   0.635   2.208
 4430TIP3    H213234   1.557   0.731   2.323
 4431TIP3   OH213235   5.258   1.000   4.604
 4431TIP3    H113236   5.294   0.936   4.544
 4431TIP3    H213237   5.207   1.060   4.549
 4432TIP3   OH213238   2.016   2.628   4.420
 4432TIP3    H113239   2.076   2.647   4.348
 4432TIP3    H213240   1.942   2.687   4.407
 4433TIP3   OH213241   4.656   4.374   4.351
 4433TIP3    H113242   4.607   4.453   4.327
 4433TIP3    H213243   4.611   4.340   4.428
 4434TIP3   OH213244   7.985   1.882   5.402
 4434TIP3    H113245   7.893   1.889   5.427
 4434TIP3    H213246   8.009   1.970   5.371
 4435TIP3   OH213247   3.115   7.335   6.499
 4435TIP3    H113248   3.163   7.260   6.534
 4435TIP3    H213249   3.044   7.349   6.562
 4436TIP3   OH213250   1.762   3.034   1.568
 4436TIP3    H113251   1.709   2.955   1.575
 4436TIP3    H213252   1.700   3.102   1.543
 4437TIP3   OH213253   6.613   7.445   4.122
 4437TIP3    H113254   6.594   7.363   4.168
 4437TIP3    H213255   6.675   7.490   4.179
 4438TIP3   OH213256   0.204   1.532   4.327
 4438TIP3    H113257   0.133   1.469   4.343
 4438TIP3    H213258   0.184   1.605   4.385
 4439TIP3   OH213259   6.096   3.238  -0.023
 4439TIP3    H113260   6.006   3.268  -0.012
 4439TIP3    H213261   6.104   3.164   0.037
 4440TIP3   OH213262   3.335   1.761   0.518
 4440TIP3    H113263   3.293   1.675   0.519
 4440TIP3    H213264   3.268   1.821   0.549
 4441TIP3   OH213265   4.243   5.807   5.709
 4441TIP3    H113266   4.247   5.724   5.757
 4441TIP3    H213267   4.149   5.824   5.699
 4442TIP3   OH213268   2.923   0.926   2.043
 4442TIP3    H113269   2.991   0.994   2.048
 4442TIP3    H213270   2.842   0.973   2.063
 4443TIP3   OH213271   5.448   3.338   2.472
 4443TIP3    H113272   5.404   3.275   2.530
 4443TIP3    H213273   5.377   3.391   2.437
 4444TIP3   OH213274   1.144   0.808   2.817
 4444TIP3    H113275   1.108   0.790   2.730
 4444TIP3    H213276   1.077   0.861   2.860
 4445TIP3   OH213277   7.338   2.067   6.569
 4445TIP3    H113278   7.426   2.035   6.550
 4445TIP3    H213279   7.330   2.148   6.518
 4446TIP3   OH213280   4.830   2.700   6.336
 4446TIP3    H113281   4.740   2.730   6.332
 4446TIP3    H213282   4.827   2.608   6.310
 4447TIP3   OH213283   4.485   7.661   3.638
 4447TIP3    H113284   4.455   7.711   3.714
 4447TIP3    H213285   4.422   7.680   3.569
 4448TIP3   OH213286   7.269   0.082   6.365
 4448TIP3    H113287   7.296   0.121   6.448
 4448TIP3    H213288   7.344   0.093   6.308
 4449TIP3   OH213289   6.282   4.297   0.058
 4449TIP3    H113290   6.190   4.318   0.045
 4449TIP3    H213291   6.320   4.377   0.093
 4450TIP3   OH213292   6.731   0.950   5.690
 4450TIP3    H113293   6.690   0.871   5.655
 4450TIP3    H213294   6.820   0.949   5.654
 4451TIP3   OH213295   3.296   2.434   4.978
 4451TIP3    H113296   3.283   2.525   4.952
 4451TIP3    H213297   3.299   2.386   4.895
 4452TIP3   OH213298   0.295   0.088   1.552
 4452TIP3    H113299   0.255   0.069   1.467
 4452TIP3    H213300   0.347   0.009   1.571
 4453TIP3   OH213301   7.939   0.079   3.491
 4453TIP3    H113302   8.018   0.103   3.444
 4453TIP3    H213303   7.867   0.112   3.436
 4454TIP3   OH213304   1.922   5.466   3.055
 4454TIP3    H113305   1.890   5.511   3.133
 4454TIP3    H213306   2.017   5.467   3.063
 4455TIP3   OH213307   0.806   3.106   3.127
 4455TIP3    H113308   0.839   3.028   3.172
 4455TIP3    H213309   0.801   3.081   3.035
 4456TIP3   OH213310   3.950   7.160   3.597
 4456TIP3    H113311   3.912   7.170   3.510
 4456TIP3    H213312   3.887   7.106   3.645
 4457TIP3   OH213313   0.420   2.358   6.381
 4457TIP3    H113314   0.345   2.376   6.438
 4457TIP3    H213315   0.491   2.410   6.418
 4458TIP3   OH213316   6.950   1.464   4.025
 4458TIP3    H113317   6.967   1.554   3.996
 4458TIP3    H213318   6.897   1.426   3.956
 4459TIP3   OH213319   6.186   5.546   4.483
 4459TIP3    H113320   6.246   5.606   4.527
 4459TIP3    H213321   6.225   5.459   4.494
 4460TIP3   OH213322   1.583   1.592   0.372
 4460TIP3    H113323   1.664   1.621   0.331
 4460TIP3    H213324   1.517   1.602   0.303
 4461TIP3   OH213325   5.485   3.947   2.082
 4461TIP3    H113326   5.410   3.889   2.082
 4461TIP3    H213327   5.465   4.012   2.014
 4462TIP3   OH213328   4.223   3.652   1.733
 4462TIP3    H113329   4.283   3.674   1.804
 4462TIP3    H213330   4.219   3.732   1.680
 4463TIP3   OH213331   7.258   0.673   0.128
 4463TIP3    H113332   7.330   0.627   0.171
 4463TIP3    H213333   7.179   0.637   0.169
 4464TIP3   OH213334   4.995   7.534   6.072
 4464TIP3    H113335   4.934   7.569   6.007
 4464TIP3    H213336   4.938   7.500   6.142
 4465TIP3   OH213337   1.894   2.651   0.529
 4465TIP3    H113338   1.838   2.580   0.560
 4465TIP3    H213339   1.843   2.731   0.546
 4466TIP3   OH213340   3.681   0.681   2.129
 4466TIP3    H113341   3.735   0.614   2.169
 4466TIP3    H213342   3.592   0.646   2.133
 4467TIP3   OH213343   3.767   2.592   0.059
 4467TIP3    H113344   3.790   2.642   0.138
 4467TIP3    H213345   3.851   2.560   0.026
 4468TIP3   OH213346   3.887   7.611   4.514
 4468TIP3    H113347   3.805   7.602   4.466
 4468TIP3    H213348   3.943   7.541   4.481
 4469TIP3   OH213349   3.387   2.686   0.664
 4469TIP3    H113350   3.343   2.601   0.662
 4469TIP3    H213351   3.315   2.750   0.668
 4470TIP3   OH213352   6.978   1.159   5.201
 4470TIP3    H113353   7.032   1.181   5.277
 4470TIP3    H213354   6.996   1.229   5.138
 4471TIP3   OH213355   2.837   5.363   1.257
 4471TIP3    H113356   2.822   5.276   1.221
 4471TIP3    H213357   2.773   5.419   1.213
 4472TIP3   OH213358   6.737   3.362   2.215
 4472TIP3    H113359   6.717   3.305   2.141
 4472TIP3    H213360   6.699   3.447   2.191
 4473TIP3   OH213361   0.376   2.829   0.240
 4473TIP3    H113362   0.403   2.911   0.199
 4473TIP3    H213363   0.388   2.763   0.172
 4474TIP3   OH213364   0.476   0.420   3.687
 4474TIP3    H113365   0.415   0.494   3.681
 4474TIP3    H213366   0.487   0.390   3.597
 4475TIP3   OH213367   7.908   5.034   1.089
 4475TIP3    H113368   7.952   5.101   1.141
 4475TIP3    H213369   7.901   5.071   1.001
 4476TIP3   OH213370   0.211   2.648   1.077
 4476TIP3    H113371   0.254   2.698   1.147
 4476TIP3    H213372   0.140   2.602   1.121
 4477TIP3   OH213373   1.405   1.481   2.984
 4477TIP3    H113374   1.355   1.412   3.028
 4477TIP3    H213375   1.482   1.437   2.948
 4478TIP3   OH213376   7.172   5.547   0.711
 4478TIP3    H113377   7.113   5.541   0.636
 4478TIP3    H213378   7.189   5.456   0.735
 4479TIP3   OH213379   0.123   0.224   6.060
 4479TIP3    H113380   0.211   0.260   6.066
 4479TIP3    H213381   0.091   0.225   6.151
 4480TIP3   OH213382   3.241   2.531   3.048
 4480TIP3    H113383   3.239   2.608   2.991
 4480TIP3    H213384   3.312   2.547   3.109
 4481TIP3   OH213385   5.075   4.810   1.550
 4481TIP3    H113386   5.169   4.793   1.542
 4481TIP3    H213387   5.037   4.724   1.568
 4482TIP3   OH213388   2.316   5.685   4.785
 4482TIP3    H113389   2.383   5.736   4.739
 4482TIP3    H213390   2.319   5.718   4.875
 4483TIP3   OH213391   4.691   2.432   1.667
 4483TIP3    H113392   4.699   2.526   1.681
 4483TIP3    H213393   4.688   2.395   1.755
 4484TIP3   OH213394   7.919   2.896   3.981
 4484TIP3    H113395   7.991   2.839   4.009
 4484TIP3    H213396   7.859   2.838   3.935
 4485TIP3   OH213397   2.732   5.259   5.266
 4485TIP3    H113398   2.744   5.242   5.359
 4485TIP3    H213399   2.741   5.354   5.257
 4486TIP3   OH213400   1.757   2.861   5.893
 4486TIP3    H113401   1.849   2.838   5.908
 4486TIP3    H213402   1.759   2.913   5.812
 4487TIP3   OH213403   1.126   0.498   5.633
 4487TIP3    H113404   1.189   0.524   5.701
 4487TIP3    H213405   1.094   0.413   5.662
 4488TIP3   OH213406   3.291   4.341   6.363
 4488TIP3    H113407   3.377   4.314   6.395
 4488TIP3    H213408   3.237   4.262   6.369
 4489TIP3   OH213409   3.167   4.417   1.456
 4489TIP3    H113410   3.221   4.437   1.380
 4489TIP3    H213411   3.116   4.497   1.471
 4490TIP3   OH213412   0.270   3.128   4.830
 4490TIP3    H113413   0.248   3.176   4.750
 4490TIP3    H213414   0.185   3.113   4.872
 4491TIP3   OH213415   0.849   3.083   3.927
 4491TIP3    H113416   0.825   3.043   4.011
 4491TIP3    H213417   0.820   3.021   3.861
 4492TIP3   OH213418   4.017   7.204   0.781
 4492TIP3    H113419   4.034   7.188   0.688
 4492TIP3    H213420   3.976   7.123   0.812
 4493TIP3   OH213421   7.818   2.453   3.942
 4493TIP3    H113422   7.885   2.413   3.997
 4493TIP3    H213423   7.736   2.409   3.967
 4494TIP3   OH213424   6.417   0.379   2.480
 4494TIP3    H113425   6.423   0.327   2.560
 4494TIP3    H213426   6.507   0.399   2.458
 4495TIP3   OH213427   1.088   6.244   1.968
 4495TIP3    H113428   1.138   6.247   1.887
 4495TIP3    H213429   1.025   6.316   1.961
 4496TIP3   OH213430   6.566   4.755   3.676
 4496TIP3    H113431   6.580   4.672   3.722
 4496TIP3    H213432   6.471   4.761   3.665
 4497TIP3   OH213433   5.294   0.700   0.897
 4497TIP3    H113434   5.293   0.782   0.846
 4497TIP3    H213435   5.328   0.725   0.983
 4498TIP3   OH213436   2.096   2.225   1.770
 4498TIP3    H113437   2.155   2.293   1.740
 4498TIP3    H213438   2.152   2.150   1.787
 4499TIP3   OH213439   1.688   1.867   6.202
 4499TIP3    H113440   1.617   1.898   6.258
 4499TIP3    H213441   1.756   1.934   6.209
 4500TIP3   OH213442   6.280   5.323   1.490
 4500TIP3    H113443   6.213   5.311   1.423
 4500TIP3    H213444   6.234   5.308   1.573
 4501TIP3   OH213445   8.201   6.384   5.942
 4501TIP3    H113446   8.264   6.311   5.945
 4501TIP3    H213447   8.160   6.376   5.856
 4502TIP3   OH213448   2.798   2.005   0.600
 4502TIP3    H113449   2.722   1.958   0.635
 4502TIP3    H213450   2.843   1.940   0.546
 4503TIP3   OH213451   3.700   2.640   4.550
 4503TIP3    H113452   3.718   2.732   4.566
 4503TIP3    H213453   3.656   2.610   4.630
 4504TIP3   OH213454   6.962   1.984   2.781
 4504TIP3    H113455   6.973   1.889   2.780
 4504TIP3    H213456   7.029   2.015   2.842
 4505TIP3   OH213457   7.149   3.967   2.679
 4505TIP3    H113458   7.223   3.927   2.632
 4505TIP3    H213459   7.189   4.018   2.749
 4506TIP3   OH213460   6.642   5.185   4.805
 4506TIP3    H113461   6.726   5.164   4.765
 4506TIP3    H213462   6.603   5.100   4.826
 4507TIP3   OH213463   6.306   3.776   6.036
 4507TIP3    H113464   6.326   3.690   6.073
 4507TIP3    H213465   6.226   3.762   5.985
 4508TIP3   OH213466   4.894   7.391   5.687
 4508TIP3    H113467   4.970   7.429   5.642
 4508TIP3    H213468   4.932   7.342   5.760
 4509TIP3   OH213469   7.139   4.347   3.589
 4509TIP3    H113470   7.156   4.439   3.570
 4509TIP3    H213471   7.078   4.319   3.521
 4510TIP3   OH213472   5.378   2.052   6.050
 4510TIP3    H113473   5.451   1.998   6.080
 4510TIP3    H213474   5.300   2.007   6.081
 4511TIP3   OH213475   5.032   7.034   2.530
 4511TIP3    H113476   5.018   7.011   2.622
 4511TIP3    H213477   5.126   7.024   2.517
 4512TIP3   OH213478   4.456   0.486   1.710
 4512TIP3    H113479   4.490   0.460   1.795
 4512TIP3    H213480   4.377   0.432   1.698
 4513TIP3   OH213481   4.755   0.069   1.469
 4513TIP3    H113482   4.734   0.159   1.446
 4513TIP3    H213483   4.676   0.035   1.511
 4514TIP3   OH213484   7.743   1.639   1.366
 4514TIP3    H113485   7.792   1.604   1.292
 4514TIP3    H213486   7.728   1.564   1.423
 4515TIP3   OH213487   4.051   3.606   4.730
 4515TIP3    H113488   4.008   3.692   4.729
 4515TIP3    H213489   4.144   3.627   4.720
 4516TIP3   OH213490   4.490   0.095   5.441
 4516TIP3    H113491   4.456   0.072   5.528
 4516TIP3    H213492   4.584   0.108   5.456
 4517TIP3   OH213493   1.585   2.082   2.713
 4517TIP3    H113494   1.662   2.067   2.768
 4517TIP3    H213495   1.557   2.170   2.735
 4518TIP3   OH213496   1.943   7.221   0.025
 4518TIP3    H113497   1.953   7.127   0.038
 4518TIP3    H213498   1.862   7.243   0.070
 4519TIP3   OH213499   0.003   4.119   5.575
 4519TIP3    H113500   0.077   4.068   5.610
 4519TIP3    H213501  -0.074   4.068   5.598
 4520TIP3   OH213502   2.408   0.368   6.095
 4520TIP3    H113503   2.492   0.408   6.071
 4520TIP3    H213504   2.379   0.418   6.171
 4521TIP3   OH213505   5.902   4.836   5.284
 4521TIP3    H113506   5.827   4.782   5.310
 4521TIP3    H213507   5.940   4.790   5.210
 4522TIP3   OH213508   2.150   7.090   2.642
 4522TIP3    H113509   2.069   7.080   2.592
 4522TIP3    H213510   2.122   7.124   2.727
 4523TIP3   OH213511   6.204   1.901   2.098
 4523TIP3    H113512   6.138   1.964   2.127
 4523TIP3    H213513   6.167   1.863   2.018
 4524TIP3   OH213514   7.864   6.855   2.592
 4524TIP3    H113515   7.771   6.833   2.601
 4524TIP3    H213516   7.875   6.873   2.499
 4525TIP3   OH213517   8.115   7.383   5.386
 4525TIP3    H113518   8.186   7.329   5.422
 4525TIP3    H213519   8.050   7.320   5.356
 4526TIP3   OH213520   2.725   6.583   0.966
 4526TIP3    H113521   2.653   6.633   0.927
 4526TIP3    H213522   2.773   6.646   1.019
 4527TIP3   OH213523   7.699   6.467   0.859
 4527TIP3    H113524   7.794   6.453   0.850
 4527TIP3    H213525   7.660   6.404   0.798
 4528TIP3   OH213526   6.061   1.004   3.240
 4528TIP3    H113527   6.103   0.935   3.292
 4528TIP3    H213528   6.130   1.069   3.227
 4529TIP3   OH213529   3.144   4.019   3.646
 4529TIP3    H113530   3.068   3.969   3.673
 4529TIP3    H213531   3.124   4.048   3.557
 4530TIP3   OH213532   5.028   3.320   3.599
 4530TIP3    H113533   5.065   3.373   3.529
 4530TIP3    H213534   4.957   3.373   3.635
 4531TIP3   OH213535   1.841   5.596   4.071
 4531TIP3    H113536   1.762   5.649   4.062
 4531TIP3    H213537   1.810   5.506   4.073
 4532TIP3   OH213538   6.444   5.147   1.875
 4532TIP3    H113539   6.442   5.161   1.969
 4532TIP3    H213540   6.507   5.212   1.842
 4533TIP3   OH213541   0.008   0.299   4.630
 4533TIP3    H113542   0.094   0.340   4.636
 4533TIP3    H213543   0.016   0.237   4.558
 4534TIP3   OH213544   6.569   6.787   0.978
 4534TIP3    H113545   6.524   6.817   1.057
 4534TIP3    H213546   6.500   6.747   0.925
 4535TIP3   OH213547   5.791   2.047   0.269
 4535TIP3    H113548   5.849   2.020   0.340
 4535TIP3    H213549   5.717   2.088   0.313
 4536TIP3   OH213550   0.319   1.382   3.565
 4536TIP3    H113551   0.365   1.385   3.481
 4536TIP3    H213552   0.365   1.445   3.620
 4537TIP3   OH213553   4.473   5.709   5.155
 4537TIP3    H113554   4.457   5.714   5.250
 4537TIP3    H213555   4.462   5.617   5.134
 4538TIP3   OH213556   7.902   0.404   0.429
 4538TIP3    H113557   7.906   0.316   0.468
 4538TIP3    H213558   7.870   0.460   0.499
 4539TIP3   OH213559   4.274   5.059   3.259
 4539TIP3    H113560   4.310   5.120   3.195
 4539TIP3    H213561   4.276   5.107   3.342
 4540TIP3   OH213562   3.446   6.596   2.344
 4540TIP3    H113563   3.407   6.626   2.262
 4540TIP3    H213564   3.377   6.605   2.409
 4541TIP3   OH213565   3.628   0.643   0.473
 4541TIP3    H113566   3.571   0.639   0.396
 4541TIP3    H213567   3.710   0.605   0.444
 4542TIP3   OH213568   4.481   0.299   4.677
 4542TIP3    H113569   4.505   0.268   4.590
 4542TIP3    H213570   4.558   0.346   4.708
 4543TIP3   OH213571   6.524   3.934   6.020
 4543TIP3    H113572   6.438   3.897   6.038
 4543TIP3    H213573   6.533   3.928   5.925
 4544TIP3   OH213574   4.192   1.014   0.093
 4544TIP3    H113575   4.161   1.050   0.010
 4544TIP3    H213576   4.113   0.996   0.144
 4545TIP3   OH213577   3.128   7.166   5.079
 4545TIP3    H113578   3.073   7.098   5.040
 4545TIP3    H213579   3.199   7.119   5.121
 4546TIP3   OH213580   6.999   7.626   4.652
 4546TIP3    H113581   6.975   7.535   4.669
 4546TIP3    H213582   6.979   7.672   4.734
 4547TIP3   OH213583   5.099   7.793   1.022
 4547TIP3    H113584   5.187   7.815   1.052
 4547TIP3    H213585   5.080   7.858   0.954
 4548TIP3   OH213586   2.457   1.713   3.382
 4548TIP3    H113587   2.546   1.684   3.364
 4548TIP3    H213588   2.421   1.732   3.295
 4549TIP3   OH213589   4.042   3.237   4.072
 4549TIP3    H113590   4.059   3.256   4.164
 4549TIP3    H213591   4.129   3.222   4.035
 4550TIP3   OH213592   1.331   3.569   6.112
 4550TIP3    H113593   1.309   3.508   6.041
 4550TIP3    H213594   1.283   3.536   6.188
 4551TIP3   OH213595   8.125   6.996   3.294
 4551TIP3    H113596   8.188   6.931   3.263
 4551TIP3    H213597   8.133   7.069   3.232
 4552TIP3   OH213598   4.100   3.960   5.400
 4552TIP3    H113599   4.052   3.879   5.417
 4552TIP3    H213600   4.033   4.022   5.372
 4553TIP3   OH213601   6.963   6.294   2.717
 4553TIP3    H113602   6.965   6.390   2.714
 4553TIP3    H213603   6.881   6.270   2.674
 4554TIP3   OH213604   2.407   6.638   4.851
 4554TIP3    H113605   2.497   6.654   4.824
 4554TIP3    H213606   2.410   6.554   4.897
 4555TIP3   OH213607   1.216   3.644   2.944
 4555TIP3    H113608   1.270   3.614   3.017
 4555TIP3    H213609   1.232   3.580   2.875
 4556TIP3   OH213610   3.336   1.589   1.809
 4556TIP3    H113611   3.431   1.576   1.818
 4556TIP3    H213612   3.327   1.680   1.780
 4557TIP3   OH213613   1.173   3.925   3.512
 4557TIP3    H113614   1.219   3.977   3.446
 4557TIP3    H213615   1.081   3.931   3.487
 4558TIP3   OH213616   1.583   0.943   0.802
 4558TIP3    H113617   1.528   0.991   0.740
 4558TIP3    H213618   1.574   0.851   0.775
 4559TIP3   OH213619   4.454   2.992   0.665
 4559TIP3    H113620   4.550   2.989   0.656
 4559TIP3    H213621   4.438   2.965   0.756
 4560TIP3   OH213622   7.395   7.605   3.973
 4560TIP3    H113623   7.358   7.656   3.901
 4560TIP3    H213624   7.371   7.654   4.052
 4561TIP3   OH213625   6.250   1.466   5.609
 4561TIP3    H113626   6.256   1.525   5.533
 4561TIP3    H213627   6.299   1.388   5.583
 4562TIP3   OH213628   7.800   6.910   6.369
 4562TIP3    H113629   7.733   6.847   6.342
 4562TIP3    H213630   7.757   6.962   6.437
 4563TIP3   OH213631   6.058   0.784   0.587
 4563TIP3    H113632   6.154   0.793   0.583
 4563TIP3    H213633   6.025   0.858   0.535
 4564TIP3   OH213634   4.071   1.042   6.373
 4564TIP3    H113635   4.142   1.096   6.339
 4564TIP3    H213636   4.112   0.986   6.439
 4565TIP3   OH213637   5.806   3.221   4.880
 4565TIP3    H113638   5.714   3.234   4.901
 4565TIP3    H213639   5.853   3.286   4.932
 4566TIP3   OH213640   4.177   1.921   3.486
 4566TIP3    H113641   4.131   1.968   3.555
 4566TIP3    H213642   4.156   1.829   3.501
 4567TIP3   OH213643   2.883   1.101   2.768
 4567TIP3    H113644   2.792   1.106   2.737
 4567TIP3    H213645   2.875   1.076   2.861
 4568TIP3   OH213646   0.258   0.376   4.369
 4568TIP3    H113647   0.227   0.360   4.280
 4568TIP3    H213648   0.324   0.444   4.360
 4569TIP3   OH213649   3.544   4.120   6.701
 4569TIP3    H113650   3.566   4.061   6.773
 4569TIP3    H213651   3.456   4.093   6.673
 4570TIP3   OH213652   3.728   1.557   3.636
 4570TIP3    H113653   3.723   1.652   3.643
 4570TIP3    H213654   3.694   1.525   3.720
 4571TIP3   OH213655   2.283   1.669   3.578
 4571TIP3    H113656   2.349   1.682   3.510
 4571TIP3    H213657   2.211   1.728   3.554
 4572TIP3   OH213658   8.065   5.045   2.689
 4572TIP3    H113659   8.138   5.064   2.630
 4572TIP3    H213660   8.041   5.130   2.726
 4573TIP3   OH213661   0.875   1.810   0.580
 4573TIP3    H113662   0.828   1.744   0.528
 4573TIP3    H213663   0.871   1.890   0.527
 4574TIP3   OH213664   7.816   7.510   4.432
 4574TIP3    H113665   7.827   7.445   4.362
 4574TIP3    H213666   7.725   7.538   4.424
 4575TIP3   OH213667   7.629   6.083   2.424
 4575TIP3    H113668   7.541   6.057   2.396
 4575TIP3    H213669   7.688   6.021   2.380
 4576TIP3   OH213670   5.121   1.509   2.979
 4576TIP3    H113671   5.114   1.477   2.889
 4576TIP3    H213672   5.046   1.567   2.990
 4577TIP3   OH213673   0.623   2.931   0.585
 4577TIP3    H113674   0.689   2.864   0.604
 4577TIP3    H213675   0.672   2.999   0.537
 4578TIP3   OH213676   0.410   2.863   5.220
 4578TIP3    H113677   0.359   2.941   5.237
 4578TIP3    H213678   0.422   2.862   5.125
 4579TIP3   OH213679   2.860   1.633   2.358
 4579TIP3    H113680   2.796   1.698   2.387
 4579TIP3    H213681   2.862   1.643   2.263
 4580TIP3   OH213682   6.089   4.980   1.681
 4580TIP3    H113683   6.171   4.936   1.703
 4580TIP3    H213684   6.107   5.026   1.599
 4581TIP3   OH213685   0.380   5.684   1.084
 4581TIP3    H113686   0.375   5.595   1.048
 4581TIP3    H213687   0.313   5.685   1.153
 4582TIP3   OH213688   7.391   5.523   5.229
 4582TIP3    H113689   7.332   5.450   5.250
 4582TIP3    H213690   7.470   5.506   5.280
 4583TIP3   OH213691   1.040   4.983   6.188
 4583TIP3    H113692   1.122   5.020   6.154
 4583TIP3    H213693   1.066   4.902   6.231
 4584TIP3   OH213694   7.471   6.789   3.025
 4584TIP3    H113695   7.528   6.849   2.976
 4584TIP3    H213696   7.532   6.733   3.073
 4585TIP3   OH213697   2.673   3.040   2.332
 4585TIP3    H113698   2.720   2.999   2.405
 4585TIP3    H213699   2.715   3.005   2.254
 4586TIP3   OH213700   6.584   3.855   1.040
 4586TIP3    H113701   6.616   3.856   0.950
 4586TIP3    H213702   6.590   3.763   1.066
 4587TIP3   OH213703   1.663   7.666   2.872
 4587TIP3    H113704   1.633   7.756   2.886
 4587TIP3    H213705   1.661   7.626   2.959
 4588TIP3   OH213706   3.556   2.901   6.400
 4588TIP3    H113707   3.524   2.812   6.394
 4588TIP3    H213708   3.498   2.944   6.463
 4589TIP3   OH213709   6.405   7.261   4.481
 4589TIP3    H113710   6.405   7.210   4.400
 4589TIP3    H213711   6.375   7.199   4.548
 4590TIP3   OH213712   6.326   0.856   2.311
 4590TIP3    H113713   6.360   0.841   2.223
 4590TIP3    H213714   6.231   0.863   2.300
 4591TIP3   OH213715   3.911   6.775   2.534
 4591TIP3    H113716   3.839   6.819   2.489
 4591TIP3    H213717   3.989   6.822   2.505
 4592TIP3   OH213718   7.155   2.059   2.980
 4592TIP3    H113719   7.102   2.038   3.056
 4592TIP3    H213720   7.229   2.109   3.015
 4593TIP3   OH213721   3.108   6.053   0.861
 4593TIP3    H113722   3.074   5.976   0.816
 4593TIP3    H213723   3.122   6.024   0.951
 4594TIP3   OH213724   5.013   0.616   0.873
 4594TIP3    H113725   4.969   0.663   0.944
 4594TIP3    H213726   5.106   0.635   0.885
 4595TIP3   OH213727   2.210   1.590   0.313
 4595TIP3    H113728   2.290   1.631   0.345
 4595TIP3    H213729   2.144   1.612   0.379
 4596TIP3   OH213730   6.045   0.306   4.337
 4596TIP3    H113731   5.950   0.308   4.325
 4596TIP3    H213732   6.080   0.351   4.260
 4597TIP3   OH213733   1.742   1.309   0.902
 4597TIP3    H113734   1.663   1.312   0.848
 4597TIP3    H213735   1.808   1.355   0.850
 4598TIP3   OH213736   7.244   1.374   6.298
 4598TIP3    H113737   7.288   1.293   6.274
 4598TIP3    H213738   7.174   1.347   6.357
 4599TIP3   OH213739   2.602   1.402   3.419
 4599TIP3    H113740   2.674   1.360   3.465
 4599TIP3    H213741   2.542   1.431   3.488
 4600TIP3   OH213742   4.800   2.288   5.956
 4600TIP3    H113743   4.816   2.194   5.958
 4600TIP3    H213744   4.886   2.328   5.970
 4601TIP3   OH213745   1.806   1.968   5.744
 4601TIP3    H113746   1.758   1.991   5.664
 4601TIP3    H213747   1.858   1.892   5.719
 4602TIP3   OH213748   6.642   0.119   5.393
 4602TIP3    H113749   6.566   0.094   5.446
 4602TIP3    H213750   6.606   0.172   5.322
 4603TIP3   OH213751   6.426   3.864   0.230
 4603TIP3    H113752   6.426   3.959   0.217
 4603TIP3    H213753   6.344   3.846   0.276
 4604TIP3   OH213754   4.634   1.961   5.569
 4604TIP3    H113755   4.626   1.996   5.657
 4604TIP3    H213756   4.544   1.942   5.543
 4605TIP3   OH213757   2.736   7.577   6.731
 4605TIP3    H113758   2.820   7.588   6.686
 4605TIP3    H213759   2.673   7.558   6.662
 4606TIP3   OH213760   5.392   3.556   1.726
 4606TIP3    H113761   5.367   3.623   1.789
 4606TIP3    H213762   5.385   3.598   1.641
 4607TIP3   OH213763   4.596   0.286   3.276
 4607TIP3    H113764   4.551   0.233   3.342
 4607TIP3    H213765   4.594   0.375   3.312
 4608TIP3   OH213766   4.739   4.736   5.662
 4608TIP3    H113767   4.753   4.642   5.673
 4608TIP3    H213768   4.661   4.756   5.714
 4609TIP3   OH213769   4.300   0.851   4.794
 4609TIP3    H113770   4.380   0.875   4.748
 4609TIP3    H213771   4.261   0.934   4.820
 4610TIP3   OH213772   7.612   5.372   5.645
 4610TIP3    H113773   7.624   5.307   5.715
 4610TIP3    H213774   7.638   5.326   5.565
 4611TIP3   OH213775   5.231   0.897   5.753
 4611TIP3    H113776   5.223   0.948   5.673
 4611TIP3    H213777   5.176   0.820   5.739
 4612TIP3   OH213778   4.477   1.065   2.340
 4612TIP3    H113779   4.542   1.111   2.287
 4612TIP3    H213780   4.516   1.060   2.428
 4613TIP3   OH213781   5.584   0.635   2.144
 4613TIP3    H113782   5.649   0.694   2.106
 4613TIP3    H213783   5.610   0.548   2.113
 4614TIP3   OH213784   3.096   6.680   0.536
 4614TIP3    H113785   3.177   6.648   0.496
 4614TIP3    H213786   3.121   6.763   0.577
 4615TIP3   OH213787   5.520   6.741   2.815
 4615TIP3    H113788   5.450   6.728   2.752
 4615TIP3    H213789   5.528   6.657   2.860
 4616TIP3   OH213790   4.242   4.061   2.353
 4616TIP3    H113791   4.278   4.122   2.288
 4616TIP3    H213792   4.310   3.996   2.365
 4617TIP3   OH213793   7.858   4.628   4.530
 4617TIP3    H113794   7.818   4.690   4.470
 4617TIP3    H213795   7.798   4.624   4.605
 4618TIP3   OH213796   5.807   3.046   2.211
 4618TIP3    H113797   5.740   3.083   2.269
 4618TIP3    H213798   5.880   3.025   2.270
 4619TIP3   OH213799   5.982   7.098   5.887
 4619TIP3    H113800   5.893   7.090   5.853
 4619TIP3    H213801   5.984   7.038   5.963
 4620TIP3   OH213802   3.392   0.367   5.050
 4620TIP3    H113803   3.462   0.375   5.115
 4620TIP3    H213804   3.311   0.377   5.101
 4621TIP3   OH213805   5.206   1.688   4.521
 4621TIP3    H113806   5.204   1.629   4.446
 4621TIP3    H213807   5.117   1.721   4.529
 4622TIP3   OH213808   7.188   4.545   5.690
 4622TIP3    H113809   7.224   4.473   5.638
 4622TIP3    H213810   7.166   4.504   5.774
 4623TIP3   OH213811   4.445   3.941   4.508
 4623TIP3    H113812   4.463   4.032   4.482
 4623TIP3    H213813   4.489   3.932   4.593
 4624TIP3   OH213814   5.215   7.456   1.701
 4624TIP3    H113815   5.219   7.366   1.731
 4624TIP3    H213816   5.248   7.453   1.611
 4625TIP3   OH213817   4.290   6.537   3.321
 4625TIP3    H113818   4.236   6.597   3.269
 4625TIP3    H213819   4.365   6.517   3.266
 4626TIP3   OH213820   3.504   4.370   1.553
 4626TIP3    H113821   3.476   4.372   1.462
 4626TIP3    H213822   3.522   4.278   1.571
 4627TIP3   OH213823   0.121   5.686   2.331
 4627TIP3    H113824   0.055   5.751   2.308
 4627TIP3    H213825   0.125   5.689   2.427
 4628TIP3   OH213826   8.270   1.483   4.624
 4628TIP3    H113827   8.260   1.487   4.719
 4628TIP3    H213828   8.335   1.550   4.604
 4629TIP3   OH213829   7.111   0.914   4.843
 4629TIP3    H113830   7.085   1.006   4.832
 4629TIP3    H213831   7.028   0.866   4.843
 4630TIP3   OH213832   3.370   0.837   2.498
 4630TIP3    H113833   3.372   0.898   2.572
 4630TIP3    H213834   3.295   0.865   2.446
 4631TIP3   OH213835   1.022   3.375   1.398
 4631TIP3    H113836   1.082   3.363   1.471
 4631TIP3    H213837   1.062   3.327   1.326
 4632TIP3   OH213838   7.657   0.976   4.449
 4632TIP3    H113839   7.743   0.972   4.490
 4632TIP3    H213840   7.609   0.902   4.486
 4633TIP3   OH213841   5.496   5.892   0.628
 4633TIP3    H113842   5.469   5.946   0.554
 4633TIP3    H213843   5.584   5.923   0.651
 4634TIP3   OH213844   4.647   0.644   4.476
 4634TIP3    H113845   4.613   0.657   4.565
 4634TIP3    H213846   4.740   0.625   4.488
 4635TIP3   OH213847   6.167   0.692   6.113
 4635TIP3    H113848   6.144   0.621   6.172
 4635TIP3    H213849   6.084   0.719   6.073
 4636TIP3   OH213850   5.489   2.503   4.825
 4636TIP3    H113851   5.398   2.504   4.854
 4636TIP3    H213852   5.485   2.475   4.734
 4637TIP3   OH213853   4.132   1.202   4.635
 4637TIP3    H113854   4.203   1.263   4.615
 4637TIP3    H213855   4.092   1.182   4.551
 4638TIP3   OH213856   5.016   3.533   3.995
 4638TIP3    H113857   4.946   3.505   4.054
 4638TIP3    H213858   5.005   3.628   3.988
 4639TIP3   OH213859   6.287   1.584   0.365
 4639TIP3    H113860   6.193   1.586   0.353
 4639TIP3    H213861   6.321   1.643   0.298
 4640TIP3   OH213862   5.038   1.081   2.484
 4640TIP3    H113863   5.074   0.998   2.451
 4640TIP3    H213864   4.978   1.055   2.553
 4641TIP3   OH213865   6.589   0.491   1.361
 4641TIP3    H113866   6.537   0.543   1.421
 4641TIP3    H213867   6.658   0.452   1.416
 4642TIP3   OH213868   4.884   2.044   5.494
 4642TIP3    H113869   4.808   2.005   5.535
 4642TIP3    H213870   4.953   2.038   5.560
 4643TIP3   OH213871   3.710   2.599   2.878
 4643TIP3    H113872   3.717   2.675   2.821
 4643TIP3    H213873   3.751   2.627   2.960
 4644TIP3   OH213874   7.484   5.914   4.359
 4644TIP3    H113875   7.561   5.953   4.319
 4644TIP3    H213876   7.419   5.909   4.289
 4645TIP3   OH213877   1.093   6.068   0.019
 4645TIP3    H113878   1.160   6.064   0.087
 4645TIP3    H213879   1.136   6.036  -0.060
 4646TIP3   OH213880   0.894   5.038   5.699
 4646TIP3    H113881   0.934   5.122   5.720
 4646TIP3    H213882   0.863   5.005   5.783
 4647TIP3   OH213883   1.827   0.690   6.626
 4647TIP3    H113884   1.845   0.761   6.564
 4647TIP3    H213885   1.761   0.726   6.685
 4648TIP3   OH213886   6.106   5.684   1.496
 4648TIP3    H113887   6.064   5.628   1.560
 4648TIP3    H213888   6.190   5.708   1.536
 4649TIP3   OH213889   6.488   7.422   2.396
 4649TIP3    H113890   6.515   7.429   2.304
 4649TIP3    H213891   6.557   7.369   2.437
 4650TIP3   OH213892   3.439   1.017   4.701
 4650TIP3    H113893   3.398   0.996   4.617
 4650TIP3    H213894   3.390   0.964   4.765
 4651TIP3   OH213895   6.439   5.795   0.873
 4651TIP3    H113896   6.423   5.706   0.905
 4651TIP3    H213897   6.496   5.834   0.940
 4652TIP3   OH213898   5.620   5.539   5.249
 4652TIP3    H113899   5.622   5.538   5.153
 4652TIP3    H213900   5.534   5.575   5.270
 4653TIP3   OH213901   7.467   7.399   0.642
 4653TIP3    H113902   7.425   7.330   0.590
 4653TIP3    H213903   7.450   7.375   0.733
 4654TIP3   OH213904   2.674   0.627   1.247
 4654TIP3    H113905   2.665   0.635   1.342
 4654TIP3    H213906   2.589   0.656   1.212
 4655TIP3   OH213907   5.048   4.675   3.203
 4655TIP3    H113908   4.968   4.721   3.177
 4655TIP3    H213909   5.034   4.651   3.295
 4656TIP3   OH213910   7.003   2.272   1.878
 4656TIP3    H113911   7.008   2.324   1.798
 4656TIP3    H213912   7.052   2.193   1.858
 4657TIP3   OH213913   7.850   7.072   1.587
 4657TIP3    H113914   7.771   7.125   1.576
 4657TIP3    H213915   7.819   6.990   1.623
 4658TIP3   OH213916   0.767   5.751   5.569
 4658TIP3    H113917   0.791   5.810   5.497
 4658TIP3    H213918   0.845   5.746   5.624
 4659TIP3   OH213919   4.638   7.327   3.805
 4659TIP3    H113920   4.606   7.382   3.876
 4659TIP3    H213921   4.627   7.380   3.726
 4660TIP3   OH213922   1.662   3.510   4.273
 4660TIP3    H113923   1.601   3.443   4.305
 4660TIP3    H213924   1.624   3.538   4.189
 4661TIP3   OH213925   0.626  -0.005   5.368
 4661TIP3    H113926   0.533  -0.022   5.354
 4661TIP3    H213927   0.657   0.028   5.284
 4662TIP3   OH213928   6.895   2.145   5.384
 4662TIP3    H113929   6.876   2.087   5.310
 4662TIP3    H213930   6.990   2.160   5.379
 4663TIP3   OH213931   8.044   4.712   4.724
 4663TIP3    H113932   8.121   4.767   4.707
 4663TIP3    H213933   8.025   4.670   4.640
 4664TIP3   OH213934   0.203   7.138   4.930
 4664TIP3    H113935   0.289   7.104   4.952
 4664TIP3    H213936   0.143   7.066   4.949
 4665TIP3   OH213937   1.767   7.000   3.630
 4665TIP3    H113938   1.853   7.042   3.635
 4665TIP3    H213939   1.753   6.984   3.537
 4666TIP3   OH213940   5.866   2.256   0.666
 4666TIP3    H113941   5.906   2.314   0.731
 4666TIP3    H213942   5.871   2.304   0.584
 4667TIP3   OH213943   5.840   7.808   4.688
 4667TIP3    H113944   5.842   7.763   4.604
 4667TIP3    H213945   5.868   7.897   4.669
 4668TIP3   OH213946   5.442   3.330   4.416
 4668TIP3    H113947   5.410   3.339   4.327
 4668TIP3    H213948   5.483   3.243   4.418
 4669TIP3   OH213949   6.209   6.613   3.491
 4669TIP3    H113950   6.216   6.520   3.512
 4669TIP3    H213951   6.280   6.629   3.428
 4670TIP3   OH213952   3.652   7.755   0.843
 4670TIP3    H113953   3.667   7.668   0.806
 4670TIP3    H213954   3.661   7.743   0.938
 4671TIP3   OH213955   6.178   6.524   2.259
 4671TIP3    H113956   6.087   6.499   2.248
 4671TIP3    H213957   6.176   6.620   2.260
 4672TIP3   OH213958   2.279   7.282   5.227
 4672TIP3    H113959   2.295   7.211   5.164
 4672TIP3    H213960   2.183   7.291   5.229
 4673TIP3   OH213961   0.507   1.563   2.629
 4673TIP3    H113962   0.456   1.546   2.709
 4673TIP3    H213963   0.581   1.615   2.659
 4674TIP3   OH213964   7.664   0.085   4.344
 4674TIP3    H113965   7.673   0.019   4.275
 4674TIP3    H213966   7.685   0.039   4.425
 4675TIP3   OH213967   4.436   0.193   6.046
 4675TIP3    H113968   4.402   0.266   6.098
 4675TIP3    H213969   4.361   0.165   5.993
 4676TIP3   OH213970   1.019   3.684   0.487
 4676TIP3    H113971   0.974   3.730   0.416
 4676TIP3    H213972   0.949   3.636   0.532
 4677TIP3   OH213973   3.289   0.669   4.291
 4677TIP3    H113974   3.340   0.726   4.233
 4677TIP3    H213975   3.218   0.635   4.237
 4678TIP3   OH213976   4.077   1.706   5.450
 4678TIP3    H113977   4.040   1.764   5.517
 4678TIP3    H213978   4.171   1.717   5.457
 4679TIP3   OH213979   5.804   7.482   2.483
 4679TIP3    H113980   5.799   7.540   2.559
 4679TIP3    H213981   5.884   7.431   2.496
 4680TIP3   OH213982   1.538   5.296   2.974
 4680TIP3    H113983   1.623   5.268   3.010
 4680TIP3    H213984   1.475   5.234   3.010
 4681TIP3   OH213985   3.904   4.485   0.718
 4681TIP3    H113986   3.977   4.476   0.780
 4681TIP3    H213987   3.921   4.568   0.674
 4682TIP3   OH213988   2.602   1.104   2.760
 4682TIP3    H113989   2.586   1.077   2.850
 4682TIP3    H213990   2.551   1.184   2.749
 4683TIP3   OH213991   1.142   7.002   4.486
 4683TIP3    H113992   1.069   6.967   4.436
 4683TIP3    H213993   1.125   6.975   4.577
 4684TIP3   OH213994   5.185   6.773   6.071
 4684TIP3    H113995   5.220   6.788   6.158
 4684TIP3    H213996   5.093   6.802   6.077
 4685TIP3   OH213997   3.434   4.997   5.469
 4685TIP3    H113998   3.371   4.959   5.408
 4685TIP3    H213999   3.392   5.076   5.501
 4686TIP3   OH214000   1.494   7.101   5.034
 4686TIP3    H114001   1.449   7.048   4.968
 4686TIP3    H214002   1.464   7.190   5.017
 4687TIP3   OH214003   1.730   0.367   5.937
 4687TIP3    H114004   1.795   0.429   5.904
 4687TIP3    H214005   1.783   0.296   5.976
 4688TIP3   OH214006   5.099   3.495   2.715
 4688TIP3    H114007   5.104   3.400   2.709
 4688TIP3    H214008   5.014   3.517   2.677
 4689TIP3   OH214009   8.099   4.968   1.459
 4689TIP3    H114010   8.077   4.876   1.475
 4689TIP3    H214011   8.177   4.984   1.512
 4690TIP3   OH214012   6.925   4.291   0.031
 4690TIP3    H114013   6.924   4.257  -0.059
 4690TIP3    H214014   6.833   4.291   0.057
 4691TIP3   OH214015   5.278   4.412   5.072
 4691TIP3    H114016   5.188   4.440   5.057
 4691TIP3    H214017   5.279   4.380   5.163
 4692TIP3   OH214018   6.799   4.885   1.194
 4692TIP3    H114019   6.886   4.894   1.232
 4692TIP3    H214020   6.761   4.972   1.199
 4693TIP3   OH214021   2.521   4.489   0.785
 4693TIP3    H114022   2.485   4.551   0.722
 4693TIP3    H214023   2.530   4.407   0.737
 4694TIP3   OH214024   5.759   2.659   6.263
 4694TIP3    H114025   5.685   2.714   6.235
 4694TIP3    H214026   5.833   2.691   6.212
 4695TIP3   OH214027   5.366   1.149   6.186
 4695TIP3    H114028   5.455   1.113   6.183
 4695TIP3    H214029   5.377   1.243   6.172
 4696TIP3   OH214030   5.654   1.956   0.727
 4696TIP3    H114031   5.652   2.021   0.798
 4696TIP3    H214032   5.563   1.948   0.699
 4697TIP3   OH214033   2.835   4.591   3.831
 4697TIP3    H114034   2.789   4.623   3.909
 4697TIP3    H214035   2.766   4.554   3.776
 4698TIP3   OH214036   1.806   4.880   3.650
 4698TIP3    H114037   1.753   4.821   3.597
 4698TIP3    H214038   1.884   4.898   3.597
 4699TIP3   OH214039   4.858   2.535   3.966
 4699TIP3    H114040   4.890   2.463   4.020
 4699TIP3    H214041   4.926   2.546   3.899
 4700TIP3   OH214042   2.397   3.091   5.281
 4700TIP3    H114043   2.303   3.105   5.276
 4700TIP3    H214044   2.421   3.056   5.194
 4701TIP3   OH214045   5.974   1.251   5.664
 4701TIP3    H114046   5.977   1.332   5.715
 4701TIP3    H214047   5.882   1.241   5.639
 4702TIP3   OH214048   4.188   6.433   3.888
 4702TIP3    H114049   4.138   6.382   3.952
 4702TIP3    H214050   4.129   6.445   3.814
 4703TIP3   OH214051   2.663   0.791   1.841
 4703TIP3    H114052   2.746   0.744   1.854
 4703TIP3    H214053   2.596   0.722   1.847
 4704TIP3   OH214054   3.316   0.944   5.277
 4704TIP3    H114055   3.283   1.025   5.316
 4704TIP3    H214056   3.410   0.946   5.293
 4705TIP3   OH214057   7.762   2.106   3.252
 4705TIP3    H114058   7.751   2.041   3.321
 4705TIP3    H214059   7.798   2.057   3.178
 4706TIP3   OH214060   7.495   2.003   1.969
 4706TIP3    H114061   7.506   2.017   1.875
 4706TIP3    H214062   7.447   1.920   1.977
 4707TIP3   OH214063   8.237   5.010   6.724
 4707TIP3    H114064   8.315   5.065   6.718
 4707TIP3    H214065   8.271   4.921   6.732
 4708TIP3   OH214066   3.575   7.213   6.437
 4708TIP3    H114067   3.513   7.140   6.429
 4708TIP3    H214068   3.661   7.171   6.442
 4709TIP3   OH214069   2.616   5.009   2.384
 4709TIP3    H114070   2.686   4.985   2.323
 4709TIP3    H214071   2.600   4.929   2.434
 4710TIP3   OH214072   0.546   7.053   3.435
 4710TIP3    H114073   0.581   6.967   3.459
 4710TIP3    H214074   0.624   7.105   3.413
 4711TIP3   OH214075   7.402   6.268   5.508
 4711TIP3    H114076   7.406   6.355   5.469
 4711TIP3    H214077   7.492   6.236   5.504
 4712TIP3   OH214078   3.132   5.219   3.957
 4712TIP3    H114079   3.119   5.314   3.950
 4712TIP3    H214080   3.077   5.183   3.887
 4713TIP3   OH214081   6.671   1.340   4.355
 4713TIP3    H114082   6.580   1.321   4.376
 4713TIP3    H214083   6.719   1.263   4.385
 4714TIP3   OH214084   4.303   5.325   2.187
 4714TIP3    H114085   4.263   5.327   2.100
 4714TIP3    H214086   4.377   5.266   2.178
 4715TIP3   OH214087   6.944   7.676   0.623
 4715TIP3    H114088   7.025   7.724   0.643
 4715TIP3    H214089   6.918   7.709   0.537
 4716TIP3   OH214090   0.069   1.175   5.383
 4716TIP3    H114091   0.158   1.153   5.412
 4716TIP3    H214092   0.081   1.240   5.314
 4717TIP3   OH214093   3.410   2.386   0.384
 4717TIP3    H114094   3.412   2.467   0.333
 4717TIP3    H214095   3.486   2.336   0.353
 4718TIP3   OH214096   8.221   7.397   6.380
 4718TIP3    H114097   8.220   7.447   6.461
 4718TIP3    H214098   8.213   7.306   6.408
 4719TIP3   OH214099   0.839   3.704   2.016
 4719TIP3    H114100   0.775   3.743   1.956
 4719TIP3    H214101   0.895   3.650   1.959
 4720TIP3   OH214102   7.766   5.949   1.916
 4720TIP3    H114103   7.820   6.027   1.926
 4720TIP3    H214104   7.806   5.884   1.974
 4721TIP3   OH214105   1.479   1.157   3.233
 4721TIP3    H114106   1.492   1.065   3.257
 4721TIP3    H214107   1.554   1.178   3.177
 4722TIP3   OH214108   4.363   3.775   0.089
 4722TIP3    H114109   4.357   3.769   0.184
 4722TIP3    H214110   4.296   3.839   0.064
 4723TIP3   OH214111   5.275   1.403   5.766
 4723TIP3    H114112   5.300   1.321   5.809
 4723TIP3    H214113   5.308   1.394   5.677
 4724TIP3   OH214114   7.367   2.659   2.834
 4724TIP3    H114115   7.356   2.621   2.747
 4724TIP3    H214116   7.285   2.706   2.851
 4725TIP3   OH214117   7.257   2.903   3.411
 4725TIP3    H114118   7.331   2.946   3.455
 4725TIP3    H214119   7.277   2.810   3.416
 4726TIP3   OH214120   0.763   2.590   1.761
 4726TIP3    H114121   0.738   2.624   1.675
 4726TIP3    H214122   0.841   2.538   1.745
 4727TIP3   OH214123   1.891   0.684   0.242
 4727TIP3    H114124   1.944   0.694   0.321
 4727TIP3    H214125   1.879   0.590   0.232
 4728TIP3   OH214126   1.703   2.006   5.265
 4728TIP3    H114127   1.766   2.070   5.234
 4728TIP3    H214128   1.682   2.033   5.354
 4729TIP3   OH214129   4.341   2.352   0.906
 4729TIP3    H114130   4.315   2.404   0.830
 4729TIP3    H214131   4.349   2.263   0.872
 4730TIP3   OH214132   3.282   4.595   0.415
 4730TIP3    H114133   3.212   4.571   0.476
 4730TIP3    H214134   3.295   4.689   0.430
 4731TIP3   OH214135   3.095   5.586   3.616
 4731TIP3    H114136   3.089   5.491   3.620
 4731TIP3    H214137   3.014   5.617   3.657
 4732TIP3   OH214138   7.872   1.906   1.919
 4732TIP3    H114139   7.789   1.858   1.922
 4732TIP3    H214140   7.867   1.956   1.837
 4733TIP3   OH214141   2.867   2.219   2.354
 4733TIP3    H114142   2.876   2.281   2.427
 4733TIP3    H214143   2.945   2.163   2.361
 4734TIP3   OH214144   0.127   4.886   4.955
 4734TIP3    H114145   0.170   4.911   4.873
 4734TIP3    H214146   0.033   4.898   4.938
 4735TIP3   OH214147   4.166   0.454   5.307
 4735TIP3    H114148   4.196   0.449   5.397
 4735TIP3    H214149   4.138   0.545   5.296
 4736TIP3   OH214150   4.676   3.026   6.652
 4736TIP3    H114151   4.692   2.994   6.564
 4736TIP3    H214152   4.594   3.076   6.645
 4737TIP3   OH214153   1.358   4.151   2.326
 4737TIP3    H114154   1.301   4.213   2.373
 4737TIP3    H214155   1.446   4.185   2.339
 4738TIP3   OH214156   1.994   6.126   5.103
 4738TIP3    H114157   1.942   6.099   5.028
 4738TIP3    H214158   2.082   6.139   5.069
 4739TIP3   OH214159   5.349   3.172   6.434
 4739TIP3    H114160   5.271   3.224   6.414
 4739TIP3    H214161   5.320   3.110   6.501
 4740TIP3   OH214162   7.275   4.803   6.339
 4740TIP3    H114163   7.366   4.800   6.310
 4740TIP3    H214164   7.279   4.842   6.426
 4741TIP3   OH214165   4.346   6.336   0.309
 4741TIP3    H114166   4.375   6.289   0.231
 4741TIP3    H214167   4.333   6.426   0.279
 4742TIP3   OH214168   4.544   5.811   3.828
 4742TIP3    H114169   4.615   5.752   3.801
 4742TIP3    H214170   4.488   5.819   3.751
 4743TIP3   OH214171   4.928   2.181   0.172
 4743TIP3    H114172   4.856   2.182   0.234
 4743TIP3    H214173   5.007   2.178   0.226
 4744TIP3   OH214174   4.525   3.738   0.381
 4744TIP3    H114175   4.523   3.650   0.420
 4744TIP3    H214176   4.447   3.781   0.416
 4745TIP3   OH214177   5.929   0.633   5.067
 4745TIP3    H114178   5.891   0.607   4.984
 4745TIP3    H214179   5.981   0.711   5.047
 4746TIP3   OH214180   0.055   7.771   4.828
 4746TIP3    H114181  -0.001   7.701   4.861
 4746TIP3    H214182  -0.003   7.845   4.813
 4747TIP3   OH214183   1.773   4.174   2.886
 4747TIP3    H114184   1.701   4.113   2.903
 4747TIP3    H214185   1.852   4.119   2.890
 4748TIP3   OH214186   4.904   5.473   5.402
 4748TIP3    H114187   4.816   5.509   5.399
 4748TIP3    H214188   4.907   5.410   5.330
 4749TIP3   OH214189   8.039   5.759   1.052
 4749TIP3    H114190   8.010   5.675   1.086
 4749TIP3    H214191   8.018   5.756   0.958
 4750TIP3   OH214192   0.378   6.764   6.462
 4750TIP3    H114193   0.365   6.817   6.383
 4750TIP3    H214194   0.396   6.676   6.428
 4751TIP3   OH214195   6.793   6.419   0.660
 4751TIP3    H114196   6.752   6.503   0.683
 4751TIP3    H214197   6.768   6.360   0.731
 4752TIP3   OH214198   5.810   3.770   2.672
 4752TIP3    H114199   5.762   3.733   2.599
 4752TIP3    H214200   5.778   3.861   2.679
 4753TIP3   OH214201   5.702   1.729   2.422
 4753TIP3    H114202   5.615   1.762   2.400
 4753TIP3    H214203   5.691   1.689   2.508
 4754TIP3   OH214204   5.520   0.197   6.733
 4754TIP3    H114205   5.482   0.257   6.798
 4754TIP3    H214206   5.463   0.120   6.736
 4755TIP3   OH214207   4.837   3.934   3.813
 4755TIP3    H114208   4.752   3.977   3.802
 4755TIP3    H214209   4.817   3.854   3.861
 4756TIP3   OH214210   7.938   0.724   0.437
 4756TIP3    H114211   7.922   0.636   0.403
 4756TIP3    H214212   7.896   0.782   0.373
 4757TIP3   OH214213   5.228   5.131   4.522
 4757TIP3    H114214   5.205   5.141   4.430
 4757TIP3    H214215   5.193   5.210   4.564
 4758TIP3   OH214216   7.304   5.975   3.366
 4758TIP3    H114217   7.258   5.988   3.283
 4758TIP3    H214218   7.397   5.984   3.343
 4759TIP3   OH214219   6.466   2.629   0.458
 4759TIP3    H114220   6.385   2.582   0.435
 4759TIP3    H214221   6.436   2.714   0.490
 4760TIP3   OH214222   5.488   1.719   5.224
 4760TIP3    H114223   5.455   1.734   5.312
 4760TIP3    H214224   5.412   1.731   5.167
 4761TIP3   OH214225   0.814   2.614   5.937
 4761TIP3    H114226   0.752   2.681   5.967
 4761TIP3    H214227   0.827   2.634   5.844
 4762TIP3   OH214228   1.349   2.025   1.648
 4762TIP3    H114229   1.375   1.962   1.716
 4762TIP3    H214230   1.258   2.004   1.630
 4763TIP3   OH214231   5.941   5.005   0.494
 4763TIP3    H114232   5.871   4.942   0.512
 4763TIP3    H214233   6.003   4.993   0.567
 4764TIP3   OH214234   5.190   5.353   4.962
 4764TIP3    H114235   5.189   5.281   5.026
 4764TIP3    H214236   5.116   5.407   4.986
 4765TIP3   OH214237   6.410   5.412   3.325
 4765TIP3    H114238   6.330   5.359   3.328
 4765TIP3    H214239   6.418   5.439   3.234
 4766TIP3   OH214240   4.460   5.721   2.188
 4766TIP3    H114241   4.412   5.711   2.106
 4766TIP3    H214242   4.397   5.699   2.256
 4767TIP3   OH214243   2.332   4.787   5.778
 4767TIP3    H114244   2.274   4.758   5.848
 4767TIP3    H214245   2.280   4.776   5.698
 4768TIP3   OH214246   3.213   0.427   5.231
 4768TIP3    H114247   3.193   0.353   5.288
 4768TIP3    H214248   3.221   0.502   5.290
 4769TIP3   OH214249   8.195   1.702   6.687
 4769TIP3    H114250   8.192   1.797   6.677
 4769TIP3    H214251   8.116   1.671   6.643
 4770TIP3   OH214252   4.765   4.042   5.885
 4770TIP3    H114253   4.776   3.968   5.944
 4770TIP3    H214254   4.679   4.079   5.907
 4771TIP3   OH214255   0.045   6.898   4.958
 4771TIP3    H114256  -0.036   6.930   4.998
 4771TIP3    H214257   0.018   6.823   4.906
 4772TIP3   OH214258   4.045   3.150   2.906
 4772TIP3    H114259   4.081   3.126   2.992
 4772TIP3    H214260   4.081   3.237   2.888
 4773TIP3   OH214261   4.956   0.835   0.478
 4773TIP3    H114262   4.966   0.872   0.566
 4773TIP3    H214263   4.912   0.752   0.492
 4774TIP3   OH214264   6.888   1.090   5.922
 4774TIP3    H114265   6.911   1.012   5.873
 4774TIP3    H214266   6.971   1.134   5.940
 4775TIP3   OH214267   0.479   2.622   6.014
 4775TIP3    H114268   0.406   2.614   5.952
 4775TIP3    H214269   0.523   2.703   5.988
 4776TIP3   OH214270   2.567   1.473   0.892
 4776TIP3    H114271   2.490   1.518   0.926
 4776TIP3    H214272   2.538   1.383   0.878
 4777TIP3   OH214273   7.033   0.492   5.894
 4777TIP3    H114274   6.971   0.538   5.838
 4777TIP3    H214275   6.992   0.407   5.911
 4778TIP3   OH214276   0.314   2.373   3.929
 4778TIP3    H114277   0.340   2.390   3.838
 4778TIP3    H214278   0.367   2.297   3.955
 4779TIP3   OH214279   0.315   5.937   3.716
 4779TIP3    H114280   0.286   5.989   3.791
 4779TIP3    H214281   0.360   6.000   3.659
 4780TIP3   OH214282   0.099   4.352   2.757
 4780TIP3    H114283   0.078   4.267   2.797
 4780TIP3    H214284   0.177   4.335   2.705
 4781TIP3   OH214285   5.922   3.721   5.144
 4781TIP3    H114286   5.967   3.788   5.195
 4781TIP3    H214287   5.981   3.703   5.070
 4782TIP3   OH214288   3.058   4.543   6.356
 4782TIP3    H114289   3.126   4.476   6.355
 4782TIP3    H214290   2.978   4.497   6.328
 4783TIP3   OH214291   1.691   6.285   2.728
 4783TIP3    H114292   1.654   6.366   2.762
 4783TIP3    H214293   1.785   6.292   2.744
 4784TIP3   OH214294   3.366   6.993   4.110
 4784TIP3    H114295   3.319   7.076   4.120
 4784TIP3    H214296   3.424   6.989   4.185
 4785TIP3   OH214297   3.030   3.166   0.573
 4785TIP3    H114298   2.949   3.214   0.590
 4785TIP3    H214299   3.029   3.152   0.478
 4786TIP3   OH214300   0.112   6.481   1.439
 4786TIP3    H114301   0.089   6.571   1.462
 4786TIP3    H214302   0.092   6.431   1.518
 4787TIP3   OH214303   3.429   5.228   2.254
 4787TIP3    H114304   3.363   5.226   2.324
 4787TIP3    H214305   3.407   5.153   2.198
 4788TIP3   OH214306   8.020   2.020   0.327
 4788TIP3    H114307   8.090   1.986   0.382
 4788TIP3    H214308   8.001   2.107   0.362
 4789TIP3   OH214309   4.737   5.254   2.567
 4789TIP3    H114310   4.753   5.338   2.524
 4789TIP3    H214311   4.822   5.211   2.567
 4790TIP3   OH214312   7.440   5.288   4.470
 4790TIP3    H114313   7.414   5.306   4.560
 4790TIP3    H214314   7.490   5.366   4.444
 4791TIP3   OH214315   6.566   6.918   1.463
 4791TIP3    H114316   6.547   6.870   1.544
 4791TIP3    H214317   6.662   6.915   1.456
 4792TIP3   OH214318   4.743   7.044   5.847
 4792TIP3    H114319   4.743   7.139   5.862
 4792TIP3    H214320   4.824   7.014   5.888
 4793TIP3   OH214321   0.721   3.769   4.663
 4793TIP3    H114322   0.754   3.802   4.579
 4793TIP3    H214323   0.753   3.833   4.727
 4794TIP3   OH214324   2.561   2.441   4.992
 4794TIP3    H114325   2.631   2.468   4.932
 4794TIP3    H214326   2.494   2.508   4.982
 4795TIP3   OH214327   8.079   7.292   1.613
 4795TIP3    H114328   8.150   7.354   1.595
 4795TIP3    H214329   8.116   7.206   1.593
 4796TIP3   OH214330   3.732   6.800   3.984
 4796TIP3    H114331   3.823   6.800   4.013
 4796TIP3    H214332   3.716   6.890   3.953
 4797TIP3   OH214333   0.542   4.822   3.000
 4797TIP3    H114334   0.450   4.810   2.977
 4797TIP3    H214335   0.589   4.813   2.917
 4798TIP3   OH214336   3.644   4.833   6.539
 4798TIP3    H114337   3.706   4.824   6.611
 4798TIP3    H214338   3.642   4.926   6.520
 4799TIP3   OH214339   7.727   5.565   1.562
 4799TIP3    H114340   7.771   5.650   1.562
 4799TIP3    H214341   7.722   5.540   1.654
 4800TIP3   OH214342   7.824   5.962   2.272
 4800TIP3    H114343   7.878   6.026   2.225
 4800TIP3    H214344   7.839   5.880   2.225
 4801TIP3   OH214345   1.836   3.484   6.715
 4801TIP3    H114346   1.770   3.487   6.784
 4801TIP3    H214347   1.913   3.445   6.758
 4802TIP3   OH214348   1.769   2.066   2.256
 4802TIP3    H114349   1.865   2.073   2.256
 4802TIP3    H214350   1.751   1.990   2.202
 4803TIP3   OH214351   2.304   3.392   5.205
 4803TIP3    H114352   2.227   3.445   5.226
 4803TIP3    H214353   2.269   3.304   5.192
 4804TIP3   OH214354   4.612   5.998   2.202
 4804TIP3    H114355   4.539   5.937   2.216
 4804TIP3    H214356   4.636   5.985   2.110
 4805TIP3   OH214357   5.007   2.486   3.053
 4805TIP3    H114358   5.001   2.568   3.103
 4805TIP3    H214359   4.925   2.441   3.070
 4806TIP3   OH214360   3.246   3.941   2.452
 4806TIP3    H114361   3.232   4.005   2.521
 4806TIP3    H214362   3.158   3.919   2.421
 4807TIP3   OH214363   3.663   5.613   4.331
 4807TIP3    H114364   3.654   5.691   4.386
 4807TIP3    H214365   3.697   5.646   4.248
 4808TIP3   OH214366   0.893   5.169   2.621
 4808TIP3    H114367   0.876   5.241   2.682
 4808TIP3    H214368   0.965   5.121   2.661
 4809TIP3   OH214369   4.691   7.351   5.880
 4809TIP3    H114370   4.691   7.346   5.785
 4809TIP3    H214371   4.680   7.444   5.900
 4810TIP3   OH214372   0.434   1.133   3.702
 4810TIP3    H114373   0.528   1.133   3.684
 4810TIP3    H214374   0.401   1.209   3.654
 4811TIP3   OH214375   5.817   3.888   5.441
 4811TIP3    H114376   5.835   3.979   5.466
 4811TIP3    H214377   5.757   3.895   5.367
 4812TIP3   OH214378   6.046   1.530   0.126
 4812TIP3    H114379   6.058   1.590   0.052
 4812TIP3    H214380   6.052   1.587   0.203
 4813TIP3   OH214381   8.144   5.849   4.671
 4813TIP3    H114382   8.095   5.768   4.684
 4813TIP3    H214383   8.101   5.891   4.597
 4814TIP3   OH214384   7.066   0.081   2.171
 4814TIP3    H114385   6.976   0.077   2.204
 4814TIP3    H214386   7.115   0.126   2.239
 4815TIP3   OH214387   0.755   0.679   5.035
 4815TIP3    H114388   0.814   0.751   5.015
 4815TIP3    H214389   0.800   0.601   5.004
 4816TIP3   OH214390   7.747   1.641   0.068
 4816TIP3    H114391   7.821   1.668   0.013
 4816TIP3    H214392   7.770   1.673   0.155
 4817TIP3   OH214393   6.678   3.395   4.860
 4817TIP3    H114394   6.665   3.368   4.951
 4817TIP3    H214395   6.729   3.476   4.865
 4818TIP3   OH214396   2.823   0.813   0.554
 4818TIP3    H114397   2.895   0.761   0.517
 4818TIP3    H214398   2.810   0.776   0.642
 4819TIP3   OH214399   7.615   2.073   2.535
 4819TIP3    H114400   7.649   2.155   2.568
 4819TIP3    H214401   7.541   2.098   2.479
 4820TIP3   OH214402   1.709   4.494   5.462
 4820TIP3    H114403   1.646   4.448   5.518
 4820TIP3    H214404   1.670   4.581   5.449
 4821TIP3   OH214405   7.575   2.359   5.163
 4821TIP3    H114406   7.538   2.406   5.089
 4821TIP3    H214407   7.655   2.319   5.129
 4822TIP3   OH214408   2.051   4.920   1.406
 4822TIP3    H114409   2.097   4.837   1.412
 4822TIP3    H214410   2.049   4.940   1.312
 4823TIP3   OH214411   0.755   7.054   5.220
 4823TIP3    H114412   0.808   7.085   5.147
 4823TIP3    H214413   0.779   7.112   5.293
 4824TIP3   OH214414   3.593   0.788   3.331
 4824TIP3    H114415   3.588   0.698   3.296
 4824TIP3    H214416   3.584   0.777   3.425
 4825TIP3   OH214417   6.381   7.741   0.739
 4825TIP3    H114418   6.477   7.748   0.743
 4825TIP3    H214419   6.351   7.830   0.726
 4826TIP3   OH214420   0.370   6.252   6.646
 4826TIP3    H114421   0.439   6.217   6.702
 4826TIP3    H214422   0.296   6.265   6.705
 4827TIP3   OH214423   2.493   3.010   6.680
 4827TIP3    H114424   2.535   2.925   6.667
 4827TIP3    H214425   2.558   3.074   6.652
 4828TIP3   OH214426   7.073   2.290   2.496
 4828TIP3    H114427   7.070   2.297   2.592
 4828TIP3    H214428   6.986   2.318   2.467
 4829TIP3   OH214429   7.413   6.952   0.519
 4829TIP3    H114430   7.466   6.987   0.448
 4829TIP3    H214431   7.360   6.883   0.479
 4830TIP3   OH214432   4.812   4.847   2.397
 4830TIP3    H114433   4.782   4.928   2.354
 4830TIP3    H214434   4.757   4.840   2.475
 4831TIP3   OH214435   6.557   5.905   2.891
 4831TIP3    H114436   6.491   5.937   2.954
 4831TIP3    H214437   6.516   5.827   2.852
 4832TIP3   OH214438   0.428   3.228   6.705
 4832TIP3    H114439   0.435   3.163   6.775
 4832TIP3    H214440   0.411   3.311   6.750
 4833TIP3   OH214441   1.042   2.663   1.523
 4833TIP3    H114442   1.006   2.621   1.601
 4833TIP3    H214443   1.092   2.594   1.479
 4834TIP3   OH214444   4.299   3.137   1.636
 4834TIP3    H114445   4.205   3.127   1.620
 4834TIP3    H214446   4.305   3.191   1.714
 4835TIP3   OH214447   6.597   3.448   0.492
 4835TIP3    H114448   6.514   3.400   0.488
 4835TIP3    H214449   6.663   3.384   0.467
 4836TIP3   OH214450   5.216   0.039   0.232
 4836TIP3    H114451   5.139   0.039   0.289
 4836TIP3    H214452   5.207   0.117   0.178
 4837TIP3   OH214453   2.674   1.949   5.877
 4837TIP3    H114454   2.633   1.977   5.959
 4837TIP3    H214455   2.767   1.967   5.889
 4838TIP3   OH214456   0.677   2.030   2.985
 4838TIP3    H114457   0.594   2.042   2.938
 4838TIP3    H214458   0.666   2.080   3.066
 4839TIP3   OH214459   0.451   6.900   3.811
 4839TIP3    H114460   0.434   6.993   3.826
 4839TIP3    H214461   0.365   6.863   3.789
 4840TIP3   OH214462   6.587   3.501   2.433
 4840TIP3    H114463   6.595   3.410   2.462
 4840TIP3    H214464   6.595   3.497   2.338
 4841TIP3   OH214465   2.187   0.600   3.490
 4841TIP3    H114466   2.185   0.585   3.396
 4841TIP3    H214467   2.228   0.686   3.500
 4842TIP3   OH214468   7.087   0.550   0.902
 4842TIP3    H114469   7.139   0.582   0.976
 4842TIP3    H214470   7.139   0.479   0.866
 4843TIP3   OH214471   3.292   2.257   0.905
 4843TIP3    H114472   3.268   2.350   0.913
 4843TIP3    H214473   3.252   2.230   0.822
 4844TIP3   OH214474   1.057   1.121   5.337
 4844TIP3    H114475   1.059   1.158   5.248
 4844TIP3    H214476   1.143   1.079   5.347
 4845TIP3   OH214477   5.922   7.317   2.739
 4845TIP3    H114478   5.835   7.342   2.708
 4845TIP3    H214479   5.906   7.273   2.823
 4846TIP3   OH214480   8.256   7.106   6.795
 4846TIP3    H114481   8.252   7.022   6.749
 4846TIP3    H214482   8.196   7.163   6.746
 4847TIP3   OH214483   0.360   7.148   5.773
 4847TIP3    H114484   0.423   7.170   5.842
 4847TIP3    H214485   0.290   7.101   5.818
 4848TIP3   OH214486   0.531   5.350   2.630
 4848TIP3    H114487   0.436   5.353   2.635
 4848TIP3    H214488   0.554   5.410   2.558
 4849TIP3   OH214489   1.349   3.777   5.328
 4849TIP3    H114490   1.436   3.761   5.364
 4849TIP3    H214491   1.365   3.822   5.246
 4850TIP3   OH214492   6.663   5.872   4.286
 4850TIP3    H114493   6.683   5.787   4.248
 4850TIP3    H214494   6.710   5.872   4.370
 4851TIP3   OH214495   0.224   3.568   4.633
 4851TIP3    H114496   0.155   3.589   4.570
 4851TIP3    H214497   0.252   3.653   4.667
 4852TIP3   OH214498   2.833   3.360   0.250
 4852TIP3    H114499   2.776   3.436   0.237
 4852TIP3    H214500   2.826   3.341   0.344
 4853TIP3   OH214501   2.498   2.095   5.276
 4853TIP3    H114502   2.586   2.115   5.243
 4853TIP3    H214503   2.494   2.139   5.360
 4854TIP3   OH214504   7.984   0.762   0.714
 4854TIP3    H114505   8.070   0.721   0.728
 4854TIP3    H214506   7.980   0.776   0.619
 4855TIP3   OH214507   2.903   6.736   6.580
 4855TIP3    H114508   2.873   6.720   6.490
 4855TIP3    H214509   2.897   6.831   6.590
 4856TIP3   OH214510   6.494   7.186   2.635
 4856TIP3    H114511   6.452   7.264   2.599
 4856TIP3    H214512   6.420   7.130   2.661
 4857TIP3   OH214513   1.119   5.301   6.430
 4857TIP3    H114514   1.197   5.249   6.451
 4857TIP3    H214515   1.152   5.373   6.376
 4858TIP3   OH214516   4.025   3.904   2.404
 4858TIP3    H114517   4.070   3.820   2.394
 4858TIP3    H214518   4.092   3.970   2.389
 4859TIP3   OH214519   1.290   0.527   4.841
 4859TIP3    H114520   1.353   0.484   4.783
 4859TIP3    H214521   1.216   0.548   4.784
 4860TIP3   OH214522   3.208   1.014   3.177
 4860TIP3    H114523   3.289   1.043   3.219
 4860TIP3    H214524   3.208   1.057   3.091
 4861TIP3   OH214525   5.943   7.070   0.906
 4861TIP3    H114526   6.002   7.145   0.908
 4861TIP3    H214527   5.871   7.098   0.849
 4862TIP3   OH214528   5.644   3.139   0.799
 4862TIP3    H114529   5.677   3.189   0.873
 4862TIP3    H214530   5.707   3.155   0.729
 4863TIP3   OH214531   1.451   7.242   3.365
 4863TIP3    H114532   1.419   7.285   3.286
 4863TIP3    H214533   1.529   7.195   3.337
 4864TIP3   OH214534   7.554   3.034   4.448
 4864TIP3    H114535   7.539   2.970   4.518
 4864TIP3    H214536   7.623   3.091   4.483
 4865TIP3   OH214537   3.692   4.476   6.263
 4865TIP3    H114538   3.621   4.511   6.209
 4865TIP3    H214539   3.648   4.413   6.321
 4866TIP3   OH214540   5.701   5.182   6.298
 4866TIP3    H114541   5.654   5.185   6.382
 4866TIP3    H214542   5.786   5.221   6.316
 4867TIP3   OH214543   4.102   4.392   1.980
 4867TIP3    H114544   4.006   4.398   1.984
 4867TIP3    H214545   4.132   4.424   2.065
 4868TIP3   OH214546   5.518   1.254   3.897
 4868TIP3    H114547   5.476   1.318   3.839
 4868TIP3    H214548   5.449   1.191   3.917
 4869TIP3   OH214549   2.569   0.705   2.744
 4869TIP3    H114550   2.589   0.779   2.687
 4869TIP3    H214551   2.587   0.628   2.690
 4870TIP3   OH214552   6.477   5.888   4.842
 4870TIP3    H114553   6.489   5.809   4.789
 4870TIP3    H214554   6.566   5.919   4.860
 4871TIP3   OH214555   4.644   4.400   1.999
 4871TIP3    H114556   4.700   4.451   1.940
 4871TIP3    H214557   4.571   4.372   1.944
 4872TIP3   OH214558   7.868   7.099   0.385
 4872TIP3    H114559   7.857   7.036   0.315
 4872TIP3    H214560   7.841   7.052   0.464
 4873TIP3   OH214561   6.959   5.620   5.632
 4873TIP3    H114562   6.875   5.665   5.641
 4873TIP3    H214563   6.947   5.537   5.679
 4874TIP3   OH214564   5.372   2.895   2.425
 4874TIP3    H114565   5.383   2.980   2.382
 4874TIP3    H214566   5.386   2.831   2.355
 4875TIP3   OH214567   4.273   4.809   1.318
 4875TIP3    H114568   4.255   4.721   1.285
 4875TIP3    H214569   4.335   4.795   1.389
 4876TIP3   OH214570   7.146   1.124   0.965
 4876TIP3    H114571   7.199   1.070   0.907
 4876TIP3    H214572   7.178   1.105   1.053
 4877TIP3   OH214573   4.127   4.952   4.557
 4877TIP3    H114574   4.050   4.896   4.548
 4877TIP3    H214575   4.108   5.006   4.634
 4878TIP3   OH214576   7.195   2.621   3.227
 4878TIP3    H114577   7.281   2.629   3.267
 4878TIP3    H214578   7.151   2.552   3.276
 4879TIP3   OH214579   4.191   6.749   5.163
 4879TIP3    H114580   4.261   6.700   5.207
 4879TIP3    H214581   4.237   6.817   5.113
 4880TIP3   OH214582   2.647   3.108   2.841
 4880TIP3    H114583   2.643   3.016   2.866
 4880TIP3    H214584   2.738   3.133   2.858
 4881TIP3   OH214585   5.398   2.603   6.430
 4881TIP3    H114586   5.412   2.546   6.354
 4881TIP3    H214587   5.472   2.585   6.488
 4882TIP3   OH214588   2.095   2.950   0.618
 4882TIP3    H114589   2.155   2.974   0.689
 4882TIP3    H214590   2.063   2.863   0.642
 4883TIP3   OH214591   2.928   4.337   4.762
 4883TIP3    H114592   2.946   4.431   4.754
 4883TIP3    H214593   2.842   4.333   4.805
 4884TIP3   OH214594   4.384   4.036   0.252
 4884TIP3    H114595   4.325   3.967   0.280
 4884TIP3    H214596   4.380   4.034   0.156
 4885TIP3   OH214597   7.579   2.433   3.160
 4885TIP3    H114598   7.674   2.446   3.153
 4885TIP3    H214599   7.564   2.346   3.125
 4886TIP3   OH214600   7.569   5.578   4.383
 4886TIP3    H114601   7.622   5.627   4.320
 4886TIP3    H214602   7.603   5.604   4.468
 4887TIP3   OH214603   4.218   7.477   5.967
 4887TIP3    H114604   4.198   7.511   5.879
 4887TIP3    H214605   4.218   7.382   5.955
 4888TIP3   OH214606   5.723   3.514   1.512
 4888TIP3    H114607   5.807   3.475   1.537
 4888TIP3    H214608   5.664   3.492   1.584
 4889TIP3   OH214609   0.720   5.706   0.318
 4889TIP3    H114610   0.625   5.706   0.331
 4889TIP3    H214611   0.756   5.673   0.401
 4890TIP3   OH214612   4.045   3.077   0.860
 4890TIP3    H114613   4.068   2.989   0.890
 4890TIP3    H214614   4.005   3.119   0.937
 4891TIP3   OH214615   8.169   3.833   4.337
 4891TIP3    H114616   8.190   3.897   4.269
 4891TIP3    H214617   8.150   3.886   4.415
 4892TIP3   OH214618   2.166   3.651   4.933
 4892TIP3    H114619   2.251   3.682   4.966
 4892TIP3    H214620   2.102   3.705   4.979
 4893TIP3   OH214621   1.081   2.940   2.106
 4893TIP3    H114622   1.005   2.885   2.125
 4893TIP3    H214623   1.148   2.877   2.077
 4894TIP3   OH214624   4.351   4.192   2.113
 4894TIP3    H114625   4.327   4.285   2.114
 4894TIP3    H214626   4.346   4.167   2.021
 4895TIP3   OH214627   6.181   5.918   6.750
 4895TIP3    H114628   6.134   5.912   6.667
 4895TIP3    H214629   6.258   5.971   6.730
 4896TIP3   OH214630   4.602   4.335   1.331
 4896TIP3    H114631   4.568   4.246   1.319
 4896TIP3    H214632   4.529   4.384   1.370
 4897TIP3   OH214633   4.203   0.174   4.348
 4897TIP3    H114634   4.140   0.231   4.304
 4897TIP3    H214635   4.174   0.170   4.439
 4898TIP3   OH214636   4.495   2.270   5.192
 4898TIP3    H114637   4.591   2.270   5.197
 4898TIP3    H214638   4.475   2.318   5.112
 4899TIP3   OH214639   6.561   5.568   5.077
 4899TIP3    H114640   6.608   5.487   5.097
 4899TIP3    H214641   6.485   5.540   5.027
 4900TIP3   OH214642   1.710   2.871   1.139
 4900TIP3    H114643   1.695   2.816   1.062
 4900TIP3    H214644   1.771   2.819   1.193
 4901TIP3   OH214645   3.378   2.623   0.214
 4901TIP3    H114646   3.286   2.645   0.231
 4901TIP3    H214647   3.383   2.615   0.119
 4902TIP3   OH214648   1.397   3.408   2.295
 4902TIP3    H114649   1.450   3.391   2.217
 4902TIP3    H214650   1.311   3.433   2.260
 4903TIP3   OH214651   2.124   5.912   1.323
 4903TIP3    H114652   2.056   5.857   1.286
 4903TIP3    H214653   2.094   6.002   1.305
 4904TIP3   OH214654   7.140   7.462   0.545
 4904TIP3    H114655   7.048   7.471   0.522
 4904TIP3    H214656   7.157   7.368   0.543
 4905TIP3   OH214657   8.133   7.212   3.920
 4905TIP3    H114658   8.221   7.178   3.940
 4905TIP3    H214659   8.102   7.249   4.003
 4906TIP3   OH214660   3.344   4.588   5.952
 4906TIP3    H114661   3.366   4.502   5.988
 4906TIP3    H214662   3.255   4.579   5.920
 4907TIP3   OH214663   6.142   1.005   0.047
 4907TIP3    H114664   6.108   0.977  -0.037
 4907TIP3    H214665   6.196   0.931   0.076
 4908TIP3   OH214666   6.232   1.242   3.255
 4908TIP3    H114667   6.276   1.249   3.171
 4908TIP3    H214668   6.299   1.263   3.320
 4909TIP3   OH214669   2.228   6.049   0.870
 4909TIP3    H114670   2.286   6.057   0.794
 4909TIP3    H214671   2.180   6.132   0.872
 4910TIP3   OH214672   7.135   4.670   3.970
 4910TIP3    H114673   7.194   4.594   3.972
 4910TIP3    H214674   7.103   4.678   4.059
 4911TIP3   OH214675   0.092   4.024   3.364
 4911TIP3    H114676   0.173   3.997   3.408
 4911TIP3    H214677   0.112   4.111   3.330
 4912TIP3   OH214678   0.465   0.494   1.298
 4912TIP3    H114679   0.552   0.457   1.283
 4912TIP3    H214680   0.410   0.417   1.315
 4913TIP3   OH214681   8.149   5.627   0.522
 4913TIP3    H114682   8.132   5.535   0.503
 4913TIP3    H214683   8.076   5.654   0.577
 4914TIP3   OH214684   2.300   3.070   4.625
 4914TIP3    H114685   2.347   3.123   4.560
 4914TIP3    H214686   2.208   3.088   4.608
 4915TIP3   OH214687   2.542   3.584   3.101
 4915TIP3    H114688   2.559   3.547   3.188
 4915TIP3    H214689   2.559   3.512   3.040
 4916TIP3   OH214690   2.809   1.956   6.515
 4916TIP3    H114691   2.897   1.975   6.483
 4916TIP3    H214692   2.756   1.944   6.436
 4917TIP3   OH214693   3.879   5.149   4.316
 4917TIP3    H114694   3.947   5.207   4.281
 4917TIP3    H214695   3.879   5.074   4.257
 4918TIP3   OH214696   4.025   3.672   6.536
 4918TIP3    H114697   4.054   3.668   6.627
 4918TIP3    H214698   4.054   3.589   6.498
 4919TIP3   OH214699   1.288   6.150   0.185
 4919TIP3    H114700   1.205   6.194   0.201
 4919TIP3    H214701   1.340   6.167   0.263
 4920TIP3   OH214702   1.268   5.677   5.663
 4920TIP3    H114703   1.334   5.620   5.701
 4920TIP3    H214704   1.319   5.747   5.621
 4921TIP3   OH214705   5.593   0.331   6.428
 4921TIP3    H114706   5.531   0.263   6.454
 4921TIP3    H214707   5.676   0.284   6.415
 4922TIP3   OH214708   7.240   5.893   2.127
 4922TIP3    H114709   7.314   5.924   2.074
 4922TIP3    H214710   7.168   5.951   2.101
 4923TIP3   OH214711   6.761   0.117   1.944
 4923TIP3    H114712   6.803   0.107   2.030
 4923TIP3    H214713   6.821   0.072   1.884
 4924TIP3   OH214714   7.302   4.143   3.594
 4924TIP3    H114715   7.253   4.225   3.604
 4924TIP3    H214716   7.273   4.108   3.510
 4925TIP3   OH214717   2.914   4.401   0.074
 4925TIP3    H114718   2.874   4.481   0.107
 4925TIP3    H214719   2.988   4.431   0.021
 4926TIP3   OH214720   7.158   6.858   6.719
 4926TIP3    H114721   7.245   6.831   6.747
 4926TIP3    H214722   7.104   6.854   6.798
 4927TIP3   OH214723   3.095   4.537   2.163
 4927TIP3    H114724   3.090   4.533   2.067
 4927TIP3    H214725   3.089   4.630   2.183
 4928TIP3   OH214726   6.914   3.378   6.636
 4928TIP3    H114727   6.864   3.312   6.587
 4928TIP3    H214728   6.849   3.419   6.693
 4929TIP3   OH214729   5.441   2.056   2.257
 4929TIP3    H114730   5.366   2.024   2.306
 4929TIP3    H214731   5.505   2.081   2.323
 4930TIP3   OH214732   3.081   5.293   2.829
 4930TIP3    H114733   3.027   5.298   2.908
 4930TIP3    H214734   3.078   5.201   2.804
 4931TIP3   OH214735   5.283   3.466   5.854
 4931TIP3    H114736   5.190   3.488   5.848
 4931TIP3    H214737   5.324   3.544   5.890
 4932TIP3   OH214738   0.365   5.510   2.144
 4932TIP3    H114739   0.443   5.555   2.111
 4932TIP3    H214740   0.357   5.540   2.234
 4933TIP3   OH214741   6.113   1.985   1.113
 4933TIP3    H114742   6.069   1.950   1.036
 4933TIP3    H214743   6.147   1.907   1.158
 4934TIP3   OH214744   2.991   3.284   1.500
 4934TIP3    H114745   2.905   3.249   1.525
 4934TIP3    H214746   3.002   3.257   1.409
 4935TIP3   OH214747   1.613   2.680   5.343
 4935TIP3    H114748   1.598   2.603   5.289
 4935TIP3    H214749   1.678   2.653   5.407
 4936TIP3   OH214750   8.281   4.703   6.171
 4936TIP3    H114751   8.188   4.728   6.175
 4936TIP3    H214752   8.306   4.690   6.263
 4937TIP3   OH214753   6.340   1.203   2.982
 4937TIP3    H114754   6.429   1.168   2.975
 4937TIP3    H214755   6.335   1.268   2.912
 4938TIP3   OH214756   4.660   5.607   2.467
 4938TIP3    H114757   4.712   5.683   2.441
 4938TIP3    H214758   4.601   5.592   2.393
 4939TIP3   OH214759   3.739   1.912   0.304
 4939TIP3    H114760   3.760   1.822   0.280
 4939TIP3    H214761   3.644   1.916   0.306
 4940TIP3   OH214762   7.041   3.101   0.738
 4940TIP3    H114763   7.047   3.177   0.680
 4940TIP3    H214764   6.954   3.109   0.779
 4941TIP3   OH214765   0.545   2.209   3.951
 4941TIP3    H114766   0.511   2.164   4.028
 4941TIP3    H214767   0.626   2.249   3.980
 4942TIP3   OH214768   3.679   1.021   0.463
 4942TIP3    H114769   3.749   1.086   0.465
 4942TIP3    H214770   3.709   0.955   0.400
 4943TIP3   OH214771   2.259   5.897   2.882
 4943TIP3    H114772   2.337   5.951   2.897
 4943TIP3    H214773   2.222   5.884   2.969
 4944TIP3   OH214774   3.345   4.064   4.457
 4944TIP3    H114775   3.412   4.045   4.522
 4944TIP3    H214776   3.316   3.978   4.426
 4945TIP3   OH214777   7.406   6.697   6.503
 4945TIP3    H114778   7.393   6.682   6.597
 4945TIP3    H214779   7.318   6.708   6.468
 4946TIP3   OH214780   7.074   6.522   4.567
 4946TIP3    H114781   7.141   6.453   4.566
 4946TIP3    H214782   7.119   6.599   4.534
 4947TIP3   OH214783   3.495   3.880   5.870
 4947TIP3    H114784   3.468   3.972   5.860
 4947TIP3    H214785   3.468   3.856   5.958
 4948TIP3   OH214786   7.864   0.064   6.163
 4948TIP3    H114787   7.778   0.069   6.121
 4948TIP3    H214788   7.857  -0.011   6.222
 4949TIP3   OH214789   6.326   5.452   4.974
 4949TIP3    H114790   6.280   5.510   4.913
 4949TIP3    H214791   6.275   5.457   5.055
 4950TIP3   OH214792   0.486   0.203   1.215
 4950TIP3    H114793   0.411   0.165   1.169
 4950TIP3    H214794   0.520   0.131   1.269
 4951TIP3   OH214795   5.345   2.526   5.427
 4951TIP3    H114796   5.315   2.612   5.457
 4951TIP3    H214797   5.374   2.483   5.507
 4952TIP3   OH214798   2.115   4.223   1.939
 4952TIP3    H114799   2.033   4.194   1.900
 4952TIP3    H214800   2.094   4.305   1.984
 4953TIP3   OH214801   4.002   3.549   4.138
 4953TIP3    H114802   3.982   3.498   4.216
 4953TIP3    H214803   3.928   3.532   4.079
 4954TIP3   OH214804   1.559   6.873   1.791
 4954TIP3    H114805   1.505   6.819   1.733
 4954TIP3    H214806   1.524   6.856   1.879
 4955TIP3   OH214807   4.477   2.753   4.456
 4955TIP3    H114808   4.555   2.774   4.404
 4955TIP3    H214809   4.444   2.672   4.418
 4956TIP3   OH214810   3.283   4.218   3.084
 4956TIP3    H114811   3.329   4.286   3.134
 4956TIP3    H214812   3.330   4.215   3.001
 4957TIP3   OH214813   5.897   3.107   3.425
 4957TIP3    H114814   5.816   3.063   3.399
 4957TIP3    H214815   5.886   3.126   3.518
 4958TIP3   OH214816   2.499   5.916   5.969
 4958TIP3    H114817   2.438   5.989   5.956
 4958TIP3    H214818   2.492   5.895   6.062
 4959TIP3   OH214819   0.543   6.803   5.498
 4959TIP3    H114820   0.552   6.894   5.526
 4959TIP3    H214821   0.611   6.792   5.431
 4960TIP3   OH214822   8.071   0.974   5.063
 4960TIP3    H114823   8.086   1.064   5.092
 4960TIP3    H214824   7.986   0.950   5.101
 4961TIP3   OH214825   3.006   2.825   0.202
 4961TIP3    H114826   2.950   2.898   0.228
 4961TIP3    H214827   3.049   2.797   0.282
 4962TIP3   OH214828   3.939   7.019   3.043
 4962TIP3    H114829   3.853   6.985   3.020
 4962TIP3    H214830   3.998   6.945   3.031
 4963TIP3   OH214831   5.211   7.087   3.360
 4963TIP3    H114832   5.282   7.083   3.296
 4963TIP3    H214833   5.188   7.180   3.365
 4964TIP3   OH214834   3.744   7.319   4.886
 4964TIP3    H114835   3.716   7.407   4.913
 4964TIP3    H214836   3.672   7.262   4.914
 4965TIP3   OH214837   5.984   5.361   4.794
 4965TIP3    H114838   6.020   5.276   4.769
 4965TIP3    H214839   5.919   5.341   4.861
 4966TIP3   OH214840   2.512   1.387   3.124
 4966TIP3    H114841   2.525   1.391   3.219
 4966TIP3    H214842   2.420   1.362   3.114
 4967TIP3   OH214843   2.028   5.440   2.456
 4967TIP3    H114844   1.998   5.497   2.385
 4967TIP3    H214845   2.041   5.355   2.414
 4968TIP3   OH214846   1.172   4.837   3.017
 4968TIP3    H114847   1.182   4.851   3.112
 4968TIP3    H214848   1.234   4.767   2.997
 4969TIP3   OH214849   0.984   4.766   3.294
 4969TIP3    H114850   0.936   4.810   3.225
 4969TIP3    H214851   1.053   4.828   3.319
 4970TIP3   OH214852   6.990   4.309   2.621
 4970TIP3    H114853   6.959   4.219   2.636
 4970TIP3    H214854   6.918   4.364   2.652
 4971TIP3   OH214855   2.130   5.818   6.718
 4971TIP3    H114856   2.162   5.736   6.756
 4971TIP3    H214857   2.089   5.864   6.791
 4972TIP3   OH214858   1.293   0.287   1.139
 4972TIP3    H114859   1.269   0.195   1.141
 4972TIP3    H214860   1.294   0.310   1.046
 4973TIP3   OH214861   5.519   5.763   1.631
 4973TIP3    H114862   5.443   5.732   1.680
 4973TIP3    H214863   5.482   5.797   1.549
 4974TIP3   OH214864   3.985   2.812   1.397
 4974TIP3    H114865   4.047   2.750   1.359
 4974TIP3    H214866   4.036   2.864   1.458
 4975TIP3   OH214867   6.873   4.414   6.461
 4975TIP3    H114868   6.964   4.440   6.442
 4975TIP3    H214869   6.843   4.372   6.381
 4976TIP3   OH214870   3.842   4.427   1.118
 4976TIP3    H114871   3.904   4.360   1.089
 4976TIP3    H214872   3.762   4.407   1.071
 4977TIP3   OH214873   1.111   1.688   5.679
 4977TIP3    H114874   1.156   1.732   5.751
 4977TIP3    H214875   1.180   1.639   5.635
 4978TIP3   OH214876   4.508   0.849   0.511
 4978TIP3    H114877   4.541   0.882   0.428
 4978TIP3    H214878   4.438   0.788   0.487
 4979TIP3   OH214879   5.438   6.107   0.456
 4979TIP3    H114880   5.445   6.131   0.364
 4979TIP3    H214881   5.466   6.185   0.504
 4980TIP3   OH214882   0.677   2.709   2.765
 4980TIP3    H114883   0.625   2.765   2.822
 4980TIP3    H214884   0.747   2.676   2.821
 4981TIP3   OH214885   3.237   6.091   3.601
 4981TIP3    H114886   3.172   6.022   3.606
 4981TIP3    H214887   3.204   6.160   3.659
 4982TIP3   OH214888   7.323   3.435   2.242
 4982TIP3    H114889   7.241   3.442   2.193
 4982TIP3    H214890   7.349   3.343   2.233
 4983TIP3   OH214891   3.518   6.715   1.788
 4983TIP3    H114892   3.597   6.710   1.842
 4983TIP3    H214893   3.549   6.736   1.700
 4984TIP3   OH214894   8.111   3.926   0.274
 4984TIP3    H114895   8.086   3.912   0.365
 4984TIP3    H214896   8.206   3.929   0.275
 4985TIP3   OH214897   6.465   2.690   0.734
 4985TIP3    H114898   6.459   2.784   0.714
 4985TIP3    H214899   6.522   2.687   0.812
 4986TIP3   OH214900   5.173   1.310   1.252
 4986TIP3    H114901   5.253   1.326   1.202
 4986TIP3    H214902   5.192   1.230   1.302
 4987TIP3   OH214903   7.019   4.957   6.073
 4987TIP3    H114904   7.004   4.909   5.991
 4987TIP3    H214905   7.059   4.893   6.131
 4988TIP3   OH214906   3.870   2.153   0.210
 4988TIP3    H114907   3.887   2.076   0.264
 4988TIP3    H214908   3.849   2.117   0.124
 4989TIP3   OH214909   3.459   7.487   6.565
 4989TIP3    H114910   3.517   7.439   6.506
 4989TIP3    H214911   3.420   7.419   6.620
 4990TIP3   OH214912   3.081   6.996   3.925
 4990TIP3    H114913   3.111   7.003   4.015
 4990TIP3    H214914   3.043   6.908   3.918
 4991TIP3   OH214915   4.176   3.137   4.308
 4991TIP3    H114916   4.107   3.104   4.365
 4991TIP3    H214917   4.169   3.084   4.229
 4992TIP3   OH214918   3.836   4.211   6.328
 4992TIP3    H114919   3.828   4.289   6.273
 4992TIP3    H214920   3.824   4.244   6.417
 4993TIP3   OH214921   5.796   3.521   4.718
 4993TIP3    H114922   5.868   3.487   4.665
 4993TIP3    H214923   5.721   3.521   4.659
 4994TIP3   OH214924   2.640   6.469   0.184
 4994TIP3    H114925   2.674   6.443   0.270
 4994TIP3    H214926   2.596   6.391   0.151
 4995TIP3   OH214927   4.059   6.538   3.544
 4995TIP3    H114928   4.125   6.531   3.475
 4995TIP3    H214929   4.028   6.628   3.539
 4996TIP3   OH214930   2.052   0.163   2.525
 4996TIP3    H114931   2.129   0.114   2.553
 4996TIP3    H214932   2.077   0.200   2.440
 4997TIP3   OH214933   6.776   6.581   1.160
 4997TIP3    H114934   6.847   6.590   1.097
 4997TIP3    H214935   6.816   6.601   1.245
 4998TIP3   OH214936   3.333   5.365   4.143
 4998TIP3    H114937   3.265   5.327   4.087
 4998TIP3    H214938   3.414   5.354   4.093
 4999TIP3   OH214939   2.404   7.767   6.095
 4999TIP3    H114940   2.468   7.702   6.123
 4999TIP3    H214941   2.442   7.806   6.017
 5000TIP3   OH214942   6.967   6.176   6.645
 5000TIP3    H114943   6.919   6.199   6.724
 5000TIP3    H214944   7.044   6.233   6.645
 5001TIP3   OH214945   7.991   4.518   0.032
 5001TIP3    H114946   7.968   4.577  -0.040
 5001TIP3    H214947   8.030   4.574   0.098
 5002TIP3   OH214948   7.991   0.286   4.596
 5002TIP3    H114949   7.904   0.324   4.587
 5002TIP3    H214950   8.000   0.228   4.520
 5003TIP3   OH214951   3.133   1.895   0.616
 5003TIP3    H114952   3.069   1.858   0.556
 5003TIP3    H214953   3.101   1.872   0.703
 5004TIP3   OH214954   3.132   6.239   2.872
 5004TIP3    H114955   3.092   6.163   2.829
 5004TIP3    H214956   3.187   6.279   2.805
 5005TIP3   OH214957   5.567   1.123   3.538
 5005TIP3    H114958   5.652   1.094   3.505
 5005TIP3    H214959   5.536   1.051   3.593
 5006TIP3   OH214960   1.620   2.688   4.122
 5006TIP3    H114961   1.644   2.662   4.211
 5006TIP3    H214962   1.524   2.685   4.121
 5007TIP3   OH214963   7.788   4.812   6.129
 5007TIP3    H114964   7.779   4.899   6.170
 5007TIP3    H214965   7.867   4.775   6.169
 5008TIP3   OH214966   3.933   5.907   6.162
 5008TIP3    H114967   3.978   5.824   6.176
 5008TIP3    H214968   3.848   5.895   6.205
 5009TIP3   OH214969   7.834   6.951   3.789
 5009TIP3    H114970   7.754   6.974   3.741
 5009TIP3    H214971   7.874   7.035   3.810
 5010TIP3   OH214972   6.255   0.230   6.578
 5010TIP3    H114973   6.244   0.246   6.484
 5010TIP3    H214974   6.234   0.137   6.589
 5011TIP3   OH214975   0.463   4.393   4.821
 5011TIP3    H114976   0.418   4.411   4.738
 5011TIP3    H214977   0.553   4.372   4.795
 5012TIP3   OH214978   5.955   1.062   2.492
 5012TIP3    H114979   5.982   1.016   2.413
 5012TIP3    H214980   5.930   0.993   2.553
 5013TIP3   OH214981   2.562   3.634   4.391
 5013TIP3    H114982   2.588   3.681   4.471
 5013TIP3    H214983   2.598   3.546   4.402
 5014TIP3   OH214984   0.174   3.095   6.619
 5014TIP3    H114985   0.243   3.160   6.606
 5014TIP3    H214986   0.115   3.108   6.545
 5015TIP3   OH214987   0.347   1.302   4.565
 5015TIP3    H114988   0.256   1.274   4.573
 5015TIP3    H214989   0.394   1.224   4.534
 5016TIP3   OH214990   3.262   1.786   4.203
 5016TIP3    H114991   3.258   1.846   4.279
 5016TIP3    H214992   3.198   1.718   4.223
 5017TIP3   OH214993   6.091   5.539   3.515
 5017TIP3    H114994   6.183   5.537   3.487
 5017TIP3    H214995   6.095   5.548   3.610
 5018TIP3   OH214996   1.396   3.758   5.778
 5018TIP3    H114997   1.426   3.846   5.755
 5018TIP3    H214998   1.468   3.701   5.753
 5019TIP3   OH214999   7.498   0.031   0.036
 5019TIP3    H115000   7.430   0.022   0.103
 5019TIP3    H215001   7.575  -0.011   0.075
 5020TIP3   OH215002   2.817   3.946   4.721
 5020TIP3    H115003   2.822   3.995   4.639
 5020TIP3    H215004   2.872   3.996   4.782
 5021TIP3   OH215005   5.551   3.902   0.238
 5021TIP3    H115006   5.575   3.970   0.175
 5021TIP3    H215007   5.469   3.932   0.276
 5022TIP3   OH215008   2.727  -0.016   0.600
 5022TIP3    H115009   2.698   0.069   0.568
 5022TIP3    H215010   2.753   0.000   0.691
 5023TIP3   OH215011   1.152   6.253   0.622
 5023TIP3    H115012   1.234   6.294   0.649
 5023TIP3    H215013   1.093   6.267   0.695
 5024TIP3   OH215014   8.228   5.051   0.550
 5024TIP3    H115015   8.180   4.976   0.515
 5024TIP3    H215016   8.275   5.085   0.474
 5025TIP3   OH215017   4.319   5.587   2.520
 5025TIP3    H115018   4.384   5.538   2.570
 5025TIP3    H215019   4.241   5.585   2.575
 5026TIP3   OH215020   5.397   0.061   4.149
 5026TIP3    H115021   5.472   0.053   4.208
 5026TIP3    H215022   5.415   0.000   4.078
 5027TIP3   OH215023   4.701   1.038   1.825
 5027TIP3    H115024   4.618   1.080   1.849
 5027TIP3    H215025   4.691   1.014   1.733
 5028TIP3   OH215026   0.653   4.289   4.427
 5028TIP3    H115027   0.672   4.374   4.389
 5028TIP3    H215028   0.725   4.233   4.398
 5029TIP3   OH215029   4.814   0.755   3.431
 5029TIP3    H115030   4.893   0.807   3.413
 5029TIP3    H215031   4.775   0.797   3.507
 5030TIP3   OH215032   8.061   0.364   1.723
 5030TIP3    H115033   8.139   0.337   1.772
 5030TIP3    H215034   7.987   0.329   1.774
 5031TIP3   OH215035   6.799   4.909   2.832
 5031TIP3    H115036   6.708   4.883   2.821
 5031TIP3    H215037   6.843   4.880   2.752
 5032TIP3   OH215038   1.803   4.490   5.084
 5032TIP3    H115039   1.866   4.548   5.040
 5032TIP3    H215040   1.847   4.464   5.165
 5033TIP3   OH215041   2.702   2.288   5.196
 5033TIP3    H115042   2.797   2.286   5.185
 5033TIP3    H215043   2.671   2.349   5.130
 5034TIP3   OH215044   4.095   2.627   2.190
 5034TIP3    H115045   4.150   2.551   2.208
 5034TIP3    H215046   4.054   2.607   2.105
 5035TIP3   OH215047   2.494   0.478   5.179
 5035TIP3    H115048   2.494   0.405   5.117
 5035TIP3    H215049   2.587   0.499   5.190
 5036TIP3   OH215050   1.650   7.815   0.143
 5036TIP3    H115051   1.584   7.778   0.085
 5036TIP3    H215052   1.637   7.769   0.226
 5037TIP3   OH215053   7.313   5.981   5.799
 5037TIP3    H115054   7.344   5.974   5.709
 5037TIP3    H215055   7.233   5.929   5.800
 5038TIP3   OH215056   2.690   6.031   0.230
 5038TIP3    H115057   2.777   5.998   0.206
 5038TIP3    H215058   2.707   6.093   0.301
 5039TIP3   OH215059   3.669   3.439   3.988
 5039TIP3    H115060   3.736   3.498   3.953
 5039TIP3    H215061   3.598   3.496   4.014
 5040TIP3   OH215062   2.697   3.994   6.343
 5040TIP3    H115063   2.686   3.930   6.273
 5040TIP3    H215064   2.778   3.968   6.387
 5041TIP3   OH215065   7.227   2.729   2.127
 5041TIP3    H115066   7.284   2.739   2.050
 5041TIP3    H215067   7.268   2.784   2.194
 5042TIP3   OH215068   3.181   2.899   1.643
 5042TIP3    H115069   3.105   2.923   1.695
 5042TIP3    H215070   3.214   2.981   1.607
 5043TIP3   OH215071   3.730   5.957   5.904
 5043TIP3    H115072   3.688   5.886   5.952
 5043TIP3    H215073   3.822   5.951   5.928
 5044TIP3   OH215074   7.999   2.941   4.664
 5044TIP3    H115075   7.920   2.965   4.712
 5044TIP3    H215076   7.996   2.994   4.584
 5045TIP3   OH215077   4.584   6.816   1.093
 5045TIP3    H115078   4.592   6.871   1.015
 5045TIP3    H215079   4.675   6.797   1.117
 5046TIP3   OH215080   7.546   1.966   5.023
 5046TIP3    H115081   7.510   2.039   4.971
 5046TIP3    H215082   7.561   2.003   5.109
 5047TIP3   OH215083   4.701   4.541   0.886
 5047TIP3    H115084   4.636   4.586   0.833
 5047TIP3    H215085   4.775   4.602   0.889
 5048TIP3   OH215086   6.129   2.157   5.096
 5048TIP3    H115087   6.089   2.072   5.116
 5048TIP3    H215088   6.104   2.175   5.005
 5049TIP3   OH215089   0.412   7.042   1.428
 5049TIP3    H115090   0.388   7.038   1.520
 5049TIP3    H215091   0.357   6.976   1.386
 5050TIP3   OH215092   6.117   5.923   5.777
 5050TIP3    H115093   6.112   5.986   5.705
 5050TIP3    H215094   6.187   5.862   5.750
 5051TIP3   OH215095   0.595   4.679   2.143
 5051TIP3    H115096   0.592   4.727   2.060
 5051TIP3    H215097   0.639   4.739   2.204
 5052TIP3   OH215098   0.694   2.917   5.445
 5052TIP3    H115099   0.635   2.990   5.467
 5052TIP3    H215100   0.768   2.958   5.402
 5053TIP3   OH215101   7.758   5.850   0.853
 5053TIP3    H115102   7.702   5.894   0.916
 5053TIP3    H215103   7.774   5.915   0.785
 5054TIP3   OH215104   6.231   3.846   0.944
 5054TIP3    H115105   6.217   3.817   1.034
 5054TIP3    H215106   6.221   3.941   0.948
 5055TIP3   OH215107   7.768   2.895   2.414
 5055TIP3    H115108   7.708   2.955   2.457
 5055TIP3    H215109   7.853   2.939   2.418
 5056TIP3   OH215110   6.319   2.606   5.601
 5056TIP3    H115111   6.231   2.620   5.566
 5056TIP3    H215112   6.327   2.510   5.607
 5057TIP3   OH215113   4.959   6.725   6.704
 5057TIP3    H115114   4.884   6.693   6.753
 5057TIP3    H215115   4.926   6.739   6.615
 5058TIP3   OH215116   1.973   5.631   0.356
 5058TIP3    H115117   2.063   5.617   0.327
 5058TIP3    H215118   1.971   5.599   0.446
 5059TIP3   OH215119   7.376   6.924   4.202
 5059TIP3    H115120   7.408   6.914   4.292
 5059TIP3    H215121   7.415   6.851   4.154
 5060TIP3   OH215122   5.065   2.590   3.679
 5060TIP3    H115123   4.981   2.583   3.634
 5060TIP3    H215124   5.107   2.505   3.666
 5061TIP3   OH215125   5.786   0.069   5.916
 5061TIP3    H115126   5.814   0.133   5.981
 5061TIP3    H215127   5.813   0.106   5.832
 5062TIP3   OH215128   3.188   6.214   5.143
 5062TIP3    H115129   3.105   6.181   5.108
 5062TIP3    H215130   3.236   6.135   5.169
 5063TIP3   OH215131   7.796   2.859   6.225
 5063TIP3    H115132   7.748   2.917   6.284
 5063TIP3    H215133   7.736   2.787   6.208
 5064TIP3   OH215134   1.271   1.680   3.614
 5064TIP3    H115135   1.313   1.714   3.693
 5064TIP3    H215136   1.183   1.717   3.616
 5065TIP3   OH215137   1.369   5.898   1.992
 5065TIP3    H115138   1.320   5.838   1.936
 5065TIP3    H215139   1.305   5.928   2.057
 5066TIP3   OH215140   0.841   4.137   4.302
 5066TIP3    H115141   0.914   4.141   4.240
 5066TIP3    H215142   0.865   4.065   4.361
 5067TIP3   OH215143   1.251  -0.011   5.733
 5067TIP3    H115144   1.286   0.074   5.760
 5067TIP3    H215145   1.175  -0.024   5.790
 5068TIP3   OH215146   1.610   0.519   5.707
 5068TIP3    H115147   1.664   0.468   5.766
 5068TIP3    H215148   1.619   0.476   5.622
 5069TIP3   OH215149   5.765   4.771   1.476
 5069TIP3    H115150   5.736   4.682   1.498
 5069TIP3    H215151   5.861   4.766   1.481
 5070TIP3   OH215152   5.783   4.230   3.977
 5070TIP3    H115153   5.748   4.171   3.911
 5070TIP3    H215154   5.822   4.173   4.043
 5071TIP3   OH215155   6.474   6.286   0.650
 5071TIP3    H115156   6.491   6.193   0.665
 5071TIP3    H215157   6.517   6.330   0.724
 5072TIP3   OH215158   4.564   1.048   5.522
 5072TIP3    H115159   4.584   1.088   5.606
 5072TIP3    H215160   4.650   1.028   5.483
 5073TIP3   OH215161   6.005   6.367   5.336
 5073TIP3    H115162   5.978   6.282   5.371
 5073TIP3    H215163   6.100   6.369   5.347
 5074TIP3   OH215164   5.574   4.526   0.380
 5074TIP3    H115165   5.538   4.579   0.452
 5074TIP3    H215166   5.516   4.450   0.376
 5075TIP3   OH215167   2.429   4.674   0.604
 5075TIP3    H115168   2.397   4.617   0.534
 5075TIP3    H215169   2.465   4.750   0.558
 5076TIP3   OH215170   4.397   3.604   1.981
 5076TIP3    H115171   4.324   3.546   2.002
 5076TIP3    H215172   4.374   3.687   2.021
 5077TIP3   OH215173   7.559   6.739   0.330
 5077TIP3    H115174   7.647   6.768   0.357
 5077TIP3    H215175   7.560   6.748   0.234
 5078TIP3   OH215176   5.941   6.230   5.648
 5078TIP3    H115177   5.953   6.322   5.673
 5078TIP3    H215178   6.029   6.197   5.633
 5079TIP3   OH215179   5.782   6.258   2.095
 5079TIP3    H115180   5.828   6.220   2.020
 5079TIP3    H215181   5.717   6.192   2.119
 5080TIP3   OH215182   7.345   7.468   4.217
 5080TIP3    H115183   7.300   7.501   4.140
 5080TIP3    H215184   7.359   7.375   4.199
 5081TIP3   OH215185   6.541   5.629   1.823
 5081TIP3    H115186   6.612   5.638   1.760
 5081TIP3    H215187   6.475   5.693   1.794
 5082TIP3   OH215188   1.160   3.345   6.270
 5082TIP3    H115189   1.160   3.362   6.364
 5082TIP3    H215190   1.248   3.310   6.251
 5083TIP3   OH215191   7.800   4.995   1.712
 5083TIP3    H115192   7.869   4.955   1.765
 5083TIP3    H215193   7.846   5.044   1.644
 5084TIP3   OH215194   4.023   6.249   6.075
 5084TIP3    H115195   4.014   6.157   6.098
 5084TIP3    H215196   3.939   6.271   6.033
 5085TIP3   OH215197   0.399   3.764   1.538
 5085TIP3    H115198   0.436   3.851   1.552
 5085TIP3    H215199   0.330   3.756   1.604
 5086TIP3   OH215200   6.183   3.286   4.461
 5086TIP3    H115201   6.170   3.274   4.367
 5086TIP3    H215202   6.095   3.288   4.497
 5087TIP3   OH215203   2.818   1.533   1.508
 5087TIP3    H115204   2.791   1.454   1.460
 5087TIP3    H215205   2.760   1.601   1.475
 5088TIP3   OH215206   1.391   6.549   2.527
 5088TIP3    H115207   1.329   6.480   2.548
 5088TIP3    H215208   1.340   6.630   2.531
 5089TIP3   OH215209   4.318   6.105   5.062
 5089TIP3    H115210   4.327   6.199   5.079
 5089TIP3    H215211   4.339   6.095   4.969
 5090TIP3   OH215212   5.817   2.019   6.313
 5090TIP3    H115213   5.829   2.015   6.408
 5090TIP3    H215214   5.901   1.990   6.277
 5091TIP3   OH215215   2.537   7.555   1.100
 5091TIP3    H115216   2.560   7.462   1.106
 5091TIP3    H215217   2.464   7.565   1.161
 5092TIP3   OH215218   0.161   5.673   3.922
 5092TIP3    H115219   0.140   5.667   3.829
 5092TIP3    H215220   0.223   5.601   3.938
 5093TIP3   OH215221   3.239   5.550   2.954
 5093TIP3    H115222   3.297   5.602   2.899
 5093TIP3    H215223   3.231   5.466   2.908
 5094TIP3   OH215224   5.152   4.362   0.902
 5094TIP3    H115225   5.209   4.439   0.903
 5094TIP3    H215226   5.209   4.290   0.876
 5095TIP3   OH215227   2.000   3.374   1.564
 5095TIP3    H115228   2.029   3.432   1.634
 5095TIP3    H215229   1.907   3.393   1.554
 5096TIP3   OH215230   2.469   3.947   3.721
 5096TIP3    H115231   2.517   4.029   3.735
 5096TIP3    H215232   2.450   3.946   3.627
 5097TIP3   OH215233   1.721   3.295   3.362
 5097TIP3    H115234   1.630   3.321   3.374
 5097TIP3    H215235   1.744   3.327   3.275
 5098TIP3   OH215236   2.549   0.287   6.683
 5098TIP3    H115237   2.501   0.362   6.648
 5098TIP3    H215238   2.637   0.295   6.646
 5099TIP3   OH215239   7.619   0.536   2.131
 5099TIP3    H115240   7.671   0.457   2.146
 5099TIP3    H215241   7.683   0.602   2.104
 5100TIP3   OH215242   2.318   3.504   3.649
 5100TIP3    H115243   2.302   3.414   3.620
 5100TIP3    H215244   2.242   3.525   3.703
 5101TIP3   OH215245   5.816   6.232   0.162
 5101TIP3    H115246   5.767   6.150   0.167
 5101TIP3    H215247   5.817   6.265   0.252
 5102TIP3   OH215248   7.504   6.248   5.035
 5102TIP3    H115249   7.495   6.169   5.089
 5102TIP3    H215250   7.539   6.216   4.952
 5103TIP3   OH215251   0.028   3.150   4.503
 5103TIP3    H115252   0.081   3.230   4.499
 5103TIP3    H215253  -0.062   3.182   4.510
 5104TIP3   OH215254   3.711   2.888   2.415
 5104TIP3    H115255   3.775   2.959   2.417
 5104TIP3    H215256   3.691   2.870   2.507
 5105TIP3   OH215257   1.683   5.255   0.105
 5105TIP3    H115258   1.735   5.316   0.053
 5105TIP3    H215259   1.715   5.268   0.195
 5106TIP3   OH215260   7.076   4.586   3.147
 5106TIP3    H115261   7.113   4.500   3.167
 5106TIP3    H215262   7.095   4.640   3.224
 5107TIP3   OH215263   7.028   3.382   0.105
 5107TIP3    H115264   7.075   3.413   0.028
 5107TIP3    H215265   7.088   3.320   0.147
 5108TIP3   OH215266   2.584   1.079   5.515
 5108TIP3    H115267   2.607   1.081   5.608
 5108TIP3    H215268   2.644   1.142   5.474
 5109TIP3   OH215269   3.640   2.989   1.570
 5109TIP3    H115270   3.661   2.998   1.663
 5109TIP3    H215271   3.700   3.050   1.526
 5110TIP3   OH215272   7.468   4.376   3.608
 5110TIP3    H115273   7.424   4.324   3.541
 5110TIP3    H215274   7.531   4.429   3.560
 5111TIP3   OH215275   1.023   5.810   2.449
 5111TIP3    H115276   0.948   5.860   2.416
 5111TIP3    H215277   1.041   5.746   2.380
 5112TIP3   OH215278   0.669   4.899   1.514
 5112TIP3    H115279   0.752   4.884   1.469
 5112TIP3    H215280   0.678   4.852   1.597
 5113TIP3   OH215281   3.433   1.792   5.360
 5113TIP3    H115282   3.435   1.738   5.281
 5113TIP3    H215283   3.376   1.865   5.337
 5114TIP3   OH215284   4.874   1.080   6.523
 5114TIP3    H115285   4.929   1.077   6.602
 5114TIP3    H215286   4.933   1.114   6.455
 5115TIP3   OH215287   5.249   0.724   3.570
 5115TIP3    H115288   5.284   0.693   3.653
 5115TIP3    H215289   5.326   0.734   3.514
 5116TIP3   OH215290   1.594   2.036   4.480
 5116TIP3    H115291   1.510   2.056   4.521
 5116TIP3    H215292   1.581   1.949   4.442
 5117TIP3   OH215293   3.100   7.352   2.014
 5117TIP3    H115294   3.055   7.268   2.000
 5117TIP3    H215295   3.181   7.344   1.964
 5118TIP3   OH215296   3.897   5.653   5.932
 5118TIP3    H115297   3.924   5.728   5.879
 5118TIP3    H215298   3.823   5.686   5.983
 5119TIP3   OH215299   2.636   3.019   1.042
 5119TIP3    H115300   2.544   3.042   1.055
 5119TIP3    H215301   2.640   2.987   0.951
 5120TIP3   OH215302   4.859   0.978   2.270
 5120TIP3    H115303   4.822   0.922   2.339
 5120TIP3    H215304   4.918   1.037   2.317
 5121TIP3   OH215305   4.679   0.984   0.339
 5121TIP3    H115306   4.774   0.993   0.347
 5121TIP3    H215307   4.644   1.056   0.390
 5122TIP3   OH215308   7.656   2.097   3.634
 5122TIP3    H115309   7.680   2.189   3.620
 5122TIP3    H215310   7.567   2.101   3.669
 5123TIP3   OH215311   2.780   4.361   0.437
 5123TIP3    H115312   2.835   4.293   0.399
 5123TIP3    H215313   2.692   4.340   0.406
 5124TIP3   OH215314   1.208   6.309   1.727
 5124TIP3    H115315   1.201   6.403   1.713
 5124TIP3    H215316   1.208   6.271   1.639
 5125TIP3   OH215317   1.875   4.060   0.261
 5125TIP3    H115318   1.838   4.130   0.207
 5125TIP3    H215319   1.854   4.086   0.351
 5126TIP3   OH215320   0.663   1.812   2.712
 5126TIP3    H115321   0.734   1.826   2.649
 5126TIP3    H215322   0.706   1.802   2.796
 5127TIP3   OH215323   0.746   7.069   4.694
 5127TIP3    H115324   0.692   6.993   4.672
 5127TIP3    H215325   0.684   7.131   4.734
 5128TIP3   OH215326   7.903   1.332   3.306
 5128TIP3    H115327   7.895   1.410   3.360
 5128TIP3    H215328   7.813   1.301   3.294
 5129TIP3   OH215329   1.617   6.822   1.221
 5129TIP3    H115330   1.628   6.747   1.280
 5129TIP3    H215331   1.534   6.806   1.176
 5130TIP3   OH215332   2.878   7.287   2.452
 5130TIP3    H115333   2.947   7.242   2.403
 5130TIP3    H215334   2.913   7.294   2.541
 5131TIP3   OH215335   6.467   7.772   6.046
 5131TIP3    H115336   6.501   7.701   6.100
 5131TIP3    H215337   6.374   7.778   6.070
 5132TIP3   OH215338   2.727   4.219   3.151
 5132TIP3    H115339   2.783   4.196   3.225
 5132TIP3    H215340   2.788   4.243   3.081
 5133TIP3   OH215341   2.981   3.910   0.103
 5133TIP3    H115342   2.941   3.855   0.035
 5133TIP3    H215343   3.026   3.980   0.054
 5134TIP3   OH215344   2.494   2.669   1.910
 5134TIP3    H115345   2.474   2.640   1.999
 5134TIP3    H215346   2.410   2.667   1.864
 5135TIP3   OH215347   5.732   7.690   6.279
 5135TIP3    H115348   5.791   7.625   6.242
 5135TIP3    H215349   5.776   7.774   6.262
 5136TIP3   OH215350   6.575   6.286   1.951
 5136TIP3    H115351   6.579   6.294   2.047
 5136TIP3    H215352   6.536   6.200   1.936
 5137TIP3   OH215353   1.093   3.846   5.406
 5137TIP3    H115354   1.178   3.827   5.366
 5137TIP3    H215355   1.039   3.770   5.387
 5138TIP3   OH215356   6.189   4.003   5.625
 5138TIP3    H115357   6.223   4.068   5.687
 5138TIP3    H215358   6.201   4.044   5.539
 5139TIP3   OH215359   4.707   6.823   1.814
 5139TIP3    H115360   4.790   6.853   1.778
 5139TIP3    H215361   4.664   6.777   1.741
 5140TIP3   OH215362   1.861   5.380   2.126
 5140TIP3    H115363   1.894   5.311   2.183
 5140TIP3    H215364   1.924   5.384   2.054
 5141TIP3   OH215365   3.006   1.896   0.034
 5141TIP3    H115366   2.945   1.880  -0.038
 5141TIP3    H215367   3.078   1.835   0.019
 5142TIP3   OH215368   6.872   7.174   3.525
 5142TIP3    H115369   6.882   7.230   3.448
 5142TIP3    H215370   6.920   7.094   3.502
 5143TIP3   OH215371   3.838   5.146   3.929
 5143TIP3    H115372   3.837   5.051   3.917
 5143TIP3    H215373   3.931   5.169   3.921
 5144TIP3   OH215374   4.178   3.281   4.559
 5144TIP3    H115375   4.234   3.264   4.635
 5144TIP3    H215376   4.092   3.300   4.596
 5145TIP3   OH215377   3.921   5.163   2.377
 5145TIP3    H115378   3.840   5.210   2.357
 5145TIP3    H215379   3.985   5.232   2.394
 5146TIP3   OH215380   4.229   0.021   5.400
 5146TIP3    H115381   4.323   0.034   5.411
 5146TIP3    H215382   4.201   0.094   5.344
 5147TIP3   OH215383   3.809   7.400   3.494
 5147TIP3    H115384   3.756   7.478   3.513
 5147TIP3    H215385   3.899   7.432   3.491
 5148TIP3   OH215386   2.500   5.864   4.657
 5148TIP3    H115387   2.480   5.911   4.577
 5148TIP3    H215388   2.586   5.825   4.642
 5149TIP3   OH215389   4.926   2.800   4.077
 5149TIP3    H115390   4.992   2.849   4.028
 5149TIP3    H215391   4.913   2.720   4.026
 5150TIP3   OH215392   4.665   4.930   6.668
 5150TIP3    H115393   4.622   5.016   6.668
 5150TIP3    H215394   4.640   4.891   6.585
 5151TIP3   OH215395   5.187   6.457   3.961
 5151TIP3    H115396   5.222   6.546   3.962
 5151TIP3    H215397   5.120   6.459   3.893
 5152TIP3   OH215398   6.537   0.338   5.273
 5152TIP3    H115399   6.594   0.413   5.289
 5152TIP3    H215400   6.461   0.374   5.226
 5153TIP3   OH215401   4.946   6.186   1.004
 5153TIP3    H115402   4.927   6.221   0.917
 5153TIP3    H215403   5.041   6.178   1.006
 5154TIP3   OH215404   0.294   3.586   5.755
 5154TIP3    H115405   0.265   3.498   5.732
 5154TIP3    H215406   0.380   3.595   5.714
 5155TIP3   OH215407   2.861   6.138   2.093
 5155TIP3    H115408   2.903   6.186   2.165
 5155TIP3    H215409   2.771   6.125   2.123
 5156TIP3   OH215410   6.664   7.437   1.671
 5156TIP3    H115411   6.705   7.431   1.584
 5156TIP3    H215412   6.735   7.463   1.729
 5157TIP3   OH215413   0.692   5.788   2.845
 5157TIP3    H115414   0.606   5.820   2.817
 5157TIP3    H215415   0.752   5.859   2.822
 5158TIP3   OH215416   1.657   2.205   1.764
 5158TIP3    H115417   1.678   2.294   1.736
 5158TIP3    H215418   1.732   2.152   1.737
 5159TIP3   OH215419   4.628   6.362   0.785
 5159TIP3    H115420   4.569   6.340   0.713
 5159TIP3    H215421   4.694   6.419   0.746
 5160TIP3   OH215422   6.256   2.628   4.949
 5160TIP3    H115423   6.317   2.701   4.936
 5160TIP3    H215424   6.279   2.566   4.880
 5161TIP3   OH215425   6.386   3.625   1.216
 5161TIP3    H115426   6.458   3.603   1.157
 5161TIP3    H215427   6.429   3.646   1.299
 5162TIP3   OH215428   5.769   5.699   0.721
 5162TIP3    H115429   5.843   5.651   0.757
 5162TIP3    H215430   5.746   5.652   0.641
 5163TIP3   OH215431   6.911   5.030   4.082
 5163TIP3    H115432   6.863   4.997   4.158
 5163TIP3    H215433   6.842   5.047   4.016
 5164TIP3   OH215434   2.369   3.411   1.597
 5164TIP3    H115435   2.300   3.388   1.660
 5164TIP3    H215436   2.450   3.403   1.646
 5165TIP3   OH215437   5.133   6.221   4.061
 5165TIP3    H115438   5.159   6.230   4.153
 5165TIP3    H215439   5.148   6.308   4.024
 5166TIP3   OH215440   5.311   7.155   3.102
 5166TIP3    H115441   5.344   7.081   3.051
 5166TIP3    H215442   5.234   7.186   3.053
 5167TIP3   OH215443   0.299   5.015   1.067
 5167TIP3    H115444   0.325   5.077   0.999
 5167TIP3    H215445   0.305   5.066   1.149
 5168TIP3   OH215446   3.380   1.082   2.670
 5168TIP3    H115447   3.404   1.161   2.718
 5168TIP3    H215448   3.308   1.109   2.614
 5169TIP3   OH215449   6.325   3.073   6.096
 5169TIP3    H115450   6.402   3.108   6.052
 5169TIP3    H215451   6.287   3.012   6.033
 5170TIP3   OH215452   2.512   1.030   3.248
 5170TIP3    H115453   2.550   1.064   3.328
 5170TIP3    H215454   2.427   1.073   3.240
 5171TIP3   OH215455   5.652   2.602   6.591
 5171TIP3    H115456   5.693   2.590   6.506
 5171TIP3    H215457   5.678   2.525   6.641
 5172TIP3   OH215458   6.768   7.372   0.394
 5172TIP3    H115459   6.779   7.348   0.302
 5172TIP3    H215460   6.813   7.304   0.443
 5173TIP3   OH215461   0.704   1.701   5.414
 5173TIP3    H115462   0.622   1.709   5.463
 5173TIP3    H215463   0.679   1.658   5.332
 5174TIP3   OH215464   1.046   4.336   4.469
 5174TIP3    H115465   1.075   4.282   4.395
 5174TIP3    H215466   1.042   4.276   4.543
 5175TIP3   OH215467   5.301   7.149   0.409
 5175TIP3    H115468   5.289   7.057   0.382
 5175TIP3    H215469   5.378   7.178   0.359
 5176TIP3   OH215470   7.358   4.542   3.787
 5176TIP3    H115471   7.381   4.482   3.716
 5176TIP3    H215472   7.382   4.628   3.754
 5177TIP3   OH215473   5.481   1.217   6.782
 5177TIP3    H115474   5.550   1.158   6.812
 5177TIP3    H215475   5.427   1.164   6.724
 5178TIP3   OH215476   4.577   1.672   3.740
 5178TIP3    H115477   4.490   1.640   3.716
 5178TIP3    H215478   4.614   1.706   3.659
 5179TIP3   OH215479   0.375   1.068   6.137
 5179TIP3    H115480   0.458   1.038   6.173
 5179TIP3    H215481   0.376   1.037   6.046
 5180TIP3   OH215482   5.504   6.890   6.203
 5180TIP3    H115483   5.574   6.826   6.187
 5180TIP3    H215484   5.526   6.928   6.289
 5181TIP3   OH215485   0.268   2.155   6.038
 5181TIP3    H115486   0.229   2.163   5.951
 5181TIP3    H215487   0.304   2.242   6.056
 5182TIP3   OH215488   0.512   0.113   3.009
 5182TIP3    H115489   0.591   0.138   2.961
 5182TIP3    H215490   0.447   0.097   2.941
 5183TIP3   OH215491   1.515   5.810   3.507
 5183TIP3    H115492   1.440   5.862   3.535
 5183TIP3    H215493   1.514   5.817   3.411
 5184TIP3   OH215494   8.188   2.562   4.290
 5184TIP3    H115495   8.250   2.541   4.359
 5184TIP3    H215496   8.146   2.643   4.318
 5185TIP3   OH215497   2.963   3.222   5.381
 5185TIP3    H115498   3.041   3.167   5.372
 5185TIP3    H215499   2.968   3.256   5.470
 5186TIP3   OH215500   1.192   1.017   0.497
 5186TIP3    H115501   1.115   1.037   0.445
 5186TIP3    H215502   1.229   0.938   0.458
 5187TIP3   OH215503   7.542   0.317   5.143
 5187TIP3    H115504   7.534   0.413   5.146
 5187TIP3    H215505   7.511   0.293   5.055
 5188TIP3   OH215506   7.540   4.391   0.397
 5188TIP3    H115507   7.508   4.305   0.370
 5188TIP3    H215508   7.625   4.400   0.354
 5189TIP3   OH215509   1.046   6.496   2.664
 5189TIP3    H115510   1.070   6.480   2.572
 5189TIP3    H215511   1.118   6.458   2.714
 5190TIP3   OH215512   5.986   1.864   2.874
 5190TIP3    H115513   5.956   1.791   2.819
 5190TIP3    H215514   6.031   1.821   2.946
 5191TIP3   OH215515   1.462   1.776   1.512
 5191TIP3    H115516   1.521   1.850   1.529
 5191TIP3    H215517   1.374   1.812   1.524
 5192TIP3   OH215518   1.094   0.373   4.182
 5192TIP3    H115519   1.106   0.463   4.212
 5192TIP3    H215520   1.044   0.331   4.252
 5193TIP3   OH215521   3.097   2.437   2.218
 5193TIP3    H115522   3.155   2.493   2.165
 5193TIP3    H215523   3.023   2.418   2.160
 5194TIP3   OH215524   4.068   0.718   0.989
 5194TIP3    H115525   4.061   0.776   0.913
 5194TIP3    H215526   4.141   0.754   1.039
 5195TIP3   OH215527   5.392   4.486   1.106
 5195TIP3    H115528   5.369   4.573   1.138
 5195TIP3    H215529   5.488   4.482   1.111
 5196TIP3   OH215530   0.728   3.007   2.871
 5196TIP3    H115531   0.643   2.963   2.862
 5196TIP3    H215532   0.786   2.960   2.811
 5197TIP3   OH215533   5.086   4.371   6.221
 5197TIP3    H115534   5.094   4.387   6.127
 5197TIP3    H215535   5.157   4.310   6.241
 5198TIP3   OH215536   7.869   4.184   1.897
 5198TIP3    H115537   7.803   4.201   1.964
 5198TIP3    H215538   7.837   4.230   1.819
 5199TIP3   OH215539   6.597   5.825   3.166
 5199TIP3    H115540   6.620   5.873   3.087
 5199TIP3    H215541   6.681   5.798   3.203
 5200TIP3   OH215542   7.785   4.086   1.471
 5200TIP3    H115543   7.851   4.103   1.404
 5200TIP3    H215544   7.792   3.992   1.488
 5201TIP3   OH215545   2.791   6.250   6.811
 5201TIP3    H115546   2.829   6.201   6.738
 5201TIP3    H215547   2.764   6.333   6.772
 5202TIP3   OH215548   6.283   1.322   4.897
 5202TIP3    H115549   6.273   1.299   4.804
 5202TIP3    H215550   6.374   1.351   4.904
 5203TIP3   OH215551   3.825   1.709   2.029
 5203TIP3    H115552   3.841   1.644   2.097
 5203TIP3    H215553   3.912   1.745   2.010
 5204TIP3   OH215554   7.399   0.002   3.901
 5204TIP3    H115555   7.394   0.034   3.991
 5204TIP3    H215556   7.334   0.053   3.854
 5205TIP3   OH215557   3.909   3.515   3.885
 5205TIP3    H115558   3.954   3.435   3.861
 5205TIP3    H215559   3.914   3.570   3.807
 5206TIP3   OH215560   4.629   4.179   5.295
 5206TIP3    H115561   4.556   4.121   5.272
 5206TIP3    H215562   4.623   4.188   5.390
 5207TIP3   OH215563   0.058   4.206   4.345
 5207TIP3    H115564  -0.021   4.158   4.320
 5207TIP3    H215565   0.064   4.278   4.282
 5208TIP3   OH215566   5.250   7.334   5.638
 5208TIP3    H115567   5.340   7.310   5.617
 5208TIP3    H215568   5.250   7.342   5.733
 5209TIP3   OH215569   3.673   6.025   0.974
 5209TIP3    H115570   3.742   6.070   0.925
 5209TIP3    H215571   3.593   6.043   0.925
 5210TIP3   OH215572   6.709   5.666   1.601
 5210TIP3    H115573   6.670   5.596   1.549
 5210TIP3    H215574   6.803   5.659   1.583
 5211TIP3   OH215575   5.461   7.308   1.276
 5211TIP3    H115576   5.397   7.239   1.260
 5211TIP3    H215577   5.431   7.350   1.357
 5212TIP3   OH215578   0.188   0.959   2.978
 5212TIP3    H115579   0.133   1.036   2.991
 5212TIP3    H215580   0.128   0.885   2.990
 5213TIP3   OH215581   0.588   4.080   3.895
 5213TIP3    H115582   0.573   3.999   3.944
 5213TIP3    H215583   0.598   4.148   3.961
 5214TIP3   OH215584   6.428   6.847   4.250
 5214TIP3    H115585   6.467   6.886   4.171
 5214TIP3    H215586   6.441   6.753   4.239
 5215TIP3   OH215587   0.018   0.856   1.542
 5215TIP3    H115588  -0.047   0.915   1.505
 5215TIP3    H215589   0.047   0.803   1.468
 5216TIP3   OH215590   0.815   5.079   6.666
 5216TIP3    H115591   0.867   5.000   6.653
 5216TIP3    H215592   0.731   5.047   6.701
 5217TIP3   OH215593   0.452   3.532   4.903
 5217TIP3    H115594   0.478   3.602   4.963
 5217TIP3    H215595   0.387   3.481   4.951
 5218TIP3   OH215596   3.634   1.444   0.594
 5218TIP3    H115597   3.722   1.406   0.596
 5218TIP3    H215598   3.648   1.538   0.604
 5219TIP3   OH215599   2.250   3.873   1.448
 5219TIP3    H115600   2.337   3.833   1.461
 5219TIP3    H215601   2.208   3.867   1.534
 5220TIP3   OH215602   0.256   3.442   3.665
 5220TIP3    H115603   0.267   3.527   3.708
 5220TIP3    H215604   0.249   3.380   3.738
 5221TIP3   OH215605   0.866   4.494   1.915
 5221TIP3    H115606   0.833   4.422   1.862
 5221TIP3    H215607   0.844   4.471   2.005
 5222TIP3   OH215608   4.916   4.926   5.561
 5222TIP3    H115609   4.946   4.961   5.645
 5222TIP3    H215610   4.882   4.839   5.583
 5223TIP3   OH215611   3.951   2.728   4.320
 5223TIP3    H115612   3.875   2.778   4.289
 5223TIP3    H215613   3.940   2.641   4.282
 5224TIP3   OH215614   0.221   4.794   2.988
 5224TIP3    H115615   0.191   4.705   2.968
 5224TIP3    H215616   0.147   4.850   2.966
 5225TIP3   OH215617   3.858   5.969   1.620
 5225TIP3    H115618   3.787   6.032   1.621
 5225TIP3    H215619   3.921   6.003   1.685
 5226TIP3   OH215620   1.371   5.150   2.740
 5226TIP3    H115621   1.421   5.084   2.787
 5226TIP3    H215622   1.422   5.230   2.748
 5227TIP3   OH215623   5.710   6.767   2.135
 5227TIP3    H115624   5.732   6.750   2.043
 5227TIP3    H215625   5.671   6.686   2.166
 5228TIP3   OH215626   7.379   5.208   3.956
 5228TIP3    H115627   7.315   5.234   4.023
 5228TIP3    H215628   7.460   5.193   4.005
 5229TIP3   OH215629   8.188   4.670   2.627
 5229TIP3    H115630   8.256   4.732   2.601
 5229TIP3    H215631   8.115   4.725   2.656
 5230TIP3   OH215632   6.544   2.786   2.753
 5230TIP3    H115633   6.539   2.721   2.683
 5230TIP3    H215634   6.513   2.740   2.831
 5231TIP3   OH215635   1.081   1.681   2.193
 5231TIP3    H115636   1.028   1.720   2.124
 5231TIP3    H215637   1.148   1.747   2.211
 5232TIP3   OH215638   2.546   3.521   3.816
 5232TIP3    H115639   2.553   3.427   3.827
 5232TIP3    H215640   2.475   3.533   3.753
 5233TIP3   OH215641   1.173   7.466   4.861
 5233TIP3    H115642   1.190   7.406   4.788
 5233TIP3    H215643   1.116   7.534   4.823
 5234TIP3   OH215644   6.389   3.200   1.097
 5234TIP3    H115645   6.377   3.108   1.072
 5234TIP3    H215646   6.318   3.218   1.159
 5235TIP3   OH215647   5.877   5.740   1.776
 5235TIP3    H115648   5.848   5.829   1.757
 5235TIP3    H215649   5.878   5.696   1.691
 5236TIP3   OH215650   4.990   2.609   4.996
 5236TIP3    H115651   4.907   2.562   5.002
 5236TIP3    H215652   5.044   2.569   5.064
 5237TIP3   OH215653   3.695   4.872   1.345
 5237TIP3    H115654   3.748   4.836   1.416
 5237TIP3    H215655   3.608   4.881   1.383
 5238TIP3   OH215656   2.238   5.853   1.924
 5238TIP3    H115657   2.229   5.938   1.967
 5238TIP3    H215658   2.330   5.846   1.901
 5239TIP3   OH215659   6.831   6.732   2.042
 5239TIP3    H115660   6.756   6.730   2.102
 5239TIP3    H215661   6.905   6.702   2.096
 5240TIP3   OH215662   0.087   0.400   1.848
 5240TIP3    H115663   0.127   0.369   1.929
 5240TIP3    H215664   0.074   0.321   1.796
 5241TIP3   OH215665   1.828   0.209   0.886
 5241TIP3    H115666   1.786   0.290   0.857
 5241TIP3    H215667   1.855   0.226   0.976
 5242TIP3   OH215668   8.018   6.041   4.886
 5242TIP3    H115669   8.028   6.053   4.792
 5242TIP3    H215670   7.923   6.033   4.899
 5243TIP3   OH215671   3.329   4.859   0.483
 5243TIP3    H115672   3.289   4.864   0.570
 5243TIP3    H215673   3.422   4.874   0.499
 5244TIP3   OH215674   0.439   3.316   1.186
 5244TIP3    H115675   0.497   3.365   1.245
 5244TIP3    H215676   0.377   3.382   1.154
 5245TIP3   OH215677   0.763   6.148   5.158
 5245TIP3    H115678   0.728   6.104   5.236
 5245TIP3    H215679   0.814   6.081   5.113
 5246TIP3   OH215680   7.131   4.272   2.064
 5246TIP3    H115681   7.163   4.260   1.975
 5246TIP3    H215682   7.042   4.305   2.053
 5247TIP3   OH215683   4.070   3.490   5.572
 5247TIP3    H115684   4.155   3.446   5.572
 5247TIP3    H215685   4.006   3.419   5.578
 5248TIP3   OH215686   3.994   4.830   3.267
 5248TIP3    H115687   4.089   4.831   3.275
 5248TIP3    H215688   3.966   4.911   3.310
 5249TIP3   OH215689   1.293   4.176   5.252
 5249TIP3    H115690   1.245   4.258   5.264
 5249TIP3    H215691   1.374   4.188   5.303
 5250TIP3   OH215692   2.976   0.438   5.084
 5250TIP3    H115693   2.999   0.492   5.008
 5250TIP3    H215694   3.060   0.418   5.125
 5251TIP3   OH215695   7.452   5.540   2.220
 5251TIP3    H115696   7.411   5.486   2.153
 5251TIP3    H215697   7.459   5.483   2.297
 5252TIP3   OH215698   7.301   4.583   6.669
 5252TIP3    H115699   7.394   4.603   6.655
 5252TIP3    H215700   7.299   4.487   6.676
 5253TIP3   OH215701   6.128   7.040   5.623
 5253TIP3    H115702   6.043   7.084   5.631
 5253TIP3    H215703   6.189   7.099   5.669
 5254TIP3   OH215704   0.497   0.495   0.123
 5254TIP3    H115705   0.555   0.441   0.177
 5254TIP3    H215706   0.409   0.469   0.150
 5255TIP3   OH215707   6.408   2.917   3.803
 5255TIP3    H115708   6.383   2.946   3.891
 5255TIP3    H215709   6.410   2.998   3.751
 5256TIP3   OH215710   7.693   0.498   6.286
 5256TIP3    H115711   7.637   0.476   6.211
 5256TIP3    H215712   7.762   0.431   6.284
 5257TIP3   OH215713   2.755   3.427   0.522
 5257TIP3    H115714   2.777   3.406   0.612
 5257TIP3    H215715   2.773   3.521   0.514
 5258TIP3   OH215716   2.475   7.313   6.724
 5258TIP3    H115717   2.509   7.397   6.694
 5258TIP3    H215718   2.405   7.292   6.662
 5259TIP3   OH215719   4.345   7.080   1.928
 5259TIP3    H115720   4.296   7.121   1.856
 5259TIP3    H215721   4.369   7.152   1.985
 5260TIP3   OH215722   3.219   2.007   4.390
 5260TIP3    H115723   3.235   2.085   4.443
 5260TIP3    H215724   3.174   2.040   4.312
 5261TIP3   OH215725   5.238   4.192   4.671
 5261TIP3    H115726   5.189   4.223   4.747
 5261TIP3    H215727   5.304   4.133   4.706
 5262TIP3   OH215728   2.883   7.343   6.632
 5262TIP3    H115729   2.871   7.352   6.727
 5262TIP3    H215730   2.856   7.253   6.613
 5263TIP3   OH215731   6.153   0.931   3.763
 5263TIP3    H115732   6.107   1.008   3.796
 5263TIP3    H215733   6.195   0.961   3.682
 5264TIP3   OH215734   3.594   5.281   5.549
 5264TIP3    H115735   3.569   5.306   5.638
 5264TIP3    H215736   3.689   5.293   5.547
 5265TIP3   OH215737   6.302   3.781   3.677
 5265TIP3    H115738   6.316   3.837   3.753
 5265TIP3    H215739   6.383   3.787   3.627
 5266TIP3   OH215740   0.021   6.331   2.097
 5266TIP3    H115741   0.100   6.282   2.071
 5266TIP3    H215742  -0.015   6.280   2.170
 5267TIP3   OH215743   7.665   7.617   6.469
 5267TIP3    H115744   7.748   7.574   6.488
 5267TIP3    H215745   7.638   7.656   6.552
 5268TIP3   OH215746   1.486   2.928   3.039
 5268TIP3    H115747   1.517   2.936   3.129
 5268TIP3    H215748   1.521   3.005   2.994
 5269TIP3   OH215749   4.190   4.747   2.308
 5269TIP3    H115750   4.099   4.776   2.317
 5269TIP3    H215751   4.242   4.817   2.348
 5270TIP3   OH215752   2.754   3.921   2.451
 5270TIP3    H115753   2.733   3.869   2.528
 5270TIP3    H215754   2.669   3.937   2.409
 5271TIP3   OH215755   1.689   0.448   0.826
 5271TIP3    H115756   1.758   0.509   0.797
 5271TIP3    H215757   1.629   0.503   0.877
 5272TIP3   OH215758   8.127   3.396   5.678
 5272TIP3    H115759   8.204   3.425   5.630
 5272TIP3    H215760   8.067   3.362   5.611
 5273TIP3   OH215761   5.736   3.394   1.273
 5273TIP3    H115762   5.729   3.412   1.367
 5273TIP3    H215763   5.646   3.395   1.242
 5274TIP3   OH215764   4.764   5.380   3.009
 5274TIP3    H115765   4.836   5.443   3.001
 5274TIP3    H215766   4.785   5.311   2.946
 5275TIP3   OH215767   4.892   0.724   0.187
 5275TIP3    H115768   4.850   0.705   0.271
 5275TIP3    H215769   4.980   0.753   0.211
 5276TIP3   OH215770   8.163   3.573   6.271
 5276TIP3    H115771   8.077   3.532   6.266
 5276TIP3    H215772   8.165   3.634   6.197
 5277TIP3   OH215773   0.091   7.554   0.163
 5277TIP3    H115774   0.045   7.472   0.183
 5277TIP3    H215775   0.102   7.597   0.247
 5278TIP3   OH215776   7.680   5.560   5.315
 5278TIP3    H115777   7.770   5.565   5.282
 5278TIP3    H215778   7.685   5.596   5.403
 5279TIP3   OH215779   7.700   3.215   2.376
 5279TIP3    H115780   7.790   3.183   2.385
 5279TIP3    H215781   7.708   3.310   2.380
 5280TIP3   OH215782   6.838   4.081   5.305
 5280TIP3    H115783   6.851   4.024   5.381
 5280TIP3    H215784   6.839   4.022   5.230
 5281TIP3   OH215785   1.117   7.597   2.959
 5281TIP3    H115786   1.183   7.667   2.963
 5281TIP3    H215787   1.037   7.638   2.992
 5282TIP3   OH215788   4.918   1.215   5.918
 5282TIP3    H115789   5.005   1.181   5.940
 5282TIP3    H215790   4.928   1.251   5.830
 5283TIP3   OH215791   3.204   5.721   0.921
 5283TIP3    H115792   3.140   5.725   0.992
 5283TIP3    H215793   3.270   5.659   0.953
 5284TIP3   OH215794   3.883   2.809   2.001
 5284TIP3    H115795   3.879   2.751   1.924
 5284TIP3    H215796   3.822   2.769   2.064
 5285TIP3   OH215797   6.241   5.793   0.251
 5285TIP3    H115798   6.212   5.702   0.261
 5285TIP3    H215799   6.168   5.838   0.210
 5286TIP3   OH215800   1.684   6.616   1.367
 5286TIP3    H115801   1.640   6.534   1.346
 5286TIP3    H215802   1.730   6.599   1.449
 5287TIP3   OH215803   7.737   1.429   3.910
 5287TIP3    H115804   7.775   1.357   3.860
 5287TIP3    H215805   7.811   1.486   3.930
 5288TIP3   OH215806   4.190   4.666   4.787
 5288TIP3    H115807   4.165   4.645   4.878
 5288TIP3    H215808   4.110   4.649   4.737
 5289TIP3   OH215809   1.116   6.449   2.397
 5289TIP3    H115810   1.172   6.375   2.417
 5289TIP3    H215811   1.139   6.473   2.307
 5290TIP3   OH215812   1.771   0.055   2.904
 5290TIP3    H115813   1.852   0.100   2.880
 5290TIP3    H215814   1.706   0.125   2.910
 5291TIP3   OH215815   3.816   7.405   6.573
 5291TIP3    H115816   3.791   7.324   6.617
 5291TIP3    H215817   3.900   7.385   6.531
 5292TIP3   OH215818   3.922   5.110   5.781
 5292TIP3    H115819   3.956   5.059   5.707
 5292TIP3    H215820   3.832   5.079   5.792
 5293TIP3   OH215821   0.091   7.440   5.925
 5293TIP3    H115822   0.051   7.405   6.005
 5293TIP3    H215823   0.068   7.376   5.857
 5294TIP3   OH215824   2.914   2.023   0.854
 5294TIP3    H115825   2.892   2.038   0.762
 5294TIP3    H215826   2.830   2.022   0.899
 5295TIP3   OH215827   1.589   1.810   4.355
 5295TIP3    H115828   1.616   1.718   4.364
 5295TIP3    H215829   1.622   1.835   4.269
 5296TIP3   OH215830   2.854   3.157   2.649
 5296TIP3    H115831   2.885   3.152   2.740
 5296TIP3    H215832   2.816   3.070   2.633
 5297TIP3   OH215833   6.446   0.362   2.186
 5297TIP3    H115834   6.444   0.344   2.280
 5297TIP3    H215835   6.354   0.371   2.161
 5298TIP3   OH215836   5.082   4.949   4.843
 5298TIP3    H115837   5.120   4.917   4.761
 5298TIP3    H215838   5.122   4.895   4.911
 5299TIP3   OH215839   8.265   7.717   1.340
 5299TIP3    H115840   8.217   7.772   1.402
 5299TIP3    H215841   8.295   7.643   1.393
 5300TIP3   OH215842   7.219   3.615   2.447
 5300TIP3    H115843   7.246   3.524   2.434
 5300TIP3    H215844   7.169   3.637   2.369
 5301TIP3   OH215845   8.053   6.297   5.695
 5301TIP3    H115846   8.070   6.205   5.672
 5301TIP3    H215847   8.049   6.343   5.611
 5302TIP3   OH215848   7.808   2.741   0.155
 5302TIP3    H115849   7.838   2.830   0.134
 5302TIP3    H215850   7.881   2.685   0.128
 5303TIP3   OH215851   8.017   0.945   3.284
 5303TIP3    H115852   8.033   1.023   3.336
 5303TIP3    H215853   8.077   0.879   3.319
 5304TIP3   OH215854   1.862   5.996   4.430
 5304TIP3    H115855   1.948   5.976   4.467
 5304TIP3    H215856   1.850   5.933   4.360
 5305TIP3   OH215857   4.060   1.199   2.820
 5305TIP3    H115858   3.997   1.163   2.758
 5305TIP3    H215859   4.042   1.293   2.820
 5306TIP3   OH215860   7.170   4.658   2.076
 5306TIP3    H115861   7.207   4.593   2.017
 5306TIP3    H215862   7.237   4.670   2.143
 5307TIP3   OH215863   3.584   3.095   2.667
 5307TIP3    H115864   3.630   3.102   2.583
 5307TIP3    H215865   3.654   3.085   2.732
 5308TIP3   OH215866   0.360   4.350   0.963
 5308TIP3    H115867   0.456   4.354   0.956
 5308TIP3    H215868   0.340   4.395   1.045
 5309TIP3   OH215869   2.564   6.569   6.117
 5309TIP3    H115870   2.483   6.567   6.066
 5309TIP3    H215871   2.632   6.589   6.052
 5310TIP3   OH215872   0.100   1.186   3.747
 5310TIP3    H115873   0.143   1.225   3.823
 5310TIP3    H215874   0.084   1.095   3.774
 5311TIP3   OH215875   2.980   5.917   2.283
 5311TIP3    H115876   2.978   5.946   2.192
 5311TIP3    H215877   2.934   5.833   2.282
 5312TIP3   OH215878   3.916   4.651   3.739
 5312TIP3    H115879   4.009   4.651   3.716
 5312TIP3    H215880   3.877   4.584   3.683
 5313TIP3   OH215881   1.476   2.171   1.165
 5313TIP3    H115882   1.484   2.076   1.158
 5313TIP3    H215883   1.383   2.188   1.156
 5314TIP3   OH215884   3.022   1.536   0.894
 5314TIP3    H115885   3.037   1.626   0.923
 5314TIP3    H215886   3.109   1.496   0.893
 5315TIP3   OH215887   2.895   2.420   1.865
 5315TIP3    H115888   2.878   2.366   1.942
 5315TIP3    H215889   2.827   2.487   1.866
 5316TIP3   OH215890   0.888   1.003   6.214
 5316TIP3    H115891   0.941   1.048   6.280
 5316TIP3    H215892   0.941   1.007   6.134
 5317TIP3   OH215893   1.911   1.395   3.091
 5317TIP3    H115894   1.911   1.349   3.006
 5317TIP3    H215895   1.882   1.484   3.070
 5318TIP3   OH215896   5.556   0.517   5.180
 5318TIP3    H115897   5.471   0.513   5.225
 5318TIP3    H215898   5.545   0.586   5.114
 5319TIP3   OH215899   2.321   0.547   3.850
 5319TIP3    H115900   2.400   0.520   3.897
 5319TIP3    H215901   2.349   0.623   3.798
 5320TIP3   OH215902   1.780   3.221   2.624
 5320TIP3    H115903   1.724   3.258   2.692
 5320TIP3    H215904   1.730   3.146   2.591
 5321TIP3   OH215905   4.656   7.750   6.143
 5321TIP3    H115906   4.602   7.680   6.178
 5321TIP3    H215907   4.715   7.773   6.215
 5322TIP3   OH215908   7.128   1.870   3.213
 5322TIP3    H115909   7.134   1.816   3.292
 5322TIP3    H215910   7.185   1.828   3.150
 5323TIP3   OH215911   2.523   6.830   2.177
 5323TIP3    H115912   2.532   6.913   2.130
 5323TIP3    H215913   2.610   6.792   2.175
 5324TIP3   OH215914   3.058   2.272   1.698
 5324TIP3    H115915   3.028   2.346   1.750
 5324TIP3    H215916   3.128   2.232   1.750
 5325TIP3   OH215917   2.807   3.723   4.889
 5325TIP3    H115918   2.733   3.666   4.870
 5325TIP3    H215919   2.805   3.790   4.821
 5326TIP3   OH215920   0.858   0.893   0.184
 5326TIP3    H115921   0.833   0.900   0.092
 5326TIP3    H215922   0.848   0.800   0.205
 5327TIP3   OH215923   2.081   4.375   4.977
 5327TIP3    H115924   2.128   4.402   5.056
 5327TIP3    H215925   2.041   4.455   4.944
 5328TIP3   OH215926   7.140   6.425   0.738
 5328TIP3    H115927   7.082   6.396   0.667
 5328TIP3    H215928   7.191   6.348   0.761
 5329TIP3   OH215929   6.668   1.717   3.355
 5329TIP3    H115930   6.740   1.778   3.373
 5329TIP3    H215931   6.590   1.773   3.348
 5330TIP3   OH215932   5.450   6.263   2.240
 5330TIP3    H115933   5.369   6.275   2.289
 5330TIP3    H215934   5.423   6.225   2.157
 5331TIP3   OH215935   0.981   7.015   5.624
 5331TIP3    H115936   0.890   7.044   5.637
 5331TIP3    H215937   0.984   6.988   5.532
 5332TIP3   OH215938   1.153   7.566   5.102
 5332TIP3    H115939   1.068   7.608   5.092
 5332TIP3    H215940   1.184   7.554   5.012
 5333TIP3   OH215941   2.621   2.983   0.280
 5333TIP3    H115942   2.550   2.931   0.319
 5333TIP3    H215943   2.586   3.009   0.194
 5334TIP3   OH215944   6.600   4.195   6.692
 5334TIP3    H115945   6.658   4.136   6.645
 5334TIP3    H215946   6.622   4.282   6.659
 5335TIP3   OH215947   7.687   7.235   3.959
 5335TIP3    H115948   7.765   7.223   3.905
 5335TIP3    H215949   7.616   7.247   3.895
 5336TIP3   OH215950   7.642   2.312   0.915
 5336TIP3    H115951   7.552   2.287   0.891
 5336TIP3    H215952   7.680   2.344   0.833
 5337TIP3   OH215953   3.758   7.299   0.851
 5337TIP3    H115954   3.823   7.237   0.818
 5337TIP3    H215955   3.802   7.344   0.923
 5338TIP3   OH215956   2.231   5.449   1.386
 5338TIP3    H115957   2.168   5.393   1.433
 5338TIP3    H215958   2.307   5.452   1.444
 5339TIP3   OH215959   0.388   3.580   5.390
 5339TIP3    H115960   0.360   3.671   5.393
 5339TIP3    H215961   0.439   3.568   5.471
 5340TIP3   OH215962   5.132   1.007   1.196
 5340TIP3    H115963   5.191   1.045   1.131
 5340TIP3    H215964   5.046   1.008   1.154
 5341TIP3   OH215965   3.828   2.703   4.832
 5341TIP3    H115966   3.917   2.681   4.863
 5341TIP3    H215967   3.784   2.618   4.825
 5342TIP3   OH215968   1.466   4.702   5.017
 5342TIP3    H115969   1.419   4.679   5.097
 5342TIP3    H215970   1.444   4.794   5.002
 5343TIP3   OH215971   0.814   5.093   0.752
 5343TIP3    H115972   0.726   5.056   0.754
 5343TIP3    H215973   0.809   5.164   0.688
 5344TIP3   OH215974   2.705   5.427   0.767
 5344TIP3    H115975   2.661   5.492   0.712
 5344TIP3    H215976   2.634   5.391   0.821
 5345TIP3   OH215977   2.732   6.335   5.670
 5345TIP3    H115978   2.675   6.383   5.730
 5345TIP3    H215979   2.748   6.398   5.599
 5346TIP3   OH215980   0.572   4.115   0.065
 5346TIP3    H115981   0.627   4.141  -0.009
 5346TIP3    H215982   0.488   4.157   0.050
 5347TIP3   OH215983   2.632   7.122   1.494
 5347TIP3    H115984   2.609   7.032   1.471
 5347TIP3    H215985   2.553   7.172   1.478
 5348TIP3   OH215986   6.026   3.796   6.381
 5348TIP3    H115987   5.983   3.793   6.295
 5348TIP3    H215988   5.978   3.862   6.430
 5349TIP3   OH215989   4.983   1.224   4.701
 5349TIP3    H115990   4.973   1.167   4.777
 5349TIP3    H215991   4.894   1.238   4.670
 5350TIP3   OH215992   3.020   6.434   1.298
 5350TIP3    H115993   3.066   6.507   1.340
 5350TIP3    H215994   3.055   6.432   1.209
 5351TIP3   OH215995   6.829   3.835   4.022
 5351TIP3    H115996   6.776   3.788   3.958
 5351TIP3    H215997   6.770   3.900   4.060
 5352TIP3   OH215998   4.011   1.468   3.263
 5352TIP3    H115999   3.920   1.441   3.272
 5352TIP3    H216000   4.006   1.562   3.243
 5353TIP3   OH216001   6.090   0.774   6.387
 5353TIP3    H116002   6.009   0.819   6.364
 5353TIP3    H216003   6.152   0.797   6.318
 5354TIP3   OH216004   3.392   4.412   1.289
 5354TIP3    H116005   3.464   4.365   1.246
 5354TIP3    H216006   3.364   4.477   1.225
 5355TIP3   OH216007   1.891   5.478   0.065
 5355TIP3    H116008   1.977   5.494   0.027
 5355TIP3    H216009   1.909   5.441   0.151
 5356TIP3   OH216010   1.640   6.205   5.656
 5356TIP3    H116011   1.586   6.274   5.618
 5356TIP3    H216012   1.692   6.172   5.583
 5357TIP3   OH216013   0.850   3.962   0.852
 5357TIP3    H116014   0.874   4.051   0.825
 5357TIP3    H216015   0.756   3.956   0.833
 5358TIP3   OH216016   3.172   5.316   3.529
 5358TIP3    H116017   3.236   5.299   3.459
 5358TIP3    H216018   3.092   5.273   3.499
 5359TIP3   OH216019   7.821   4.960   3.452
 5359TIP3    H116020   7.756   4.974   3.383
 5359TIP3    H216021   7.864   5.045   3.461
 5360TIP3   OH216022   0.341   7.757   2.803
 5360TIP3    H116023   0.300   7.739   2.887
 5360TIP3    H216024   0.367   7.849   2.807
 5361TIP3   OH216025   3.377   2.879   0.054
 5361TIP3    H116026   3.404   2.970   0.042
 5361TIP3    H216027   3.336   2.876   0.141
 5362TIP3   OH216028   1.135   7.698   0.762
 5362TIP3    H116029   1.125   7.733   0.674
 5362TIP3    H216030   1.194   7.623   0.751
 5363TIP3   OH216031   0.497   7.544   5.533
 5363TIP3    H116032   0.468   7.457   5.559
 5363TIP3    H216033   0.462   7.555   5.444
 5364TIP3   OH216034   4.122   7.263   2.363
 5364TIP3    H116035   4.043   7.250   2.415
 5364TIP3    H216036   4.184   7.305   2.422
 5365TIP3   OH216037   1.408   0.210   4.872
 5365TIP3    H116038   1.481   0.271   4.871
 5365TIP3    H216039   1.408   0.174   4.961
 5366TIP3   OH216040   6.263   7.194   1.150
 5366TIP3    H116041   6.269   7.285   1.121
 5366TIP3    H216042   6.353   7.161   1.146
 5367TIP3   OH216043   6.539   0.680   4.762
 5367TIP3    H116044   6.449   0.663   4.789
 5367TIP3    H216045   6.589   0.680   4.844
 5368TIP3   OH216046   1.947   0.365   0.627
 5368TIP3    H116047   1.928   0.271   0.631
 5368TIP3    H216048   2.004   0.382   0.702
 5369TIP3   OH216049   8.242   5.985   5.853
 5369TIP3    H116050   8.167   5.946   5.897
 5369TIP3    H216051   8.208   6.015   5.769
 5370TIP3   OH216052   5.270   6.334   1.430
 5370TIP3    H116053   5.360   6.355   1.407
 5370TIP3    H216054   5.250   6.254   1.383
 5371TIP3   OH216055   5.180   3.096   5.390
 5371TIP3    H116056   5.263   3.074   5.433
 5371TIP3    H216057   5.171   3.190   5.403
 5372TIP3   OH216058   2.523   2.394   6.410
 5372TIP3    H116059   2.491   2.401   6.320
 5372TIP3    H216060   2.582   2.468   6.420
 5373TIP3   OH216061   6.550   7.473   2.940
 5373TIP3    H116062   6.577   7.530   3.011
 5373TIP3    H216063   6.491   7.410   2.980
 5374TIP3   OH216064   8.068   0.770   1.170
 5374TIP3    H116065   8.109   0.684   1.164
 5374TIP3    H216066   8.056   0.784   1.264
 5375TIP3   OH216067   7.485   2.500   4.953
 5375TIP3    H116068   7.470   2.480   4.861
 5375TIP3    H216069   7.401   2.536   4.983
 5376TIP3   OH216070   1.422   3.666   6.517
 5376TIP3    H116071   1.487   3.735   6.531
 5376TIP3    H216072   1.355   3.706   6.461
 5377TIP3   OH216073   1.744   1.090   3.106
 5377TIP3    H116074   1.764   1.061   3.017
 5377TIP3    H216075   1.818   1.059   3.158
 5378TIP3   OH216076   0.838   1.272   2.623
 5378TIP3    H116077   0.916   1.227   2.592
 5378TIP3    H216078   0.773   1.202   2.634
 5379TIP3   OH216079   1.925   6.648   5.388
 5379TIP3    H116080   1.991   6.579   5.395
 5379TIP3    H216081   1.966   6.716   5.336
 5380TIP3   OH216082   4.969   6.931   0.496
 5380TIP3    H116083   5.059   6.959   0.513
 5380TIP3    H216084   4.976   6.838   0.478
 5381TIP3   OH216085   7.436   0.305   1.315
 5381TIP3    H116086   7.468   0.240   1.252
 5381TIP3    H216087   7.501   0.375   1.313
 5382TIP3   OH216088   2.622   1.663   2.808
 5382TIP3    H116089   2.637   1.661   2.903
 5382TIP3    H216090   2.610   1.755   2.787
 5383TIP3   OH216091   6.252   1.498   3.066
 5383TIP3    H116092   6.214   1.461   2.987
 5383TIP3    H216093   6.199   1.575   3.085
 5384TIP3   OH216094   1.112   3.145   3.995
 5384TIP3    H116095   1.157   3.121   3.914
 5384TIP3    H216096   1.019   3.126   3.977
 5385TIP3   OH216097   6.453   1.974   2.995
 5385TIP3    H116098   6.541   1.995   2.964
 5385TIP3    H216099   6.429   1.895   2.946
 5386TIP3   OH216100   1.763   6.107   5.446
 5386TIP3    H116101   1.721   6.100   5.360
 5386TIP3    H216102   1.857   6.101   5.426
 5387TIP3   OH216103   2.531   6.891   3.026
 5387TIP3    H116104   2.601   6.925   2.972
 5387TIP3    H216105   2.451   6.912   2.978
 5388TIP3   OH216106   4.244   0.166   0.872
 5388TIP3    H116107   4.329   0.141   0.837
 5388TIP3    H216108   4.231   0.256   0.841
 5389TIP3   OH216109   7.297   0.479   2.629
 5389TIP3    H116110   7.311   0.554   2.687
 5389TIP3    H216111   7.209   0.450   2.649
 5390TIP3   OH216112   2.070   5.366   0.972
 5390TIP3    H116113   1.983   5.400   0.992
 5390TIP3    H216114   2.056   5.304   0.901
 5391TIP3   OH216115   0.215   7.814   6.471
 5391TIP3    H116116   0.143   7.790   6.412
 5391TIP3    H216117   0.293   7.812   6.416
 5392TIP3   OH216118   3.766   2.778   0.274
 5392TIP3    H116119   3.687   2.761   0.325
 5392TIP3    H216120   3.765   2.873   0.259
 5393TIP3   OH216121   2.698   0.637   2.986
 5393TIP3    H116122   2.644   0.650   2.908
 5393TIP3    H216123   2.777   0.594   2.954
 5394TIP3   OH216124   7.379   3.984   1.901
 5394TIP3    H116125   7.380   3.998   1.996
 5394TIP3    H216126   7.468   4.007   1.872
 5395TIP3   OH216127   1.542   4.144   3.619
 5395TIP3    H116128   1.533   4.056   3.584
 5395TIP3    H216129   1.616   4.138   3.679
 5396TIP3   OH216130   0.112   0.298   3.644
 5396TIP3    H116131   0.021   0.328   3.637
 5396TIP3    H216132   0.164   0.375   3.624
 5397TIP3   OH216133   0.944   1.863   2.697
 5397TIP3    H116134   1.030   1.899   2.677
 5397TIP3    H216135   0.957   1.814   2.778
 5398TIP3   OH216136   4.822   7.263   0.051
 5398TIP3    H116137   4.762   7.223   0.114
 5398TIP3    H216138   4.899   7.207   0.052
 5399TIP3   OH216139   8.246   1.259   0.482
 5399TIP3    H116140   8.319   1.257   0.544
 5399TIP3    H216141   8.274   1.321   0.414
 5400TIP3   OH216142   3.740   6.863   4.724
 5400TIP3    H116143   3.727   6.773   4.695
 5400TIP3    H216144   3.723   6.860   4.819
 5401TIP3   OH216145   4.134   2.055   4.499
 5401TIP3    H116146   4.169   2.039   4.411
 5401TIP3    H216147   4.201   2.108   4.542
 5402TIP3   OH216148   2.496   4.134   2.834
 5402TIP3    H116149   2.474   4.043   2.814
 5402TIP3    H216150   2.439   4.157   2.907
 5403TIP3   OH216151   0.645   7.410   3.978
 5403TIP3    H116152   0.621   7.479   3.916
 5403TIP3    H216153   0.721   7.445   4.025
 5404TIP3   OH216154   7.248   1.619   3.834
 5404TIP3    H116155   7.266   1.543   3.889
 5404TIP3    H216156   7.246   1.584   3.745
 5405TIP3   OH216157   2.273   1.818   1.462
 5405TIP3    H116158   2.282   1.747   1.398
 5405TIP3    H216159   2.196   1.867   1.434
 5406TIP3   OH216160   2.992   7.349   1.485
 5406TIP3    H116161   2.976   7.297   1.407
 5406TIP3    H216162   2.906   7.359   1.526
 5407TIP3   OH216163   3.064   6.377   1.005
 5407TIP3    H116164   2.979   6.335   0.990
 5407TIP3    H216165   3.068   6.445   0.937
 5408TIP3   OH216166   3.218   6.190   4.816
 5408TIP3    H116167   3.193   6.102   4.845
 5408TIP3    H216168   3.284   6.218   4.880
 5409TIP3   OH216169   6.320   1.825   4.626
 5409TIP3    H116170   6.294   1.849   4.715
 5409TIP3    H216171   6.412   1.851   4.620
 5410TIP3   OH216172   6.344   2.119   5.994
 5410TIP3    H116173   6.424   2.146   5.950
 5410TIP3    H216174   6.364   2.033   6.031
 5411TIP3   OH216175   1.898   4.465   1.346
 5411TIP3    H116176   1.912   4.559   1.335
 5411TIP3    H216177   1.807   4.458   1.376
 5412TIP3   OH216178   8.020   4.036   2.819
 5412TIP3    H116179   7.984   4.046   2.731
 5412TIP3    H216180   8.019   4.125   2.856
 5413TIP3   OH216181   6.976   3.195   3.234
 5413TIP3    H116182   7.051   3.224   3.286
 5413TIP3    H216183   6.905   3.186   3.297
 5414TIP3   OH216184   1.279   6.135   6.350
 5414TIP3    H116185   1.215   6.132   6.421
 5414TIP3    H216186   1.304   6.227   6.345
 5415TIP3   OH216187   5.871   5.641   1.142
 5415TIP3    H116188   5.904   5.552   1.132
 5415TIP3    H216189   5.950   5.695   1.150
 5416TIP3   OH216190   2.401   5.375   5.555
 5416TIP3    H116191   2.435   5.405   5.471
 5416TIP3    H216192   2.399   5.454   5.610
 5417TIP3   OH216193   7.727   0.410   4.118
 5417TIP3    H116194   7.821   0.392   4.116
 5417TIP3    H216195   7.720   0.501   4.089
 5418TIP3   OH216196   5.603   0.679   3.224
 5418TIP3    H116197   5.595   0.772   3.246
 5418TIP3    H216198   5.577   0.674   3.132
 5419TIP3   OH216199   1.566   3.926   3.466
 5419TIP3    H116200   1.586   3.967   3.382
 5419TIP3    H216201   1.616   3.844   3.465
 5420TIP3   OH216202   2.627   1.517   2.534
 5420TIP3    H116203   2.658   1.558   2.453
 5420TIP3    H216204   2.567   1.581   2.572
 5421TIP3   OH216205   6.904   3.384   1.898
 5421TIP3    H116206   6.901   3.398   1.804
 5421TIP3    H216207   6.888   3.470   1.936
 5422TIP3   OH216208   6.339   4.874   4.998
 5422TIP3    H116209   6.281   4.927   5.053
 5422TIP3    H216210   6.427   4.906   5.018
 5423TIP3   OH216211   5.484   5.730   4.417
 5423TIP3    H116212   5.549   5.665   4.391
 5423TIP3    H216213   5.401   5.681   4.423
 5424TIP3   OH216214   3.455   2.738   5.789
 5424TIP3    H116215   3.540   2.696   5.777
 5424TIP3    H216216   3.472   2.831   5.774
 5425TIP3   OH216217   2.381   6.338   4.875
 5425TIP3    H116218   2.450   6.311   4.814
 5425TIP3    H216219   2.300   6.315   4.830
 5426TIP3   OH216220   0.152   4.417   5.005
 5426TIP3    H116221   0.094   4.438   4.932
 5426TIP3    H216222   0.092   4.399   5.078
 5427TIP3   OH216223   7.303   1.134   2.200
 5427TIP3    H116224   7.225   1.136   2.144
 5427TIP3    H216225   7.324   1.041   2.208
 5428TIP3   OH216226   3.743   0.987   2.178
 5428TIP3    H116227   3.721   0.916   2.238
 5428TIP3    H216228   3.820   1.029   2.217
 5429TIP3   OH216229   3.662   6.510   3.570
 5429TIP3    H116230   3.594   6.458   3.613
 5429TIP3    H216231   3.687   6.575   3.635
 5430TIP3   OH216232   0.741   2.961   0.100
 5430TIP3    H116233   0.835   2.972   0.113
 5430TIP3    H216234   0.714   2.900   0.168
 5431TIP3   OH216235   3.025   4.400   3.750
 5431TIP3    H116236   3.044   4.374   3.840
 5431TIP3    H216237   2.972   4.479   3.759
 5432TIP3   OH216238   8.004   7.290   5.685
 5432TIP3    H116239   7.970   7.211   5.643
 5432TIP3    H216240   7.952   7.361   5.648
 5433TIP3   OH216241   0.979   2.538   3.286
 5433TIP3    H116242   0.919   2.597   3.239
 5433TIP3    H216243   1.066   2.574   3.268
 5434TIP3   OH216244   2.308   7.663   2.089
 5434TIP3    H116245   2.270   7.749   2.107
 5434TIP3    H216246   2.254   7.602   2.139
 5435TIP3   OH216247   1.270   3.833   4.702
 5435TIP3    H116248   1.339   3.900   4.699
 5435TIP3    H216249   1.308   3.759   4.656
 5436TIP3   OH216250   1.909   0.954   6.422
 5436TIP3    H116251   1.996   0.981   6.390
 5436TIP3    H216252   1.883   1.024   6.481
 5437TIP3   OH216253   6.534   2.910   5.118
 5437TIP3    H116254   6.511   2.997   5.084
 5437TIP3    H216255   6.630   2.911   5.121
 5438TIP3   OH216256   3.845   4.132   2.396
 5438TIP3    H116257   3.778   4.148   2.462
 5438TIP3    H216258   3.890   4.053   2.426
 5439TIP3   OH216259   6.707   4.640   1.399
 5439TIP3    H116260   6.613   4.657   1.408
 5439TIP3    H216261   6.749   4.716   1.439
 5440TIP3   OH216262   6.421   5.102   0.412
 5440TIP3    H116263   6.481   5.176   0.412
 5440TIP3    H216264   6.338   5.139   0.444
 5441TIP3   OH216265   2.162   2.681   2.410
 5441TIP3    H116266   2.097   2.691   2.480
 5441TIP3    H216267   2.246   2.682   2.455
 5442TIP3   OH216268   5.431   3.414   3.780
 5442TIP3    H116269   5.402   3.374   3.698
 5442TIP3    H216270   5.368   3.485   3.796
 5443TIP3   OH216271   1.736   2.096   3.307
 5443TIP3    H116272   1.661   2.135   3.353
 5443TIP3    H216273   1.741   2.146   3.225
 5444TIP3   OH216274   2.487   5.457   5.296
 5444TIP3    H116275   2.412   5.459   5.236
 5444TIP3    H216276   2.527   5.372   5.281
 5445TIP3   OH216277   1.433   4.061   4.723
 5445TIP3    H116278   1.448   4.102   4.809
 5445TIP3    H216279   1.519   4.062   4.681
 5446TIP3   OH216280   1.839   3.626   4.428
 5446TIP3    H116281   1.781   3.590   4.361
 5446TIP3    H216282   1.790   3.616   4.510
 5447TIP3   OH216283   4.561   1.649   2.898
 5447TIP3    H116284   4.598   1.566   2.926
 5447TIP3    H216285   4.584   1.710   2.968
 5448TIP3   OH216286   4.392   1.999   4.098
 5448TIP3    H116287   4.433   1.990   4.184
 5448TIP3    H216288   4.463   2.026   4.040
 5449TIP3   OH216289   8.084   7.050   4.699
 5449TIP3    H116290   8.001   7.035   4.655
 5449TIP3    H216291   8.144   6.986   4.659
 5450TIP3   OH216292   1.712   7.025   1.389
 5450TIP3    H116293   1.660   6.967   1.333
 5450TIP3    H216294   1.753   6.966   1.452
 5451TIP3   OH216295   1.550   0.076   4.366
 5451TIP3    H116296   1.512   0.116   4.444
 5451TIP3    H216297   1.645   0.085   4.379
 5452TIP3   OH216298   7.552   2.837   1.372
 5452TIP3    H116299   7.486   2.905   1.357
 5452TIP3    H216300   7.624   2.883   1.416
 5453TIP3   OH216301   7.034   1.987   2.166
 5453TIP3    H116302   7.076   2.071   2.187
 5453TIP3    H216303   6.994   2.001   2.081
 5454TIP3   OH216304   3.697   4.266   5.906
 5454TIP3    H116305   3.644   4.259   5.985
 5454TIP3    H216306   3.639   4.236   5.835
 5455TIP3   OH216307   5.389   3.126   5.131
 5455TIP3    H116308   5.374   3.104   5.223
 5455TIP3    H216309   5.310   3.096   5.086
 5456TIP3   OH216310   8.052   2.243   5.432
 5456TIP3    H116311   8.028   2.324   5.477
 5456TIP3    H216312   8.103   2.272   5.356
 5457TIP3   OH216313   3.991   1.489   6.773
 5457TIP3    H116314   3.995   1.487   6.677
 5457TIP3    H216315   3.901   1.466   6.794
 5458TIP3   OH216316   0.127   1.408   2.752
 5458TIP3    H116317   0.120   1.313   2.761
 5458TIP3    H216318   0.190   1.420   2.682
 5459TIP3   OH216319   6.578   5.923   1.079
 5459TIP3    H116320   6.503   5.978   1.103
 5459TIP3    H216321   6.639   5.983   1.037
 5460TIP3   OH216322   6.356   6.273   4.726
 5460TIP3    H116323   6.308   6.356   4.727
 5460TIP3    H216324   6.299   6.214   4.676
 5461TIP3   OH216325   0.686   2.961   4.391
 5461TIP3    H116326   0.681   2.964   4.486
 5461TIP3    H216327   0.595   2.953   4.362
 5462TIP3   OH216328   5.027   0.226   6.064
 5462TIP3    H116329   4.940   0.248   6.096
 5462TIP3    H216330   5.077   0.205   6.143
 5463TIP3   OH216331   6.424   6.882   5.683
 5463TIP3    H116332   6.366   6.841   5.619
 5463TIP3    H216333   6.367   6.904   5.756
 5464TIP3   OH216334   8.242   0.538   4.202
 5464TIP3    H116335   8.230   0.444   4.212
 5464TIP3    H216336   8.215   0.575   4.286
 5465TIP3   OH216337   5.037   6.676   3.691
 5465TIP3    H116338   5.079   6.655   3.608
 5465TIP3    H216339   5.019   6.591   3.731
 5466TIP3   OH216340   2.638   6.088   4.895
 5466TIP3    H116341   2.552   6.068   4.860
 5466TIP3    H216342   2.627   6.082   4.990
 5467TIP3   OH216343   7.523   5.747   3.745
 5467TIP3    H116344   7.552   5.681   3.809
 5467TIP3    H216345   7.428   5.747   3.752
 5468TIP3   OH216346   0.895   5.163   1.465
 5468TIP3    H116347   0.920   5.080   1.506
 5468TIP3    H216348   0.963   5.225   1.493
 5469TIP3   OH216349   7.481   2.124   1.715
 5469TIP3    H116350   7.485   2.064   1.640
 5469TIP3    H216351   7.460   2.209   1.677
 5470TIP3   OH216352   6.284   6.394   4.207
 5470TIP3    H116353   6.319   6.466   4.260
 5470TIP3    H216354   6.199   6.426   4.176
 5471TIP3   OH216355   4.010   2.744   2.723
 5471TIP3    H116356   4.019   2.650   2.713
 5471TIP3    H216357   4.045   2.762   2.810
 5472TIP3   OH216358   1.164   7.466   6.785
 5472TIP3    H116359   1.219   7.456   6.708
 5472TIP3    H216360   1.139   7.559   6.785
 5473TIP3   OH216361   2.785   7.259   0.920
 5473TIP3    H116362   2.755   7.278   1.008
 5473TIP3    H216363   2.761   7.335   0.868
 5474TIP3   OH216364   4.655   0.300   5.062
 5474TIP3    H116365   4.568   0.335   5.082
 5474TIP3    H216366   4.639   0.233   4.995
 5475TIP3   OH216367   0.660   0.157   5.120
 5475TIP3    H116368   0.576   0.114   5.138
 5475TIP3    H216369   0.643   0.250   5.133
 5476TIP3   OH216370   7.163   1.176   0.270
 5476TIP3    H116371   7.201   1.095   0.236
 5476TIP3    H216372   7.233   1.241   0.262
 5477TIP3   OH216373   1.276   2.797   4.673
 5477TIP3    H116374   1.273   2.843   4.757
 5477TIP3    H216375   1.192   2.816   4.632
 5478TIP3   OH216376   4.220   3.159   0.688
 5478TIP3    H116377   4.289   3.093   0.681
 5478TIP3    H216378   4.165   3.129   0.761
 5479TIP3   OH216379   7.436   7.358   2.129
 5479TIP3    H116380   7.425   7.342   2.035
 5479TIP3    H216381   7.497   7.431   2.134
 5480TIP3   OH216382   3.848   0.089   4.429
 5480TIP3    H116383   3.864   0.005   4.385
 5480TIP3    H216384   3.755   0.106   4.415
 5481TIP3   OH216385   6.247   2.514   3.990
 5481TIP3    H116386   6.295   2.545   3.914
 5481TIP3    H216387   6.245   2.589   4.050
 5482TIP3   OH216388   2.808   0.249   1.235
 5482TIP3    H116389   2.781   0.301   1.311
 5482TIP3    H216390   2.736   0.258   1.173
 5483TIP3   OH216391   3.457   1.598   0.103
 5483TIP3    H116392   3.496   1.539   0.168
 5483TIP3    H216393   3.502   1.682   0.117
 5484TIP3   OH216394   1.024   2.209   4.227
 5484TIP3    H116395   1.025   2.289   4.280
 5484TIP3    H216396   1.076   2.232   4.150
 5485TIP3   OH216397   7.215   5.696   5.122
 5485TIP3    H116398   7.287   5.651   5.166
 5485TIP3    H216399   7.196   5.771   5.177
 5486TIP3   OH216400   3.682   6.622   3.319
 5486TIP3    H116401   3.725   6.548   3.276
 5486TIP3    H216402   3.685   6.602   3.412
 5487TIP3   OH216403   4.919   3.020   6.395
 5487TIP3    H116404   4.931   2.945   6.452
 5487TIP3    H216405   4.829   3.013   6.364
 5488TIP3   OH216406   8.043   0.843   4.120
 5488TIP3    H116407   8.088   0.794   4.051
 5488TIP3    H216408   7.964   0.876   4.078
 5489TIP3   OH216409   4.850   1.351   2.009
 5489TIP3    H116410   4.912   1.379   2.077
 5489TIP3    H216411   4.903   1.347   1.930
 5490TIP3   OH216412   7.084   6.931   5.157
 5490TIP3    H116413   7.112   7.018   5.186
 5490TIP3    H216414   7.138   6.913   5.080
 5491TIP3   OH216415   1.979   4.176   1.360
 5491TIP3    H116416   1.892   4.136   1.348
 5491TIP3    H216417   1.961   4.270   1.361
 5492TIP3   OH216418   2.986   5.887   1.278
 5492TIP3    H116419   3.069   5.921   1.312
 5492TIP3    H216420   2.927   5.961   1.278
 5493TIP3   OH216421   5.093   3.127   1.870
 5493TIP3    H116422   5.122   3.218   1.862
 5493TIP3    H216423   5.174   3.077   1.880
 5494TIP3   OH216424   0.913   7.660   6.210
 5494TIP3    H116425   0.858   7.610   6.271
 5494TIP3    H216426   0.906   7.611   6.128
 5495TIP3   OH216427   4.770   2.201   5.301
 5495TIP3    H116428   4.809   2.141   5.364
 5495TIP3    H216429   4.794   2.166   5.216
 5496TIP3   OH216430   7.323   2.512   0.474
 5496TIP3    H116431   7.295   2.599   0.446
 5496TIP3    H216432   7.417   2.512   0.462
 5497TIP3   OH216433   7.115   3.824   5.060
 5497TIP3    H116434   7.069   3.895   5.014
 5497TIP3    H216435   7.181   3.795   4.998
 5498TIP3   OH216436   0.038   3.221   6.385
 5498TIP3    H116437   0.065   3.265   6.305
 5498TIP3    H216438  -0.016   3.284   6.431
 5499TIP3   OH216439   4.825   1.634   0.927
 5499TIP3    H116440   4.758   1.569   0.903
 5499TIP3    H216441   4.782   1.688   0.994
 5500TIP3   OH216442   7.105   4.781   5.805
 5500TIP3    H116443   7.165   4.819   5.869
 5500TIP3    H216444   7.156   4.713   5.762
 5501TIP3   OH216445   3.666   0.053   6.642
 5501TIP3    H116446   3.721   0.126   6.672
 5501TIP3    H216447   3.698   0.034   6.554
 5502TIP3   OH216448   4.724   2.177   0.839
 5502TIP3    H116449   4.690   2.117   0.774
 5502TIP3    H216450   4.646   2.213   0.882
 5503TIP3   OH216451   3.200   1.016   1.146
 5503TIP3    H116452   3.289   0.985   1.132
 5503TIP3    H216453   3.146   0.955   1.095
 5504TIP3   OH216454   1.566   7.030   0.856
 5504TIP3    H116455   1.657   7.018   0.831
 5504TIP3    H216456   1.566   7.109   0.910
 5505TIP3   OH216457   7.536   6.108   0.410
 5505TIP3    H116458   7.469   6.175   0.423
 5505TIP3    H216459   7.556   6.113   0.316
 5506TIP3   OH216460   6.990   0.451   6.267
 5506TIP3    H116461   6.992   0.537   6.308
 5506TIP3    H216462   6.898   0.436   6.247
 5507TIP3   OH216463   2.001   0.354   4.642
 5507TIP3    H116464   2.054   0.422   4.685
 5507TIP3    H216465   2.066   0.291   4.610
 5508TIP3   OH216466   7.379   1.058   4.928
 5508TIP3    H116467   7.316   0.989   4.947
 5508TIP3    H216468   7.457   1.011   4.897
 5509TIP3   OH216469   0.868   2.027   0.391
 5509TIP3    H116470   0.860   2.122   0.391
 5509TIP3    H216471   0.851   2.000   0.301
 5510TIP3   OH216472   4.085   2.933   5.994
 5510TIP3    H116473   4.046   2.849   5.968
 5510TIP3    H216474   4.011   2.984   6.026
 5511TIP3   OH216475   1.754   1.569   2.438
 5511TIP3    H116476   1.738   1.555   2.531
 5511TIP3    H216477   1.680   1.621   2.408
 5512TIP3   OH216478   5.757   7.789   5.657
 5512TIP3    H116479   5.809   7.710   5.672
 5512TIP3    H216480   5.761   7.802   5.562
 5513TIP3   OH216481   1.514   1.023   4.362
 5513TIP3    H116482   1.596   1.066   4.387
 5513TIP3    H216483   1.541   0.949   4.308
 5514TIP3   OH216484   0.549   4.162   5.248
 5514TIP3    H116485   0.552   4.120   5.162
 5514TIP3    H216486   0.572   4.254   5.230
 5515TIP3   OH216487   5.671   1.603   4.167
 5515TIP3    H116488   5.766   1.610   4.178
 5515TIP3    H216489   5.643   1.541   4.235
 5516TIP3   OH216490   2.749   2.994   0.578
 5516TIP3    H116491   2.750   2.988   0.482
 5516TIP3    H216492   2.790   2.912   0.607
 5517TIP3   OH216493   1.595   0.759   5.853
 5517TIP3    H116494   1.579   0.809   5.773
 5517TIP3    H216495   1.622   0.673   5.822
 5518TIP3   OH216496   1.509   4.037   6.229
 5518TIP3    H116497   1.512   3.950   6.190
 5518TIP3    H216498   1.513   4.022   6.323
 5519TIP3   OH216499   0.929   5.881   5.289
 5519TIP3    H116500   0.956   5.791   5.306
 5519TIP3    H216501   0.873   5.875   5.211
 5520TIP3   OH216502   1.899   7.424   5.725
 5520TIP3    H116503   1.893   7.408   5.819
 5520TIP3    H216504   1.862   7.345   5.685
 5521TIP3   OH216505   6.603   1.981   4.918
 5521TIP3    H116506   6.578   2.073   4.925
 5521TIP3    H216507   6.537   1.934   4.969
 5522TIP3   OH216508   0.047   4.201   5.204
 5522TIP3    H116509   0.001   4.241   5.278
 5522TIP3    H216510   0.117   4.149   5.245
 5523TIP3   OH216511   0.915   5.980   3.927
 5523TIP3    H116512   0.849   5.926   3.970
 5523TIP3    H216513   0.866   6.044   3.875
 5524TIP3   OH216514   3.537   5.072   3.988
 5524TIP3    H116515   3.628   5.070   4.017
 5524TIP3    H216516   3.526   5.158   3.948
 5525TIP3   OH216517   7.665   5.868   5.482
 5525TIP3    H116518   7.649   5.835   5.571
 5525TIP3    H216519   7.580   5.862   5.438
 5526TIP3   OH216520   2.523   3.974   0.795
 5526TIP3    H116521   2.463   4.034   0.751
 5526TIP3    H216522   2.581   3.943   0.725
 5527TIP3   OH216523   5.146   0.323   2.484
 5527TIP3    H116524   5.084   0.395   2.477
 5527TIP3    H216525   5.215   0.344   2.422
 5528TIP3   OH216526   6.731   2.832   3.669
 5528TIP3    H116527   6.795   2.777   3.625
 5528TIP3    H216528   6.782   2.905   3.704
 5529TIP3   OH216529   1.356   0.527   5.786
 5529TIP3    H116530   1.450   0.525   5.768
 5529TIP3    H216531   1.346   0.477   5.867
 5530TIP3   OH216532   4.996   4.552   1.512
 5530TIP3    H116533   4.946   4.474   1.533
 5530TIP3    H216534   5.055   4.525   1.442
 5531TIP3   OH216535   4.235   4.162   6.104
 5531TIP3    H116536   4.207   4.155   6.195
 5531TIP3    H216537   4.222   4.075   6.067
 5532TIP3   OH216538   7.835   7.520   5.599
 5532TIP3    H116539   7.789   7.482   5.674
 5532TIP3    H216540   7.784   7.598   5.577
 5533TIP3   OH216541   3.693   0.129   2.625
 5533TIP3    H116542   3.772   0.098   2.581
 5533TIP3    H216543   3.719   0.136   2.717
 5534TIP3   OH216544   5.997   0.699   0.300
 5534TIP3    H116545   5.981   0.789   0.272
 5534TIP3    H216546   5.950   0.691   0.384
 5535TIP3   OH216547   1.342   4.433   6.025
 5535TIP3    H116548   1.293   4.510   6.051
 5535TIP3    H216549   1.434   4.460   6.032
 5536TIP3   OH216550   1.832   7.030   6.244
 5536TIP3    H116551   1.922   7.019   6.272
 5536TIP3    H216552   1.814   6.954   6.189
 5537TIP3   OH216553   2.726   0.509   4.469
 5537TIP3    H116554   2.699   0.598   4.490
 5537TIP3    H216555   2.667   0.481   4.399
 5538TIP3   OH216556   6.447   6.862   1.221
 5538TIP3    H116557   6.375   6.807   1.250
 5538TIP3    H216558   6.486   6.896   1.301
 5539TIP3   OH216559   5.511   0.942   3.248
 5539TIP3    H116560   5.418   0.958   3.232
 5539TIP3    H216561   5.555   1.020   3.215
 5540TIP3   OH216562   2.806   0.193   2.802
 5540TIP3    H116563   2.765   0.173   2.718
 5540TIP3    H216564   2.807   0.110   2.849
 5541TIP3   OH216565   0.802   0.958   0.450
 5541TIP3    H116566   0.717   0.995   0.474
 5541TIP3    H216567   0.789   0.923   0.362
 5542TIP3   OH216568   0.739   6.210   0.621
 5542TIP3    H116569   0.717   6.140   0.683
 5542TIP3    H216570   0.789   6.166   0.552
 5543TIP3   OH216571   8.128   7.238   4.897
 5543TIP3    H116572   8.043   7.282   4.892
 5543TIP3    H216573   8.123   7.169   4.831
 5544TIP3   OH216574   6.869   5.753   1.002
 5544TIP3    H116575   6.842   5.731   0.912
 5544TIP3    H216576   6.964   5.743   1.002
 5545TIP3   OH216577   3.120   2.956   5.026
 5545TIP3    H116578   3.097   2.945   4.933
 5545TIP3    H216579   3.119   3.051   5.039
 5546TIP3   OH216580   2.643   0.165   4.774
 5546TIP3    H116581   2.682   0.199   4.693
 5546TIP3    H216582   2.562   0.124   4.745
 5547TIP3   OH216583   7.520   0.063   0.330
 5547TIP3    H116584   7.497  -0.020   0.372
 5547TIP3    H216585   7.436   0.104   0.310
 5548TIP3   OH216586   6.448   0.042   2.202
 5548TIP3    H116587   6.500   0.109   2.158
 5548TIP3    H216588   6.358   0.063   2.181
 5549TIP3   OH216589   6.358   5.345   3.827
 5549TIP3    H116590   6.365   5.412   3.759
 5549TIP3    H216591   6.349   5.263   3.780
 5550TIP3   OH216592   0.760   6.409   3.440
 5550TIP3    H116593   0.694   6.412   3.371
 5550TIP3    H216594   0.838   6.374   3.396
 5551TIP3   OH216595   8.209   4.025   1.447
 5551TIP3    H116596   8.157   4.017   1.527
 5551TIP3    H216597   8.144   4.034   1.378
 5552TIP3   OH216598   3.324   0.491   4.522
 5552TIP3    H116599   3.275   0.537   4.454
 5552TIP3    H216600   3.392   0.553   4.548
 5553TIP3   OH216601   0.444   1.381   5.973
 5553TIP3    H116602   0.416   1.363   6.062
 5553TIP3    H216603   0.540   1.384   5.978
 5554TIP3   OH216604   3.348   5.754   1.194
 5554TIP3    H116605   3.367   5.792   1.280
 5554TIP3    H216606   3.288   5.816   1.153
 5555TIP3   OH216607   7.623   2.899   5.022
 5555TIP3    H116608   7.651   2.846   4.947
 5555TIP3    H216609   7.538   2.935   4.995
 5556TIP3   OH216610   6.483   1.713   2.434
 5556TIP3    H116611   6.395   1.698   2.398
 5556TIP3    H216612   6.468   1.735   2.526
 5557TIP3   OH216613   3.123   6.701   3.861
 5557TIP3    H116614   3.194   6.655   3.818
 5557TIP3    H216615   3.149   6.706   3.953
 5558TIP3   OH216616   3.448   6.873   2.679
 5558TIP3    H116617   3.402   6.952   2.650
 5558TIP3    H216618   3.525   6.907   2.726
 5559TIP3   OH216619   4.139   4.503   3.123
 5559TIP3    H116620   4.104   4.472   3.040
 5559TIP3    H216621   4.188   4.582   3.101
 5560TIP3   OH216622   5.555   7.571   3.242
 5560TIP3    H116623   5.505   7.591   3.321
 5560TIP3    H216624   5.566   7.476   3.244
 5561TIP3   OH216625   7.202   0.657   6.042
 5561TIP3    H116626   7.277   0.620   6.089
 5561TIP3    H216627   7.160   0.582   6.001
 5562TIP3   OH216628   6.774   4.578   3.418
 5562TIP3    H116629   6.788   4.529   3.499
 5562TIP3    H216630   6.795   4.516   3.349
 5563TIP3   OH216631   1.365   4.125   1.086
 5563TIP3    H116632   1.361   4.220   1.089
 5563TIP3    H216633   1.292   4.099   1.029
 5564TIP3   OH216634   2.455   2.743   2.627
 5564TIP3    H116635   2.434   2.836   2.617
 5564TIP3    H216636   2.394   2.713   2.695
 5565TIP3   OH216637   5.891   1.153   1.109
 5565TIP3    H116638   5.964   1.132   1.052
 5565TIP3    H216639   5.904   1.097   1.186
 5566TIP3   OH216640   5.983   6.037   2.189
 5566TIP3    H116641   5.965   6.058   2.098
 5566TIP3    H216642   5.942   6.108   2.239
 5567TIP3   OH216643   3.791   6.771   1.080
 5567TIP3    H116644   3.806   6.794   1.171
 5567TIP3    H216645   3.801   6.853   1.032
 5568TIP3   OH216646   7.482   4.126   4.986
 5568TIP3    H116647   7.409   4.111   5.046
 5568TIP3    H216648   7.460   4.075   4.908
 5569TIP3   OH216649   0.992   1.657   6.259
 5569TIP3    H116650   0.923   1.723   6.264
 5569TIP3    H216651   1.032   1.672   6.173
 5570TIP3   OH216652   5.736   3.947   1.938
 5570TIP3    H116653   5.674   3.926   2.007
 5570TIP3    H216654   5.697   3.910   1.859
 5571TIP3   OH216655   2.535   1.400   2.850
 5571TIP3    H116656   2.557   1.491   2.827
 5571TIP3    H216657   2.540   1.397   2.945
 5572TIP3   OH216658   3.919   0.832   1.989
 5572TIP3    H116659   3.953   0.750   2.025
 5572TIP3    H216660   3.870   0.872   2.061
 5573TIP3   OH216661   2.895   1.547   1.200
 5573TIP3    H116662   2.934   1.494   1.131
 5573TIP3    H216663   2.840   1.486   1.250
 5574TIP3   OH216664   4.996   1.057   1.745
 5574TIP3    H116665   4.917   1.059   1.798
 5574TIP3    H216666   4.994   0.971   1.702
 5575TIP3   OH216667   1.924   6.581   3.801
 5575TIP3    H116668   1.919   6.605   3.709
 5575TIP3    H216669   1.832   6.567   3.827
 5576TIP3   OH216670   4.717   6.196   5.969
 5576TIP3    H116671   4.762   6.276   5.942
 5576TIP3    H216672   4.787   6.131   5.974
 5577TIP3   OH216673   7.519   5.193   0.753
 5577TIP3    H116674   7.555   5.183   0.841
 5577TIP3    H216675   7.589   5.161   0.695
 5578TIP3   OH216676   2.592   7.359   6.289
 5578TIP3    H116677   2.546   7.277   6.275
 5578TIP3    H216678   2.683   7.340   6.264
 5579TIP3   OH216679   5.262   4.417   2.125
 5579TIP3    H116680   5.351   4.402   2.091
 5579TIP3    H216681   5.208   4.351   2.082
 5580TIP3   OH216682   2.047   1.428   2.115
 5580TIP3    H116683   2.054   1.514   2.074
 5580TIP3    H216684   1.969   1.389   2.075
 5581TIP3   OH216685   3.853   5.589   2.947
 5581TIP3    H116686   3.777   5.532   2.938
 5581TIP3    H216687   3.841   5.656   2.880
 5582TIP3   OH216688   4.038   0.399   6.155
 5582TIP3    H116689   3.965   0.419   6.097
 5582TIP3    H216690   4.045   0.304   6.153
 5583TIP3   OH216691   1.495   0.658   5.483
 5583TIP3    H116692   1.552   0.621   5.550
 5583TIP3    H216693   1.546   0.652   5.402
 5584TIP3   OH216694   2.274   2.387   1.954
 5584TIP3    H116695   2.201   2.356   2.009
 5584TIP3    H216696   2.244   2.471   1.920
 5585TIP3   OH216697   4.578   5.252   3.489
 5585TIP3    H116698   4.533   5.317   3.543
 5585TIP3    H216699   4.597   5.180   3.549
 5586TIP3   OH216700   7.136   0.824   4.182
 5586TIP3    H116701   7.119   0.839   4.089
 5586TIP3    H216702   7.226   0.853   4.195
 5587TIP3   OH216703   7.038   5.286   4.108
 5587TIP3    H116704   7.000   5.201   4.088
 5587TIP3    H216705   7.110   5.266   4.168
 5588TIP3   OH216706   1.388   0.171   5.165
 5588TIP3    H116707   1.361   0.080   5.181
 5588TIP3    H216708   1.423   0.200   5.249
 5589TIP3   OH216709   6.770   3.044   5.194
 5589TIP3    H116710   6.775   3.014   5.285
 5589TIP3    H216711   6.758   3.139   5.200
 5590TIP3   OH216712   5.201   5.197   4.257
 5590TIP3    H116713   5.277   5.233   4.211
 5590TIP3    H216714   5.142   5.272   4.269
 5591TIP3   OH216715   4.457   3.218   1.859
 5591TIP3    H116716   4.381   3.246   1.911
 5591TIP3    H216717   4.533   3.254   1.905
 5592TIP3   OH216718   1.440   5.937   2.295
 5592TIP3    H116719   1.517   5.923   2.350
 5592TIP3    H216720   1.441   5.864   2.234
 5593TIP3   OH216721   7.850   4.034   6.083
 5593TIP3    H116722   7.788   4.106   6.067
 5593TIP3    H216723   7.900   4.062   6.159
 5594TIP3   OH216724   7.809   4.128   2.664
 5594TIP3    H116725   7.741   4.099   2.725
 5594TIP3    H216726   7.804   4.223   2.667
 5595TIP3   OH216727   7.750   3.298   4.446
 5595TIP3    H116728   7.708   3.269   4.364
 5595TIP3    H216729   7.740   3.393   4.445
 5596TIP3   OH216730   6.455   1.856   6.098
 5596TIP3    H116731   6.525   1.918   6.121
 5596TIP3    H216732   6.493   1.770   6.116
 5597TIP3   OH216733   1.620   7.571   5.767
 5597TIP3    H116734   1.712   7.598   5.764
 5597TIP3    H216735   1.597   7.573   5.860
 5598TIP3   OH216736   3.123   3.043   3.562
 5598TIP3    H116737   3.122   2.962   3.613
 5598TIP3    H216738   3.069   3.104   3.612
 5599TIP3   OH216739   3.131   5.682   4.409
 5599TIP3    H116740   3.226   5.689   4.417
 5599TIP3    H216741   3.106   5.752   4.349
 5600TIP3   OH216742   4.389   5.042   5.636
 5600TIP3    H116743   4.384   5.013   5.727
 5600TIP3    H216744   4.475   5.085   5.628
 5601TIP3   OH216745   1.933   5.786   4.268
 5601TIP3    H116746   1.916   5.705   4.220
 5601TIP3    H216747   2.029   5.790   4.274
 5602TIP3   OH216748   0.746   3.079   1.996
 5602TIP3    H116749   0.818   3.062   1.934
 5602TIP3    H216750   0.733   2.996   2.041
 5603TIP3   OH216751   7.644   6.727   4.087
 5603TIP3    H116752   7.669   6.733   4.179
 5603TIP3    H216753   7.727   6.722   4.040
 5604TIP3   OH216754   6.496   0.128   1.843
 5604TIP3    H116755   6.580   0.130   1.888
 5604TIP3    H216756   6.516   0.097   1.755
 5605TIP3   OH216757   6.689   1.772   2.252
 5605TIP3    H116758   6.625   1.763   2.322
 5605TIP3    H216759   6.714   1.864   2.254
 5606TIP3   OH216760   4.207   3.701   2.461
 5606TIP3    H116761   4.194   3.628   2.400
 5606TIP3    H216762   4.283   3.748   2.427
 5607TIP3   OH216763   3.092   4.106   0.425
 5607TIP3    H116764   3.175   4.111   0.472
 5607TIP3    H216765   3.112   4.138   0.336
 5608TIP3   OH216766   4.359   1.711   1.948
 5608TIP3    H116767   4.425   1.774   1.975
 5608TIP3    H216768   4.316   1.684   2.029
 5609TIP3   OH216769   7.123   5.837   4.586
 5609TIP3    H116770   7.077   5.754   4.597
 5609TIP3    H216771   7.116   5.857   4.492
 5610TIP3   OH216772   3.701   5.727   1.592
 5610TIP3    H116773   3.783   5.773   1.610
 5610TIP3    H216774   3.654   5.728   1.675
 5611TIP3   OH216775   7.374   0.162   2.613
 5611TIP3    H116776   7.310   0.140   2.681
 5611TIP3    H216777   7.322   0.208   2.547
 5612TIP3   OH216778   1.062   3.148   0.559
 5612TIP3    H116779   1.098   3.233   0.532
 5612TIP3    H216780   1.046   3.158   0.653
 5613TIP3   OH216781   3.702   3.039   0.212
 5613TIP3    H116782   3.666   3.093   0.141
 5613TIP3    H216783   3.649   3.062   0.288
 5614TIP3   OH216784   6.587   0.838   3.023
 5614TIP3    H116785   6.611   0.931   3.016
 5614TIP3    H216786   6.589   0.806   2.932
 5615TIP3   OH216787   3.382   1.820   2.378
 5615TIP3    H116788   3.441   1.781   2.313
 5615TIP3    H216789   3.306   1.761   2.379
 5616TIP3   OH216790   3.646   7.094   5.620
 5616TIP3    H116791   3.735   7.076   5.589
 5616TIP3    H216792   3.658   7.129   5.708
 5617TIP3   OH216793   1.432   3.122   4.457
 5617TIP3    H116794   1.518   3.157   4.478
 5617TIP3    H216795   1.372   3.167   4.516
 5618TIP3   OH216796   6.257   6.504   1.063
 5618TIP3    H116797   6.195   6.435   1.088
 5618TIP3    H216798   6.219   6.543   0.984
 5619TIP3   OH216799   0.645   0.274   3.822
 5619TIP3    H116800   0.674   0.302   3.909
 5619TIP3    H216801   0.606   0.352   3.783
 5620TIP3   OH216802   3.971   5.101   3.359
 5620TIP3    H116803   3.992   5.121   3.268
 5620TIP3    H216804   3.901   5.162   3.382
 5621TIP3   OH216805   0.627   2.116   4.871
 5621TIP3    H116806   0.608   2.134   4.963
 5621TIP3    H216807   0.543   2.095   4.832
 5622TIP3   OH216808   0.586   1.496   0.687
 5622TIP3    H116809   0.598   1.550   0.609
 5622TIP3    H216810   0.609   1.554   0.760
 5623TIP3   OH216811   0.032   3.717   5.510
 5623TIP3    H116812   0.051   3.696   5.602
 5623TIP3    H216813  -0.038   3.782   5.515
 5624TIP3   OH216814   4.580   4.107   2.227
 5624TIP3    H116815   4.511   4.159   2.185
 5624TIP3    H216816   4.602   4.157   2.307
 5625TIP3   OH216817   4.504   0.274   2.168
 5625TIP3    H116818   4.534   0.183   2.170
 5625TIP3    H216819   4.488   0.297   2.259
 5626TIP3   OH216820   3.843   2.733   3.061
 5626TIP3    H116821   3.844   2.827   3.081
 5626TIP3    H216822   3.879   2.692   3.140
 5627TIP3   OH216823   6.548   7.673   6.742
 5627TIP3    H116824   6.508   7.727   6.674
 5627TIP3    H216825   6.480   7.664   6.808
 5628TIP3   OH216826   6.429   3.370   2.815
 5628TIP3    H116827   6.519   3.354   2.843
 5628TIP3    H216828   6.418   3.317   2.736
 5629TIP3   OH216829   5.958   6.205   3.121
 5629TIP3    H116830   5.981   6.292   3.088
 5629TIP3    H216831   5.920   6.221   3.207
 5630TIP3   OH216832   7.794   5.780   3.175
 5630TIP3    H116833   7.827   5.868   3.195
 5630TIP3    H216834   7.838   5.723   3.239
 5631TIP3   OH216835   0.968   3.736   2.408
 5631TIP3    H116836   0.883   3.714   2.445
 5631TIP3    H216837   0.948   3.782   2.326
 5632TIP3   OH216838   0.917   5.233   2.327
 5632TIP3    H116839   0.827   5.212   2.300
 5632TIP3    H216840   0.917   5.222   2.422
 5633TIP3   OH216841   5.135   3.118   5.002
 5633TIP3    H116842   5.087   3.185   4.954
 5633TIP3    H216843   5.112   3.036   4.958
 5634TIP3   OH216844   4.923   7.100   6.127
 5634TIP3    H116845   4.990   7.121   6.193
 5634TIP3    H216846   4.873   7.029   6.167
 5635TIP3   OH216847   6.814   2.918   2.506
 5635TIP3    H116848   6.829   2.876   2.590
 5635TIP3    H216849   6.852   3.006   2.515
 5636TIP3   OH216850   3.039   1.350   5.376
 5636TIP3    H116851   3.059   1.422   5.316
 5636TIP3    H216852   3.027   1.392   5.461
 5637TIP3   OH216853   3.458   7.294   5.358
 5637TIP3    H116854   3.525   7.292   5.427
 5637TIP3    H216855   3.425   7.384   5.360
 5638TIP3   OH216856   3.307   0.738   0.157
 5638TIP3    H116857   3.287   0.757   0.249
 5638TIP3    H216858   3.345   0.819   0.123
 5639TIP3   OH216859   8.056   3.574   1.356
 5639TIP3    H116860   8.023   3.496   1.401
 5639TIP3    H216861   8.119   3.541   1.292
 5640TIP3   OH216862   2.240   5.526   1.124
 5640TIP3    H116863   2.245   5.494   1.214
 5640TIP3    H216864   2.202   5.454   1.074
 5641TIP3   OH216865   1.165   4.422   6.603
 5641TIP3    H116866   1.251   4.430   6.644
 5641TIP3    H216867   1.176   4.354   6.536
 5642TIP3   OH216868   0.477   6.688   5.729
 5642TIP3    H116869   0.567   6.679   5.761
 5642TIP3    H216870   0.486   6.732   5.644
 5643TIP3   OH216871   4.237   6.359   2.501
 5643TIP3    H116872   4.262   6.277   2.543
 5643TIP3    H216873   4.234   6.338   2.407
 5644TIP3   OH216874   6.097   4.179   6.432
 5644TIP3    H116875   6.180   4.158   6.389
 5644TIP3    H216876   6.118   4.180   6.526
 5645TIP3   OH216877   1.003   0.813   4.277
 5645TIP3    H116878   1.054   0.887   4.247
 5645TIP3    H216879   1.066   0.740   4.280
 5646TIP3   OH216880   4.189   3.072   5.368
 5646TIP3    H116881   4.265   3.019   5.392
 5646TIP3    H216882   4.226   3.157   5.343
 5647TIP3   OH216883   1.839   6.659   3.566
 5647TIP3    H116884   1.750   6.629   3.545
 5647TIP3    H216885   1.872   6.693   3.483
 5648TIP3   OH216886   7.272   4.037   6.542
 5648TIP3    H116887   7.334   3.968   6.566
 5648TIP3    H216888   7.188   3.992   6.536
 5649TIP3   OH216889   5.152   6.980   1.437
 5649TIP3    H116890   5.143   6.886   1.452
 5649TIP3    H216891   5.179   6.987   1.345
 5650TIP3   OH216892   3.247   0.592   5.440
 5650TIP3    H116893   3.208   0.528   5.500
 5650TIP3    H216894   3.212   0.676   5.469
 5651TIP3   OH216895   2.947   6.158   5.685
 5651TIP3    H116896   2.902   6.105   5.750
 5651TIP3    H216897   2.889   6.233   5.669
 5652TIP3   OH216898   3.148   7.078   3.268
 5652TIP3    H116899   3.149   7.018   3.343
 5652TIP3    H216900   3.160   7.165   3.306
 5653TIP3   OH216901   2.899   2.348   2.589
 5653TIP3    H116902   2.969   2.407   2.560
 5653TIP3    H216903   2.897   2.357   2.684
 5654TIP3   OH216904   1.607   5.572   1.130
 5654TIP3    H116905   1.672   5.507   1.104
 5654TIP3    H216906   1.587   5.552   1.221
 5655TIP3   OH216907   7.868   1.365   2.063
 5655TIP3    H116908   7.806   1.437   2.059
 5655TIP3    H216909   7.944   1.401   2.110
 5656TIP3   OH216910   6.403   4.622   2.751
 5656TIP3    H116911   6.382   4.622   2.845
 5656TIP3    H216912   6.328   4.580   2.709
 5657TIP3   OH216913   4.074   6.719   6.031
 5657TIP3    H116914   3.992   6.736   5.986
 5657TIP3    H216915   4.087   6.795   6.088
 5658TIP3   OH216916   0.688   0.087   0.965
 5658TIP3    H116917   0.616   0.145   0.989
 5658TIP3    H216918   0.733   0.134   0.895
 5659TIP3   OH216919   1.793   1.833   3.307
 5659TIP3    H116920   1.720   1.797   3.255
 5659TIP3    H216921   1.782   1.928   3.302
 5660TIP3   OH216922   8.309   5.834   5.145
 5660TIP3    H116923   8.230   5.879   5.177
 5660TIP3    H216924   8.307   5.846   5.050
 5661TIP3   OH216925   5.124   5.654   5.365
 5661TIP3    H116926   5.069   5.576   5.374
 5661TIP3    H216927   5.072   5.724   5.404
 5662TIP3   OH216928   6.034   3.866   0.110
 5662TIP3    H116929   6.099   3.843   0.043
 5662TIP3    H216930   5.957   3.894   0.060
 5663TIP3   OH216931   6.885   1.219   1.055
 5663TIP3    H116932   6.827   1.213   0.978
 5663TIP3    H216933   6.972   1.199   1.020
 5664TIP3   OH216934   1.126   5.195   5.049
 5664TIP3    H116935   1.085   5.114   5.019
 5664TIP3    H216936   1.086   5.212   5.134
 5665TIP3   OH216937   6.406   0.096   3.100
 5665TIP3    H116938   6.463   0.155   3.052
 5665TIP3    H216939   6.319   0.110   3.061
 5666TIP3   OH216940   4.024  -0.005   1.831
 5666TIP3    H116941   3.984   0.064   1.883
 5666TIP3    H216942   3.966  -0.016   1.755
 5667TIP3   OH216943   0.535   5.236   3.597
 5667TIP3    H116944   0.515   5.166   3.659
 5667TIP3    H216945   0.621   5.213   3.562
 5668TIP3   OH216946   6.382   5.282   1.203
 5668TIP3    H116947   6.404   5.368   1.167
 5668TIP3    H216948   6.290   5.291   1.230
 5669TIP3   OH216949   8.270   1.919   0.390
 5669TIP3    H116950   8.317   1.999   0.369
 5669TIP3    H216951   8.287   1.861   0.315
 5670TIP3   OH216952   6.665   4.954   2.485
 5670TIP3    H116953   6.701   5.039   2.509
 5670TIP3    H216954   6.721   4.891   2.530
 5671TIP3   OH216955   2.225   6.239   5.081
 5671TIP3    H116956   2.270   6.248   4.998
 5671TIP3    H216957   2.282   6.281   5.145
 5672TIP3   OH216958   5.697   6.210   5.802
 5672TIP3    H116959   5.686   6.303   5.822
 5672TIP3    H216960   5.769   6.208   5.739
 5673TIP3   OH216961   6.016   7.463   3.168
 5673TIP3    H116962   5.989   7.495   3.082
 5673TIP3    H216963   6.037   7.542   3.217
 5674TIP3   OH216964   2.748   2.993   3.691
 5674TIP3    H116965   2.768   2.906   3.656
 5674TIP3    H216966   2.831   3.027   3.722
 5675TIP3   OH216967   5.125   5.760   1.316
 5675TIP3    H116968   5.176   5.685   1.288
 5675TIP3    H216969   5.059   5.771   1.247
 5676TIP3   OH216970   7.259   5.671   3.796
 5676TIP3    H116971   7.194   5.686   3.728
 5676TIP3    H216972   7.225   5.598   3.847
 5677TIP3   OH216973   3.619   1.511   4.290
 5677TIP3    H116974   3.575   1.557   4.219
 5677TIP3    H216975   3.556   1.515   4.363
 5678TIP3   OH216976   4.446   0.964   3.770
 5678TIP3    H116977   4.359   1.003   3.781
 5678TIP3    H216978   4.469   0.932   3.857
 5679TIP3   OH216979   7.382   1.141   5.230
 5679TIP3    H116980   7.295   1.158   5.267
 5679TIP3    H216981   7.382   1.047   5.212
 5680TIP3   OH216982   2.552   3.251   6.290
 5680TIP3    H116983   2.597   3.280   6.210
 5680TIP3    H216984   2.473   3.304   6.293
 5681TIP3   OH216985   4.797   5.030   5.197
 5681TIP3    H116986   4.731   5.085   5.155
 5681TIP3    H216987   4.753   4.994   5.273
 5682TIP3   OH216988   0.117   3.202   0.793
 5682TIP3    H116989   0.208   3.206   0.764
 5682TIP3    H216990   0.079   3.284   0.762
 5683TIP3   OH216991   0.292   4.513   5.303
 5683TIP3    H116992   0.272   4.427   5.266
 5683TIP3    H216993   0.228   4.572   5.264
 5684TIP3   OH216994   2.154   2.125   5.176
 5684TIP3    H116995   2.203   2.207   5.177
 5684TIP3    H216996   2.217   2.059   5.148
 5685TIP3   OH216997   4.193   7.051   3.693
 5685TIP3    H116998   4.114   7.105   3.680
 5685TIP3    H216999   4.243   7.097   3.760
 5686TIP3   OH217000   7.247   3.692   5.780
 5686TIP3    H117001   7.335   3.657   5.766
 5686TIP3    H217002   7.240   3.764   5.717
 5687TIP3   OH217003   3.075   2.950   6.100
 5687TIP3    H117004   3.040   3.025   6.149
 5687TIP3    H217005   3.035   2.956   6.014
 5688TIP3   OH217006   7.406   7.468   0.934
 5688TIP3    H117007   7.330   7.409   0.931
 5688TIP3    H217008   7.371   7.553   0.909
 5689TIP3   OH217009   4.559   3.499   6.609
 5689TIP3    H117010   4.494   3.531   6.670
 5689TIP3    H217011   4.514   3.497   6.524
 5690TIP3   OH217012   1.104   3.009   4.524
 5690TIP3    H117013   1.115   3.061   4.604
 5690TIP3    H217014   1.123   3.070   4.453
 5691TIP3   OH217015   2.288   1.585   4.222
 5691TIP3    H117016   2.295   1.547   4.309
 5691TIP3    H217017   2.200   1.622   4.218
 5692TIP3   OH217018   3.973   3.275   3.802
 5692TIP3    H117019   4.045   3.222   3.768
 5692TIP3    H217020   3.954   3.240   3.888
 5693TIP3   OH217021   1.355   5.333   5.851
 5693TIP3    H117022   1.347   5.397   5.922
 5693TIP3    H217023   1.279   5.276   5.862
 5694TIP3   OH217024   2.924   1.510   0.510
 5694TIP3    H117025   2.883   1.495   0.425
 5694TIP3    H217026   2.870   1.460   0.572
 5695TIP3   OH217027   7.975   2.871   1.923
 5695TIP3    H117028   8.005   2.905   2.007
 5695TIP3    H217029   8.004   2.936   1.859
 5696TIP3   OH217030   2.158   2.184   3.918
 5696TIP3    H117031   2.160   2.231   4.002
 5696TIP3    H217032   2.199   2.100   3.937
 5697TIP3   OH217033   1.346   4.108   2.700
 5697TIP3    H117034   1.320   4.017   2.715
 5697TIP3    H217035   1.326   4.152   2.783
 5698TIP3   OH217036   7.601   6.985   0.098
 5698TIP3    H117037   7.638   6.897   0.110
 5698TIP3    H217038   7.555   6.981   0.015
 5699TIP3   OH217039   1.386   1.793   3.845
 5699TIP3    H117040   1.411   1.722   3.905
 5699TIP3    H217041   1.463   1.849   3.841
 5700TIP3   OH217042   3.150   1.670   3.523
 5700TIP3    H117043   3.227   1.619   3.548
 5700TIP3    H217044   3.137   1.650   3.430
 5701TIP3   OH217045   0.092   3.180   1.833
 5701TIP3    H117046   0.040   3.232   1.773
 5701TIP3    H217047   0.054   3.093   1.830
 5702TIP3   OH217048   6.823   3.615   2.888
 5702TIP3    H117049   6.889   3.614   2.819
 5702TIP3    H217050   6.861   3.561   2.958
 5703TIP3   OH217051   7.368   0.463   5.819
 5703TIP3    H117052   7.400   0.550   5.792
 5703TIP3    H217053   7.283   0.455   5.776
 5704TIP3   OH217054   7.083   5.359   0.257
 5704TIP3    H117055   7.072   5.400   0.171
 5704TIP3    H217056   7.000   5.315   0.272
 5705TIP3   OH217057   3.482   5.747   6.682
 5705TIP3    H117058   3.458   5.750   6.774
 5705TIP3    H217059   3.547   5.677   6.676
 5706TIP3   OH217060   3.300   1.494   6.196
 5706TIP3    H117061   3.333   1.448   6.119
 5706TIP3    H217062   3.337   1.582   6.189
 5707TIP3   OH217063   5.190   1.800   3.304
 5707TIP3    H117064   5.244   1.827   3.230
 5707TIP3    H217065   5.252   1.792   3.377
 5708TIP3   OH217066   4.433   5.234   5.334
 5708TIP3    H117067   4.443   5.321   5.373
 5708TIP3    H217068   4.485   5.176   5.391
 5709TIP3   OH217069   6.824   1.832   5.432
 5709TIP3    H117070   6.752   1.804   5.376
 5709TIP3    H217071   6.803   1.798   5.519
 5710TIP3   OH217072   2.078   7.662   6.741
 5710TIP3    H117073   2.143   7.722   6.704
 5710TIP3    H217074   2.124   7.617   6.811
 5711TIP3   OH217075   4.385   3.742   1.039
 5711TIP3    H117076   4.391   3.747   1.135
 5711TIP3    H217077   4.354   3.828   1.013
 5712TIP3   OH217078   3.624   1.690   1.445
 5712TIP3    H117079   3.545   1.731   1.411
 5712TIP3    H217080   3.647   1.742   1.522
 5713TIP3   OH217081   0.483   6.792   4.435
 5713TIP3    H117082   0.522   6.811   4.521
 5713TIP3    H217083   0.552   6.815   4.373
 5714TIP3   OH217084   7.122   5.953   6.299
 5714TIP3    H117085   7.072   5.910   6.369
 5714TIP3    H217086   7.070   6.030   6.276
 5715TIP3   OH217087   2.642   1.687   1.100
 5715TIP3    H117088   2.617   1.628   1.029
 5715TIP3    H217089   2.716   1.645   1.142
 5716TIP3   OH217090   1.050   7.588   6.504
 5716TIP3    H117091   1.009   7.538   6.575
 5716TIP3    H217092   1.110   7.648   6.549
 5717TIP3   OH217093   6.624   6.619   2.568
 5717TIP3    H117094   6.563   6.555   2.606
 5717TIP3    H217095   6.587   6.704   2.592
 5718TIP3   OH217096   7.241   3.619   4.002
 5718TIP3    H117097   7.184   3.672   3.946
 5718TIP3    H217098   7.317   3.675   4.019
 5719TIP3   OH217099   0.126   3.033   1.410
 5719TIP3    H117100   0.125   3.127   1.430
 5719TIP3    H217101   0.034   3.011   1.395
 5720TIP3   OH217102   7.200   3.172   2.384
 5720TIP3    H117103   7.201   3.244   2.447
 5720TIP3    H217104   7.292   3.155   2.364
 5721TIP3   OH217105   0.495   6.877   6.096
 5721TIP3    H117106   0.449   6.817   6.037
 5721TIP3    H217107   0.581   6.837   6.107
 5722TIP3   OH217108   4.300   6.468   1.549
 5722TIP3    H117109   4.382   6.429   1.577
 5722TIP3    H217110   4.280   6.424   1.466
 5723TIP3   OH217111   8.030   6.743   1.634
 5723TIP3    H117112   7.945   6.712   1.666
 5723TIP3    H217113   8.068   6.791   1.707
 5724TIP3   OH217114   0.907   7.780   0.935
 5724TIP3    H117115   0.979   7.743   0.884
 5724TIP3    H217116   0.875   7.706   0.988
 5725TIP3   OH217117   4.876   7.680   4.114
 5725TIP3    H117118   4.867   7.603   4.169
 5725TIP3    H217119   4.838   7.655   4.030
 5726TIP3   OH217120   2.353   6.438   0.625
 5726TIP3    H117121   2.357   6.394   0.540
 5726TIP3    H217122   2.387   6.526   0.607
 5727TIP3   OH217123   7.575   2.604   0.451
 5727TIP3    H117124   7.661   2.563   0.458
 5727TIP3    H217125   7.577   2.651   0.368
 5728TIP3   OH217126   7.225   5.118   3.488
 5728TIP3    H117127   7.163   5.172   3.538
 5728TIP3    H217128   7.280   5.078   3.555
 5729TIP3   OH217129   2.483   3.840   1.614
 5729TIP3    H117130   2.485   3.824   1.708
 5729TIP3    H217131   2.480   3.753   1.574
 5730TIP3   OH217132   2.620   6.652   2.646
 5730TIP3    H117133   2.587   6.710   2.577
 5730TIP3    H217134   2.704   6.621   2.613
 5731TIP3   OH217135   8.111   1.102   5.690
 5731TIP3    H117136   8.203   1.108   5.714
 5731TIP3    H217137   8.065   1.150   5.758
 5732TIP3   OH217138   0.352   1.262   1.164
 5732TIP3    H117139   0.362   1.188   1.223
 5732TIP3    H217140   0.439   1.300   1.158
 5733TIP3   OH217141   7.220   2.097   6.047
 5733TIP3    H117142   7.261   2.011   6.054
 5733TIP3    H217143   7.134   2.080   6.009
 5734TIP3   OH217144   2.737   4.037   0.229
 5734TIP3    H117145   2.746   4.086   0.147
 5734TIP3    H217146   2.818   3.987   0.236
 5735TIP3   OH217147   8.058   2.225   4.556
 5735TIP3    H117148   7.969   2.190   4.558
 5735TIP3    H217149   8.055   2.300   4.615
 5736TIP3   OH217150   3.868   1.413   1.452
 5736TIP3    H117151   3.864   1.344   1.518
 5736TIP3    H217152   3.957   1.408   1.417
 5737TIP3   OH217153   6.165   0.790   0.984
 5737TIP3    H117154   6.085   0.784   0.932
 5737TIP3    H217155   6.226   0.838   0.928
 5738TIP3   OH217156   4.315   2.994   6.190
 5738TIP3    H117157   4.293   2.925   6.253
 5738TIP3    H217158   4.252   2.981   6.119
 5739TIP3   OH217159   4.050   5.065   1.461
 5739TIP3    H117160   4.012   4.991   1.415
 5739TIP3    H217161   3.975   5.120   1.485
 5740TIP3   OH217162   4.644   6.911   6.601
 5740TIP3    H117163   4.671   6.999   6.626
 5740TIP3    H217164   4.679   6.854   6.670
 5741TIP3   OH217165   6.812   2.284   3.765
 5741TIP3    H117166   6.747   2.214   3.766
 5741TIP3    H217167   6.807   2.323   3.852
 5742TIP3   OH217168   3.894   1.186   1.592
 5742TIP3    H117169   3.917   1.137   1.513
 5742TIP3    H217170   3.908   1.124   1.663
 5743TIP3   OH217171   7.783   5.207   6.647
 5743TIP3    H117172   7.713   5.204   6.582
 5743TIP3    H217173   7.738   5.199   6.732
 5744TIP3   OH217174   6.385   6.237   3.998
 5744TIP3    H117175   6.357   6.279   4.079
 5744TIP3    H217176   6.454   6.295   3.964
 5745TIP3   OH217177   8.122   0.066   0.772
 5745TIP3    H117178   8.157   0.082   0.860
 5745TIP3    H217179   8.076   0.147   0.749
 5746TIP3   OH217180   5.067   0.082   4.603
 5746TIP3    H117181   5.090   0.065   4.511
 5746TIP3    H217182   4.981   0.125   4.598
 5747TIP3   OH217183   1.314   1.089   3.892
 5747TIP3    H117184   1.298   1.171   3.845
 5747TIP3    H217185   1.405   1.094   3.920
 5748TIP3   OH217186   2.609   7.415   5.699
 5748TIP3    H117187   2.551   7.393   5.626
 5748TIP3    H217188   2.696   7.424   5.659
 5749TIP3   OH217189   0.999   7.313   5.623
 5749TIP3    H117190   0.929   7.378   5.626
 5749TIP3    H217191   0.967   7.241   5.677
 5750TIP3   OH217192   1.567   2.743   1.972
 5750TIP3    H117193   1.629   2.747   1.900
 5750TIP3    H217194   1.618   2.711   2.047
 5751TIP3   OH217195   0.945   3.286   6.495
 5751TIP3    H117196   1.021   3.342   6.477
 5751TIP3    H217197   0.916   3.312   6.582
 5752TIP3   OH217198   6.983   5.192   6.695
 5752TIP3    H117199   6.901   5.144   6.706
 5752TIP3    H217200   7.014   5.167   6.608
 5753TIP3   OH217201   0.975   6.353   6.320
 5753TIP3    H117202   0.881   6.352   6.302
 5753TIP3    H217203   0.982   6.343   6.415
 5754TIP3   OH217204   2.612   3.661   2.308
 5754TIP3    H117205   2.656   3.645   2.391
 5754TIP3    H217206   2.574   3.748   2.317
 5755TIP3   OH217207   0.734   6.239   6.469
 5755TIP3    H117208   0.791   6.299   6.518
 5755TIP3    H217209   0.739   6.156   6.517
 5756TIP3   OH217210   6.300   7.522   5.842
 5756TIP3    H117211   6.277   7.539   5.933
 5756TIP3    H217212   6.280   7.429   5.830
 5757TIP3   OH217213   6.402   3.059   3.168
 5757TIP3    H117214   6.346   3.135   3.154
 5757TIP3    H217215   6.472   3.069   3.103
 5758TIP3   OH217216   4.335   6.063   3.780
 5758TIP3    H117217   4.342   6.048   3.874
 5758TIP3    H217218   4.243   6.043   3.759
 5759TIP3   OH217219   3.323   3.133   6.202
 5759TIP3    H117220   3.409   3.116   6.240
 5759TIP3    H217221   3.261   3.113   6.272
 5760TIP3   OH217222   6.400   5.583   5.398
 5760TIP3    H117223   6.489   5.589   5.432
 5760TIP3    H217224   6.365   5.502   5.436
 5761TIP3   OH217225   7.662   5.891   3.494
 5761TIP3    H117226   7.634   5.844   3.572
 5761TIP3    H217227   7.748   5.853   3.473
 5762TIP3   OH217228   7.642   5.334   1.455
 5762TIP3    H117229   7.668   5.423   1.480
 5762TIP3    H217230   7.714   5.279   1.486
 5763TIP3   OH217231   6.939   2.931   5.040
 5763TIP3    H117232   6.876   2.983   5.090
 5763TIP3    H217233   6.934   2.966   4.951
 5764TIP3   OH217234   2.167   5.399   3.640
 5764TIP3    H117235   2.238   5.457   3.670
 5764TIP3    H217236   2.119   5.452   3.576
 5765TIP3   OH217237   4.452   0.317   2.480
 5765TIP3    H117238   4.401   0.341   2.558
 5765TIP3    H217239   4.450   0.222   2.478
 5766TIP3   OH217240   2.270   0.630   0.534
 5766TIP3    H117241   2.346   0.623   0.592
 5766TIP3    H217242   2.225   0.710   0.564
 5767TIP3   OH217243   2.000   5.345   6.480
 5767TIP3    H117244   1.930   5.351   6.415
 5767TIP3    H217245   1.985   5.419   6.539
 5768TIP3   OH217246   6.426   3.364   4.769
 5768TIP3    H117247   6.440   3.344   4.677
 5768TIP3    H217248   6.514   3.369   4.806
 5769TIP3   OH217249   5.254   6.169   3.146
 5769TIP3    H117250   5.330   6.179   3.204
 5769TIP3    H217251   5.181   6.205   3.195
 5770TIP3   OH217252   1.160   4.460   4.761
 5770TIP3    H117253   1.190   4.418   4.842
 5770TIP3    H217254   1.239   4.499   4.723
 5771TIP3   OH217255   4.428   0.044   2.399
 5771TIP3    H117256   4.427  -0.045   2.433
 5771TIP3    H217257   4.387   0.037   2.312
 5772TIP3   OH217258   2.180   1.020   1.684
 5772TIP3    H117259   2.087   1.013   1.659
 5772TIP3    H217260   2.194   0.949   1.746
 5773TIP3   OH217261   5.581   4.946   1.934
 5773TIP3    H117262   5.527   4.994   1.871
 5773TIP3    H217263   5.616   5.013   1.992
 5774TIP3   OH217264   1.414   6.436   1.069
 5774TIP3    H117265   1.377   6.468   0.987
 5774TIP3    H217266   1.509   6.438   1.056
 5775TIP3   OH217267   5.555   3.981   5.715
 5775TIP3    H117268   5.585   3.928   5.789
 5775TIP3    H217269   5.496   4.046   5.754
 5776TIP3   OH217270   2.923   0.239   3.168
 5776TIP3    H117271   2.930   0.313   3.227
 5776TIP3    H217272   2.967   0.267   3.088
 5777TIP3   OH217273   5.397   3.707   5.940
 5777TIP3    H117274   5.471   3.767   5.930
 5777TIP3    H217275   5.327   3.747   5.887
 5778TIP3   OH217276   3.099   1.748   5.447
 5778TIP3    H117277   3.126   1.838   5.468
 5778TIP3    H217278   3.074   1.710   5.531
 5779TIP3   OH217279   7.611   6.176   3.459
 5779TIP3    H117280   7.705   6.171   3.442
 5779TIP3    H217281   7.572   6.112   3.399
 5780TIP3   OH217282   5.866   0.328   2.964
 5780TIP3    H117283   5.882   0.359   2.875
 5780TIP3    H217284   5.773   0.304   2.964
 5781TIP3   OH217285   3.106   5.010   4.148
 5781TIP3    H117286   3.096   5.092   4.100
 5781TIP3    H217287   3.200   4.990   4.143
 5782TIP3   OH217288   5.240   6.323   5.236
 5782TIP3    H117289   5.285   6.238   5.231
 5782TIP3    H217290   5.295   6.382   5.186
 5783TIP3   OH217291   0.356   1.327   4.181
 5783TIP3    H117292   0.423   1.304   4.245
 5783TIP3    H217293   0.308   1.400   4.221
 5784TIP3   OH217294   7.379   5.599   5.607
 5784TIP3    H117295   7.457   5.548   5.631
 5784TIP3    H217296   7.405   5.690   5.622
 5785TIP3   OH217297   3.482   6.823   2.986
 5785TIP3    H117298   3.416   6.890   3.003
 5785TIP3    H217299   3.536   6.859   2.916
 5786TIP3   OH217300   5.853   5.416   1.458
 5786TIP3    H117301   5.933   5.418   1.405
 5786TIP3    H217302   5.879   5.370   1.538
 5787TIP3   OH217303   5.172   7.054   0.639
 5787TIP3    H117304   5.192   7.088   0.726
 5787TIP3    H217305   5.228   7.105   0.580
 5788TIP3   OH217306   4.387   0.631   5.441
 5788TIP3    H117307   4.350   0.572   5.507
 5788TIP3    H217308   4.427   0.573   5.376
 5789TIP3   OH217309   6.654   6.004   1.936
 5789TIP3    H117310   6.737   5.964   1.910
 5789TIP3    H217311   6.671   6.040   2.023
 5790TIP3   OH217312   1.368   0.167   5.430
 5790TIP3    H117313   1.280   0.130   5.419
 5790TIP3    H217314   1.353   0.257   5.458
 5791TIP3   OH217315   7.809   3.002   3.338
 5791TIP3    H117316   7.756   2.964   3.268
 5791TIP3    H217317   7.883   2.941   3.348
 5792TIP3   OH217318   8.092   2.359   1.773
 5792TIP3    H117319   8.113   2.448   1.802
 5792TIP3    H217320   8.011   2.337   1.819
 5793TIP3   OH217321   4.131   3.018   4.746
 5793TIP3    H117322   4.188   2.996   4.672
 5793TIP3    H217323   4.191   3.039   4.818
 5794TIP3   OH217324   1.990   6.051   0.078
 5794TIP3    H117325   1.913   6.048   0.021
 5794TIP3    H217326   1.963   6.103   0.153
 5795TIP3   OH217327   5.015   1.632   3.663
 5795TIP3    H117328   5.032   1.656   3.754
 5795TIP3    H217329   4.982   1.712   3.623
 5796TIP3   OH217330   3.067   0.296   4.154
 5796TIP3    H117331   3.125   0.286   4.079
 5796TIP3    H217332   2.995   0.235   4.137
 5797TIP3   OH217333   4.843   3.170   3.125
 5797TIP3    H117334   4.835   3.078   3.150
 5797TIP3    H217335   4.783   3.180   3.051
 5798TIP3   OH217336   6.124   2.405   3.709
 5798TIP3    H117337   6.079   2.483   3.677
 5798TIP3    H217338   6.207   2.438   3.743
 5799TIP3   OH217339   7.114   7.737   4.986
 5799TIP3    H117340   7.184   7.688   4.943
 5799TIP3    H217341   7.100   7.691   5.069
 5800TIP3   OH217342   1.462   5.856   4.298
 5800TIP3    H117343   1.428   5.914   4.366
 5800TIP3    H217344   1.501   5.915   4.234
 5801TIP3   OH217345   1.004   5.275   3.578
 5801TIP3    H117346   0.980   5.308   3.664
 5801TIP3    H217347   1.063   5.202   3.596
 5802TIP3   OH217348   7.978   7.721   4.358
 5802TIP3    H117349   7.913   7.661   4.394
 5802TIP3    H217350   8.034   7.667   4.303
 5803TIP3   OH217351   5.376   4.512   2.551
 5803TIP3    H117352   5.406   4.460   2.476
 5803TIP3    H217353   5.442   4.580   2.561
 5804TIP3   OH217354   7.758   5.454   5.018
 5804TIP3    H117355   7.794   5.412   4.940
 5804TIP3    H217356   7.708   5.385   5.061
 5805TIP3   OH217357   0.216   4.677   4.254
 5805TIP3    H117358   0.121   4.668   4.258
 5805TIP3    H217359   0.246   4.597   4.211
 5806TIP3   OH217360   6.653   3.592   1.150
 5806TIP3    H117361   6.745   3.600   1.176
 5806TIP3    H217362   6.652   3.525   1.082
 5807TIP3   OH217363   4.810   0.836   5.800
 5807TIP3    H117364   4.807   0.758   5.855
 5807TIP3    H217365   4.725   0.879   5.815
 5808TIP3   OH217366   7.539   3.738   4.077
 5808TIP3    H117367   7.630   3.765   4.090
 5808TIP3    H217368   7.497   3.814   4.037
 5809TIP3   OH217369   1.885   1.978   3.912
 5809TIP3    H117370   1.797   1.943   3.895
 5809TIP3    H217371   1.873   2.072   3.922
 5810TIP3   OH217372   2.181   5.980   3.173
 5810TIP3    H117373   2.137   6.065   3.171
 5810TIP3    H217374   2.132   5.928   3.237
 5811TIP3   OH217375   8.111   7.773   2.720
 5811TIP3    H117376   8.125   7.857   2.676
 5811TIP3    H217377   8.044   7.792   2.786
 5812TIP3   OH217378   2.249   2.302   2.951
 5812TIP3    H117379   2.215   2.364   2.887
 5812TIP3    H217380   2.341   2.290   2.927
 5813TIP3   OH217381   2.934   1.810   4.383
 5813TIP3    H117382   2.967   1.900   4.381
 5813TIP3    H217383   2.841   1.819   4.405
 5814TIP3   OH217384   2.893   5.807   1.987
 5814TIP3    H117385   2.803   5.827   2.013
 5814TIP3    H217386   2.886   5.772   1.898
 5815TIP3   OH217387   8.258   6.514   6.673
 5815TIP3    H117388   8.327   6.537   6.735
 5815TIP3    H217389   8.298   6.527   6.587
 5816TIP3   OH217390   5.659   6.640   1.665
 5816TIP3    H117391   5.637   6.727   1.698
 5816TIP3    H217392   5.581   6.588   1.682
 5817TIP3   OH217393   5.904   5.516   4.498
 5817TIP3    H117394   5.918   5.457   4.572
 5817TIP3    H217395   5.992   5.539   4.469
 5818TIP3   OH217396   6.680   6.650   6.442
 5818TIP3    H117397   6.599   6.599   6.432
 5818TIP3    H217398   6.655   6.723   6.500
 5819TIP3   OH217399   1.788   5.241   3.137
 5819TIP3    H117400   1.852   5.303   3.102
 5819TIP3    H217401   1.787   5.256   3.231
 5820TIP3   OH217402   1.227   6.182   4.654
 5820TIP3    H117403   1.275   6.195   4.736
 5820TIP3    H217404   1.141   6.221   4.671
 5821TIP3   OH217405   4.373   2.100   0.804
 5821TIP3    H117406   4.351   2.023   0.751
 5821TIP3    H217407   4.395   2.064   0.890
 5822TIP3   OH217408   3.479   2.856   4.957
 5822TIP3    H117409   3.440   2.944   4.955
 5822TIP3    H217410   3.573   2.871   4.967
 5823TIP3   OH217411   3.201   1.499   0.495
 5823TIP3    H117412   3.208   1.410   0.530
 5823TIP3    H217413   3.107   1.517   0.496
 5824TIP3   OH217414   4.997   0.876   6.393
 5824TIP3    H117415   4.949   0.904   6.471
 5824TIP3    H217416   4.962   0.933   6.323
 5825TIP3   OH217417   4.943   6.741   1.306
 5825TIP3    H117418   4.899   6.696   1.234
 5825TIP3    H217419   4.979   6.670   1.359
 5826TIP3   OH217420   5.670   4.026   3.333
 5826TIP3    H117421   5.732   4.080   3.383
 5826TIP3    H217422   5.585   4.068   3.346
 5827TIP3   OH217423   6.400   5.048   0.801
 5827TIP3    H117424   6.494   5.062   0.817
 5827TIP3    H217425   6.367   5.013   0.884
 5828TIP3   OH217426   4.675   1.187   2.158
 5828TIP3    H117427   4.740   1.118   2.174
 5828TIP3    H217428   4.723   1.252   2.106
 5829TIP3   OH217429   7.123   3.556   0.394
 5829TIP3    H117430   7.187   3.625   0.378
 5829TIP3    H217431   7.044   3.586   0.349
 5830TIP3   OH217432   7.567   7.595   2.176
 5830TIP3    H117433   7.521   7.671   2.140
 5830TIP3    H217434   7.638   7.632   2.229
 5831TIP3   OH217435   5.297   2.497   4.471
 5831TIP3    H117436   5.229   2.430   4.466
 5831TIP3    H217437   5.352   2.482   4.394
 5832TIP3   OH217438   6.974   3.772   5.983
 5832TIP3    H117439   7.052   3.721   6.005
 5832TIP3    H217440   6.929   3.785   6.067
 5833TIP3   OH217441   2.850   1.246   6.018
 5833TIP3    H117442   2.884   1.318   6.072
 5833TIP3    H217443   2.757   1.263   6.011
 5834TIP3   OH217444   0.909   6.447   4.594
 5834TIP3    H117445   0.956   6.412   4.519
 5834TIP3    H217446   0.974   6.448   4.665
 5835TIP3   OH217447   4.213   3.981   1.253
 5835TIP3    H117448   4.231   4.073   1.232
 5835TIP3    H217449   4.299   3.940   1.254
 5836TIP3   OH217450   3.623   4.352   5.454
 5836TIP3    H117451   3.715   4.349   5.429
 5836TIP3    H217452   3.623   4.365   5.549
 5837TIP3   OH217453   0.273   0.256   3.046
 5837TIP3    H117454   0.308   0.321   2.985
 5837TIP3    H217455   0.340   0.188   3.050
 5838TIP3   OH217456   0.113   3.450   6.236
 5838TIP3    H117457   0.036   3.457   6.293
 5838TIP3    H217458   0.157   3.534   6.244
 5839TIP3   OH217459   3.733   7.034   1.932
 5839TIP3    H117460   3.747   7.101   1.865
 5839TIP3    H217461   3.782   7.066   2.008
 5840TIP3   OH217462   3.783   6.789   3.039
 5840TIP3    H117463   3.783   6.716   2.976
 5840TIP3    H217464   3.694   6.824   3.036
 5841TIP3   OH217465   5.365   2.780   4.978
 5841TIP3    H117466   5.291   2.742   5.026
 5841TIP3    H217467   5.354   2.748   4.888
 5842TIP3   OH217468   3.509   2.708   3.773
 5842TIP3    H117469   3.564   2.752   3.709
 5842TIP3    H217470   3.486   2.775   3.836
 5843TIP3   OH217471   7.774   3.480   2.397
 5843TIP3    H117472   7.727   3.536   2.460
 5843TIP3    H217473   7.820   3.542   2.340
 5844TIP3   OH217474   3.130  -0.019   1.975
 5844TIP3    H117475   3.194   0.025   1.919
 5844TIP3    H217476   3.090   0.051   2.026
 5845TIP3   OH217477   0.522   1.058   4.556
 5845TIP3    H117478   0.501   0.997   4.626
 5845TIP3    H217479   0.603   1.024   4.518
 5846TIP3   OH217480   5.529   6.855   5.886
 5846TIP3    H117481   5.511   6.780   5.830
 5846TIP3    H217482   5.557   6.817   5.969
 5847TIP3   OH217483   5.643   6.861   1.823
 5847TIP3    H117484   5.640   6.933   1.761
 5847TIP3    H217485   5.732   6.863   1.858
 5848TIP3   OH217486   3.738   2.932   4.519
 5848TIP3    H117487   3.692   2.958   4.439
 5848TIP3    H217488   3.677   2.952   4.590
 5849TIP3   OH217489   1.762   4.659   0.146
 5849TIP3    H117490   1.724   4.707   0.073
 5849TIP3    H217491   1.829   4.717   0.182
 5850TIP3   OH217492   2.833   3.781   0.822
 5850TIP3    H117493   2.808   3.695   0.854
 5850TIP3    H217494   2.784   3.843   0.877
 5851TIP3   OH217495   1.085   5.168   5.909
 5851TIP3    H117496   1.026   5.230   5.953
 5851TIP3    H217497   1.137   5.130   5.981
 5852TIP3   OH217498   3.264   2.521   0.882
 5852TIP3    H117499   3.265   2.597   0.824
 5852TIP3    H217500   3.324   2.544   0.953
 5853TIP3   OH217501   2.143   3.129   5.201
 5853TIP3    H117502   2.073   3.190   5.220
 5853TIP3    H217503   2.105   3.067   5.139
 5854TIP3   OH217504   1.606   6.539   2.744
 5854TIP3    H117505   1.578   6.622   2.782
 5854TIP3    H217506   1.551   6.528   2.667
 5855TIP3   OH217507   0.505   6.867   0.842
 5855TIP3    H117508   0.516   6.956   0.808
 5855TIP3    H217509   0.591   6.845   0.878
 5856TIP3   OH217510   4.312   0.327   3.936
 5856TIP3    H117511   4.335   0.419   3.920
 5856TIP3    H217512   4.393   0.288   3.969
 5857TIP3   OH217513   6.480   4.300   1.644
 5857TIP3    H117514   6.570   4.328   1.662
 5857TIP3    H217515   6.437   4.300   1.729
 5858TIP3   OH217516   2.493   6.148   3.789
 5858TIP3    H117517   2.468   6.206   3.718
 5858TIP3    H217518   2.588   6.157   3.796
 5859TIP3   OH217519   7.885   1.635   4.274
 5859TIP3    H117520   7.811   1.576   4.290
 5859TIP3    H217521   7.947   1.616   4.344
 5860TIP3   OH217522   1.074   1.749   4.886
 5860TIP3    H117523   0.981   1.734   4.867
 5860TIP3    H217524   1.075   1.810   4.959
 5861TIP3   OH217525   0.610   2.618   4.460
 5861TIP3    H117526   0.518   2.637   4.482
 5861TIP3    H217527   0.660   2.657   4.532
 5862TIP3   OH217528   3.773   5.011   1.110
 5862TIP3    H117529   3.760   4.975   1.198
 5862TIP3    H217530   3.854   5.061   1.116
 5863TIP3   OH217531   5.439   4.725   6.150
 5863TIP3    H117532   5.475   4.813   6.159
 5863TIP3    H217533   5.345   4.738   6.144
 5864TIP3   OH217534   1.582   3.824   4.461
 5864TIP3    H117535   1.627   3.902   4.495
 5864TIP3    H217536   1.623   3.751   4.508
 5865TIP3   OH217537   4.575   1.339   2.590
 5865TIP3    H117538   4.595   1.246   2.580
 5865TIP3    H217539   4.487   1.340   2.629
 5866TIP3   OH217540   6.803   2.864   1.398
 5866TIP3    H117541   6.789   2.928   1.328
 5866TIP3    H217542   6.753   2.788   1.371
 5867TIP3   OH217543   7.124   5.523   3.136
 5867TIP3    H117544   7.148   5.434   3.162
 5867TIP3    H217545   7.106   5.568   3.219
 5868TIP3   OH217546   5.769   6.395   5.141
 5868TIP3    H117547   5.787   6.407   5.048
 5868TIP3    H217548   5.848   6.428   5.185
 5869TIP3   OH217549   0.806   0.420   6.563
 5869TIP3    H117550   0.750   0.448   6.490
 5869TIP3    H217551   0.798   0.324   6.564
 5870TIP3   OH217552   5.165   3.992   3.348
 5870TIP3    H117553   5.255   3.993   3.382
 5870TIP3    H217554   5.175   3.983   3.254
 5871TIP3   OH217555   8.137   1.180   4.118
 5871TIP3    H117556   8.168   1.270   4.104
 5871TIP3    H217557   8.048   1.180   4.083
 5872TIP3   OH217558   1.005   5.196   1.815
 5872TIP3    H117559   1.044   5.117   1.852
 5872TIP3    H217560   0.911   5.182   1.823
 5873TIP3   OH217561   5.065   3.756   2.328
 5873TIP3    H117562   5.089   3.785   2.417
 5873TIP3    H217563   5.111   3.818   2.270
 5874TIP3   OH217564   0.199   5.111   6.251
 5874TIP3    H117565   0.184   5.203   6.274
 5874TIP3    H217566   0.237   5.073   6.331
 5875TIP3   OH217567   6.520   5.769   3.859
 5875TIP3    H117568   6.570   5.702   3.905
 5875TIP3    H217569   6.518   5.843   3.920
 5876TIP3   OH217570   6.347   6.321   1.486
 5876TIP3    H117571   6.399   6.258   1.435
 5876TIP3    H217572   6.377   6.309   1.577
 5877TIP3   OH217573   6.551   7.628   5.830
 5877TIP3    H117574   6.464   7.595   5.809
 5877TIP3    H217575   6.535   7.705   5.885
 5878TIP3   OH217576   6.122   4.968   5.138
 5878TIP3    H117577   6.064   4.937   5.208
 5878TIP3    H217578   6.104   5.061   5.130
 5879TIP3   OH217579   1.861   4.951   4.312
 5879TIP3    H117580   1.777   4.921   4.347
 5879TIP3    H217581   1.926   4.922   4.377
 5880TIP3   OH217582   1.881   0.707   4.965
 5880TIP3    H117583   1.813   0.710   5.032
 5880TIP3    H217584   1.941   0.778   4.989
 5881TIP3   OH217585   6.535   3.964   6.289
 5881TIP3    H117586   6.449   3.923   6.299
 5881TIP3    H217587   6.546   3.973   6.195
 5882TIP3   OH217588   4.708   7.112   5.111
 5882TIP3    H117589   4.800   7.128   5.132
 5882TIP3    H217590   4.696   7.017   5.122
 5883TIP3   OH217591   3.531   5.814   5.251
 5883TIP3    H117592   3.564   5.782   5.336
 5883TIP3    H217593   3.469   5.747   5.223
 5884TIP3   OH217594   5.824   7.681   3.635
 5884TIP3    H117595   5.730   7.666   3.647
 5884TIP3    H217596   5.845   7.751   3.697
 5885TIP3   OH217597   2.752   1.839   1.790
 5885TIP3    H117598   2.795   1.884   1.717
 5885TIP3    H217599   2.711   1.909   1.840
 5886TIP3   OH217600   5.741   7.198   6.308
 5886TIP3    H117601   5.775   7.232   6.391
 5886TIP3    H217602   5.694   7.118   6.332
 5887TIP3   OH217603   1.243   4.926   4.804
 5887TIP3    H117604   1.187   4.883   4.869
 5887TIP3    H217605   1.184   4.983   4.755
 5888TIP3   OH217606   2.358   2.601   3.091
 5888TIP3    H117607   2.330   2.628   3.003
 5888TIP3    H217608   2.418   2.528   3.076
 5889TIP3   OH217609   1.486   2.174   3.105
 5889TIP3    H117610   1.404   2.167   3.057
 5889TIP3    H217611   1.504   2.085   3.136
 5890TIP3   OH217612   6.397   1.164   4.092
 5890TIP3    H117613   6.312   1.121   4.081
 5890TIP3    H217614   6.386   1.219   4.169
 5891TIP3   OH217615   6.656   1.010   1.033
 5891TIP3    H117616   6.733   1.038   1.082
 5891TIP3    H217617   6.618   1.091   1.000
 5892TIP3   OH217618   6.969   3.074   4.824
 5892TIP3    H117619   7.045   3.050   4.771
 5892TIP3    H217620   6.901   3.096   4.760
 5893TIP3   OH217621   1.423   6.989   4.142
 5893TIP3    H117622   1.363   6.956   4.075
 5893TIP3    H217623   1.412   6.929   4.216
 5894TIP3   OH217624   5.001   0.944   0.735
 5894TIP3    H117625   5.033   0.861   0.772
 5894TIP3    H217626   4.941   0.978   0.801
 5895TIP3   OH217627   3.138   2.638   1.247
 5895TIP3    H117628   3.060   2.599   1.285
 5895TIP3    H217629   3.204   2.569   1.254
 5896TIP3   OH217630   4.022   1.858   1.529
 5896TIP3    H117631   4.012   1.778   1.580
 5896TIP3    H217632   3.971   1.843   1.450
 5897TIP3   OH217633   1.434   2.966   4.034
 5897TIP3    H117634   1.389   2.947   3.952
 5897TIP3    H217635   1.516   2.916   4.028
 5898TIP3   OH217636   5.257   6.196   5.830
 5898TIP3    H117637   5.202   6.243   5.893
 5898TIP3    H217638   5.257   6.105   5.861
 5899TIP3   OH217639   6.925   0.851   1.233
 5899TIP3    H117640   6.951   0.903   1.157
 5899TIP3    H217641   7.004   0.846   1.287
 5900TIP3   OH217642   3.467   6.641   5.808
 5900TIP3    H117643   3.502   6.594   5.733
 5900TIP3    H217644   3.526   6.619   5.880
 5901TIP3   OH217645   0.668   5.885   6.326
 5901TIP3    H117646   0.715   5.802   6.330
 5901TIP3    H217647   0.576   5.860   6.330
 5902TIP3   OH217648   6.739   0.939   3.585
 5902TIP3    H117649   6.723   0.859   3.534
 5902TIP3    H217650   6.814   0.980   3.543
 5903TIP3   OH217651   3.242   0.576   6.239
 5903TIP3    H117652   3.298   0.504   6.265
 5903TIP3    H217653   3.166   0.534   6.198
 5904TIP3   OH217654   7.334   2.313   1.990
 5904TIP3    H117655   7.359   2.220   1.995
 5904TIP3    H217656   7.413   2.357   1.960
 5905TIP3   OH217657   5.677   5.695   5.978
 5905TIP3    H117658   5.749   5.750   5.947
 5905TIP3    H217659   5.654   5.642   5.902
 5906TIP3   OH217660   2.583   4.508   6.091
 5906TIP3    H117661   2.551   4.582   6.143
 5906TIP3    H217662   2.551   4.430   6.138
 5907TIP3   OH217663   5.873   2.133   1.777
 5907TIP3    H117664   5.918   2.080   1.711
 5907TIP3    H217665   5.905   2.222   1.763
 5908TIP3   OH217666   5.773   2.682   4.901
 5908TIP3    H117667   5.700   2.713   4.954
 5908TIP3    H217668   5.802   2.759   4.852
 5909TIP3   OH217669   5.107   5.737   6.641
 5909TIP3    H117670   5.063   5.787   6.572
 5909TIP3    H217671   5.161   5.801   6.687
 5910TIP3   OH217672   2.954   0.063   1.752
 5910TIP3    H117673   3.014   0.054   1.677
 5910TIP3    H217674   2.982  -0.004   1.813
 5911TIP3   OH217675   1.792   5.253   5.170
 5911TIP3    H117676   1.751   5.171   5.142
 5911TIP3    H217677   1.735   5.322   5.135
 5912TIP3   OH217678   5.173   0.084   4.343
 5912TIP3    H117679   5.213   0.000   4.364
 5912TIP3    H217680   5.228   0.122   4.276
 5913TIP3   OH217681   4.004   3.407   2.406
 5913TIP3    H117682   3.964   3.321   2.394
 5913TIP3    H217683   3.938   3.469   2.375
 5914TIP3   OH217684   0.199   7.223   3.711
 5914TIP3    H117685   0.220   7.180   3.629
 5914TIP3    H217686   0.110   7.257   3.698
 5915TIP3   OH217687   4.481   4.376   1.774
 5915TIP3    H117688   4.414   4.345   1.713
 5915TIP3    H217689   4.436   4.441   1.828
 5916TIP3   OH217690   0.802   2.152   1.860
 5916TIP3    H117691   0.759   2.163   1.775
 5916TIP3    H217692   0.894   2.138   1.839
 5917TIP3   OH217693   5.726   6.163   4.003
 5917TIP3    H117694   5.725   6.084   4.057
 5917TIP3    H217695   5.793   6.218   4.043
 5918TIP3   OH217696   3.396   3.574   2.024
 5918TIP3    H117697   3.476   3.605   1.982
 5918TIP3    H217698   3.399   3.611   2.112
 5919TIP3   OH217699   3.499   0.193   1.628
 5919TIP3    H117700   3.502   0.131   1.555
 5919TIP3    H217701   3.487   0.278   1.587
 5920TIP3   OH217702   7.356   6.733   6.193
 5920TIP3    H117703   7.435   6.738   6.248
 5920TIP3    H217704   7.326   6.643   6.202
 5921TIP3   OH217705   0.223   5.528   2.748
 5921TIP3    H117706   0.178   5.456   2.703
 5921TIP3    H217707   0.239   5.495   2.836
 5922TIP3   OH217708   6.510   0.543   2.956
 5922TIP3    H117709   6.520   0.618   2.898
 5922TIP3    H217710   6.423   0.553   2.995
 5923TIP3   OH217711   4.512   5.931   0.869
 5923TIP3    H117712   4.437   5.872   0.864
 5923TIP3    H217713   4.544   5.922   0.959
 5924TIP3   OH217714   2.103   5.792   1.644
 5924TIP3    H117715   2.197   5.803   1.634
 5924TIP3    H217716   2.066   5.828   1.563
 5925TIP3   OH217717   4.036   2.158   2.358
 5925TIP3    H117718   3.962   2.179   2.414
 5925TIP3    H217719   3.996   2.118   2.280
 5926TIP3   OH217720   4.465   7.781   5.555
 5926TIP3    H117721   4.508   7.828   5.484
 5926TIP3    H217722   4.528   7.714   5.581
 5927TIP3   OH217723   8.041   3.739   1.595
 5927TIP3    H117724   8.052   3.713   1.504
 5927TIP3    H217725   8.079   3.668   1.646
 5928TIP3   OH217726   0.251   0.527   4.728
 5928TIP3    H117727   0.190   0.556   4.796
 5928TIP3    H217728   0.237   0.590   4.656
 5929TIP3   OH217729   1.098   0.760   6.332
 5929TIP3    H117730   1.173   0.725   6.284
 5929TIP3    H217731   1.082   0.845   6.292
 5930TIP3   OH217732   7.235   3.057   3.924
 5930TIP3    H117733   7.287   2.990   3.878
 5930TIP3    H217734   7.248   3.137   3.872
 5931TIP3   OH217735   5.733   5.504   6.255
 5931TIP3    H117736   5.808   5.482   6.199
 5931TIP3    H217737   5.771   5.521   6.341
 5932TIP3   OH217738   2.501   3.378   4.663
 5932TIP3    H117739   2.414   3.401   4.629
 5932TIP3    H217740   2.561   3.394   4.590
 5933TIP3   OH217741   3.525   3.625   6.678
 5933TIP3    H117742   3.533   3.665   6.591
 5933TIP3    H217743   3.616   3.611   6.705
 5934TIP3   OH217744   5.716   3.724   6.203
 5934TIP3    H117745   5.623   3.743   6.207
 5934TIP3    H217746   5.727   3.647   6.259
 5935TIP3   OH217747   1.214   0.622   4.229
 5935TIP3    H117748   1.260   0.629   4.145
 5935TIP3    H217749   1.283   0.613   4.294
 5936TIP3   OH217750   5.061   5.971   4.174
 5936TIP3    H117751   5.065   6.045   4.113
 5936TIP3    H217752   5.090   5.896   4.124
 5937TIP3   OH217753   0.402   1.148   0.541
 5937TIP3    H117754   0.428   1.144   0.449
 5937TIP3    H217755   0.358   1.065   0.558
 5938TIP3   OH217756   5.246   3.462   4.840
 5938TIP3    H117757   5.297   3.525   4.789
 5938TIP3    H217758   5.278   3.377   4.810
 5939TIP3   OH217759   0.499   7.376   3.337
 5939TIP3    H117760   0.551   7.393   3.259
 5939TIP3    H217761   0.413   7.351   3.303
 5940TIP3   OH217762   3.712   3.662   6.085
 5940TIP3    H117763   3.741   3.634   6.172
 5940TIP3    H217764   3.789   3.700   6.045
 5941TIP3   OH217765   1.228   0.207   2.436
 5941TIP3    H117766   1.313   0.223   2.395
 5941TIP3    H217767   1.174   0.280   2.408
 5942TIP3   OH217768   7.154   7.746   1.620
 5942TIP3    H117769   7.169   7.807   1.692
 5942TIP3    H217770   7.114   7.800   1.552
 5943TIP3   OH217771   4.982   2.938   6.144
 5943TIP3    H117772   5.062   2.889   6.129
 5943TIP3    H217773   4.979   2.953   6.238
 5944TIP3   OH217774   7.172   1.968   5.659
 5944TIP3    H117775   7.147   1.903   5.593
 5944TIP3    H217776   7.220   1.917   5.725
 5945TIP3   OH217777   0.711   3.250   4.164
 5945TIP3    H117778   0.772   3.231   4.093
 5945TIP3    H217779   0.641   3.185   4.155
 5946TIP3   OH217780   2.246   2.754   0.813
 5946TIP3    H117781   2.335   2.719   0.807
 5946TIP3    H217782   2.196   2.704   0.749
 5947TIP3   OH217783   1.718   7.340   0.203
 5947TIP3    H117784   1.728   7.408   0.269
 5947TIP3    H217785   1.697   7.261   0.253
 5948TIP3   OH217786   4.093   3.974   1.674
 5948TIP3    H117787   4.031   4.047   1.680
 5948TIP3    H217788   4.099   3.941   1.764
 5949TIP3   OH217789   2.534   5.956   1.913
 5949TIP3    H117790   2.547   6.029   1.853
 5949TIP3    H217791   2.531   5.997   2.000
 5950TIP3   OH217792   6.618   5.096   3.122
 5950TIP3    H117793   6.607   5.184   3.084
 5950TIP3    H217794   6.584   5.037   3.055
 5951TIP3   OH217795   3.629   7.649   3.443
 5951TIP3    H117796   3.570   7.580   3.413
 5951TIP3    H217797   3.590   7.730   3.413
 5952TIP3   OH217798   2.864   4.863   3.952
 5952TIP3    H117799   2.925   4.790   3.960
 5952TIP3    H217800   2.824   4.870   4.039
 5953TIP3   OH217801   3.544   1.537   5.745
 5953TIP3    H117802   3.488   1.466   5.777
 5953TIP3    H217803   3.561   1.591   5.822
 5954TIP3   OH217804   3.645   5.739   2.667
 5954TIP3    H117805   3.643   5.804   2.597
 5954TIP3    H217806   3.621   5.657   2.625
 5955TIP3   OH217807   5.404   7.308   3.506
 5955TIP3    H117808   5.345   7.312   3.581
 5955TIP3    H217809   5.489   7.336   3.541
 5956TIP3   OH217810   5.197   4.717   2.791
 5956TIP3    H117811   5.181   4.746   2.701
 5956TIP3    H217812   5.218   4.624   2.783
 5957TIP3   OH217813   7.721   3.534   5.412
 5957TIP3    H117814   7.736   3.535   5.317
 5957TIP3    H217815   7.775   3.462   5.444
 5958TIP3   OH217816   0.628   3.835   3.354
 5958TIP3    H117817   0.644   3.772   3.424
 5958TIP3    H217818   0.585   3.783   3.285
 5959TIP3   OH217819   7.478   4.841   0.411
 5959TIP3    H117820   7.421   4.779   0.365
 5959TIP3    H217821   7.559   4.793   0.426
 5960TIP3   OH217822   2.844   5.667   2.273
 5960TIP3    H117823   2.770   5.700   2.223
 5960TIP3    H217824   2.870   5.587   2.227
 5961TIP3   OH217825   5.431   1.569   3.702
 5961TIP3    H117826   5.436   1.476   3.683
 5961TIP3    H217827   5.451   1.576   3.795
 5962TIP3   OH217828   3.788   4.428   2.821
 5962TIP3    H117829   3.828   4.502   2.775
 5962TIP3    H217830   3.746   4.468   2.898
 5963TIP3   OH217831   0.987   1.546   1.418
 5963TIP3    H117832   0.892   1.554   1.431
 5963TIP3    H217833   1.025   1.603   1.486
 5964TIP3   OH217834   1.432   1.363   5.085
 5964TIP3    H117835   1.495   1.376   5.156
 5964TIP3    H217836   1.485   1.348   5.007
 5965TIP3   OH217837   2.204   6.887   1.811
 5965TIP3    H117838   2.194   6.792   1.823
 5965TIP3    H217839   2.132   6.925   1.861
 5966TIP3   OH217840   7.955   2.064   6.750
 5966TIP3    H117841   8.040   2.033   6.719
 5966TIP3    H217842   7.910   1.984   6.778
 5967TIP3   OH217843   4.746   6.072   2.743
 5967TIP3    H117844   4.741   5.977   2.756
 5967TIP3    H217845   4.664   6.106   2.778
 5968TIP3   OH217846   6.452   6.278   3.351
 5968TIP3    H117847   6.417   6.320   3.430
 5968TIP3    H217848   6.410   6.193   3.347
 5969TIP3   OH217849   3.198   5.182   5.406
 5969TIP3    H117850   3.201   5.209   5.315
 5969TIP3    H217851   3.116   5.133   5.414
 5970TIP3   OH217852   1.620   5.137   1.967
 5970TIP3    H117853   1.654   5.081   2.037
 5970TIP3    H217854   1.568   5.204   2.013
 5971TIP3   OH217855   0.737   4.855   2.290
 5971TIP3    H117856   0.728   4.950   2.284
 5971TIP3    H217857   0.728   4.836   2.383
 5972TIP3   OH217858   2.852   1.071   5.188
 5972TIP3    H117859   2.796   1.033   5.121
 5972TIP3    H217860   2.889   0.996   5.234
 5973TIP3   OH217861   0.043   3.643   1.253
 5973TIP3    H117862   0.024   3.636   1.346
 5973TIP3    H217863   0.111   3.710   1.247
 5974TIP3   OH217864   3.833   2.241   2.733
 5974TIP3    H117865   3.808   2.149   2.733
 5974TIP3    H217866   3.770   2.283   2.792
 5975TIP3   OH217867   5.470   7.251   5.427
 5975TIP3    H117868   5.497   7.171   5.471
 5975TIP3    H217869   5.384   7.231   5.391
 5976TIP3   OH217870   1.584   6.043   4.842
 5976TIP3    H117871   1.625   6.074   4.761
 5976TIP3    H217872   1.621   5.956   4.857
 5977TIP3   OH217873   7.074   5.186   5.585
 5977TIP3    H117874   7.080   5.276   5.617
 5977TIP3    H217875   7.132   5.136   5.644
 5978TIP3   OH217876   4.747   0.227   5.753
 5978TIP3    H117877   4.689   0.212   5.678
 5978TIP3    H217878   4.833   0.244   5.713
 5979TIP3   OH217879   7.830   4.810   1.219
 5979TIP3    H117880   7.769   4.841   1.286
 5979TIP3    H217881   7.843   4.885   1.161
 5980TIP3   OH217882   4.207   3.849   1.956
 5980TIP3    H117883   4.135   3.885   2.007
 5980TIP3    H217884   4.271   3.921   1.949
 5981TIP3   OH217885   2.857   2.958   5.179
 5981TIP3    H117886   2.940   2.972   5.134
 5981TIP3    H217887   2.881   2.947   5.271
 5982TIP3   OH217888   1.945   1.304   4.840
 5982TIP3    H117889   2.003   1.271   4.908
 5982TIP3    H217890   1.891   1.370   4.884
 5983TIP3   OH217891   1.415   2.666   5.500
 5983TIP3    H117892   1.481   2.690   5.435
 5983TIP3    H217893   1.462   2.670   5.583
 5984TIP3   OH217894   2.381   2.426   0.890
 5984TIP3    H117895   2.469   2.459   0.911
 5984TIP3    H217896   2.341   2.408   0.975
 5985TIP3   OH217897   0.366   6.010   5.926
 5985TIP3    H117898   0.433   6.038   5.864
 5985TIP3    H217899   0.399   5.929   5.963
 5986TIP3   OH217900   4.679   1.649   6.042
 5986TIP3    H117901   4.587   1.648   6.016
 5986TIP3    H217902   4.687   1.577   6.105
 5987TIP3   OH217903   7.844   0.591   5.985
 5987TIP3    H117904   7.909   0.564   5.920
 5987TIP3    H217905   7.790   0.514   5.999
 5988TIP3   OH217906   4.922   3.797   1.979
 5988TIP3    H117907   4.942   3.854   2.053
 5988TIP3    H217908   4.882   3.854   1.914
 5989TIP3   OH217909   6.777   7.501   2.567
 5989TIP3    H117910   6.836   7.510   2.642
 5989TIP3    H217911   6.775   7.588   2.528
 5990TIP3   OH217912   7.715   2.317   2.600
 5990TIP3    H117913   7.810   2.309   2.613
 5990TIP3    H217914   7.695   2.407   2.625
 5991TIP3   OH217915   6.161   6.822   1.774
 5991TIP3    H117916   6.250   6.844   1.799
 5991TIP3    H217917   6.169   6.773   1.692
 5992TIP3   OH217918   4.631   3.530   1.084
 5992TIP3    H117919   4.568   3.518   1.155
 5992TIP3    H217920   4.700   3.585   1.121
 5993TIP3   OH217921   1.175   4.944   6.541
 5993TIP3    H117922   1.248   4.887   6.564
 5993TIP3    H217923   1.214   5.014   6.490
 5994TIP3   OH217924   0.491   5.836   4.295
 5994TIP3    H117925   0.439   5.816   4.373
 5994TIP3    H217926   0.432   5.819   4.221
 5995TIP3   OH217927   2.487   1.622   5.096
 5995TIP3    H117928   2.447   1.547   5.139
 5995TIP3    H217929   2.530   1.671   5.166
 5996TIP3   OH217930   0.179   6.606   6.110
 5996TIP3    H117931   0.246   6.599   6.041
 5996TIP3    H217932   0.170   6.517   6.144
 5997TIP3   OH217933   2.052   1.474   1.662
 5997TIP3    H117934   1.970   1.444   1.700
 5997TIP3    H217935   2.119   1.442   1.721
 5998TIP3   OH217936   1.082   2.816   3.922
 5998TIP3    H117937   1.021   2.825   3.848
 5998TIP3    H217938   1.138   2.893   3.916
 5999TIP3   OH217939   6.077   4.561   4.827
 5999TIP3    H117940   5.993   4.591   4.795
 5999TIP3    H217941   6.140   4.624   4.792
 6000TIP3   OH217942   7.315   4.731   1.713
 6000TIP3    H117943   7.331   4.647   1.758
 6000TIP3    H217944   7.220   4.744   1.722
 6001TIP3   OH217945   3.037   0.279   6.418
 6001TIP3    H117946   3.131   0.287   6.404
 6001TIP3    H217947   3.026   0.192   6.457
 6002TIP3   OH217948   0.875   6.144   4.786
 6002TIP3    H117949   0.905   6.075   4.726
 6002TIP3    H217950   0.939   6.142   4.857
 6003TIP3   OH217951   1.711   5.738   1.374
 6003TIP3    H117952   1.643   5.671   1.380
 6003TIP3    H217953   1.791   5.689   1.354
 6004TIP3   OH217954   6.614   5.083   3.498
 6004TIP3    H117955   6.533   5.074   3.447
 6004TIP3    H217956   6.681   5.042   3.443
 6005TIP3   OH217957   1.796   5.498   3.765
 6005TIP3    H117958   1.852   5.436   3.812
 6005TIP3    H217959   1.849   5.526   3.690
 6006TIP3   OH217960   7.812   2.710   1.292
 6006TIP3    H117961   7.869   2.780   1.324
 6006TIP3    H217962   7.726   2.751   1.285
 6007TIP3   OH217963   6.513   6.565   0.304
 6007TIP3    H117964   6.467   6.599   0.227
 6007TIP3    H217965   6.588   6.518   0.269
 6008TIP3   OH217966   6.209   2.991   4.033
 6008TIP3    H117967   6.120   3.022   4.051
 6008TIP3    H217968   6.265   3.046   4.088
 6009TIP3   OH217969   3.047   7.141   2.281
 6009TIP3    H117970   3.100   7.061   2.291
 6009TIP3    H217971   3.019   7.140   2.190
 6010TIP3   OH217972   4.977   3.729   3.171
 6010TIP3    H117973   4.992   3.638   3.147
 6010TIP3    H217974   4.956   3.727   3.264
 6011TIP3   OH217975   2.127   4.355   2.784
 6011TIP3    H117976   2.097   4.289   2.845
 6011TIP3    H217977   2.222   4.343   2.778
 6012TIP3   OH217978   6.247   7.770   4.686
 6012TIP3    H117979   6.212   7.845   4.734
 6012TIP3    H217980   6.342   7.777   4.698
 6013TIP3   OH217981   2.688   4.259   1.131
 6013TIP3    H117982   2.721   4.336   1.085
 6013TIP3    H217983   2.593   4.273   1.136
 6014TIP3   OH217984   6.163   3.856   0.364
 6014TIP3    H117985   6.119   3.862   0.278
 6014TIP3    H217986   6.101   3.807   0.418
 6015TIP3   OH217987   6.047   1.431   2.867
 6015TIP3    H117988   6.051   1.339   2.843
 6015TIP3    H217989   5.993   1.432   2.947
 6016TIP3   OH217990   3.349   1.408   3.724
 6016TIP3    H117991   3.374   1.448   3.640
 6016TIP3    H217992   3.429   1.411   3.776
 6017TIP3   OH217993   6.579   0.139   1.094
 6017TIP3    H117994   6.638   0.099   1.030
 6017TIP3    H217995   6.520   0.068   1.119
 6018TIP3   OH217996   0.486   5.122   4.513
 6018TIP3    H117997   0.550   5.114   4.442
 6018TIP3    H217998   0.505   5.048   4.570
 6019TIP3   OH217999   3.728   1.616   5.267
 6019TIP3    H118000   3.751   1.708   5.282
 6019TIP3    H218001   3.714   1.580   5.354
 6020TIP3   OH218002   0.105   5.083   1.919
 6020TIP3    H118003   0.065   5.143   1.856
 6020TIP3    H218004   0.040   5.015   1.932
 6021TIP3   OH218005   4.833   4.664   4.924
 6021TIP3    H118006   4.914   4.660   4.974
 6021TIP3    H218007   4.860   4.694   4.837
 6022TIP3   OH218008   5.033   5.562   5.678
 6022TIP3    H118009   5.098   5.609   5.730
 6022TIP3    H218010   4.952   5.569   5.729
 6023TIP3   OH218011   6.028   4.426   1.695
 6023TIP3    H118012   6.037   4.413   1.601
 6023TIP3    H218013   6.061   4.346   1.734
 6024TIP3   OH218014   8.038   5.110   4.636
 6024TIP3    H118015   7.978   5.112   4.562
 6024TIP3    H218016   8.121   5.080   4.599
 6025TIP3   OH218017   1.607   5.775   2.016
 6025TIP3    H118018   1.542   5.845   2.006
 6025TIP3    H218019   1.556   5.700   2.048
 6026TIP3   OH218020   0.100   7.755   0.351
 6026TIP3    H118021   0.052   7.795   0.423
 6026TIP3    H218022   0.190   7.784   0.362
 6027TIP3   OH218023   3.074   7.554   3.718
 6027TIP3    H118024   3.035   7.491   3.657
 6027TIP3    H218025   3.150   7.588   3.671
 6028TIP3   OH218026   2.987   2.621   6.554
 6028TIP3    H118027   3.028   2.687   6.498
 6028TIP3    H218028   3.030   2.631   6.639
 6029TIP3   OH218029   5.273   3.078   1.612
 6029TIP3    H118030   5.253   3.130   1.690
 6029TIP3    H218031   5.364   3.053   1.623
 6030TIP3   OH218032   2.672   4.859   6.081
 6030TIP3    H118033   2.591   4.846   6.130
 6030TIP3    H218034   2.648   4.847   5.989
 6031TIP3   OH218035   3.862   3.642   0.427
 6031TIP3    H118036   3.875   3.693   0.507
 6031TIP3    H218037   3.796   3.692   0.378
 6032TIP3   OH218038   6.752   1.086   0.166
 6032TIP3    H118039   6.812   1.049   0.101
 6032TIP3    H218040   6.714   1.163   0.123
 6033TIP3   OH218041   1.334   5.795   2.815
 6033TIP3    H118042   1.350   5.712   2.770
 6033TIP3    H218043   1.419   5.818   2.854
 6034TIP3   OH218044   2.084   6.170   1.230
 6034TIP3    H118045   2.061   6.246   1.283
 6034TIP3    H218046   2.031   6.178   1.151
 6035TIP3   OH218047   3.327   6.587   3.012
 6035TIP3    H118048   3.397   6.650   2.994
 6035TIP3    H218049   3.287   6.619   3.093
 6036TIP3   OH218050   4.694   2.079   1.194
 6036TIP3    H118051   4.614   2.074   1.142
 6036TIP3    H218052   4.763   2.050   1.133
 6037TIP3   OH218053   3.130   6.846   5.030
 6037TIP3    H118054   3.206   6.812   4.983
 6037TIP3    H218055   3.152   6.834   5.122
 6038TIP3   OH218056   4.116   6.434   5.901
 6038TIP3    H118057   4.133   6.513   5.953
 6038TIP3    H218058   4.100   6.366   5.966
 6039TIP3   OH218059   1.119   5.750   1.164
 6039TIP3    H118060   1.095   5.720   1.076
 6039TIP3    H218061   1.157   5.837   1.150
 6040TIP3   OH218062   6.242   0.561   3.357
 6040TIP3    H118063   6.313   0.609   3.315
 6040TIP3    H218064   6.267   0.469   3.351
 6041TIP3   OH218065   1.253   3.513   4.929
 6041TIP3    H118066   1.169   3.491   4.970
 6041TIP3    H218067   1.313   3.447   4.962
 6042TIP3   OH218068   0.646   1.278   0.488
 6042TIP3    H118069   0.657   1.194   0.443
 6042TIP3    H218070   0.577   1.261   0.553
 6043TIP3   OH218071   1.600   5.694   6.213
 6043TIP3    H118072   1.559   5.776   6.242
 6043TIP3    H218073   1.690   5.719   6.192
 6044TIP3   OH218074   6.656   5.046   6.271
 6044TIP3    H118075   6.605   4.965   6.272
 6044TIP3    H218076   6.638   5.084   6.185
 6045TIP3   OH218077   5.635   4.014   3.889
 6045TIP3    H118078   5.646   3.923   3.864
 6045TIP3    H218079   5.547   4.037   3.860
 6046TIP3   OH218080   5.486   2.338   4.310
 6046TIP3    H118081   5.537   2.357   4.389
 6046TIP3    H218082   5.540   2.274   4.263
 6047TIP3   OH218083   5.274   0.964   0.323
 6047TIP3    H118084   5.284   1.059   0.318
 6047TIP3    H218085   5.364   0.931   0.327
 6048TIP3   OH218086   7.805   3.517   5.134
 6048TIP3    H118087   7.825   3.513   5.041
 6048TIP3    H218088   7.890   3.529   5.177
 6049TIP3   OH218089   4.039   6.089   5.095
 6049TIP3    H118090   4.015   6.153   5.028
 6049TIP3    H218091   4.135   6.089   5.095
 6050TIP3   OH218092   1.073   4.348   5.286
 6050TIP3    H118093   1.034   4.427   5.250
 6050TIP3    H218094   1.128   4.380   5.358
 6051TIP3   OH218095   1.121   5.110   2.828
 6051TIP3    H118096   1.204   5.138   2.790
 6051TIP3    H218097   1.142   5.032   2.879
 6052TIP3   OH218098   4.436   1.216   0.120
 6052TIP3    H118099   4.372   1.219   0.191
 6052TIP3    H218100   4.385   1.190   0.043
 6053TIP3   OH218101   0.042   2.608   3.814
 6053TIP3    H118102   0.031   2.521   3.852
 6053TIP3    H218103   0.130   2.608   3.777
 6054TIP3   OH218104   6.392   3.803   6.652
 6054TIP3    H118105   6.298   3.818   6.638
 6054TIP3    H218106   6.413   3.855   6.729
 6055TIP3   OH218107   1.428   3.273   5.854
 6055TIP3    H118108   1.489   3.288   5.926
 6055TIP3    H218109   1.352   3.327   5.876
 6056TIP3   OH218110   1.331   5.244   1.351
 6056TIP3    H118111   1.317   5.309   1.420
 6056TIP3    H218112   1.242   5.213   1.330
 6057TIP3   OH218113   8.284   1.944   5.268
 6057TIP3    H118114   8.300   1.962   5.176
 6057TIP3    H218115   8.242   2.023   5.301
 6058TIP3   OH218116   2.803   3.838   2.828
 6058TIP3    H118117   2.817   3.857   2.921
 6058TIP3    H218118   2.714   3.804   2.823
 6059TIP3   OH218119   3.746   0.097   2.894
 6059TIP3    H118120   3.710   0.038   2.960
 6059TIP3    H218121   3.828   0.128   2.932
 6060TIP3   OH218122   5.503   6.204   4.774
 6060TIP3    H118123   5.408   6.198   4.768
 6060TIP3    H218124   5.535   6.145   4.706
 6061TIP3   OH218125   7.819   0.147   0.829
 6061TIP3    H118126   7.736   0.127   0.784
 6061TIP3    H218127   7.873   0.187   0.761
 6062TIP3   OH218128   5.197   0.435   1.418
 6062TIP3    H118129   5.208   0.446   1.512
 6062TIP3    H218130   5.224   0.519   1.380
 6063TIP3   OH218131   5.429   1.289   1.148
 6063TIP3    H118132   5.457   1.235   1.222
 6063TIP3    H218133   5.509   1.303   1.098
 6064TIP3   OH218134   6.315   7.191   1.708
 6064TIP3    H118135   6.268   7.217   1.628
 6064TIP3    H218136   6.402   7.228   1.697
 6065TIP3   OH218137   1.298   4.383   1.201
 6065TIP3    H118138   1.221   4.351   1.248
 6065TIP3    H218139   1.273   4.383   1.109
 6066TIP3   OH218140   6.413   1.727   1.004
 6066TIP3    H118141   6.370   1.725   1.090
 6066TIP3    H218142   6.409   1.637   0.973
 6067TIP3   OH218143   7.471   1.216   5.963
 6067TIP3    H118144   7.511   1.130   5.953
 6067TIP3    H218145   7.473   1.233   6.057
 6068TIP3   OH218146   7.859   4.751   4.060
 6068TIP3    H118147   7.950   4.781   4.055
 6068TIP3    H218148   7.826   4.758   3.970
 6069TIP3   OH218149   1.283   2.075   4.439
 6069TIP3    H118150   1.258   1.999   4.387
 6069TIP3    H218151   1.318   2.039   4.520
 6070TIP3   OH218152   1.451   1.496   3.795
 6070TIP3    H118153   1.499   1.414   3.811
 6070TIP3    H218154   1.519   1.557   3.766
 6071TIP3   OH218155   6.973   0.710   0.150
 6071TIP3    H118156   6.978   0.795   0.106
 6071TIP3    H218157   6.957   0.732   0.242
 6072TIP3   OH218158   6.309   4.075   1.581
 6072TIP3    H118159   6.277   4.053   1.493
 6072TIP3    H218160   6.349   4.161   1.570
 6073TIP3   OH218161   6.465   2.949   0.731
 6073TIP3    H118162   6.446   3.042   0.739
 6073TIP3    H218163   6.545   2.945   0.680
 6074TIP3   OH218164   1.819   0.620   5.483
 6074TIP3    H118165   1.873   0.632   5.561
 6074TIP3    H218166   1.788   0.530   5.488
 6075TIP3   OH218167   6.387   2.141   4.442
 6075TIP3    H118168   6.392   2.051   4.411
 6075TIP3    H218169   6.406   2.136   4.535
 6076TIP3   OH218170   7.524   1.537   4.095
 6076TIP3    H118171   7.594   1.525   4.031
 6076TIP3    H218172   7.455   1.476   4.066
 6077TIP3   OH218173   5.898   3.683   1.782
 6077TIP3    H118174   5.925   3.611   1.725
 6077TIP3    H218175   5.809   3.662   1.808
 6078TIP3   OH218176   2.130   7.038   6.269
 6078TIP3    H118177   2.107   6.947   6.249
 6078TIP3    H218178   2.119   7.046   6.363
 6079TIP3   OH218179   5.977   2.787   4.249
 6079TIP3    H118180   5.932   2.740   4.178
 6079TIP3    H218181   5.949   2.743   4.329
 6080TIP3   OH218182   0.308   5.312   2.428
 6080TIP3    H118183   0.365   5.387   2.414
 6080TIP3    H218184   0.329   5.252   2.357
 6081TIP3   OH218185   2.880   4.141   4.015
 6081TIP3    H118186   2.935   4.205   3.971
 6081TIP3    H218187   2.920   4.056   3.995
 6082TIP3   OH218188   5.155   2.025   4.445
 6082TIP3    H118189   5.172   2.104   4.394
 6082TIP3    H218190   5.215   1.960   4.407
 6083TIP3   OH218191   1.997   1.138   2.002
 6083TIP3    H118192   2.052   1.060   2.011
 6083TIP3    H218193   1.913   1.112   2.039
 6084TIP3   OH218194   5.236   6.271   1.707
 6084TIP3    H118195   5.249   6.364   1.688
 6084TIP3    H218196   5.304   6.226   1.658
 6085TIP3   OH218197   5.103   1.572   1.250
 6085TIP3    H118198   5.139   1.592   1.163
 6085TIP3    H218199   5.113   1.478   1.259
 6086TIP3   OH218200   1.272   2.803   3.637
 6086TIP3    H118201   1.366   2.785   3.638
 6086TIP3    H218202   1.233   2.726   3.677
 6087TIP3   OH218203   6.073   5.674   1.976
 6087TIP3    H118204   6.034   5.714   1.898
 6087TIP3    H218205   6.012   5.605   2.001
 6088TIP3   OH218206   5.932   2.355   6.726
 6088TIP3    H118207   5.856   2.336   6.671
 6088TIP3    H218208   6.007   2.353   6.666
 6089TIP3   OH218209   6.047   4.488   0.127
 6089TIP3    H118210   5.956   4.459   0.130
 6089TIP3    H218211   6.049   4.569   0.177
 6090TIP3   OH218212   6.175   0.085   2.840
 6090TIP3    H118213   6.142   0.007   2.796
 6090TIP3    H218214   6.134   0.082   2.927
 6091TIP3   OH218215   4.724   7.652   5.903
 6091TIP3    H118216   4.811   7.693   5.902
 6091TIP3    H218217   4.685   7.681   5.986
 6092TIP3   OH218218   2.700   4.135   3.795
 6092TIP3    H118219   2.757   4.128   3.872
 6092TIP3    H218220   2.758   4.165   3.725
 6093TIP3   OH218221   5.068   0.551   5.195
 6093TIP3    H118222   5.093   0.627   5.144
 6093TIP3    H218223   5.020   0.495   5.134
 6094TIP3   OH218224   5.392   5.300   1.990
 6094TIP3    H118225   5.336   5.263   1.923
 6094TIP3    H218226   5.461   5.346   1.941
 6095TIP3   OH218227   1.263   2.247   2.300
 6095TIP3    H118228   1.343   2.195   2.285
 6095TIP3    H218229   1.236   2.274   2.212
 6096TIP3   OH218230   0.741   4.308   5.825
 6096TIP3    H118231   0.715   4.302   5.733
 6096TIP3    H218232   0.749   4.402   5.842
 6097TIP3   OH218233   2.485   1.404   6.353
 6097TIP3    H118234   2.455   1.336   6.414
 6097TIP3    H218235   2.580   1.397   6.354
 6098TIP3   OH218236   6.998   6.263   0.564
 6098TIP3    H118237   6.961   6.191   0.513
 6098TIP3    H218238   6.922   6.314   0.592
 6099TIP3   OH218239   1.534   0.255   6.096
 6099TIP3    H118240   1.595   0.314   6.052
 6099TIP3    H218241   1.590   0.195   6.146
 6100TIP3   OH218242   1.889   0.927   3.291
 6100TIP3    H118243   1.865   0.834   3.287
 6100TIP3    H218244   1.981   0.929   3.267
 6101TIP3   OH218245   4.127   4.270   0.658
 6101TIP3    H118246   4.144   4.361   0.636
 6101TIP3    H218247   4.203   4.222   0.624
 6102TIP3   OH218248   0.522   5.533   2.391
 6102TIP3    H118249   0.541   5.611   2.443
 6102TIP3    H218250   0.608   5.502   2.363
 6103TIP3   OH218251   3.703   6.622   4.647
 6103TIP3    H118252   3.618   6.585   4.670
 6103TIP3    H218253   3.728   6.579   4.566
 6104TIP3   OH218254   6.266   7.319   2.797
 6104TIP3    H118255   6.195   7.255   2.810
 6104TIP3    H218256   6.334   7.291   2.859
 6105TIP3   OH218257   5.662   1.647   0.831
 6105TIP3    H118258   5.686   1.728   0.878
 6105TIP3    H218259   5.591   1.674   0.773
 6106TIP3   OH218260   6.197   5.079   5.561
 6106TIP3    H118261   6.106   5.084   5.531
 6106TIP3    H218262   6.193   5.110   5.652
 6107TIP3   OH218263   1.010   7.453   4.316
 6107TIP3    H118264   1.049   7.369   4.340
 6107TIP3    H218265   1.069   7.518   4.354
 6108TIP3   OH218266   4.970   6.957   5.119
 6108TIP3    H118267   5.003   6.871   5.093
 6108TIP3    H218268   5.049   7.012   5.120
 6109TIP3   OH218269   4.035   0.231   4.828
 6109TIP3    H118270   4.092   0.306   4.847
 6109TIP3    H218271   4.084   0.155   4.858
 6110TIP3   OH218272   3.117   7.612   6.101
 6110TIP3    H118273   3.181   7.679   6.080
 6110TIP3    H218274   3.055   7.655   6.159
 6111TIP3   OH218275   5.632   6.074   3.771
 6111TIP3    H118276   5.639   5.984   3.804
 6111TIP3    H218277   5.666   6.128   3.843
 6112TIP3   OH218278   6.148   1.063   4.105
 6112TIP3    H118279   6.138   0.977   4.146
 6112TIP3    H218280   6.066   1.108   4.123
 6113TIP3   OH218281   1.127   5.182   3.220
 6113TIP3    H118282   1.092   5.217   3.302
 6113TIP3    H218283   1.096   5.243   3.153
 6114TIP3   OH218284   0.970   7.501   2.036
 6114TIP3    H118285   0.927   7.424   2.075
 6114TIP3    H218286   1.057   7.502   2.076
 6115TIP3   OH218287   6.543   0.828   1.225
 6115TIP3    H118288   6.588   0.873   1.154
 6115TIP3    H218289   6.526   0.740   1.191
 6116TIP3   OH218290   2.188   4.980   6.799
 6116TIP3    H118291   2.251   4.918   6.762
 6116TIP3    H218292   2.159   5.032   6.724
 6117TIP3   OH218293   6.818   7.615   4.234
 6117TIP3    H118294   6.909   7.596   4.256
 6117TIP3    H218295   6.815   7.711   4.224
 6118TIP3   OH218296   5.806   7.455   1.338
 6118TIP3    H118297   5.899   7.480   1.337
 6118TIP3    H218298   5.804   7.371   1.292
 6119TIP3   OH218299   6.541   0.466   5.980
 6119TIP3    H118300   6.498   0.409   6.044
 6119TIP3    H218301   6.509   0.435   5.895
 6120TIP3   OH218302   4.190   2.805   1.856
 6120TIP3    H118303   4.175   2.720   1.815
 6120TIP3    H218304   4.163   2.868   1.789
 6121TIP3   OH218305   7.835   1.810   0.287
 6121TIP3    H118306   7.773   1.813   0.360
 6121TIP3    H218307   7.883   1.892   0.294
 6122TIP3   OH218308   4.014   1.704   0.347
 6122TIP3    H118309   3.939   1.672   0.297
 6122TIP3    H218310   4.052   1.773   0.292
 6123TIP3   OH218311   2.477   5.162   2.554
 6123TIP3    H118312   2.539   5.110   2.502
 6123TIP3    H218313   2.396   5.161   2.503
 6124TIP3   OH218314   5.032   5.773   2.180
 6124TIP3    H118315   5.116   5.816   2.195
 6124TIP3    H218316   5.010   5.733   2.264
 6125TIP3   OH218317   6.552   3.773   3.207
 6125TIP3    H118318   6.581   3.740   3.121
 6125TIP3    H218319   6.457   3.781   3.198
 6126TIP3   OH218320   1.801   1.614   2.961
 6126TIP3    H118321   1.737   1.656   3.019
 6126TIP3    H218322   1.881   1.664   2.972
 6127TIP3   OH218323   7.319   6.346   3.836
 6127TIP3    H118324   7.344   6.261   3.872
 6127TIP3    H218325   7.359   6.410   3.895
 6128TIP3   OH218326   3.644   3.057   3.833
 6128TIP3    H118327   3.643   3.022   3.744
 6128TIP3    H218328   3.733   3.040   3.864
 6129TIP3   OH218329   0.839   1.818   3.398
 6129TIP3    H118330   0.831   1.738   3.346
 6129TIP3    H218331   0.828   1.889   3.335
 6130TIP3   OH218332   2.467   1.138   0.618
 6130TIP3    H118333   2.454   1.193   0.695
 6130TIP3    H218334   2.431   1.189   0.545
 6131TIP3   OH218335   4.706   2.399   3.716
 6131TIP3    H118336   4.683   2.337   3.648
 6131TIP3    H218337   4.707   2.484   3.672
 6132TIP3   OH218338   6.047   4.515   3.239
 6132TIP3    H118339   5.978   4.451   3.220
 6132TIP3    H218340   6.029   4.542   3.329
 6133TIP3   OH218341   6.212   4.159   1.126
 6133TIP3    H118342   6.161   4.210   1.064
 6133TIP3    H218343   6.303   4.178   1.104
 6134TIP3   OH218344   4.186   7.695   6.141
 6134TIP3    H118345   4.178   7.611   6.097
 6134TIP3    H218346   4.236   7.676   6.220
 6135TIP3   OH218347   0.132   7.207   2.717
 6135TIP3    H118348   0.164   7.229   2.805
 6135TIP3    H218349   0.170   7.275   2.661
 6136TIP3   OH218350   2.001   2.737   2.623
 6136TIP3    H118351   1.979   2.749   2.716
 6136TIP3    H218352   1.968   2.816   2.580
 6137TIP3   OH218353   4.411   4.329   2.914
 6137TIP3    H118354   4.480   4.353   2.977
 6137TIP3    H218355   4.459   4.299   2.837
 6138TIP3   OH218356   4.322   4.882   2.653
 6138TIP3    H118357   4.376   4.875   2.574
 6138TIP3    H218358   4.252   4.942   2.629
 6139TIP3   OH218359   4.650   4.117   5.588
 6139TIP3    H118360   4.603   4.035   5.573
 6139TIP3    H218361   4.741   4.090   5.603
 6140TIP3   OH218362   3.630   5.169   0.791
 6140TIP3    H118363   3.562   5.235   0.780
 6140TIP3    H218364   3.587   5.098   0.839
 6141TIP3   OH218365   2.464   6.775   5.136
 6141TIP3    H118366   2.506   6.689   5.135
 6141TIP3    H218367   2.383   6.763   5.086
 6142TIP3   OH218368   6.332   4.517   3.441
 6142TIP3    H118369   6.346   4.594   3.386
 6142TIP3    H218370   6.240   4.494   3.428
 6143TIP3   OH218371   3.330   0.117   3.731
 6143TIP3    H118372   3.364   0.134   3.644
 6143TIP3    H218373   3.401   0.142   3.790
 6144TIP3   OH218374   4.701   1.439   2.948
 6144TIP3    H118375   4.778   1.443   2.891
 6144TIP3    H218376   4.652   1.363   2.917
 6145TIP3   OH218377   6.170   7.019   6.588
 6145TIP3    H118378   6.154   7.061   6.504
 6145TIP3    H218379   6.195   6.930   6.567
 6146TIP3   OH218380   0.659   4.010   5.051
 6146TIP3    H118381   0.720   4.017   5.124
 6146TIP3    H218382   0.622   3.922   5.059
 6147TIP3   OH218383   7.282   1.715   6.487
 6147TIP3    H118384   7.286   1.651   6.416
 6147TIP3    H218385   7.372   1.746   6.495
 6148TIP3   OH218386   4.136   2.165   3.914
 6148TIP3    H118387   4.182   2.095   3.960
 6148TIP3    H218388   4.178   2.170   3.828
 6149TIP3   OH218389   5.276   6.870   0.332
 6149TIP3    H118390   5.363   6.860   0.295
 6149TIP3    H218391   5.219   6.824   0.270
 6150TIP3   OH218392   5.965   6.736   1.328
 6150TIP3    H118393   5.984   6.772   1.242
 6150TIP3    H218394   5.982   6.643   1.320
 6151TIP3   OH218395   0.890   6.272   2.408
 6151TIP3    H118396   0.815   6.324   2.437
 6151TIP3    H218397   0.964   6.332   2.412
 6152TIP3   OH218398   0.899   3.831   5.626
 6152TIP3    H118399   0.994   3.841   5.637
 6152TIP3    H218400   0.890   3.773   5.550
 6153TIP3   OH218401   3.893   5.831   1.368
 6153TIP3    H118402   3.805   5.819   1.333
 6153TIP3    H218403   3.880   5.872   1.453
 6154TIP3   OH218404   5.774   4.527   1.552
 6154TIP3    H118405   5.759   4.443   1.508
 6154TIP3    H218406   5.846   4.509   1.613
 6155TIP3   OH218407   4.480   5.127   4.162
 6155TIP3    H118408   4.468   5.219   4.185
 6155TIP3    H218409   4.411   5.081   4.211
 6156TIP3   OH218410   2.639   1.458   3.819
 6156TIP3    H118411   2.709   1.502   3.770
 6156TIP3    H218412   2.559   1.502   3.790
 6157TIP3   OH218413   7.758   4.779   5.086
 6157TIP3    H118414   7.758   4.774   4.990
 6157TIP3    H218415   7.807   4.702   5.114
 6158TIP3   OH218416   4.928   2.004   3.849
 6158TIP3    H118417   4.899   2.094   3.833
 6158TIP3    H218418   4.915   1.959   3.766
 6159TIP3   OH218419   6.348   0.267   4.923
 6159TIP3    H118420   6.399   0.242   5.001
 6159TIP3    H218421   6.259   0.236   4.942
 6160TIP3   OH218422   6.755   7.523   5.300
 6160TIP3    H118423   6.771   7.562   5.386
 6160TIP3    H218424   6.682   7.462   5.315
 6161TIP3   OH218425   6.692   6.270   2.638
 6161TIP3    H118426   6.621   6.327   2.609
 6161TIP3    H218427   6.684   6.191   2.584
 6162TIP3   OH218428   7.553   3.229   0.619
 6162TIP3    H118429   7.570   3.240   0.713
 6162TIP3    H218430   7.578   3.313   0.581
 6163TIP3   OH218431   6.267   0.070   0.190
 6163TIP3    H118432   6.200   0.041   0.128
 6163TIP3    H218433   6.220   0.123   0.254
 6164TIP3   OH218434   6.481   6.894   4.946
 6164TIP3    H118435   6.414   6.829   4.926
 6164TIP3    H218436   6.439   6.955   5.006
 6165TIP3   OH218437   7.691   1.577   1.997
 6165TIP3    H118438   7.603   1.539   1.990
 6165TIP3    H218439   7.723   1.579   1.907
 6166TIP3   OH218440   6.593   1.662   4.912
 6166TIP3    H118441   6.605   1.693   5.002
 6166TIP3    H218442   6.502   1.682   4.892
 6167TIP3   OH218443   0.388   2.989   0.719
 6167TIP3    H118444   0.407   3.076   0.684
 6167TIP3    H218445   0.456   2.933   0.682
 6168TIP3   OH218446   3.941   6.559   3.789
 6168TIP3    H118447   3.951   6.531   3.698
 6168TIP3    H218448   3.963   6.652   3.787
 6169TIP3   OH218449   0.068   1.489   6.116
 6169TIP3    H118450   0.126   1.441   6.056
 6169TIP3    H218451   0.032   1.422   6.174
 6170TIP3   OH218452   6.649   0.622   5.023
 6170TIP3    H118453   6.567   0.599   5.066
 6170TIP3    H218454   6.717   0.588   5.081
 6171TIP3   OH218455   1.078   2.831   5.947
 6171TIP3    H118456   1.071   2.738   5.969
 6171TIP3    H218457   1.160   2.838   5.898
 6172TIP3   OH218458   7.048   7.167   2.464
 6172TIP3    H118459   7.135   7.187   2.430
 6172TIP3    H218460   6.995   7.245   2.442
 6173TIP3   OH218461   2.829   6.352   5.989
 6173TIP3    H118462   2.863   6.435   6.024
 6173TIP3    H218463   2.908   6.304   5.964
 6174TIP3   OH218464   2.927   2.416   6.019
 6174TIP3    H118465   2.850   2.409   6.075
 6174TIP3    H218466   2.971   2.495   6.048
 6175TIP3   OH218467   3.042   1.147   3.655
 6175TIP3    H118468   3.031   1.203   3.732
 6175TIP3    H218469   3.086   1.203   3.591
 6176TIP3   OH218470   3.931   6.822   4.504
 6176TIP3    H118471   3.993   6.749   4.492
 6176TIP3    H218472   3.879   6.797   4.580
 6177TIP3   OH218473   7.085   6.845   5.736
 6177TIP3    H118474   7.046   6.896   5.665
 6177TIP3    H218475   7.179   6.844   5.715
 6178TIP3   OH218476   4.955   3.561   0.073
 6178TIP3    H118477   4.988   3.644   0.039
 6178TIP3    H218478   4.914   3.519  -0.003
 6179TIP3   OH218479   2.809   6.485   4.751
 6179TIP3    H118480   2.883   6.531   4.712
 6179TIP3    H218481   2.781   6.541   4.824
 6180TIP3   OH218482   6.171   5.931   1.377
 6180TIP3    H118483   6.109   5.868   1.414
 6180TIP3    H218484   6.255   5.885   1.377
 6181TIP3   OH218485   5.800   1.177   5.895
 6181TIP3    H118486   5.781   1.124   5.818
 6181TIP3    H218487   5.792   1.267   5.865
 6182TIP3   OH218488   3.266   4.657   3.428
 6182TIP3    H118489   3.203   4.643   3.499
 6182TIP3    H218490   3.352   4.652   3.472
 6183TIP3   OH218491   3.914   4.662   6.345
 6183TIP3    H118492   3.853   4.732   6.321
 6183TIP3    H218493   3.863   4.605   6.403
 6184TIP3   OH218494   2.340   0.138   3.397
 6184TIP3    H118495   2.367   0.227   3.372
 6184TIP3    H218496   2.293   0.150   3.480
 6185TIP3   OH218497   3.270   5.575   6.548
 6185TIP3    H118498   3.218   5.624   6.612
 6185TIP3    H218499   3.330   5.522   6.602
 6186TIP3   OH218500   4.235   5.066   5.028
 6186TIP3    H118501   4.141   5.075   5.015
 6186TIP3    H218502   4.246   4.981   5.070
 6187TIP3   OH218503   2.392   4.382   2.736
 6187TIP3    H118504   2.459   4.314   2.744
 6187TIP3    H218505   2.414   4.447   2.803
 6188TIP3   OH218506   7.375   2.379   5.538
 6188TIP3    H118507   7.345   2.460   5.578
 6188TIP3    H218508   7.426   2.407   5.462
 6189TIP3   OH218509   4.444   5.849   3.260
 6189TIP3    H118510   4.532   5.811   3.262
 6189TIP3    H218511   4.453   5.926   3.204
 6190TIP3   OH218512   5.092   7.621   6.322
 6190TIP3    H118513   5.097   7.594   6.231
 6190TIP3    H218514   5.183   7.625   6.352
 6191TIP3   OH218515   5.588   0.710   3.800
 6191TIP3    H118516   5.518   0.646   3.788
 6191TIP3    H218517   5.640   0.676   3.872
 6192TIP3   OH218518   3.236   4.285   4.572
 6192TIP3    H118519   3.277   4.215   4.521
 6192TIP3    H218520   3.150   4.249   4.596
 6193TIP3   OH218521   7.872   3.957   0.858
 6193TIP3    H118522   7.922   4.033   0.828
 6193TIP3    H218523   7.781   3.989   0.863
 6194TIP3   OH218524   4.859   7.760   5.498
 6194TIP3    H118525   4.821   7.821   5.435
 6194TIP3    H218526   4.785   7.709   5.529
 6195TIP3   OH218527   0.248   3.142   3.778
 6195TIP3    H118528   0.227   3.082   3.707
 6195TIP3    H218529   0.309   3.093   3.833
 6196TIP3   OH218530   6.340   1.797   0.215
 6196TIP3    H118531   6.318   1.763   0.128
 6196TIP3    H218532   6.427   1.762   0.233
 6197TIP3   OH218533   4.430   1.345   2.144
 6197TIP3    H118534   4.462   1.389   2.222
 6197TIP3    H218535   4.508   1.327   2.093
 6198TIP3   OH218536   1.723   0.885   1.808
 6198TIP3    H118537   1.694   0.846   1.891
 6198TIP3    H218538   1.740   0.810   1.751
 6199TIP3   OH218539   2.343   4.461   5.857
 6199TIP3    H118540   2.288   4.486   5.783
 6199TIP3    H218541   2.334   4.531   5.920
 6200TIP3   OH218542   2.700   2.446   6.698
 6200TIP3    H118543   2.704   2.361   6.654
 6200TIP3    H218544   2.698   2.509   6.626
 6201TIP3   OH218545   3.183   5.253   0.652
 6201TIP3    H118546   3.127   5.273   0.578
 6201TIP3    H218547   3.164   5.321   0.717
 6202TIP3   OH218548   3.872   0.889   5.580
 6202TIP3    H118549   3.899   0.921   5.666
 6202TIP3    H218550   3.779   0.868   5.590
 6203TIP3   OH218551   3.319   7.061   3.746
 6203TIP3    H118552   3.370   7.136   3.776
 6203TIP3    H218553   3.255   7.045   3.816
 6204TIP3   OH218554   6.929   2.133   6.272
 6204TIP3    H118555   6.967   2.197   6.331
 6204TIP3    H218556   7.001   2.074   6.250
 6205TIP3   OH218557   3.719   3.239   4.854
 6205TIP3    H118558   3.632   3.230   4.815
 6205TIP3    H218559   3.757   3.152   4.850
 6206TIP3   OH218560   4.823   1.958   2.046
 6206TIP3    H118561   4.729   1.954   2.065
 6206TIP3    H218562   4.838   1.886   1.985
 6207TIP3   OH218563   3.020   6.879   1.418
 6207TIP3    H118564   3.069   6.797   1.419
 6207TIP3    H218565   2.970   6.878   1.500
 6208TIP3   OH218566   7.549   3.835   2.388
 6208TIP3    H118567   7.575   3.926   2.371
 6208TIP3    H218568   7.619   3.800   2.443
 6209TIP3   OH218569   7.764   0.445   3.634
 6209TIP3    H118570   7.766   0.514   3.699
 6209TIP3    H218571   7.811   0.372   3.674
 6210TIP3   OH218572   2.823   3.160   1.192
 6210TIP3    H118573   2.786   3.246   1.170
 6210TIP3    H218574   2.775   3.098   1.137
 6211TIP3   OH218575   6.271   4.414   4.201
 6211TIP3    H118576   6.325   4.454   4.269
 6211TIP3    H218577   6.245   4.330   4.238
 6212TIP3   OH218578   0.592   5.973   3.562
 6212TIP3    H118579   0.584   6.067   3.547
 6212TIP3    H218580   0.686   5.960   3.576
 6213TIP3   OH218581   0.112   4.836   1.368
 6213TIP3    H118582   0.130   4.928   1.387
 6213TIP3    H218583   0.156   4.788   1.438
 6214TIP3   OH218584   3.875   5.863   3.271
 6214TIP3    H118585   3.864   5.786   3.326
 6214TIP3    H218586   3.962   5.854   3.232
 6215TIP3   OH218587   5.873   0.264   6.102
 6215TIP3    H118588   5.958   0.235   6.135
 6215TIP3    H218589   5.867   0.356   6.126
 6216TIP3   OH218590   4.395   2.196   5.540
 6216TIP3    H118591   4.378   2.103   5.527
 6216TIP3    H218592   4.309   2.237   5.538
 6217TIP3   OH218593   4.433   7.699   1.431
 6217TIP3    H118594   4.484   7.658   1.501
 6217TIP3    H218595   4.404   7.783   1.468
 6218TIP3   OH218596   0.918   4.254   2.306
 6218TIP3    H118597   0.866   4.203   2.368
 6218TIP3    H218598   0.856   4.317   2.269
 6219TIP3   OH218599   1.750   4.180   5.487
 6219TIP3    H118600   1.818   4.135   5.538
 6219TIP3    H218601   1.718   4.248   5.546
 6220TIP3   OH218602   6.619   7.477   0.939
 6220TIP3    H118603   6.683   7.457   0.871
 6220TIP3    H218604   6.535   7.456   0.899
 6221TIP3   OH218605   5.141   3.938   3.062
 6221TIP3    H118606   5.075   3.871   3.044
 6221TIP3    H218607   5.136   3.998   2.988
 6222TIP3   OH218608   6.686   0.667   3.510
 6222TIP3    H118609   6.709   0.578   3.538
 6222TIP3    H218610   6.642   0.705   3.586
 6223TIP3   OH218611   6.600   2.439   6.714
 6223TIP3    H118612   6.661   2.482   6.774
 6223TIP3    H218613   6.637   2.352   6.701
 6224TIP3   OH218614   8.067   5.633   0.253
 6224TIP3    H118615   8.050   5.541   0.235
 6224TIP3    H218616   8.113   5.633   0.337
 6225TIP3   OH218617   0.566   3.555   1.793
 6225TIP3    H118618   0.648   3.603   1.781
 6225TIP3    H218619   0.539   3.577   1.883
 6226TIP3   OH218620   2.546   3.403   5.851
 6226TIP3    H118621   2.566   3.312   5.831
 6226TIP3    H218622   2.452   3.412   5.832
 6227TIP3   OH218623   7.550   1.532   3.271
 6227TIP3    H118624   7.626   1.574   3.229
 6227TIP3    H218625   7.540   1.450   3.223
 6228TIP3   OH218626   4.611   2.203   4.768
 6228TIP3    H118627   4.691   2.204   4.820
 6228TIP3    H218628   4.555   2.137   4.809
 6229TIP3   OH218629   2.721   3.925   6.783
 6229TIP3    H118630   2.727   4.020   6.782
 6229TIP3    H218631   2.636   3.906   6.745
 6230TIP3   OH218632   0.617   6.393   4.157
 6230TIP3    H118633   0.647   6.303   4.170
 6230TIP3    H218634   0.587   6.395   4.066
 6231TIP3   OH218635   6.134   6.834   2.349
 6231TIP3    H118636   6.052   6.787   2.340
 6231TIP3    H218637   6.166   6.847   2.260
 6232TIP3   OH218638   2.664   3.547   6.067
 6232TIP3    H118639   2.758   3.550   6.054
 6232TIP3    H218640   2.630   3.502   5.990
 6233TIP3   OH218641   6.343   1.647   0.665
 6233TIP3    H118642   6.368   1.737   0.686
 6233TIP3    H218643   6.352   1.641   0.570
 6234TIP3   OH218644   8.214   2.050   5.810
 6234TIP3    H118645   8.195   2.080   5.898
 6234TIP3    H218646   8.129   2.051   5.765
 6235TIP3   OH218647   7.550   6.011   2.984
 6235TIP3    H118648   7.491   6.016   2.909
 6235TIP3    H218649   7.622   5.955   2.954
 6236TIP3   OH218650   6.898   3.174   2.508
 6236TIP3    H118651   6.973   3.211   2.555
 6236TIP3    H218652   6.912   3.199   2.417
 6237TIP3   OH218653   7.616   5.028   3.261
 6237TIP3    H118654   7.551   5.017   3.192
 6237TIP3    H218655   7.566   5.013   3.342
 6238TIP3   OH218656   7.930   0.072   1.698
 6238TIP3    H118657   7.877   0.134   1.749
 6238TIP3    H218658   7.949   0.118   1.616
 6239TIP3   OH218659   2.017   5.956   2.348
 6239TIP3    H118660   1.946   5.932   2.288
 6239TIP3    H218661   2.070   5.876   2.355
 6240TIP3   OH218662   1.400   2.383   0.161
 6240TIP3    H118663   1.467   2.368   0.227
 6240TIP3    H218664   1.324   2.334   0.193
 6241TIP3   OH218665   6.104   2.994   2.072
 6241TIP3    H118666   6.106   3.087   2.053
 6241TIP3    H218667   6.141   2.953   1.993
 6242TIP3   OH218668   6.512   6.025   0.701
 6242TIP3    H118669   6.602   5.993   0.709
 6242TIP3    H218670   6.467   5.991   0.778
 6243TIP3   OH218671   7.141   5.430   5.732
 6243TIP3    H118672   7.205   5.496   5.703
 6243TIP3    H218673   7.080   5.478   5.787
 6244TIP3   OH218674   7.269   6.686   3.966
 6244TIP3    H118675   7.271   6.605   3.916
 6244TIP3    H218676   7.358   6.722   3.958
 6245TIP3   OH218677   2.094   6.109   2.053
 6245TIP3    H118678   2.019   6.101   2.111
 6245TIP3    H218679   2.147   6.179   2.092
 6246TIP3   OH218680   7.520   4.927   1.131
 6246TIP3    H118681   7.510   4.839   1.169
 6246TIP3    H218682   7.550   4.911   1.042
 6247TIP3   OH218683   6.810   1.046   4.380
 6247TIP3    H118684   6.890   1.050   4.432
 6247TIP3    H218685   6.839   1.062   4.290
 6248TIP3   OH218686   0.511   5.978   1.090
 6248TIP3    H118687   0.450   5.906   1.105
 6248TIP3    H218688   0.597   5.936   1.081
 6249TIP3   OH218689   7.309   7.398   6.068
 6249TIP3    H118690   7.324   7.412   6.162
 6249TIP3    H218691   7.390   7.428   6.027
 6250TIP3   OH218692   6.253   1.693   2.277
 6250TIP3    H118693   6.266   1.619   2.217
 6250TIP3    H218694   6.230   1.767   2.221
 6251TIP3   OH218695   0.706   4.358   4.703
 6251TIP3    H118696   0.759   4.278   4.706
 6251TIP3    H218697   0.684   4.368   4.610
 6252TIP3   OH218698   0.251   4.141   0.845
 6252TIP3    H118699   0.301   4.198   0.903
 6252TIP3    H218700   0.313   4.114   0.778
 6253TIP3   OH218701   2.008   2.377   5.750
 6253TIP3    H118702   2.066   2.317   5.703
 6253TIP3    H218703   2.046   2.385   5.837
 6254TIP3   OH218704   5.628   1.990   2.776
 6254TIP3    H118705   5.720   1.965   2.789
 6254TIP3    H218706   5.626   2.083   2.797
 6255TIP3   OH218707   3.656   4.115   4.176
 6255TIP3    H118708   3.566   4.138   4.197
 6255TIP3    H218709   3.693   4.194   4.138
 6256TIP3   OH218710   0.280   4.088   5.335
 6256TIP3    H118711   0.375   4.097   5.322
 6256TIP3    H218712   0.263   4.138   5.416
 6257TIP3   OH218713   7.986   5.210   5.079
 6257TIP3    H118714   7.921   5.142   5.094
 6257TIP3    H218715   8.014   5.198   4.988
 6258TIP3   OH218716   5.594   4.289   6.116
 6258TIP3    H118717   5.599   4.361   6.179
 6258TIP3    H218718   5.577   4.333   6.032
 6259TIP3   OH218719   4.955   7.643   3.196
 6259TIP3    H118720   4.976   7.606   3.111
 6259TIP3    H218721   5.021   7.711   3.210
 6260TIP3   OH218722   4.656   2.856   0.012
 6260TIP3    H118723   4.732   2.915   0.006
 6260TIP3    H218724   4.690   2.778   0.056
 6261TIP3   OH218725   1.423   2.581   2.762
 6261TIP3    H118726   1.353   2.559   2.700
 6261TIP3    H218727   1.504   2.566   2.712
 6262TIP3   OH218728   1.567   0.946   0.370
 6262TIP3    H118729   1.505   0.875   0.358
 6262TIP3    H218730   1.587   0.976   0.281
 6263TIP3   OH218731   0.667   7.347   0.138
 6263TIP3    H118732   0.635   7.261   0.165
 6263TIP3    H218733   0.713   7.331   0.055
 6264TIP3   OH218734   7.846   5.127   5.536
 6264TIP3    H118735   7.768   5.075   5.554
 6264TIP3    H218736   7.819   5.188   5.468
 6265TIP3   OH218737   5.776   7.260   0.136
 6265TIP3    H118738   5.768   7.298   0.223
 6265TIP3    H218739   5.712   7.307   0.082
 6266TIP3   OH218740   4.244   5.913   1.522
 6266TIP3    H118741   4.161   5.868   1.506
 6266TIP3    H218742   4.225   6.005   1.502
 6267TIP3   OH218743   1.388   2.281   1.748
 6267TIP3    H118744   1.398   2.306   1.656
 6267TIP3    H218745   1.459   2.218   1.763
 6268TIP3   OH218746   6.463   1.485   0.860
 6268TIP3    H118747   6.549   1.451   0.834
 6268TIP3    H218748   6.428   1.525   0.780
 6269TIP3   OH218749   2.836   2.325   2.108
 6269TIP3    H118750   2.813   2.388   2.176
 6269TIP3    H218751   2.826   2.240   2.151
 6270TIP3   OH218752   8.184   2.236   3.038
 6270TIP3    H118753   8.151   2.196   3.119
 6270TIP3    H218754   8.113   2.293   3.009
 6271TIP3   OH218755   0.261   4.937   6.689
 6271TIP3    H118756   0.219   5.022   6.705
 6271TIP3    H218757   0.291   4.942   6.598
 6272TIP3   OH218758   0.366   3.708   4.395
 6272TIP3    H118759   0.366   3.694   4.490
 6272TIP3    H218760   0.332   3.627   4.358
 6273TIP3   OH218761   6.776   4.996   6.672
 6273TIP3    H118762   6.703   4.951   6.714
 6273TIP3    H218763   6.735   5.055   6.609
 6274TIP3   OH218764   5.959   2.646   6.463
 6274TIP3    H118765   5.891   2.684   6.407
 6274TIP3    H218766   6.004   2.722   6.500
 6275TIP3   OH218767  -0.035   0.315   6.770
 6275TIP3    H118768   0.004   0.250   6.712
 6275TIP3    H218769   0.039   0.360   6.809
 6276TIP3   OH218770   1.936   2.104   4.248
 6276TIP3    H118771   1.859   2.161   4.254
 6276TIP3    H218772   1.907   2.031   4.192
 6277TIP3   OH218773   1.760   0.802   0.033
 6277TIP3    H118774   1.799   0.779   0.118
 6277TIP3    H218775   1.816   0.871  -0.002
 6278TIP3   OH218776   2.329   4.199   1.060
 6278TIP3    H118777   2.291   4.189   1.147
 6278TIP3    H218778   2.301   4.286   1.031
 6279TIP3   OH218779   2.342   3.493   0.890
 6279TIP3    H118780   2.273   3.427   0.886
 6279TIP3    H218781   2.296   3.576   0.884
 6280TIP3   OH218782   4.135   5.099   3.873
 6280TIP3    H118783   4.195   5.027   3.891
 6280TIP3    H218784   4.166   5.136   3.790
 6281TIP3   OH218785   6.837   4.398   2.283
 6281TIP3    H118786   6.847   4.356   2.198
 6281TIP3    H218787   6.761   4.353   2.322
 6282TIP3   OH218788   3.627   4.302   0.941
 6282TIP3    H118789   3.533   4.288   0.954
 6282TIP3    H218790   3.634   4.338   0.853
 6283TIP3   OH218791   8.250   7.731   1.753
 6283TIP3    H118792   8.328   7.785   1.760
 6283TIP3    H218793   8.272   7.667   1.685
 6284TIP3   OH218794   4.740   6.712   3.380
 6284TIP3    H118795   4.651   6.746   3.379
 6284TIP3    H218796   4.760   6.694   3.288
 6285TIP3   OH218797   3.773   2.439   4.832
 6285TIP3    H118798   3.796   2.360   4.784
 6285TIP3    H218799   3.772   2.412   4.924
 6286TIP3   OH218800   3.642   7.399   0.341
 6286TIP3    H118801   3.657   7.307   0.363
 6286TIP3    H218802   3.551   7.403   0.314
 6287TIP3   OH218803   0.053   2.819   5.250
 6287TIP3    H118804   0.123   2.872   5.288
 6287TIP3    H218805  -0.027   2.857   5.286
 6288TIP3   OH218806   1.771   2.618   6.306
 6288TIP3    H118807   1.806   2.550   6.363
 6288TIP3    H218808   1.677   2.621   6.328
 6289TIP3   OH218809   5.586   3.025   1.800
 6289TIP3    H118810   5.636   2.984   1.870
 6289TIP3    H218811   5.579   2.957   1.732
 6290TIP3   OH218812   1.442   0.555   3.704
 6290TIP3    H118813   1.537   0.562   3.695
 6290TIP3    H218814   1.412   0.646   3.713
 6291TIP3   OH218815   7.586   0.357   5.613
 6291TIP3    H118816   7.516   0.413   5.648
 6291TIP3    H218817   7.588   0.282   5.673
 6292TIP3   OH218818   6.168   1.845   6.008
 6292TIP3    H118819   6.257   1.864   6.038
 6292TIP3    H218820   6.156   1.751   6.025
 6293TIP3   OH218821   2.447   1.325   5.127
 6293TIP3    H118822   2.498   1.355   5.202
 6293TIP3    H218823   2.448   1.229   5.134
 6294TIP3   OH218824   5.593   2.796   5.919
 6294TIP3    H118825   5.530   2.816   5.988
 6294TIP3    H218826   5.663   2.861   5.931
 6295TIP3   OH218827   1.418   6.549   0.558
 6295TIP3    H118828   1.501   6.597   0.561
 6295TIP3    H218829   1.405   6.520   0.649
 6296TIP3   OH218830   5.467   0.668   6.240
 6296TIP3    H118831   5.447   0.574   6.245
 6296TIP3    H218832   5.401   0.703   6.180
 6297TIP3   OH218833   6.310   4.389   6.711
 6297TIP3    H118834   6.321   4.301   6.675
 6297TIP3    H218835   6.242   4.428   6.657
 6298TIP3   OH218836   4.679   1.735   2.377
 6298TIP3    H118837   4.690   1.685   2.458
 6298TIP3    H218838   4.712   1.823   2.398
 6299TIP3   OH218839   2.918   6.260   4.590
 6299TIP3    H118840   2.853   6.190   4.601
 6299TIP3    H218841   2.891   6.327   4.653
 6300TIP3   OH218842   5.859   0.375   1.193
 6300TIP3    H118843   5.939   0.329   1.169
 6300TIP3    H218844   5.807   0.310   1.241
 6301TIP3   OH218845   3.120   6.138   0.581
 6301TIP3    H118846   3.121   6.224   0.624
 6301TIP3    H218847   3.097   6.076   0.650
 6302TIP3   OH218848   7.303   3.586   4.642
 6302TIP3    H118849   7.377   3.600   4.582
 6302TIP3    H218850   7.226   3.583   4.584
 6303TIP3   OH218851   0.303   7.743   3.930
 6303TIP3    H118852   0.343   7.796   3.999
 6303TIP3    H218853   0.300   7.654   3.966
 6304TIP3   OH218854   8.028   3.579   3.652
 6304TIP3    H118855   8.108   3.528   3.658
 6304TIP3    H218856   8.004   3.576   3.559
 6305TIP3   OH218857   3.760   6.415   1.522
 6305TIP3    H118858   3.814   6.476   1.571
 6305TIP3    H218859   3.682   6.464   1.498
 6306TIP3   OH218860   6.259   7.552   6.126
 6306TIP3    H118861   6.233   7.512   6.209
 6306TIP3    H218862   6.349   7.521   6.112
 6307TIP3   OH218863   0.051   6.628   6.440
 6307TIP3    H118864   0.136   6.584   6.432
 6307TIP3    H218865   0.070   6.720   6.420
 6308TIP3   OH218866   5.936   0.054   4.165
 6308TIP3    H118867   5.849   0.031   4.197
 6308TIP3    H218868   5.940   0.015   4.077
 6309TIP3   OH218869   2.852   0.572   5.483
 6309TIP3    H118870   2.929   0.616   5.519
 6309TIP3    H218871   2.826   0.509   5.550
 6310TIP3   OH218872   1.948   7.719   6.322
 6310TIP3    H118873   1.898   7.671   6.255
 6310TIP3    H218874   1.899   7.800   6.336
 6311TIP3   OH218875   3.980   5.001   6.563
 6311TIP3    H118876   3.964   4.984   6.470
 6311TIP3    H218877   4.068   4.968   6.578
 6312TIP3   OH218878   2.881   4.223   3.603
 6312TIP3    H118879   2.889   4.268   3.518
 6312TIP3    H218880   2.952   4.261   3.656
 6313TIP3   OH218881   3.271   6.440   4.475
 6313TIP3    H118882   3.205   6.386   4.432
 6313TIP3    H218883   3.303   6.498   4.406
 6314TIP3   OH218884   7.701   5.307   5.383
 6314TIP3    H118885   7.694   5.402   5.372
 6314TIP3    H218886   7.620   5.273   5.345
 6315TIP3   OH218887   3.549   3.543   5.115
 6315TIP3    H118888   3.555   3.491   5.195
 6315TIP3    H218889   3.500   3.488   5.054
 6316TIP3   OH218890   4.239   0.680   3.154
 6316TIP3    H118891   4.284   0.748   3.103
 6316TIP3    H218892   4.199   0.728   3.227
 6317TIP3   OH218893   2.201   7.813   1.000
 6317TIP3    H118894   2.159   7.728   0.988
 6317TIP3    H218895   2.198   7.828   1.094
 6318TIP3   OH218896   7.301   6.404   1.690
 6318TIP3    H118897   7.374   6.381   1.747
 6318TIP3    H218898   7.257   6.476   1.735
 6319TIP3   OH218899   8.217   5.008   3.479
 6319TIP3    H118900   8.300   5.050   3.455
 6319TIP3    H218901   8.193   4.956   3.402
 6320TIP3   OH218902   4.864   4.866   5.968
 6320TIP3    H118903   4.793   4.923   5.999
 6320TIP3    H218904   4.913   4.843   6.047
 6321TIP3   OH218905   0.756   6.765   0.962
 6321TIP3    H118906   0.694   6.693   0.966
 6321TIP3    H218907   0.841   6.723   0.952
 6322TIP3   OH218908   0.726   5.489   5.491
 6322TIP3    H118909   0.689   5.441   5.566
 6322TIP3    H218910   0.718   5.581   5.515
 6323TIP3   OH218911   5.439   5.118   0.125
 6323TIP3    H118912   5.357   5.165   0.141
 6323TIP3    H218913   5.483   5.118   0.210
 6324TIP3   OH218914   3.414   3.406   4.567
 6324TIP3    H118915   3.472   3.364   4.503
 6324TIP3    H218916   3.469   3.468   4.613
 6325TIP3   OH218917   5.244   5.541   0.625
 6325TIP3    H118918   5.191   5.615   0.596
 6325TIP3    H218919   5.306   5.579   0.687
 6326TIP3   OH218920   2.298   6.894   4.675
 6326TIP3    H118921   2.385   6.878   4.712
 6326TIP3    H218922   2.251   6.811   4.687
 6327TIP3   OH218923   7.773   2.875   2.131
 6327TIP3    H118924   7.777   2.871   2.226
 6327TIP3    H218925   7.854   2.919   2.105
 6328TIP3   OH218926   2.188   0.720   1.424
 6328TIP3    H118927   2.184   0.681   1.511
 6328TIP3    H218928   2.103   0.762   1.412
 6329TIP3   OH218929   1.152   7.235   4.350
 6329TIP3    H118930   1.147   7.154   4.400
 6329TIP3    H218931   1.238   7.231   4.308
 6330TIP3   OH218932   1.866   6.285   4.694
 6330TIP3    H118933   1.815   6.221   4.643
 6330TIP3    H218934   1.802   6.324   4.754
 6331TIP3   OH218935   5.140   1.106   3.592
 6331TIP3    H118936   5.133   1.188   3.544
 6331TIP3    H218937   5.172   1.131   3.679
 6332TIP3   OH218938   3.692   5.996   2.019
 6332TIP3    H118939   3.613   6.037   1.983
 6332TIP3    H218940   3.763   6.031   1.965
 6333TIP3   OH218941   6.108   4.468   6.503
 6333TIP3    H118942   6.065   4.382   6.508
 6333TIP3    H218943   6.156   4.466   6.420
 6334TIP3   OH218944   7.312   7.721   3.215
 6334TIP3    H118945   7.348   7.641   3.254
 6334TIP3    H218946   7.343   7.792   3.271
 6335TIP3   OH218947   2.422   2.201   5.043
 6335TIP3    H118948   2.448   2.141   5.113
 6335TIP3    H218949   2.465   2.284   5.065
 6336TIP3   OH218950   0.296   2.564   5.823
 6336TIP3    H118951   0.296   2.481   5.776
 6336TIP3    H218952   0.275   2.630   5.757
 6337TIP3   OH218953   1.956   3.473   3.451
 6337TIP3    H118954   1.885   3.410   3.462
 6337TIP3    H218955   2.023   3.426   3.402
 6338TIP3   OH218956   3.119   7.369   3.951
 6338TIP3    H118957   3.080   7.414   3.877
 6338TIP3    H218958   3.097   7.423   4.027
 6339TIP3   OH218959   2.552   3.518   5.159
 6339TIP3    H118960   2.628   3.460   5.170
 6339TIP3    H218961   2.477   3.461   5.174
 6340TIP3   OH218962   5.944   1.995   3.303
 6340TIP3    H118963   5.949   1.912   3.255
 6340TIP3    H218964   5.980   1.975   3.390
 6341TIP3   OH218965   4.103   4.239   0.042
 6341TIP3    H118966   4.165   4.311   0.051
 6341TIP3    H218967   4.030   4.275  -0.007
 6342TIP3   OH218968   7.812   1.576   3.430
 6342TIP3    H118969   7.805   1.662   3.471
 6342TIP3    H218970   7.753   1.521   3.480
 6343TIP3   OH218971   2.821   5.308   1.880
 6343TIP3    H118972   2.844   5.391   1.923
 6343TIP3    H218973   2.771   5.260   1.947
 6344TIP3   OH218974   8.110   4.692   1.638
 6344TIP3    H118975   8.106   4.666   1.546
 6344TIP3    H218976   8.184   4.642   1.673
 6345TIP3   OH218977   1.208   1.357   3.872
 6345TIP3    H118978   1.187   1.371   3.965
 6345TIP3    H218979   1.276   1.421   3.853
 6346TIP3   OH218980   1.082   1.140   2.566
 6346TIP3    H118981   1.137   1.113   2.493
 6346TIP3    H218982   1.139   1.136   2.642
 6347TIP3   OH218983   6.461   7.416   2.044
 6347TIP3    H118984   6.541   7.459   2.012
 6347TIP3    H218985   6.425   7.477   2.108
 6348TIP3   OH218986   0.988   0.324   3.821
 6348TIP3    H118987   1.079   0.327   3.789
 6348TIP3    H218988   0.948   0.252   3.772
 6349TIP3   OH218989   3.971   4.705   0.982
 6349TIP3    H118990   3.895   4.716   1.039
 6349TIP3    H218991   3.987   4.611   0.980
 6350TIP3   OH218992   5.973   4.548   0.482
 6350TIP3    H118993   5.995   4.603   0.407
 6350TIP3    H218994   6.022   4.467   0.466
 6351TIP3   OH218995   5.439   1.519   4.643
 6351TIP3    H118996   5.485   1.589   4.596
 6351TIP3    H218997   5.358   1.560   4.672
 6352TIP3   OH218998   5.718   4.912   4.463
 6352TIP3    H118999   5.733   4.893   4.371
 6352TIP3    H219000   5.625   4.930   4.470
 6353TIP3   OH219001   1.604   0.470   0.399
 6353TIP3    H119002   1.663   0.428   0.336
 6353TIP3    H219003   1.550   0.529   0.346
 6354TIP3   OH219004   3.657   4.905   1.734
 6354TIP3    H119005   3.719   4.868   1.672
 6354TIP3    H219006   3.705   4.910   1.817
 6355TIP3   OH219007   1.585   6.981   5.290
 6355TIP3    H119008   1.592   7.051   5.224
 6355TIP3    H219009   1.491   6.965   5.297
 6356TIP3   OH219010   4.919   1.416   3.357
 6356TIP3    H119011   4.894   1.341   3.411
 6356TIP3    H219012   4.847   1.426   3.295
 6357TIP3   OH219013   7.099   0.098   1.548
 6357TIP3    H119014   7.005   0.114   1.551
 6357TIP3    H219015   7.136   0.160   1.611
 6358TIP3   OH219016   3.640   6.980   2.829
 6358TIP3    H119017   3.728   6.965   2.796
 6358TIP3    H219018   3.628   7.075   2.823
 6359TIP3   OH219019   8.038   7.064   2.693
 6359TIP3    H119020   8.081   7.084   2.610
 6359TIP3    H219021   7.966   7.006   2.669
 6360TIP3   OH219022   7.469   1.764   5.614
 6360TIP3    H119023   7.480   1.672   5.636
 6360TIP3    H219024   7.427   1.803   5.691
 6361TIP3   OH219025   4.179   2.603   5.392
 6361TIP3    H119026   4.138   2.636   5.312
 6361TIP3    H219027   4.272   2.622   5.382
 6362TIP3   OH219028   5.556   2.302   3.974
 6362TIP3    H119029   5.562   2.244   4.050
 6362TIP3    H219030   5.541   2.243   3.900
 6363TIP3   OH219031   1.562   6.641   3.504
 6363TIP3    H119032   1.502   6.643   3.579
 6363TIP3    H219033   1.524   6.702   3.441
 6364TIP3   OH219034   2.046   6.902   3.157
 6364TIP3    H119035   2.026   6.885   3.249
 6364TIP3    H219036   1.987   6.845   3.109
 6365TIP3   OH219037   2.386   3.001   3.800
 6365TIP3    H119038   2.425   2.966   3.880
 6365TIP3    H219039   2.292   2.982   3.810
 6366TIP3   OH219040   3.311   3.299   5.336
 6366TIP3    H119041   3.238   3.329   5.281
 6366TIP3    H219042   3.336   3.376   5.387
 6367TIP3   OH219043   3.852   0.302   0.965
 6367TIP3    H119044   3.878   0.212   0.981
 6367TIP3    H219045   3.789   0.297   0.893
 6368TIP3   OH219046   5.275   0.731   3.072
 6368TIP3    H119047   5.361   0.714   3.033
 6368TIP3    H219048   5.287   0.811   3.122
 6369TIP3   OH219049   2.268   7.246   6.554
 6369TIP3    H119050   2.331   7.244   6.482
 6369TIP3    H219051   2.192   7.199   6.521
 6370TIP3   OH219052   5.337   7.081   2.767
 6370TIP3    H119053   5.383   7.084   2.683
 6370TIP3    H219054   5.263   7.022   2.752
 6371TIP3   OH219055   0.919   3.255   2.614
 6371TIP3    H119056   0.899   3.248   2.520
 6371TIP3    H219057   1.014   3.263   2.617
 6372TIP3   OH219058   2.579   0.255   2.996
 6372TIP3    H119059   2.604   0.330   3.050
 6372TIP3    H219060   2.657   0.236   2.944
 6373TIP3   OH219061   6.531   6.292   5.402
 6373TIP3    H119062   6.598   6.356   5.426
 6373TIP3    H219063   6.568   6.246   5.326
 6374TIP3   OH219064   0.206   0.372   5.645
 6374TIP3    H119065   0.248   0.332   5.721
 6374TIP3    H219066   0.120   0.399   5.677
 6375TIP3   OH219067   6.366   5.992   5.379
 6375TIP3    H119068   6.384   5.933   5.305
 6375TIP3    H219069   6.419   5.957   5.451
 6376TIP3   OH219070   8.057   6.049   1.720
 6376TIP3    H119071   7.996   5.976   1.727
 6376TIP3    H219072   8.124   6.018   1.659
 6377TIP3   OH219073   7.094   1.067   3.169
 6377TIP3    H119074   7.051   1.146   3.203
 6377TIP3    H219075   7.180   1.098   3.140
 6378TIP3   OH219076   5.776   0.294   1.666
 6378TIP3    H119077   5.702   0.281   1.724
 6378TIP3    H219078   5.765   0.383   1.633
 6379TIP3   OH219079   6.365   4.758   4.395
 6379TIP3    H119080   6.393   4.831   4.451
 6379TIP3    H219081   6.287   4.723   4.439
 6380TIP3   OH219082   5.486   3.866   5.490
 6380TIP3    H119083   5.531   3.904   5.566
 6380TIP3    H219084   5.528   3.780   5.478
 6381TIP3   OH219085   5.455   3.315   4.094
 6381TIP3    H119086   5.454   3.360   4.009
 6381TIP3    H219087   5.370   3.336   4.132
 6382TIP3   OH219088   4.420   0.906   2.761
 6382TIP3    H119089   4.386   0.826   2.722
 6382TIP3    H219090   4.424   0.887   2.855
 6383TIP3   OH219091   6.306   1.463   2.126
 6383TIP3    H119092   6.345   1.471   2.039
 6383TIP3    H219093   6.373   1.419   2.178
 6384TIP3   OH219094   2.401   1.662   0.684
 6384TIP3    H119095   2.320   1.697   0.723
 6384TIP3    H219096   2.391   1.567   0.688
 6385TIP3   OH219097   1.290   3.410   1.191
 6385TIP3    H119098   1.218   3.442   1.137
 6385TIP3    H219099   1.369   3.435   1.143
 6386TIP3   OH219100   1.455   3.333   1.774
 6386TIP3    H119101   1.458   3.239   1.796
 6386TIP3    H219102   1.479   3.336   1.682
 6387TIP3   OH219103   4.711   3.647   6.235
 6387TIP3    H119104   4.754   3.562   6.235
 6387TIP3    H219105   4.634   3.635   6.291
 6388TIP3   OH219106   0.203   1.954   4.093
 6388TIP3    H119107   0.161   2.013   4.031
 6388TIP3    H219108   0.295   1.982   4.094
 6389TIP3   OH219109   5.240   2.029   2.721
 6389TIP3    H119110   5.202   2.116   2.737
 6389TIP3    H219111   5.290   2.038   2.641
 6390TIP3   OH219112   2.114   5.001   3.249
 6390TIP3    H119113   2.128   5.093   3.273
 6390TIP3    H219114   2.065   5.005   3.166
 6391TIP3   OH219115   3.839   7.042   3.865
 6391TIP3    H119116   3.894   7.075   3.936
 6391TIP3    H219117   3.750   7.059   3.893
 6392TIP3   OH219118   7.071   7.088   4.385
 6392TIP3    H119119   7.089   7.175   4.420
 6392TIP3    H219120   7.116   7.086   4.300
 6393TIP3   OH219121   3.685   3.754   1.430
 6393TIP3    H119122   3.685   3.838   1.384
 6393TIP3    H219123   3.777   3.730   1.436
 6394TIP3   OH219124   0.162   0.236   2.081
 6394TIP3    H119125   0.217   0.187   2.020
 6394TIP3    H219126   0.105   0.169   2.119
 6395TIP3   OH219127   7.245   6.889   1.611
 6395TIP3    H119128   7.333   6.861   1.637
 6395TIP3    H219129   7.259   6.964   1.554
 6396TIP3   OH219130   5.618   1.947   6.110
 6396TIP3    H119131   5.702   1.955   6.154
 6396TIP3    H219132   5.589   1.857   6.128
 6397TIP3   OH219133   2.485   7.383   2.799
 6397TIP3    H119134   2.432   7.306   2.818
 6397TIP3    H219135   2.509   7.374   2.707
 6398TIP3   OH219136   7.166   3.577   6.003
 6398TIP3    H119137   7.216   3.623   5.936
 6398TIP3    H219138   7.232   3.532   6.056
 6399TIP3   OH219139   6.897   7.231   0.607
 6399TIP3    H119140   6.988   7.205   0.618
 6399TIP3    H219141   6.851   7.151   0.582
 6400TIP3   OH219142   0.400   5.399   1.508
 6400TIP3    H119143   0.461   5.331   1.538
 6400TIP3    H219144   0.323   5.389   1.563
 6401TIP3   OH219145   7.075   5.232   4.534
 6401TIP3    H119146   7.118   5.262   4.614
 6401TIP3    H219147   7.128   5.159   4.504
 6402TIP3   OH219148   1.883   3.728   0.887
 6402TIP3    H119149   1.876   3.790   0.958
 6402TIP3    H219150   1.899   3.782   0.809
 6403TIP3   OH219151   8.136   3.310   4.612
 6403TIP3    H119152   8.076   3.382   4.594
 6403TIP3    H219153   8.182   3.336   4.691
 6404TIP3   OH219154   4.928   1.255   1.153
 6404TIP3    H119155   4.863   1.273   1.221
 6404TIP3    H219156   5.012   1.261   1.199
 6405TIP3   OH219157   8.007   4.818   1.850
 6405TIP3    H119158   8.082   4.822   1.908
 6405TIP3    H219159   8.036   4.764   1.776
 6406TIP3   OH219160   6.706   4.338   5.314
 6406TIP3    H119161   6.709   4.355   5.408
 6406TIP3    H219162   6.728   4.246   5.306
 6407TIP3   OH219163   1.720   0.510   3.654
 6407TIP3    H119164   1.791   0.510   3.718
 6407TIP3    H219165   1.753   0.459   3.580
 6408TIP3   OH219166   4.466   2.457   0.450
 6408TIP3    H119167   4.452   2.548   0.475
 6408TIP3    H219168   4.381   2.428   0.416
 6409TIP3   OH219169   0.894   0.637   5.622
 6409TIP3    H119170   0.971   0.587   5.649
 6409TIP3    H219171   0.917   0.670   5.534
 6410TIP3   OH219172   4.570   1.227   0.558
 6410TIP3    H119173   4.659   1.247   0.529
 6410TIP3    H219174   4.513   1.274   0.498
 6411TIP3   OH219175   0.923   7.690   1.638
 6411TIP3    H119176   0.914   7.601   1.605
 6411TIP3    H219177   0.876   7.744   1.574
 6412TIP3   OH219178   7.828   3.897   3.487
 6412TIP3    H119179   7.782   3.924   3.567
 6412TIP3    H219180   7.871   3.977   3.457
 6413TIP3   OH219181   2.353   6.703   1.557
 6413TIP3    H119182   2.282   6.692   1.620
 6413TIP3    H219183   2.427   6.657   1.597
 6414TIP3   OH219184   7.181   0.572   4.431
 6414TIP3    H119185   7.141   0.652   4.463
 6414TIP3    H219186   7.270   0.598   4.405
 6415TIP3   OH219187   2.427   2.548   2.433
 6415TIP3    H119188   2.454   2.618   2.492
 6415TIP3    H219189   2.498   2.484   2.439
 6416TIP3   OH219190   0.311   4.141   1.504
 6416TIP3    H119191   0.287   4.159   1.595
 6416TIP3    H219192   0.377   4.071   1.510
 6417TIP3   OH219193   5.886   3.841   3.459
 6417TIP3    H119194   5.850   3.928   3.476
 6417TIP3    H219195   5.855   3.787   3.531
 6418TIP3   OH219196   6.684   3.719   0.395
 6418TIP3    H119197   6.640   3.642   0.430
 6418TIP3    H219198   6.613   3.772   0.358
 6419TIP3   OH219199   2.756   5.651   6.400
 6419TIP3    H119200   2.763   5.587   6.328
 6419TIP3    H219201   2.673   5.630   6.442
 6420TIP3   OH219202   8.263   5.404   3.484
 6420TIP3    H119203   8.311   5.458   3.546
 6420TIP3    H219204   8.218   5.339   3.539
 6421TIP3   OH219205   2.952   4.162   3.316
 6421TIP3    H119206   2.985   4.245   3.350
 6421TIP3    H219207   3.028   4.104   3.314
 6422TIP3   OH219208   4.241   4.857   3.923
 6422TIP3    H119209   4.161   4.815   3.955
 6422TIP3    H219210   4.312   4.804   3.960
 6423TIP3   OH219211   5.504   6.126   1.224
 6423TIP3    H119212   5.502   6.220   1.212
 6423TIP3    H219213   5.415   6.103   1.253
 6424TIP3   OH219214   4.352   2.890   3.211
 6424TIP3    H119215   4.447   2.901   3.210
 6424TIP3    H219216   4.336   2.814   3.156
 6425TIP3   OH219217   0.678   3.382   0.488
 6425TIP3    H119218   0.711   3.439   0.419
 6425TIP3    H219219   0.705   3.424   0.569
 6426TIP3   OH219220   6.597   4.710   1.702
 6426TIP3    H119221   6.560   4.699   1.615
 6426TIP3    H219222   6.620   4.802   1.707
 6427TIP3   OH219223   5.517   0.932   1.270
 6427TIP3    H119224   5.507   0.957   1.178
 6427TIP3    H219225   5.493   1.011   1.318
 6428TIP3   OH219226   1.483   1.754   6.593
 6428TIP3    H119227   1.391   1.742   6.569
 6428TIP3    H219228   1.519   1.665   6.597
 6429TIP3   OH219229   0.789   7.543   5.662
 6429TIP3    H119230   0.782   7.636   5.684
 6429TIP3    H219231   0.719   7.528   5.598
 6430TIP3   OH219232   1.253   4.702   4.279
 6430TIP3    H119233   1.261   4.611   4.308
 6430TIP3    H219234   1.274   4.700   4.185
 6431TIP3   OH219235   6.741   1.720   5.663
 6431TIP3    H119236   6.657   1.674   5.670
 6431TIP3    H219237   6.747   1.770   5.744
 6432TIP3   OH219238   3.758   2.987   5.091
 6432TIP3    H119239   3.803   2.993   5.007
 6432TIP3    H219240   3.827   3.004   5.156
 6433TIP3   OH219241   6.452   1.466   6.424
 6433TIP3    H119242   6.368   1.506   6.401
 6433TIP3    H219243   6.462   1.395   6.361
 6434TIP3   OH219244   4.700   0.822   2.821
 6434TIP3    H119245   4.646   0.768   2.763
 6434TIP3    H219246   4.771   0.764   2.849
 6435TIP3   OH219247   0.340   6.192   3.874
 6435TIP3    H119248   0.410   6.252   3.847
 6435TIP3    H219249   0.367   6.160   3.960
 6436TIP3   OH219250   7.470   7.717   3.471
 6436TIP3    H119251   7.449   7.631   3.435
 6436TIP3    H219252   7.514   7.698   3.554
 6437TIP3   OH219253   4.308   6.573   6.393
 6437TIP3    H119254   4.259   6.495   6.367
 6437TIP3    H219255   4.394   6.562   6.352
 6438TIP3   OH219256   5.093   7.639   3.536
 6438TIP3    H119257   5.042   7.631   3.616
 6438TIP3    H219258   5.124   7.730   3.536
 6439TIP3   OH219259   6.702   7.265   4.809
 6439TIP3    H119260   6.761   7.269   4.733
 6439TIP3    H219261   6.631   7.206   4.781
 6440TIP3   OH219262   4.355   7.625   2.101
 6440TIP3    H119263   4.312   7.666   2.025
 6440TIP3    H219264   4.330   7.681   2.175
 6441TIP3   OH219265   2.826   1.369   2.817
 6441TIP3    H119266   2.872   1.304   2.765
 6441TIP3    H219267   2.737   1.334   2.825
 6442TIP3   OH219268   5.609   7.472   1.534
 6442TIP3    H119269   5.582   7.380   1.536
 6442TIP3    H219270   5.684   7.474   1.474
 6443TIP3   OH219271   4.360   0.904   3.048
 6443TIP3    H119272   4.370   0.947   3.133
 6443TIP3    H219273   4.297   0.958   3.001
 6444TIP3   OH219274   0.232   3.870   1.295
 6444TIP3    H119275   0.245   3.850   1.388
 6444TIP3    H219276   0.306   3.927   1.272
 6445TIP3   OH219277   0.150   6.010   0.686
 6445TIP3    H119278   0.216   6.076   0.665
 6445TIP3    H219279   0.158   5.998   0.781
 6446TIP3   OH219280   3.484   2.227   4.076
 6446TIP3    H119281   3.565   2.251   4.122
 6446TIP3    H219282   3.414   2.267   4.127
 6447TIP3   OH219283   3.202   6.098   4.557
 6447TIP3    H119284   3.108   6.109   4.552
 6447TIP3    H219285   3.227   6.141   4.639
 6448TIP3   OH219286   2.226   3.103   0.809
 6448TIP3    H119287   2.266   3.113   0.896
 6448TIP3    H219288   2.146   3.154   0.814
 6449TIP3   OH219289   1.179   5.788   1.503
 6449TIP3    H119290   1.150   5.697   1.495
 6449TIP3    H219291   1.104   5.839   1.473
 6450TIP3   OH219292   4.202   3.433   0.645
 6450TIP3    H119293   4.197   3.337   0.636
 6450TIP3    H219294   4.244   3.446   0.730
 6451TIP3   OH219295   3.177   2.716   6.279
 6451TIP3    H119296   3.112   2.649   6.257
 6451TIP3    H219297   3.172   2.780   6.208
 6452TIP3   OH219298   1.084   5.443   3.993
 6452TIP3    H119299   1.139   5.471   3.920
 6452TIP3    H219300   1.012   5.506   3.994
 6453TIP3   OH219301   3.273   1.276   4.806
 6453TIP3    H119302   3.199   1.270   4.746
 6453TIP3    H219303   3.307   1.187   4.812
 6454TIP3   OH219304   1.101   6.805   6.475
 6454TIP3    H119305   1.125   6.851   6.395
 6454TIP3    H219306   1.165   6.834   6.540
 6455TIP3   OH219307   2.035   6.458   6.433
 6455TIP3    H119308   2.010   6.383   6.487
 6455TIP3    H219309   1.977   6.453   6.357
 6456TIP3   OH219310   2.169   7.060   1.607
 6456TIP3    H119311   2.187   6.996   1.675
 6456TIP3    H219312   2.139   7.138   1.655
 6457TIP3   OH219313   7.969   6.217   0.291
 6457TIP3    H119314   8.062   6.194   0.288
 6457TIP3    H219315   7.928   6.144   0.338
 6458TIP3   OH219316   1.443   0.373   2.345
 6458TIP3    H119317   1.516   0.314   2.326
 6458TIP3    H219318   1.482   0.460   2.345
 6459TIP3   OH219319   1.338   4.630   5.251
 6459TIP3    H119320   1.331   4.591   5.339
 6459TIP3    H219321   1.280   4.706   5.254
 6460TIP3   OH219322   6.501   0.390   4.257
 6460TIP3    H119323   6.434   0.375   4.324
 6460TIP3    H219324   6.485   0.319   4.193
 6461TIP3   OH219325   6.806   4.825   0.899
 6461TIP3    H119326   6.873   4.757   0.909
 6461TIP3    H219327   6.832   4.893   0.961
 6462TIP3   OH219328   5.846   0.164   0.457
 6462TIP3    H119329   5.892   0.241   0.491
 6462TIP3    H219330   5.905   0.130   0.389
 6463TIP3   OH219331   5.384   3.836   4.501
 6463TIP3    H119332   5.411   3.917   4.458
 6463TIP3    H219333   5.358   3.778   4.428
 6464TIP3   OH219334   0.105   0.124   2.707
 6464TIP3    H119335   0.084   0.170   2.788
 6464TIP3    H219336   0.053   0.169   2.640
 6465TIP3   OH219337   5.505   6.744   0.849
 6465TIP3    H119338   5.518   6.687   0.774
 6465TIP3    H219339   5.506   6.685   0.925
 6466TIP3   OH219340   8.049   7.113   2.406
 6466TIP3    H119341   8.070   7.198   2.367
 6466TIP3    H219342   8.086   7.049   2.346
 6467TIP3   OH219343   5.344   5.912   2.058
 6467TIP3    H119344   5.325   5.854   1.984
 6467TIP3    H219345   5.283   5.985   2.046
 6468TIP3   OH219346   7.031   4.025   6.195
 6468TIP3    H119347   7.076   4.052   6.115
 6468TIP3    H219348   7.078   3.947   6.224
 6469TIP3   OH219349   4.203   6.454   5.257
 6469TIP3    H119350   4.145   6.377   5.253
 6469TIP3    H219351   4.229   6.459   5.349
 6470TIP3   OH219352   1.554   6.156   0.071
 6470TIP3    H119353   1.459   6.149   0.078
 6470TIP3    H219354   1.584   6.066   0.057
 6471TIP3   OH219355   3.986   1.135   1.333
 6471TIP3    H119356   3.959   1.114   1.243
 6471TIP3    H219357   4.056   1.199   1.322
 6472TIP3   OH219358   3.846   7.022   1.562
 6472TIP3    H119359   3.849   7.090   1.494
 6472TIP3    H219360   3.899   7.058   1.633
 6473TIP3   OH219361   2.418   5.389   4.999
 6473TIP3    H119362   2.357   5.379   4.925
 6473TIP3    H219363   2.443   5.299   5.021
 6474TIP3   OH219364   4.622   2.463   2.171
 6474TIP3    H119365   4.556   2.515   2.217
 6474TIP3    H219366   4.698   2.465   2.230
 6475TIP3   OH219367   2.801   2.133   4.348
 6475TIP3    H119368   2.770   2.098   4.431
 6475TIP3    H219369   2.854   2.209   4.372
 6476TIP3   OH219370   1.861   2.450   6.480
 6476TIP3    H119371   1.846   2.466   6.574
 6476TIP3    H219372   1.844   2.357   6.469
 6477TIP3   OH219373   7.896   0.371   2.475
 6477TIP3    H119374   7.845   0.299   2.513
 6477TIP3    H219375   7.927   0.336   2.391
 6478TIP3   OH219376   0.684   2.975   5.742
 6478TIP3    H119377   0.750   3.015   5.799
 6478TIP3    H219378   0.732   2.914   5.688
 6479TIP3   OH219379   2.816   5.182   3.655
 6479TIP3    H119380   2.888   5.145   3.706
 6479TIP3    H219381   2.745   5.194   3.719
 6480TIP3   OH219382   1.222   2.362   5.223
 6480TIP3    H119383   1.231   2.387   5.131
 6480TIP3    H219384   1.138   2.400   5.250
 6481TIP3   OH219385   4.296   0.812   4.435
 6481TIP3    H119386   4.351   0.799   4.358
 6481TIP3    H219387   4.346   0.874   4.489
 6482TIP3   OH219388   3.327   0.442   5.804
 6482TIP3    H119389   3.284   0.445   5.889
 6482TIP3    H219390   3.292   0.363   5.763
 6483TIP3   OH219391  -0.009   4.739   6.729
 6483TIP3    H119392  -0.047   4.698   6.651
 6483TIP3    H219393   0.077   4.699   6.738
 6484TIP3   OH219394   7.159   7.152   0.599
 6484TIP3    H119395   7.122   7.085   0.657
 6484TIP3    H219396   7.220   7.104   0.543
 6485TIP3   OH219397   5.972   2.077   5.811
 6485TIP3    H119398   5.886   2.112   5.787
 6485TIP3    H219399   5.964   1.982   5.796
 6486TIP3   OH219400   3.643   0.912   4.950
 6486TIP3    H119401   3.720   0.920   5.005
 6486TIP3    H219402   3.606   1.000   4.948
 6487TIP3   OH219403   3.686   4.610   3.008
 6487TIP3    H119404   3.705   4.644   3.095
 6487TIP3    H219405   3.663   4.688   2.957
 6488TIP3   OH219406   0.424   5.366   6.227
 6488TIP3    H119407   0.338   5.380   6.267
 6488TIP3    H219408   0.405   5.339   6.138
 6489TIP3   OH219409   4.348   0.722   1.635
 6489TIP3    H119410   4.388   0.640   1.665
 6489TIP3    H219411   4.270   0.732   1.689
 6490TIP3   OH219412   3.335   6.066   0.400
 6490TIP3    H119413   3.289   6.005   0.342
 6490TIP3    H219414   3.291   6.056   0.484
 6491TIP3   OH219415   6.028   5.590   3.765
 6491TIP3    H119416   5.951   5.540   3.794
 6491TIP3    H219417   5.992   5.662   3.714
 6492TIP3   OH219418   6.535   3.963   1.316
 6492TIP3    H119419   6.576   3.958   1.229
 6492TIP3    H219420   6.527   4.057   1.334
 6493TIP3   OH219421   3.899   5.213   0.846
 6493TIP3    H119422   3.804   5.210   0.861
 6493TIP3    H219423   3.937   5.189   0.930
 6494TIP3   OH219424   1.178   2.355   6.279
 6494TIP3    H119425   1.142   2.442   6.261
 6494TIP3    H219426   1.129   2.296   6.221
 6495TIP3   OH219427   1.933   2.929   4.765
 6495TIP3    H119428   1.985   2.979   4.701
 6495TIP3    H219429   1.847   2.920   4.724
 6496TIP3   OH219430   3.047   6.732   0.259
 6496TIP3    H119431   2.964   6.713   0.215
 6496TIP3    H219432   3.021   6.776   0.340
 6497TIP3   OH219433   5.664   1.127   6.154
 6497TIP3    H119434   5.730   1.123   6.085
 6497TIP3    H219435   5.699   1.070   6.223
 6498TIP3   OH219436   3.535   5.582   5.465
 6498TIP3    H119437   3.503   5.640   5.535
 6498TIP3    H219438   3.499   5.496   5.488
 6499TIP3   OH219439   4.517   4.774   5.816
 6499TIP3    H119440   4.500   4.863   5.848
 6499TIP3    H219441   4.432   4.743   5.784
 6500TIP3   OH219442   7.210   5.174   5.064
 6500TIP3    H119443   7.152   5.108   5.101
 6500TIP3    H219444   7.296   5.132   5.059
 6501TIP3   OH219445   1.087   1.020   4.111
 6501TIP3    H119446   1.180   1.007   4.095
 6501TIP3    H219447   1.082   1.107   4.151
 6502TIP3   OH219448   5.268   6.997   5.867
 6502TIP3    H119449   5.246   6.951   5.947
 6502TIP3    H219450   5.343   6.950   5.831
 6503TIP3   OH219451   6.317   1.888   4.342
 6503TIP3    H119452   6.314   1.850   4.430
 6503TIP3    H219453   6.246   1.845   4.294
 6504TIP3   OH219454   4.725   0.479   4.212
 6504TIP3    H119455   4.644   0.447   4.251
 6504TIP3    H219456   4.794   0.424   4.250
 6505TIP3   OH219457   2.373   6.952   1.416
 6505TIP3    H119458   2.329   6.996   1.489
 6505TIP3    H219459   2.391   6.864   1.448
 6506TIP3   OH219460   7.187   7.345   0.813
 6506TIP3    H119461   7.168   7.349   0.719
 6506TIP3    H219462   7.168   7.254   0.837
 6507TIP3   OH219463   4.026   6.387   6.686
 6507TIP3    H119464   3.938   6.360   6.711
 6507TIP3    H219465   4.077   6.380   6.767
 6508TIP3   OH219466   2.886   3.342   2.124
 6508TIP3    H119467   2.849   3.425   2.156
 6508TIP3    H219468   2.973   3.366   2.092
 6509TIP3   OH219469   3.323   5.393   5.539
 6509TIP3    H119470   3.266   5.329   5.495
 6509TIP3    H219471   3.386   5.340   5.588
 6510TIP3   OH219472   3.416   0.056   5.687
 6510TIP3    H119473   3.406  -0.008   5.758
 6510TIP3    H219474   3.328   0.065   5.650
 6511TIP3   OH219475   7.618   2.211   0.592
 6511TIP3    H119476   7.524   2.208   0.577
 6511TIP3    H219477   7.633   2.296   0.635
 6512TIP3   OH219478   2.305   6.784   3.517
 6512TIP3    H119479   2.342   6.735   3.591
 6512TIP3    H219480   2.339   6.873   3.528
 6513TIP3   OH219481   2.980   3.499   6.466
 6513TIP3    H119482   2.929   3.461   6.394
 6513TIP3    H219483   3.011   3.583   6.432
 6514TIP3   OH219484   1.835   6.572   5.036
 6514TIP3    H119485   1.917   6.581   4.987
 6514TIP3    H219486   1.852   6.500   5.097
 6515TIP3   OH219487   4.554   7.525   6.255
 6515TIP3    H119488   4.467   7.559   6.272
 6515TIP3    H219489   4.542   7.431   6.243
 6516TIP3   OH219490   6.350   0.923   0.822
 6516TIP3    H119491   6.438   0.887   0.806
 6516TIP3    H219492   6.365   1.002   0.873
 6517TIP3   OH219493   7.224   6.964   4.916
 6517TIP3    H119494   7.318   6.960   4.895
 6517TIP3    H219495   7.186   7.016   4.846
 6518TIP3   OH219496   4.318   1.618   5.532
 6518TIP3    H119497   4.347   1.567   5.456
 6518TIP3    H219498   4.277   1.553   5.589
 6519TIP3   OH219499   2.058   6.373   1.425
 6519TIP3    H119500   2.031   6.464   1.435
 6519TIP3    H219501   2.104   6.352   1.506
 6520TIP3   OH219502   3.313   7.013   3.060
 6520TIP3    H119503   3.348   7.101   3.045
 6520TIP3    H219504   3.253   7.024   3.134
 6521TIP3   OH219505   5.288   3.206   1.366
 6521TIP3    H119506   5.253   3.184   1.452
 6521TIP3    H219507   5.308   3.122   1.325
 6522TIP3   OH219508   2.563   4.255   0.656
 6522TIP3    H119509   2.540   4.196   0.584
 6522TIP3    H219510   2.654   4.232   0.678
 6523TIP3   OH219511   0.656   3.534   5.249
 6523TIP3    H119512   0.703   3.453   5.264
 6523TIP3    H219513   0.580   3.529   5.307
 6524TIP3   OH219514   5.592   6.231   3.131
 6524TIP3    H119515   5.593   6.190   3.044
 6524TIP3    H219516   5.620   6.161   3.190
 6525TIP3   OH219517   1.971   2.262   0.970
 6525TIP3    H119518   1.999   2.351   0.949
 6525TIP3    H219519   1.893   2.274   1.024
 6526TIP3   OH219520   1.467   5.470   1.874
 6526TIP3    H119521   1.455   5.410   1.947
 6526TIP3    H219522   1.410   5.544   1.894
 6527TIP3   OH219523   7.326   3.420   5.424
 6527TIP3    H119524   7.274   3.384   5.496
 6527TIP3    H219525   7.355   3.343   5.375
 6528TIP3   OH219526   1.653   3.551   5.810
 6528TIP3    H119527   1.706   3.623   5.846
 6528TIP3    H219528   1.631   3.498   5.886
 6529TIP3   OH219529   5.234   4.259   5.313
 6529TIP3    H119530   5.304   4.210   5.356
 6529TIP3    H219531   5.159   4.250   5.372
 6530TIP3   OH219532   7.537   3.224   1.153
 6530TIP3    H119533   7.479   3.153   1.125
 6530TIP3    H219534   7.575   3.193   1.236
 6531TIP3   OH219535   5.263   5.957   0.806
 6531TIP3    H119536   5.191   5.932   0.748
 6531TIP3    H219537   5.342   5.928   0.760
 6532TIP3   OH219538   1.098   5.364   2.984
 6532TIP3    H119539   1.028   5.417   2.947
 6532TIP3    H219540   1.087   5.278   2.945
 6533TIP3   OH219541   5.592   0.345   2.051
 6533TIP3    H119542   5.597   0.344   1.956
 6533TIP3    H219543   5.560   0.257   2.074
 6534TIP3   OH219544   3.279   4.924   3.838
 6534TIP3    H119545   3.268   4.845   3.891
 6534TIP3    H219546   3.348   4.973   3.883
 6535TIP3   OH219547   3.785   3.154   2.245
 6535TIP3    H119548   3.739   3.204   2.312
 6535TIP3    H219549   3.751   3.188   2.162
 6536TIP3   OH219550   1.335   0.674   6.618
 6536TIP3    H119551   1.362   0.672   6.527
 6536TIP3    H219552   1.412   0.642   6.667
 6537TIP3   OH219553   3.230   3.154   3.200
 6537TIP3    H119554   3.249   3.199   3.283
 6537TIP3    H219555   3.235   3.061   3.222
 6538TIP3   OH219556   0.842   7.231   2.719
 6538TIP3    H119557   0.826   7.248   2.627
 6538TIP3    H219558   0.840   7.317   2.761
 6539TIP3   OH219559   8.183   3.325   0.169
 6539TIP3    H119560   8.190   3.416   0.198
 6539TIP3    H219561   8.125   3.329   0.093
 6540TIP3   OH219562   5.646   2.499   5.565
 6540TIP3    H119563   5.700   2.449   5.626
 6540TIP3    H219564   5.690   2.490   5.481
 6541TIP3   OH219565   0.004   1.571   3.617
 6541TIP3    H119566   0.023   1.484   3.652
 6541TIP3    H219567   0.060   1.629   3.668
 6542TIP3   OH219568   8.223   6.181   0.288
 6542TIP3    H119569   8.230   6.116   0.358
 6542TIP3    H219570   8.283   6.251   0.315
 6543TIP3   OH219571   7.494   1.178   4.197
 6543TIP3    H119572   7.483   1.125   4.276
 6543TIP3    H219573   7.443   1.257   4.214
 6544TIP3   OH219574   8.255   6.741   2.552
 6544TIP3    H119575   8.192   6.676   2.584
 6544TIP3    H219576   8.269   6.800   2.626
 6545TIP3   OH219577   2.284   2.227   6.480
 6545TIP3    H119578   2.320   2.146   6.444
 6545TIP3    H219579   2.345   2.295   6.453
 6546TIP3   OH219580   1.453   2.010   0.075
 6546TIP3    H119581   1.396   1.975   0.144
 6546TIP3    H219582   1.392   2.051   0.012
 6547TIP3   OH219583   0.449   1.830   0.904
 6547TIP3    H119584   0.521   1.786   0.949
 6547TIP3    H219585   0.379   1.834   0.969
 6548TIP3   OH219586   6.960   3.879   1.290
 6548TIP3    H119587   6.899   3.863   1.219
 6548TIP3    H219588   7.021   3.945   1.256
 6549TIP3   OH219589   5.798   4.292   1.013
 6549TIP3    H119590   5.770   4.213   0.966
 6549TIP3    H219591   5.879   4.318   0.969
 6550TIP3   OH219592   1.764   0.631   2.674
 6550TIP3    H119593   1.849   0.654   2.711
 6550TIP3    H219594   1.779   0.630   2.579
 6551TIP3   OH219595   0.052   2.989   1.107
 6551TIP3    H119596   0.082   2.942   1.029
 6551TIP3    H219597   0.036   2.920   1.171
 6552TIP3   OH219598   0.707   1.186   1.100
 6552TIP3    H119599   0.715   1.193   1.005
 6552TIP3    H219600   0.651   1.110   1.114
 6553TIP3   OH219601   2.372   0.177   1.086
 6553TIP3    H119602   2.337   0.126   1.014
 6553TIP3    H219603   2.369   0.117   1.161
 6554TIP3   OH219604   6.556   1.964   1.000
 6554TIP3    H119605   6.472   2.000   1.027
 6554TIP3    H219606   6.546   1.869   1.008
 6555TIP3   OH219607   7.451   1.480   5.624
 6555TIP3    H119608   7.477   1.412   5.687
 6555TIP3    H219609   7.464   1.439   5.538
 6556TIP3   OH219610   2.346   1.658   6.412
 6556TIP3    H119611   2.419   1.598   6.398
 6556TIP3    H219612   2.318   1.642   6.502
 6557TIP3   OH219613   5.368   6.706   3.157
 6557TIP3    H119614   5.412   6.696   3.241
 6557TIP3    H219615   5.396   6.631   3.105
 6558TIP3   OH219616   5.738   3.891   4.630
 6558TIP3    H119617   5.644   3.883   4.614
 6558TIP3    H219618   5.778   3.836   4.562
 6559TIP3   OH219619   4.488   0.457   4.378
 6559TIP3    H119620   4.401   0.488   4.402
 6559TIP3    H219621   4.548   0.521   4.414
 6560TIP3   OH219622   5.854   6.628   0.276
 6560TIP3    H119623   5.804   6.707   0.256
 6560TIP3    H219624   5.812   6.591   0.353
 6561TIP3   OH219625   7.905   0.216   3.762
 6561TIP3    H119626   7.880   0.179   3.677
 6561TIP3    H219627   7.930   0.141   3.815
 6562TIP3   OH219628   3.800   0.319   0.449
 6562TIP3    H119629   3.718   0.331   0.401
 6562TIP3    H219630   3.845   0.403   0.440
 6563TIP3   OH219631   5.457   5.948   4.579
 6563TIP3    H119632   5.488   5.884   4.514
 6563TIP3    H219633   5.439   5.896   4.657
 6564TIP3   OH219634   1.579   4.288   2.242
 6564TIP3    H119635   1.647   4.222   2.232
 6564TIP3    H219636   1.621   4.358   2.293
 6565TIP3   OH219637   3.382   4.158   0.477
 6565TIP3    H119638   3.472   4.127   0.471
 6565TIP3    H219639   3.381   4.238   0.424
 6566TIP3   OH219640   7.155   4.555   4.520
 6566TIP3    H119641   7.172   4.461   4.527
 6566TIP3    H219642   7.059   4.560   4.512
 6567TIP3   OH219643   6.343   6.101   2.470
 6567TIP3    H119644   6.296   6.062   2.544
 6567TIP3    H219645   6.435   6.079   2.485
 6568TIP3   OH219646   2.543   3.998   3.193
 6568TIP3    H119647   2.462   3.986   3.144
 6568TIP3    H219648   2.584   4.075   3.152
 6569TIP3   OH219649   6.860   3.408   3.071
 6569TIP3    H119650   6.871   3.320   3.109
 6569TIP3    H219651   6.844   3.465   3.147
 6570TIP3   OH219652   4.663   6.962   3.976
 6570TIP3    H119653   4.616   6.903   3.916
 6570TIP3    H219654   4.720   7.014   3.919
 6571TIP3   OH219655   7.216   2.219   4.479
 6571TIP3    H119656   7.287   2.276   4.509
 6571TIP3    H219657   7.252   2.177   4.401
 6572TIP3   OH219658   0.458   5.828   5.042
 6572TIP3    H119659   0.435   5.840   5.135
 6572TIP3    H219660   0.512   5.904   5.021
 6573TIP3   OH219661   2.163   7.027   1.272
 6573TIP3    H119662   2.241   7.000   1.320
 6573TIP3    H219663   2.150   7.118   1.297
 6574TIP3   OH219664   2.361   2.943   6.123
 6574TIP3    H119665   2.378   2.850   6.114
 6574TIP3    H219666   2.379   2.963   6.215
 6575TIP3   OH219667   1.763   2.341   2.386
 6575TIP3    H119668   1.725   2.254   2.404
 6575TIP3    H219669   1.766   2.345   2.290
 6576TIP3   OH219670   1.997   5.746   5.026
 6576TIP3    H119671   1.969   5.662   4.990
 6576TIP3    H219672   2.092   5.738   5.032
 6577TIP3   OH219673   7.986   5.169   3.497
 6577TIP3    H119674   8.076   5.136   3.492
 6577TIP3    H219675   7.987   5.228   3.572
 6578TIP3   OH219676   2.354   6.383   3.652
 6578TIP3    H119677   2.314   6.399   3.567
 6578TIP3    H219678   2.397   6.466   3.674
 6579TIP3   OH219679   3.493   1.863   0.181
 6579TIP3    H119680   3.456   1.908   0.105
 6579TIP3    H219681   3.475   1.921   0.255
 6580TIP3   OH219682   3.611   5.295   3.094
 6580TIP3    H119683   3.596   5.307   3.000
 6580TIP3    H219684   3.632   5.383   3.126
 6581TIP3   OH219685   3.859   1.187   0.945
 6581TIP3    H119686   3.925   1.223   1.004
 6581TIP3    H219687   3.848   1.096   0.974
 6582TIP3   OH219688   6.341   6.066   6.365
 6582TIP3    H119689   6.356   5.972   6.352
 6582TIP3    H219690   6.423   6.098   6.402
 6583TIP3   OH219691   2.970   4.992   0.608
 6583TIP3    H119692   3.060   5.000   0.639
 6583TIP3    H219693   2.925   5.068   0.645
 6584TIP3   OH219694   3.319   0.223   4.655
 6584TIP3    H119695   3.279   0.305   4.627
 6584TIP3    H219696   3.265   0.193   4.728
 6585TIP3   OH219697   1.452   2.343   4.605
 6585TIP3    H119698   1.470   2.308   4.692
 6585TIP3    H219699   1.381   2.406   4.618
 6586TIP3   OH219700   4.156   3.589   0.429
 6586TIP3    H119701   4.173   3.544   0.511
 6586TIP3    H219702   4.081   3.543   0.391
 6587TIP3   OH219703   7.686   4.832   1.460
 6587TIP3    H119704   7.704   4.912   1.510
 6587TIP3    H219705   7.718   4.762   1.516
 6588TIP3   OH219706   5.268   4.809   5.073
 6588TIP3    H119707   5.339   4.850   5.124
 6588TIP3    H219708   5.314   4.756   5.008
 6589TIP3   OH219709   5.117   6.033   5.054
 6589TIP3    H119710   5.053   6.053   5.121
 6589TIP3    H219711   5.067   5.989   4.985
 6590TIP3   OH219712   3.493   0.254   4.194
 6590TIP3    H119713   3.429   0.283   4.128
 6590TIP3    H219714   3.520   0.335   4.238
 6591TIP3   OH219715   5.876   6.457   0.030
 6591TIP3    H119716   5.880   6.511   0.108
 6591TIP3    H219717   5.871   6.367   0.063
 6592TIP3   OH219718   5.676   5.143   2.089
 6592TIP3    H119719   5.702   5.228   2.054
 6592TIP3    H219720   5.610   5.163   2.155
 6593TIP3   OH219721   6.826   0.408   1.958
 6593TIP3    H119722   6.828   0.312   1.953
 6593TIP3    H219723   6.909   0.431   2.000
 6594TIP3   OH219724   3.579   4.705   5.690
 6594TIP3    H119725   3.544   4.754   5.765
 6594TIP3    H219726   3.593   4.772   5.623
 6595TIP3   OH219727   3.649   5.891   0.104
 6595TIP3    H119728   3.641   5.948   0.181
 6595TIP3    H219729   3.561   5.858   0.089
 6596TIP3   OH219730   5.100   4.627   2.098
 6596TIP3    H119731   5.179   4.587   2.135
 6596TIP3    H219732   5.100   4.600   2.006
 6597TIP3   OH219733   2.215   7.437   2.204
 6597TIP3    H119734   2.306   7.419   2.225
 6597TIP3    H219735   2.173   7.450   2.289
 6598TIP3   OH219736   3.132   6.892   3.466
 6598TIP3    H119737   3.050   6.864   3.507
 6598TIP3    H219738   3.200   6.843   3.514
 6599TIP3   OH219739   1.865   7.274   1.419
 6599TIP3    H119740   1.806   7.198   1.422
 6599TIP3    H219741   1.950   7.237   1.398
 6600TIP3   OH219742   4.549   0.225   4.022
 6600TIP3    H119743   4.550   0.209   4.117
 6600TIP3    H219744   4.594   0.149   3.985
 6601TIP3   OH219745   7.652   4.656   0.210
 6601TIP3    H119746   7.739   4.621   0.228
 6601TIP3    H219747   7.597   4.578   0.199
 6602TIP3   OH219748   2.601   4.912   3.796
 6602TIP3    H119749   2.679   4.914   3.852
 6602TIP3    H219750   2.562   4.999   3.806
 6603TIP3   OH219751   7.679   6.141   6.176
 6603TIP3    H119752   7.652   6.218   6.226
 6603TIP3    H219753   7.604   6.121   6.121
 6604TIP3   OH219754   5.848   2.061   4.922
 6604TIP3    H119755   5.803   2.146   4.925
 6604TIP3    H219756   5.871   2.049   4.830
 6605TIP3   OH219757   2.094   4.250   5.480
 6605TIP3    H119758   2.021   4.246   5.542
 6605TIP3    H219759   2.157   4.186   5.512
 6606TIP3   OH219760   5.159   2.095   1.086
 6606TIP3    H119761   5.159   2.154   1.161
 6606TIP3    H219762   5.070   2.061   1.081
 6607TIP3   OH219763   5.160   3.355   1.179
 6607TIP3    H119764   5.224   3.426   1.172
 6607TIP3    H219765   5.202   3.291   1.237
 6608TIP3   OH219766   7.877   5.201   2.238
 6608TIP3    H119767   7.845   5.141   2.306
 6608TIP3    H219768   7.911   5.144   2.170
 6609TIP3   OH219769   2.300   2.308   2.345
 6609TIP3    H119770   2.355   2.382   2.374
 6609TIP3    H219771   2.341   2.279   2.264
 6610TIP3   OH219772   3.963   0.711   5.407
 6610TIP3    H119773   3.919   0.782   5.454
 6610TIP3    H219774   3.998   0.655   5.475
 6611TIP3   OH219775   1.477   6.182   5.392
 6611TIP3    H119776   1.491   6.255   5.453
 6611TIP3    H219777   1.520   6.210   5.311
 6612TIP3   OH219778   5.806   4.904   2.546
 6612TIP3    H119779   5.815   4.893   2.451
 6612TIP3    H219780   5.753   4.983   2.556
 6613TIP3   OH219781   1.549   6.229   6.551
 6613TIP3    H119782   1.616   6.180   6.600
 6613TIP3    H219783   1.467   6.210   6.598
 6614TIP3   OH219784   7.541   5.504   3.911
 6614TIP3    H119785   7.496   5.429   3.872
 6614TIP3    H219786   7.504   5.512   3.999
 6615TIP3   OH219787   0.748   4.487   4.231
 6615TIP3    H119788   0.821   4.463   4.174
 6615TIP3    H219789   0.780   4.563   4.280
 6616TIP3   OH219790   4.108   7.515   1.173
 6616TIP3    H119791   4.078   7.515   1.264
 6616TIP3    H219792   4.106   7.607   1.147
 6617TIP3   OH219793   6.746   2.285   4.403
 6617TIP3    H119794   6.823   2.282   4.461
 6617TIP3    H219795   6.672   2.283   4.463
 6618TIP3   OH219796   2.914   7.730   3.855
 6618TIP3    H119797   2.894   7.781   3.776
 6618TIP3    H219798   2.953   7.649   3.822
 6619TIP3   OH219799   6.964   2.641   6.775
 6619TIP3    H119800   6.948   2.729   6.742
 6619TIP3    H219801   7.057   2.640   6.797
 6620TIP3   OH219802   0.379   7.673   3.398
 6620TIP3    H119803   0.383   7.766   3.421
 6620TIP3    H219804   0.441   7.663   3.326
 6621TIP3   OH219805   6.697   3.177   6.247
 6621TIP3    H119806   6.775   3.232   6.252
 6621TIP3    H219807   6.658   3.197   6.162
 6622TIP3   OH219808   3.356   5.302   1.733
 6622TIP3    H119809   3.384   5.344   1.652
 6622TIP3    H219810   3.261   5.313   1.735
 6623TIP3   OH219811   6.668   5.995   2.529
 6623TIP3    H119812   6.744   5.959   2.482
 6623TIP3    H219813   6.650   5.931   2.598
 6624TIP3   OH219814   1.093   4.705   1.422
 6624TIP3    H119815   1.179   4.661   1.425
 6624TIP3    H219816   1.046   4.669   1.497
 6625TIP3   OH219817   7.975   2.383   6.225
 6625TIP3    H119818   7.960   2.318   6.294
 6625TIP3    H219819   7.951   2.338   6.144
 6626TIP3   OH219820   7.045   4.355   3.871
 6626TIP3    H119821   6.981   4.325   3.806
 6626TIP3    H219822   7.098   4.419   3.825
 6627TIP3   OH219823   6.420   1.383   5.945
 6627TIP3    H119824   6.361   1.327   5.895
 6627TIP3    H219825   6.453   1.326   6.014
 6628TIP3   OH219826   0.707   2.317  -0.009
 6628TIP3    H119827   0.700   2.277   0.078
 6628TIP3    H219828   0.759   2.396   0.005
 6629TIP3   OH219829   0.612   3.403   2.206
 6629TIP3    H119830   0.704   3.395   2.231
 6629TIP3    H219831   0.602   3.494   2.178
 6630TIP3   OH219832   7.510   3.898   1.316
 6630TIP3    H119833   7.487   3.806   1.328
 6630TIP3    H219834   7.598   3.895   1.277
 6631TIP3   OH219835   5.226   7.399   5.903
 6631TIP3    H119836   5.175   7.455   5.961
 6631TIP3    H219837   5.316   7.431   5.912
 6632TIP3   OH219838   0.598   7.575   1.907
 6632TIP3    H119839   0.679   7.608   1.947
 6632TIP3    H219840   0.600   7.609   1.818
 6633TIP3   OH219841   5.957   1.988   6.574
 6633TIP3    H119842   6.037   2.009   6.622
 6633TIP3    H219843   5.888   2.038   6.618
 6634TIP3   OH219844   4.218   5.570   5.048
 6634TIP3    H119845   4.157   5.508   5.088
 6634TIP3    H219846   4.170   5.607   4.974
 6635TIP3   OH219847   3.526   6.040   2.723
 6635TIP3    H119848   3.446   6.092   2.736
 6635TIP3    H219849   3.596   6.094   2.759
 6636TIP3   OH219850   6.093   7.661   0.669
 6636TIP3    H119851   6.149   7.727   0.711
 6636TIP3    H219852   6.153   7.592   0.643
 6637TIP3   OH219853   2.430   1.723   2.013
 6637TIP3    H119854   2.429   1.728   1.918
 6637TIP3    H219855   2.503   1.665   2.034
 6638TIP3   OH219856   0.236   5.124   2.738
 6638TIP3    H119857   0.177   5.086   2.803
 6638TIP3    H219858   0.279   5.196   2.784
 6639TIP3   OH219859   1.892   4.173   3.242
 6639TIP3    H119860   1.921   4.182   3.333
 6639TIP3    H219861   1.803   4.208   3.242
 6640TIP3   OH219862   6.009   1.489   5.334
 6640TIP3    H119863   6.037   1.565   5.385
 6640TIP3    H219864   5.947   1.443   5.391
 6641TIP3   OH219865   6.706   0.376   6.333
 6641TIP3    H119866   6.629   0.329   6.364
 6641TIP3    H219867   6.724   0.440   6.402
 6642TIP3   OH219868   2.157   2.892   4.933
 6642TIP3    H119869   2.208   2.880   4.853
 6642TIP3    H219870   2.073   2.925   4.904
 6643TIP3   OH219871   6.094   0.878   1.955
 6643TIP3    H119872   6.059   0.846   1.871
 6643TIP3    H219873   6.053   0.823   2.021
 6644TIP3   OH219874   6.327   6.828   5.167
 6644TIP3    H119875   6.286   6.756   5.118
 6644TIP3    H219876   6.407   6.789   5.203
 6645TIP3   OH219877   5.591   3.025   0.238
 6645TIP3    H119878   5.627   2.996   0.155
 6645TIP3    H219879   5.648   3.097   0.265
 6646TIP3   OH219880   7.480   3.337   3.298
 6646TIP3    H119881   7.461   3.431   3.296
 6646TIP3    H219882   7.530   3.324   3.379
 6647TIP3   OH219883   0.228   4.603   6.752
 6647TIP3    H119884   0.194   4.518   6.725
 6647TIP3    H219885   0.317   4.605   6.717
 6648TIP3   OH219886   6.888   3.087   3.729
 6648TIP3    H119887   6.967   3.076   3.676
 6648TIP3    H219888   6.910   3.047   3.813
 6649TIP3   OH219889   7.271   6.949   0.135
 6649TIP3    H119890   7.265   6.879   0.200
 6649TIP3    H219891   7.306   6.906   0.057
 6650TIP3   OH219892   2.012   2.894   5.583
 6650TIP3    H119893   2.096   2.909   5.540
 6650TIP3    H219894   2.024   2.812   5.631
 6651TIP3   OH219895   1.417   2.810   1.659
 6651TIP3    H119896   1.398   2.800   1.566
 6651TIP3    H219897   1.347   2.761   1.703
 6652TIP3   OH219898   0.994   6.887   3.500
 6652TIP3    H119899   0.948   6.963   3.535
 6652TIP3    H219900   1.087   6.911   3.504
 6653TIP3   OH219901   3.402   7.096   5.146
 6653TIP3    H119902   3.368   7.015   5.184
 6653TIP3    H219903   3.408   7.157   5.219
 6654TIP3   OH219904   2.991   5.379   3.082
 6654TIP3    H119905   2.902   5.364   3.114
 6654TIP3    H219906   3.018   5.462   3.121
 6655TIP3   OH219907   8.191   0.251   4.216
 6655TIP3    H119908   8.116   0.202   4.249
 6655TIP3    H219909   8.183   0.245   4.121
 6656TIP3   OH219910   4.960   2.685   3.221
 6656TIP3    H119911   4.950   2.778   3.201
 6656TIP3    H219912   4.904   2.671   3.298
 6657TIP3   OH219913   4.688   2.663   5.607
 6657TIP3    H119914   4.613   2.625   5.561
 6657TIP3    H219915   4.649   2.722   5.672
 6658TIP3   OH219916   8.159   1.078   1.491
 6658TIP3    H119917   8.088   1.121   1.444
 6658TIP3    H219918   8.202   1.148   1.540
 6659TIP3   OH219919   1.565   7.507   5.482
 6659TIP3    H119920   1.582   7.487   5.574
 6659TIP3    H219921   1.470   7.509   5.475
 6660TIP3   OH219922   4.697   5.806   1.889
 6660TIP3    H119923   4.679   5.800   1.795
 6660TIP3    H219924   4.672   5.895   1.913
 6661TIP3   OH219925   4.834   1.524   6.555
 6661TIP3    H119926   4.905   1.585   6.575
 6661TIP3    H219927   4.844   1.454   6.619
 6662TIP3   OH219928   3.557   4.684   1.209
 6662TIP3    H119929   3.601   4.703   1.126
 6662TIP3    H219930   3.603   4.737   1.274
 6663TIP3   OH219931   2.139   3.632   4.023
 6663TIP3    H119932   2.121   3.696   4.092
 6663TIP3    H219933   2.064   3.638   3.964
 6664TIP3   OH219934   6.399   7.667   0.298
 6664TIP3    H119935   6.371   7.661   0.389
 6664TIP3    H219936   6.445   7.584   0.281
 6665TIP3   OH219937   5.643   3.593   2.511
 6665TIP3    H119938   5.570   3.533   2.526
 6665TIP3    H219939   5.619   3.641   2.432
 6666TIP3   OH219940   5.346   3.389   3.507
 6666TIP3    H119941   5.307   3.333   3.440
 6666TIP3    H219942   5.280   3.458   3.521
 6667TIP3   OH219943   4.223   6.317   3.023
 6667TIP3    H119944   4.298   6.325   3.081
 6667TIP3    H219945   4.150   6.297   3.081
 6668TIP3   OH219946   3.364   6.823   1.368
 6668TIP3    H119947   3.405   6.904   1.397
 6668TIP3    H219948   3.416   6.797   1.291
 6669TIP3   OH219949   8.124   4.159   0.585
 6669TIP3    H119950   8.106   4.135   0.676
 6669TIP3    H219951   8.193   4.224   0.591
 6670TIP3   OH219952   4.338   1.300   2.706
 6670TIP3    H119953   4.276   1.228   2.696
 6670TIP3    H219954   4.371   1.291   2.795
 6671TIP3   OH219955   7.708   6.858   0.907
 6671TIP3    H119956   7.741   6.778   0.867
 6671TIP3    H219957   7.647   6.894   0.842
 6672TIP3   OH219958   0.797   1.739   2.948
 6672TIP3    H119959   0.879   1.788   2.951
 6672TIP3    H219960   0.741   1.783   3.013
 6673TIP3   OH219961   0.199   3.064   5.304
 6673TIP3    H119962   0.135   3.089   5.238
 6673TIP3    H219963   0.238   3.147   5.332
 6674TIP3   OH219964  -0.001   6.244   4.445
 6674TIP3    H119965   0.026   6.294   4.522
 6674TIP3    H219966   0.062   6.172   4.440
 6675TIP3   OH219967   3.430   6.611   4.280
 6675TIP3    H119968   3.512   6.657   4.266
 6675TIP3    H219969   3.455   6.520   4.295
 6676TIP3   OH219970   1.327   2.988   5.991
 6676TIP3    H119971   1.251   2.964   6.044
 6676TIP3    H219972   1.289   3.025   5.911
 6677TIP3   OH219973   2.862   6.918   5.402
 6677TIP3    H119974   2.956   6.922   5.423
 6677TIP3    H219975   2.839   7.008   5.378
 6678TIP3   OH219976   1.107   3.891   4.230
 6678TIP3    H119977   1.172   3.878   4.298
 6678TIP3    H219978   1.030   3.842   4.261
 6679TIP3   OH219979   3.711   1.489   5.495
 6679TIP3    H119980   3.671   1.501   5.581
 6679TIP3    H219981   3.776   1.420   5.509
 6680TIP3   OH219982   6.975   6.635   5.878
 6680TIP3    H119983   7.003   6.701   5.814
 6680TIP3    H219984   6.972   6.554   5.828
 6681TIP3   OH219985   5.391   1.916   3.091
 6681TIP3    H119986   5.445   1.873   3.158
 6681TIP3    H219987   5.403   1.862   3.012
 6682TIP3   OH219988   3.312   2.848   0.914
 6682TIP3    H119989   3.298   2.935   0.951
 6682TIP3    H219990   3.380   2.809   0.969
 6683TIP3   OH219991   5.507   2.537   0.497
 6683TIP3    H119992   5.521   2.517   0.404
 6683TIP3    H219993   5.591   2.521   0.538
 6684TIP3   OH219994   4.556   4.828   5.033
 6684TIP3    H119995   4.647   4.829   5.003
 6684TIP3    H219996   4.535   4.735   5.044
 6685TIP3   OH219997   2.229   4.079   5.252
 6685TIP3    H119998   2.190   4.089   5.165
 6685TIP3    H219999   2.285   4.156   5.262
 6686TIP3   OH220000   7.116   0.728   2.587
 6686TIP3    H120001   7.138   0.732   2.680
 6686TIP3    H220002   7.076   0.812   2.567
 6687TIP3   OH220003   6.484   5.575   6.730
 6687TIP3    H120004   6.538   5.655   6.735
 6687TIP3    H220005   6.411   5.600   6.674
 6688TIP3   OH220006   7.799   7.249   3.248
 6688TIP3    H120007   7.706   7.270   3.250
 6688TIP3    H220008   7.804   7.170   3.193
 6689TIP3   OH220009   7.429   1.058   3.501
 6689TIP3    H120010   7.423   0.962   3.507
 6689TIP3    H220011   7.371   1.090   3.569
 6690TIP3   OH220012   7.459   7.078   4.536
 6690TIP3    H120013   7.518   7.139   4.492
 6690TIP3    H220014   7.511   7.041   4.607
 6691TIP3   OH220015   0.768   4.587   1.052
 6691TIP3    H120016   0.802   4.641   0.980
 6691TIP3    H220017   0.772   4.497   1.017
 6692TIP3   OH220018   7.357   5.509   0.029
 6692TIP3    H120019   7.269   5.542   0.050
 6692TIP3    H220020   7.357   5.501  -0.066
 6693TIP3   OH220021   3.132   6.608   6.652
 6693TIP3    H120022   3.045   6.646   6.640
 6693TIP3    H220023   3.181   6.637   6.576
 6694TIP3   OH220024   5.225   6.182   4.850
 6694TIP3    H120025   5.203   6.134   4.929
 6694TIP3    H220026   5.148   6.174   4.794
 6695TIP3   OH220027   6.360   2.153   3.538
 6695TIP3    H120028   6.281   2.199   3.511
 6695TIP3    H220029   6.404   2.130   3.456
 6696TIP3   OH220030   3.065   0.565   6.515
 6696TIP3    H120031   3.154   0.598   6.515
 6696TIP3    H220032   3.050   0.536   6.425
 6697TIP3   OH220033   2.254   1.469   4.474
 6697TIP3    H120034   2.252   1.495   4.567
 6697TIP3    H220035   2.175   1.417   4.463
 6698TIP3   OH220036   1.102   6.602   0.680
 6698TIP3    H120037   1.144   6.578   0.597
 6698TIP3    H220038   1.052   6.525   0.705
 6699TIP3   OH220039   3.189   2.750   0.391
 6699TIP3    H120040   3.197   2.681   0.457
 6699TIP3    H220041   3.181   2.831   0.443
 6700TIP3   OH220042   3.985   4.563   4.559
 6700TIP3    H120043   3.940   4.566   4.474
 6700TIP3    H220044   3.961   4.478   4.595
 6701TIP3   OH220045   1.348   3.032   5.379
 6701TIP3    H120046   1.403   3.049   5.302
 6701TIP3    H220047   1.294   2.957   5.354
 6702TIP3   OH220048   6.421   6.450   2.661
 6702TIP3    H120049   6.422   6.503   2.740
 6702TIP3    H220050   6.330   6.424   2.650
 6703TIP3   OH220051   7.881   1.608   5.300
 6703TIP3    H120052   7.857   1.563   5.219
 6703TIP3    H220053   7.800   1.615   5.349
 6704TIP3   OH220054   3.347   4.592   1.080
 6704TIP3    H120055   3.384   4.587   0.991
 6704TIP3    H220056   3.420   4.621   1.135
 6705TIP3   OH220057   0.354   3.557   6.023
 6705TIP3    H120058   0.262   3.530   6.028
 6705TIP3    H220059   0.362   3.599   5.938
 6706TIP3   OH220060   0.085   7.250   2.415
 6706TIP3    H120061  -0.008   7.269   2.399
 6706TIP3    H220062   0.087   7.155   2.428
 6707TIP3   OH220063   4.976   4.120   3.495
 6707TIP3    H120064   5.003   4.205   3.529
 6707TIP3    H220065   5.057   4.078   3.466
 6708TIP3   OH220066   3.190   5.178   3.150
 6708TIP3    H120067   3.149   5.091   3.147
 6708TIP3    H220068   3.119   5.239   3.131
 6709TIP3   OH220069   7.908   6.382   4.243
 6709TIP3    H120070   7.939   6.353   4.157
 6709TIP3    H220071   7.953   6.324   4.305
 6710TIP3   OH220072   3.289   7.726   5.242
 6710TIP3    H120073   3.205   7.760   5.274
 6710TIP3    H220074   3.325   7.677   5.315
 6711TIP3   OH220075   7.155   3.203   4.426
 6711TIP3    H120076   7.118   3.234   4.343
 6711TIP3    H220077   7.079   3.178   4.478
 6712TIP3   OH220078   0.057   6.396   0.974
 6712TIP3    H120079  -0.022   6.418   0.924
 6712TIP3    H220080   0.128   6.402   0.910
 6713TIP3   OH220081   6.670   2.331   3.393
 6713TIP3    H120082   6.667   2.266   3.464
 6713TIP3    H220083   6.604   2.300   3.331
 6714TIP3   OH220084   1.893   1.325   6.207
 6714TIP3    H120085   1.845   1.353   6.285
 6714TIP3    H220086   1.909   1.405   6.158
 6715TIP3   OH220087   6.095   5.523  -0.032
 6715TIP3    H120088   6.060   5.574   0.041
 6715TIP3    H220089   6.117   5.438   0.007
 6716TIP3   OH220090   0.123   6.319   4.700
 6716TIP3    H120091   0.174   6.397   4.681
 6716TIP3    H220092   0.187   6.248   4.701
 6717TIP3   OH220093   8.022   2.468   5.556
 6717TIP3    H120094   8.025   2.459   5.652
 6717TIP3    H220095   7.944   2.520   5.539
 6718TIP3   OH220096   7.412   5.501   4.164
 6718TIP3    H120097   7.329   5.501   4.211
 6718TIP3    H220098   7.475   5.537   4.227
 6719TIP3   OH220099   3.952   3.364   4.324
 6719TIP3    H120100   3.968   3.275   4.355
 6719TIP3    H220101   3.871   3.391   4.366
 6720TIP3   OH220102   6.056   0.937   6.746
 6720TIP3    H120103   6.115   1.012   6.742
 6720TIP3    H220104   5.976   0.967   6.701
 6721TIP3   OH220105   2.747   3.712   3.646
 6721TIP3    H120106   2.752   3.771   3.572
 6721TIP3    H220107   2.656   3.717   3.675
 6722TIP3   OH220108   2.753   5.773   5.928
 6722TIP3    H120109   2.796   5.858   5.937
 6722TIP3    H220110   2.660   5.793   5.918
 6723TIP3   OH220111   6.115   0.260   1.197
 6723TIP3    H120112   6.199   0.241   1.155
 6723TIP3    H220113   6.076   0.174   1.214
 6724TIP3   OH220114   6.191   0.143   2.212
 6724TIP3    H120115   6.104   0.107   2.227
 6724TIP3    H220116   6.176   0.235   2.192
 6725TIP3   OH220117   5.557   2.293   1.287
 6725TIP3    H120118   5.582   2.380   1.254
 6725TIP3    H220119   5.473   2.307   1.331
 6726TIP3   OH220120   6.221   2.271   0.513
 6726TIP3    H120121   6.202   2.201   0.576
 6726TIP3    H220122   6.259   2.341   0.567
 6727TIP3   OH220123   2.652   6.983   5.656
 6727TIP3    H120124   2.557   6.995   5.651
 6727TIP3    H220125   2.686   7.032   5.581
 6728TIP3   OH220126   6.159   7.313   3.727
 6728TIP3    H120127   6.134   7.404   3.743
 6728TIP3    H220128   6.237   7.319   3.672
 6729TIP3   OH220129   1.456   4.525   6.378
 6729TIP3    H120130   1.422   4.443   6.415
 6729TIP3    H220131   1.484   4.502   6.289
 6730TIP3   OH220132   7.793   2.170   5.402
 6730TIP3    H120133   7.737   2.247   5.414
 6730TIP3    H220134   7.880   2.199   5.428
 6731TIP3   OH220135   2.056   5.155   3.716
 6731TIP3    H120136   2.113   5.221   3.677
 6731TIP3    H220137   1.978   5.203   3.744
 6732TIP3   OH220138   8.021   2.290   1.515
 6732TIP3    H120139   8.060   2.302   1.602
 6732TIP3    H220140   7.945   2.348   1.515
 6733TIP3   OH220141   4.947   0.964   4.238
 6733TIP3    H120142   5.007   0.959   4.163
 6733TIP3    H220143   4.860   0.960   4.198
 6734TIP3   OH220144   3.572   1.139   1.204
 6734TIP3    H120145   3.520   1.095   1.137
 6734TIP3    H220146   3.641   1.077   1.226
 6735TIP3   OH220147   6.528   6.467   6.322
 6735TIP3    H120148   6.438   6.487   6.348
 6735TIP3    H220149   6.528   6.473   6.227
 6736TIP3   OH220150   7.457   3.718   1.884
 6736TIP3    H120151   7.456   3.693   1.976
 6736TIP3    H220152   7.408   3.800   1.880
 6737TIP3   OH220153   6.971   1.827   6.111
 6737TIP3    H120154   6.948   1.758   6.173
 6737TIP3    H220155   7.046   1.791   6.062
 6738TIP3   OH220156   2.881   6.533   2.507
 6738TIP3    H120157   2.842   6.522   2.420
 6738TIP3    H220158   2.872   6.447   2.549
 6739TIP3   OH220159   3.229   7.741   6.459
 6739TIP3    H120160   3.262   7.680   6.392
 6739TIP3    H220161   3.304   7.753   6.518
 6740TIP3   OH220162   1.034   1.274   4.217
 6740TIP3    H120163   1.004   1.252   4.305
 6740TIP3    H220164   0.960   1.317   4.176
 6741TIP3   OH220165   5.098   5.554   4.135
 6741TIP3    H120166   5.127   5.479   4.083
 6741TIP3    H220167   5.073   5.516   4.219
 6742TIP3   OH220168   8.128   3.866   3.428
 6742TIP3    H120169   8.198   3.926   3.401
 6742TIP3    H220170   8.050   3.921   3.433
 6743TIP3   OH220171   0.896   0.415   0.064
 6743TIP3    H120172   0.868   0.505   0.048
 6743TIP3    H220173   0.844   0.362   0.004
 6744TIP3   OH220174   5.477   3.912   2.994
 6744TIP3    H120175   5.512   3.981   2.938
 6744TIP3    H220176   5.417   3.957   3.053
 6745TIP3   OH220177   4.740   4.874   4.339
 6745TIP3    H120178   4.712   4.934   4.408
 6745TIP3    H220179   4.828   4.905   4.315
 6746TIP3   OH220180   0.845   3.205   5.093
 6746TIP3    H120181   0.819   3.140   5.159
 6746TIP3    H220182   0.765   3.219   5.042
 6747TIP3   OH220183   0.832   1.830   0.868
 6747TIP3    H120184   0.842   1.805   0.777
 6747TIP3    H220185   0.920   1.826   0.905
 6748TIP3   OH220186   3.133   1.261   1.252
 6748TIP3    H120187   3.149   1.324   1.182
 6748TIP3    H220188   3.160   1.177   1.216
 6749TIP3   OH220189   7.863   4.790   0.698
 6749TIP3    H120190   7.843   4.706   0.658
 6749TIP3    H220191   7.846   4.777   0.792
 6750TIP3   OH220192   6.563   3.675   4.724
 6750TIP3    H120193   6.500   3.732   4.680
 6750TIP3    H220194   6.581   3.606   4.659
 6751TIP3   OH220195   4.793   4.800   3.141
 6751TIP3    H120196   4.827   4.889   3.149
 6751TIP3    H220197   4.732   4.791   3.215
 6752TIP3   OH220198   1.406   2.646   4.469
 6752TIP3    H120199   1.344   2.574   4.467
 6752TIP3    H220200   1.379   2.699   4.544
 6753TIP3   OH220201   4.275   3.335   1.413
 6753TIP3    H120202   4.284   3.297   1.500
 6753TIP3    H220203   4.294   3.428   1.424
 6754TIP3   OH220204   8.218   2.012   4.999
 6754TIP3    H120205   8.209   1.927   4.958
 6754TIP3    H220206   8.245   2.071   4.928
 6755TIP3   OH220207   2.220   6.774   4.991
 6755TIP3    H120208   2.190   6.842   4.930
 6755TIP3    H220209   2.279   6.719   4.938
 6756TIP3   OH220210   5.264   2.035   1.466
 6756TIP3    H120211   5.337   2.049   1.526
 6756TIP3    H220212   5.248   2.120   1.426
 6757TIP3   OH220213   3.016   0.666   0.421
 6757TIP3    H120214   3.099   0.654   0.468
 6757TIP3    H220215   3.022   0.608   0.346
 6758TIP3   OH220216   4.358   1.154   6.396
 6758TIP3    H120217   4.357   1.059   6.388
 6758TIP3    H220218   4.441   1.181   6.358
 6759TIP3   OH220219   6.877   7.647   1.571
 6759TIP3    H120220   6.865   7.624   1.663
 6759TIP3    H220221   6.970   7.632   1.555
 6760TIP3   OH220222   6.845   4.164   1.037
 6760TIP3    H120223   6.778   4.133   0.975
 6760TIP3    H220224   6.923   4.114   1.014
 6761TIP3   OH220225   2.810   5.234   0.397
 6761TIP3    H120226   2.841   5.198   0.480
 6761TIP3    H220227   2.856   5.183   0.330
 6762TIP3   OH220228   2.949   0.056   4.381
 6762TIP3    H120229   3.031   0.008   4.388
 6762TIP3    H220230   2.934   0.065   4.287
 6763TIP3   OH220231   4.861   2.205   2.547
 6763TIP3    H120232   4.890   2.170   2.463
 6763TIP3    H220233   4.931   2.264   2.575
 6764TIP3   OH220234   1.354   3.230   3.695
 6764TIP3    H120235   1.268   3.262   3.669
 6764TIP3    H220236   1.401   3.308   3.724
 6765TIP3   OH220237   6.340   3.588   2.306
 6765TIP3    H120238   6.396   3.662   2.331
 6765TIP3    H220239   6.284   3.574   2.383
 6766TIP3   OH220240   5.791   7.751   6.553
 6766TIP3    H120241   5.798   7.709   6.467
 6766TIP3    H220242   5.725   7.699   6.600
 6767TIP3   OH220243   1.148   1.656   2.593
 6767TIP3    H120244   1.053   1.645   2.582
 6767TIP3    H220245   1.172   1.590   2.658
 6768TIP3   OH220246   8.276   1.386   5.528
 6768TIP3    H120247   8.185   1.381   5.556
 6768TIP3    H220248   8.295   1.299   5.493
 6769TIP3   OH220249   0.589   4.768   6.064
 6769TIP3    H120250   0.511   4.815   6.095
 6769TIP3    H220251   0.584   4.682   6.106
 6770TIP3   OH220252   1.474   1.437   2.462
 6770TIP3    H120253   1.423   1.421   2.382
 6770TIP3    H220254   1.550   1.379   2.453
 6771TIP3   OH220255   4.105   3.001   2.044
 6771TIP3    H120256   4.150   2.934   1.993
 6771TIP3    H220257   4.013   2.992   2.021
 6772TIP3   OH220258   2.804   0.684   6.015
 6772TIP3    H120259   2.833   0.694   6.106
 6772TIP3    H220260   2.806   0.772   5.979
 6773TIP3   OH220261   5.950   2.335   6.291
 6773TIP3    H120262   5.911   2.249   6.278
 6773TIP3    H220263   5.880   2.396   6.266
 6774TIP3   OH220264   1.233   3.783   0.697
 6774TIP3    H120265   1.167   3.779   0.628
 6774TIP3    H220266   1.220   3.704   0.748
 6775TIP3   OH220267   3.282   2.396   3.484
 6775TIP3    H120268   3.336   2.317   3.486
 6775TIP3    H220269   3.196   2.364   3.454
 6776TIP3   OH220270   6.982   7.684   1.022
 6776TIP3    H120271   7.074   7.690   1.000
 6776TIP3    H220272   6.940   7.751   0.968
 6777TIP3   OH220273   6.641   7.082   5.615
 6777TIP3    H120274   6.566   7.022   5.610
 6777TIP3    H220275   6.642   7.110   5.707
 6778TIP3   OH220276   5.116   1.958   0.466
 6778TIP3    H120277   5.131   2.015   0.541
 6778TIP3    H220278   5.194   1.968   0.411
 6779TIP3   OH220279   6.220   1.999   0.015
 6779TIP3    H120280   6.126   1.981   0.018
 6779TIP3    H220281   6.248   1.996   0.107
 6780TIP3   OH220282   0.039   3.903   1.058
 6780TIP3    H120283   0.133   3.905   1.044
 6780TIP3    H220284   0.011   3.817   1.028
 6781TIP3   OH220285   1.849   4.862   1.592
 6781TIP3    H120286   1.910   4.858   1.666
 6781TIP3    H220287   1.899   4.906   1.522
 6782TIP3   OH220288   7.107   5.785   1.130
 6782TIP3    H120289   7.157   5.704   1.128
 6782TIP3    H220290   7.061   5.782   1.214
 6783TIP3   OH220291   7.083   7.614   4.364
 6783TIP3    H120292   7.100   7.554   4.436
 6783TIP3    H220293   7.090   7.701   4.402
 6784TIP3   OH220294   1.121   0.849   4.744
 6784TIP3    H120295   1.146   0.759   4.720
 6784TIP3    H220296   1.202   0.900   4.733
 6785TIP3   OH220297   6.594   1.291   2.062
 6785TIP3    H120298   6.601   1.340   1.980
 6785TIP3    H220299   6.622   1.353   2.129
 6786TIP3   OH220300   5.712   5.926   4.761
 6786TIP3    H120301   5.705   5.831   4.756
 6786TIP3    H220302   5.703   5.946   4.854
 6787TIP3   OH220303   0.858   1.188   2.290
 6787TIP3    H120304   0.912   1.165   2.215
 6787TIP3    H220305   0.898   1.267   2.325
 6788TIP3   OH220306   5.229   7.355   2.537
 6788TIP3    H120307   5.204   7.319   2.451
 6788TIP3    H220308   5.290   7.291   2.573
 6789TIP3   OH220309   3.664   7.340   4.067
 6789TIP3    H120310   3.722   7.322   3.993
 6789TIP3    H220311   3.666   7.435   4.077
 6790TIP3   OH220312   3.702   5.129   6.740
 6790TIP3    H120313   3.743   5.046   6.763
 6790TIP3    H220314   3.703   5.130   6.644
 6791TIP3   OH220315   6.432   0.851   3.393
 6791TIP3    H120316   6.449   0.902   3.314
 6791TIP3    H220317   6.458   0.762   3.370
 6792TIP3   OH220318   5.631   2.772   5.466
 6792TIP3    H120319   5.615   2.752   5.374
 6792TIP3    H220320   5.687   2.701   5.497
 6793TIP3   OH220321   2.284   7.435   4.483
 6793TIP3    H120322   2.242   7.499   4.426
 6793TIP3    H220323   2.213   7.402   4.539
 6794TIP3   OH220324   3.084   6.819   2.979
 6794TIP3    H120325   3.170   6.852   2.954
 6794TIP3    H220326   3.101   6.730   3.010
 6795TIP3   OH220327   4.093   5.035   2.604
 6795TIP3    H120328   4.110   5.098   2.535
 6795TIP3    H220329   4.062   5.088   2.678
 6796TIP3   OH220330   1.709   6.191   1.579
 6796TIP3    H120331   1.719   6.163   1.670
 6796TIP3    H220332   1.675   6.115   1.533
 6797TIP3   OH220333   1.350   4.925   5.351
 6797TIP3    H120334   1.359   4.978   5.431
 6797TIP3    H220335   1.417   4.857   5.361
 6798TIP3   OH220336   7.711   2.675   6.730
 6798TIP3    H120337   7.775   2.661   6.660
 6798TIP3    H220338   7.737   2.757   6.771
 6799TIP3   OH220339   5.479   7.281   1.847
 6799TIP3    H120340   5.527   7.361   1.827
 6799TIP3    H220341   5.470   7.236   1.763
 6800TIP3   OH220342   7.387   7.142   2.648
 6800TIP3    H120343   7.473   7.170   2.617
 6800TIP3    H220344   7.344   7.105   2.571
 6801TIP3   OH220345   6.045   1.696   0.336
 6801TIP3    H120346   6.056   1.791   0.329
 6801TIP3    H220347   5.976   1.685   0.402
 6802TIP3   OH220348   6.857   6.834   0.959
 6802TIP3    H120349   6.893   6.745   0.953
 6802TIP3    H220350   6.763   6.823   0.941
 6803TIP3   OH220351   7.297   5.249   2.090
 6803TIP3    H120352   7.268   5.159   2.080
 6803TIP3    H220353   7.390   5.242   2.113
 6804TIP3   OH220354   3.576   0.115   4.394
 6804TIP3    H120355   3.576   0.188   4.456
 6804TIP3    H220356   3.539   0.152   4.313
 6805TIP3   OH220357   4.768   2.760   2.722
 6805TIP3    H120358   4.779   2.761   2.817
 6805TIP3    H220359   4.679   2.794   2.709
 6806TIP3   OH220360   7.646   2.238   1.322
 6806TIP3    H120361   7.715   2.304   1.325
 6806TIP3    H220362   7.566   2.285   1.345
 6807TIP3   OH220363   7.917   0.775   4.720
 6807TIP3    H120364   7.992   0.797   4.776
 6807TIP3    H220365   7.913   0.846   4.657
 6808TIP3   OH220366   5.003   0.058   2.238
 6808TIP3    H120367   4.965   0.140   2.271
 6808TIP3    H220368   5.026   0.009   2.317
 6809TIP3   OH220369   0.731   6.339   1.826
 6809TIP3    H120370   0.796   6.387   1.877
 6809TIP3    H220371   0.757   6.247   1.834
 6810TIP3   OH220372   1.278   2.717   1.995
 6810TIP3    H120373   1.271   2.675   1.910
 6810TIP3    H220374   1.372   2.721   2.013
 6811TIP3   OH220375   7.351   4.163   5.820
 6811TIP3    H120376   7.405   4.084   5.824
 6811TIP3    H220377   7.413   4.234   5.803
 6812TIP3   OH220378   6.715   3.467   6.390
 6812TIP3    H120379   6.660   3.535   6.430
 6812TIP3    H220380   6.705   3.391   6.447
 6813TIP3   OH220381   5.564   7.349   4.524
 6813TIP3    H120382   5.514   7.268   4.528
 6813TIP3    H220383   5.509   7.414   4.568
 6814TIP3   OH220384   0.036   4.088   2.029
 6814TIP3    H120385   0.007   4.038   1.954
 6814TIP3    H220386   0.025   4.029   2.104
 6815TIP3   OH220387   7.302   6.149   1.610
 6815TIP3    H120388   7.289   6.241   1.631
 6815TIP3    H220389   7.385   6.126   1.653
 6816TIP3   OH220390   6.144   7.667   6.690
 6816TIP3    H120391   6.199   7.680   6.768
 6816TIP3    H220392   6.063   7.714   6.710
 6817TIP3   OH220393   7.452   7.307   1.178
 6817TIP3    H120394   7.415   7.220   1.167
 6817TIP3    H220395   7.433   7.352   1.096
 6818TIP3   OH220396   6.262   0.493   5.707
 6818TIP3    H120397   6.238   0.532   5.623
 6818TIP3    H220398   6.333   0.432   5.687
 6819TIP3   OH220399   3.656   0.404   6.471
 6819TIP3    H120400   3.691   0.493   6.471
 6819TIP3    H220401   3.697   0.362   6.547
 6820TIP3   OH220402   0.223   1.912   2.623
 6820TIP3    H120403   0.272   1.975   2.570
 6820TIP3    H220404   0.157   1.876   2.563
 6821TIP3   OH220405   6.360   4.743   3.288
 6821TIP3    H120406   6.323   4.812   3.232
 6821TIP3    H220407   6.442   4.780   3.320
 6822TIP3   OH220408   0.930   3.577   4.604
 6822TIP3    H120409   0.983   3.657   4.604
 6822TIP3    H220410   0.839   3.608   4.605
 6823TIP3   OH220411   3.901   4.433   5.326
 6823TIP3    H120412   3.913   4.431   5.231
 6823TIP3    H220413   3.891   4.526   5.347
 6824TIP3   OH220414   2.532   5.611   6.051
 6824TIP3    H120415   2.603   5.552   6.074
 6824TIP3    H220416   2.535   5.680   6.118
 6825TIP3   OH220417   2.242   4.347   3.472
 6825TIP3    H120418   2.310   4.342   3.405
 6825TIP3    H220419   2.264   4.424   3.524
 6826TIP3   OH220420   4.093   6.768   4.849
 6826TIP3    H120421   4.105   6.827   4.923
 6826TIP3    H220422   4.164   6.791   4.788
 6827TIP3   OH220423   2.974   2.216   5.156
 6827TIP3    H120424   2.988   2.161   5.233
 6827TIP3    H220425   3.024   2.295   5.174
 6828TIP3   OH220426   3.305   2.357   1.382
 6828TIP3    H120427   3.214   2.361   1.414
 6828TIP3    H220428   3.299   2.309   1.300
 6829TIP3   OH220429   1.241   0.818   0.096
 6829TIP3    H120430   1.319   0.874   0.102
 6829TIP3    H220431   1.237   0.775   0.181
 6830TIP3   OH220432   2.099   3.944   5.807
 6830TIP3    H120433   2.089   3.853   5.778
 6830TIP3    H220434   2.106   3.938   5.903
 6831TIP3   OH220435   2.979   5.693   1.091
 6831TIP3    H120436   2.984   5.763   1.157
 6831TIP3    H220437   3.038   5.625   1.123
 6832TIP3   OH220438   3.995   2.454   1.969
 6832TIP3    H120439   4.005   2.363   1.943
 6832TIP3    H220440   4.031   2.504   1.895
 6833TIP3   OH220441   2.198   0.903   6.299
 6833TIP3    H120442   2.284   0.907   6.256
 6833TIP3    H220443   2.159   0.989   6.284
 6834TIP3   OH220444   7.578   6.728   2.651
 6834TIP3    H120445   7.579   6.659   2.717
 6834TIP3    H220446   7.563   6.808   2.701
 6835TIP3   OH220447   7.360   4.440   0.597
 6835TIP3    H120448   7.428   4.412   0.537
 6835TIP3    H220449   7.289   4.470   0.541
 6836TIP3   OH220450   1.185   4.704   2.456
 6836TIP3    H120451   1.152   4.717   2.545
 6836TIP3    H220452   1.126   4.640   2.417
 6837TIP3   OH220453   5.379   2.088   3.330
 6837TIP3    H120454   5.369   2.063   3.239
 6837TIP3    H220455   5.471   2.115   3.338
 6838TIP3   OH220456   6.838   4.008   4.598
 6838TIP3    H120457   6.899   3.979   4.530
 6838TIP3    H220458   6.842   3.939   4.664
 6839TIP3   OH220459   4.291   1.869   0.668
 6839TIP3    H120460   4.204   1.855   0.631
 6839TIP3    H220461   4.348   1.880   0.592
 6840TIP3   OH220462   5.197   4.418   2.729
 6840TIP3    H120463   5.201   4.334   2.775
 6840TIP3    H220464   5.267   4.413   2.664
 6841TIP3   OH220465   0.153   7.641   6.685
 6841TIP3    H120466   0.130   7.725   6.724
 6841TIP3    H220467   0.206   7.663   6.608
 6842TIP3   OH220468   0.477   6.671   2.273
 6842TIP3    H120469   0.382   6.665   2.258
 6842TIP3    H220470   0.495   6.765   2.268
 6843TIP3   OH220471   0.807   5.657   0.578
 6843TIP3    H120472   0.774   5.588   0.635
 6843TIP3    H220473   0.887   5.687   0.622
 6844TIP3   OH220474   6.280   7.504   0.527
 6844TIP3    H120475   6.267   7.431   0.466
 6844TIP3    H220476   6.375   7.510   0.538
 6845TIP3   OH220477   0.647   7.001   1.303
 6845TIP3    H120478   0.571   7.019   1.358
 6845TIP3    H220479   0.633   6.912   1.270
 6846TIP3   OH220480   8.104   7.113   6.553
 6846TIP3    H120481   8.104   7.068   6.469
 6846TIP3    H220482   8.019   7.155   6.559
 6847TIP3   OH220483   2.216   2.072   4.311
 6847TIP3    H120484   2.139   2.102   4.264
 6847TIP3    H220485   2.220   2.128   4.389
 6848TIP3   OH220486   3.215   4.974   0.721
 6848TIP3    H120487   3.268   4.938   0.792
 6848TIP3    H220488   3.226   5.069   0.729
 6849TIP3   OH220489   2.618   3.782   6.212
 6849TIP3    H120490   2.627   3.704   6.157
 6849TIP3    H220491   2.549   3.833   6.169
 6850TIP3   OH220492   8.253   0.596   2.649
 6850TIP3    H120493   8.168   0.578   2.688
 6850TIP3    H220494   8.243   0.683   2.609
 6851TIP3   OH220495   3.292   5.947   3.037
 6851TIP3    H120496   3.253   5.983   3.116
 6851TIP3    H220497   3.355   6.013   3.009
 6852TIP3   OH220498   0.067   6.756   0.668
 6852TIP3    H120499   0.042   6.670   0.634
 6852TIP3    H220500  -0.004   6.780   0.727
 6853TIP3   OH220501   6.657   7.095   2.219
 6853TIP3    H120502   6.621   7.088   2.131
 6853TIP3    H220503   6.593   7.052   2.275
 6854TIP3   OH220504   4.777   2.921   3.250
 6854TIP3    H120505   4.681   2.929   3.248
 6854TIP3    H220506   4.796   2.888   3.338
 6855TIP3   OH220507   0.344   6.439   2.963
 6855TIP3    H120508   0.415   6.462   3.023
 6855TIP3    H220509   0.302   6.363   3.003
 6856TIP3   OH220510   6.765   4.579   5.165
 6856TIP3    H120511   6.728   4.493   5.187
 6856TIP3    H220512   6.806   4.609   5.246
 6857TIP3   OH220513   0.951   2.577   1.142
 6857TIP3    H120514   0.874   2.524   1.164
 6857TIP3    H220515   0.917   2.666   1.137
 6858TIP3   OH220516   2.701   1.949   3.849
 6858TIP3    H120517   2.731   1.920   3.934
 6858TIP3    H220518   2.761   1.907   3.786
 6859TIP3   OH220519   2.898   3.751   5.236
 6859TIP3    H120520   2.846   3.709   5.304
 6859TIP3    H220521   2.834   3.793   5.179
 6860TIP3   OH220522   2.737   5.914   0.618
 6860TIP3    H120523   2.663   5.962   0.579
 6860TIP3    H220524   2.698   5.832   0.648
 6861TIP3   OH220525   8.058   6.407   5.442
 6861TIP3    H120526   7.987   6.471   5.441
 6861TIP3    H220527   8.077   6.392   5.349
 6862TIP3   OH220528   5.701   4.726   0.228
 6862TIP3    H120529   5.629   4.787   0.214
 6862TIP3    H220530   5.666   4.662   0.290
 6863TIP3   OH220531   6.126   7.176   6.346
 6863TIP3    H120532   6.040   7.162   6.307
 6863TIP3    H220533   6.125   7.267   6.374
 6864TIP3   OH220534   1.175   2.639   0.711
 6864TIP3    H120535   1.127   2.720   0.692
 6864TIP3    H220536   1.206   2.651   0.801
 6865TIP3   OH220537   2.582   7.490   1.460
 6865TIP3    H120538   2.654   7.499   1.523
 6865TIP3    H220539   2.620   7.517   1.376
 6866TIP3   OH220540   0.440   0.944   1.524
 6866TIP3    H120541   0.478   0.894   1.597
 6866TIP3    H220542   0.398   1.019   1.567
 6867TIP3   OH220543   0.892   3.882   0.344
 6867TIP3    H120544   0.827   3.877   0.274
 6867TIP3    H220545   0.969   3.922   0.303
 6868TIP3   OH220546   2.775   1.369   6.305
 6868TIP3    H120547   2.848   1.404   6.253
 6868TIP3    H220548   2.815   1.299   6.357
 6869TIP3   OH220549   2.442   4.094   0.477
 6869TIP3    H120550   2.430   4.100   0.382
 6869TIP3    H220551   2.359   4.059   0.509
 6870TIP3   OH220552   2.892   7.049   4.952
 6870TIP3    H120553   2.829   7.010   5.012
 6870TIP3    H220554   2.867   7.016   4.865
 6871TIP3   OH220555   4.503   5.720   5.922
 6871TIP3    H120556   4.463   5.644   5.966
 6871TIP3    H220557   4.481   5.709   5.830
 6872TIP3   OH220558   2.040   2.729   0.265
 6872TIP3    H120559   2.022   2.795   0.331
 6872TIP3    H220560   2.101   2.668   0.307
 6873TIP3   OH220561   4.157   1.373   0.664
 6873TIP3    H120562   4.078   1.400   0.711
 6873TIP3    H220563   4.145   1.407   0.575
 6874TIP3   OH220564   8.101   6.727   0.386
 6874TIP3    H120565   8.141   6.643   0.363
 6874TIP3    H220566   8.174   6.789   0.385
 6875TIP3   OH220567   4.113   7.401   0.193
 6875TIP3    H120568   4.207   7.406   0.174
 6875TIP3    H220569   4.106   7.429   0.284
 6876TIP3   OH220570   4.428   0.390   5.771
 6876TIP3    H120571   4.371   0.434   5.834
 6876TIP3    H220572   4.510   0.377   5.818
 6877TIP3   OH220573   8.051   0.463   0.196
 6877TIP3    H120574   8.026   0.425   0.281
 6877TIP3    H220575   8.048   0.389   0.135
 6878TIP3   OH220576   4.643   6.107   3.214
 6878TIP3    H120577   4.590   6.093   3.136
 6878TIP3    H220578   4.709   6.171   3.187
 6879TIP3   OH220579   4.995   3.858   1.109
 6879TIP3    H120580   4.985   3.952   1.097
 6879TIP3    H220581   4.997   3.822   1.020
 6880TIP3   OH220582   0.903   7.540   4.093
 6880TIP3    H120583   0.832   7.585   4.139
 6880TIP3    H220584   0.944   7.486   4.160
 6881TIP3   OH220585   0.276   3.234   4.144
 6881TIP3    H120586   0.226   3.204   4.220
 6881TIP3    H220587   0.284   3.156   4.089
 6882TIP3   OH220588   4.505   2.200   0.582
 6882TIP3    H120589   4.450   2.175   0.656
 6882TIP3    H220590   4.480   2.290   0.562
 6883TIP3   OH220591   5.176   3.443   6.219
 6883TIP3    H120592   5.106   3.403   6.272
 6883TIP3    H220593   5.151   3.535   6.212
 6884TIP3   OH220594   5.712   0.796   4.320
 6884TIP3    H120595   5.805   0.820   4.311
 6884TIP3    H220596   5.713   0.703   4.343
 6885TIP3   OH220597   6.029   1.549   5.748
 6885TIP3    H120598   5.985   1.631   5.770
 6885TIP3    H220599   6.115   1.576   5.717
 6886TIP3   OH220600   7.144   3.810   3.595
 6886TIP3    H120601   7.226   3.804   3.644
 6886TIP3    H220602   7.171   3.814   3.503
 6887TIP3   OH220603   4.401   5.431   4.054
 6887TIP3    H120604   4.321   5.431   4.105
 6887TIP3    H220605   4.378   5.473   3.971
 6888TIP3   OH220606   6.014   7.078   2.102
 6888TIP3    H120607   6.055   7.134   2.168
 6888TIP3    H220608   6.087   7.045   2.049
 6889TIP3   OH220609   3.161   3.261   2.955
 6889TIP3    H120610   3.230   3.326   2.943
 6889TIP3    H220611   3.171   3.231   3.045
 6890TIP3   OH220612   5.654   2.508   4.129
 6890TIP3    H120613   5.611   2.427   4.100
 6890TIP3    H220614   5.649   2.566   4.053
 6891TIP3   OH220615   0.474   6.208   6.379
 6891TIP3    H120616   0.418   6.180   6.452
 6891TIP3    H220617   0.558   6.230   6.421
 6892TIP3   OH220618   0.580   1.138   3.969
 6892TIP3    H120619   0.538   1.172   3.890
 6892TIP3    H220620   0.590   1.044   3.952
 6893TIP3   OH220621   7.684   4.350   0.804
 6893TIP3    H120622   7.664   4.270   0.755
 6893TIP3    H220623   7.691   4.322   0.895
 6894TIP3   OH220624   0.491   0.670   1.619
 6894TIP3    H120625   0.581   0.702   1.619
 6894TIP3    H220626   0.469   0.661   1.526
 6895TIP3   OH220627   4.103   2.628   4.874
 6895TIP3    H120628   4.122   2.654   4.784
 6895TIP3    H220629   4.151   2.692   4.928
 6896TIP3   OH220630   1.112   6.801   3.268
 6896TIP3    H120631   1.118   6.880   3.215
 6896TIP3    H220632   1.046   6.821   3.334
 6897TIP3   OH220633   6.549   7.520   0.532
 6897TIP3    H120634   6.609   7.560   0.594
 6897TIP3    H220635   6.607   7.477   0.468
 6898TIP3   OH220636   1.375   1.259   1.370
 6898TIP3    H120637   1.293   1.307   1.383
 6898TIP3    H220638   1.366   1.219   1.284
 6899TIP3   OH220639   8.079   1.216   2.426
 6899TIP3    H120640   8.068   1.172   2.342
 6899TIP3    H220641   8.168   1.193   2.454
 6900TIP3   OH220642   2.012   7.417   6.631
 6900TIP3    H120643   2.103   7.403   6.605
 6900TIP3    H220644   2.011   7.506   6.668
 6901TIP3   OH220645   4.135   0.875   6.592
 6901TIP3    H120646   4.096   0.856   6.677
 6901TIP3    H220647   4.099   0.808   6.533
 6902TIP3   OH220648   0.230   6.186   2.297
 6902TIP3    H120649   0.287   6.248   2.251
 6902TIP3    H220650   0.229   6.109   2.241
 6903TIP3   OH220651   8.093   0.719   1.790
 6903TIP3    H120652   8.127   0.808   1.780
 6903TIP3    H220653   8.002   0.724   1.762
 6904TIP3   OH220654   3.339   1.122   6.643
 6904TIP3    H120655   3.400   1.181   6.600
 6904TIP3    H220656   3.372   1.034   6.626
 6905TIP3   OH220657   2.331   0.535   0.990
 6905TIP3    H120658   2.251   0.509   0.945
 6905TIP3    H220659   2.301   0.581   1.068
 6906TIP3   OH220660   7.661   6.793   3.621
 6906TIP3    H120661   7.656   6.885   3.595
 6906TIP3    H220662   7.579   6.755   3.589
 6907TIP3   OH220663   5.313   3.712   2.149
 6907TIP3    H120664   5.289   3.642   2.209
 6907TIP3    H220665   5.264   3.692   2.069
 6908TIP3   OH220666   1.454   4.005   1.295
 6908TIP3    H120667   1.416   4.062   1.228
 6908TIP3    H220668   1.509   3.944   1.246
 6909TIP3   OH220669   5.780   0.039   6.735
 6909TIP3    H120670   5.811   0.014   6.822
 6909TIP3    H220671   5.723   0.115   6.751
 6910TIP3   OH220672   5.182   5.500   3.191
 6910TIP3    H120673   5.145   5.433   3.134
 6910TIP3    H220674   5.169   5.466   3.280
 6911TIP3   OH220675   0.930   4.233   0.424
 6911TIP3    H120676   0.959   4.182   0.349
 6911TIP3    H220677   0.870   4.299   0.387
 6912TIP3   OH220678   3.858   3.692   3.646
 6912TIP3    H120679   3.805   3.766   3.677
 6912TIP3    H220680   3.868   3.708   3.552
 6913TIP3   OH220681   2.769   1.927   0.245
 6913TIP3    H120682   2.858   1.917   0.210
 6913TIP3    H220683   2.714   1.875   0.186
 6914TIP3   OH220684   1.116   0.152   5.937
 6914TIP3    H120685   1.051   0.172   5.870
 6914TIP3    H220686   1.066   0.138   6.017
 6915TIP3   OH220687   6.719   6.146   2.912
 6915TIP3    H120688   6.651   6.080   2.924
 6915TIP3    H220689   6.703   6.181   2.825
 6916TIP3   OH220690   6.069   2.700   0.926
 6916TIP3    H120691   6.117   2.758   0.866
 6916TIP3    H220692   6.129   2.687   0.999
 6917TIP3   OH220693   6.500   3.905   2.153
 6917TIP3    H120694   6.576   3.948   2.191
 6917TIP3    H220695   6.426   3.939   2.203
 6918TIP3   OH220696   2.790   1.358   4.428
 6918TIP3    H120697   2.726   1.429   4.440
 6918TIP3    H220698   2.743   1.292   4.378
 6919TIP3   OH220699   4.046   2.193   1.879
 6919TIP3    H120700   4.003   2.163   1.798
 6919TIP3    H220701   4.138   2.173   1.865
 6920TIP3   OH220702   2.293   5.428   0.585
 6920TIP3    H120703   2.308   5.339   0.618
 6920TIP3    H220704   2.376   5.473   0.599
 6921TIP3   OH220705   0.427   2.353   4.854
 6921TIP3    H120706   0.507   2.402   4.837
 6921TIP3    H220707   0.455   2.280   4.909
 6922TIP3   OH220708   5.537   7.161   2.551
 6922TIP3    H120709   5.578   7.238   2.590
 6922TIP3    H220710   5.583   7.149   2.468
 6923TIP3   OH220711   4.468   3.258   0.828
 6923TIP3    H120712   4.466   3.175   0.875
 6923TIP3    H220713   4.393   3.255   0.769
 6924TIP3   OH220714   5.010   2.504   6.429
 6924TIP3    H120715   5.042   2.453   6.504
 6924TIP3    H220716   4.999   2.440   6.359
 6925TIP3   OH220717   0.573   0.736   3.671
 6925TIP3    H120718   0.571   0.760   3.578
 6925TIP3    H220719   0.631   0.660   3.675
 6926TIP3   OH220720   1.492   6.284   0.365
 6926TIP3    H120721   1.557   6.351   0.384
 6926TIP3    H220722   1.427   6.328   0.310
 6927TIP3   OH220723   7.009   0.884   5.130
 6927TIP3    H120724   7.028   0.978   5.134
 6927TIP3    H220725   6.938   0.877   5.067
 6928TIP3   OH220726   5.835   4.084   3.557
 6928TIP3    H120727   5.863   4.069   3.647
 6928TIP3    H220728   5.785   4.165   3.560
 6929TIP3   OH220729   4.826   3.998   2.476
 6929TIP3    H120730   4.815   3.948   2.556
 6929TIP3    H220731   4.737   4.023   2.450
 6930TIP3   OH220732   4.037   2.007   5.084
 6930TIP3    H120733   3.990   2.069   5.028
 6930TIP3    H220734   4.087   2.063   5.144
 6931TIP3   OH220735   2.022   5.121   4.179
 6931TIP3    H120736   2.096   5.079   4.223
 6931TIP3    H220737   1.958   5.051   4.169
 6932TIP3   OH220738   4.242   3.024   1.211
 6932TIP3    H120739   4.234   2.931   1.192
 6932TIP3    H220740   4.304   3.029   1.285
 6933TIP3   OH220741   8.048   1.835   4.838
 6933TIP3    H120742   8.077   1.748   4.866
 6933TIP3    H220743   8.102   1.855   4.761
 6934TIP3   OH220744   7.412   4.976   5.020
 6934TIP3    H120745   7.469   4.908   4.983
 6934TIP3    H220746   7.331   4.930   5.042
 6935TIP3   OH220747   3.928   5.434   3.166
 6935TIP3    H120748   3.836   5.460   3.178
 6935TIP3    H220749   3.955   5.479   3.086
 6936TIP3   OH220750   5.927   0.708   4.561
 6936TIP3    H120751   5.953   0.735   4.473
 6936TIP3    H220752   5.889   0.787   4.600
 6937TIP3   OH220753   7.185   2.115   0.712
 6937TIP3    H120754   7.119   2.129   0.644
 6937TIP3    H220755   7.264   2.155   0.678
 6938TIP3   OH220756   6.850   7.644   5.518
 6938TIP3    H120757   6.914   7.656   5.588
 6938TIP3    H220758   6.787   7.716   5.530
 6939TIP3   OH220759   0.606   0.618   0.718
 6939TIP3    H120760   0.683   0.607   0.662
 6939TIP3    H220761   0.570   0.703   0.692
 6940TIP3   OH220762   0.903   3.306   4.767
 6940TIP3    H120763   0.818   3.324   4.807
 6940TIP3    H220764   0.916   3.379   4.706
 6941TIP3   OH220765   8.242   6.716   4.119
 6941TIP3    H120766   8.206   6.657   4.053
 6941TIP3    H220767   8.201   6.688   4.200
 6942TIP3   OH220768   3.245   7.580   4.476
 6942TIP3    H120769   3.207   7.507   4.525
 6942TIP3    H220770   3.227   7.657   4.531
 6943TIP3   OH220771   0.510   7.794   0.653
 6943TIP3    H120772   0.561   7.713   0.657
 6943TIP3    H220773   0.558   7.855   0.709
 6944TIP3   OH220774   4.884   0.861   1.333
 6944TIP3    H120775   4.942   0.915   1.387
 6944TIP3    H220776   4.803   0.856   1.384
 6945TIP3   OH220777   4.560   4.854   3.299
 6945TIP3    H120778   4.582   4.838   3.391
 6945TIP3    H220779   4.470   4.886   3.302
 6946TIP3   OH220780   7.381   0.298   4.858
 6946TIP3    H120781   7.318   0.343   4.801
 6946TIP3    H220782   7.433   0.244   4.799
 6947TIP3   OH220783   5.702   0.592   6.395
 6947TIP3    H120784   5.636   0.649   6.356
 6947TIP3    H220785   5.661   0.505   6.395
 6948TIP3   OH220786   7.330   5.057   3.742
 6948TIP3    H120787   7.351   5.096   3.827
 6948TIP3    H220788   7.239   5.028   3.751
 6949TIP3   OH220789   1.272   4.190   0.443
 6949TIP3    H120790   1.243   4.281   0.436
 6949TIP3    H220791   1.236   4.160   0.526
 6950TIP3   OH220792   5.391   3.644   6.640
 6950TIP3    H120793   5.313   3.695   6.615
 6950TIP3    H220794   5.465   3.699   6.613
 6951TIP3   OH220795   1.911   6.585   0.328
 6951TIP3    H120796   1.974   6.551   0.391
 6951TIP3    H220797   1.928   6.535   0.248
 6952TIP3   OH220798   4.683   0.844   2.428
 6952TIP3    H120799   4.623   0.854   2.354
 6952TIP3    H220800   4.675   0.752   2.454
 6953TIP3   OH220801   1.447   4.416   4.088
 6953TIP3    H120802   1.391   4.492   4.071
 6953TIP3    H220803   1.389   4.341   4.081
 6954TIP3   OH220804   1.287   4.712   1.673
 6954TIP3    H120805   1.222   4.684   1.738
 6954TIP3    H220806   1.288   4.642   1.609
 6955TIP3   OH220807   4.370   3.583   1.476
 6955TIP3    H120808   4.395   3.530   1.552
 6955TIP3    H220809   4.300   3.639   1.509
 6956TIP3   OH220810   1.489   4.771   6.504
 6956TIP3    H120811   1.476   4.677   6.498
 6956TIP3    H220812   1.530   4.795   6.420
 6957TIP3   OH220813   1.105   0.028   2.269
 6957TIP3    H120814   1.156   0.071   2.338
 6957TIP3    H220815   1.076   0.100   2.212
 6958TIP3   OH220816   5.875   3.250   4.576
 6958TIP3    H120817   5.875   3.248   4.672
 6958TIP3    H220818   5.868   3.157   4.551
 6959TIP3   OH220819   6.572   4.928   4.810
 6959TIP3    H120820   6.589   4.841   4.846
 6959TIP3    H220821   6.516   4.912   4.734
 6960TIP3   OH220822   6.244   4.353   2.980
 6960TIP3    H120823   6.339   4.352   2.995
 6960TIP3    H220824   6.219   4.445   2.993
 6961TIP3   OH220825   6.702   2.340   2.597
 6961TIP3    H120826   6.643   2.265   2.594
 6961TIP3    H220827   6.783   2.309   2.557
 6962TIP3   OH220828   4.459   1.881   4.607
 6962TIP3    H120829   4.473   1.795   4.646
 6962TIP3    H220830   4.399   1.925   4.667
 6963TIP3   OH220831   3.893   1.993   2.143
 6963TIP3    H120832   3.811   1.970   2.186
 6963TIP3    H220833   3.946   1.914   2.150
 6964TIP3   OH220834   7.104   4.560   6.260
 6964TIP3    H120835   7.139   4.639   6.299
 6964TIP3    H220836   7.181   4.510   6.232
 6965TIP3   OH220837   5.674   6.544   2.938
 6965TIP3    H120838   5.710   6.550   3.027
 6965TIP3    H220839   5.735   6.594   2.884
 6966TIP3   OH220840   2.339   4.918   6.208
 6966TIP3    H120841   2.280   4.963   6.269
 6966TIP3    H220842   2.341   4.975   6.131
 6967TIP3   OH220843   2.144   0.060   6.130
 6967TIP3    H120844   2.191  -0.009   6.083
 6967TIP3    H220845   2.182   0.141   6.097
 6968TIP3   OH220846   7.995   2.424   5.823
 6968TIP3    H120847   7.973   2.492   5.887
 6968TIP3    H220848   8.004   2.344   5.875
 6969TIP3   OH220849   3.492   4.055   6.345
 6969TIP3    H120850   3.566   4.003   6.312
 6969TIP3    H220851   3.533   4.120   6.403
 6970TIP3   OH220852   6.866   6.628   0.474
 6970TIP3    H120853   6.861   6.533   0.489
 6970TIP3    H220854   6.957   6.644   0.452
 6971TIP3   OH220855   7.900   7.058   5.569
 6971TIP3    H120856   7.930   7.021   5.652
 6971TIP3    H220857   7.895   6.984   5.509
 6972TIP3   OH220858   0.165   3.334   0.522
 6972TIP3    H120859   0.091   3.303   0.575
 6972TIP3    H220860   0.170   3.271   0.450
 6973TIP3   OH220861   2.430   2.477   5.364
 6973TIP3    H120862   2.362   2.522   5.414
 6973TIP3    H220863   2.488   2.547   5.334
 6974TIP3   OH220864   7.804   0.943   1.887
 6974TIP3    H120865   7.878   1.000   1.910
 6974TIP3    H220866   7.819   0.921   1.795
 6975TIP3   OH220867   0.265   4.144   2.434
 6975TIP3    H120868   0.316   4.191   2.499
 6975TIP3    H220869   0.237   4.211   2.371
 6976TIP3   OH220870   2.323   1.890   5.116
 6976TIP3    H120871   2.301   1.861   5.028
 6976TIP3    H220872   2.418   1.889   5.119
 6977TIP3   OH220873   3.542   3.013   0.423
 6977TIP3    H120874   3.528   2.920   0.440
 6977TIP3    H220875   3.455   3.053   0.436
 6978TIP3   OH220876   7.782   2.411   0.697
 6978TIP3    H120877   7.803   2.480   0.633
 6978TIP3    H220878   7.865   2.394   0.741
 6979TIP3   OH220879   7.039   6.097   0.797
 6979TIP3    H120880   7.080   6.015   0.769
 6979TIP3    H220881   7.005   6.136   0.717
 6980TIP3   OH220882   4.539   5.801   6.322
 6980TIP3    H120883   4.585   5.861   6.381
 6980TIP3    H220884   4.451   5.794   6.360
 6981TIP3   OH220885   3.225   6.059   2.452
 6981TIP3    H120886   3.213   6.120   2.524
 6981TIP3    H220887   3.194   5.975   2.486
 6982TIP3   OH220888   6.959   7.024   1.999
 6982TIP3    H120889   6.965   6.995   2.090
 6982TIP3    H220890   7.023   6.970   1.953
 6983TIP3   OH220891   7.314   4.509   1.879
 6983TIP3    H120892   7.259   4.444   1.836
 6983TIP3    H220893   7.401   4.470   1.880
 6984TIP3   OH220894   6.194   0.456   2.768
 6984TIP3    H120895   6.227   0.536   2.726
 6984TIP3    H220896   6.162   0.403   2.695
 6985TIP3   OH220897   7.807   1.320   0.879
 6985TIP3    H120898   7.763   1.288   0.800
 6985TIP3    H220899   7.880   1.259   0.891
 6986TIP3   OH220900   7.976   2.872   5.589
 6986TIP3    H120901   8.012   2.823   5.663
 6986TIP3    H220902   7.978   2.963   5.617
 6987TIP3   OH220903   1.622   3.160   2.946
 6987TIP3    H120904   1.585   3.203   2.868
 6987TIP3    H220905   1.646   3.232   3.004
 6988TIP3   OH220906   5.050   2.448   3.392
 6988TIP3    H120907   5.066   2.510   3.320
 6988TIP3    H220908   4.989   2.495   3.449
 6989TIP3   OH220909   2.755   5.312   4.164
 6989TIP3    H120910   2.825   5.378   4.163
 6989TIP3    H220911   2.780   5.251   4.233
 6990TIP3   OH220912   0.995   5.688   5.753
 6990TIP3    H120913   1.083   5.684   5.714
 6990TIP3    H220914   0.962   5.599   5.746
 6991TIP3   OH220915   3.692   0.857   1.681
 6991TIP3    H120916   3.733   0.942   1.665
 6991TIP3    H220917   3.616   0.855   1.623
 6992TIP3   OH220918   6.169   6.500   4.784
 6992TIP3    H120919   6.130   6.509   4.697
 6992TIP3    H220920   6.102   6.456   4.837
 6993TIP3   OH220921   3.654   5.787   4.568
 6993TIP3    H120922   3.664   5.838   4.648
 6993TIP3    H220923   3.659   5.851   4.498
 6994TIP3   OH220924   2.985   6.277   1.876
 6994TIP3    H120925   3.026   6.221   1.811
 6994TIP3    H220926   2.925   6.219   1.924
 6995TIP3   OH220927   7.278   1.518   3.016
 6995TIP3    H120928   7.253   1.513   3.108
 6995TIP3    H220929   7.291   1.611   2.999
 6996TIP3   OH220930   7.168   1.681   3.425
 6996TIP3    H120931   7.095   1.650   3.480
 6996TIP3    H220932   7.183   1.610   3.363
 6997TIP3   OH220933   8.078   1.087   4.745
 6997TIP3    H120934   8.091   1.083   4.840
 6997TIP3    H220935   8.087   1.180   4.724
 6998TIP3   OH220936   1.832   7.183   2.198
 6998TIP3    H120937   1.806   7.266   2.160
 6998TIP3    H220938   1.913   7.160   2.153
 6999TIP3   OH220939   4.967   0.447   5.911
 6999TIP3    H120940   4.892   0.435   5.852
 6999TIP3    H220941   4.996   0.359   5.931
 7000TIP3   OH220942   1.055   2.863   2.413
 7000TIP3    H120943   0.996   2.873   2.488
 7000TIP3    H220944   1.001   2.820   2.346
 7001TIP3   OH220945   0.017   7.782   2.966
 7001TIP3    H120946   0.087   7.719   2.981
 7001TIP3    H220947  -0.013   7.807   3.054
 7002TIP3   OH220948   7.842   4.519   0.648
 7002TIP3    H120949   7.790   4.467   0.710
 7002TIP3    H220950   7.930   4.518   0.684
 7003TIP3   OH220951   2.387   5.703   6.704
 7003TIP3    H120952   2.438   5.763   6.757
 7003TIP3    H220953   2.340   5.759   6.642
 7004TIP3   OH220954   6.067   0.563   4.770
 7004TIP3    H120955   6.017   0.594   4.694
 7004TIP3    H220956   6.017   0.487   4.801
 7005TIP3   OH220957   0.104   5.914   6.196
 7005TIP3    H120958   0.137   6.002   6.213
 7005TIP3    H220959   0.029   5.905   6.256
 7006TIP3   OH220960   3.958   3.212   5.667
 7006TIP3    H120961   4.004   3.252   5.741
 7006TIP3    H220962   3.952   3.119   5.691
 7007TIP3   OH220963   6.594   5.365   3.527
 7007TIP3    H120964   6.527   5.385   3.461
 7007TIP3    H220965   6.611   5.272   3.517
 7008TIP3   OH220966   4.432   2.026   6.369
 7008TIP3    H120967   4.520   2.042   6.405
 7008TIP3    H220968   4.433   2.069   6.284
 7009TIP3   OH220969   1.148   0.442   6.617
 7009TIP3    H120970   1.054   0.449   6.597
 7009TIP3    H220971   1.182   0.530   6.603
 7010TIP3   OH220972   3.090   0.574   4.117
 7010TIP3    H120973   3.065   0.487   4.149
 7010TIP3    H220974   3.016   0.630   4.141
 7011TIP3   OH220975   7.097   0.210   1.791
 7011TIP3    H120976   7.051   0.139   1.835
 7011TIP3    H220977   7.188   0.199   1.818
 7012TIP3   OH220978   8.068   1.779   2.350
 7012TIP3    H120979   8.012   1.829   2.291
 7012TIP3    H220980   8.049   1.687   2.329
 7013TIP3   OH220981   0.588   5.677   2.064
 7013TIP3    H120982   0.669   5.701   2.109
 7013TIP3    H220983   0.573   5.749   2.002
 7014TIP3   OH220984   4.674   7.599   5.621
 7014TIP3    H120985   4.677   7.630   5.711
 7014TIP3    H220986   4.747   7.537   5.615
 7015TIP3   OH220987   2.580   3.294   1.773
 7015TIP3    H120988   2.529   3.214   1.781
 7015TIP3    H220989   2.621   3.306   1.858
 7016TIP3   OH220990   4.814   7.429   6.290
 7016TIP3    H120991   4.773   7.349   6.258
 7016TIP3    H220992   4.742   7.491   6.302
 7017TIP3   OH220993   8.115   6.233   2.922
 7017TIP3    H120994   8.170   6.213   2.846
 7017TIP3    H220995   8.123   6.328   2.933
 7018TIP3   OH220996   7.620   0.993   5.984
 7018TIP3    H120997   7.702   0.959   5.946
 7018TIP3    H220998   7.640   1.007   6.076
 7019TIP3   OH220999   1.932   6.418   1.818
 7019TIP3    H121000   1.861   6.394   1.878
 7019TIP3    H221001   1.972   6.334   1.794
 7020TIP3   OH221002   3.382   5.872   0.121
 7020TIP3    H121003   3.317   5.819   0.168
 7020TIP3    H221004   3.332   5.948   0.090
 7021TIP3   OH221005   1.302   0.353   5.981
 7021TIP3    H121006   1.380   0.325   6.029
 7021TIP3    H221007   1.258   0.272   5.958
 7022TIP3   OH221008   4.871   5.142   4.299
 7022TIP3    H121009   4.893   5.151   4.206
 7022TIP3    H221010   4.798   5.202   4.312
 7023TIP3   OH221011   3.818   6.416   0.299
 7023TIP3    H121012   3.900   6.457   0.273
 7023TIP3    H221013   3.751   6.481   0.278
 7024TIP3   OH221014   2.152   1.199   5.783
 7024TIP3    H121015   2.138   1.109   5.810
 7024TIP3    H221016   2.067   1.227   5.748
 7025TIP3   OH221017   5.237   0.372   3.225
 7025TIP3    H121018   5.270   0.401   3.311
 7025TIP3    H221019   5.196   0.450   3.188
 7026TIP3   OH221020   5.645   4.873   3.622
 7026TIP3    H121021   5.561   4.902   3.588
 7026TIP3    H221022   5.667   4.796   3.571
 7027TIP3   OH221023   7.028   5.079   1.528
 7027TIP3    H121024   7.088   5.070   1.454
 7027TIP3    H221025   7.083   5.064   1.605
 7028TIP3   OH221026   5.290   5.097   2.215
 7028TIP3    H121027   5.229   5.040   2.168
 7028TIP3    H221028   5.329   5.040   2.281
 7029TIP3   OH221029   1.165   3.468   6.506
 7029TIP3    H121030   1.168   3.557   6.472
 7029TIP3    H221031   1.159   3.478   6.601
 7030TIP3   OH221032   3.434   3.152   2.246
 7030TIP3    H121033   3.399   3.172   2.333
 7030TIP3    H221034   3.429   3.056   2.240
 7031TIP3   OH221035   3.367   5.198   4.881
 7031TIP3    H121036   3.456   5.180   4.849
 7031TIP3    H221037   3.321   5.235   4.806
 7032TIP3   OH221038   3.841   4.693   5.384
 7032TIP3    H121039   3.879   4.730   5.304
 7032TIP3    H221040   3.801   4.768   5.428
 7033TIP3   OH221041   6.723   0.290   5.676
 7033TIP3    H121042   6.629   0.285   5.693
 7033TIP3    H221043   6.743   0.207   5.631
 7034TIP3   OH221044   7.357   2.247   0.526
 7034TIP3    H121045   7.350   2.342   0.515
 7034TIP3    H221046   7.296   2.211   0.461
 7035TIP3   OH221047   3.568   0.313   0.319
 7035TIP3    H121048   3.554   0.231   0.271
 7035TIP3    H221049   3.561   0.381   0.253
 7036TIP3   OH221050   4.192   5.776   2.347
 7036TIP3    H121051   4.126   5.821   2.399
 7036TIP3    H221052   4.233   5.715   2.409
 7037TIP3   OH221053   3.793   6.254   1.948
 7037TIP3    H121054   3.723   6.308   1.983
 7037TIP3    H221055   3.873   6.289   1.987
 7038TIP3   OH221056   7.312   1.761   4.934
 7038TIP3    H121057   7.231   1.776   4.885
 7038TIP3    H221058   7.301   1.809   5.016
 7039TIP3   OH221059   5.018   2.660   0.330
 7039TIP3    H121060   5.103   2.704   0.324
 7039TIP3    H221061   5.039   2.567   0.337
 7040TIP3   OH221062   0.045   2.484   1.238
 7040TIP3    H121063   0.027   2.423   1.166
 7040TIP3    H221064   0.109   2.437   1.292
 7041TIP3   OH221065   0.349   0.527   0.776
 7041TIP3    H121066   0.296   0.575   0.712
 7041TIP3    H221067   0.439   0.552   0.756
 7042TIP3   OH221068   0.286   5.438   0.036
 7042TIP3    H121069   0.262   5.391   0.116
 7042TIP3    H221070   0.382   5.435   0.035
 7043TIP3   OH221071   0.495   3.847   5.416
 7043TIP3    H121072   0.516   3.899   5.494
 7043TIP3    H221073   0.580   3.821   5.381
 7044TIP3   OH221074   4.487   3.904   3.624
 7044TIP3    H121075   4.525   3.894   3.537
 7044TIP3    H221076   4.408   3.851   3.621
 7045TIP3   OH221077   1.834   4.726   1.244
 7045TIP3    H121078   1.870   4.815   1.238
 7045TIP3    H221079   1.837   4.693   1.154
 7046TIP3   OH221080   3.839   3.337   5.066
 7046TIP3    H121081   3.780   3.323   4.993
 7046TIP3    H221082   3.796   3.403   5.120
 7047TIP3   OH221083   2.306   6.605   2.397
 7047TIP3    H121084   2.212   6.608   2.415
 7047TIP3    H221085   2.325   6.689   2.355
 7048TIP3   OH221086   4.048   0.647   5.809
 7048TIP3    H121087   4.089   0.733   5.804
 7048TIP3    H221088   3.954   0.665   5.821
 7049TIP3   OH221089   0.330   2.224   3.108
 7049TIP3    H121090   0.250   2.277   3.114
 7049TIP3    H221091   0.300   2.142   3.068
 7050TIP3   OH221092   8.269   2.575   5.877
 7050TIP3    H121093   8.321   2.500   5.905
 7050TIP3    H221094   8.191   2.536   5.836
 7051TIP3   OH221095   6.285   1.862   5.162
 7051TIP3    H121096   6.293   1.768   5.146
 7051TIP3    H221097   6.194   1.874   5.190
 7052TIP3   OH221098   2.146   6.413   4.149
 7052TIP3    H121099   2.091   6.341   4.179
 7052TIP3    H221100   2.186   6.381   4.069
 7053TIP3   OH221101   5.974   0.325   3.692
 7053TIP3    H121102   5.884   0.357   3.685
 7053TIP3    H221103   6.025   0.386   3.639
 7054TIP3   OH221104   7.795   2.058   2.292
 7054TIP3    H121105   7.748   1.987   2.248
 7054TIP3    H221106   7.746   2.073   2.373
 7055TIP3   OH221107   7.148   0.230   5.686
 7055TIP3    H121108   7.093   0.159   5.652
 7055TIP3    H221109   7.194   0.192   5.761
 7056TIP3   OH221110   6.979   2.265   4.604
 7056TIP3    H121111   7.055   2.262   4.546
 7056TIP3    H221112   7.014   2.240   4.690
 7057TIP3   OH221113   2.734   1.783   4.592
 7057TIP3    H121114   2.809   1.738   4.629
 7057TIP3    H221115   2.672   1.791   4.665
 7058TIP3   OH221116   3.795   7.780   4.070
 7058TIP3    H121117   3.734   7.832   4.122
 7058TIP3    H221118   3.739   7.728   4.012
 7059TIP3   OH221119   4.454   7.728   4.794
 7059TIP3    H121120   4.504   7.795   4.840
 7059TIP3    H221121   4.393   7.694   4.860
 7060TIP3   OH221122   4.309   7.587   0.502
 7060TIP3    H121123   4.344   7.659   0.449
 7060TIP3    H221124   4.325   7.616   0.593
 7061TIP3   OH221125   2.458   2.760   5.501
 7061TIP3    H121126   2.516   2.750   5.425
 7061TIP3    H221127   2.427   2.671   5.518
 7062TIP3   OH221128   3.382   1.766   6.198
 7062TIP3    H121129   3.421   1.824   6.263
 7062TIP3    H221130   3.322   1.823   6.149
 7063TIP3   OH221131   2.624   5.064   3.469
 7063TIP3    H121132   2.666   5.085   3.386
 7063TIP3    H221133   2.665   5.125   3.532
 7064TIP3   OH221134   2.324   0.855   3.498
 7064TIP3    H121135   2.369   0.824   3.577
 7064TIP3    H221136   2.319   0.950   3.508
 7065TIP3   OH221137   3.411   7.323   0.562
 7065TIP3    H121138   3.350   7.395   0.543
 7065TIP3    H221139   3.409   7.268   0.485
 7066TIP3   OH221140   2.496   4.499   4.716
 7066TIP3    H121141   2.404   4.508   4.691
 7066TIP3    H221142   2.529   4.428   4.661
 7067TIP3   OH221143   6.311   0.549   4.875
 7067TIP3    H121144   6.353   0.467   4.850
 7067TIP3    H221145   6.217   0.531   4.865
 7068TIP3   OH221146   6.402   1.236   5.446
 7068TIP3    H121147   6.488   1.253   5.484
 7068TIP3    H221148   6.418   1.225   5.353
 7069TIP3   OH221149   0.919   6.132   5.713
 7069TIP3    H121150   0.979   6.203   5.736
 7069TIP3    H221151   0.934   6.118   5.619
 7070TIP3   OH221152   3.894   4.402   5.037
 7070TIP3    H121153   3.908   4.420   4.944
 7070TIP3    H221154   3.812   4.354   5.041
 7071TIP3   OH221155   1.491   0.712   0.668
 7071TIP3    H121156   1.441   0.680   0.743
 7071TIP3    H221157   1.426   0.722   0.598
 7072TIP3   OH221158   3.222   7.315   2.405
 7072TIP3    H121159   3.150   7.266   2.366
 7072TIP3    H221160   3.250   7.376   2.337
 7073TIP3   OH221161   0.879   3.653   5.367
 7073TIP3    H121162   0.926   3.572   5.350
 7073TIP3    H221163   0.789   3.635   5.339
 7074TIP3   OH221164   0.778   1.225   6.609
 7074TIP3    H121165   0.692   1.265   6.626
 7074TIP3    H221166   0.807   1.193   6.694
 7075TIP3   OH221167   3.006   4.667   6.778
 7075TIP3    H121168   3.079   4.649   6.718
 7075TIP3    H221169   2.955   4.735   6.734
 7076TIP3   OH221170   0.191   7.813   5.415
 7076TIP3    H121171   0.147   7.894   5.389
 7076TIP3    H221172   0.124   7.745   5.407
 7077TIP3   OH221173   5.335   0.028   3.663
 7077TIP3    H121174   5.255   0.077   3.645
 7077TIP3    H221175   5.377   0.076   3.735
 7078TIP3   OH221176   5.732   7.378   4.180
 7078TIP3    H121177   5.651   7.372   4.131
 7078TIP3    H221178   5.793   7.424   4.122
 7079TIP3   OH221179   5.497   1.107   2.417
 7079TIP3    H121180   5.407   1.128   2.439
 7079TIP3    H221181   5.525   1.045   2.485
 7080TIP3   OH221182   7.988   0.260   1.238
 7080TIP3    H121183   8.015   0.193   1.301
 7080TIP3    H221184   7.903   0.290   1.271
 7081TIP3   OH221185   3.538   5.699   3.003
 7081TIP3    H121186   3.466   5.758   2.981
 7081TIP3    H221187   3.544   5.639   2.928
 7082TIP3   OH221188   6.446   7.225   3.068
 7082TIP3    H121189   6.449   7.159   2.999
 7082TIP3    H221190   6.361   7.212   3.110
 7083TIP3   OH221191   4.609   7.099   2.338
 7083TIP3    H121192   4.681   7.162   2.350
 7083TIP3    H221193   4.603   7.089   2.243
 7084TIP3   OH221194   3.755   1.104   3.348
 7084TIP3    H121195   3.838   1.097   3.300
 7084TIP3    H221196   3.779   1.095   3.440
 7085TIP3   OH221197   0.290   5.031   4.749
 7085TIP3    H121198   0.274   5.052   4.656
 7085TIP3    H221199   0.356   5.095   4.776
 7086TIP3   OH221200   7.216   1.981   4.735
 7086TIP3    H121201   7.155   2.055   4.743
 7086TIP3    H221202   7.159   1.905   4.722
 7087TIP3   OH221203   0.383   2.362   0.237
 7087TIP3    H121204   0.377   2.442   0.185
 7087TIP3    H221205   0.360   2.389   0.326
 7088TIP3   OH221206   0.024   0.922   5.227
 7088TIP3    H121207   0.030   1.003   5.276
 7088TIP3    H221208  -0.045   0.938   5.163
 7089TIP3   OH221209   0.344   0.387   2.223
 7089TIP3    H121210   0.278   0.336   2.177
 7089TIP3    H221211   0.294   0.451   2.274
 7090TIP3   OH221212   0.852   2.823   1.955
 7090TIP3    H121213   0.908   2.835   1.878
 7090TIP3    H221214   0.782   2.766   1.926
 7091TIP3   OH221215   2.408   7.461   0.351
 7091TIP3    H121216   2.478   7.527   0.348
 7091TIP3    H221217   2.330   7.510   0.374
 7092TIP3   OH221218   7.913   0.065   6.689
 7092TIP3    H121219   7.954   0.060   6.602
 7092TIP3    H221220   7.958  -0.002   6.740
 7093TIP3   OH221221   6.097   1.796   6.772
 7093TIP3    H121222   6.157   1.800   6.847
 7093TIP3    H221223   6.152   1.769   6.699
 7094TIP3   OH221224   6.085   1.802   1.868
 7094TIP3    H121225   5.995   1.772   1.881
 7094TIP3    H221226   6.078   1.874   1.805
 7095TIP3   OH221227   7.506   7.285   3.228
 7095TIP3    H121228   7.522   7.317   3.139
 7095TIP3    H221229   7.460   7.202   3.216
 7096TIP3   OH221230   1.217   4.084   5.509
 7096TIP3    H121231   1.163   4.017   5.468
 7096TIP3    H221232   1.292   4.095   5.450
 7097TIP3   OH221233   0.255   5.723   6.474
 7097TIP3    H121234   0.229   5.806   6.513
 7097TIP3    H221235   0.294   5.746   6.390
 7098TIP3   OH221236   7.558   0.791   1.500
 7098TIP3    H121237   7.573   0.881   1.527
 7098TIP3    H221238   7.536   0.745   1.581
 7099TIP3   OH221239   5.029   7.760   2.461
 7099TIP3    H121240   5.003   7.819   2.390
 7099TIP3    H221241   4.991   7.799   2.540
 7100TIP3   OH221242   7.064   1.347   4.428
 7100TIP3    H121243   7.092   1.344   4.519
 7100TIP3    H221244   6.995   1.414   4.426
 7101TIP3   OH221245   6.434   0.908   2.556
 7101TIP3    H121246   6.528   0.905   2.537
 7101TIP3    H221247   6.392   0.892   2.472
 7102TIP3   OH221248   3.843   4.213   0.610
 7102TIP3    H121249   3.874   4.304   0.615
 7102TIP3    H221250   3.900   4.164   0.669
 7103TIP3   OH221251   1.072   2.226   1.370
 7103TIP3    H121252   0.990   2.178   1.358
 7103TIP3    H221253   1.101   2.248   1.281
 7104TIP3   OH221254   5.524   1.683   6.695
 7104TIP3    H121255   5.559   1.627   6.765
 7104TIP3    H221256   5.438   1.647   6.675
 7105TIP3   OH221257   3.147   1.115   5.433
 7105TIP3    H121258   3.100   1.195   5.410
 7105TIP3    H221259   3.098   1.045   5.390
 7106TIP3   OH221260   1.252   6.082   5.058
 7106TIP3    H121261   1.165   6.048   5.034
 7106TIP3    H221262   1.293   6.104   4.975
 7107TIP3   OH221263   7.774   1.264   2.707
 7107TIP3    H121264   7.693   1.245   2.756
 7107TIP3    H221265   7.817   1.332   2.758
 7108TIP3   OH221266   1.450   4.847   6.756
 7108TIP3    H121267   1.430   4.818   6.667
 7108TIP3    H221268   1.496   4.931   6.744
 7109TIP3   OH221269   1.411   4.536   4.698
 7109TIP3    H121270   1.465   4.490   4.763
 7109TIP3    H221271   1.427   4.629   4.715
 7110TIP3   OH221272   4.934   4.734   0.757
 7110TIP3    H121273   4.899   4.681   0.685
 7110TIP3    H221274   4.933   4.823   0.723
 7111TIP3   OH221275   2.639   1.935   3.156
 7111TIP3    H121276   2.631   2.022   3.117
 7111TIP3    H221277   2.589   1.940   3.237
 7112TIP3   OH221278   8.136   0.229   0.996
 7112TIP3    H121279   8.096   0.301   0.946
 7112TIP3    H221280   8.092   0.231   1.081
 7113TIP3   OH221281   1.943   0.885   5.177
 7113TIP3    H121282   1.977   0.942   5.245
 7113TIP3    H221283   1.984   0.917   5.096
 7114TIP3   OH221284   1.174   3.482   0.768
 7114TIP3    H121285   1.250   3.451   0.817
 7114TIP3    H221286   1.127   3.402   0.743
 7115TIP3   OH221287   4.696   0.650   4.989
 7115TIP3    H121288   4.717   0.710   5.061
 7115TIP3    H221289   4.756   0.577   5.000
 7116TIP3   OH221290   5.532   0.022   5.773
 7116TIP3    H121291   5.625   0.000   5.778
 7116TIP3    H221292   5.529   0.115   5.799
 7117TIP3   OH221293   0.844   4.698   4.928
 7117TIP3    H121294   0.754   4.704   4.959
 7117TIP3    H221295   0.867   4.605   4.937
 7118TIP3   OH221296   0.786   6.234   1.055
 7118TIP3    H121297   0.734   6.299   1.102
 7118TIP3    H221298   0.725   6.161   1.040
 7119TIP3   OH221299   1.214   3.721   1.352
 7119TIP3    H121300   1.247   3.689   1.268
 7119TIP3    H221301   1.247   3.657   1.416
 7120TIP3   OH221302   6.004   5.546   0.794
 7120TIP3    H121303   5.970   5.464   0.829
 7120TIP3    H221304   6.068   5.575   0.859
 7121TIP3   OH221305   6.776   4.359   1.509
 7121TIP3    H121306   6.755   4.446   1.476
 7121TIP3    H221307   6.788   4.306   1.430
 7122TIP3   OH221308   3.806   4.367   3.763
 7122TIP3    H121309   3.891   4.357   3.719
 7122TIP3    H221310   3.746   4.316   3.709
 7123TIP3   OH221311   8.097   0.886   2.233
 7123TIP3    H121312   8.143   0.892   2.150
 7123TIP3    H221313   8.165   0.866   2.297
 7124TIP3   OH221314   5.195   1.460   6.363
 7124TIP3    H121315   5.149   1.543   6.371
 7124TIP3    H221316   5.213   1.452   6.269
 7125TIP3   OH221317   1.876   2.113   6.176
 7125TIP3    H121318   1.953   2.163   6.202
 7125TIP3    H221319   1.904   2.065   6.098
 7126TIP3   OH221320   6.155   4.251   2.061
 7126TIP3    H121321   6.201   4.269   2.143
 7126TIP3    H221322   6.100   4.328   2.047
 7127TIP3   OH221323   3.683   5.307   3.750
 7127TIP3    H121324   3.731   5.248   3.809
 7127TIP3    H221325   3.747   5.329   3.682
 7128TIP3   OH221326   3.624   2.128   3.314
 7128TIP3    H121327   3.633   2.099   3.223
 7128TIP3    H221328   3.627   2.223   3.309
 7129TIP3   OH221329   5.024   5.905   2.813
 7129TIP3    H121330   5.053   5.858   2.891
 7129TIP3    H221331   4.975   5.980   2.847
 7130TIP3   OH221332   2.116   1.519   2.812
 7130TIP3    H121333   2.106   1.611   2.834
 7130TIP3    H221334   2.026   1.489   2.795
 7131TIP3   OH221335   4.983   1.359   3.648
 7131TIP3    H121336   5.010   1.446   3.618
 7131TIP3    H221337   4.891   1.370   3.674
 7132TIP3   OH221338   4.643   7.662   2.773
 7132TIP3    H121339   4.637   7.645   2.867
 7132TIP3    H221340   4.554   7.682   2.746
 7133TIP3   OH221341   1.337   2.769   1.378
 7133TIP3    H121342   1.255   2.816   1.375
 7133TIP3    H221343   1.315   2.680   1.350
 7134TIP3   OH221344   4.469   3.180   3.314
 7134TIP3    H121345   4.510   3.252   3.361
 7134TIP3    H221346   4.515   3.102   3.345
 7135TIP3   OH221347   2.999   3.905   2.324
 7135TIP3    H121348   2.975   3.861   2.242
 7135TIP3    H221349   2.918   3.903   2.376
 7136TIP3   OH221350   0.520   4.903   1.287
 7136TIP3    H121351   0.548   4.916   1.378
 7136TIP3    H221352   0.473   4.984   1.264
 7137TIP3   OH221353   2.264   4.396   0.865
 7137TIP3    H121354   2.227   4.343   0.794
 7137TIP3    H221355   2.357   4.402   0.844
 7138TIP3   OH221356   7.293   4.693   3.346
 7138TIP3    H121357   7.268   4.784   3.331
 7138TIP3    H221358   7.386   4.689   3.324
 7139TIP3   OH221359   1.596   5.837   2.849
 7139TIP3    H121360   1.649   5.762   2.878
 7139TIP3    H221361   1.641   5.869   2.771
 7140TIP3   OH221362   5.810   0.449   5.243
 7140TIP3    H121363   5.853   0.514   5.188
 7140TIP3    H221364   5.743   0.410   5.186
 7141TIP3   OH221365   0.360   6.488   1.759
 7141TIP3    H121366   0.436   6.435   1.734
 7141TIP3    H221367   0.289   6.423   1.770
 7142TIP3   OH221368   0.327   5.962   5.228
 7142TIP3    H121369   0.295   5.997   5.145
 7142TIP3    H221370   0.275   6.006   5.295
 7143TIP3   OH221371   4.602   3.824  -0.013
 7143TIP3    H121372   4.529   3.811   0.048
 7143TIP3    H221373   4.660   3.885   0.032
 7144TIP3   OH221374   1.944   6.829   2.477
 7144TIP3    H121375   1.875   6.830   2.410
 7144TIP3    H221376   2.001   6.902   2.453
 7145TIP3   OH221377   3.847   4.885   4.872
 7145TIP3    H121378   3.886   4.958   4.824
 7145TIP3    H221379   3.852   4.811   4.813
 7146TIP3   OH221380   4.883   6.683   5.443
 7146TIP3    H121381   4.871   6.778   5.433
 7146TIP3    H221382   4.811   6.644   5.394
 7147TIP3   OH221383   2.020   1.684   1.984
 7147TIP3    H121384   2.050   1.690   1.894
 7147TIP3    H221385   1.947   1.746   1.990
 7148TIP3   OH221386   5.339   0.934   5.471
 7148TIP3    H121387   5.382   0.850   5.456
 7148TIP3    H221388   5.337   0.976   5.386
 7149TIP3   OH221389   6.601   1.881   0.580
 7149TIP3    H121390   6.517   1.878   0.534
 7149TIP3    H221391   6.642   1.796   0.561
 7150TIP3   OH221392   0.074   6.597   3.415
 7150TIP3    H121393   0.043   6.656   3.347
 7150TIP3    H221394   0.144   6.546   3.372
 7151TIP3   OH221395   8.248   1.226   2.124
 7151TIP3    H121396   8.203   1.263   2.049
 7151TIP3    H221397   8.257   1.133   2.104
 7152TIP3   OH221398   2.927   1.178   6.424
 7152TIP3    H121399   3.004   1.149   6.375
 7152TIP3    H221400   2.897   1.099   6.469
 7153TIP3   OH221401   2.086   3.336   0.911
 7153TIP3    H121402   2.001   3.377   0.891
 7153TIP3    H221403   2.085   3.326   1.006
 7154TIP3   OH221404   6.700   4.975   5.677
 7154TIP3    H121405   6.742   5.041   5.733
 7154TIP3    H221406   6.611   5.008   5.664
 7155TIP3   OH221407   4.535   1.483   4.705
 7155TIP3    H121408   4.483   1.539   4.763
 7155TIP3    H221409   4.471   1.448   4.642
 7156TIP3   OH221410   7.165   4.624   3.601
 7156TIP3    H121411   7.241   4.658   3.553
 7156TIP3    H221412   7.170   4.665   3.687
 7157TIP3   OH221413   7.206   3.034   6.700
 7157TIP3    H121414   7.283   3.004   6.652
 7157TIP3    H221415   7.193   3.124   6.670
 7158TIP3   OH221416   0.232   7.420   2.558
 7158TIP3    H121417   0.179   7.357   2.509
 7158TIP3    H221418   0.224   7.502   2.508
 7159TIP3   OH221419   7.339   2.558   5.299
 7159TIP3    H121420   7.259   2.517   5.331
 7159TIP3    H221421   7.316   2.589   5.211
 7160TIP3   OH221422   3.586   6.879   5.802
 7160TIP3    H121423   3.515   6.817   5.816
 7160TIP3    H221424   3.561   6.927   5.722
 7161TIP3   OH221425   7.002   1.344   3.088
 7161TIP3    H121426   7.040   1.358   3.001
 7161TIP3    H221427   6.940   1.416   3.099
 7162TIP3   OH221428   5.733   0.370   0.780
 7162TIP3    H121429   5.816   0.417   0.777
 7162TIP3    H221430   5.757   0.277   0.777
 7163TIP3   OH221431   4.512   4.768   1.793
 7163TIP3    H121432   4.508   4.697   1.857
 7163TIP3    H221433   4.602   4.800   1.798
 7164TIP3   OH221434   4.959   1.599   5.043
 7164TIP3    H121435   4.990   1.565   4.960
 7164TIP3    H221436   4.972   1.694   5.037
 7165TIP3   OH221437   5.981   0.470   0.166
 7165TIP3    H121438   5.889   0.443   0.171
 7165TIP3    H221439   5.986   0.549   0.219
 7166TIP3   OH221440   4.545   6.861   2.456
 7166TIP3    H121441   4.523   6.874   2.548
 7166TIP3    H221442   4.558   6.950   2.422
 7167TIP3   OH221443   6.323   5.930   3.029
 7167TIP3    H121444   6.307   6.018   3.063
 7167TIP3    H221445   6.244   5.881   3.049
 7168TIP3   OH221446   4.449   6.685   2.266
 7168TIP3    H121447   4.532   6.684   2.219
 7168TIP3    H221448   4.451   6.766   2.317
 7169TIP3   OH221449   1.784   1.059   1.032
 7169TIP3    H121450   1.780   1.151   1.005
 7169TIP3    H221451   1.694   1.027   1.021
 7170TIP3   OH221452   3.813   1.325   2.699
 7170TIP3    H121453   3.722   1.341   2.673
 7170TIP3    H221454   3.839   1.405   2.743
 7171TIP3   OH221455   1.279   0.799   1.337
 7171TIP3    H121456   1.278   0.803   1.433
 7171TIP3    H221457   1.187   0.790   1.313
 7172TIP3   OH221458   6.704   2.059   2.826
 7172TIP3    H121459   6.667   2.071   2.738
 7172TIP3    H221460   6.790   2.020   2.810
 7173TIP3   OH221461   3.652   5.927   0.637
 7173TIP3    H121462   3.616   5.860   0.695
 7173TIP3    H221463   3.683   5.996   0.696
 7174TIP3   OH221464   2.641   3.899   0.559
 7174TIP3    H121465   2.567   3.933   0.509
 7174TIP3    H221466   2.710   3.965   0.548
 7175TIP3   OH221467   7.369   4.929   1.917
 7175TIP3    H121468   7.441   4.885   1.963
 7175TIP3    H221469   7.338   4.864   1.854
 7176TIP3   OH221470   4.142   0.150   2.748
 7176TIP3    H121471   4.085   0.216   2.789
 7176TIP3    H221472   4.140   0.172   2.655
 7177TIP3   OH221473   2.666   0.990   4.969
 7177TIP3    H121474   2.603   1.006   4.899
 7177TIP3    H221475   2.626   0.922   5.022
 7178TIP3   OH221476   4.539   1.986   1.847
 7178TIP3    H121477   4.541   1.939   1.930
 7178TIP3    H221478   4.628   2.022   1.839
 7179TIP3   OH221479   4.338   0.480   1.282
 7179TIP3    H121480   4.363   0.388   1.285
 7179TIP3    H221481   4.269   0.485   1.216
 7180TIP3   OH221482   7.471   7.588   1.285
 7180TIP3    H121483   7.429   7.533   1.219
 7180TIP3    H221484   7.560   7.555   1.292
 7181TIP3   OH221485   1.472   6.340   1.605
 7181TIP3    H121486   1.484   6.247   1.586
 7181TIP3    H221487   1.423   6.341   1.687
 7182TIP3   OH221488   2.530   3.760   1.325
 7182TIP3    H121489   2.516   3.824   1.255
 7182TIP3    H221490   2.523   3.675   1.281
 7183TIP3   OH221491   7.618   0.576   1.286
 7183TIP3    H121492   7.637   0.624   1.367
 7183TIP3    H221493   7.637   0.639   1.217
 7184TIP3   OH221494   6.056   4.323   3.836
 7184TIP3    H121495   6.082   4.300   3.747
 7184TIP3    H221496   5.960   4.323   3.833
 7185TIP3   OH221497   2.325   0.293   1.573
 7185TIP3    H121498   2.302   0.211   1.616
 7185TIP3    H221499   2.366   0.345   1.643
 7186TIP3   OH221500   2.533   6.277   3.020
 7186TIP3    H121501   2.605   6.259   3.082
 7186TIP3    H221502   2.547   6.368   2.994
 7187TIP3   OH221503   2.370   6.755   4.080
 7187TIP3    H121504   2.379   6.662   4.058
 7187TIP3    H221505   2.378   6.801   3.997
 7188TIP3   OH221506   6.323   3.572   5.405
 7188TIP3    H121507   6.271   3.503   5.445
 7188TIP3    H221508   6.313   3.559   5.311
 7189TIP3   OH221509   5.665   1.362   3.459
 7189TIP3    H121510   5.650   1.453   3.485
 7189TIP3    H221511   5.615   1.311   3.523
 7190TIP3   OH221512   2.540   2.660   2.188
 7190TIP3    H121513   2.510   2.605   2.261
 7190TIP3    H221514   2.629   2.630   2.172
 7191TIP3   OH221515   3.847   1.264   4.642
 7191TIP3    H121516   3.858   1.357   4.619
 7191TIP3    H221517   3.752   1.251   4.639
 7192TIP3   OH221518   4.399   1.531   6.003
 7192TIP3    H121519   4.396   1.522   6.099
 7192TIP3    H221520   4.311   1.561   5.979
 7193TIP3   OH221521   4.640   4.237   2.521
 7193TIP3    H121522   4.624   4.150   2.557
 7193TIP3    H221523   4.577   4.294   2.567
 7194TIP3   OH221524   0.164   0.742   4.549
 7194TIP3    H121525   0.085   0.699   4.517
 7194TIP3    H221526   0.191   0.801   4.478
 7195TIP3   OH221527   6.886   7.345   3.291
 7195TIP3    H121528   6.931   7.361   3.208
 7195TIP3    H221529   6.793   7.345   3.268
 7196TIP3   OH221530   0.062   3.600   1.529
 7196TIP3    H121531  -0.006   3.587   1.595
 7196TIP3    H221532   0.087   3.692   1.538
 7197TIP3   OH221533   7.730   3.094   1.307
 7197TIP3    H121534   7.726   3.037   1.230
 7197TIP3    H221535   7.812   3.071   1.350
 7198TIP3   OH221536   1.963   0.393   1.352
 7198TIP3    H121537   1.949   0.391   1.257
 7198TIP3    H221538   2.057   0.381   1.362
 7199TIP3   OH221539   5.710   5.504   6.764
 7199TIP3    H121540   5.634   5.457   6.731
 7199TIP3    H221541   5.784   5.447   6.746
 7200TIP3   OH221542   1.881   5.900   2.736
 7200TIP3    H121543   1.940   5.968   2.701
 7200TIP3    H221544   1.939   5.839   2.781
 7201TIP3   OH221545   4.204   7.798   5.388
 7201TIP3    H121546   4.146   7.842   5.450
 7201TIP3    H221547   4.288   7.791   5.435
 7202TIP3   OH221548   2.682   4.195   2.629
 7202TIP3    H121549   2.612   4.192   2.564
 7202TIP3    H221550   2.638   4.181   2.713
 7203TIP3   OH221551   7.725   2.439   1.658
 7203TIP3    H121552   7.723   2.406   1.747
 7203TIP3    H221553   7.686   2.526   1.663
 7204TIP3   OH221554   8.229   5.042   4.283
 7204TIP3    H121555   8.196   4.977   4.220
 7204TIP3    H221556   8.176   5.120   4.266
 7205TIP3   OH221557   7.416   4.760   3.594
 7205TIP3    H121558   7.421   4.856   3.592
 7205TIP3    H221559   7.505   4.731   3.576
 7206TIP3   OH221560   7.852   5.523   6.763
 7206TIP3    H121561   7.877   5.463   6.692
 7206TIP3    H221562   7.907   5.600   6.748
 7207TIP3   OH221563  -0.005   5.108   6.045
 7207TIP3    H121564   0.070   5.092   6.101
 7207TIP3    H221565  -0.033   5.197   6.066
 7208TIP3   OH221566   5.574   5.077   0.391
 7208TIP3    H121567   5.660   5.118   0.400
 7208TIP3    H221568   5.557   5.041   0.478
 7209TIP3   OH221569   0.341   1.011   1.262
 7209TIP3    H121570   0.354   0.999   1.356
 7209TIP3    H221571   0.247   1.026   1.252
 7210TIP3   OH221572   1.822   2.819   4.352
 7210TIP3    H121573   1.727   2.823   4.367
 7210TIP3    H221574   1.845   2.907   4.322
 7211TIP3   OH221575   0.225   1.552   5.475
 7211TIP3    H121576   0.171   1.629   5.490
 7211TIP3    H221577   0.165   1.478   5.479
 7212TIP3   OH221578   3.249   1.224   0.595
 7212TIP3    H121579   3.160   1.191   0.595
 7212TIP3    H221580   3.300   1.157   0.549
 7213TIP3   OH221581   5.990   5.652   4.774
 7213TIP3    H121582   6.011   5.677   4.864
 7213TIP3    H221583   6.003   5.557   4.772
 7214TIP3   OH221584   3.545   6.272   3.978
 7214TIP3    H121585   3.602   6.316   3.915
 7214TIP3    H221586   3.502   6.343   4.025
 7215TIP3   OH221587   5.072   0.554   3.094
 7215TIP3    H121588   5.129   0.631   3.091
 7215TIP3    H221589   5.035   0.556   3.182
 7216TIP3   OH221590   5.710   0.401   0.252
 7216TIP3    H121591   5.679   0.342   0.322
 7216TIP3    H221592   5.674   0.486   0.275
 7217TIP3   OH221593   0.738   6.402   0.796
 7217TIP3    H121594   0.698   6.344   0.732
 7217TIP3    H221595   0.685   6.481   0.795
 7218TIP3   OH221596   1.292   5.669   3.240
 7218TIP3    H121597   1.361   5.603   3.227
 7218TIP3    H221598   1.244   5.670   3.157
 7219TIP3   OH221599   6.905   3.197   5.402
 7219TIP3    H121600   6.848   3.154   5.466
 7219TIP3    H221601   6.989   3.150   5.410
 7220TIP3   OH221602   5.464   0.611   4.088
 7220TIP3    H121603   5.441   0.703   4.093
 7220TIP3    H221604   5.459   0.580   4.179
 7221TIP3   OH221605   0.470   1.535   5.320
 7221TIP3    H121606   0.439   1.620   5.291
 7221TIP3    H221607   0.404   1.503   5.381
 7222TIP3   OH221608   1.137   2.239   0.300
 7222TIP3    H121609   1.060   2.185   0.319
 7222TIP3    H221610   1.104   2.311   0.246
 7223TIP3   OH221611   4.337   4.719   0.056
 7223TIP3    H121612   4.300   4.633   0.071
 7223TIP3    H221613   4.333   4.731  -0.039
 7224TIP3   OH221614   6.470   6.795   2.711
 7224TIP3    H121615   6.534   6.838   2.768
 7224TIP3    H221616   6.400   6.767   2.770
 7225TIP3   OH221617   7.563   5.203   2.131
 7225TIP3    H121618   7.621   5.137   2.167
 7225TIP3    H221619   7.576   5.199   2.036
 7226TIP3   OH221620   0.652   4.640   5.130
 7226TIP3    H121621   0.568   4.630   5.085
 7226TIP3    H221622   0.680   4.550   5.147
 7227TIP3   OH221623   3.454   0.204   5.466
 7227TIP3    H121624   3.459   0.171   5.556
 7227TIP3    H221625   3.471   0.298   5.474
 7228TIP3   OH221626   3.104   3.583   4.169
 7228TIP3    H121627   3.152   3.552   4.246
 7228TIP3    H221628   3.160   3.652   4.132
 7229TIP3   OH221629   3.820   0.697   1.381
 7229TIP3    H121630   3.896   0.728   1.430
 7229TIP3    H221631   3.785   0.624   1.432
 7230TIP3   OH221632   8.114   2.929   3.170
 7230TIP3    H121633   8.073   2.861   3.225
 7230TIP3    H221634   8.169   2.978   3.231
 7231TIP3   OH221635   5.720   1.728   5.528
 7231TIP3    H121636   5.804   1.770   5.509
 7231TIP3    H221637   5.701   1.753   5.619
 7232TIP3   OH221638   6.902   1.334   2.227
 7232TIP3    H121639   6.891   1.428   2.214
 7232TIP3    H221640   6.826   1.294   2.185
 7233TIP3   OH221641   4.367   0.382   2.755
 7233TIP3    H121642   4.374   0.399   2.849
 7233TIP3    H221643   4.274   0.393   2.735
 7234TIP3   OH221644   2.347   1.469   1.619
 7234TIP3    H121645   2.311   1.412   1.687
 7234TIP3    H221646   2.417   1.518   1.664
 7235TIP3   OH221647   7.217   5.249   1.095
 7235TIP3    H121648   7.205   5.261   1.000
 7235TIP3    H221649   7.301   5.293   1.113
 7236TIP3   OH221650   6.805   1.162   3.397
 7236TIP3    H121651   6.804   1.218   3.319
 7236TIP3    H221652   6.873   1.200   3.453
 7237TIP3   OH221653   6.189   6.595   1.587
 7237TIP3    H121654   6.265   6.622   1.639
 7237TIP3    H221655   6.211   6.623   1.498
 7238TIP3   OH221656   5.399   2.057   5.381
 7238TIP3    H121657   5.443   2.134   5.419
 7238TIP3    H221658   5.405   1.990   5.448
 7239TIP3   OH221659   5.632   2.733   3.943
 7239TIP3    H121660   5.549   2.779   3.932
 7239TIP3    H221661   5.699   2.800   3.929
 7240TIP3   OH221662   3.447   5.074   3.485
 7240TIP3    H121663   3.432   5.151   3.429
 7240TIP3    H221664   3.541   5.074   3.503
 7241TIP3   OH221665   1.613   1.606   5.489
 7241TIP3    H121666   1.662   1.685   5.466
 7241TIP3    H221667   1.671   1.557   5.547
 7242TIP3   OH221668   0.118   4.824   0.665
 7242TIP3    H121669   0.023   4.839   0.671
 7242TIP3    H221670   0.132   4.743   0.714
 7243TIP3   OH221671   1.745   5.151   1.552
 7243TIP3    H121672   1.744   5.246   1.564
 7243TIP3    H221673   1.774   5.116   1.636
 7244TIP3   OH221674   7.744   7.502   1.288
 7244TIP3    H121675   7.784   7.589   1.297
 7244TIP3    H221676   7.777   7.453   1.363
 7245TIP3   OH221677   3.841   3.680   1.707
 7245TIP3    H121678   3.879   3.644   1.627
 7245TIP3    H221679   3.868   3.620   1.776
 7246TIP3   OH221680   0.154   5.430   2.990
 7246TIP3    H121681   0.213   5.356   2.975
 7246TIP3    H221682   0.157   5.444   3.085
 7247TIP3   OH221683   7.812   7.133   0.919
 7247TIP3    H121684   7.803   7.040   0.940
 7247TIP3    H221685   7.792   7.139   0.826
 7248TIP3   OH221686   8.085   3.932   3.958
 7248TIP3    H121687   8.154   3.933   4.025
 7248TIP3    H221688   8.124   3.885   3.884
 7249TIP3   OH221689   0.389   3.418   1.646
 7249TIP3    H121690   0.441   3.338   1.653
 7249TIP3    H221691   0.445   3.487   1.682
 7250TIP3   OH221692   8.102   7.222   1.908
 7250TIP3    H121693   8.127   7.254   1.821
 7250TIP3    H221694   8.007   7.222   1.907
 7251TIP3   OH221695   2.369   0.914   5.681
 7251TIP3    H121696   2.309   0.845   5.709
 7251TIP3    H221697   2.391   0.961   5.761
 7252TIP3   OH221698   3.507   6.329   0.825
 7252TIP3    H121699   3.574   6.396   0.839
 7252TIP3    H221700   3.525   6.295   0.737
 7253TIP3   OH221701   6.291   1.689   3.411
 7253TIP3    H121702   6.243   1.608   3.393
 7253TIP3    H221703   6.329   1.676   3.498
 7254TIP3   OH221704   4.235   1.400   5.659
 7254TIP3    H121705   4.251   1.352   5.740
 7254TIP3    H221706   4.189   1.338   5.602
 7255TIP3   OH221707   2.211   7.398   6.198
 7255TIP3    H121708   2.122   7.373   6.222
 7255TIP3    H221709   2.207   7.492   6.184
 7256TIP3   OH221710   7.446   2.765   3.570
 7256TIP3    H121711   7.529   2.806   3.594
 7256TIP3    H221712   7.464   2.722   3.487
 7257TIP3   OH221713   0.204   7.128   6.387
 7257TIP3    H121714   0.210   7.218   6.355
 7257TIP3    H221715   0.289   7.089   6.366
 7258TIP3   OH221716   6.630   3.358   1.008
 7258TIP3    H121717   6.549   3.315   1.033
 7258TIP3    H221718   6.606   3.418   0.938
 7259TIP3   OH221719   8.093   7.664   6.266
 7259TIP3    H121720   8.121   7.574   6.280
 7259TIP3    H221721   8.154   7.718   6.316
 7260TIP3   OH221722   2.532   1.100   4.524
 7260TIP3    H121723   2.549   1.132   4.613
 7260TIP3    H221724   2.618   1.078   4.490
 7261TIP3   OH221725   4.478   6.142   1.418
 7261TIP3    H121726   4.414   6.170   1.484
 7261TIP3    H221727   4.429   6.085   1.360
 7262TIP3   OH221728   5.078   7.289   1.458
 7262TIP3    H121729   5.128   7.256   1.532
 7262TIP3    H221730   5.001   7.233   1.454
 7263TIP3   OH221731   7.617   6.807   5.317
 7263TIP3    H121732   7.709   6.833   5.324
 7263TIP3    H221733   7.619   6.724   5.271
 7264TIP3   OH221734   5.505   0.745   5.401
 7264TIP3    H121735   5.513   0.687   5.477
 7264TIP3    H221736   5.592   0.743   5.361
 7265TIP3   OH221737   2.495   7.299   2.516
 7265TIP3    H121738   2.499   7.329   2.425
 7265TIP3    H221739   2.540   7.214   2.515
 7266TIP3   OH221740   3.961   0.355   1.637
 7266TIP3    H121741   3.920   0.418   1.578
 7266TIP3    H221742   3.993   0.286   1.579
 7267TIP3   OH221743   2.648   2.060   4.552
 7267TIP3    H121744   2.643   2.088   4.643
 7267TIP3    H221745   2.650   1.965   4.556
 7268TIP3   OH221746   1.486   0.182   3.307
 7268TIP3    H121747   1.563   0.239   3.296
 7268TIP3    H221748   1.500   0.111   3.245
 7269TIP3   OH221749   6.247   5.818   4.075
 7269TIP3    H121750   6.332   5.857   4.058
 7269TIP3    H221751   6.199   5.884   4.124
 7270TIP3   OH221752   0.635   6.613   1.901
 7270TIP3    H121753   0.655   6.545   1.965
 7270TIP3    H221754   0.542   6.633   1.917
 7271TIP3   OH221755   2.644   0.216   0.275
 7271TIP3    H121756   2.636   0.123   0.255
 7271TIP3    H221757   2.640   0.220   0.371
 7272TIP3   OH221758   0.624   3.068   5.183
 7272TIP3    H121759   0.590   3.073   5.094
 7272TIP3    H221760   0.585   2.989   5.220
 7273TIP3   OH221761   0.739   5.379   0.109
 7273TIP3    H121762   0.826   5.419   0.105
 7273TIP3    H221763   0.721   5.370   0.203
 7274TIP3   OH221764   1.940   1.695   3.917
 7274TIP3    H121765   2.014   1.693   3.978
 7274TIP3    H221766   1.958   1.771   3.861
 7275TIP3   OH221767   4.954   5.690   1.931
 7275TIP3    H121768   4.872   5.740   1.929
 7275TIP3    H221769   4.993   5.711   2.016
 7276TIP3   OH221770   7.157   6.744   2.295
 7276TIP3    H121771   7.229   6.783   2.246
 7276TIP3    H221772   7.083   6.803   2.279
 7277TIP3   OH221773   4.739   1.954   4.679
 7277TIP3    H121774   4.784   1.977   4.598
 7277TIP3    H221775   4.649   1.937   4.652
 7278TIP3   OH221776   4.803   2.851   0.352
 7278TIP3    H121777   4.866   2.785   0.380
 7278TIP3    H221778   4.758   2.811   0.278
 7279TIP3   OH221779   1.815   2.720   2.348
 7279TIP3    H121780   1.757   2.704   2.273
 7279TIP3    H221781   1.893   2.668   2.329
 7280TIP3   OH221782   3.610   1.467   3.870
 7280TIP3    H121783   3.627   1.381   3.908
 7280TIP3    H221784   3.561   1.514   3.937
 7281TIP3   OH221785   1.000   2.867   5.296
 7281TIP3    H121786   0.956   2.838   5.217
 7281TIP3    H221787   1.074   2.807   5.306
 7282TIP3   OH221788   5.251   2.723   2.888
 7282TIP3    H121789   5.156   2.720   2.874
 7282TIP3    H221790   5.288   2.721   2.800
 7283TIP3   OH221791   1.069   4.718   5.845
 7283TIP3    H121792   1.008   4.652   5.880
 7283TIP3    H221793   1.021   4.760   5.774
 7284TIP3   OH221794   3.904   5.363   5.486
 7284TIP3    H121795   3.873   5.416   5.412
 7284TIP3    H221796   3.934   5.428   5.551
 7285TIP3   OH221797   5.734   0.564   1.549
 7285TIP3    H121798   5.690   0.642   1.513
 7285TIP3    H221799   5.827   0.579   1.531
 7286TIP3   OH221800   4.480   4.835   0.506
 7286TIP3    H121801   4.411   4.789   0.459
 7286TIP3    H221802   4.534   4.875   0.438
 7287TIP3   OH221803   0.855   5.620   4.478
 7287TIP3    H121804   0.800   5.584   4.548
 7287TIP3    H221805   0.835   5.713   4.476
 7288TIP3   OH221806   0.796   1.915   1.662
 7288TIP3    H121807   0.752   1.831   1.649
 7288TIP3    H221808   0.726   1.975   1.688
 7289TIP3   OH221809   4.634   2.852   1.449
 7289TIP3    H121810   4.725   2.863   1.473
 7289TIP3    H221811   4.633   2.772   1.396
 7290TIP3   OH221812   3.690   2.621   5.822
 7290TIP3    H121813   3.695   2.597   5.915
 7290TIP3    H221814   3.716   2.542   5.775
 7291TIP3   OH221815   7.228   4.355   4.891
 7291TIP3    H121816   7.137   4.337   4.868
 7291TIP3    H221817   7.275   4.350   4.808
 7292TIP3   OH221818   1.523   4.352   5.624
 7292TIP3    H121819   1.538   4.301   5.703
 7292TIP3    H221820   1.530   4.443   5.653
 7293TIP3   OH221821   6.222   1.192   2.561
 7293TIP3    H121822   6.133   1.158   2.566
 7293TIP3    H221823   6.253   1.166   2.475
 7294TIP3   OH221824   4.076   5.470   1.052
 7294TIP3    H121825   4.008   5.418   1.095
 7294TIP3    H221826   4.031   5.546   1.017
 7295TIP3   OH221827   6.927   0.222   3.598
 7295TIP3    H121828   6.946   0.135   3.562
 7295TIP3    H221829   6.948   0.214   3.691
 7296TIP3   OH221830   8.109   2.115   2.591
 7296TIP3    H121831   8.184   2.139   2.646
 7296TIP3    H221832   8.058   2.196   2.583
 7297TIP3   OH221833   5.027   3.626   5.515
 7297TIP3    H121834   4.966   3.661   5.580
 7297TIP3    H221835   5.104   3.683   5.521
 7298TIP3   OH221836   5.200   0.508   6.351
 7298TIP3    H121837   5.263   0.496   6.280
 7298TIP3    H221838   5.234   0.454   6.423
 7299TIP3   OH221839   5.406   7.606   2.224
 7299TIP3    H121840   5.442   7.519   2.204
 7299TIP3    H221841   5.314   7.600   2.196
 7300TIP3   OH221842   8.234   0.110   3.465
 7300TIP3    H121843   8.288   0.166   3.520
 7300TIP3    H221844   8.188   0.171   3.406
 7301TIP3   OH221845   1.476   2.305   5.336
 7301TIP3    H121846   1.466   2.272   5.425
 7301TIP3    H221847   1.387   2.333   5.311
 7302TIP3   OH221848   7.985   5.912   1.294
 7302TIP3    H121849   7.954   5.999   1.269
 7302TIP3    H221850   7.996   5.866   1.211
 7303TIP3   OH221851   5.865   6.728   2.851
 7303TIP3    H121852   5.870   6.817   2.887
 7303TIP3    H221853   5.949   6.715   2.807
 7304TIP3   OH221854   5.911   5.458   2.815
 7304TIP3    H121855   5.957   5.378   2.788
 7304TIP3    H221856   5.958   5.528   2.770
 7305TIP3   OH221857   2.457   2.037   3.782
 7305TIP3    H121858   2.540   2.005   3.818
 7305TIP3    H221859   2.393   2.017   3.851
 7306TIP3   OH221860   5.529   5.698   6.287
 7306TIP3    H121861   5.520   5.762   6.217
 7306TIP3    H221862   5.600   5.641   6.259
 7307TIP3   OH221863   2.850   6.763   1.149
 7307TIP3    H121864   2.901   6.843   1.134
 7307TIP3    H221865   2.853   6.750   1.244
 7308TIP3   OH221866   4.300   1.880   1.473
 7308TIP3    H121867   4.209   1.857   1.493
 7308TIP3    H221868   4.352   1.823   1.530
 7309TIP3   OH221869   4.247   1.639   0.840
 7309TIP3    H121870   4.291   1.572   0.788
 7309TIP3    H221871   4.283   1.722   0.808
 7310TIP3   OH221872   4.915   2.264   2.224
 7310TIP3    H121873   4.938   2.328   2.291
 7310TIP3    H221874   4.868   2.195   2.271
 7311TIP3   OH221875   0.928   7.549   5.948
 7311TIP3    H121876   0.897   7.545   5.857
 7311TIP3    H221877   0.948   7.458   5.970
 7312TIP3   OH221878   4.175   4.979   0.119
 7312TIP3    H121879   4.113   4.907   0.129
 7312TIP3    H221880   4.131   5.055   0.157
 7313TIP3   OH221881   4.917   1.504   4.084
 7313TIP3    H121882   4.907   1.425   4.030
 7313TIP3    H221883   4.911   1.472   4.174
 7314TIP3   OH221884   6.705   7.663   3.102
 7314TIP3    H121885   6.750   7.661   3.018
 7314TIP3    H221886   6.772   7.639   3.166
 7315TIP3   OH221887   4.517   5.353   3.739
 7315TIP3    H121888   4.485   5.312   3.819
 7315TIP3    H221889   4.608   5.378   3.758
 7316TIP3   OH221890   7.123   7.468   0.002
 7316TIP3    H121891   7.050   7.530   0.005
 7316TIP3    H221892   7.172   7.483   0.083
 7317TIP3   OH221893   3.324   6.784   4.717
 7317TIP3    H121894   3.337   6.863   4.770
 7317TIP3    H221895   3.334   6.712   4.778
 7318TIP3   OH221896   7.749   6.472  -0.018
 7318TIP3    H121897   7.765   6.380  -0.041
 7318TIP3    H221898   7.778   6.479   0.073
 7319TIP3   OH221899   7.254   7.529   4.848
 7319TIP3    H121900   7.169   7.487   4.860
 7319TIP3    H221901   7.312   7.458   4.820
 7320TIP3   OH221902   8.000   6.239   1.339
 7320TIP3    H121903   7.946   6.317   1.336
 7320TIP3    H221904   8.074   6.258   1.282
 7321TIP3   OH221905   1.691   2.770   1.601
 7321TIP3    H121906   1.599   2.771   1.626
 7321TIP3    H221907   1.696   2.708   1.528
 7322TIP3   OH221908   1.986   4.287   3.875
 7322TIP3    H121909   2.021   4.262   3.961
 7322TIP3    H221910   1.981   4.205   3.826
 7323TIP3   OH221911   7.527   7.526   2.596
 7323TIP3    H121912   7.526   7.491   2.685
 7323TIP3    H221913   7.506   7.450   2.540
 7324TIP3   OH221914   6.893   2.443   2.364
 7324TIP3    H121915   6.973   2.477   2.323
 7324TIP3    H221916   6.841   2.521   2.382
 7325TIP3   OH221917   1.191   2.363   0.761
 7325TIP3    H121918   1.223   2.332   0.676
 7325TIP3    H221919   1.185   2.458   0.751
 7326TIP3   OH221920   3.870   4.632   1.306
 7326TIP3    H121921   3.870   4.590   1.392
 7326TIP3    H221922   3.852   4.561   1.244
 7327TIP3   OH221923   1.424   6.347   0.773
 7327TIP3    H121924   1.415   6.440   0.797
 7327TIP3    H221925   1.505   6.344   0.721
 7328TIP3   OH221926   3.912   3.153   3.422
 7328TIP3    H121927   3.880   3.240   3.401
 7328TIP3    H221928   4.005   3.165   3.441
 7329TIP3   OH221929   6.928   3.993   3.636
 7329TIP3    H121930   6.986   4.066   3.615
 7329TIP3    H221931   6.986   3.917   3.645
 7330TIP3   OH221932   3.096   0.875   3.963
 7330TIP3    H121933   3.082   0.895   4.056
 7330TIP3    H221934   3.141   0.790   3.964
 7331TIP3   OH221935   2.826   1.328   3.547
 7331TIP3    H121936   2.832   1.260   3.614
 7331TIP3    H221937   2.911   1.327   3.504
 7332TIP3   OH221938   4.141   1.332   2.266
 7332TIP3    H121939   4.089   1.301   2.193
 7332TIP3    H221940   4.232   1.317   2.240
 7333TIP3   OH221941   4.266   2.489   5.740
 7333TIP3    H121942   4.229   2.577   5.731
 7333TIP3    H221943   4.247   2.447   5.656
 7334TIP3   OH221944   6.052   3.034   2.364
 7334TIP3    H121945   6.045   3.096   2.437
 7334TIP3    H221946   6.131   3.060   2.318
 7335TIP3   OH221947   3.391   4.582   6.255
 7335TIP3    H121948   3.355   4.500   6.289
 7335TIP3    H221949   3.315   4.634   6.229
 7336TIP3   OH221950   5.828   5.851   1.320
 7336TIP3    H121951   5.811   5.799   1.241
 7336TIP3    H221952   5.801   5.794   1.391
 7337TIP3   OH221953   4.595   0.934   5.927
 7337TIP3    H121954   4.542   1.010   5.901
 7337TIP3    H221955   4.616   0.950   6.019
 7338TIP3   OH221956   1.209   4.912   3.286
 7338TIP3    H121957   1.254   4.917   3.370
 7338TIP3    H221958   1.171   4.999   3.275
 7339TIP3   OH221959   6.779   4.034   2.133
 7339TIP3    H121960   6.737   4.048   2.048
 7339TIP3    H221961   6.865   3.999   2.112
 7340TIP3   OH221962   7.067   4.354   1.516
 7340TIP3    H121963   6.978   4.346   1.481
 7340TIP3    H221964   7.084   4.448   1.518
 7341TIP3   OH221965   1.609   2.903   5.176
 7341TIP3    H121966   1.630   2.851   5.098
 7341TIP3    H221967   1.590   2.837   5.243
 7342TIP3   OH221968   7.103   2.249   5.680
 7342TIP3    H121969   7.134   2.166   5.642
 7342TIP3    H221970   7.054   2.291   5.609
 7343TIP3   OH221971   5.445   4.701   0.530
 7343TIP3    H121972   5.526   4.751   0.543
 7343TIP3    H221973   5.378   4.768   0.519
 7344TIP3   OH221974   1.933   7.401   6.219
 7344TIP3    H121975   1.911   7.492   6.200
 7344TIP3    H221976   1.928   7.356   6.135
 7345TIP3   OH221977   3.775   2.797   6.537
 7345TIP3    H121978   3.705   2.825   6.478
 7345TIP3    H221979   3.747   2.828   6.623
 7346TIP3   OH221980   5.768   7.146   0.708
 7346TIP3    H121981   5.802   7.108   0.626
 7346TIP3    H221982   5.751   7.238   0.686
 7347TIP3   OH221983   2.088   1.802   2.802
 7347TIP3    H121984   2.039   1.872   2.759
 7347TIP3    H221985   2.123   1.842   2.881
 7348TIP3   OH221986   5.002   0.854   4.634
 7348TIP3    H121987   4.929   0.900   4.676
 7348TIP3    H221988   5.080   0.889   4.677
 7349TIP3   OH221989   1.543   0.044   3.562
 7349TIP3    H121990   1.619   0.088   3.600
 7349TIP3    H221991   1.524   0.092   3.482
 7350TIP3   OH221992   4.454   3.490   0.480
 7350TIP3    H121993   4.514   3.428   0.522
 7350TIP3    H221994   4.383   3.502   0.544
 7351TIP3   OH221995   0.136   2.735   0.263
 7351TIP3    H121996   0.113   2.804   0.200
 7351TIP3    H221997   0.213   2.770   0.309
 7352TIP3   OH221998   6.190   1.573   2.595
 7352TIP3    H121999   6.148   1.522   2.525
 7352TIP3    H222000   6.118   1.621   2.636
 7353TIP3   OH222001   6.607   4.696   4.937
 7353TIP3    H122002   6.627   4.698   5.031
 7353TIP3    H222003   6.548   4.620   4.927
 7354TIP3   OH222004   3.416   4.718   6.469
 7354TIP3    H122005   3.497   4.768   6.480
 7354TIP3    H222006   3.421   4.684   6.380
 7355TIP3   OH222007   2.737   1.888   6.262
 7355TIP3    H122008   2.809   1.866   6.203
 7355TIP3    H222009   2.697   1.804   6.283
 7356TIP3   OH222010   3.355   1.481   4.943
 7356TIP3    H122011   3.285   1.543   4.923
 7356TIP3    H222012   3.331   1.401   4.897
 7357TIP3   OH222013   4.577   4.671   3.762
 7357TIP3    H122014   4.566   4.694   3.855
 7357TIP3    H222015   4.660   4.624   3.759
 7358TIP3   OH222016   6.853   0.608   1.004
 7358TIP3    H122017   6.833   0.696   1.036
 7358TIP3    H222018   6.944   0.614   0.975
 7359TIP3   OH222019   6.515   5.472   4.066
 7359TIP3    H122020   6.553   5.430   4.143
 7359TIP3    H222021   6.563   5.555   4.058
 7360TIP3   OH222022   7.420   5.792   6.180
 7360TIP3    H122023   7.393   5.884   6.186
 7360TIP3    H222024   7.340   5.745   6.156
 7361TIP3   OH222025   0.269   3.628   6.313
 7361TIP3    H122026   0.358   3.603   6.287
 7361TIP3    H222027   0.267   3.723   6.302
 7362TIP3   OH222028   0.785   4.749   0.007
 7362TIP3    H122029   0.762   4.758   0.099
 7362TIP3    H222030   0.707   4.776  -0.041
 7363TIP3   OH222031   7.996   4.202   5.491
 7363TIP3    H122032   7.957   4.155   5.418
 7363TIP3    H222033   8.046   4.273   5.450
 7364TIP3   OH222034   3.746   4.366   3.157
 7364TIP3    H122035   3.790   4.319   3.086
 7364TIP3    H222036   3.799   4.445   3.169
 7365TIP3   OH222037   3.475   7.652   6.258
 7365TIP3    H122038   3.554   7.600   6.263
 7365TIP3    H222039   3.407   7.597   6.297
 7366TIP3   OH222040   6.847   3.190   0.454
 7366TIP3    H122041   6.939   3.209   0.469
 7366TIP3    H222042   6.829   3.223   0.366
 7367TIP3   OH222043   3.744   4.111   1.886
 7367TIP3    H122044   3.698   4.029   1.868
 7367TIP3    H222045   3.717   4.135   1.974
 7368TIP3   OH222046   3.269   3.532   4.382
 7368TIP3    H122047   3.299   3.622   4.393
 7368TIP3    H222048   3.303   3.486   4.459
 7369TIP3   OH222049   0.330   0.875   3.742
 7369TIP3    H122050   0.406   0.827   3.710
 7369TIP3    H222051   0.359   0.967   3.744
 7370TIP3   OH222052   2.545   6.220   5.919
 7370TIP3    H122053   2.625   6.263   5.951
 7370TIP3    H222054   2.477   6.286   5.927
 7371TIP3   OH222055   2.562   0.261   5.369
 7371TIP3    H122056   2.493   0.327   5.362
 7371TIP3    H222057   2.525   0.184   5.325
 7372TIP3   OH222058   3.597   2.959   1.142
 7372TIP3    H122059   3.507   2.984   1.122
 7372TIP3    H222060   3.650   3.013   1.084
 7373TIP3   OH222061   2.030   7.265   1.045
 7373TIP3    H122062   1.959   7.234   1.101
 7373TIP3    H222063   2.005   7.238   0.957
 7374TIP3   OH222064   1.190   5.074   0.691
 7374TIP3    H122065   1.135   5.086   0.768
 7374TIP3    H222066   1.173   5.151   0.637
 7375TIP3   OH222067   4.925   7.763   1.282
 7375TIP3    H122068   4.882   7.819   1.347
 7375TIP3    H222069   4.908   7.806   1.198
 7376TIP3   OH222070   2.773   2.415   0.292
 7376TIP3    H122071   2.776   2.341   0.353
 7376TIP3    H222072   2.682   2.418   0.262
 7377TIP3   OH222073   4.270   2.777   1.174
 7377TIP3    H122074   4.319   2.721   1.114
 7377TIP3    H222075   4.264   2.726   1.255
 7378TIP3   OH222076   7.042   5.682   4.924
 7378TIP3    H122077   7.117   5.644   4.969
 7378TIP3    H222078   7.054   5.777   4.933
 7379TIP3   OH222079   1.783   4.815   6.675
 7379TIP3    H122080   1.696   4.850   6.659
 7379TIP3    H222081   1.770   4.747   6.741
 7380TIP3   OH222082   6.852   1.213   5.665
 7380TIP3    H122083   6.810   1.135   5.702
 7380TIP3    H222084   6.932   1.180   5.624
 7381TIP3   OH222085   5.989   1.776   6.381
 7381TIP3    H122086   5.998   1.853   6.438
 7381TIP3    H222087   5.934   1.716   6.431
 7382TIP3   OH222088   2.042   4.487   3.247
 7382TIP3    H122089   2.137   4.489   3.236
 7382TIP3    H222090   2.017   4.579   3.259
 7383TIP3   OH222091   3.380   7.106   5.623
 7383TIP3    H122092   3.371   7.150   5.707
 7383TIP3    H222093   3.474   7.107   5.604
 7384TIP3   OH222094   4.040   6.164   3.211
 7384TIP3    H122095   3.981   6.231   3.246
 7384TIP3    H222096   4.061   6.108   3.286
 7385TIP3   OH222097   8.051   1.302   2.847
 7385TIP3    H122098   8.094   1.266   2.769
 7385TIP3    H222099   8.090   1.255   2.920
 7386TIP3   OH222100   1.223   5.388   2.171
 7386TIP3    H122101   1.183   5.469   2.204
 7386TIP3    H222102   1.151   5.326   2.165
 7387TIP3   OH222103   5.793   6.743   6.413
 7387TIP3    H122104   5.831   6.676   6.470
 7387TIP3    H222105   5.707   6.708   6.388
 7388TIP3   OH222106   1.059   5.647   0.657
 7388TIP3    H122107   1.123   5.708   0.620
 7388TIP3    H222108   1.091   5.560   0.630
 7389TIP3   OH222109   6.847   0.633   4.447
 7389TIP3    H122110   6.877   0.573   4.378
 7389TIP3    H222111   6.898   0.712   4.433
 7390TIP3   OH222112   1.221   7.285   1.415
 7390TIP3    H122113   1.210   7.193   1.390
 7390TIP3    H222114   1.131   7.318   1.421
 7391TIP3   OH222115   4.271   4.326   5.443
 7391TIP3    H122116   4.187   4.315   5.487
 7391TIP3    H222117   4.320   4.247   5.463
 7392TIP3   OH222118   5.418   4.342   3.540
 7392TIP3    H122119   5.404   4.436   3.529
 7392TIP3    H222120   5.479   4.336   3.614
 7393TIP3   OH222121   5.774   0.943   5.044
 7393TIP3    H122122   5.758   1.025   5.091
 7393TIP3    H222123   5.856   0.910   5.081
 7394TIP3   OH222124   1.228   0.640   5.083
 7394TIP3    H122125   1.220   0.551   5.119
 7394TIP3    H222126   1.259   0.627   4.993
 7395TIP3   OH222127   8.136   2.633   1.865
 7395TIP3    H122128   8.139   2.657   1.772
 7395TIP3    H222129   8.085   2.703   1.906
 7396TIP3   OH222130   6.094   6.945   0.139
 7396TIP3    H122131   6.043   7.026   0.130
 7396TIP3    H222132   6.185   6.974   0.142
 7397TIP3   OH222133   5.678   1.025   1.593
 7397TIP3    H122134   5.751   1.032   1.655
 7397TIP3    H222135   5.715   0.982   1.516
 7398TIP3   OH222136   2.705   4.320   4.172
 7398TIP3    H122137   2.758   4.264   4.116
 7398TIP3    H222138   2.733   4.298   4.261
 7399TIP3   OH222139   6.218   7.245   5.799
 7399TIP3    H122140   6.135   7.198   5.812
 7399TIP3    H222141   6.271   7.220   5.875
 7400TIP3   OH222142   2.652   7.598   3.548
 7400TIP3    H122143   2.599   7.592   3.469
 7400TIP3    H222144   2.629   7.683   3.586
 7401TIP3   OH222145   2.086   0.608   1.163
 7401TIP3    H122146   2.109   0.606   1.256
 7401TIP3    H222147   2.111   0.696   1.134
 7402TIP3   OH222148   6.879   5.913   6.649
 7402TIP3    H122149   6.892   6.006   6.630
 7402TIP3    H222150   6.937   5.868   6.587
 7403TIP3   OH222151   6.187   1.508   4.035
 7403TIP3    H122152   6.144   1.593   4.046
 7403TIP3    H222153   6.130   1.446   4.080
 7404TIP3   OH222154   4.814   6.144   0.739
 7404TIP3    H122155   4.752   6.158   0.810
 7404TIP3    H222156   4.766   6.091   0.675
 7405TIP3   OH222157   5.278   0.489   4.585
 7405TIP3    H122158   5.264   0.519   4.675
 7405TIP3    H222159   5.189   0.479   4.549
 7406TIP3   OH222160   0.916   2.887   3.231
 7406TIP3    H122161   0.994   2.904   3.284
 7406TIP3    H222162   0.850   2.861   3.295
 7407TIP3   OH222163   7.725   4.854   6.412
 7407TIP3    H122164   7.683   4.878   6.495
 7407TIP3    H222165   7.801   4.802   6.437
 7408TIP3   OH222166   4.771   0.386   1.307
 7408TIP3    H122167   4.810   0.448   1.245
 7408TIP3    H222168   4.694   0.432   1.342
 7409TIP3   OH222169   4.905   5.759   0.810
 7409TIP3    H122170   4.814   5.755   0.779
 7409TIP3    H222171   4.953   5.798   0.737
 7410TIP3   OH222172   7.200   6.517   6.111
 7410TIP3    H122173   7.158   6.503   6.196
 7410TIP3    H222174   7.159   6.453   6.053
 7411TIP3   OH222175   8.317   2.958   0.149
 7411TIP3    H122176   8.257   3.004   0.208
 7411TIP3    H222177   8.262   2.933   0.074
 7412TIP3   OH222178   5.545   5.712   2.896
 7412TIP3    H122179   5.479   5.685   2.833
 7412TIP3    H222180   5.628   5.681   2.859
 7413TIP3   OH222181   3.641   5.951   6.602
 7413TIP3    H122182   3.581   5.881   6.626
 7413TIP3    H222183   3.703   5.957   6.675
 7414TIP3   OH222184   6.149   4.892   2.909
 7414TIP3    H122185   6.158   4.863   2.819
 7414TIP3    H222186   6.078   4.956   2.907
 7415TIP3   OH222187   1.161   5.224   1.590
 7415TIP3    H122188   1.108   5.239   1.668
 7415TIP3    H222189   1.249   5.254   1.614
 7416TIP3   OH222190   2.598   5.829   5.588
 7416TIP3    H122191   2.604   5.911   5.636
 7416TIP3    H222192   2.580   5.763   5.655
 7417TIP3   OH222193   4.892   3.479   1.207
 7417TIP3    H122194   4.982   3.452   1.187
 7417TIP3    H222195   4.840   3.399   1.197
 7418TIP3   OH222196   7.329   1.678   0.427
 7418TIP3    H122197   7.239   1.646   0.426
 7418TIP3    H222198   7.322   1.769   0.454
 7419TIP3   OH222199   6.776   2.108   0.173
 7419TIP3    H122200   6.683   2.088   0.181
 7419TIP3    H222201   6.821   2.032   0.210
 7420TIP3   OH222202   0.540   1.344   5.143
 7420TIP3    H122203   0.633   1.362   5.137
 7420TIP3    H222204   0.506   1.411   5.202
 7421TIP3   OH222205   8.119   4.505   5.036
 7421TIP3    H122206   8.202   4.540   5.068
 7421TIP3    H222207   8.143   4.425   4.990
 7422TIP3   OH222208   6.460   3.403   3.483
 7422TIP3    H122209   6.438   3.315   3.450
 7422TIP3    H222210   6.390   3.422   3.546
 7423TIP3   OH222211   0.068   0.165   1.742
 7423TIP3    H122212   0.004   0.095   1.750
 7423TIP3    H222213   0.110   0.149   1.658
 7424TIP3   OH222214   5.404   1.428   5.246
 7424TIP3    H122215   5.398   1.334   5.225
 7424TIP3    H222216   5.374   1.472   5.166
 7425TIP3   OH222217   1.317   7.730   2.093
 7425TIP3    H122218   1.276   7.745   2.008
 7425TIP3    H222219   1.298   7.639   2.113
 7426TIP3   OH222220   6.259   6.959   5.939
 7426TIP3    H122221   6.267   6.963   6.035
 7426TIP3    H222222   6.169   6.986   5.922
 7427TIP3   OH222223   2.686   2.931   1.709
 7427TIP3    H122224   2.610   2.947   1.763
 7427TIP3    H222225   2.689   3.005   1.648
 7428TIP3   OH222226   7.631   6.247   3.718
 7428TIP3    H122227   7.634   6.207   3.631
 7428TIP3    H222228   7.634   6.341   3.701
 7429TIP3   OH222229   1.521   2.852   0.145
 7429TIP3    H122230   1.583   2.805   0.200
 7429TIP3    H222231   1.505   2.793   0.071
 7430TIP3   OH222232   7.506   4.243   3.332
 7430TIP3    H122233   7.582   4.222   3.386
 7430TIP3    H222234   7.537   4.233   3.242
 7431TIP3   OH222235   5.631   0.545   3.466
 7431TIP3    H122236   5.624   0.586   3.380
 7431TIP3    H222237   5.609   0.615   3.528
 7432TIP3   OH222238   7.460   1.332   3.109
 7432TIP3    H122239   7.430   1.242   3.124
 7432TIP3    H222240   7.384   1.377   3.074
 7433TIP3   OH222241   5.666   7.405   4.834
 7433TIP3    H122242   5.674   7.314   4.804
 7433TIP3    H222243   5.611   7.447   4.767
 7434TIP3   OH222244   7.955   7.633   1.396
 7434TIP3    H122245   7.921   7.565   1.453
 7434TIP3    H222246   8.050   7.618   1.395
 7435TIP3   OH222247   5.913   3.509   4.058
 7435TIP3    H122248   6.000   3.547   4.055
 7435TIP3    H222249   5.900   3.472   3.971
 7436TIP3   OH222250   7.269   1.405   3.993
 7436TIP3    H122251   7.215   1.329   3.975
 7436TIP3    H222252   7.259   1.420   4.087
 7437TIP3   OH222253   4.693   0.609   3.757
 7437TIP3    H122254   4.734   0.573   3.836
 7437TIP3    H222255   4.756   0.591   3.688
 7438TIP3   OH222256   5.292   6.839   4.924
 7438TIP3    H122257   5.298   6.819   5.017
 7438TIP3    H222258   5.199   6.842   4.905
 7439TIP3   OH222259   5.365   5.642   5.226
 7439TIP3    H122260   5.294   5.640   5.290
 7439TIP3    H222261   5.333   5.697   5.155
 7440TIP3   OH222262   7.722   3.021   4.707
 7440TIP3    H122263   7.689   3.086   4.769
 7440TIP3    H222264   7.710   2.937   4.752
 7441TIP3   OH222265   6.000   7.566   2.007
 7441TIP3    H122266   6.068   7.501   1.990
 7441TIP3    H222267   5.919   7.515   2.008
 7442TIP3   OH222268   6.143   1.749   3.095
 7442TIP3    H122269   6.192   1.822   3.135
 7442TIP3    H222270   6.078   1.725   3.161
 7443TIP3   OH222271   5.169   7.270   1.951
 7443TIP3    H122272   5.185   7.283   2.045
 7443TIP3    H222273   5.245   7.222   1.920
 7444TIP3   OH222274   3.589   1.845   5.087
 7444TIP3    H122275   3.511   1.901   5.090
 7444TIP3    H222276   3.557   1.759   5.113
 7445TIP3   OH222277   4.729   2.609   0.722
 7445TIP3    H122278   4.816   2.641   0.748
 7445TIP3    H222279   4.745   2.521   0.688
 7446TIP3   OH222280   0.667   6.970   6.515
 7446TIP3    H122281   0.732   6.909   6.552
 7446TIP3    H222282   0.603   6.981   6.585
 7447TIP3   OH222283   0.943   4.825   6.687
 7447TIP3    H122284   0.954   4.766   6.614
 7447TIP3    H222285   1.027   4.870   6.695
 7448TIP3   OH222286   4.895   6.667   1.968
 7448TIP3    H122287   4.855   6.710   1.892
 7448TIP3    H222288   4.888   6.574   1.949
 7449TIP3   OH222289   1.064   5.421   0.880
 7449TIP3    H122290   1.080   5.412   0.786
 7449TIP3    H222291   1.117   5.496   0.906
 7450TIP3   OH222292   8.138   6.955   6.288
 7450TIP3    H122293   8.209   6.930   6.229
 7450TIP3    H222294   8.075   6.882   6.281
 7451TIP3   OH222295   4.805   3.729   1.272
 7451TIP3    H122296   4.835   3.638   1.270
 7451TIP3    H222297   4.870   3.776   1.219
 7452TIP3   OH222298   2.296   3.762   2.024
 7452TIP3    H122299   2.246   3.838   1.995
 7452TIP3    H222300   2.260   3.742   2.111
 7453TIP3   OH222301   1.670   6.370   0.661
 7453TIP3    H122302   1.719   6.426   0.601
 7453TIP3    H222303   1.737   6.322   0.709
 7454TIP3   OH222304   5.153   2.788   1.406
 7454TIP3    H122305   5.204   2.869   1.396
 7454TIP3    H222306   5.177   2.755   1.492
 7455TIP3   OH222307   6.819   7.000   4.414
 7455TIP3    H122308   6.805   6.971   4.504
 7455TIP3    H222309   6.910   7.028   4.411
 7456TIP3   OH222310   2.186   0.562   5.155
 7456TIP3    H122311   2.104   0.535   5.114
 7456TIP3    H222312   2.238   0.482   5.160
 7457TIP3   OH222313   3.296   2.442   5.598
 7457TIP3    H122314   3.237   2.439   5.674
 7457TIP3    H222315   3.382   2.419   5.633
 7458TIP3   OH222316   3.600   3.571   6.390
 7458TIP3    H122317   3.648   3.652   6.377
 7458TIP3    H222318   3.669   3.505   6.404
 7459TIP3   OH222319   5.901   7.834   0.131
 7459TIP3    H122320   5.945   7.768   0.077
 7459TIP3    H222321   5.868   7.785   0.207
 7460TIP3   OH222322   3.873   0.429   4.655
 7460TIP3    H122323   3.903   0.384   4.734
 7460TIP3    H222324   3.904   0.519   4.664
 7461TIP3   OH222325   3.174   7.197   1.198
 7461TIP3    H122326   3.132   7.283   1.191
 7461TIP3    H222327   3.265   7.212   1.175
 7462TIP3   OH222328   1.792   3.709   5.320
 7462TIP3    H122329   1.700   3.715   5.347
 7462TIP3    H222330   1.841   3.701   5.402
 7463TIP3   OH222331   0.906   3.998   1.127
 7463TIP3    H122332   0.971   3.993   1.056
 7463TIP3    H222333   0.952   3.962   1.203
 7464TIP3   OH222334   5.148   7.596   1.243
 7464TIP3    H122335   5.072   7.653   1.252
 7464TIP3    H222336   5.145   7.567   1.152
 7465TIP3   OH222337   7.486   1.784   4.164
 7465TIP3    H122338   7.447   1.785   4.076
 7465TIP3    H222339   7.502   1.691   4.182
 7466TIP3   OH222340   5.474   0.312   0.059
 7466TIP3    H122341   5.565   0.293   0.038
 7466TIP3    H222342   5.457   0.396   0.018
 7467TIP3   OH222343   6.631   3.224   2.473
 7467TIP3    H122344   6.722   3.237   2.500
 7467TIP3    H222345   6.599   3.154   2.531
 7468TIP3   OH222346   6.451   2.397   1.663
 7468TIP3    H122347   6.517   2.332   1.689
 7468TIP3    H222348   6.428   2.440   1.745
 7469TIP3   OH222349   2.655   1.638   3.085
 7469TIP3    H122350   2.617   1.551   3.097
 7469TIP3    H222351   2.707   1.653   3.164
 7470TIP3   OH222352   5.251   5.860   6.273
 7470TIP3    H122353   5.325   5.862   6.213
 7470TIP3    H222354   5.228   5.767   6.279
 7471TIP3   OH222355   3.372   4.598   1.658
 7471TIP3    H122356   3.278   4.580   1.654
 7471TIP3    H222357   3.413   4.514   1.638
 7472TIP3   OH222358   4.439   4.488   1.130
 7472TIP3    H122359   4.448   4.564   1.074
 7472TIP3    H222360   4.427   4.524   1.218
 7473TIP3   OH222361   7.723   7.503   3.743
 7473TIP3    H122362   7.689   7.589   3.718
 7473TIP3    H222363   7.816   7.517   3.758
 7474TIP3   OH222364   3.469   0.725   0.663
 7474TIP3    H122365   3.526   0.679   0.600
 7474TIP3    H222366   3.493   0.687   0.747
 7475TIP3   OH222367   6.235   7.714   3.568
 7475TIP3    H122368   6.207   7.647   3.506
 7475TIP3    H222369   6.289   7.667   3.631
 7476TIP3   OH222370   3.928   3.274   1.527
 7476TIP3    H122371   3.941   3.369   1.532
 7476TIP3    H222372   3.841   3.265   1.488
 7477TIP3   OH222373   5.687   3.432   3.891
 7477TIP3    H122374   5.649   3.484   3.962
 7477TIP3    H222375   5.617   3.426   3.826
 7478TIP3   OH222376   6.900   6.413   6.429
 7478TIP3    H122377   6.810   6.406   6.461
 7478TIP3    H222378   6.906   6.501   6.394
 7479TIP3   OH222379   7.965   5.932   0.292
 7479TIP3    H122380   8.056   5.913   0.271
 7479TIP3    H222381   7.969   5.977   0.377
 7480TIP3   OH222382   4.813   2.027   5.997
 7480TIP3    H122383   4.762   1.976   6.060
 7480TIP3    H222384   4.842   1.964   5.931
 7481TIP3   OH222385   6.387   6.103   2.107
 7481TIP3    H122386   6.451   6.049   2.153
 7481TIP3    H222387   6.376   6.180   2.163
 7482TIP3   OH222388   5.916   5.905   5.088
 7482TIP3    H122389   6.005   5.935   5.067
 7482TIP3    H222390   5.864   5.985   5.089
 7483TIP3   OH222391   3.653   6.496   6.596
 7483TIP3    H122392   3.672   6.458   6.510
 7483TIP3    H222393   3.694   6.436   6.658
 7484TIP3   OH222394   4.087   5.190   0.244
 7484TIP3    H122395   4.099   5.282   0.220
 7484TIP3    H222396   4.096   5.189   0.339
 7485TIP3   OH222397   7.922   3.839   2.329
 7485TIP3    H122398   7.885   3.782   2.262
 7485TIP3    H222399   7.956   3.779   2.396
 7486TIP3   OH222400   6.952   0.932   0.909
 7486TIP3    H122401   6.951   0.897   0.820
 7486TIP3    H222402   7.016   1.003   0.907
 7487TIP3   OH222403   8.232   1.427   0.271
 7487TIP3    H122404   8.228   1.421   0.175
 7487TIP3    H222405   8.157   1.483   0.294
 7488TIP3   OH222406   5.940   4.851   5.555
 7488TIP3    H122407   5.884   4.921   5.588
 7488TIP3    H222408   5.932   4.857   5.459
 7489TIP3   OH222409   1.254   6.511   0.327
 7489TIP3    H122410   1.299   6.539   0.407
 7489TIP3    H222411   1.178   6.569   0.321
 7490TIP3   OH222412   0.844   6.067   1.844
 7490TIP3    H122413   0.860   6.060   1.750
 7490TIP3    H222414   0.761   6.022   1.857
 7491TIP3   OH222415   0.575   5.887   3.312
 7491TIP3    H122416   0.565   5.919   3.402
 7491TIP3    H222417   0.573   5.966   3.259
 7492TIP3   OH222418   2.235   0.363   1.294
 7492TIP3    H122419   2.299   0.334   1.228
 7492TIP3    H222420   2.272   0.336   1.377
 7493TIP3   OH222421   3.601   3.327   3.018
 7493TIP3    H122422   3.690   3.295   3.002
 7493TIP3    H222423   3.605   3.367   3.105
 7494TIP3   OH222424   7.506   3.961   0.992
 7494TIP3    H122425   7.483   3.998   0.907
 7494TIP3    H222426   7.426   3.966   1.043
 7495TIP3   OH222427   0.826   1.043   1.559
 7495TIP3    H122428   0.784   0.958   1.544
 7495TIP3    H222429   0.836   1.048   1.654
 7496TIP3   OH222430   1.438   5.486   5.020
 7496TIP3    H122431   1.446   5.392   5.001
 7496TIP3    H222432   1.401   5.489   5.109
 7497TIP3   OH222433   5.750   5.664   2.697
 7497TIP3    H122434   5.815   5.594   2.705
 7497TIP3    H222435   5.766   5.702   2.611
 7498TIP3   OH222436   1.699   6.652   3.939
 7498TIP3    H122437   1.607   6.672   3.919
 7498TIP3    H222438   1.746   6.732   3.915
 7499TIP3   OH222439   3.534   7.440   2.437
 7499TIP3    H122440   3.609   7.499   2.447
 7499TIP3    H222441   3.465   7.494   2.399
 7500TIP3   OH222442   0.074   7.803   0.851
 7500TIP3    H122443   0.014   7.823   0.923
 7500TIP3    H222444   0.123   7.726   0.881
 7501TIP3   OH222445   7.514   7.421   6.312
 7501TIP3    H122446   7.475   7.396   6.396
 7501TIP3    H222447   7.576   7.490   6.334
 7502TIP3   OH222448   1.198   1.491   4.243
 7502TIP3    H122449   1.194   1.504   4.338
 7502TIP3    H222450   1.167   1.402   4.229
 7503TIP3   OH222451   1.446   1.015   4.802
 7503TIP3    H122452   1.420   0.971   4.883
 7503TIP3    H222453   1.392   1.094   4.799
 7504TIP3   OH222454   6.810   0.943   2.316
 7504TIP3    H122455   6.793   0.883   2.243
 7504TIP3    H222456   6.905   0.942   2.326
 7505TIP3   OH222457   7.047   3.836   2.913
 7505TIP3    H122458   6.952   3.821   2.910
 7505TIP3    H222459   7.062   3.904   2.847
 7506TIP3   OH222460   3.098   6.448   3.406
 7506TIP3    H122461   3.194   6.456   3.412
 7506TIP3    H222462   3.072   6.522   3.351
 7507TIP3   OH222463   7.868   0.653   3.847
 7507TIP3    H122464   7.781   0.653   3.886
 7507TIP3    H222465   7.893   0.745   3.843
 7508TIP3   OH222466   5.212   1.868   6.292
 7508TIP3    H122467   5.278   1.881   6.360
 7508TIP3    H222468   5.133   1.907   6.328
 7509TIP3   OH222469   1.780   7.175   5.635
 7509TIP3    H122470   1.812   7.143   5.551
 7509TIP3    H222471   1.710   7.114   5.659
 7510TIP3   OH222472   7.147   5.743   6.123
 7510TIP3    H122473   7.146   5.822   6.179
 7510TIP3    H222474   7.114   5.673   6.180
 7511TIP3   OH222475   2.894   7.062   4.416
 7511TIP3    H122476   2.902   7.153   4.445
 7511TIP3    H222477   2.802   7.053   4.392
 7512TIP3   OH222478   2.000   5.498   4.502
 7512TIP3    H122479   2.015   5.420   4.556
 7512TIP3    H222480   1.922   5.477   4.451
 7513TIP3   OH222481   2.095   1.760   1.239
 7513TIP3    H122482   2.049   1.684   1.275
 7513TIP3    H222483   2.033   1.800   1.178
 7514TIP3   OH222484   2.804   3.691   0.413
 7514TIP3    H122485   2.895   3.718   0.405
 7514TIP3    H222486   2.774   3.731   0.494
 7515TIP3   OH222487   5.317   0.933   4.855
 7515TIP3    H122488   5.412   0.932   4.856
 7515TIP3    H222489   5.293   0.931   4.762
 7516TIP3   OH222490   7.693   2.926   3.584
 7516TIP3    H122491   7.779   2.945   3.623
 7516TIP3    H222492   7.705   2.944   3.490
 7517TIP3   OH222493   4.143   4.406   2.869
 7517TIP3    H122494   4.147   4.467   2.795
 7517TIP3    H222495   4.232   4.372   2.877
 7518TIP3   OH222496   6.159   5.535   0.578
 7518TIP3    H122497   6.097   5.532   0.652
 7518TIP3    H222498   6.118   5.480   0.511
 7519TIP3   OH222499   1.532   4.709   3.697
 7519TIP3    H122500   1.515   4.621   3.731
 7519TIP3    H222501   1.564   4.758   3.773
 7520TIP3   OH222502   6.769   2.246   4.977
 7520TIP3    H122503   6.829   2.316   5.001
 7520TIP3    H222504   6.693   2.258   5.033
 7521TIP3   OH222505   6.638   5.609   5.515
 7521TIP3    H122506   6.716   5.660   5.493
 7521TIP3    H222507   6.623   5.626   5.608
 7522TIP3   OH222508   1.585   3.241   1.500
 7522TIP3    H122509   1.490   3.226   1.500
 7522TIP3    H222510   1.596   3.322   1.451
 7523TIP3   OH222511   7.880   5.256   1.561
 7523TIP3    H122512   7.876   5.246   1.657
 7523TIP3    H222513   7.924   5.340   1.547
 7524TIP3   OH222514   3.791   2.505   3.781
 7524TIP3    H122515   3.756   2.531   3.866
 7524TIP3    H222516   3.863   2.445   3.803
 7525TIP3   OH222517   0.373   2.357   2.055
 7525TIP3    H122518   0.361   2.449   2.032
 7525TIP3    H222519   0.288   2.317   2.038
 7526TIP3   OH222520   1.488   2.247   1.474
 7526TIP3    H122521   1.569   2.230   1.521
 7526TIP3    H222522   1.467   2.164   1.430
 7527TIP3   OH222523   3.182   0.249   2.596
 7527TIP3    H122524   3.217   0.336   2.580
 7527TIP3    H222525   3.259   0.192   2.594
 7528TIP3   OH222526   8.014   4.476   5.445
 7528TIP3    H122527   8.092   4.446   5.398
 7528TIP3    H222528   8.041   4.558   5.486
 7529TIP3   OH222529   6.891   0.029   5.135
 7529TIP3    H122530   6.954   0.010   5.205
 7529TIP3    H222531   6.810  -0.014   5.163
 7530TIP3   OH222532   2.309   1.128   3.629
 7530TIP3    H122533   2.268   1.090   3.707
 7530TIP3    H222534   2.241   1.184   3.591
 7531TIP3   OH222535   0.239   1.083   6.599
 7531TIP3    H122536   0.250   1.035   6.516
 7531TIP3    H222537   0.323   1.072   6.644
 7532TIP3   OH222538   5.822   4.271   5.940
 7532TIP3    H122539   5.891   4.311   5.994
 7532TIP3    H222540   5.769   4.221   6.002
 7533TIP3   OH222541   6.561   7.039   4.081
 7533TIP3    H122542   6.584   7.025   3.990
 7533TIP3    H222543   6.639   7.077   4.121
 7534TIP3   OH222544   0.203   3.503   3.241
 7534TIP3    H122545   0.213   3.447   3.164
 7534TIP3    H222546   0.159   3.581   3.208
 7535TIP3   OH222547   5.851   0.905   6.300
 7535TIP3    H122548   5.870   0.976   6.362
 7535TIP3    H222549   5.765   0.872   6.328
 7536TIP3   OH222550   4.523   3.463   4.119
 7536TIP3    H122551   4.431   3.484   4.131
 7536TIP3    H222552   4.530   3.372   4.149
 7537TIP3   OH222553   5.745   1.840   1.015
 7537TIP3    H122554   5.745   1.928   1.052
 7537TIP3    H222555   5.835   1.826   0.986
 7538TIP3   OH222556   4.758   0.433   0.218
 7538TIP3    H122557   4.763   0.408   0.126
 7538TIP3    H222558   4.706   0.513   0.219
 7539TIP3   OH222559   2.048   4.081   6.591
 7539TIP3    H122560   2.019   4.034   6.669
 7539TIP3    H222561   1.968   4.092   6.539
 7540TIP3   OH222562   4.632   3.931   4.728
 7540TIP3    H122563   4.658   3.857   4.673
 7540TIP3    H222564   4.708   3.989   4.729
 7541TIP3   OH222565   6.428   4.973   5.652
 7541TIP3    H122566   6.345   4.996   5.611
 7541TIP3    H222567   6.405   4.945   5.740
 7542TIP3   OH222568   1.336   6.416   3.160
 7542TIP3    H122569   1.365   6.434   3.249
 7542TIP3    H222570   1.366   6.326   3.143
 7543TIP3   OH222571   3.265   7.201   1.546
 7543TIP3    H122572   3.189   7.152   1.515
 7543TIP3    H222573   3.230   7.285   1.574
 7544TIP3   OH222574   7.097   6.309   5.970
 7544TIP3    H122575   7.026   6.311   5.906
 7544TIP3    H222576   7.177   6.307   5.918
 7545TIP3   OH222577   6.695   0.153   3.942
 7545TIP3    H122578   6.656   0.065   3.948
 7545TIP3    H222579   6.623   0.212   3.964
 7546TIP3   OH222580   7.358   7.823   1.388
 7546TIP3    H122581   7.415   7.828   1.465
 7546TIP3    H222582   7.372   7.735   1.353
 7547TIP3   OH222583   0.952   4.633   6.503
 7547TIP3    H122584   1.043   4.652   6.482
 7547TIP3    H222585   0.955   4.550   6.551
 7548TIP3   OH222586   1.915   7.306   3.417
 7548TIP3    H122587   1.903   7.259   3.335
 7548TIP3    H222588   1.858   7.383   3.410
 7549TIP3   OH222589   3.124   4.774   5.485
 7549TIP3    H122590   3.133   4.745   5.576
 7549TIP3    H222591   3.214   4.778   5.452
 7550TIP3   OH222592   7.181   7.335   4.426
 7550TIP3    H122593   7.191   7.343   4.331
 7550TIP3    H222594   7.237   7.404   4.461
 7551TIP3   OH222595   6.139   0.458   5.968
 7551TIP3    H122596   6.153   0.539   6.018
 7551TIP3    H222597   6.193   0.470   5.889
 7552TIP3   OH222598   7.161   3.067   5.515
 7552TIP3    H122599   7.157   3.112   5.599
 7552TIP3    H222600   7.178   3.136   5.451
 7553TIP3   OH222601   3.942   6.633   5.104
 7553TIP3    H122602   3.941   6.583   5.022
 7553TIP3    H222603   4.029   6.672   5.107
 7554TIP3   OH222604   3.850   1.081   4.061
 7554TIP3    H122605   3.804   1.134   4.126
 7554TIP3    H222606   3.889   1.009   4.111
 7555TIP3   OH222607   5.254   5.540   6.228
 7555TIP3    H122608   5.252   5.448   6.256
 7555TIP3    H222609   5.341   5.552   6.190
 7556TIP3   OH222610   7.861   0.877   5.884
 7556TIP3    H122611   7.845   0.860   5.791
 7556TIP3    H222612   7.847   0.793   5.926
 7557TIP3   OH222613   8.138   6.181   0.701
 7557TIP3    H122614   8.124   6.173   0.795
 7557TIP3    H222615   8.234   6.179   0.691
 7558TIP3   OH222616   7.986   7.737   6.002
 7558TIP3    H122617   8.042   7.693   5.939
 7558TIP3    H222618   8.006   7.696   6.086
 7559TIP3   OH222619   4.371   6.174   3.441
 7559TIP3    H122620   4.423   6.243   3.482
 7559TIP3    H222621   4.313   6.143   3.511
 7560TIP3   OH222622   0.581   0.634   0.989
 7560TIP3    H122623   0.599   0.545   1.018
 7560TIP3    H222624   0.592   0.631   0.894
 7561TIP3   OH222625   2.987   4.217   1.582
 7561TIP3    H122626   2.934   4.143   1.610
 7561TIP3    H222627   2.926   4.291   1.582
 7562TIP3   OH222628   6.697   5.694   4.059
 7562TIP3    H122629   6.752   5.770   4.039
 7562TIP3    H222630   6.757   5.620   4.054
 7563TIP3   OH222631   3.105   7.233   3.720
 7563TIP3    H122632   3.116   7.260   3.811
 7563TIP3    H222633   3.092   7.139   3.724
 7564TIP3   OH222634   1.974   6.169   4.201
 7564TIP3    H122635   1.928   6.153   4.284
 7564TIP3    H222636   2.025   6.090   4.187
 7565TIP3   OH222637   5.772   2.611   3.510
 7565TIP3    H122638   5.692   2.587   3.557
 7565TIP3    H222639   5.777   2.549   3.438
 7566TIP3   OH222640   8.148   6.023   6.289
 7566TIP3    H122641   8.071   5.967   6.278
 7566TIP3    H222642   8.142   6.088   6.219
 7567TIP3   OH222643   2.132   0.259   6.583
 7567TIP3    H122644   2.091   0.344   6.599
 7567TIP3    H222645   2.139   0.220   6.670
 7568TIP3   OH222646   1.004   5.932   5.907
 7568TIP3    H122647   1.018   5.846   5.866
 7568TIP3    H222648   0.949   5.979   5.845
 7569TIP3   OH222649   1.028   7.006   5.360
 7569TIP3    H122650   1.088   7.080   5.369
 7569TIP3    H222651   1.042   6.974   5.271
 7570TIP3   OH222652   4.359   6.792   5.671
 7570TIP3    H122653   4.383   6.709   5.630
 7570TIP3    H222654   4.422   6.802   5.743
 7571TIP3   OH222655   3.765   0.661   4.094
 7571TIP3    H122656   3.725   0.580   4.060
 7571TIP3    H222657   3.691   0.719   4.109
 7572TIP3   OH222658   4.624   2.471   4.717
 7572TIP3    H122659   4.716   2.495   4.704
 7572TIP3    H222660   4.624   2.376   4.718
 7573TIP3   OH222661   8.258   3.445   5.432
 7573TIP3    H122662   8.310   3.525   5.435
 7573TIP3    H222663   8.288   3.400   5.353
 7574TIP3   OH222664   5.740   6.735   6.070
 7574TIP3    H122665   5.811   6.745   6.134
 7574TIP3    H222666   5.785   6.736   5.985
 7575TIP3   OH222667   5.388   1.965   2.010
 7575TIP3    H122668   5.397   2.005   2.096
 7575TIP3    H222669   5.448   2.015   1.954
 7576TIP3   OH222670   1.081   5.825   0.412
 7576TIP3    H122671   0.987   5.812   0.426
 7576TIP3    H222672   1.107   5.752   0.356
 7577TIP3   OH222673   5.880   1.298   3.291
 7577TIP3    H122674   5.935   1.244   3.347
 7577TIP3    H222675   5.806   1.323   3.347
 7578TIP3   OH222676   3.945   4.686   2.068
 7578TIP3    H122677   3.955   4.720   2.157
 7578TIP3    H222678   3.895   4.605   2.079
 7579TIP3   OH222679   5.577   1.494   5.946
 7579TIP3    H122680   5.524   1.419   5.973
 7579TIP3    H222681   5.592   1.542   6.027
 7580TIP3   OH222682   6.194   6.245   6.215
 7580TIP3    H122683   6.253   6.182   6.256
 7580TIP3    H222684   6.137   6.192   6.160
 7581TIP3   OH222685   0.051   2.298   1.622
 7581TIP3    H122686  -0.032   2.313   1.666
 7581TIP3    H222687   0.077   2.210   1.650
 7582TIP3   OH222688   0.652   5.058   6.216
 7582TIP3    H122689   0.716   4.988   6.229
 7582TIP3    H222690   0.687   5.132   6.264
 7583TIP3   OH222691   1.049   1.759   2.996
 7583TIP3    H122692   1.117   1.734   2.933
 7583TIP3    H222693   1.050   1.689   3.060
 7584TIP3   OH222694   6.072   6.288   1.169
 7584TIP3    H122695   6.090   6.313   1.260
 7584TIP3    H222696   6.018   6.209   1.176
 7585TIP3   OH222697   8.103   4.386   1.506
 7585TIP3    H122698   8.092   4.364   1.413
 7585TIP3    H222699   8.013   4.394   1.539
 7586TIP3   OH222700   4.478   6.984   0.561
 7586TIP3    H122701   4.571   7.002   0.575
 7586TIP3    H222702   4.438   6.992   0.648
 7587TIP3   OH222703   1.050   4.295   5.585
 7587TIP3    H122704   1.084   4.333   5.665
 7587TIP3    H222705   1.100   4.214   5.574
 7588TIP3   OH222706   3.725   1.195   2.025
 7588TIP3    H122707   3.636   1.226   2.009
 7588TIP3    H222708   3.714   1.107   2.060
 7589TIP3   OH222709   5.504   0.684   1.137
 7589TIP3    H122710   5.549   0.722   1.061
 7589TIP3    H222711   5.491   0.758   1.196
 7590TIP3   OH222712   7.139   1.569   2.564
 7590TIP3    H122713   7.146   1.657   2.528
 7590TIP3    H222714   7.055   1.536   2.531
 7591TIP3   OH222715   0.924   1.264   6.388
 7591TIP3    H122716   0.988   1.329   6.415
 7591TIP3    H222717   0.868   1.252   6.464
 7592TIP3   OH222718   5.152   4.413   1.271
 7592TIP3    H122719   5.100   4.476   1.221
 7592TIP3    H222720   5.237   4.411   1.226
 7593TIP3   OH222721   2.627   6.295   4.687
 7593TIP3    H122722   2.654   6.217   4.736
 7593TIP3    H222723   2.685   6.364   4.719
 7594TIP3   OH222724   1.724  -0.008   4.625
 7594TIP3    H122725   1.634  -0.037   4.642
 7594TIP3    H222726   1.738   0.061   4.691
 7595TIP3   OH222727   5.247   6.323   2.405
 7595TIP3    H122728   5.241   6.342   2.499
 7595TIP3    H222729   5.156   6.307   2.379
 7596TIP3   OH222730   0.235   0.983   5.615
 7596TIP3    H122731   0.190   0.928   5.552
 7596TIP3    H222732   0.318   0.938   5.631
 7597TIP3   OH222733   8.232   2.652   3.004
 7597TIP3    H122734   8.149   2.685   2.970
 7597TIP3    H222735   8.286   2.731   3.016
 7598TIP3   OH222736   6.238   0.416   1.397
 7598TIP3    H122737   6.197   0.362   1.330
 7598TIP3    H222738   6.290   0.355   1.449
 7599TIP3   OH222739   1.078   0.946   5.996
 7599TIP3    H122740   1.078   0.955   5.901
 7599TIP3    H222741   1.166   0.970   6.023
 7600TIP3   OH222742   7.542   0.057   0.824
 7600TIP3    H122743   7.450   0.049   0.850
 7600TIP3    H222744   7.565  -0.031   0.793
 7601TIP3   OH222745   2.129   1.723   1.712
 7601TIP3    H122746   2.096   1.637   1.684
 7601TIP3    H222747   2.179   1.755   1.637
 7602TIP3   OH222748   5.366   2.317   1.535
 7602TIP3    H122749   5.332   2.328   1.623
 7602TIP3    H222750   5.460   2.335   1.543
 7603TIP3   OH222751   2.540   3.831   1.903
 7603TIP3    H122752   2.456   3.815   1.946
 7603TIP3    H222753   2.577   3.905   1.951
 7604TIP3   OH222754   6.361   1.117   0.599
 7604TIP3    H122755   6.342   1.059   0.525
 7604TIP3    H222756   6.357   1.060   0.675
 7605TIP3   OH222757   7.755   0.440   3.317
 7605TIP3    H122758   7.718   0.512   3.267
 7605TIP3    H222759   7.719   0.451   3.405
 7606TIP3   OH222760   7.663   1.876   3.434
 7606TIP3    H122761   7.623   1.947   3.485
 7606TIP3    H222762   7.605   1.802   3.448
 7607TIP3   OH222763   2.315   2.813   4.717
 7607TIP3    H122764   2.291   2.898   4.683
 7607TIP3    H222765   2.356   2.768   4.643
 7608TIP3   OH222766   3.283   4.013   2.860
 7608TIP3    H122767   3.200   3.983   2.897
 7608TIP3    H222768   3.350   3.958   2.901
 7609TIP3   OH222769   6.182   1.029   1.215
 7609TIP3    H122770   6.132   0.986   1.284
 7609TIP3    H222771   6.273   1.024   1.245
 7610TIP3   OH222772   0.719   3.884   0.096
 7610TIP3    H122773   0.654   3.953   0.084
 7610TIP3    H222774   0.803   3.926   0.077
 7611TIP3   OH222775   4.799   4.215   0.450
 7611TIP3    H122776   4.754   4.130   0.445
 7611TIP3    H222777   4.884   4.194   0.490
 7612TIP3   OH222778   6.190   7.348   1.990
 7612TIP3    H122779   6.152   7.330   2.076
 7612TIP3    H222780   6.281   7.320   1.998
 7613TIP3   OH222781   2.144   7.390   5.599
 7613TIP3    H122782   2.051   7.411   5.608
 7613TIP3    H222783   2.172   7.368   5.687
 7614TIP3   OH222784   5.389   6.247   3.394
 7614TIP3    H122785   5.428   6.319   3.345
 7614TIP3    H222786   5.351   6.289   3.471
 7615TIP3   OH222787   7.229   4.812   5.280
 7615TIP3    H122788   7.168   4.886   5.280
 7615TIP3    H222789   7.201   4.758   5.353
 7616TIP3   OH222790   6.567   0.711   0.168
 7616TIP3    H122791   6.548   0.798   0.202
 7616TIP3    H222792   6.650   0.721   0.121
 7617TIP3   OH222793   5.287   3.610   5.061
 7617TIP3    H122794   5.295   3.544   5.130
 7617TIP3    H222795   5.290   3.559   4.980
 7618TIP3   OH222796   6.212   4.527   3.974
 7618TIP3    H122797   6.242   4.476   4.050
 7618TIP3    H222798   6.161   4.464   3.922
 7619TIP3   OH222799   7.771   2.044   6.197
 7619TIP3    H122800   7.791   2.077   6.109
 7619TIP3    H222801   7.691   2.090   6.222
 7620TIP3   OH222802   5.111   3.979   0.567
 7620TIP3    H122803   5.020   3.951   0.557
 7620TIP3    H222804   5.115   4.064   0.523
 7621TIP3   OH222805   6.637   7.048   3.817
 7621TIP3    H122806   6.579   7.101   3.761
 7621TIP3    H222807   6.691   6.999   3.755
 7622TIP3   OH222808   6.811   5.022   5.056
 7622TIP3    H122809   6.822   5.107   5.012
 7622TIP3    H222810   6.744   4.977   5.004
 7623TIP3   OH222811   3.261   2.219   4.562
 7623TIP3    H122812   3.334   2.247   4.618
 7623TIP3    H222813   3.239   2.297   4.511
 7624TIP3   OH222814   2.902   5.408   6.774
 7624TIP3    H122815   2.868   5.463   6.703
 7624TIP3    H222816   2.972   5.461   6.813
 7625TIP3   OH222817   0.708   6.298   2.972
 7625TIP3    H122818   0.671   6.349   3.043
 7625TIP3    H222819   0.781   6.351   2.939
 7626TIP3   OH222820   5.066   3.790   4.089
 7626TIP3    H122821   5.016   3.858   4.134
 7626TIP3    H222822   5.150   3.787   4.135
 7627TIP3   OH222823   7.698   1.808   1.727
 7627TIP3    H122824   7.615   1.787   1.684
 7627TIP3    H222825   7.738   1.875   1.671
 7628TIP3   OH222826   6.976   7.127   4.890
 7628TIP3    H122827   7.021   7.086   4.963
 7628TIP3    H222828   6.949   7.055   4.834
 7629TIP3   OH222829   3.355   2.664   6.706
 7629TIP3    H122830   3.411   2.646   6.782
 7629TIP3    H222831   3.285   2.600   6.712
 7630TIP3   OH222832   1.907   0.443   5.717
 7630TIP3    H122833   1.947   0.356   5.722
 7630TIP3    H222834   1.959   0.497   5.776
 7631TIP3   OH222835   0.944   6.626   5.618
 7631TIP3    H122836   1.020   6.683   5.610
 7631TIP3    H222837   0.878   6.680   5.661
 7632TIP3   OH222838   3.377   5.397   1.477
 7632TIP3    H122839   3.424   5.459   1.421
 7632TIP3    H222840   3.290   5.436   1.489
 7633TIP3   OH222841   3.035   3.934   2.968
 7633TIP3    H122842   3.006   3.883   2.892
 7633TIP3    H222843   2.965   3.921   3.032
 7634TIP3   OH222844   6.832   2.866   6.657
 7634TIP3    H122845   6.745   2.828   6.640
 7634TIP3    H222846   6.868   2.881   6.570
 7635TIP3   OH222847   0.159   1.930   5.744
 7635TIP3    H122848   0.184   1.838   5.747
 7635TIP3    H222849   0.067   1.931   5.772
 7636TIP3   OH222850   7.642   4.273   3.047
 7636TIP3    H122851   7.615   4.183   3.065
 7636TIP3    H222852   7.589   4.298   2.971
 7637TIP3   OH222853   3.906   6.228   3.902
 7637TIP3    H122854   3.904   6.210   3.808
 7637TIP3    H222855   3.842   6.298   3.915
 7638TIP3   OH222856   1.074   1.423   0.088
 7638TIP3    H122857   1.049   1.496   0.032
 7638TIP3    H222858   1.045   1.345   0.041
 7639TIP3   OH222859   4.901   2.362   5.676
 7639TIP3    H122860   4.890   2.322   5.762
 7639TIP3    H222861   4.819   2.343   5.630
 7640TIP3   OH222862   4.325   2.961   4.549
 7640TIP3    H122863   4.377   3.035   4.517
 7640TIP3    H222864   4.368   2.884   4.511
 7641TIP3   OH222865   7.372   7.202   5.689
 7641TIP3    H122866   7.438   7.254   5.644
 7641TIP3    H222867   7.288   7.237   5.657
 7642TIP3   OH222868   0.289   7.019   1.678
 7642TIP3    H122869   0.256   7.096   1.725
 7642TIP3    H222870   0.238   6.946   1.713
 7643TIP3   OH222871   1.024   6.010   0.903
 7643TIP3    H122872   1.029   6.093   0.857
 7643TIP3    H222873   1.111   5.971   0.892
 7644TIP3   OH222874   2.266   6.450   0.180
 7644TIP3    H122875   2.250   6.376   0.123
 7644TIP3    H222876   2.223   6.524   0.137
 7645TIP3   OH222877   0.744   2.107   0.839
 7645TIP3    H122878   0.814   2.159   0.881
 7645TIP3    H222879   0.782   2.020   0.830
 7646TIP3   OH222880   2.281   5.962   3.467
 7646TIP3    H122881   2.268   6.014   3.387
 7646TIP3    H222882   2.293   5.872   3.435
 7647TIP3   OH222883   5.348   1.912   0.279
 7647TIP3    H122884   5.327   1.879   0.192
 7647TIP3    H222885   5.414   1.852   0.313
 7648TIP3   OH222886   7.670   6.561   1.825
 7648TIP3    H122887   7.667   6.522   1.738
 7648TIP3    H222888   7.675   6.486   1.885
 7649TIP3   OH222889   5.453   0.211   3.825
 7649TIP3    H122890   5.530   0.254   3.862
 7649TIP3    H222891   5.379   0.249   3.873
 7650TIP3   OH222892   5.255   1.330   4.100
 7650TIP3    H122893   5.206   1.292   4.028
 7650TIP3    H222894   5.317   1.391   4.058
 7651TIP3   OH222895   2.880   0.118   6.723
 7651TIP3    H122896   2.829   0.193   6.692
 7651TIP3    H222897   2.922   0.083   6.645
 7652TIP3   OH222898   3.442   5.457   2.119
 7652TIP3    H122899   3.433   5.371   2.161
 7652TIP3    H222900   3.439   5.519   2.192
 7653TIP3   OH222901   0.406   5.317   2.898
 7653TIP3    H122902   0.456   5.397   2.915
 7653TIP3    H222903   0.469   5.246   2.908
 7654TIP3   OH222904   7.394   1.870   0.831
 7654TIP3    H122905   7.389   1.780   0.863
 7654TIP3    H222906   7.408   1.923   0.910
 7655TIP3   OH222907   1.224   0.658   2.385
 7655TIP3    H122908   1.184   0.743   2.368
 7655TIP3    H222909   1.297   0.678   2.444
 7656TIP3   OH222910   6.983   2.978   6.094
 7656TIP3    H122911   6.896   2.958   6.058
 7656TIP3    H222912   7.026   2.893   6.100
 7657TIP3   OH222913   0.720   1.268   5.626
 7657TIP3    H122914   0.724   1.240   5.718
 7657TIP3    H222915   0.630   1.252   5.600
 7658TIP3   OH222916   7.029   2.125   3.499
 7658TIP3    H122917   7.022   2.173   3.582
 7658TIP3    H222918   7.117   2.089   3.499
 7659TIP3   OH222919   5.924   6.027   0.346
 7659TIP3    H122920   5.992   6.094   0.338
 7659TIP3    H222921   5.884   6.045   0.431
 7660TIP3   OH222922   5.318   5.320   5.944
 7660TIP3    H122923   5.241   5.375   5.960
 7660TIP3    H222924   5.383   5.351   6.007
 7661TIP3   OH222925   0.895   3.635   1.183
 7661TIP3    H122926   0.876   3.646   1.090
 7661TIP3    H222927   0.810   3.616   1.223
 7662TIP3   OH222928   2.372   4.434   3.987
 7662TIP3    H122929   2.286   4.474   3.973
 7662TIP3    H222930   2.434   4.507   3.975
 7663TIP3   OH222931   2.190   6.318   0.819
 7663TIP3    H122932   2.252   6.355   0.757
 7663TIP3    H222933   2.226   6.340   0.905
 7664TIP3   OH222934   4.196   1.612   5.087
 7664TIP3    H122935   4.140   1.559   5.144
 7664TIP3    H222936   4.191   1.569   5.002
 7665TIP3   OH222937   7.321   1.855   6.154
 7665TIP3    H122938   7.313   1.760   6.154
 7665TIP3    H222939   7.416   1.871   6.161
 7666TIP3   OH222940   6.661   4.720   5.653
 7666TIP3    H122941   6.668   4.816   5.651
 7666TIP3    H222942   6.723   4.693   5.721
 7667TIP3   OH222943   1.975   7.514   0.696
 7667TIP3    H122944   1.906   7.529   0.760
 7667TIP3    H222945   2.026   7.594   0.697
 7668TIP3   OH222946   1.213   1.560   1.774
 7668TIP3    H122947   1.271   1.488   1.747
 7668TIP3    H222948   1.188   1.537   1.864
 7669TIP3   OH222949   5.273   1.849   1.109
 7669TIP3    H122950   5.218   1.799   1.049
 7669TIP3    H222951   5.233   1.936   1.112
 7670TIP3   OH222952   6.185   6.846   4.041
 7670TIP3    H122953   6.158   6.754   4.043
 7670TIP3    H222954   6.241   6.857   4.117
 7671TIP3   OH222955   4.006   0.593   3.006
 7671TIP3    H122956   4.053   0.634   3.078
 7671TIP3    H222957   3.914   0.614   3.023
 7672TIP3   OH222958   2.841   6.553   3.092
 7672TIP3    H122959   2.877   6.544   3.004
 7672TIP3    H222960   2.747   6.566   3.078
 7673TIP3   OH222961   4.256   1.297   6.619
 7673TIP3    H122962   4.283   1.233   6.553
 7673TIP3    H222963   4.220   1.244   6.691
 7674TIP3   OH222964   0.050   4.570   1.800
 7674TIP3    H122965   0.098   4.521   1.734
 7674TIP3    H222966   0.033   4.505   1.869
 7675TIP3   OH222967   6.204   3.159   5.718
 7675TIP3    H122968   6.170   3.092   5.777
 7675TIP3    H222969   6.133   3.222   5.709
 7676TIP3   OH222970   1.845   0.446   1.947
 7676TIP3    H122971   1.821   0.374   1.888
 7676TIP3    H222972   1.902   0.405   2.012
 7677TIP3   OH222973   3.747   5.453   0.970
 7677TIP3    H122974   3.736   5.540   0.934
 7677TIP3    H222975   3.664   5.434   1.014
 7678TIP3   OH222976   0.356   4.917   4.284
 7678TIP3    H122977   0.291   4.981   4.257
 7678TIP3    H222978   0.325   4.834   4.248
 7679TIP3   OH222979   5.473   5.396   0.257
 7679TIP3    H122980   5.513   5.313   0.281
 7679TIP3    H222981   5.449   5.385   0.165
 7680TIP3   OH222982   0.869   5.991   2.797
 7680TIP3    H122983   0.842   6.032   2.715
 7680TIP3    H222984   0.951   5.947   2.776
 7681TIP3   OH222985   8.164   4.192   5.012
 7681TIP3    H122986   8.186   4.118   4.955
 7681TIP3    H222987   8.240   4.202   5.069
 7682TIP3   OH222988   0.142   6.376   3.970
 7682TIP3    H122989   0.184   6.310   3.914
 7682TIP3    H222990   0.167   6.459   3.931
 7683TIP3   OH222991   2.161   3.856   3.758
 7683TIP3    H122992   2.246   3.854   3.714
 7683TIP3    H222993   2.105   3.799   3.704
 7684TIP3   OH222994   2.919   6.399   5.478
 7684TIP3    H122995   2.869   6.334   5.429
 7684TIP3    H222996   2.960   6.453   5.411
 7685TIP3   OH222997   5.950   3.979   2.470
 7685TIP3    H122998   6.001   3.915   2.421
 7685TIP3    H222999   5.863   3.940   2.477
 7686TIP3   OH223000   5.524   4.388   1.989
 7686TIP3    H123001   5.540   4.410   1.897
 7686TIP3    H223002   5.586   4.443   2.037
 7687TIP3   OH223003   4.207   6.348   6.248
 7687TIP3    H123004   4.114   6.343   6.226
 7687TIP3    H223005   4.238   6.258   6.239
 7688TIP3   OH223006   2.820   6.132   3.436
 7688TIP3    H123007   2.813   6.224   3.460
 7688TIP3    H223008   2.732   6.096   3.453
 7689TIP3   OH223009   0.065   2.801   1.586
 7689TIP3    H123010   0.097   2.881   1.543
 7689TIP3    H223011   0.019   2.754   1.517
 7690TIP3   OH223012   5.001   6.269   3.344
 7690TIP3    H123013   4.914   6.309   3.343
 7690TIP3    H223014   4.993   6.197   3.406
 7691TIP3   OH223015   7.374   4.428   4.290
 7691TIP3    H123016   7.420   4.509   4.315
 7691TIP3    H223017   7.344   4.444   4.201
 7692TIP3   OH223018   2.447   7.275   5.893
 7692TIP3    H123019   2.386   7.348   5.886
 7692TIP3    H223020   2.526   7.304   5.847
 7693TIP3   OH223021   5.116   3.763   2.613
 7693TIP3    H123022   5.121   3.674   2.649
 7693TIP3    H223023   5.194   3.807   2.646
 7694TIP3   OH223024   2.512   3.390   2.048
 7694TIP3    H123025   2.578   3.459   2.045
 7694TIP3    H223026   2.527   3.346   2.132
 7695TIP3   OH223027   5.643   7.351   5.199
 7695TIP3    H123028   5.676   7.436   5.169
 7695TIP3    H223029   5.631   7.362   5.293
 7696TIP3   OH223030   7.726   6.335   1.983
 7696TIP3    H123031   7.707   6.339   2.077
 7696TIP3    H223032   7.802   6.277   1.977
 7697TIP3   OH223033   6.508   4.551   6.788
 7697TIP3    H123034   6.452   4.486   6.745
 7697TIP3    H223035   6.597   4.520   6.770
 7698TIP3   OH223036   2.814   7.836   4.339
 7698TIP3    H123037   2.778   7.747   4.345
 7698TIP3    H223038   2.854   7.851   4.424
 7699TIP3   OH223039   7.961   7.158   6.246
 7699TIP3    H123040   8.008   7.080   6.275
 7699TIP3    H223041   7.869   7.136   6.257
 7700TIP3   OH223042   0.787   3.295   4.453
 7700TIP3    H123043   0.870   3.311   4.498
 7700TIP3    H223044   0.812   3.261   4.367
 7701TIP3   OH223045   4.100   2.823   0.951
 7701TIP3    H123046   4.034   2.756   0.971
 7701TIP3    H223047   4.172   2.803   1.010
 7702TIP3   OH223048   1.032   5.173   4.012
 7702TIP3    H123049   1.049   5.266   4.003
 7702TIP3    H223050   0.973   5.167   4.088
 7703TIP3   OH223051   0.185   1.398   0.357
 7703TIP3    H123052   0.217   1.315   0.322
 7703TIP3    H223053   0.106   1.416   0.306
 7704TIP3   OH223054   5.037   3.144   1.071
 7704TIP3    H123055   5.079   3.225   1.102
 7704TIP3    H223056   5.013   3.163   0.980
 7705TIP3   OH223057   7.874   3.318   3.768
 7705TIP3    H123058   7.852   3.307   3.861
 7705TIP3    H223059   7.902   3.409   3.761
 7706TIP3   OH223060   0.458   6.075   4.112
 7706TIP3    H123061   0.547   6.081   4.146
 7706TIP3    H223062   0.434   5.983   4.123
 7707TIP3   OH223063   2.723   4.986   2.733
 7707TIP3    H123064   2.799   5.008   2.678
 7707TIP3    H223065   2.699   4.897   2.706
 7708TIP3   OH223066   0.781   3.578   0.329
 7708TIP3    H123067   0.827   3.578   0.245
 7708TIP3    H223068   0.694   3.614   0.308
 7709TIP3   OH223069   4.436   6.336   3.198
 7709TIP3    H123070   4.513   6.282   3.179
 7709TIP3    H223071   4.405   6.306   3.283
 7710TIP3   OH223072   3.387   0.923   6.134
 7710TIP3    H123073   3.429   1.004   6.107
 7710TIP3    H223074   3.311   0.914   6.077
 7711TIP3   OH223075   8.075   6.501   2.269
 7711TIP3    H123076   7.996   6.495   2.323
 7711TIP3    H223077   8.125   6.422   2.291
 7712TIP3   OH223078   3.079   6.159   1.646
 7712TIP3    H123079   3.027   6.164   1.566
 7712TIP3    H223080   3.099   6.065   1.656
 7713TIP3   OH223081   3.707   6.471   3.905
 7713TIP3    H123082   3.788   6.510   3.871
 7713TIP3    H223083   3.640   6.537   3.890
 7714TIP3   OH223084   3.957   7.167   0.371
 7714TIP3    H123085   3.965   7.261   0.388
 7714TIP3    H223086   4.019   7.151   0.299
 7715TIP3   OH223087   7.666   6.811   4.341
 7715TIP3    H123088   7.742   6.830   4.396
 7715TIP3    H223089   7.603   6.772   4.401
 7716TIP3   OH223090   3.227   6.136   6.652
 7716TIP3    H123091   3.251   6.067   6.591
 7716TIP3    H223092   3.308   6.154   6.701
 7717TIP3   OH223093   4.234   7.809   3.489
 7717TIP3    H123094   4.315   7.818   3.438
 7717TIP3    H223095   4.165   7.835   3.429
 7718TIP3   OH223096   5.207   0.668   6.040
 7718TIP3    H123097   5.212   0.696   5.949
 7718TIP3    H223098   5.120   0.628   6.048
 7719TIP3   OH223099   5.530   0.084   2.056
 7719TIP3    H123100   5.535   0.059   1.964
 7719TIP3    H223101   5.477   0.015   2.097
 7720TIP3   OH223102   2.217   7.715   6.331
 7720TIP3    H123103   2.122   7.706   6.321
 7720TIP3    H223104   2.254   7.667   6.257
 7721TIP3   OH223105   2.524   5.974   0.442
 7721TIP3    H123106   2.533   5.986   0.347
 7721TIP3    H223107   2.510   5.880   0.453
 7722TIP3   OH223108   5.709   7.032   1.104
 7722TIP3    H123109   5.734   7.121   1.129
 7722TIP3    H223110   5.651   7.043   1.029
 7723TIP3   OH223111   2.104   3.652   2.934
 7723TIP3    H123112   2.194   3.673   2.958
 7723TIP3    H223113   2.089   3.697   2.851
 7724TIP3   OH223114   3.882   2.721   5.160
 7724TIP3    H123115   3.815   2.730   5.228
 7724TIP3    H223116   3.835   2.738   5.078
 7725TIP3   OH223117   6.925   2.434   6.612
 7725TIP3    H123118   6.982   2.363   6.642
 7725TIP3    H223119   6.943   2.507   6.672
 7726TIP3   OH223120   0.711   3.623   2.474
 7726TIP3    H123121   0.643   3.563   2.505
 7726TIP3    H223122   0.675   3.661   2.394
 7727TIP3   OH223123   4.275   1.790   3.934
 7727TIP3    H123124   4.308   1.840   3.859
 7727TIP3    H223125   4.334   1.813   4.006
 7728TIP3   OH223126   6.087   7.314   0.918
 7728TIP3    H123127   6.041   7.393   0.945
 7728TIP3    H223128   6.171   7.319   0.962
 7729TIP3   OH223129   8.120   7.422   0.828
 7729TIP3    H123130   8.080   7.349   0.875
 7729TIP3    H223131   8.171   7.468   0.895
 7730TIP3   OH223132   7.548   1.727   3.755
 7730TIP3    H123133   7.492   1.779   3.813
 7730TIP3    H223134   7.488   1.685   3.694
 7731TIP3   OH223135   0.379   6.705   1.918
 7731TIP3    H123136   0.338   6.636   1.866
 7731TIP3    H223137   0.306   6.761   1.945
 7732TIP3   OH223138   1.440   4.668   2.325
 7732TIP3    H123139   1.415   4.597   2.265
 7732TIP3    H223140   1.371   4.668   2.391
 7733TIP3   OH223141   3.503   2.448   3.761
 7733TIP3    H123142   3.569   2.423   3.696
 7733TIP3    H223143   3.524   2.539   3.783
 7734TIP3   OH223144   6.512   4.352   3.304
 7734TIP3    H123145   6.473   4.268   3.329
 7734TIP3    H223146   6.478   4.415   3.367
 7735TIP3   OH223147   0.402   4.960   6.150
 7735TIP3    H123148   0.480   4.995   6.192
 7735TIP3    H223149   0.329   5.003   6.196
 7736TIP3   OH223150   7.669   0.511   2.639
 7736TIP3    H123151   7.610   0.537   2.568
 7736TIP3    H223152   7.718   0.437   2.603
 7737TIP3   OH223153   5.687   1.473   5.520
 7737TIP3    H123154   5.672   1.455   5.427
 7737TIP3    H223155   5.705   1.567   5.523
 7738TIP3   OH223156   7.527   6.591   4.732
 7738TIP3    H123157   7.486   6.560   4.813
 7738TIP3    H223158   7.565   6.512   4.693
 7739TIP3   OH223159   1.914   4.416   0.143
 7739TIP3    H123160   1.855   4.343   0.162
 7739TIP3    H223161   1.860   4.494   0.149
 7740TIP3   OH223162   1.964   5.104   0.531
 7740TIP3    H123163   1.897   5.089   0.465
 7740TIP3    H223164   2.047   5.091   0.485
 7741TIP3   OH223165   6.318   3.648   2.050
 7741TIP3    H123166   6.371   3.727   2.037
 7741TIP3    H223167   6.320   3.633   2.144
 7742TIP3   OH223168   0.784   2.061   2.507
 7742TIP3    H123169   0.711   2.078   2.566
 7742TIP3    H223170   0.827   1.984   2.543
 7743TIP3   OH223171   4.967   0.538   3.346
 7743TIP3    H123172   4.947   0.469   3.409
 7743TIP3    H223173   4.912   0.612   3.374
 7744TIP3   OH223174   0.976   5.742   0.904
 7744TIP3    H123175   1.008   5.710   0.820
 7744TIP3    H223176   0.968   5.837   0.892
 7745TIP3   OH223177   3.882   2.298   3.201
 7745TIP3    H123178   3.926   2.351   3.135
 7745TIP3    H223179   3.939   2.302   3.278
 7746TIP3   OH223180   1.244   6.944   2.363
 7746TIP3    H123181   1.244   6.868   2.305
 7746TIP3    H223182   1.241   6.907   2.451
 7747TIP3   OH223183   0.877   6.071   2.236
 7747TIP3    H123184   0.803   6.105   2.186
 7747TIP3    H223185   0.898   6.141   2.298
 7748TIP3   OH223186   5.596   3.961   0.589
 7748TIP3    H123187   5.513   3.917   0.568
 7748TIP3    H223188   5.648   3.894   0.633
 7749TIP3   OH223189   3.447   6.536   4.671
 7749TIP3    H123190   3.412   6.464   4.619
 7749TIP3    H223191   3.395   6.612   4.646
 7750TIP3   OH223192   8.143   3.453   1.127
 7750TIP3    H123193   8.167   3.527   1.071
 7750TIP3    H223194   8.195   3.380   1.095
 7751TIP3   OH223195   7.776   0.355   1.359
 7751TIP3    H123196   7.831   0.407   1.418
 7751TIP3    H223197   7.711   0.418   1.326
 7752TIP3   OH223198   3.046   4.643   0.139
 7752TIP3    H123199   3.108   4.713   0.159
 7752TIP3    H223200   2.980   4.649   0.208
 7753TIP3   OH223201   6.246   3.416   3.664
 7753TIP3    H123202   6.284   3.343   3.714
 7753TIP3    H223203   6.158   3.426   3.701
 7754TIP3   OH223204   5.049   2.861   4.901
 7754TIP3    H123205   5.039   2.850   4.806
 7754TIP3    H223206   5.030   2.774   4.937
 7755TIP3   OH223207   5.731   4.723   4.256
 7755TIP3    H123208   5.635   4.725   4.248
 7755TIP3    H223209   5.754   4.631   4.244
 7756TIP3   OH223210   3.342   5.015   1.267
 7756TIP3    H123211   3.310   4.944   1.210
 7756TIP3    H223212   3.396   4.971   1.332
 7757TIP3   OH223213   5.479   1.673   4.933
 7757TIP3    H123214   5.427   1.600   4.967
 7757TIP3    H223215   5.423   1.715   4.869
 7758TIP3   OH223216   4.519   2.101   3.090
 7758TIP3    H123217   4.511   2.187   3.048
 7758TIP3    H223218   4.444   2.051   3.057
 7759TIP3   OH223219   2.246   6.202   0.060
 7759TIP3    H123220   2.298   6.122   0.052
 7759TIP3    H223221   2.155   6.172   0.060
 7760TIP3   OH223222   3.185   6.900   2.335
 7760TIP3    H123223   3.136   6.837   2.388
 7760TIP3    H223224   3.246   6.847   2.284
 7761TIP3   OH223225   3.150   2.250   0.405
 7761TIP3    H123226   3.231   2.301   0.403
 7761TIP3    H223227   3.155   2.194   0.327
 7762TIP3   OH223228   3.358   5.894   4.855
 7762TIP3    H123229   3.316   5.808   4.855
 7762TIP3    H223230   3.323   5.937   4.934
 7763TIP3   OH223231   4.805   0.139   4.551
 7763TIP3    H123232   4.719   0.099   4.537
 7763TIP3    H223233   4.786   0.218   4.601
 7764TIP3   OH223234   1.143   0.886   5.175
 7764TIP3    H123235   1.160   0.797   5.144
 7764TIP3    H223236   1.162   0.883   5.269
 7765TIP3   OH223237   4.268   7.318   5.080
 7765TIP3    H123238   4.175   7.303   5.061
 7765TIP3    H223239   4.271   7.331   5.175
 7766TIP3   OH223240   0.471   7.031   6.338
 7766TIP3    H123241   0.532   7.036   6.412
 7766TIP3    H223242   0.518   6.979   6.272
 7767TIP3   OH223243   4.411   5.217   2.586
 7767TIP3    H123244   4.503   5.222   2.563
 7767TIP3    H223245   4.411   5.197   2.680
 7768TIP3   OH223246   6.493   2.315   0.048
 7768TIP3    H123247   6.516   2.357   0.131
 7768TIP3    H223248   6.480   2.223   0.071
 7769TIP3   OH223249   1.553   2.883   4.356
 7769TIP3    H123250   1.490   2.812   4.367
 7769TIP3    H223251   1.504   2.962   4.381
 7770TIP3   OH223252   5.351   0.402   0.515
 7770TIP3    H123253   5.358   0.395   0.610
 7770TIP3    H223254   5.402   0.480   0.493
 7771TIP3   OH223255   5.248   1.060   4.224
 7771TIP3    H123256   5.254   1.146   4.182
 7771TIP3    H223257   5.175   1.069   4.285
 7772TIP3   OH223258   1.489   4.635   2.742
 7772TIP3    H123259   1.494   4.653   2.836
 7772TIP3    H223260   1.516   4.543   2.734
 7773TIP3   OH223261   6.238   1.947   4.886
 7773TIP3    H123262   6.262   1.964   4.977
 7773TIP3    H223263   6.159   1.893   4.892
 7774TIP3   OH223264   4.413   7.116   3.842
 7774TIP3    H123265   4.455   7.193   3.804
 7774TIP3    H223266   4.477   7.081   3.903
 7775TIP3   OH223267   5.618   2.880   4.203
 7775TIP3    H123268   5.666   2.840   4.276
 7775TIP3    H223269   5.588   2.805   4.151
 7776TIP3   OH223270   8.109   2.663   0.342
 7776TIP3    H123271   8.073   2.630   0.260
 7776TIP3    H223272   8.204   2.654   0.332
 7777TIP3   OH223273   5.279   2.956   4.323
 7777TIP3    H123274   5.326   2.902   4.259
 7777TIP3    H223275   5.187   2.935   4.309
 7778TIP3   OH223276   1.631   7.013   5.817
 7778TIP3    H123277   1.674   6.999   5.901
 7778TIP3    H223278   1.588   7.097   5.825
 7779TIP3   OH223279   5.591   1.705   2.071
 7779TIP3    H123280   5.554   1.651   2.140
 7779TIP3    H223281   5.540   1.787   2.075
 7780TIP3   OH223282   2.449   2.971   1.404
 7780TIP3    H123283   2.476   2.879   1.406
 7780TIP3    H223284   2.361   2.970   1.368
 7781TIP3   OH223285   7.698   5.257   3.648
 7781TIP3    H123286   7.607   5.280   3.666
 7781TIP3    H223287   7.750   5.321   3.696
 7782TIP3   OH223288   0.336   6.688   1.564
 7782TIP3    H123289   0.396   6.757   1.594
 7782TIP3    H223290   0.330   6.628   1.638
 7783TIP3   OH223291   7.896   2.443   2.268
 7783TIP3    H123292   7.890   2.492   2.186
 7783TIP3    H223293   7.980   2.470   2.306
 7784TIP3   OH223294   2.643   4.672   1.831
 7784TIP3    H123295   2.737   4.653   1.840
 7784TIP3    H223296   2.602   4.585   1.826
 7785TIP3   OH223297   6.969   3.308   2.756
 7785TIP3    H123298   6.965   3.395   2.716
 7785TIP3    H223299   7.043   3.313   2.816
 7786TIP3   OH223300   4.318   2.554   3.891
 7786TIP3    H123301   4.271   2.560   3.808
 7786TIP3    H223302   4.252   2.523   3.953
 7787TIP3   OH223303   7.771   2.118   1.095
 7787TIP3    H123304   7.723   2.141   1.175
 7787TIP3    H223305   7.711   2.141   1.024
 7788TIP3   OH223306   4.360   2.174   3.370
 7788TIP3    H123307   4.377   2.249   3.312
 7788TIP3    H223308   4.331   2.105   3.311
 7789TIP3   OH223309   3.255   3.954   5.518
 7789TIP3    H123310   3.322   4.015   5.488
 7789TIP3    H223311   3.172   3.992   5.486
 7790TIP3   OH223312  -0.013   5.595   2.854
 7790TIP3    H123313   0.052   5.632   2.793
 7790TIP3    H223314   0.037   5.530   2.904
 7791TIP3   OH223315   2.235   5.400   2.909
 7791TIP3    H123316   2.306   5.384   2.847
 7791TIP3    H223317   2.239   5.494   2.928
 7792TIP3   OH223318   3.246   3.489   2.366
 7792TIP3    H123319   3.221   3.407   2.323
 7792TIP3    H223320   3.205   3.484   2.452
 7793TIP3   OH223321   2.598   7.035   1.022
 7793TIP3    H123322   2.569   7.110   1.073
 7793TIP3    H223323   2.659   7.071   0.958
 7794TIP3   OH223324   7.087   6.185   0.216
 7794TIP3    H123325   7.047   6.166   0.301
 7794TIP3    H223326   7.031   6.140   0.153
 7795TIP3   OH223327   0.734   3.121   6.673
 7795TIP3    H123328   0.736   3.122   6.769
 7795TIP3    H223329   0.822   3.094   6.647
 7796TIP3   OH223330   0.421   5.288   6.657
 7796TIP3    H123331   0.514   5.295   6.634
 7796TIP3    H223332   0.420   5.248   6.743
 7797TIP3   OH223333   5.984   3.930   1.823
 7797TIP3    H123334   5.906   3.943   1.879
 7797TIP3    H223335   5.983   3.837   1.802
 7798TIP3   OH223336   6.910   6.968   1.201
 7798TIP3    H123337   6.871   6.959   1.114
 7798TIP3    H223338   6.951   7.054   1.200
 7799TIP3   OH223339   0.574   1.397   4.354
 7799TIP3    H123340   0.518   1.465   4.389
 7799TIP3    H223341   0.663   1.433   4.359
 7800TIP3   OH223342   3.979   2.336   6.429
 7800TIP3    H123343   3.914   2.380   6.483
 7800TIP3    H223344   4.059   2.387   6.442
 7801TIP3   OH223345   5.232   7.488   3.105
 7801TIP3    H123346   5.273   7.573   3.086
 7801TIP3    H223347   5.223   7.447   3.019
 7802TIP3   OH223348   2.290   5.055   4.256
 7802TIP3    H123349   2.356   5.063   4.187
 7802TIP3    H223350   2.341   5.049   4.337
 7803TIP3   OH223351   8.074   7.773   0.953
 7803TIP3    H123352   8.115   7.695   0.991
 7803TIP3    H223353   8.031   7.742   0.873
 7804TIP3   OH223354   0.499   3.952   4.130
 7804TIP3    H123355   0.429   3.999   4.085
 7804TIP3    H223356   0.542   4.018   4.184
 7805TIP3   OH223357   2.636   2.572   5.723
 7805TIP3    H123358   2.579   2.649   5.728
 7805TIP3    H223359   2.709   2.600   5.667
 7806TIP3   OH223360   7.471   3.579   0.447
 7806TIP3    H123361   7.435   3.639   0.382
 7806TIP3    H223362   7.516   3.635   0.509
 7807TIP3   OH223363   4.403   6.340   4.423
 7807TIP3    H123364   4.433   6.431   4.423
 7807TIP3    H223365   4.459   6.296   4.360
 7808TIP3   OH223366   3.763   4.063   0.901
 7808TIP3    H123367   3.677   4.028   0.877
 7808TIP3    H223368   3.745   4.151   0.935
 7809TIP3   OH223369   4.891   5.239   5.593
 7809TIP3    H123370   4.903   5.177   5.664
 7809TIP3    H223371   4.810   5.211   5.550
 7810TIP3   OH223372   0.537   2.115   1.051
 7810TIP3    H123373   0.564   2.077   0.967
 7810TIP3    H223374   0.449   2.150   1.034
 7811TIP3   OH223375   6.794   1.969   5.127
 7811TIP3    H123376   6.740   1.900   5.164
 7811TIP3    H223377   6.739   2.011   5.061
 7812TIP3   OH223378   3.985   5.311   2.018
 7812TIP3    H123379   4.057   5.350   1.968
 7812TIP3    H223380   3.927   5.275   1.951
 7813TIP3   OH223381   1.665   6.981   3.281
 7813TIP3    H123382   1.719   6.916   3.236
 7813TIP3    H223383   1.576   6.945   3.279
 7814TIP3   OH223384   0.442   1.988   2.811
 7814TIP3    H123385   0.360   1.963   2.769
 7814TIP3    H223386   0.510   1.952   2.753
 7815TIP3   OH223387   0.455   7.195   4.544
 7815TIP3    H123388   0.454   7.284   4.580
 7815TIP3    H223389   0.380   7.152   4.585
 7816TIP3   OH223390   1.389   5.400   1.588
 7816TIP3    H123391   1.387   5.414   1.682
 7816TIP3    H223392   1.482   5.388   1.567
 7817TIP3   OH223393   5.408   0.941   3.695
 7817TIP3    H123394   5.438   0.881   3.763
 7817TIP3    H223395   5.387   1.022   3.743
 7818TIP3   OH223396   7.804   6.070   1.106
 7818TIP3    H123397   7.740   6.001   1.086
 7818TIP3    H223398   7.756   6.152   1.093
 7819TIP3   OH223399   3.363   1.556   1.275
 7819TIP3    H123400   3.434   1.511   1.320
 7819TIP3    H223401   3.364   1.645   1.312
 7820TIP3   OH223402   2.136   0.562   4.344
 7820TIP3    H123403   2.166   0.562   4.253
 7820TIP3    H223404   2.216   0.549   4.396
 7821TIP3   OH223405   3.329   7.096   2.620
 7821TIP3    H123406   3.288   7.125   2.539
 7821TIP3    H223407   3.408   7.150   2.628
 7822TIP3   OH223408   6.408   4.181   4.033
 7822TIP3    H123409   6.320   4.145   4.025
 7822TIP3    H223410   6.405   4.263   3.983
 7823TIP3   OH223411   4.296   7.026   2.240
 7823TIP3    H123412   4.255   7.100   2.285
 7823TIP3    H223413   4.387   7.052   2.230
 7824TIP3   OH223414   1.160   4.656   5.527
 7824TIP3    H123415   1.073   4.647   5.566
 7824TIP3    H223416   1.185   4.747   5.545
 7825TIP3   OH223417   4.453   2.620   5.293
 7825TIP3    H123418   4.437   2.584   5.380
 7825TIP3    H223419   4.548   2.623   5.285
 7826TIP3   OH223420   6.326   2.332   5.613
 7826TIP3    H123421   6.295   2.267   5.549
 7826TIP3    H223422   6.294   2.298   5.697
 7827TIP3   OH223423   0.270   6.142   0.335
 7827TIP3    H123424   0.226   6.094   0.265
 7827TIP3    H223425   0.328   6.078   0.375
 7828TIP3   OH223426   6.810   7.741   5.145
 7828TIP3    H123427   6.761   7.685   5.206
 7828TIP3    H223428   6.801   7.697   5.060
 7829TIP3   OH223429   5.698   5.153   0.636
 7829TIP3    H123430   5.771   5.177   0.694
 7829TIP3    H223431   5.640   5.229   0.639
 7830TIP3   OH223432   5.604   4.488   0.791
 7830TIP3    H123433   5.681   4.491   0.734
 7830TIP3    H223434   5.632   4.437   0.867
 7831TIP3   OH223435   4.987   4.378   0.660
 7831TIP3    H123436   5.020   4.460   0.625
 7831TIP3    H223437   5.039   4.363   0.739
 7832TIP3   OH223438   4.813   5.530   3.739
 7832TIP3    H123439   4.799   5.599   3.673
 7832TIP3    H223440   4.837   5.578   3.818
 7833TIP3   OH223441   6.536   1.523   3.836
 7833TIP3    H123442   6.504   1.435   3.853
 7833TIP3    H223443   6.600   1.540   3.905
 7834TIP3   OH223444   3.367   7.565   1.226
 7834TIP3    H123445   3.273   7.549   1.229
 7834TIP3    H223446   3.380   7.641   1.283
 7835TIP3   OH223447   0.830   0.082   1.394
 7835TIP3    H123448   0.751   0.116   1.353
 7835TIP3    H223449   0.862   0.015   1.334
 7836TIP3   OH223450   3.839   2.615   1.073
 7836TIP3    H123451   3.841   2.709   1.089
 7836TIP3    H223452   3.806   2.578   1.155
 7837TIP3   OH223453   5.973   0.074   1.914
 7837TIP3    H123454   6.040   0.069   1.846
 7837TIP3    H223455   5.913   0.002   1.893
 7838TIP3   OH223456   3.043   2.849   5.383
 7838TIP3    H123457   3.078   2.902   5.455
 7838TIP3    H223458   3.120   2.811   5.342
 7839TIP3   OH223459   2.813   4.832   2.244
 7839TIP3    H123460   2.738   4.776   2.263
 7839TIP3    H223461   2.889   4.776   2.261
 7840TIP3   OH223462   6.208   0.150   3.766
 7840TIP3    H123463   6.115   0.130   3.768
 7840TIP3    H223464   6.214   0.240   3.800
 7841TIP3   OH223465   1.614   2.343   5.903
 7841TIP3    H123466   1.653   2.425   5.933
 7841TIP3    H223467   1.603   2.291   5.983
 7842TIP3   OH223468   0.937   0.004   4.068
 7842TIP3    H123469   1.030  -0.011   4.048
 7842TIP3    H223470   0.923   0.096   4.048
 7843TIP3   OH223471   6.642   4.018   3.717
 7843TIP3    H123472   6.643   4.072   3.638
 7843TIP3    H223473   6.731   3.984   3.724
 7844TIP3   OH223474   3.429   0.129   3.020
 7844TIP3    H123475   3.511   0.145   2.973
 7844TIP3    H223476   3.365   0.185   2.977
 7845TIP3   OH223477   5.414   6.841   5.505
 7845TIP3    H123478   5.332   6.869   5.465
 7845TIP3    H223479   5.408   6.745   5.507
 7846TIP3   OH223480   4.190   3.811   1.497
 7846TIP3    H123481   4.201   3.867   1.420
 7846TIP3    H223482   4.157   3.869   1.565
 7847TIP3   OH223483   7.942   0.334   6.331
 7847TIP3    H123484   7.898   0.250   6.315
 7847TIP3    H223485   8.025   0.309   6.372
 7848TIP3   OH223486   3.684   5.738   0.906
 7848TIP3    H123487   3.711   5.726   0.815
 7848TIP3    H223488   3.709   5.827   0.927
 7849TIP3   OH223489   7.823   5.440   3.870
 7849TIP3    H123490   7.864   5.511   3.820
 7849TIP3    H223491   7.741   5.477   3.902
 7850TIP3   OH223492   3.982   1.823   4.868
 7850TIP3    H123493   4.035   1.846   4.792
 7850TIP3    H223494   4.020   1.875   4.939
 7851TIP3   OH223495   6.508   2.729   4.314
 7851TIP3    H123496   6.555   2.655   4.275
 7851TIP3    H223497   6.435   2.745   4.254
 7852TIP3   OH223498   3.032   5.895   2.916
 7852TIP3    H123499   3.014   5.835   2.988
 7852TIP3    H223500   3.111   5.942   2.944
 7853TIP3   OH223501   8.242   0.705   0.487
 7853TIP3    H123502   8.180   0.724   0.417
 7853TIP3    H223503   8.268   0.791   0.521
 7854TIP3   OH223504   7.210   4.379   2.786
 7854TIP3    H123505   7.151   4.380   2.711
 7854TIP3    H223506   7.215   4.470   2.814
 7855TIP3   OH223507   1.717   6.814   5.637
 7855TIP3    H123508   1.807   6.792   5.660
 7855TIP3    H223509   1.693   6.884   5.698
 7856TIP3   OH223510   0.305   2.116   0.062
 7856TIP3    H123511   0.359   2.176   0.011
 7856TIP3    H223512   0.276   2.168   0.138
 7857TIP3   OH223513   3.708   4.059   4.638
 7857TIP3    H123514   3.749   4.026   4.558
 7857TIP3    H223515   3.769   4.036   4.708
 7858TIP3   OH223516   3.995   0.361   5.677
 7858TIP3    H123517   4.023   0.273   5.650
 7858TIP3    H223518   3.943   0.392   5.603
 7859TIP3   OH223519   2.039   4.676   0.869
 7859TIP3    H123520   2.054   4.607   0.933
 7859TIP3    H223521   2.123   4.723   0.864
 7860TIP3   OH223522   4.798   4.192   6.672
 7860TIP3    H123523   4.774   4.273   6.717
 7860TIP3    H223524   4.893   4.191   6.675
 7861TIP3   OH223525   3.671   0.427   2.835
 7861TIP3    H123526   3.619   0.352   2.805
 7861TIP3    H223527   3.664   0.490   2.763
 7862TIP3   OH223528   5.633   4.543   6.008
 7862TIP3    H123529   5.595   4.592   6.082
 7862TIP3    H223530   5.714   4.589   5.989
 7863TIP3   OH223531   7.413   0.564   6.568
 7863TIP3    H123532   7.371   0.589   6.486
 7863TIP3    H223533   7.343   0.522   6.619
 7864TIP3   OH223534   6.901   5.417   1.807
 7864TIP3    H123535   6.985   5.418   1.854
 7864TIP3    H223536   6.923   5.382   1.721
 7865TIP3   OH223537   5.981   3.002   1.259
 7865TIP3    H123538   6.028   3.071   1.307
 7865TIP3    H223539   6.004   2.921   1.306
 7866TIP3   OH223540   5.918   6.012   6.276
 7866TIP3    H123541   5.928   5.919   6.259
 7866TIP3    H223542   5.883   6.049   6.195
 7867TIP3   OH223543   3.457   1.723   1.003
 7867TIP3    H123544   3.400   1.799   0.991
 7867TIP3    H223545   3.420   1.677   1.078
 7868TIP3   OH223546   4.249   3.799   5.104
 7868TIP3    H123547   4.324   3.812   5.045
 7868TIP3    H223548   4.239   3.883   5.148
 7869TIP3   OH223549   1.528   2.144   2.406
 7869TIP3    H123550   1.596   2.120   2.342
 7869TIP3    H223551   1.570   2.128   2.491
 7870TIP3   OH223552   1.419   6.810   3.301
 7870TIP3    H123553   1.414   6.780   3.211
 7870TIP3    H223554   1.329   6.836   3.322
 7871TIP3   OH223555   7.116   2.742   6.133
 7871TIP3    H123556   7.163   2.761   6.052
 7871TIP3    H223557   7.137   2.650   6.152
 7872TIP3   OH223558   6.208   2.226   1.709
 7872TIP3    H123559   6.289   2.275   1.726
 7872TIP3    H223560   6.203   2.222   1.613
 7873TIP3   OH223561   7.403   4.758   4.003
 7873TIP3    H123562   7.314   4.754   3.967
 7873TIP3    H223563   7.396   4.820   4.076
 7874TIP3   OH223564   1.236   7.656   6.310
 7874TIP3    H123565   1.169   7.609   6.359
 7874TIP3    H223566   1.189   7.699   6.239
 7875TIP3   OH223567   2.331   0.317   2.431
 7875TIP3    H123568   2.318   0.222   2.435
 7875TIP3    H223569   2.370   0.332   2.345
 7876TIP3   OH223570   3.482   6.965   6.500
 7876TIP3    H123571   3.476   6.869   6.502
 7876TIP3    H223572   3.462   6.991   6.589
 7877TIP3   OH223573   4.806   6.462   1.558
 7877TIP3    H123574   4.898   6.444   1.573
 7877TIP3    H223575   4.792   6.445   1.465
 7878TIP3   OH223576   4.186   0.105   4.043
 7878TIP3    H123577   4.205   0.195   4.019
 7878TIP3    H223578   4.192   0.105   4.139
 7879TIP3   OH223579   1.547   3.895   0.548
 7879TIP3    H123580   1.515   3.963   0.488
 7879TIP3    H223581   1.505   3.915   0.632
 7880TIP3   OH223582   5.624   0.180   3.024
 7880TIP3    H123583   5.566   0.221   3.089
 7880TIP3    H223584   5.704   0.160   3.073
 7881TIP3   OH223585   4.272   3.079   4.990
 7881TIP3    H123586   4.194   3.054   5.039
 7881TIP3    H223587   4.323   2.998   4.983
 7882TIP3   OH223588   7.167   2.212   2.238
 7882TIP3    H123589   7.129   2.267   2.306
 7882TIP3    H223590   7.214   2.273   2.181
 7883TIP3   OH223591   5.497   4.289   3.893
 7883TIP3    H123592   5.562   4.303   3.823
 7883TIP3    H223593   5.550   4.271   3.971
 7884TIP3   OH223594   0.258   5.300   0.278
 7884TIP3    H123595   0.266   5.339   0.366
 7884TIP3    H223596   0.170   5.262   0.278
 7885TIP3   OH223597   5.608   4.182   2.611
 7885TIP3    H123598   5.533   4.133   2.578
 7885TIP3    H223599   5.674   4.115   2.630
 7886TIP3   OH223600   4.319   1.935   5.042
 7886TIP3    H123601   4.389   1.949   5.106
 7886TIP3    H223602   4.253   1.886   5.090
 7887TIP3   OH223603   8.139   0.211   1.959
 7887TIP3    H123604   8.211   0.180   2.014
 7887TIP3    H223605   8.102   0.284   2.008
 7888TIP3   OH223606   1.683   3.130   0.520
 7888TIP3    H123607   1.636   3.121   0.437
 7888TIP3    H223608   1.618   3.164   0.581
 7889TIP3   OH223609   2.621   6.080   5.698
 7889TIP3    H123610   2.698   6.133   5.679
 7889TIP3    H223611   2.577   6.126   5.769
 7890TIP3   OH223612   5.512   7.790   4.929
 7890TIP3    H123613   5.465   7.874   4.928
 7890TIP3    H223614   5.526   7.770   4.836
 7891TIP3   OH223615   4.068   4.643   5.035
 7891TIP3    H123616   4.119   4.711   5.080
 7891TIP3    H223617   3.979   4.654   5.068
 7892TIP3   OH223618   4.674   3.116   3.887
 7892TIP3    H123619   4.741   3.091   3.951
 7892TIP3    H223620   4.608   3.163   3.938
 7893TIP3   OH223621   3.655   4.455   3.417
 7893TIP3    H123622   3.695   4.445   3.331
 7893TIP3    H223623   3.592   4.383   3.423
 7894TIP3   OH223624   3.172   7.542   2.533
 7894TIP3    H123625   3.173   7.448   2.512
 7894TIP3    H223626   3.209   7.585   2.456
 7895TIP3   OH223627   3.954   7.666   1.573
 7895TIP3    H123628   4.026   7.626   1.525
 7895TIP3    H223629   3.971   7.760   1.569
 7896TIP3   OH223630   4.535   6.880   5.869
 7896TIP3    H123631   4.605   6.945   5.862
 7896TIP3    H223632   4.487   6.905   5.948
 7897TIP3   OH223633   5.076   1.711   0.941
 7897TIP3    H123634   4.985   1.682   0.952
 7897TIP3    H223635   5.084   1.728   0.847
 7898TIP3   OH223636   3.253   4.855   4.501
 7898TIP3    H123637   3.215   4.789   4.443
 7898TIP3    H223638   3.347   4.850   4.485
 7899TIP3   OH223639   0.800   3.924   1.494
 7899TIP3    H123640   0.763   3.885   1.415
 7899TIP3    H223641   0.890   3.945   1.470
 7900TIP3   OH223642   1.165   4.923   0.360
 7900TIP3    H123643   1.150   5.017   0.366
 7900TIP3    H223644   1.094   4.890   0.306
 7901TIP3   OH223645   2.400   6.288   3.344
 7901TIP3    H123646   2.419   6.382   3.348
 7901TIP3    H223647   2.316   6.278   3.387
 7902TIP3   OH223648   5.160   2.107   6.473
 7902TIP3    H123649   5.169   2.170   6.545
 7902TIP3    H223650   5.237   2.050   6.482
 7903TIP3   OH223651   0.803   2.950   4.147
 7903TIP3    H123652   0.763   2.972   4.231
 7903TIP3    H223653   0.841   2.863   4.161
 7904TIP3   OH223654   7.557   6.853   1.377
 7904TIP3    H123655   7.621   6.860   1.447
 7904TIP3    H223656   7.521   6.765   1.386
 7905TIP3   OH223657   3.162   3.580   5.878
 7905TIP3    H123658   3.121   3.611   5.797
 7905TIP3    H223659   3.113   3.624   5.947
 7906TIP3   OH223660   2.759   7.376   1.619
 7906TIP3    H123661   2.697   7.303   1.612
 7906TIP3    H223662   2.771   7.389   1.713
 7907TIP3   OH223663   4.485   0.207   1.330
 7907TIP3    H123664   4.429   0.133   1.308
 7907TIP3    H223665   4.529   0.230   1.248
 7908TIP3   OH223666   0.745   0.859   6.392
 7908TIP3    H123667   0.676   0.913   6.430
 7908TIP3    H223668   0.787   0.916   6.327
 7909TIP3   OH223669   0.805   1.216   5.900
 7909TIP3    H123670   0.875   1.262   5.854
 7909TIP3    H223671   0.794   1.264   5.982
 7910TIP3   OH223672   2.256   4.039   2.226
 7910TIP3    H123673   2.179   4.013   2.175
 7910TIP3    H223674   2.247   4.133   2.238
 7911TIP3   OH223675   1.616   3.141   3.735
 7911TIP3    H123676   1.627   3.048   3.752
 7911TIP3    H223677   1.539   3.147   3.679
 7912TIP3   OH223678   1.702   4.807   4.907
 7912TIP3    H123679   1.745   4.768   4.983
 7912TIP3    H223680   1.615   4.767   4.906
 7913TIP3   OH223681   1.523   7.628   1.661
 7913TIP3    H123682   1.429   7.617   1.648
 7913TIP3    H223683   1.563   7.557   1.612
 7914TIP3   OH223684   3.984   3.686   5.381
 7914TIP3    H123685   4.021   3.607   5.418
 7914TIP3    H223686   3.889   3.671   5.380
 7915TIP3   OH223687   6.414   5.869   4.388
 7915TIP3    H123688   6.394   5.955   4.351
 7915TIP3    H223689   6.508   5.857   4.372
 7916TIP3   OH223690   4.012   5.620   3.689
 7916TIP3    H123691   4.088   5.631   3.632
 7916TIP3    H223692   3.948   5.573   3.635
 7917TIP3   OH223693   7.423   2.678   1.835
 7917TIP3    H123694   7.467   2.667   1.751
 7917TIP3    H223695   7.379   2.763   1.828
 7918TIP3   OH223696   0.275   4.965   2.496
 7918TIP3    H123697   0.255   5.046   2.543
 7918TIP3    H223698   0.340   4.921   2.552
 7919TIP3   OH223699   5.723   1.579   1.408
 7919TIP3    H123700   5.662   1.621   1.347
 7919TIP3    H223701   5.740   1.493   1.369
 7920TIP3   OH223702   1.442   2.552   0.656
 7920TIP3    H123703   1.358   2.570   0.697
 7920TIP3    H223704   1.436   2.594   0.570
 7921TIP3   OH223705   1.625   5.200   1.323
 7921TIP3    H123706   1.646   5.155   1.405
 7921TIP3    H223707   1.543   5.246   1.341
 7922TIP3   OH223708   0.366   7.583   5.298
 7922TIP3    H123709   0.418   7.645   5.247
 7922TIP3    H223710   0.287   7.632   5.322
 7923TIP3   OH223711   7.810   4.382   1.201
 7923TIP3    H123712   7.736   4.335   1.162
 7923TIP3    H223713   7.769   4.451   1.254
 7924TIP3   OH223714   3.112   6.620   1.957
 7924TIP3    H123715   3.133   6.545   1.900
 7924TIP3    H223716   3.108   6.694   1.897
 7925TIP3   OH223717   4.573   0.891   1.246
 7925TIP3    H123718   4.624   0.940   1.182
 7925TIP3    H223719   4.518   0.833   1.194
 7926TIP3   OH223720   6.038   2.351   4.591
 7926TIP3    H123721   6.037   2.273   4.536
 7926TIP3    H223722   5.950   2.389   4.580
 7927TIP3   OH223723   1.275   1.843   0.257
 7927TIP3    H123724   1.288   1.774   0.193
 7927TIP3    H223725   1.194   1.819   0.303
 7928TIP3   OH223726   5.927   5.464   4.087
 7928TIP3    H123727   5.924   5.377   4.127
 7928TIP3    H223728   5.998   5.509   4.132
 7929TIP3   OH223729   6.605   7.084   0.218
 7929TIP3    H123730   6.621   7.067   0.311
 7929TIP3    H223731   6.684   7.053   0.175
 7930TIP3   OH223732   5.017   6.501   3.139
 7930TIP3    H123733   4.990   6.469   3.225
 7930TIP3    H223734   4.964   6.580   3.125
 7931TIP3   OH223735   2.030   2.426   3.671
 7931TIP3    H123736   2.023   2.504   3.617
 7931TIP3    H223737   2.124   2.418   3.690
 7932TIP3   OH223738   0.115   2.599   1.758
 7932TIP3    H123739   0.074   2.527   1.710
 7932TIP3    H223740   0.080   2.678   1.718
 7933TIP3   OH223741   7.606   2.031   6.542
 7933TIP3    H123742   7.657   1.966   6.589
 7933TIP3    H223743   7.654   2.113   6.553
 7934TIP3   OH223744   2.028   1.319   4.460
 7934TIP3    H123745   2.006   1.239   4.509
 7934TIP3    H223746   1.977   1.388   4.503
 7935TIP3   OH223747   4.647   0.311   2.730
 7935TIP3    H123748   4.669   0.228   2.686
 7935TIP3    H223749   4.551   0.314   2.730
 7936TIP3   OH223750   8.245   2.530   1.521
 7936TIP3    H123751   8.204   2.444   1.514
 7936TIP3    H223752   8.284   2.545   1.434
 7937TIP3   OH223753   6.991   2.129   0.970
 7937TIP3    H123754   7.070   2.111   0.920
 7937TIP3    H223755   6.921   2.084   0.922
 7938TIP3   OH223756   2.323   2.309   3.726
 7938TIP3    H123757   2.374   2.237   3.688
 7938TIP3    H223758   2.262   2.267   3.786
 7939TIP3   OH223759   2.122   3.591   5.253
 7939TIP3    H123760   2.078   3.612   5.335
 7939TIP3    H223761   2.105   3.665   5.196
 7940TIP3   OH223762   4.706   2.591   6.670
 7940TIP3    H123763   4.778   2.650   6.694
 7940TIP3    H223764   4.679   2.622   6.583
 7941TIP3   OH223765   5.625   5.172   4.881
 7941TIP3    H123766   5.529   5.176   4.874
 7941TIP3    H223767   5.647   5.235   4.950
 7942TIP3   OH223768   6.767   6.881   2.540
 7942TIP3    H123769   6.825   6.931   2.598
 7942TIP3    H223770   6.748   6.801   2.589
 7943TIP3   OH223771   7.875   5.086   5.986
 7943TIP3    H123772   7.909   5.167   6.024
 7943TIP3    H223773   7.947   5.023   5.995
 7944TIP3   OH223774   6.122   2.568   2.097
 7944TIP3    H123775   6.123   2.500   2.029
 7944TIP3    H223776   6.070   2.530   2.167
 7945TIP3   OH223777   4.752   1.345   0.379
 7945TIP3    H123778   4.685   1.394   0.330
 7945TIP3    H223779   4.803   1.413   0.424
 7946TIP3   OH223780   7.217   4.152   3.109
 7946TIP3    H123781   7.124   4.136   3.095
 7946TIP3    H223782   7.222   4.240   3.147
 7947TIP3   OH223783   3.783   1.255   5.781
 7947TIP3    H123784   3.701   1.238   5.736
 7947TIP3    H223785   3.821   1.168   5.796
 7948TIP3   OH223786  -0.015   1.579   2.914
 7948TIP3    H123787   0.020   1.667   2.901
 7948TIP3    H223788   0.042   1.523   2.860
 7949TIP3   OH223789   6.430   3.565   5.717
 7949TIP3    H123790   6.339   3.584   5.696
 7949TIP3    H223791   6.431   3.471   5.735
 7950TIP3   OH223792   4.006   1.886   6.619
 7950TIP3    H123793   3.986   1.978   6.636
 7950TIP3    H223794   3.956   1.838   6.685
 7951TIP3   OH223795   1.989   5.154   0.794
 7951TIP3    H123796   1.953   5.075   0.836
 7951TIP3    H223797   1.989   5.133   0.701
 7952TIP3   OH223798   7.580   5.627   3.005
 7952TIP3    H123799   7.631   5.703   3.035
 7952TIP3    H223800   7.519   5.609   3.077
 7953TIP3   OH223801   7.839   4.513   5.103
 7953TIP3    H123802   7.933   4.498   5.091
 7953TIP3    H223803   7.803   4.427   5.122
 7954TIP3   OH223804   1.665   6.281   3.141
 7954TIP3    H123805   1.738   6.231   3.105
 7954TIP3    H223806   1.680   6.281   3.235
 7955TIP3   OH223807   5.037   1.085   1.469
 7955TIP3    H123808   4.964   1.126   1.421
 7955TIP3    H223809   5.036   1.127   1.555
 7956TIP3   OH223810   1.906   0.809   2.457
 7956TIP3    H123811   1.901   0.796   2.362
 7956TIP3    H223812   1.998   0.829   2.474
 7957TIP3   OH223813   3.421   2.901   3.952
 7957TIP3    H123814   3.494   2.963   3.954
 7957TIP3    H223815   3.343   2.956   3.945
 7958TIP3   OH223816   7.602   7.424   4.682
 7958TIP3    H123817   7.683   7.390   4.645
 7958TIP3    H223818   7.542   7.350   4.679
 7959TIP3   OH223819   2.238   4.682   4.613
 7959TIP3    H123820   2.230   4.675   4.518
 7959TIP3    H223821   2.152   4.654   4.646
 7960TIP3   OH223822   4.482   3.426   2.200
 7960TIP3    H123823   4.397   3.466   2.219
 7960TIP3    H223824   4.531   3.493   2.154
 7961TIP3   OH223825   0.082   3.718   5.813
 7961TIP3    H123826   0.115   3.788   5.869
 7961TIP3    H223827   0.159   3.667   5.790
 7962TIP3   OH223828   0.081   5.194   2.159
 7962TIP3    H123829   0.058   5.102   2.164
 7962TIP3    H223830   0.125   5.203   2.074
 7963TIP3   OH223831   6.787   1.548   4.758
 7963TIP3    H123832   6.715   1.598   4.797
 7963TIP3    H223833   6.781   1.566   4.664
 7964TIP3   OH223834   0.839   3.324   1.067
 7964TIP3    H123835   0.881   3.312   1.152
 7964TIP3    H223836   0.768   3.386   1.084
 7965TIP3   OH223837   2.270   1.955   5.626
 7965TIP3    H123838   2.262   1.962   5.531
 7965TIP3    H223839   2.224   2.032   5.660
 7966TIP3   OH223840   7.482   0.026   4.752
 7966TIP3    H123841   7.512  -0.008   4.836
 7966TIP3    H223842   7.559   0.019   4.695
 7967TIP3   OH223843   3.404   0.561   2.189
 7967TIP3    H123844   3.344   0.586   2.260
 7967TIP3    H223845   3.356   0.582   2.109
 7968TIP3   OH223846   0.845   0.677   0.602
 7968TIP3    H123847   0.808   0.747   0.550
 7968TIP3    H223848   0.940   0.692   0.599
 7969TIP3   OH223849   3.706   1.523   1.172
 7969TIP3    H123850   3.770   1.550   1.107
 7969TIP3    H223851   3.633   1.488   1.121
 7970TIP3   OH223852   0.503   5.604   2.971
 7970TIP3    H123853   0.582   5.649   2.940
 7970TIP3    H223854   0.519   5.587   3.063
 7971TIP3   OH223855   4.536   4.975   1.096
 7971TIP3    H123856   4.484   4.896   1.106
 7971TIP3    H223857   4.621   4.945   1.062
 7972TIP3   OH223858   0.997   4.814   2.722
 7972TIP3    H123859   1.062   4.746   2.738
 7972TIP3    H223860   1.048   4.894   2.710
 7973TIP3   OH223861   5.668   3.604   3.588
 7973TIP3    H123862   5.694   3.512   3.591
 7973TIP3    H223863   5.620   3.613   3.505
 7974TIP3   OH223864   4.753   3.259   1.183
 7974TIP3    H123865   4.722   3.201   1.113
 7974TIP3    H223866   4.676   3.312   1.207
 7975TIP3   OH223867   5.672   1.477   5.235
 7975TIP3    H123868   5.577   1.486   5.235
 7975TIP3    H223869   5.705   1.566   5.217
 7976TIP3   OH223870   1.256   4.466   2.210
 7976TIP3    H123871   1.249   4.422   2.295
 7976TIP3    H223872   1.265   4.395   2.147
 7977TIP3   OH223873   3.825   4.325   6.588
 7977TIP3    H123874   3.859   4.409   6.619
 7977TIP3    H223875   3.878   4.260   6.634
 7978TIP3   OH223876   0.313   6.103   3.515
 7978TIP3    H123877   0.276   6.080   3.430
 7978TIP3    H223878   0.399   6.139   3.494
 7979TIP3   OH223879   7.686   1.522   6.771
 7979TIP3    H123880   7.774   1.520   6.810
 7979TIP3    H223881   7.687   1.451   6.707
 7980TIP3   OH223882   2.500   3.360   0.180
 7980TIP3    H123883   2.572   3.420   0.197
 7980TIP3    H223884   2.446   3.364   0.259
 7981TIP3   OH223885   2.255   3.577   6.617
 7981TIP3    H123886   2.312   3.614   6.685
 7981TIP3    H223887   2.304   3.502   6.583
 7982TIP3   OH223888   6.201   3.277   0.251
 7982TIP3    H123889   6.175   3.189   0.279
 7982TIP3    H223890   6.120   3.316   0.217
 7983TIP3   OH223891   1.082   1.477   4.947
 7983TIP3    H123892   1.080   1.559   4.898
 7983TIP3    H223893   1.031   1.415   4.895
 7984TIP3   OH223894   0.289   6.122   6.201
 7984TIP3    H123895   0.316   6.081   6.118
 7984TIP3    H223896   0.371   6.139   6.247
 7985TIP3   OH223897   0.921   4.747   3.863
 7985TIP3    H123898   0.993   4.721   3.920
 7985TIP3    H223899   0.962   4.762   3.778
 7986TIP3   OH223900   7.537   5.250   2.757
 7986TIP3    H123901   7.538   5.291   2.843
 7986TIP3    H223902   7.512   5.320   2.697
 7987TIP3   OH223903   8.058   5.188   5.704
 7987TIP3    H123904   8.025   5.264   5.752
 7987TIP3    H223905   7.979   5.145   5.670
 7988TIP3   OH223906   0.573   3.188   1.647
 7988TIP3    H123907   0.645   3.246   1.622
 7988TIP3    H223908   0.614   3.122   1.703
 7989TIP3   OH223909   0.903   7.127   3.606
 7989TIP3    H123910   0.821   7.116   3.653
 7989TIP3    H223911   0.891   7.206   3.554
 7990TIP3   OH223912   5.799   0.992   3.457
 7990TIP3    H123913   5.882   1.026   3.491
 7990TIP3    H223914   5.823   0.947   3.377
 7991TIP3   OH223915   0.329   2.544   3.716
 7991TIP3    H123916   0.393   2.610   3.690
 7991TIP3    H223917   0.351   2.466   3.665
 7992TIP3   OH223918   0.390   3.460   4.262
 7992TIP3    H123919   0.445   3.426   4.333
 7992TIP3    H223920   0.372   3.384   4.207
 7993TIP3   OH223921   0.305   4.531   6.169
 7993TIP3    H123922   0.250   4.551   6.093
 7993TIP3    H223923   0.263   4.578   6.241
 7994TIP3   OH223924   8.093   3.868   4.628
 7994TIP3    H123925   8.037   3.835   4.698
 7994TIP3    H223926   8.146   3.936   4.669
 7995TIP3   OH223927   0.425   2.961   3.338
 7995TIP3    H123928   0.438   2.915   3.255
 7995TIP3    H223929   0.336   2.937   3.364
 7996TIP3   OH223930   7.469   3.223   1.833
 7996TIP3    H123931   7.500   3.140   1.869
 7996TIP3    H223932   7.375   3.223   1.851
 7997TIP3   OH223933   0.754   2.613   5.536
 7997TIP3    H123934   0.795   2.695   5.507
 7997TIP3    H223935   0.692   2.640   5.603
 7998TIP3   OH223936   5.538   0.913   0.350
 7998TIP3    H123937   5.563   0.978   0.285
 7998TIP3    H223938   5.585   0.938   0.429
 7999TIP3   OH223939   7.902   4.265   2.961
 7999TIP3    H123940   7.813   4.297   2.976
 7999TIP3    H223941   7.937   4.252   3.049
 8000TIP3   OH223942   1.283   2.175   4.924
 8000TIP3    H123943   1.223   2.250   4.924
 8000TIP3    H223944   1.261   2.126   5.003
 8001TIP3   OH223945   6.204   6.160   1.907
 8001TIP3    H123946   6.265   6.124   1.971
 8001TIP3    H223947   6.256   6.221   1.855
 8002TIP3   OH223948   0.785   6.559   0.103
 8002TIP3    H123949   0.755   6.494   0.166
 8002TIP3    H223950   0.805   6.636   0.157
 8003TIP3   OH223951   0.823   2.923   1.370
 8003TIP3    H123952   0.766   2.985   1.415
 8003TIP3    H223953   0.764   2.852   1.344
 8004TIP3   OH223954   1.234   1.678   6.491
 8004TIP3    H123955   1.190   1.756   6.526
 8004TIP3    H223956   1.246   1.698   6.398
 8005TIP3   OH223957   3.474   7.510   4.646
 8005TIP3    H123958   3.529   7.445   4.603
 8005TIP3    H223959   3.395   7.513   4.592
 8006TIP3   OH223960   4.001   7.579   5.022
 8006TIP3    H123961   4.005   7.647   4.955
 8006TIP3    H223962   3.931   7.608   5.081
 8007TIP3   OH223963   7.121   1.903   6.387
 8007TIP3    H123964   7.180   1.911   6.311
 8007TIP3    H223965   7.172   1.854   6.451
 8008TIP3   OH223966   1.875   4.200   2.600
 8008TIP3    H123967   1.786   4.166   2.595
 8008TIP3    H223968   1.869   4.288   2.562
 8009TIP3   OH223969   1.480   5.600   0.755
 8009TIP3    H123970   1.571   5.625   0.773
 8009TIP3    H223971   1.468   5.519   0.804
 8010TIP3   OH223972   6.365   4.062   3.258
 8010TIP3    H123973   6.362   4.082   3.352
 8010TIP3    H223974   6.372   3.966   3.254
 8011TIP3   OH223975   4.134   1.508   5.969
 8011TIP3    H123976   4.124   1.444   6.039
 8011TIP3    H223977   4.057   1.496   5.914
 8012TIP3   OH223978   7.880   4.104   0.231
 8012TIP3    H123979   7.955   4.045   0.242
 8012TIP3    H223980   7.869   4.144   0.317
 8013TIP3   OH223981   3.080   6.690   5.998
 8013TIP3    H123982   3.143   6.638   6.049
 8013TIP3    H223983   3.131   6.762   5.962
 8014TIP3   OH223984   3.783   3.834   2.245
 8014TIP3    H123985   3.711   3.852   2.305
 8014TIP3    H223986   3.861   3.862   2.292
 8015TIP3   OH223987   2.672   3.403   4.457
 8015TIP3    H123988   2.646   3.343   4.387
 8015TIP3    H223989   2.766   3.416   4.444
 8016TIP3   OH223990   4.204   4.205   2.575
 8016TIP3    H123991   4.210   4.167   2.487
 8016TIP3    H223992   4.132   4.267   2.569
 8017TIP3   OH223993   7.743   7.725   2.352
 8017TIP3    H123994   7.829   7.740   2.313
 8017TIP3    H223995   7.761   7.690   2.439
 8018TIP3   OH223996   6.419   6.734   3.726
 8018TIP3    H123997   6.473   6.687   3.663
 8018TIP3    H223998   6.338   6.683   3.730
 8019TIP3   OH223999   7.031   4.329   5.917
 8019TIP3    H124000   7.078   4.246   5.919
 8019TIP3    H224001   7.087   4.390   5.964
 8020TIP3   OH224002   1.217   3.917   6.162
 8020TIP3    H124003   1.211   4.003   6.120
 8020TIP3    H224004   1.306   3.888   6.142
 8021TIP3   OH224005   5.102   2.829   4.592
 8021TIP3    H124006   5.124   2.817   4.499
 8021TIP3    H224007   5.007   2.840   4.593
 8022TIP3   OH224008   6.416   5.793   5.156
 8022TIP3    H124009   6.448   5.703   5.159
 8022TIP3    H224010   6.486   5.842   5.113
 8023TIP3   OH224011   1.357   4.664   0.798
 8023TIP3    H124012   1.308   4.671   0.880
 8023TIP3    H224013   1.289   4.650   0.731
 8024TIP3   OH224014   4.316   0.810   1.091
 8024TIP3    H124015   4.320   0.884   1.030
 8024TIP3    H224016   4.371   0.743   1.050
 8025TIP3   OH224017   6.700   6.262   0.867
 8025TIP3    H124018   6.744   6.184   0.901
 8025TIP3    H224019   6.652   6.298   0.942
 8026TIP3   OH224020   2.373   1.750   2.368
 8026TIP3    H124021   2.313   1.742   2.442
 8026TIP3    H224022   2.369   1.665   2.324
 8027TIP3   OH224023   7.527   1.304   5.042
 8027TIP3    H124024   7.475   1.244   5.096
 8027TIP3    H224025   7.568   1.248   4.976
 8028TIP3   OH224026   5.128   4.145   5.737
 8028TIP3    H124027   5.074   4.215   5.774
 8028TIP3    H224028   5.116   4.154   5.642
 8029TIP3   OH224029   0.086   2.573   4.523
 8029TIP3    H124030   0.058   2.502   4.582
 8029TIP3    H224031   0.090   2.650   4.579
 8030TIP3   OH224032   8.225   7.483   2.339
 8030TIP3    H124033   8.213   7.527   2.424
 8030TIP3    H224034   8.250   7.553   2.279
 8031TIP3   OH224035   5.652   6.536   0.418
 8031TIP3    H124036   5.639   6.571   0.506
 8031TIP3    H224037   5.567   6.499   0.394
 8032TIP3   OH224038   7.498   6.836   4.859
 8032TIP3    H124039   7.527   6.893   4.788
 8032TIP3    H224040   7.511   6.748   4.825
 8033TIP3   OH224041   2.111   0.125   2.276
 8033TIP3    H124042   2.020   0.103   2.257
 8033TIP3    H224043   2.149   0.044   2.312
 8034TIP3   OH224044   5.238   3.076   5.940
 8034TIP3    H124045   5.207   2.996   5.983
 8034TIP3    H224046   5.279   3.045   5.859
 8035TIP3   OH224047   0.931   3.711   4.310
 8035TIP3    H124048   0.837   3.730   4.307
 8035TIP3    H224049   0.943   3.636   4.252
 8036TIP3   OH224050   6.343   6.137   4.306
 8036TIP3    H124051   6.334   6.230   4.285
 8036TIP3    H224052   6.300   6.127   4.391
 8037TIP3   OH224053   1.340   6.239   1.277
 8037TIP3    H124054   1.414   6.177   1.276
 8037TIP3    H224055   1.381   6.325   1.274
 8038TIP3   OH224056   6.043   1.985   2.604
 8038TIP3    H124057   6.039   2.080   2.616
 8038TIP3    H224058   6.030   1.949   2.692
 8039TIP3   OH224059   7.714   0.846   5.377
 8039TIP3    H124060   7.715   0.937   5.348
 8039TIP3    H224061   7.758   0.847   5.462
 8040TIP3   OH224062   0.077   4.538   4.506
 8040TIP3    H124063  -0.004   4.570   4.466
 8040TIP3    H224064   0.132   4.513   4.432
 8041TIP3   OH224065   2.024   0.109   2.793
 8041TIP3    H124066   1.985   0.118   2.706
 8041TIP3    H224067   2.087   0.180   2.799
 8042TIP3   OH224068   4.955   6.873   1.776
 8042TIP3    H124069   4.970   6.954   1.825
 8042TIP3    H224070   5.037   6.859   1.728
 8043TIP3   OH224071   2.634   6.749   3.885
 8043TIP3    H124072   2.726   6.734   3.908
 8043TIP3    H224073   2.614   6.836   3.919
 8044TIP3   OH224074   2.051   4.991   1.143
 8044TIP3    H124075   2.131   5.020   1.098
 8044TIP3    H224076   1.991   5.065   1.134
 8045TIP3   OH224077   4.957   7.557   1.019
 8045TIP3    H124078   4.880   7.553   0.963
 8045TIP3    H224079   4.994   7.643   1.003
 8046TIP3   OH224080   7.618   6.967   6.775
 8046TIP3    H124081   7.638   7.053   6.812
 8046TIP3    H224082   7.621   6.980   6.680
 8047TIP3   OH224083   6.352   7.731   5.067
 8047TIP3    H124084   6.400   7.767   5.142
 8047TIP3    H224085   6.408   7.748   4.992
 8048TIP3   OH224086   1.891   3.996   4.798
 8048TIP3    H124087   1.934   3.922   4.755
 8048TIP3    H224088   1.961   4.036   4.850
 8049TIP3   OH224089   5.810   5.652   6.530
 8049TIP3    H124090   5.749   5.620   6.597
 8049TIP3    H224091   5.896   5.649   6.573
 8050TIP3   OH224092   1.888   2.761   1.322
 8050TIP3    H124093   1.826   2.696   1.354
 8050TIP3    H224094   1.957   2.763   1.388
 8051TIP3   OH224095   6.122   0.100   4.780
 8051TIP3    H124096   6.196   0.136   4.731
 8051TIP3    H224097   6.154   0.016   4.813
 8052TIP3   OH224098   5.159   6.937   5.437
 8052TIP3    H124099   5.138   6.965   5.526
 8052TIP3    H224100   5.076   6.948   5.389
 8053TIP3   OH224101   0.824   3.485   0.701
 8053TIP3    H124102   0.826   3.549   0.772
 8053TIP3    H224103   0.840   3.401   0.744
 8054TIP3   OH224104   7.723   3.650   2.632
 8054TIP3    H124105   7.660   3.674   2.701
 8054TIP3    H224106   7.808   3.656   2.675
 8055TIP3   OH224107   3.904   1.650   6.132
 8055TIP3    H124108   3.838   1.643   6.201
 8055TIP3    H224109   3.874   1.592   6.063
 8056TIP3   OH224110   6.332   4.776   3.925
 8056TIP3    H124111   6.325   4.683   3.945
 8056TIP3    H224112   6.305   4.784   3.834
 8057TIP3   OH224113   4.333   3.261   4.014
 8057TIP3    H124114   4.406   3.230   4.067
 8057TIP3    H224115   4.356   3.238   3.924
 8058TIP3   OH224116   5.606   3.948   4.148
 8058TIP3    H124117   5.659   3.871   4.168
 8058TIP3    H224118   5.643   3.983   4.068
 8059TIP3   OH224119   2.788   1.053   1.313
 8059TIP3    H124120   2.716   1.028   1.370
 8059TIP3    H224121   2.861   0.997   1.340
 8060TIP3   OH224122   6.979   3.084   6.383
 8060TIP3    H124123   6.979   3.180   6.377
 8060TIP3    H224124   6.999   3.055   6.294
 8061TIP3   OH224125   2.230   7.805   3.780
 8061TIP3    H124126   2.294   7.737   3.802
 8061TIP3    H224127   2.153   7.756   3.751
 8062TIP3   OH224128   5.801   5.958   2.575
 8062TIP3    H124129   5.809   5.871   2.535
 8062TIP3    H224130   5.826   5.945   2.666
 8063TIP3   OH224131   2.885   0.082   4.082
 8063TIP3    H124132   2.954   0.037   4.034
 8063TIP3    H224133   2.804   0.051   4.040
 8064TIP3   OH224134   2.533   4.718   2.261
 8064TIP3    H124135   2.511   4.722   2.354
 8064TIP3    H224136   2.524   4.626   2.238
 8065TIP3   OH224137   5.764   4.522   3.946
 8065TIP3    H124138   5.732   4.449   3.892
 8065TIP3    H224139   5.780   4.482   4.031
 8066TIP3   OH224140   4.345   4.093   5.762
 8066TIP3    H124141   4.329   4.014   5.813
 8066TIP3    H224142   4.312   4.164   5.817
 8067TIP3   OH224143   6.026   1.352   0.602
 8067TIP3    H124144   5.990   1.282   0.656
 8067TIP3    H224145   6.072   1.307   0.531
 8068TIP3   OH224146   7.119   0.660   3.474
 8068TIP3    H124147   7.086   0.577   3.440
 8068TIP3    H224148   7.055   0.725   3.448
 8069TIP3   OH224149   4.790   2.234   4.391
 8069TIP3    H124150   4.854   2.279   4.446
 8069TIP3    H224151   4.776   2.294   4.317
 8070TIP3   OH224152   0.779   4.085   3.720
 8070TIP3    H124153   0.703   4.088   3.779
 8070TIP3    H224154   0.741   4.090   3.632
 8071TIP3   OH224155   1.125   2.834   5.574
 8071TIP3    H124156   1.210   2.841   5.616
 8071TIP3    H224157   1.124   2.748   5.533
 8072TIP3   OH224158   7.921   3.823   4.841
 8072TIP3    H124159   7.972   3.800   4.919
 8072TIP3    H224160   7.875   3.742   4.818
 8073TIP3   OH224161   1.579   3.367   2.084
 8073TIP3    H124162   1.662   3.359   2.038
 8073TIP3    H224163   1.513   3.343   2.019
 8074TIP3   OH224164   7.356   6.113   6.274
 8074TIP3    H124165   7.267   6.140   6.252
 8074TIP3    H224166   7.377   6.160   6.355
 8075TIP3   OH224167   4.971   7.502   2.379
 8075TIP3    H124168   5.013   7.561   2.441
 8075TIP3    H224169   4.897   7.552   2.345
 8076TIP3   OH224170   7.951   7.477   3.301
 8076TIP3    H124171   7.911   7.538   3.240
 8076TIP3    H224172   7.913   7.392   3.279
 8077TIP3   OH224173   5.758   3.552   0.864
 8077TIP3    H124174   5.680   3.552   0.808
 8077TIP3    H224175   5.771   3.644   0.887
 8078TIP3   OH224176   3.168   1.406   2.548
 8078TIP3    H124177   3.200   1.407   2.638
 8078TIP3    H224178   3.218   1.336   2.505
 8079TIP3   OH224179   7.833   5.269   1.842
 8079TIP3    H124180   7.748   5.225   1.831
 8079TIP3    H224181   7.896   5.198   1.852
 8080TIP3   OH224182   5.887   3.844   0.984
 8080TIP3    H124183   5.825   3.800   1.042
 8080TIP3    H224184   5.972   3.806   1.007
 8081TIP3   OH224185   5.937   1.799   1.361
 8081TIP3    H124186   5.864   1.860   1.362
 8081TIP3    H224187   5.899   1.715   1.386
 8082TIP3   OH224188   0.039   0.991   0.177
 8082TIP3    H124189  -0.028   0.993   0.245
 8082TIP3    H224190  -0.001   1.035   0.102
 8083TIP3   OH224191   1.581   3.342   0.024
 8083TIP3    H124192   1.618   3.336  -0.064
 8083TIP3    H224193   1.587   3.435   0.046
 8084TIP3   OH224194   8.142   2.689   1.086
 8084TIP3    H124195   8.183   2.654   1.006
 8084TIP3    H224196   8.068   2.631   1.102
 8085TIP3   OH224197   5.936   3.592   0.235
 8085TIP3    H124198   5.921   3.681   0.266
 8085TIP3    H224199   6.026   3.593   0.201
 8086TIP3   OH224200   5.574   6.787   4.234
 8086TIP3    H124201   5.670   6.782   4.226
 8086TIP3    H224202   5.551   6.868   4.190
 8087TIP3   OH224203   7.938   5.766   4.056
 8087TIP3    H124204   7.945   5.837   3.991
 8087TIP3    H224205   8.024   5.725   4.055
 8088TIP3   OH224206   4.564   3.316   0.044
 8088TIP3    H124207   4.528   3.393   0.089
 8088TIP3    H224208   4.498   3.295  -0.022
 8089TIP3   OH224209   6.886   5.609   6.539
 8089TIP3    H124210   6.915   5.562   6.460
 8089TIP3    H224211   6.817   5.667   6.507
 8090TIP3   OH224212   1.824   5.513   5.723
 8090TIP3    H124213   1.747   5.563   5.751
 8090TIP3    H224214   1.884   5.578   5.688
 8091TIP3   OH224215   7.559   4.638   2.440
 8091TIP3    H124216   7.632   4.619   2.380
 8091TIP3    H224217   7.592   4.708   2.496
 8092TIP3   OH224218   7.239   2.743   6.459
 8092TIP3    H124219   7.292   2.780   6.388
 8092TIP3    H224220   7.297   2.745   6.535
 8093TIP3   OH224221   7.908   3.497   6.256
 8093TIP3    H124222   7.865   3.488   6.341
 8093TIP3    H224223   7.919   3.407   6.225
 8094TIP3   OH224224   6.063   3.141   0.726
 8094TIP3    H124225   6.068   3.235   0.744
 8094TIP3    H224226   6.029   3.104   0.808
 8095TIP3   OH224227   4.799   7.048   3.366
 8095TIP3    H124228   4.711   7.075   3.390
 8095TIP3    H224229   4.833   7.004   3.444
 8096TIP3   OH224230   6.822   0.935   2.772
 8096TIP3    H124231   6.884   1.003   2.745
 8096TIP3    H224232   6.798   0.959   2.862
 8097TIP3   OH224233   3.526   6.848   1.125
 8097TIP3    H124234   3.465   6.787   1.082
 8097TIP3    H224235   3.610   6.830   1.083
 8098TIP3   OH224236   5.096   7.521   5.517
 8098TIP3    H124237   5.158   7.465   5.564
 8098TIP3    H224238   5.150   7.571   5.456
 8099TIP3   OH224239   0.518   3.441   2.826
 8099TIP3    H124240   0.606   3.410   2.844
 8099TIP3    H224241   0.494   3.401   2.742
 8100TIP3   OH224242   4.199   1.008   2.501
 8100TIP3    H124243   4.160   1.094   2.508
 8100TIP3    H224244   4.293   1.024   2.490
 8101TIP3   OH224245   6.041   3.427   0.776
 8101TIP3    H124246   6.022   3.440   0.869
 8101TIP3    H224247   5.968   3.469   0.731
 8102TIP3   OH224248   2.686   4.849   4.537
 8102TIP3    H124249   2.703   4.887   4.624
 8102TIP3    H224250   2.766   4.801   4.516
 8103TIP3   OH224251   7.975   4.196   6.258
 8103TIP3    H124252   7.898   4.252   6.267
 8103TIP3    H224253   8.012   4.193   6.347
 8104TIP3   OH224254   6.948   6.378   5.760
 8104TIP3    H124255   6.872   6.415   5.715
 8104TIP3    H224256   7.013   6.364   5.690
 8105TIP3   OH224257   2.927   5.137   4.367
 8105TIP3    H124258   2.990   5.163   4.434
 8105TIP3    H224259   2.842   5.157   4.404
 8106TIP3   OH224260   2.283   7.084   5.851
 8106TIP3    H124261   2.330   7.168   5.855
 8106TIP3    H224262   2.191   7.108   5.850
 8107TIP3   OH224263   7.032   2.734   3.695
 8107TIP3    H124264   7.007   2.657   3.644
 8107TIP3    H224265   7.049   2.700   3.783
 8108TIP3   OH224266   1.862   6.128   0.322
 8108TIP3    H124267   1.912   6.155   0.399
 8108TIP3    H224268   1.774   6.112   0.354
 8109TIP3   OH224269   0.486   0.463   4.908
 8109TIP3    H124270   0.415   0.476   4.845
 8109TIP3    H224271   0.566   0.463   4.854
 8110TIP3   OH224272   4.956   2.900   2.918
 8110TIP3    H124273   4.919   2.902   3.007
 8110TIP3    H224274   5.046   2.932   2.929
 8111TIP3   OH224275   5.212   3.769   1.249
 8111TIP3    H124276   5.130   3.815   1.229
 8111TIP3    H224277   5.281   3.830   1.225
 8112TIP3   OH224278   0.249   2.811   3.551
 8112TIP3    H124279   0.270   2.759   3.628
 8112TIP3    H224280   0.183   2.873   3.580
 8113TIP3   OH224281   6.464   0.264   5.806
 8113TIP3    H124282   6.379   0.223   5.822
 8113TIP3    H224283   6.528   0.199   5.834
 8114TIP3   OH224284   5.345   0.397   1.104
 8114TIP3    H124285   5.338   0.354   1.019
 8114TIP3    H224286   5.318   0.330   1.167
 8115TIP3   OH224287   0.320   4.181   4.078
 8115TIP3    H124288   0.233   4.220   4.079
 8115TIP3    H224289   0.380   4.256   4.079
 8116TIP3   OH224290   6.285   7.127   3.978
 8116TIP3    H124291   6.264   7.220   3.976
 8116TIP3    H224292   6.379   7.123   3.995
 8117TIP3   OH224293   1.443   0.547   0.194
 8117TIP3    H124294   1.399   0.565   0.111
 8117TIP3    H224295   1.395   0.598   0.258
 8118TIP3   OH224296   1.077   1.086   1.527
 8118TIP3    H124297   0.990   1.048   1.514
 8118TIP3    H224298   1.103   1.117   1.441
 8119TIP3   OH224299   4.038   6.749   1.361
 8119TIP3    H124300   4.042   6.663   1.321
 8119TIP3    H224301   4.066   6.735   1.452
 8120TIP3   OH224302   2.463   0.933   4.769
 8120TIP3    H124303   2.495   1.002   4.712
 8120TIP3    H224304   2.368   0.936   4.759
 8121TIP3   OH224305   3.962   3.093   4.451
 8121TIP3    H124306   3.970   3.090   4.546
 8121TIP3    H224307   3.893   3.030   4.430
 8122TIP3   OH224308   4.939   1.687   4.383
 8122TIP3    H124309   4.868   1.633   4.418
 8122TIP3    H224310   4.899   1.773   4.369
 8123TIP3   OH224311   6.970   6.556   2.223
 8123TIP3    H124312   7.009   6.501   2.156
 8123TIP3    H224313   7.044   6.608   2.256
 8124TIP3   OH224314   2.538   4.751   6.339
 8124TIP3    H124315   2.463   4.806   6.318
 8124TIP3    H224316   2.595   4.807   6.392
 8125TIP3   OH224317   3.936   7.175   1.781
 8125TIP3    H124318   3.926   7.271   1.776
 8125TIP3    H224319   3.958   7.158   1.872
 8126TIP3   OH224320   5.912   0.423   2.278
 8126TIP3    H124321   5.875   0.505   2.311
 8126TIP3    H224322   5.877   0.356   2.337
 8127TIP3   OH224323   6.763   2.937   6.370
 8127TIP3    H124324   6.855   2.961   6.381
 8127TIP3    H224325   6.726   3.005   6.314
 8128TIP3   OH224326   0.670  -0.021   3.943
 8128TIP3    H124327   0.664   0.074   3.933
 8128TIP3    H224328   0.764  -0.039   3.939
 8129TIP3   OH224329   7.388   5.501   4.694
 8129TIP3    H124330   7.421   5.586   4.667
 8129TIP3    H224331   7.404   5.498   4.788
 8130TIP3   OH224332   1.582   5.412   2.410
 8130TIP3    H124333   1.651   5.362   2.453
 8130TIP3    H224334   1.560   5.481   2.473
 8131TIP3   OH224335   4.644   0.516   2.428
 8131TIP3    H124336   4.701   0.500   2.503
 8131TIP3    H224337   4.566   0.464   2.446
 8132TIP3   OH224338   4.088   3.252   1.214
 8132TIP3    H124339   4.153   3.181   1.214
 8132TIP3    H224340   4.105   3.300   1.294
 8133TIP3   OH224341   0.464   0.633   6.103
 8133TIP3    H124342   0.558   0.624   6.117
 8133TIP3    H224343   0.452   0.726   6.082
 8134TIP3   OH224344   2.032   6.567   2.133
 8134TIP3    H124345   1.993   6.611   2.057
 8134TIP3    H224346   2.001   6.618   2.208
 8135TIP3   OH224347   1.539   3.383   4.663
 8135TIP3    H124348   1.595   3.336   4.602
 8135TIP3    H224349   1.473   3.319   4.690
 8136TIP3   OH224350   6.363   2.931   1.473
 8136TIP3    H124351   6.326   2.935   1.385
 8136TIP3    H224352   6.443   2.983   1.467
 8137TIP3   OH224353   1.381   3.372   5.307
 8137TIP3    H124354   1.396   3.430   5.232
 8137TIP3    H224355   1.459   3.316   5.309
 8138TIP3   OH224356   3.192   6.635   1.405
 8138TIP3    H124357   3.248   6.712   1.396
 8138TIP3    H224358   3.247   6.570   1.451
 8139TIP3   OH224359   2.917   5.599   5.817
 8139TIP3    H124360   2.841   5.658   5.823
 8139TIP3    H224361   2.969   5.620   5.895
 8140TIP3   OH224362   5.942   4.731   6.577
 8140TIP3    H124363   5.893   4.781   6.512
 8140TIP3    H224364   5.998   4.673   6.525
 8141TIP3   OH224365   8.267   4.159   6.180
 8141TIP3    H124366   8.253   4.069   6.150
 8141TIP3    H224367   8.180   4.190   6.203
 8142TIP3   OH224368   1.287   5.811   6.063
 8142TIP3    H124369   1.336   5.879   6.018
 8142TIP3    H224370   1.207   5.854   6.092
 8143TIP3   OH224371   7.009   6.890   6.322
 8143TIP3    H124372   7.060   6.897   6.241
 8143TIP3    H224373   6.930   6.942   6.306
 8144TIP3   OH224374   2.320   1.135   1.117
 8144TIP3    H124375   2.254   1.104   1.055
 8144TIP3    H224376   2.314   1.074   1.190
 8145TIP3   OH224377   8.151   6.930   0.822
 8145TIP3    H124378   8.125   7.016   0.855
 8145TIP3    H224379   8.133   6.870   0.895
 8146TIP3   OH224380   2.460   1.332   0.371
 8146TIP3    H124381   2.482   1.423   0.350
 8146TIP3    H224382   2.537   1.282   0.343
 8147TIP3   OH224383   6.857   5.787   3.261
 8147TIP3    H124384   6.894   5.855   3.317
 8147TIP3    H224385   6.819   5.723   3.321
 8148TIP3   OH224386   3.355   3.402   1.482
 8148TIP3    H124387   3.339   3.416   1.388
 8148TIP3    H224388   3.429   3.459   1.502
 8149TIP3   OH224389   0.789   5.991   6.554
 8149TIP3    H124390   0.722   5.947   6.502
 8149TIP3    H224391   0.779   5.954   6.642
 8150TIP3   OH224392   2.513   3.196   1.275
 8150TIP3    H124393   2.491   3.110   1.311
 8150TIP3    H224394   2.432   3.246   1.282
 8151TIP3   OH224395   3.337   7.175   4.367
 8151TIP3    H124396   3.403   7.183   4.298
 8151TIP3    H224397   3.383   7.196   4.448
 8152TIP3   OH224398   6.142   5.036   3.488
 8152TIP3    H124399   6.058   5.073   3.518
 8152TIP3    H224400   6.118   4.978   3.416
 8153TIP3   OH224401   7.434   1.595   0.884
 8153TIP3    H124402   7.462   1.563   0.798
 8153TIP3    H224403   7.516   1.614   0.930
 8154TIP3   OH224404   1.797   7.794   3.861
 8154TIP3    H124405   1.824   7.788   3.952
 8154TIP3    H224406   1.701   7.788   3.865
 8155TIP3   OH224407   7.316   3.347   2.627
 8155TIP3    H124408   7.406   3.381   2.625
 8155TIP3    H224409   7.300   3.326   2.720
 8156TIP3   OH224410   1.355   7.566   1.017
 8156TIP3    H124411   1.274   7.524   0.987
 8156TIP3    H224412   1.417   7.494   1.029
 8157TIP3   OH224413   0.802   6.052   3.084
 8157TIP3    H124414   0.761   6.137   3.071
 8157TIP3    H224415   0.819   6.020   2.995
 8158TIP3   OH224416   5.172   6.137   0.485
 8158TIP3    H124417   5.132   6.058   0.522
 8158TIP3    H224418   5.266   6.121   0.489
 8159TIP3   OH224419   0.204   3.939   5.932
 8159TIP3    H124420   0.169   4.023   5.961
 8159TIP3    H224421   0.250   3.959   5.850
 8160TIP3   OH224422   1.665   7.515   4.938
 8160TIP3    H124423   1.664   7.563   5.021
 8160TIP3    H224424   1.577   7.479   4.929
 8161TIP3   OH224425   2.646   2.283   5.738
 8161TIP3    H124426   2.642   2.379   5.737
 8161TIP3    H224427   2.586   2.258   5.809
 8162TIP3   OH224428   1.115   4.066   4.458
 8162TIP3    H124429   1.179   4.104   4.518
 8162TIP3    H224430   1.079   3.991   4.506
 8163TIP3   OH224431   1.880   1.777   6.545
 8163TIP3    H124432   1.799   1.744   6.585
 8163TIP3    H224433   1.938   1.701   6.541
 8164TIP3   OH224434   1.766   5.422   5.991
 8164TIP3    H124435   1.801   5.462   5.911
 8164TIP3    H224436   1.817   5.342   6.002
 8165TIP3   OH224437   7.723   6.676   3.109
 8165TIP3    H124438   7.780   6.748   3.138
 8165TIP3    H224439   7.771   6.597   3.131
 8166TIP3   OH224440   1.692   3.246   4.441
 8166TIP3    H124441   1.739   3.203   4.369
 8166TIP3    H224442   1.758   3.300   4.483
 8167TIP3   OH224443   1.584   2.949   6.342
 8167TIP3    H124444   1.557   3.033   6.380
 8167TIP3    H224445   1.564   2.957   6.249
 8168TIP3   OH224446   6.059   4.302   0.910
 8168TIP3    H124447   6.153   4.319   0.918
 8168TIP3    H224448   6.047   4.271   0.821
 8169TIP3   OH224449   4.511   7.572   6.691
 8169TIP3    H124450   4.568   7.506   6.732
 8169TIP3    H224451   4.550   7.655   6.716
 8170TIP3   OH224452   3.694   7.159   0.430
 8170TIP3    H124453   3.786   7.156   0.406
 8170TIP3    H224454   3.692   7.133   0.522
 8171TIP3   OH224455   2.373   3.424   5.476
 8171TIP3    H124456   2.280   3.428   5.501
 8171TIP3    H224457   2.371   3.412   5.381
 8172TIP3   OH224458   6.703   0.628   6.473
 8172TIP3    H124459   6.746   0.649   6.556
 8172TIP3    H224460   6.616   0.669   6.481
 8173TIP3   OH224461   7.936   5.825   6.265
 8173TIP3    H124462   7.929   5.873   6.348
 8173TIP3    H224463   7.846   5.812   6.236
 8174TIP3   OH224464   6.186   3.985   4.966
 8174TIP3    H124465   6.140   3.908   4.932
 8174TIP3    H224466   6.257   4.000   4.904
 8175TIP3   OH224467   6.240   0.848   4.300
 8175TIP3    H124468   6.274   0.760   4.316
 8175TIP3    H224469   6.253   0.894   4.384
 8176TIP3   OH224470   4.831   6.503   4.660
 8176TIP3    H124471   4.903   6.468   4.712
 8176TIP3    H224472   4.752   6.470   4.702
 8177TIP3   OH224473   4.265   4.600   5.532
 8177TIP3    H124474   4.202   4.651   5.482
 8177TIP3    H224475   4.251   4.510   5.503
 8178TIP3   OH224476   6.334   7.045   6.196
 8178TIP3    H124477   6.265   7.084   6.251
 8178TIP3    H224478   6.408   7.033   6.256
 8179TIP3   OH224479   1.707   6.547   3.048
 8179TIP3    H124480   1.706   6.561   2.954
 8179TIP3    H224481   1.677   6.457   3.059
 8180TIP3   OH224482   0.668   4.258   4.111
 8180TIP3    H124483   0.686   4.348   4.135
 8180TIP3    H224484   0.742   4.208   4.145
 8181TIP3   OH224485   2.760   6.409   3.457
 8181TIP3    H124486   2.715   6.484   3.497
 8181TIP3    H224487   2.849   6.440   3.442
 8182TIP3   OH224488   3.637   1.056   0.856
 8182TIP3    H124489   3.565   1.102   0.812
 8182TIP3    H224490   3.701   1.125   0.876
 8183TIP3   OH224491   5.637   0.668   0.242
 8183TIP3    H124492   5.669   0.651   0.153
 8183TIP3    H224493   5.615   0.761   0.242
 8184TIP3   OH224494   0.617   0.208   4.548
 8184TIP3    H124495   0.664   0.128   4.526
 8184TIP3    H224496   0.614   0.209   4.643
 8185TIP3   OH224497   4.493   5.329   5.908
 8185TIP3    H124498   4.583   5.301   5.925
 8185TIP3    H224499   4.480   5.406   5.964
 8186TIP3   OH224500   7.894   3.643   3.427
 8186TIP3    H124501   7.874   3.651   3.334
 8186TIP3    H224502   7.895   3.732   3.460
 8187TIP3   OH224503   6.913   2.270   1.203
 8187TIP3    H124504   6.964   2.236   1.129
 8187TIP3    H224505   6.822   2.263   1.174
 8188TIP3   OH224506   1.042   2.086   0.061
 8188TIP3    H124507   1.130   2.062   0.030
 8188TIP3    H224508   1.050   2.179   0.085
 8189TIP3   OH224509   4.503   2.663   2.370
 8189TIP3    H124510   4.590   2.701   2.378
 8189TIP3    H224511   4.446   2.738   2.350
 8190TIP3   OH224512   4.313   7.605   5.004
 8190TIP3    H124513   4.255   7.660   5.057
 8190TIP3    H224514   4.283   7.516   5.021
 8191TIP3   OH224515   0.264   5.273   5.423
 8191TIP3    H124516   0.278   5.203   5.487
 8191TIP3    H224517   0.271   5.354   5.475
 8192TIP3   OH224518   5.708   6.391   4.872
 8192TIP3    H124519   5.667   6.317   4.827
 8192TIP3    H224520   5.689   6.467   4.817
 8193TIP3   OH224521   1.002   1.159   0.251
 8193TIP3    H124522   0.947   1.084   0.231
 8193TIP3    H224523   0.962   1.232   0.204
 8194TIP3   OH224524   7.761   4.805   4.314
 8194TIP3    H124525   7.787   4.792   4.222
 8194TIP3    H224526   7.764   4.900   4.326
 8195TIP3   OH224527   5.611   4.675   2.567
 8195TIP3    H124528   5.656   4.759   2.568
 8195TIP3    H224529   5.678   4.613   2.536
 8196TIP3   OH224530   1.537   1.264   0.186
 8196TIP3    H124531   1.446   1.270   0.213
 8196TIP3    H224532   1.583   1.231   0.263
 8197TIP3   OH224533   3.139   1.835   3.024
 8197TIP3    H124534   3.062   1.878   3.060
 8197TIP3    H224535   3.126   1.837   2.929
 8198TIP3   OH224536   3.451   5.398   4.448
 8198TIP3    H124537   3.487   5.417   4.361
 8198TIP3    H224538   3.375   5.456   4.455
 8199TIP3   OH224539   1.384   6.235   4.863
 8199TIP3    H124540   1.463   6.184   4.877
 8199TIP3    H224541   1.402   6.319   4.905
 8200TIP3   OH224542   5.450   3.628   0.950
 8200TIP3    H124543   5.354   3.626   0.953
 8200TIP3    H224544   5.471   3.639   0.857
 8201TIP3   OH224545   1.378   5.944   1.585
 8201TIP3    H124546   1.439   5.886   1.629
 8201TIP3    H224547   1.305   5.888   1.559
 8202TIP3   OH224548   6.612   2.241   4.650
 8202TIP3    H124549   6.652   2.211   4.731
 8202TIP3    H224550   6.518   2.239   4.668
 8203TIP3   OH224551   2.757   7.115   2.160
 8203TIP3    H124552   2.674   7.100   2.116
 8203TIP3    H224553   2.763   7.046   2.225
 8204TIP3   OH224554   4.831   3.153   4.436
 8204TIP3    H124555   4.756   3.164   4.494
 8204TIP3    H224556   4.818   3.067   4.397
 8205TIP3   OH224557   3.009   2.218   1.044
 8205TIP3    H124558   2.943   2.190   1.108
 8205TIP3    H224559   3.004   2.151   0.975
 8206TIP3   OH224560   5.871   5.674   0.103
 8206TIP3    H124561   5.859   5.754   0.052
 8206TIP3    H224562   5.811   5.683   0.177
 8207TIP3   OH224563   5.306   4.981   2.805
 8207TIP3    H124564   5.397   5.004   2.822
 8207TIP3    H224565   5.303   4.886   2.816
 8208TIP3   OH224566   3.402   3.056   3.473
 8208TIP3    H124567   3.341   3.019   3.409
 8208TIP3    H224568   3.347   3.100   3.537
 8209TIP3   OH224569   6.122   7.747   5.630
 8209TIP3    H124570   6.132   7.747   5.535
 8209TIP3    H224571   6.206   7.715   5.663
 8210TIP3   OH224572   0.913   2.937   2.638
 8210TIP3    H124573   0.971   2.987   2.694
 8210TIP3    H224574   0.848   3.001   2.607
 8211TIP3   OH224575   5.206   1.383   3.433
 8211TIP3    H124576   5.262   1.441   3.381
 8211TIP3    H224577   5.121   1.428   3.436
 8212TIP3   OH224578   5.567   0.108   5.363
 8212TIP3    H124579   5.517   0.143   5.437
 8212TIP3    H224580   5.502   0.095   5.294
 8213TIP3   OH224581   2.063   7.791   0.707
 8213TIP3    H124582   1.977   7.831   0.695
 8213TIP3    H224583   2.098   7.832   0.787
 8214TIP3   OH224584   3.577   3.349   4.367
 8214TIP3    H124585   3.613   3.301   4.292
 8214TIP3    H224586   3.649   3.405   4.397
 8215TIP3   OH224587   7.268   1.790   2.993
 8215TIP3    H124588   7.354   1.806   2.954
 8215TIP3    H224589   7.211   1.854   2.952
 8216TIP3   OH224590   8.173   2.504   2.259
 8216TIP3    H124591   8.181   2.434   2.195
 8216TIP3    H224592   8.238   2.569   2.232
 8217TIP3   OH224593   7.268   0.207   0.241
 8217TIP3    H124594   7.314   0.264   0.179
 8217TIP3    H224595   7.199   0.166   0.190
 8218TIP3   OH224596   1.165   0.821   1.580
 8218TIP3    H124597   1.088   0.764   1.579
 8218TIP3    H224598   1.133   0.905   1.545
 8219TIP3   OH224599   7.612   6.719   6.342
 8219TIP3    H124600   7.547   6.732   6.411
 8219TIP3    H224601   7.667   6.647   6.373
 8220TIP3   OH224602   5.467   7.201   5.819
 8220TIP3    H124603   5.410   7.128   5.844
 8220TIP3    H224604   5.495   7.240   5.902
 8221TIP3   OH224605   7.987   5.486   4.137
 8221TIP3    H124606   7.946   5.480   4.051
 8221TIP3    H224607   8.064   5.542   4.124
 8222TIP3   OH224608   0.941   2.439   5.414
 8222TIP3    H124609   0.872   2.467   5.474
 8222TIP3    H224610   1.023   2.457   5.459
 8223TIP3   OH224611   5.932   6.685   5.071
 8223TIP3    H124612   5.966   6.774   5.062
 8223TIP3    H224613   5.978   6.635   5.004
 8224TIP3   OH224614   8.139   3.456   5.941
 8224TIP3    H124615   8.208   3.420   5.997
 8224TIP3    H224616   8.151   3.413   5.857
 8225TIP3   OH224617   5.088   5.487   1.591
 8225TIP3    H124618   5.004   5.529   1.570
 8225TIP3    H224619   5.148   5.516   1.522
 8226TIP3   OH224620   0.547   1.966   1.289
 8226TIP3    H124621   0.493   2.002   1.359
 8226TIP3    H224622   0.529   2.023   1.214
 8227TIP3   OH224623   3.283   6.061   3.302
 8227TIP3    H124624   3.233   6.140   3.283
 8227TIP3    H224625   3.287   6.058   3.398
 8228TIP3   OH224626   5.465   3.051   6.235
 8228TIP3    H124627   5.437   3.113   6.168
 8228TIP3    H224628   5.418   3.078   6.314
 8229TIP3   OH224629   8.023   1.519   1.511
 8229TIP3    H124630   8.061   1.608   1.515
 8229TIP3    H224631   7.972   1.511   1.591
 8230TIP3   OH224632   4.036   3.020   1.623
 8230TIP3    H124633   4.000   3.101   1.586
 8230TIP3    H224634   3.977   2.998   1.695
 8231TIP3   OH224635   3.408   0.414   6.365
 8231TIP3    H124636   3.500   0.439   6.361
 8231TIP3    H224637   3.399   0.365   6.447
 8232TIP3   OH224638   4.023   0.849   1.532
 8232TIP3    H124639   4.039   0.757   1.556
 8232TIP3    H224640   4.108   0.881   1.503
 8233TIP3   OH224641   3.364   7.234   6.203
 8233TIP3    H124642   3.355   7.146   6.168
 8233TIP3    H224643   3.458   7.248   6.211
 8234TIP3   OH224644   3.466   3.158   4.748
 8234TIP3    H124645   3.429   3.216   4.683
 8234TIP3    H224646   3.452   3.070   4.713
 8235TIP3   OH224647   4.944   6.215   1.511
 8235TIP3    H124648   5.033   6.244   1.526
 8235TIP3    H224649   4.949   6.119   1.514
 8236TIP3   OH224650   4.157   0.891   5.761
 8236TIP3    H124651   4.121   0.963   5.709
 8236TIP3    H224652   4.240   0.871   5.719
 8237TIP3   OH224653   0.115   4.420   4.207
 8237TIP3    H124654   0.050   4.490   4.221
 8237TIP3    H224655   0.158   4.445   4.125
 8238TIP3   OH224656   4.087   6.513   5.639
 8238TIP3    H124657   4.107   6.498   5.731
 8238TIP3    H224658   4.171   6.532   5.598
 8239TIP3   OH224659   2.388   7.086   5.055
 8239TIP3    H124660   2.385   7.074   4.960
 8239TIP3    H224661   2.457   7.027   5.085
 8240TIP3   OH224662   4.743   7.016   0.642
 8240TIP3    H124663   4.835   6.996   0.626
 8240TIP3    H224664   4.744   7.095   0.696
 8241TIP3   OH224665   1.375   3.501   1.978
 8241TIP3    H124666   1.372   3.596   1.986
 8241TIP3    H224667   1.378   3.485   1.884
 8242TIP3   OH224668   5.998   0.413   0.511
 8242TIP3    H124669   6.006   0.426   0.605
 8242TIP3    H224670   5.925   0.469   0.484
 8243TIP3   OH224671   4.442   6.709   4.918
 8243TIP3    H124672   4.396   6.685   4.837
 8243TIP3    H224673   4.516   6.649   4.922
 8244TIP3   OH224674   7.746   1.791   6.661
 8244TIP3    H124675   7.804   1.768   6.733
 8244TIP3    H224676   7.658   1.778   6.696
 8245TIP3   OH224677   3.994   1.131   4.871
 8245TIP3    H124678   3.933   1.188   4.825
 8245TIP3    H224679   4.076   1.138   4.823
 8246TIP3   OH224680   3.655   2.455   1.777
 8246TIP3    H124681   3.595   2.462   1.702
 8246TIP3    H224682   3.739   2.430   1.738
 8247TIP3   OH224683   4.720   0.195   0.504
 8247TIP3    H124684   4.658   0.262   0.475
 8247TIP3    H224685   4.688   0.169   0.590
 8248TIP3   OH224686   2.908   5.889   6.366
 8248TIP3    H124687   2.874   5.800   6.379
 8248TIP3    H224688   2.865   5.920   6.286
 8249TIP3   OH224689   3.385   7.221   5.864
 8249TIP3    H124690   3.339   7.267   5.934
 8249TIP3    H224691   3.436   7.154   5.909
 8250TIP3   OH224692   6.859   6.047   1.679
 8250TIP3    H124693   6.949   6.018   1.666
 8250TIP3    H224694   6.814   6.024   1.598
 8251TIP3   OH224695   3.431   2.475   1.597
 8251TIP3    H124696   3.379   2.450   1.520
 8251TIP3    H224697   3.367   2.508   1.659
 8252TIP3   OH224698   3.465   7.271   3.805
 8252TIP3    H124699   3.415   7.353   3.796
 8252TIP3    H224700   3.516   7.266   3.724
 8253TIP3   OH224701   8.186   5.259   3.132
 8253TIP3    H124702   8.222   5.175   3.160
 8253TIP3    H224703   8.261   5.317   3.128
 8254TIP3   OH224704   4.585   1.525   0.243
 8254TIP3    H124705   4.578   1.494   0.153
 8254TIP3    H224706   4.596   1.620   0.236
 8255TIP3   OH224707   0.531   2.974   1.458
 8255TIP3    H124708   0.505   3.065   1.473
 8255TIP3    H224709   0.464   2.939   1.401
 8256TIP3   OH224710   5.987   1.827   0.903
 8256TIP3    H124711   6.024   1.739   0.909
 8256TIP3    H224712   5.962   1.837   0.811
 8257TIP3   OH224713   8.125   1.804   3.241
 8257TIP3    H124714   8.107   1.738   3.308
 8257TIP3    H224715   8.193   1.859   3.280
 8258TIP3   OH224716   7.745   5.859   2.914
 8258TIP3    H124717   7.796   5.789   2.873
 8258TIP3    H224718   7.769   5.855   3.006
 8259TIP3   OH224719   6.482   4.724  -0.028
 8259TIP3    H124720   6.560   4.669  -0.032
 8259TIP3    H224721   6.458   4.726   0.065
 8260TIP3   OH224722   0.898   4.443   4.882
 8260TIP3    H124723   0.833   4.405   4.823
 8260TIP3    H224724   0.982   4.429   4.838
 8261TIP3   OH224725   6.559   6.365   5.776
 8261TIP3    H124726   6.614   6.426   5.726
 8261TIP3    H224727   6.479   6.414   5.794
 8262TIP3   OH224728   6.751   2.582   3.013
 8262TIP3    H124729   6.815   2.512   3.028
 8262TIP3    H224730   6.777   2.619   2.928
 8263TIP3   OH224731   1.800   5.430   0.957
 8263TIP3    H124732   1.792   5.498   0.890
 8263TIP3    H224733   1.727   5.370   0.939
 8264TIP3   OH224734   1.231   2.934   0.984
 8264TIP3    H124735   1.145   2.898   1.005
 8264TIP3    H224736   1.274   2.947   1.068
 8265TIP3   OH224737   1.868   4.552   0.664
 8265TIP3    H124738   1.955   4.541   0.628
 8265TIP3    H224739   1.881   4.600   0.746
 8266TIP3   OH224740   2.018   6.305   3.723
 8266TIP3    H124741   2.112   6.315   3.735
 8266TIP3    H224742   1.981   6.387   3.756
 8267TIP3   OH224743   3.001   0.056   2.546
 8267TIP3    H124744   3.001  -0.003   2.622
 8267TIP3    H224745   3.065   0.123   2.568
 8268TIP3   OH224746   5.359   4.076   0.161
 8268TIP3    H124747   5.275   4.055   0.201
 8268TIP3    H224748   5.335   4.122   0.080
 8269TIP3   OH224749   2.873   4.510   0.644
 8269TIP3    H124750   2.822   4.591   0.640
 8269TIP3    H224751   2.836   4.454   0.576
 8270TIP3   OH224752   7.165   1.404   0.502
 8270TIP3    H124753   7.108   1.327   0.505
 8270TIP3    H224754   7.221   1.396   0.579
 8271TIP3   OH224755   5.725   2.883   3.669
 8271TIP3    H124756   5.801   2.837   3.706
 8271TIP3    H224757   5.694   2.826   3.599
 8272TIP3   OH224758   5.182   1.116   6.447
 8272TIP3    H124759   5.103   1.160   6.417
 8272TIP3    H224760   5.236   1.108   6.369
 8273TIP3   OH224761   7.418   5.832   0.495
 8273TIP3    H124762   7.466   5.768   0.442
 8273TIP3    H224763   7.460   5.916   0.474
 8274TIP3   OH224764   5.522   1.806   3.289
 8274TIP3    H124765   5.464   1.822   3.363
 8274TIP3    H224766   5.591   1.749   3.324
 8275TIP3   OH224767   0.580   3.593   6.557
 8275TIP3    H124768   0.633   3.673   6.560
 8275TIP3    H224769   0.491   3.623   6.576
 8276TIP3   OH224770   6.163   0.153   5.747
 8276TIP3    H124771   6.158   0.191   5.660
 8276TIP3    H224772   6.095   0.085   5.748
 8277TIP3   OH224773   8.013   4.052   6.752
 8277TIP3    H124774   8.103   4.086   6.758
 8277TIP3    H224775   7.959   4.131   6.746
 8278TIP3   OH224776   3.982   6.125   4.413
 8278TIP3    H124777   3.967   6.118   4.319
 8278TIP3    H224778   4.070   6.092   4.426
 8279TIP3   OH224779   4.109   4.175   4.870
 8279TIP3    H124780   4.149   4.245   4.922
 8279TIP3    H224781   4.059   4.221   4.802
 8280TIP3   OH224782   7.767   5.080   3.027
 8280TIP3    H124783   7.753   5.144   2.958
 8280TIP3    H224784   7.747   5.127   3.108
 8281TIP3   OH224785   0.929   4.654   3.019
 8281TIP3    H124786   0.951   4.650   3.112
 8281TIP3    H224787   0.973   4.732   2.987
 8282TIP3   OH224788   2.380   0.136   5.645
 8282TIP3    H124789   2.462   0.182   5.622
 8282TIP3    H224790   2.368   0.155   5.738
 8283TIP3   OH224791   3.320   5.826   0.667
 8283TIP3    H124792   3.295   5.804   0.757
 8283TIP3    H224793   3.267   5.769   0.613
 8284TIP3   OH224794   6.821   4.122   0.490
 8284TIP3    H124795   6.891   4.149   0.549
 8284TIP3    H224796   6.795   4.035   0.521
 8285TIP3   OH224797   1.649   6.719   4.206
 8285TIP3    H124798   1.698   6.686   4.131
 8285TIP3    H224799   1.715   6.732   4.274
 8286TIP3   OH224800   4.257   0.903   1.375
 8286TIP3    H124801   4.291   0.867   1.293
 8286TIP3    H224802   4.308   0.982   1.390
 8287TIP3   OH224803   1.131   7.453   3.831
 8287TIP3    H124804   1.118   7.393   3.904
 8287TIP3    H224805   1.086   7.533   3.857
 8288TIP3   OH224806   1.308   3.528   0.052
 8288TIP3    H124807   1.246   3.540   0.124
 8288TIP3    H224808   1.394   3.543   0.091
 8289TIP3   OH224809   0.287   1.926   6.440
 8289TIP3    H124810   0.286   1.962   6.529
 8289TIP3    H224811   0.354   1.976   6.394
 8290TIP3   OH224812   0.511   3.321   4.462
 8290TIP3    H124813   0.603   3.295   4.463
 8290TIP3    H224814   0.510   3.407   4.504
 8291TIP3   OH224815   2.830   6.032   2.512
 8291TIP3    H124816   2.851   5.957   2.567
 8291TIP3    H224817   2.908   6.046   2.459
 8292TIP3   OH224818   2.720   0.574   3.540
 8292TIP3    H124819   2.714   0.636   3.612
 8292TIP3    H224820   2.810   0.583   3.508
 8293TIP3   OH224821   4.725   6.554   3.124
 8293TIP3    H124822   4.743   6.481   3.183
 8293TIP3    H224823   4.635   6.537   3.094
 8294TIP3   OH224824   0.725   4.721   0.278
 8294TIP3    H124825   0.741   4.808   0.315
 8294TIP3    H224826   0.729   4.662   0.353
 8295TIP3   OH224827   6.461   2.734   6.633
 8295TIP3    H124828   6.533   2.674   6.612
 8295TIP3    H224829   6.417   2.694   6.708
 8296TIP3   OH224830   7.867   2.506   3.264
 8296TIP3    H124831   7.908   2.434   3.313
 8296TIP3    H224832   7.937   2.568   3.250
 8297TIP3   OH224833   0.404   4.878   2.736
 8297TIP3    H124834   0.319   4.854   2.772
 8297TIP3    H224835   0.407   4.974   2.745
 8298TIP3   OH224836   4.767   0.357   4.694
 8298TIP3    H124837   4.819   0.351   4.774
 8298TIP3    H224838   4.767   0.450   4.673
 8299TIP3   OH224839   0.619   6.451   1.114
 8299TIP3    H124840   0.525   6.438   1.102
 8299TIP3    H224841   0.651   6.476   1.027
 8300TIP3   OH224842   5.396   1.962   0.652
 8300TIP3    H124843   5.365   1.877   0.684
 8300TIP3    H224844   5.375   2.023   0.722
 8301TIP3   OH224845   2.630   6.543   5.147
 8301TIP3    H124846   2.665   6.592   5.221
 8301TIP3    H224847   2.707   6.504   5.106
 8302TIP3   OH224848   5.128   5.753   3.056
 8302TIP3    H124849   5.176   5.683   3.100
 8302TIP3    H224850   5.196   5.816   3.029
 8303TIP3   OH224851   3.025   1.256   0.171
 8303TIP3    H124852   3.105   1.270   0.222
 8303TIP3    H224853   3.032   1.318   0.098
 8304TIP3   OH224854   7.647   4.230   5.337
 8304TIP3    H124855   7.708   4.212   5.265
 8304TIP3    H224856   7.601   4.147   5.351
 8305TIP3   OH224857   5.620   1.629   3.491
 8305TIP3    H124858   5.543   1.673   3.528
 8305TIP3    H224859   5.695   1.674   3.530
 8306TIP3   OH224860   3.481   7.769   6.573
 8306TIP3    H124861   3.531   7.763   6.491
 8306TIP3    H224862   3.488   7.682   6.611
 8307TIP3   OH224863   4.485   4.784   1.523
 8307TIP3    H124864   4.579   4.799   1.528
 8307TIP3    H224865   4.460   4.756   1.611
 8308TIP3   OH224866   5.834   4.222   1.896
 8308TIP3    H124867   5.809   4.237   1.805
 8308TIP3    H224868   5.807   4.132   1.914
 8309TIP3   OH224869   6.252   4.660   1.661
 8309TIP3    H124870   6.313   4.718   1.705
 8309TIP3    H224871   6.200   4.621   1.732
 8310TIP3   OH224872   4.666   3.920   1.430
 8310TIP3    H124873   4.672   3.952   1.520
 8310TIP3    H224874   4.741   3.861   1.420
 8311TIP3   OH224875   2.529   0.912   0.837
 8311TIP3    H124876   2.520   0.970   0.761
 8311TIP3    H224877   2.498   0.964   0.911
 8312TIP3   OH224878   6.406   2.535   6.401
 8312TIP3    H124879   6.395   2.569   6.312
 8312TIP3    H224880   6.493   2.566   6.427
 8313TIP3   OH224881   7.517   1.208   1.428
 8313TIP3    H124882   7.575   1.267   1.379
 8313TIP3    H224883   7.439   1.200   1.373
 8314TIP3   OH224884   1.982   5.219   3.425
 8314TIP3    H124885   1.991   5.128   3.454
 8314TIP3    H224886   1.895   5.245   3.455
 8315TIP3   OH224887   5.981   5.354   1.962
 8315TIP3    H124888   6.001   5.371   2.054
 8315TIP3    H224889   6.067   5.356   1.918
 8316TIP3   OH224890   4.867   0.292   4.338
 8316TIP3    H124891   4.875   0.234   4.262
 8316TIP3    H224892   4.842   0.234   4.410
 8317TIP3   OH224893   8.190   3.605   0.210
 8317TIP3    H124894   8.219   3.646   0.129
 8317TIP3    H224895   8.268   3.607   0.266
 8318TIP3   OH224896   6.497   1.242   2.525
 8318TIP3    H124897   6.402   1.240   2.543
 8318TIP3    H224898   6.510   1.173   2.461
 8319TIP3   OH224899   7.214   5.564   0.998
 8319TIP3    H124900   7.197   5.586   0.906
 8319TIP3    H224901   7.307   5.582   1.010
 8320TIP3   OH224902   6.819   1.063   2.018
 8320TIP3    H124903   6.798   0.975   2.048
 8320TIP3    H224904   6.744   1.090   1.965
 8321TIP3   OH224905   6.910   4.598   1.983
 8321TIP3    H124906   6.992   4.627   2.023
 8321TIP3    H224907   6.897   4.509   2.016
 8322TIP3   OH224908   6.026   1.141   6.036
 8322TIP3    H124909   6.048   1.216   6.091
 8322TIP3    H224910   5.947   1.167   5.989
 8323TIP3   OH224911   2.777   4.082   1.329
 8323TIP3    H124912   2.750   4.155   1.273
 8323TIP3    H224913   2.697   4.054   1.374
 8324TIP3   OH224914   5.008   4.674   5.798
 8324TIP3    H124915   4.939   4.732   5.829
 8324TIP3    H224916   5.089   4.723   5.812
 8325TIP3   OH224917   3.187   5.848   5.295
 8325TIP3    H124918   3.114   5.900   5.329
 8325TIP3    H224919   3.243   5.912   5.251
 8326TIP3   OH224920   1.254   0.025   4.748
 8326TIP3    H124921   1.306   0.093   4.790
 8326TIP3    H224922   1.281   0.028   4.656
 8327TIP3   OH224923   6.117   4.199   3.581
 8327TIP3    H124924   6.087   4.127   3.526
 8327TIP3    H224925   6.069   4.275   3.549
 8328TIP3   OH224926   1.498   6.732   6.108
 8328TIP3    H124927   1.441   6.751   6.033
 8328TIP3    H224928   1.461   6.785   6.179
 8329TIP3   OH224929   3.445   3.721   2.249
 8329TIP3    H124930   3.375   3.678   2.298
 8329TIP3    H224931   3.479   3.788   2.309
 8330TIP3   OH224932   4.349   7.652   6.378
 8330TIP3    H124933   4.310   7.642   6.465
 8330TIP3    H224934   4.400   7.733   6.383
 8331TIP3   OH224935   6.735   7.288   2.829
 8331TIP3    H124936   6.817   7.292   2.878
 8331TIP3    H224937   6.678   7.352   2.873
 8332TIP3   OH224938   6.432   0.461   6.736
 8332TIP3    H124939   6.371   0.411   6.681
 8332TIP3    H224940   6.442   0.544   6.691
 8333TIP3   OH224941   6.499   3.654   6.467
 8333TIP3    H124942   6.475   3.726   6.525
 8333TIP3    H224943   6.418   3.605   6.454
 8334TIP3   OH224944   3.302   2.434   4.129
 8334TIP3    H124945   3.287   2.404   4.039
 8334TIP3    H224946   3.359   2.510   4.120
 8335TIP3   OH224947   4.895   5.970   5.828
 8335TIP3    H124948   4.945   6.014   5.897
 8335TIP3    H224949   4.918   6.017   5.748
 8336TIP3   OH224950   6.419   5.269   4.665
 8336TIP3    H124951   6.504   5.230   4.686
 8336TIP3    H224952   6.399   5.325   4.740
 8337TIP3   OH224953   5.154   1.070   5.978
 8337TIP3    H124954   5.234   1.106   6.015
 8337TIP3    H224955   5.182   0.994   5.927
 8338TIP3   OH224956   7.542   4.108   0.333
 8338TIP3    H124957   7.562   4.120   0.240
 8338TIP3    H224958   7.625   4.079   0.371
 8339TIP3   OH224959   0.563   1.214   1.496
 8339TIP3    H124960   0.656   1.240   1.491
 8339TIP3    H224961   0.560   1.128   1.455
 8340TIP3   OH224962   4.572   7.440   2.057
 8340TIP3    H124963   4.509   7.511   2.051
 8340TIP3    H224964   4.594   7.434   2.150
 8341TIP3   OH224965   0.060   1.057   1.286
 8341TIP3    H124966   0.013   1.078   1.366
 8341TIP3    H224967   0.019   1.113   1.219
 8342TIP3   OH224968   7.562   2.439   1.922
 8342TIP3    H124969   7.512   2.516   1.951
 8342TIP3    H224970   7.631   2.429   1.987
 8343TIP3   OH224971   3.200   4.399   5.542
 8343TIP3    H124972   3.252   4.416   5.463
 8343TIP3    H224973   3.110   4.392   5.510
 8344TIP3   OH224974   5.952   3.407   5.096
 8344TIP3    H124975   5.947   3.501   5.078
 8344TIP3    H224976   6.022   3.376   5.038
 8345TIP3   OH224977   2.472   0.313   2.672
 8345TIP3    H124978   2.442   0.322   2.582
 8345TIP3    H224979   2.562   0.347   2.670
 8346TIP3   OH224980   6.684   4.066   4.065
 8346TIP3    H124981   6.607   4.121   4.049
 8346TIP3    H224982   6.718   4.097   4.149
 8347TIP3   OH224983   6.349   5.231   5.181
 8347TIP3    H124984   6.337   5.275   5.097
 8347TIP3    H224985   6.419   5.167   5.165
 8348TIP3   OH224986   6.286   4.159   4.328
 8348TIP3    H124987   6.380   4.170   4.336
 8348TIP3    H224988   6.273   4.064   4.327
 8349TIP3   OH224989   6.709   6.683   4.523
 8349TIP3    H124990   6.621   6.697   4.488
 8349TIP3    H224991   6.760   6.756   4.489
 8350TIP3   OH224992   2.048   2.377   6.018
 8350TIP3    H124993   2.017   2.320   6.089
 8350TIP3    H224994   2.052   2.464   6.058
 8351TIP3   OH224995   1.507   2.429   1.276
 8351TIP3    H124996   1.500   2.354   1.335
 8351TIP3    H224997   1.476   2.396   1.192
 8352TIP3   OH224998   4.953   7.132   1.981
 8352TIP3    H124999   4.966   7.101   2.071
 8352TIP3    H225000   5.023   7.195   1.966
 8353TIP3   OH225001   0.854   4.455   5.494
 8353TIP3    H125002   0.881   4.477   5.404
 8353TIP3    H225003   0.918   4.389   5.522
 8354TIP3   OH225004   3.497   1.716   2.891
 8354TIP3    H125005   3.498   1.780   2.819
 8354TIP3    H225006   3.490   1.770   2.970
 8355TIP3   OH225007   8.020   6.660   2.687
 8355TIP3    H125008   7.988   6.741   2.646
 8355TIP3    H225009   7.943   6.604   2.694
 8356TIP3   OH225010   5.834   0.317   4.134
 8356TIP3    H125011   5.888   0.245   4.100
 8356TIP3    H225012   5.866   0.395   4.089
 8357TIP3   OH225013   2.655   2.837   5.035
 8357TIP3    H125014   2.602   2.912   5.010
 8357TIP3    H225015   2.734   2.874   5.075
 8358TIP3   OH225016   4.463   4.053   1.643
 8358TIP3    H125017   4.553   4.085   1.653
 8358TIP3    H225018   4.421   4.117   1.585
 8359TIP3   OH225019   1.066   1.803   1.013
 8359TIP3    H125020   1.129   1.742   0.974
 8359TIP3    H225021   1.092   1.809   1.105
 8360TIP3   OH225022   6.163   2.957   4.725
 8360TIP3    H125023   6.197   2.928   4.640
 8360TIP3    H225024   6.238   2.997   4.768
 8361TIP3   OH225025   4.711   4.646   2.672
 8361TIP3    H125026   4.725   4.710   2.742
 8361TIP3    H225027   4.792   4.595   2.668
 8362TIP3   OH225028   8.243   6.089   3.123
 8362TIP3    H125029   8.221   6.153   3.054
 8362TIP3    H225030   8.186   6.014   3.104
 8363TIP3   OH225031   0.889   3.420   2.269
 8363TIP3    H125032   0.978   3.426   2.234
 8363TIP3    H225033   0.885   3.488   2.335
 8364TIP3   OH225034   3.963   4.165   5.255
 8364TIP3    H125035   3.879   4.152   5.211
 8364TIP3    H225036   3.952   4.246   5.305
 8365TIP3   OH225037   6.881   3.351   3.516
 8365TIP3    H125038   6.843   3.269   3.487
 8365TIP3    H225039   6.823   3.381   3.586
 8366TIP3   OH225040   7.045   0.810   4.438
 8366TIP3    H125041   7.064   0.810   4.345
 8366TIP3    H225042   7.048   0.902   4.463
 8367TIP3   OH225043   8.306   7.683   2.187
 8367TIP3    H125044   8.219   7.721   2.182
 8367TIP3    H225045   8.308   7.618   2.117
 8368TIP3   OH225046   0.385   0.453   2.873
 8368TIP3    H125047   0.348   0.521   2.817
 8368TIP3    H225048   0.464   0.424   2.827
 8369TIP3   OH225049   3.822   7.340   6.027
 8369TIP3    H125050   3.774   7.262   6.000
 8369TIP3    H225051   3.884   7.308   6.093
 8370TIP3   OH225052   7.899   5.421   4.753
 8370TIP3    H125053   7.891   5.382   4.666
 8370TIP3    H225054   7.972   5.373   4.794
 8371TIP3   OH225055   6.422   2.612   3.470
 8371TIP3    H125056   6.367   2.551   3.420
 8371TIP3    H225057   6.413   2.696   3.425
 8372TIP3   OH225058   4.536   2.165   2.132
 8372TIP3    H125059   4.577   2.245   2.164
 8372TIP3    H225060   4.456   2.195   2.087
 8373TIP3   OH225061   2.832   0.971   5.979
 8373TIP3    H125062   2.864   1.055   5.945
 8373TIP3    H225063   2.784   0.994   6.059
 8374TIP3   OH225064   7.531   3.188   1.500
 8374TIP3    H125065   7.581   3.164   1.422
 8374TIP3    H225066   7.475   3.112   1.517
 8375TIP3   OH225067   5.152   1.530   4.757
 8375TIP3    H125068   5.169   1.542   4.663
 8375TIP3    H225069   5.059   1.505   4.760
 8376TIP3   OH225070   3.321   3.039   1.089
 8376TIP3    H125071   3.278   3.002   1.166
 8376TIP3    H225072   3.277   3.123   1.075
 8377TIP3   OH225073   6.554   0.145   4.451
 8377TIP3    H125074   6.510   0.206   4.510
 8377TIP3    H225075   6.647   0.153   4.473
 8378TIP3   OH225076   2.908   1.909   3.118
 8378TIP3    H125077   2.892   2.002   3.103
 8378TIP3    H225078   2.821   1.870   3.114
 8379TIP3   OH225079   3.469   7.061   1.441
 8379TIP3    H125080   3.469   7.118   1.363
 8379TIP3    H225081   3.422   7.112   1.507
 8380TIP3   OH225082   4.345   6.607   4.681
 8380TIP3    H125083   4.273   6.663   4.650
 8380TIP3    H225084   4.406   6.604   4.607
 8381TIP3   OH225085   2.663   2.842   6.270
 8381TIP3    H125086   2.601   2.902   6.310
 8381TIP3    H225087   2.660   2.864   6.176
 8382TIP3   OH225088   1.856   3.010   5.069
 8382TIP3    H125089   1.818   2.953   5.136
 8382TIP3    H225090   1.828   2.971   4.986
 8383TIP3   OH225091   8.220   3.744   6.520
 8383TIP3    H125092   8.254   3.697   6.596
 8383TIP3    H225093   8.246   3.690   6.445
 8384TIP3   OH225094   7.107   0.417   4.058
 8384TIP3    H125095   7.169   0.438   3.989
 8384TIP3    H225096   7.155   0.359   4.117
 8385TIP3   OH225097   7.056   1.446   0.932
 8385TIP3    H125098   7.112   1.450   1.010
 8385TIP3    H225099   7.117   1.448   0.858
 8386TIP3   OH225100   6.359   4.168   6.357
 8386TIP3    H125101   6.408   4.250   6.346
 8386TIP3    H225102   6.399   4.108   6.295
 8387TIP3   OH225103   1.697   7.056   4.136
 8387TIP3    H125104   1.715   7.029   4.046
 8387TIP3    H225105   1.602   7.046   4.145
 8388TIP3   OH225106   0.523   2.093   5.343
 8388TIP3    H125107   0.606   2.051   5.322
 8388TIP3    H225108   0.492   2.048   5.422
 8389TIP3   OH225109   2.906   3.082   6.336
 8389TIP3    H125110   2.849   3.010   6.363
 8389TIP3    H225111   2.929   3.127   6.417
 8390TIP3   OH225112   6.232   4.969   3.161
 8390TIP3    H125113   6.221   4.927   3.075
 8390TIP3    H225114   6.148   4.955   3.205
 8391TIP3   OH225115   7.597   0.974   0.840
 8391TIP3    H125116   7.600   0.889   0.797
 8391TIP3    H225117   7.684   0.983   0.880
 8392TIP3   OH225118   5.298   1.136   2.597
 8392TIP3    H125119   5.295   1.050   2.638
 8392TIP3    H225120   5.210   1.148   2.562
 8393TIP3   OH225121   2.459   4.921   5.348
 8393TIP3    H125122   2.409   4.846   5.317
 8393TIP3    H225123   2.529   4.883   5.401
 8394TIP3   OH225124   6.375   4.403   3.697
 8394TIP3    H125125   6.362   4.440   3.609
 8394TIP3    H225126   6.317   4.327   3.700
 8395TIP3   OH225127   2.063   5.307   2.722
 8395TIP3    H125128   2.082   5.348   2.806
 8395TIP3    H225129   2.083   5.374   2.657
 8396TIP3   OH225130   3.678   3.369   6.116
 8396TIP3    H125131   3.619   3.441   6.093
 8396TIP3    H225132   3.669   3.306   6.044
 8397TIP3   OH225133   0.122   3.850   5.292
 8397TIP3    H125134   0.179   3.925   5.307
 8397TIP3    H225135   0.097   3.821   5.380
 8398TIP3   OH225136   0.753   0.688   2.882
 8398TIP3    H125137   0.843   0.658   2.878
 8398TIP3    H225138   0.701   0.613   2.855
 8399TIP3   OH225139   4.049   6.600   0.577
 8399TIP3    H125140   4.106   6.582   0.652
 8399TIP3    H225141   3.964   6.563   0.602
 8400TIP3   OH225142   2.496   4.455   1.795
 8400TIP3    H125143   2.451   4.458   1.880
 8400TIP3    H225144   2.467   4.373   1.756
 8401TIP3   OH225145   2.350   3.001   2.592
 8401TIP3    H125146   2.394   3.082   2.564
 8401TIP3    H225147   2.260   3.010   2.560
 8402TIP3   OH225148   7.169   5.675   2.507
 8402TIP3    H125149   7.180   5.653   2.600
 8402TIP3    H225150   7.159   5.590   2.464
 8403TIP3   OH225151   1.681   1.930   1.490
 8403TIP3    H125152   1.707   1.871   1.420
 8403TIP3    H225153   1.719   2.014   1.466
 8404TIP3   OH225154   5.341   1.826   4.729
 8404TIP3    H125155   5.303   1.783   4.653
 8404TIP3    H225156   5.416   1.875   4.695
 8405TIP3   OH225157   4.668   5.017   6.091
 8405TIP3    H125158   4.580   4.981   6.086
 8405TIP3    H225159   4.661   5.092   6.150
 8406TIP3   OH225160   5.306   7.647   2.535
 8406TIP3    H125161   5.238   7.698   2.491
 8406TIP3    H225162   5.279   7.556   2.524
 8407TIP3   OH225163   4.387   4.409   0.884
 8407TIP3    H125164   4.412   4.317   0.881
 8407TIP3    H225165   4.415   4.439   0.970
 8408TIP3   OH225166   8.250   0.777   3.441
 8408TIP3    H125167   8.237   0.796   3.534
 8408TIP3    H225168   8.280   0.686   3.439
 8409TIP3   OH225169   2.818   0.284   3.839
 8409TIP3    H125170   2.875   0.361   3.831
 8409TIP3    H225171   2.744   0.315   3.891
 8410TIP3   OH225172   8.216   2.460   2.781
 8410TIP3    H125173   8.233   2.457   2.687
 8410TIP3    H225174   8.289   2.511   2.817
 8411TIP3   OH225175   7.423   2.972   0.029
 8411TIP3    H125176   7.493   2.945   0.089
 8411TIP3    H225177   7.411   3.065   0.046
 8412TIP3   OH225178   5.573   5.004   6.114
 8412TIP3    H125179   5.592   5.062   6.188
 8412TIP3    H225180   5.656   4.993   6.069
 8413TIP3   OH225181   7.126   2.017   3.852
 8413TIP3    H125182   7.118   2.092   3.793
 8413TIP3    H225183   7.060   1.955   3.822
 8414TIP3   OH225184   3.040   7.501   2.978
 8414TIP3    H125185   3.115   7.533   2.927
 8414TIP3    H225186   3.059   7.408   2.993
 8415TIP3   OH225187   1.130   6.693   4.195
 8415TIP3    H125188   1.212   6.705   4.242
 8415TIP3    H225189   1.154   6.646   4.115
 8416TIP3   OH225190   0.227   5.588   0.441
 8416TIP3    H125191   0.168   5.523   0.479
 8416TIP3    H225192   0.242   5.651   0.511
 8417TIP3   OH225193   1.067   5.948   4.924
 8417TIP3    H125194   0.998   5.885   4.945
 8417TIP3    H225195   1.082   5.936   4.830
 8418TIP3   OH225196   5.659   6.853   3.434
 8418TIP3    H125197   5.724   6.893   3.492
 8418TIP3    H225198   5.612   6.927   3.396
 8419TIP3   OH225199   8.158   4.553   1.160
 8419TIP3    H125200   8.253   4.546   1.165
 8419TIP3    H225201   8.142   4.639   1.123
 8420TIP3   OH225202   3.703   3.284   2.468
 8420TIP3    H125203   3.756   3.296   2.547
 8420TIP3    H225204   3.641   3.357   2.469
 8421TIP3   OH225205   7.109   4.065   1.189
 8421TIP3    H125206   7.103   4.056   1.094
 8421TIP3    H225207   7.054   4.140   1.209
 8422TIP3   OH225208   6.903   6.971   6.589
 8422TIP3    H125209   6.966   6.958   6.518
 8422TIP3    H225210   6.854   7.049   6.562
 8423TIP3   OH225211   5.300   5.592   0.189
 8423TIP3    H125212   5.314   5.672   0.240
 8423TIP3    H225213   5.328   5.521   0.248
 8424TIP3   OH225214   4.667   4.999   4.569
 8424TIP3    H125215   4.573   4.982   4.566
 8424TIP3    H225216   4.684   5.028   4.658
 8425TIP3   OH225217   1.074   4.471   0.888
 8425TIP3    H125218   1.007   4.487   0.821
 8425TIP3    H225219   1.076   4.552   0.939
 8426TIP3   OH225220   7.183   1.723   6.769
 8426TIP3    H125221   7.187   1.695   6.677
 8426TIP3    H225222   7.258   1.682   6.811
 8427TIP3   OH225223   1.371   6.909   4.895
 8427TIP3    H125224   1.321   6.872   4.968
 8427TIP3    H225225   1.311   6.907   4.821
 8428TIP3   OH225226   2.660   0.298   0.006
 8428TIP3    H125227   2.662   0.278   0.099
 8428TIP3    H225228   2.722   0.370  -0.004
 8429TIP3   OH225229   8.228   1.889   3.682
 8429TIP3    H125230   8.218   1.826   3.610
 8429TIP3    H225231   8.303   1.857   3.731
 8430TIP3   OH225232   2.397   5.046   1.761
 8430TIP3    H125233   2.405   5.015   1.851
 8430TIP3    H225234   2.326   4.994   1.724
 8431TIP3   OH225235   7.457   2.578   4.259
 8431TIP3    H125236   7.480   2.557   4.350
 8431TIP3    H225237   7.499   2.663   4.243
 8432TIP3   OH225238   3.342   6.565   6.427
 8432TIP3    H125239   3.392   6.484   6.437
 8432TIP3    H225240   3.396   6.631   6.470
 8433TIP3   OH225241   4.011   6.085   5.631
 8433TIP3    H125242   3.937   6.136   5.599
 8433TIP3    H225243   4.077   6.150   5.655
 8434TIP3   OH225244   7.528   6.514   0.506
 8434TIP3    H125245   7.583   6.572   0.453
 8434TIP3    H225246   7.455   6.491   0.448
 8435TIP3   OH225247   3.373   6.591   3.394
 8435TIP3    H125248   3.463   6.557   3.395
 8435TIP3    H225249   3.374   6.662   3.458
 8436TIP3   OH225250   7.995   4.382   0.996
 8436TIP3    H125251   7.909   4.371   1.037
 8436TIP3    H225252   8.055   4.393   1.069
 8437TIP3   OH225253   0.329   7.604   1.376
 8437TIP3    H125254   0.359   7.679   1.325
 8437TIP3    H225255   0.238   7.590   1.349
 8438TIP3   OH225256   6.745   5.459   2.044
 8438TIP3    H125257   6.786   5.474   1.959
 8438TIP3    H225258   6.755   5.542   2.090
 8439TIP3   OH225259   2.071   3.559   1.789
 8439TIP3    H125260   2.146   3.530   1.841
 8439TIP3    H225261   1.998   3.506   1.820
 8440TIP3   OH225262   3.267   5.314   4.652
 8440TIP3    H125263   3.255   5.292   4.559
 8440TIP3    H225264   3.324   5.391   4.651
 8441TIP3   OH225265   4.290   5.545   5.791
 8441TIP3    H125266   4.334   5.468   5.826
 8441TIP3    H225267   4.209   5.512   5.752
 8442TIP3   OH225268   4.693   3.143   1.491
 8442TIP3    H125269   4.636   3.081   1.445
 8442TIP3    H225270   4.741   3.188   1.421
 8443TIP3   OH225271   6.943   3.071   6.777
 8443TIP3    H125272   7.030   3.083   6.740
 8443TIP3    H225273   6.907   2.995   6.731
 8444TIP3   OH225274   3.531   2.148   2.073
 8444TIP3    H125275   3.523   2.073   2.013
 8444TIP3    H225276   3.587   2.210   2.026
 8445TIP3   OH225277   7.210   1.826   1.763
 8445TIP3    H125278   7.183   1.918   1.764
 8445TIP3    H225279   7.283   1.822   1.825
 8446TIP3   OH225280   4.625   5.998   4.880
 8446TIP3    H125281   4.542   5.999   4.833
 8446TIP3    H225282   4.638   5.906   4.903
 8447TIP3   OH225283   6.013   6.454   3.007
 8447TIP3    H125284   5.954   6.480   2.937
 8447TIP3    H225285   5.990   6.511   3.081
 8448TIP3   OH225286   0.757   0.786   1.504
 8448TIP3    H125287   0.840   0.744   1.481
 8448TIP3    H225288   0.753   0.780   1.600
 8449TIP3   OH225289   3.520   5.465   1.122
 8449TIP3    H125290   3.476   5.385   1.151
 8449TIP3    H225291   3.547   5.509   1.203
 8450TIP3   OH225292   6.409   3.772   0.740
 8450TIP3    H125293   6.366   3.689   0.722
 8450TIP3    H225294   6.358   3.811   0.811
 8451TIP3   OH225295   0.790   0.102   3.415
 8451TIP3    H125296   0.798   0.009   3.434
 8451TIP3    H225297   0.701   0.112   3.382
 8452TIP3   OH225298   7.070   3.835   3.892
 8452TIP3    H125299   6.990   3.864   3.937
 8452TIP3    H225300   7.097   3.910   3.840
 8453TIP3   OH225301   8.033   2.752   6.311
 8453TIP3    H125302   7.980   2.809   6.255
 8453TIP3    H225303   7.987   2.754   6.395
 8454TIP3   OH225304   0.146   6.355   6.275
 8454TIP3    H125305   0.172   6.290   6.209
 8454TIP3    H225306   0.051   6.362   6.266
 8455TIP3   OH225307   3.188   6.433   1.714
 8455TIP3    H125308   3.149   6.349   1.690
 8455TIP3    H225309   3.249   6.452   1.643
 8456TIP3   OH225310   3.665   6.062   5.451
 8456TIP3    H125311   3.638   5.986   5.503
 8456TIP3    H225312   3.729   6.027   5.389
 8457TIP3   OH225313   7.732   7.559   1.761
 8457TIP3    H125314   7.732   7.633   1.822
 8457TIP3    H225315   7.677   7.588   1.688
 8458TIP3   OH225316   0.921   6.453   1.983
 8458TIP3    H125317   0.843   6.477   2.033
 8458TIP3    H225318   0.969   6.535   1.973
 8459TIP3   OH225319   2.470   4.666   0.172
 8459TIP3    H125320   2.417   4.698   0.099
 8459TIP3    H225321   2.438   4.577   0.188
 8460TIP3   OH225322  -0.017   7.073   1.586
 8460TIP3    H125323   0.065   7.123   1.582
 8460TIP3    H225324  -0.020   7.024   1.503
 8461TIP3   OH225325   5.081   4.212   2.011
 8461TIP3    H125326   5.079   4.200   1.916
 8461TIP3    H225327   4.989   4.229   2.034
 8462TIP3   OH225328   4.971   3.806   3.443
 8462TIP3    H125329   4.978   3.881   3.384
 8462TIP3    H225330   5.056   3.801   3.487
 8463TIP3   OH225331   0.650   3.333   6.486
 8463TIP3    H125332   0.641   3.420   6.525
 8463TIP3    H225333   0.695   3.348   6.403
 8464TIP3   OH225334   6.724   1.899   5.877
 8464TIP3    H125335   6.737   1.943   5.961
 8464TIP3    H225336   6.723   1.970   5.813
 8465TIP3   OH225337   1.554   3.118   4.860
 8465TIP3    H125338   1.575   3.041   4.807
 8465TIP3    H225339   1.637   3.164   4.870
 8466TIP3   OH225340   6.507   7.835   3.094
 8466TIP3    H125341   6.433   7.783   3.062
 8466TIP3    H225342   6.574   7.771   3.116
 8467TIP3   OH225343   1.576   7.366   3.684
 8467TIP3    H125344   1.671   7.367   3.688
 8467TIP3    H225345   1.555   7.328   3.599
 8468TIP3   OH225346   5.673   0.028   0.853
 8468TIP3    H125347   5.606   0.065   0.796
 8468TIP3    H225348   5.630   0.022   0.939
 8469TIP3   OH225349   0.438   2.380   1.288
 8469TIP3    H125350   0.446   2.476   1.290
 8469TIP3    H225351   0.349   2.363   1.318
 8470TIP3   OH225352   0.978   0.319   4.403
 8470TIP3    H125353   0.946   0.229   4.394
 8470TIP3    H225354   0.971   0.337   4.497
 8471TIP3   OH225355   2.624   6.647   3.571
 8471TIP3    H125356   2.582   6.695   3.500
 8471TIP3    H225357   2.567   6.659   3.646
 8472TIP3   OH225358   3.240   3.122   0.154
 8472TIP3    H125359   3.192   3.138   0.073
 8472TIP3    H225360   3.194   3.176   0.220
 8473TIP3   OH225361   1.144   7.505   3.442
 8473TIP3    H125362   1.217   7.547   3.488
 8473TIP3    H225363   1.180   7.425   3.406
 8474TIP3   OH225364   6.364   0.807   3.909
 8474TIP3    H125365   6.297   0.837   3.848
 8474TIP3    H225366   6.416   0.885   3.929
 8475TIP3   OH225367   3.060   0.811   6.309
 8475TIP3    H125368   3.125   0.742   6.295
 8475TIP3    H225369   3.110   0.892   6.312
 8476TIP3   OH225370   6.563   2.080   2.561
 8476TIP3    H125371   6.480   2.035   2.576
 8476TIP3    H225372   6.583   2.064   2.469
 8477TIP3   OH225373   0.486   1.558   4.046
 8477TIP3    H125374   0.491   1.497   4.119
 8477TIP3    H225375   0.470   1.643   4.086
 8478TIP3   OH225376   6.885   5.825   1.955
 8478TIP3    H125377   6.870   5.769   2.032
 8478TIP3    H225378   6.936   5.899   1.989
 8479TIP3   OH225379   7.701   5.604   1.071
 8479TIP3    H125380   7.754   5.587   1.149
 8479TIP3    H225381   7.763   5.639   1.006
 8480TIP3   OH225382   3.617   7.818   4.303
 8480TIP3    H125383   3.627   7.723   4.306
 8480TIP3    H225384   3.657   7.848   4.384
 8481TIP3   OH225385   7.098   0.456   2.054
 8481TIP3    H125386   7.180   0.497   2.026
 8481TIP3    H225387   7.122   0.398   2.126
 8482TIP3   OH225388   3.527   5.985   3.618
 8482TIP3    H125389   3.502   5.893   3.606
 8482TIP3    H225390   3.461   6.034   3.570
 8483TIP3   OH225391   7.351   7.432   5.140
 8483TIP3    H125392   7.272   7.474   5.177
 8483TIP3    H225393   7.372   7.484   5.063
 8484TIP3   OH225394   6.091   7.223   4.467
 8484TIP3    H125395   6.054   7.297   4.513
 8484TIP3    H225396   6.140   7.175   4.533
 8485TIP3   OH225397   2.212   3.742   0.940
 8485TIP3    H125398   2.219   3.838   0.943
 8485TIP3    H225399   2.187   3.722   0.850
 8486TIP3   OH225400   4.698   4.816   2.038
 8486TIP3    H125401   4.718   4.903   2.073
 8486TIP3    H225402   4.776   4.764   2.058
 8487TIP3   OH225403   0.991   6.080   5.444
 8487TIP3    H125404   1.066   6.113   5.395
 8487TIP3    H225405   0.961   6.004   5.394
 8488TIP3   OH225406   5.383   5.116   3.691
 8488TIP3    H125407   5.379   5.032   3.738
 8488TIP3    H225408   5.383   5.091   3.599
 8489TIP3   OH225409   7.088   1.698   4.786
 8489TIP3    H125410   7.020   1.697   4.853
 8489TIP3    H225411   7.040   1.717   4.704
 8490TIP3   OH225412   7.990   5.511   1.193
 8490TIP3    H125413   7.947   5.428   1.172
 8490TIP3    H225414   8.081   5.487   1.207
 8491TIP3   OH225415   2.564   2.664   0.257
 8491TIP3    H125416   2.590   2.715   0.334
 8491TIP3    H225417   2.517   2.727   0.202
 8492TIP3   OH225418   5.685   7.139   6.688
 8492TIP3    H125419   5.620   7.080   6.726
 8492TIP3    H225420   5.766   7.089   6.688
 8493TIP3   OH225421   5.675   2.887   0.889
 8493TIP3    H125422   5.683   2.982   0.880
 8493TIP3    H225423   5.642   2.857   0.805
 8494TIP3   OH225424   8.019   2.955   1.078
 8494TIP3    H125425   8.015   2.956   1.173
 8494TIP3    H225426   8.069   2.876   1.057
 8495TIP3   OH225427   6.331   6.039   1.150
 8495TIP3    H125428   6.305   5.994   1.230
 8495TIP3    H225429   6.248   6.066   1.110
 8496TIP3   OH225430   5.065   1.406   2.171
 8496TIP3    H125431   5.105   1.328   2.132
 8496TIP3    H225432   5.069   1.390   2.265
 8497TIP3   OH225433   7.708   1.419   2.956
 8497TIP3    H125434   7.739   1.474   3.028
 8497TIP3    H225435   7.635   1.369   2.993
 8498TIP3   OH225436   4.987   7.786   0.076
 8498TIP3    H125437   5.053   7.782   0.146
 8498TIP3    H225438   5.037   7.804  -0.003
 8499TIP3   OH225439   4.450   5.512   6.090
 8499TIP3    H125440   4.361   5.501   6.124
 8499TIP3    H225441   4.505   5.504   6.168
 8500TIP3   OH225442   0.494   4.628   0.722
 8500TIP3    H125443   0.536   4.684   0.787
 8500TIP3    H225444   0.453   4.689   0.661
 8501TIP3   OH225445   4.820   2.876   4.645
 8501TIP3    H125446   4.832   2.970   4.651
 8501TIP3    H225447   4.731   2.861   4.677
 8502TIP3   OH225448   3.755   2.839   2.699
 8502TIP3    H125449   3.776   2.917   2.751
 8502TIP3    H225450   3.836   2.788   2.699
 8503TIP3   OH225451   1.253   0.587   1.161
 8503TIP3    H125452   1.176   0.589   1.104
 8503TIP3    H225453   1.254   0.673   1.203
 8504TIP3   OH225454   4.667   3.984   6.276
 8504TIP3    H125455   4.663   4.014   6.366
 8504TIP3    H225456   4.585   3.937   6.262
 8505TIP3   OH225457   7.359   4.707   2.271
 8505TIP3    H125458   7.439   4.697   2.322
 8505TIP3    H225459   7.289   4.715   2.336
 8506TIP3   OH225460   7.626   6.227   4.007
 8506TIP3    H125461   7.603   6.247   3.917
 8506TIP3    H225462   7.694   6.290   4.029
 8507TIP3   OH225463   4.462   2.895   4.923
 8507TIP3    H125464   4.523   2.832   4.885
 8507TIP3    H225465   4.485   2.978   4.883
 8508TIP3   OH225466   2.539   4.901   0.523
 8508TIP3    H125467   2.584   4.962   0.582
 8508TIP3    H225468   2.592   4.901   0.443
 8509TIP3   OH225469   4.036   5.390   3.389
 8509TIP3    H125470   4.131   5.405   3.390
 8509TIP3    H225471   4.016   5.374   3.297
 8510TIP3   OH225472   6.646   0.930   6.340
 8510TIP3    H125473   6.634   0.972   6.255
 8510TIP3    H225474   6.607   0.843   6.329
 8511TIP3   OH225475   5.747   7.051   2.387
 8511TIP3    H125476   5.686   6.977   2.385
 8511TIP3    H225477   5.762   7.072   2.295
 8512TIP3   OH225478   5.081   6.490   1.577
 8512TIP3    H125479   5.132   6.531   1.646
 8512TIP3    H225480   5.146   6.446   1.522
 8513TIP3   OH225481   0.141   0.717   4.098
 8513TIP3    H125482   0.071   0.667   4.139
 8513TIP3    H225483   0.160   0.787   4.161
 8514TIP3   OH225484   3.112   1.814   0.900
 8514TIP3    H125485   3.029   1.847   0.934
 8514TIP3    H225486   3.178   1.866   0.945
 8515TIP3   OH225487   7.466   2.398   6.656
 8515TIP3    H125488   7.389   2.355   6.620
 8515TIP3    H225489   7.443   2.418   6.746
 8516TIP3   OH225490   7.030   3.982   2.021
 8516TIP3    H125491   7.032   4.074   1.993
 8516TIP3    H225492   7.090   3.937   1.962
 8517TIP3   OH225493   4.914   1.807   4.839
 8517TIP3    H125494   4.867   1.872   4.787
 8517TIP3    H225495   4.909   1.727   4.787
 8518TIP3   OH225496   7.652   3.264   4.176
 8518TIP3    H125497   7.589   3.196   4.153
 8518TIP3    H225498   7.624   3.340   4.126
 8519TIP3   OH225499   5.229   3.073   3.602
 8519TIP3    H125500   5.162   3.132   3.635
 8519TIP3    H225501   5.251   3.107   3.515
 8520TIP3   OH225502   7.487   4.714   4.923
 8520TIP3    H125503   7.464   4.629   4.887
 8520TIP3    H225504   7.521   4.695   5.011
 8521TIP3   OH225505   4.547   2.425   0.175
 8521TIP3    H125506   4.488   2.486   0.220
 8521TIP3    H225507   4.570   2.360   0.242
 8522TIP3   OH225508   6.140   1.433   2.389
 8522TIP3    H125509   6.180   1.346   2.395
 8522TIP3    H225510   6.159   1.461   2.299
 8523TIP3   OH225511   7.882   5.116   0.276
 8523TIP3    H125512   7.911   5.129   0.366
 8523TIP3    H225513   7.954   5.149   0.222
 8524TIP3   OH225514   3.091   1.332   3.401
 8524TIP3    H125515   3.071   1.264   3.337
 8524TIP3    H225516   3.186   1.342   3.397
 8525TIP3   OH225517   1.028   4.026   5.086
 8525TIP3    H125518   1.107   4.059   5.128
 8525TIP3    H225519   1.048   3.934   5.067
 8526TIP3   OH225520   2.470   2.418   0.147
 8526TIP3    H125521   2.503   2.507   0.153
 8526TIP3    H225522   2.449   2.406   0.055
 8527TIP3   OH225523   6.018   7.083   0.530
 8527TIP3    H125524   6.087   7.025   0.563
 8527TIP3    H225525   6.039   7.169   0.566
 8528TIP3   OH225526   5.042   7.224   3.615
 8528TIP3    H125527   5.060   7.251   3.525
 8528TIP3    H225528   5.108   7.158   3.634
 8529TIP3   OH225529   5.884   2.778   2.775
 8529TIP3    H125530   5.958   2.744   2.724
 8529TIP3    H225531   5.925   2.824   2.848
 8530TIP3   OH225532   2.010   3.717   3.576
 8530TIP3    H125533   2.025   3.766   3.496
 8530TIP3    H225534   2.018   3.625   3.550
 8531TIP3   OH225535   6.822   1.637   1.628
 8531TIP3    H125536   6.817   1.666   1.719
 8531TIP3    H225537   6.913   1.614   1.615
 8532TIP3   OH225538   4.592   1.081   6.547
 8532TIP3    H125539   4.688   1.079   6.540
 8532TIP3    H225540   4.564   0.996   6.512
 8533TIP3   OH225541   2.819   6.625   6.002
 8533TIP3    H125542   2.772   6.692   5.953
 8533TIP3    H225543   2.911   6.637   5.977
 8534TIP3   OH225544   0.558   6.806   1.675
 8534TIP3    H125545   0.525   6.791   1.763
 8534TIP3    H225546   0.651   6.828   1.688
 8535TIP3   OH225547   5.090   4.858   1.264
 8535TIP3    H125548   5.051   4.932   1.218
 8535TIP3    H225549   5.058   4.865   1.354
 8536TIP3   OH225550   1.273   5.265   2.494
 8536TIP3    H125551   1.306   5.222   2.573
 8536TIP3    H225552   1.334   5.237   2.425
 8537TIP3   OH225553   3.720   3.959   1.203
 8537TIP3    H125554   3.755   4.047   1.220
 8537TIP3    H225555   3.791   3.912   1.161
 8538TIP3   OH225556   0.168   2.610   2.782
 8538TIP3    H125557   0.122   2.643   2.859
 8538TIP3    H225558   0.260   2.604   2.810
 8539TIP3   OH225559   2.702   0.761   3.732
 8539TIP3    H125560   2.673   0.757   3.823
 8539TIP3    H225561   2.787   0.807   3.736
 8540TIP3   OH225562   2.963   5.846   3.922
 8540TIP3    H125563   3.038   5.848   3.863
 8540TIP3    H225564   2.925   5.933   3.916
 8541TIP3   OH225565   4.027   7.699   6.475
 8541TIP3    H125566   4.072   7.646   6.542
 8541TIP3    H225567   4.048   7.790   6.499
 8542TIP3   OH225568   6.100   2.997   5.250
 8542TIP3    H125569   6.130   2.949   5.328
 8542TIP3    H225570   6.087   2.929   5.184
 8543TIP3   OH225571   3.197   4.489   2.404
 8543TIP3    H125572   3.142   4.453   2.474
 8543TIP3    H225573   3.139   4.492   2.328
 8544TIP3   OH225574   6.642   3.096   4.199
 8544TIP3    H125575   6.651   3.140   4.114
 8544TIP3    H225576   6.696   3.017   4.191
 8545TIP3   OH225577   3.200   2.077   3.668
 8545TIP3    H125578   3.258   2.143   3.629
 8545TIP3    H225579   3.248   1.995   3.659
 8546TIP3   OH225580   3.231   0.890   2.080
 8546TIP3    H125581   3.321   0.878   2.111
 8546TIP3    H225582   3.216   0.984   2.085
 8547TIP3   OH225583   8.194   4.495   2.234
 8547TIP3    H125584   8.119   4.436   2.241
 8547TIP3    H225585   8.258   4.446   2.182
 8548TIP3   OH225586   2.687   5.189   4.490
 8548TIP3    H125587   2.627   5.244   4.440
 8548TIP3    H225588   2.661   5.203   4.581
 8549TIP3   OH225589   5.979   4.640   3.805
 8549TIP3    H125590   6.042   4.639   3.877
 8549TIP3    H225591   5.900   4.599   3.842
 8550TIP3   OH225592   7.137   4.419   1.143
 8550TIP3    H125593   7.060   4.384   1.187
 8550TIP3    H225594   7.124   4.399   1.051
 8551TIP3   OH225595   3.663   2.165   1.454
 8551TIP3    H125596   3.672   2.157   1.359
 8551TIP3    H225597   3.742   2.123   1.489
 8552TIP3   OH225598   1.187   5.096   3.651
 8552TIP3    H125599   1.258   5.045   3.613
 8552TIP3    H225600   1.189   5.073   3.744
 8553TIP3   OH225601   5.375   6.043   1.691
 8553TIP3    H125602   5.356   6.006   1.605
 8553TIP3    H225603   5.405   5.969   1.743
 8554TIP3   OH225604   7.959   3.107   5.695
 8554TIP3    H125605   7.948   3.093   5.789
 8554TIP3    H225606   7.981   3.200   5.687
 8555TIP3   OH225607   8.175   7.168   3.093
 8555TIP3    H125608   8.229   7.192   3.169
 8555TIP3    H225609   8.217   7.211   3.019
 8556TIP3   OH225610   4.566   7.181   0.380
 8556TIP3    H125611   4.612   7.137   0.308
 8556TIP3    H225612   4.523   7.110   0.427
 8557TIP3   OH225613   6.161   3.595   4.076
 8557TIP3    H125614   6.165   3.685   4.043
 8557TIP3    H225615   6.251   3.564   4.071
 8558TIP3   OH225616   6.670   2.359   6.294
 8558TIP3    H125617   6.695   2.416   6.221
 8558TIP3    H225618   6.690   2.410   6.373
 8559TIP3   OH225619   4.925   1.899   5.786
 8559TIP3    H125620   4.871   1.827   5.751
 8559TIP3    H225621   4.997   1.906   5.724
 8560TIP3   OH225622   7.809   6.059   2.696
 8560TIP3    H125623   7.755   5.982   2.714
 8560TIP3    H225624   7.773   6.094   2.614
 8561TIP3   OH225625   4.358   0.740   6.325
 8561TIP3    H125626   4.286   0.678   6.313
 8561TIP3    H225627   4.379   0.771   6.237
 8562TIP3   OH225628   5.898   0.992   1.329
 8562TIP3    H125629   5.914   1.006   1.422
 8562TIP3    H225630   5.860   0.905   1.323
 8563TIP3   OH225631   6.867   6.140   5.361
 8563TIP3    H125632   6.920   6.089   5.423
 8563TIP3    H225633   6.919   6.218   5.342
 8564TIP3   OH225634   8.303   5.820   5.444
 8564TIP3    H125635   8.283   5.747   5.504
 8564TIP3    H225636   8.273   5.789   5.359
 8565TIP3   OH225637   5.570   2.492   1.613
 8565TIP3    H125638   5.605   2.559   1.672
 8565TIP3    H225639   5.527   2.541   1.543
 8566TIP3   OH225640   3.794   6.475   0.688
 8566TIP3    H125641   3.757   6.426   0.615
 8566TIP3    H225642   3.787   6.415   0.763
 8567TIP3   OH225643   5.655   6.693   5.085
 8567TIP3    H125644   5.617   6.705   4.999
 8567TIP3    H225645   5.742   6.657   5.069
 8568TIP3   OH225646   5.651   6.935   4.604
 8568TIP3    H125647   5.583   6.885   4.559
 8568TIP3    H225648   5.694   6.986   4.535
 8569TIP3   OH225649   6.811   2.884   4.101
 8569TIP3    H125650   6.767   2.812   4.056
 8569TIP3    H225651   6.894   2.894   4.055
 8570TIP3   OH225652   3.255   0.267   6.028
 8570TIP3    H125653   3.279   0.213   6.103
 8570TIP3    H225654   3.207   0.341   6.066
 8571TIP3   OH225655   2.795   6.320   1.608
 8571TIP3    H125656   2.872   6.359   1.647
 8571TIP3    H225657   2.828   6.266   1.536
 8572TIP3   OH225658   2.666   4.837   5.502
 8572TIP3    H125659   2.725   4.825   5.576
 8572TIP3    H225660   2.681   4.761   5.447
 8573TIP3   OH225661   2.537   6.256   0.050
 8573TIP3    H125662   2.571   6.171   0.078
 8573TIP3    H225663   2.442   6.244   0.049
 8574TIP3   OH225664   1.125   2.373   4.008
 8574TIP3    H125665   1.212   2.356   4.043
 8574TIP3    H225666   1.133   2.458   3.964
 8575TIP3   OH225667   6.506   4.902   2.281
 8575TIP3    H125668   6.569   4.925   2.349
 8575TIP3    H225669   6.529   4.959   2.207
 8576TIP3   OH225670   4.380   3.745   0.688
 8576TIP3    H125671   4.376   3.710   0.777
 8576TIP3    H225672   4.465   3.788   0.683
 8577TIP3   OH225673   2.700   7.007   2.807
 8577TIP3    H125674   2.741   6.925   2.780
 8577TIP3    H225675   2.697   7.060   2.727
 8578TIP3   OH225676   2.323   0.899   5.368
 8578TIP3    H125677   2.267   0.975   5.355
 8578TIP3    H225678   2.262   0.825   5.379
 8579TIP3   OH225679   2.093   1.149   6.274
 8579TIP3    H125680   2.161   1.215   6.279
 8579TIP3    H225681   2.016   1.195   6.240
 8580TIP3   OH225682   3.570   6.574   1.405
 8580TIP3    H125683   3.589   6.666   1.421
 8580TIP3    H225684   3.587   6.561   1.312
 8581TIP3   OH225685   4.724   5.607   2.128
 8581TIP3    H125686   4.644   5.641   2.168
 8581TIP3    H225687   4.724   5.644   2.040
 8582TIP3   OH225688   0.720   4.694   1.780
 8582TIP3    H125689   0.703   4.770   1.837
 8582TIP3    H225690   0.767   4.633   1.836
 8583TIP3   OH225691   4.727   0.076   2.089
 8583TIP3    H125692   4.675   0.060   2.011
 8583TIP3    H225693   4.757  -0.010   2.117
 8584TIP3   OH225694   2.489   3.252   3.864
 8584TIP3    H125695   2.442   3.183   3.818
 8584TIP3    H225696   2.420   3.301   3.910
 8585TIP3   OH225697   0.846   2.086   1.441
 8585TIP3    H125698   0.860   2.035   1.520
 8585TIP3    H225699   0.800   2.165   1.471
 8586TIP3   OH225700   0.395   5.770   6.247
 8586TIP3    H125701   0.428   5.774   6.157
 8586TIP3    H225702   0.343   5.850   6.256
 8587TIP3   OH225703   4.445   4.817   6.193
 8587TIP3    H125704   4.463   4.724   6.205
 8587TIP3    H225705   4.349   4.823   6.194
 8588TIP3   OH225706   1.645   5.409   4.645
 8588TIP3    H125707   1.627   5.481   4.585
 8588TIP3    H225708   1.670   5.452   4.727
 8589TIP3   OH225709   4.072   1.032   6.032
 8589TIP3    H125710   4.133   0.962   6.055
 8589TIP3    H225711   4.038   1.063   6.116
 8590TIP3   OH225712   8.287   1.878   2.475
 8590TIP3    H125713   8.243   1.955   2.512
 8590TIP3    H225714   8.216   1.822   2.445
 8591TIP3   OH225715   5.831   0.426   2.684
 8591TIP3    H125716   5.767   0.465   2.625
 8591TIP3    H225717   5.913   0.471   2.664
 8592TIP3   OH225718   0.084   5.931   3.571
 8592TIP3    H125719   0.069   6.010   3.519
 8592TIP3    H225720   0.176   5.935   3.597
 8593TIP3   OH225721   2.974   0.550   2.067
 8593TIP3    H125722   2.960   0.476   2.127
 8593TIP3    H225723   2.918   0.531   1.992
 8594TIP3   OH225724   0.700   5.260   3.870
 8594TIP3    H125725   0.691   5.298   3.957
 8594TIP3    H225726   0.637   5.307   3.816
 8595TIP3   OH225727   4.767   4.632   5.339
 8595TIP3    H125728   4.731   4.651   5.252
 8595TIP3    H225729   4.704   4.570   5.377
 8596TIP3   OH225730   5.111   6.609   5.339
 8596TIP3    H125731   5.026   6.636   5.374
 8596TIP3    H225732   5.170   6.614   5.415
 8597TIP3   OH225733   0.604   1.830   6.149
 8597TIP3    H125734   0.560   1.834   6.064
 8597TIP3    H225735   0.533   1.839   6.213
 8598TIP3   OH225736   1.536   3.739   1.502
 8598TIP3    H125737   1.456   3.777   1.466
 8598TIP3    H225738   1.606   3.775   1.448
 8599TIP3   OH225739   5.238   2.987   2.960
 8599TIP3    H125740   5.271   2.899   2.941
 8599TIP3    H225741   5.305   3.046   2.926
 8600TIP3   OH225742   1.814   7.153   1.136
 8600TIP3    H125743   1.766   7.200   1.067
 8600TIP3    H225744   1.746   7.111   1.188
 8601TIP3   OH225745   3.299   5.243   5.141
 8601TIP3    H125746   3.339   5.250   5.054
 8601TIP3    H225747   3.206   5.258   5.126
 8602TIP3   OH225748   2.189   7.652   4.321
 8602TIP3    H125749   2.191   7.675   4.228
 8602TIP3    H225750   2.096   7.655   4.343
 8603TIP3   OH225751   1.972   1.099   2.746
 8603TIP3    H125752   1.973   1.189   2.714
 8603TIP3    H225753   2.059   1.065   2.725
 8604TIP3   OH225754   5.906   0.142   0.782
 8604TIP3    H125755   5.941   0.112   0.699
 8604TIP3    H225756   5.830   0.086   0.799
 8605TIP3   OH225757   4.729   3.006   0.560
 8605TIP3    H125758   4.790   2.985   0.631
 8605TIP3    H225759   4.750   2.942   0.492
 8606TIP3   OH225760   3.393   1.861   2.654
 8606TIP3    H125761   3.324   1.799   2.677
 8606TIP3    H225762   3.394   1.863   2.559
 8607TIP3   OH225763   3.216   1.334   1.760
 8607TIP3    H125764   3.125   1.330   1.730
 8607TIP3    H225765   3.231   1.427   1.777
 8608TIP3   OH225766   4.151   1.016   3.864
 8608TIP3    H125767   4.171   1.109   3.854
 8608TIP3    H225768   4.134   1.005   3.958
 8609TIP3   OH225769   3.682   0.575   2.587
 8609TIP3    H125770   3.743   0.524   2.534
 8609TIP3    H225771   3.728   0.656   2.607
 8610TIP3   OH225772   6.188   3.354   1.281
 8610TIP3    H125773   6.114   3.414   1.290
 8610TIP3    H225774   6.253   3.402   1.230
 8611TIP3   OH225775   4.153   2.075   4.196
 8611TIP3    H125776   4.181   2.166   4.187
 8611TIP3    H225777   4.231   2.023   4.175
 8612TIP3   OH225778   1.497   5.686   5.288
 8612TIP3    H125779   1.460   5.736   5.215
 8612TIP3    H225780   1.433   5.616   5.304
 8613TIP3   OH225781   8.141   2.309   2.065
 8613TIP3    H125782   8.049   2.331   2.050
 8613TIP3    H225783   8.155   2.227   2.018
 8614TIP3   OH225784   4.023   3.996   2.071
 8614TIP3    H125785   3.927   3.997   2.068
 8614TIP3    H225786   4.046   4.071   2.126
 8615TIP3   OH225787   4.435   6.634   0.875
 8615TIP3    H125788   4.504   6.686   0.834
 8615TIP3    H225789   4.470   6.608   0.960
 8616TIP3   OH225790   4.718   7.577   5.223
 8616TIP3    H125791   4.802   7.608   5.188
 8616TIP3    H225792   4.674   7.657   5.254
 8617TIP3   OH225793   8.008   5.579   6.175
 8617TIP3    H125794   8.007   5.669   6.210
 8617TIP3    H225795   7.945   5.580   6.103
 8618TIP3   OH225796   2.566   1.309   6.608
 8618TIP3    H125797   2.555   1.404   6.612
 8618TIP3    H225798   2.589   1.284   6.698
 8619TIP3   OH225799   1.268   6.025   0.459
 8619TIP3    H125800   1.210   5.949   0.455
 8619TIP3    H225801   1.222   6.087   0.516
 8620TIP3   OH225802   3.023   6.773   2.524
 8620TIP3    H125803   2.977   6.807   2.601
 8620TIP3    H225804   2.998   6.680   2.521
 8621TIP3   OH225805   0.251   5.494   6.038
 8621TIP3    H125806   0.288   5.524   5.955
 8621TIP3    H225807   0.265   5.399   6.037
 8622TIP3   OH225808   1.123   2.800   4.346
 8622TIP3    H125809   1.090   2.864   4.409
 8622TIP3    H225810   1.185   2.849   4.292
 8623TIP3   OH225811   8.071   0.507   4.987
 8623TIP3    H125812   7.989   0.495   5.035
 8623TIP3    H225813   8.114   0.422   4.991
 8624TIP3   OH225814   0.738   1.584   0.457
 8624TIP3    H125815   0.821   1.593   0.409
 8624TIP3    H225816   0.701   1.502   0.424
 8625TIP3   OH225817   0.018   2.696   2.538
 8625TIP3    H125818   0.082   2.636   2.578
 8625TIP3    H225819  -0.065   2.650   2.545
 8626TIP3   OH225820   4.421   5.079   6.338
 8626TIP3    H125821   4.363   5.121   6.275
 8626TIP3    H225822   4.463   5.008   6.289
 8627TIP3   OH225823   3.453   3.307   2.802
 8627TIP3    H125824   3.489   3.236   2.748
 8627TIP3    H225825   3.508   3.309   2.880
 8628TIP3   OH225826   0.784   6.813   5.377
 8628TIP3    H125827   0.863   6.773   5.414
 8628TIP3    H225828   0.807   6.906   5.369
 8629TIP3   OH225829   8.125   0.492   1.177
 8629TIP3    H125830   8.213   0.469   1.207
 8629TIP3    H225831   8.070   0.420   1.209
 8630TIP3   OH225832   7.675   3.278   3.007
 8630TIP3    H125833   7.641   3.323   3.085
 8630TIP3    H225834   7.742   3.338   2.973
 8631TIP3   OH225835   5.547   1.976   4.607
 8631TIP3    H125836   5.609   2.009   4.542
 8631TIP3    H225837   5.491   2.051   4.628
 8632TIP3   OH225838   2.886   6.814   2.766
 8632TIP3    H125839   2.952   6.828   2.834
 8632TIP3    H225840   2.856   6.724   2.781
 8633TIP3   OH225841   5.607   7.679   0.242
 8633TIP3    H125842   5.520   7.645   0.260
 8633TIP3    H225843   5.602   7.712   0.152
 8634TIP3   OH225844   3.112   1.529   1.422
 8634TIP3    H125845   3.032   1.512   1.373
 8634TIP3    H225846   3.183   1.504   1.363
 8635TIP3   OH225847   3.049   4.144   1.094
 8635TIP3    H125848   2.998   4.172   1.169
 8635TIP3    H225849   3.078   4.226   1.053
 8636TIP3   OH225850   1.240   1.254   4.841
 8636TIP3    H125851   1.180   1.250   4.767
 8636TIP3    H225852   1.245   1.347   4.863
 8637TIP3   OH225853   6.598   6.317   2.218
 8637TIP3    H125854   6.505   6.328   2.237
 8637TIP3    H225855   6.637   6.401   2.245
 8638TIP3   OH225856   3.356   0.709   5.724
 8638TIP3    H125857   3.269   0.741   5.701
 8638TIP3    H225858   3.344   0.615   5.739
 8639TIP3   OH225859   7.011   0.203   6.693
 8639TIP3    H125860   6.955   0.186   6.617
 8639TIP3    H225861   7.098   0.219   6.656
 8640TIP3   OH225862   7.605   1.031   2.950
 8640TIP3    H125863   7.662   1.078   3.012
 8640TIP3    H225864   7.546   0.980   3.006
 8641TIP3   OH225865   1.396   4.436   6.749
 8641TIP3    H125866   1.410   4.518   6.796
 8641TIP3    H225867   1.483   4.399   6.738
 8642TIP3   OH225868   4.501   3.275   6.064
 8642TIP3    H125869   4.498   3.234   5.977
 8642TIP3    H225870   4.537   3.362   6.048
 8643TIP3   OH225871   5.218   3.373   1.834
 8643TIP3    H125872   5.283   3.428   1.789
 8643TIP3    H225873   5.147   3.433   1.855
 8644TIP3   OH225874   8.207   1.595   4.859
 8644TIP3    H125875   8.297   1.627   4.857
 8644TIP3    H225876   8.210   1.517   4.914
 8645TIP3   OH225877   1.943   4.224   0.756
 8645TIP3    H125878   1.991   4.307   0.750
 8645TIP3    H225879   1.886   4.235   0.832
 8646TIP3   OH225880   0.684   5.478   0.740
 8646TIP3    H125881   0.722   5.457   0.825
 8646TIP3    H225882   0.629   5.403   0.718
 8647TIP3   OH225883   3.186   5.524   1.165
 8647TIP3    H125884   3.236   5.449   1.133
 8647TIP3    H225885   3.248   5.597   1.164
 8648TIP3   OH225886   3.932   3.108   6.131
 8648TIP3    H125887   3.849   3.069   6.158
 8648TIP3    H225888   3.912   3.201   6.119
 8649TIP3   OH225889   4.155   2.101   6.003
 8649TIP3    H125890   4.102   2.123   6.080
 8649TIP3    H225891   4.098   2.046   5.949
 8650TIP3   OH225892   2.805   2.089   1.194
 8650TIP3    H125893   2.777   2.034   1.120
 8650TIP3    H225894   2.746   2.065   1.265
 8651TIP3   OH225895   0.410   4.580   6.445
 8651TIP3    H125896   0.348   4.651   6.458
 8651TIP3    H225897   0.467   4.609   6.374
 8652TIP3   OH225898   6.759   7.493   4.989
 8652TIP3    H125899   6.741   7.415   4.936
 8652TIP3    H225900   6.732   7.468   5.077
 8653TIP3   OH225901   6.788   1.357   3.831
 8653TIP3    H125902   6.700   1.393   3.839
 8653TIP3    H225903   6.775   1.264   3.813
 8654TIP3   OH225904   7.351   5.880   2.389
 8654TIP3    H125905   7.268   5.841   2.416
 8654TIP3    H225906   7.346   5.883   2.293
 8655TIP3   OH225907   1.309   3.177   1.526
 8655TIP3    H125908   1.276   3.119   1.458
 8655TIP3    H225909   1.259   3.153   1.604
 8656TIP3   OH225910   7.071   6.052   2.791
 8656TIP3    H125911   7.033   6.128   2.747
 8656TIP3    H225912   7.015   5.979   2.764
 8657TIP3   OH225913   2.707   7.580   2.461
 8657TIP3    H125914   2.691   7.495   2.501
 8657TIP3    H225915   2.793   7.607   2.495
 8658TIP3   OH225916   2.945   1.657   0.254
 8658TIP3    H125917   3.039   1.646   0.270
 8658TIP3    H225918   2.937   1.654   0.159
 8659TIP3   OH225919   1.038   2.980   2.889
 8659TIP3    H125920   1.129   2.949   2.892
 8659TIP3    H225921   1.039   3.062   2.937
 8660TIP3   OH225922   3.261   2.761   2.338
 8660TIP3    H125923   3.343   2.747   2.385
 8660TIP3    H225924   3.265   2.700   2.264
 8661TIP3   OH225925   2.564   7.019   6.439
 8661TIP3    H125926   2.494   7.077   6.408
 8661TIP3    H225927   2.566   6.948   6.375
 8662TIP3   OH225928   4.118   7.559   4.256
 8662TIP3    H125929   4.100   7.638   4.307
 8662TIP3    H225930   4.141   7.493   4.321
 8663TIP3   OH225931   1.162   5.684   6.748
 8663TIP3    H125932   1.168   5.681   6.844
 8663TIP3    H225933   1.172   5.592   6.721
 8664TIP3   OH225934   6.750   5.895   0.680
 8664TIP3    H125935   6.795   5.899   0.595
 8664TIP3    H225936   6.787   5.816   0.722
 8665TIP3   OH225937   4.637   5.805   1.590
 8665TIP3    H125938   4.600   5.741   1.529
 8665TIP3    H225939   4.664   5.878   1.534
 8666TIP3   OH225940   2.140   3.410   0.621
 8666TIP3    H125941   2.067   3.356   0.589
 8666TIP3    H225942   2.161   3.372   0.706
 8667TIP3   OH225943   5.597   4.233   0.568
 8667TIP3    H125944   5.594   4.138   0.568
 8667TIP3    H225945   5.681   4.255   0.610
 8668TIP3   OH225946   8.175   2.812   4.965
 8668TIP3    H125947   8.182   2.859   4.882
 8668TIP3    H225948   8.218   2.868   5.029
 8669TIP3   OH225949   5.221   5.794   4.040
 8669TIP3    H125950   5.200   5.704   4.063
 8669TIP3    H225951   5.279   5.787   3.964
 8670TIP3   OH225952   4.309   4.214   1.493
 8670TIP3    H125953   4.243   4.193   1.427
 8670TIP3    H225954   4.265   4.276   1.552
 8671TIP3   OH225955   3.375   6.470   1.936
 8671TIP3    H125956   3.315   6.444   1.865
 8671TIP3    H225957   3.414   6.551   1.904
 8672TIP3   OH225958   1.789   4.081   6.483
 8672TIP3    H125959   1.709   4.128   6.462
 8672TIP3    H225960   1.770   3.990   6.460
 8673TIP3   OH225961   0.973   1.616   0.282
 8673TIP3    H125962   0.982   1.705   0.247
 8673TIP3    H225963   1.015   1.560   0.216
 8674TIP3   OH225964   5.639   7.545   4.351
 8674TIP3    H125965   5.643   7.497   4.434
 8674TIP3    H225966   5.696   7.496   4.292
 8675TIP3   OH225967   5.898   0.998   0.407
 8675TIP3    H125968   5.959   1.071   0.421
 8675TIP3    H225969   5.905   0.979   0.314
 8676TIP3   OH225970   5.912   2.869   6.157
 8676TIP3    H125971   5.918   2.947   6.212
 8676TIP3    H225972   5.871   2.900   6.076
 8677TIP3   OH225973   6.764   0.816   3.284
 8677TIP3    H125974   6.733   0.752   3.348
 8677TIP3    H225975   6.685   0.841   3.236
 8678TIP3   OH225976   3.576   0.526   3.268
 8678TIP3    H125977   3.502   0.467   3.258
 8678TIP3    H225978   3.637   0.479   3.324
 8679TIP3   OH225979   6.672   4.686   6.062
 8679TIP3    H125980   6.585   4.668   6.027
 8679TIP3    H225981   6.730   4.679   5.985
 8680TIP3   OH225982   0.329   2.715   5.580
 8680TIP3    H125983   0.285   2.655   5.519
 8680TIP3    H225984   0.308   2.802   5.547
 8681TIP3   OH225985   2.020   3.960   5.393
 8681TIP3    H125986   1.975   3.986   5.313
 8681TIP3    H225987   2.111   3.986   5.379
 8682TIP3   OH225988   3.109   3.304   3.966
 8682TIP3    H125989   3.146   3.338   4.047
 8682TIP3    H225990   3.155   3.350   3.896
 8683TIP3   OH225991   3.498   2.616   5.156
 8683TIP3    H125992   3.474   2.706   5.180
 8683TIP3    H225993   3.419   2.565   5.174
 8684TIP3   OH225994   2.434   4.356   1.312
 8684TIP3    H125995   2.366   4.396   1.259
 8684TIP3    H225996   2.393   4.279   1.352
 8685TIP3   OH225997   4.562   0.651   5.714
 8685TIP3    H125998   4.523   0.725   5.761
 8685TIP3    H225999   4.499   0.580   5.724
 8686TIP3   OH226000   0.125   4.520   2.970
 8686TIP3    H126001   0.104   4.466   2.894
 8686TIP3    H226002   0.211   4.490   2.998
 8687TIP3   OH226003   7.167   1.449   3.284
 8687TIP3    H126004   7.096   1.410   3.233
 8687TIP3    H226005   7.171   1.398   3.364
 8688TIP3   OH226006   7.783   3.889   5.810
 8688TIP3    H126007   7.846   3.918   5.876
 8688TIP3    H226008   7.821   3.915   5.727
 8689TIP3   OH226009   6.353   1.914   0.469
 8689TIP3    H126010   6.331   1.862   0.391
 8689TIP3    H226011   6.289   1.985   0.469
 8690TIP3   OH226012   2.017   1.138   0.307
 8690TIP3    H126013   2.103   1.178   0.292
 8690TIP3    H226014   2.006   1.076   0.235
 8691TIP3   OH226015   3.058   2.797   1.003
 8691TIP3    H126016   3.064   2.759   1.091
 8691TIP3    H226017   3.148   2.807   0.975
 8692TIP3   OH226018   6.588   7.734   3.682
 8692TIP3    H126019   6.676   7.759   3.709
 8692TIP3    H226020   6.534   7.809   3.706
 8693TIP3   OH226021   1.388   1.862   0.804
 8693TIP3    H126022   1.375   1.849   0.710
 8693TIP3    H226023   1.395   1.957   0.814
 8694TIP3   OH226024   2.603   5.840   0.946
 8694TIP3    H126025   2.513   5.812   0.963
 8694TIP3    H226026   2.655   5.760   0.956
 8695TIP3   OH226027   1.453   2.733   6.669
 8695TIP3    H126028   1.535   2.748   6.622
 8695TIP3    H226029   1.422   2.821   6.693
 8696TIP3   OH226030   4.019   0.864   4.970
 8696TIP3    H126031   4.002   0.948   4.927
 8696TIP3    H226032   4.077   0.885   5.043
 8697TIP3   OH226033   5.065   4.122   2.539
 8697TIP3    H126034   5.015   4.050   2.501
 8697TIP3    H226035   5.084   4.180   2.465
 8698TIP3   OH226036   0.268   4.249   3.396
 8698TIP3    H126037   0.258   4.327   3.450
 8698TIP3    H226038   0.350   4.263   3.349
 8699TIP3   OH226039   4.137   3.434   6.379
 8699TIP3    H126040   4.146   3.511   6.322
 8699TIP3    H226041   4.205   3.374   6.348
 8700TIP3   OH226042   6.154   2.591   0.409
 8700TIP3    H126043   6.107   2.520   0.366
 8700TIP3    H226044   6.132   2.583   0.501
 8701TIP3   OH226045   4.046   7.196   2.042
 8701TIP3    H126046   4.101   7.117   2.043
 8701TIP3    H226047   4.108   7.268   2.057
 8702TIP3   OH226048   1.831   2.931   2.517
 8702TIP3    H126049   1.831   2.861   2.452
 8702TIP3    H226050   1.741   2.935   2.549
 8703TIP3   OH226051   6.178   3.004   1.766
 8703TIP3    H126052   6.222   3.005   1.681
 8703TIP3    H226053   6.090   2.971   1.747
 8704TIP3   OH226054   5.115   4.768   4.103
 8704TIP3    H126055   5.157   4.683   4.090
 8704TIP3    H226056   5.022   4.751   4.093
 8705TIP3   OH226057   1.191   6.189   1.500
 8705TIP3    H126058   1.241   6.116   1.534
 8705TIP3    H226059   1.225   6.203   1.412
 8706TIP3   OH226060   0.270   1.740   6.772
 8706TIP3    H126061   0.232   1.827   6.762
 8706TIP3    H226062   0.203   1.680   6.741
 8707TIP3   OH226063   2.704   2.838   5.899
 8707TIP3    H126064   2.665   2.861   5.815
 8707TIP3    H226065   2.789   2.880   5.899
 8708TIP3   OH226066   3.617   1.894   3.649
 8708TIP3    H126067   3.585   1.983   3.661
 8708TIP3    H226068   3.670   1.898   3.570
 8709TIP3   OH226069   2.653   4.935   6.503
 8709TIP3    H126070   2.604   4.965   6.580
 8709TIP3    H226071   2.704   5.011   6.476
 8710TIP3   OH226072   6.465   4.679   3.012
 8710TIP3    H126073   6.505   4.592   3.005
 8710TIP3    H226074   6.443   4.689   3.104
 8711TIP3   OH226075   5.412   5.131   0.901
 8711TIP3    H126076   5.480   5.080   0.945
 8711TIP3    H226077   5.448   5.220   0.899
 8712TIP3   OH226078   4.415   2.412   4.957
 8712TIP3    H126079   4.386   2.502   4.970
 8712TIP3    H226080   4.425   2.403   4.863
 8713TIP3   OH226081   7.889   4.098   4.882
 8713TIP3    H126082   7.888   4.003   4.869
 8713TIP3    H226083   7.956   4.130   4.822
 8714TIP3   OH226084   6.277   7.681   3.025
 8714TIP3    H126085   6.182   7.697   3.028
 8714TIP3    H226086   6.305   7.717   2.941
 8715TIP3   OH226087   5.644   5.435   1.169
 8715TIP3    H126088   5.709   5.367   1.184
 8715TIP3    H226089   5.611   5.419   1.081
 8716TIP3   OH226090   3.300   1.907   3.392
 8716TIP3    H126091   3.258   1.845   3.453
 8716TIP3    H226092   3.389   1.875   3.383
 8717TIP3   OH226093   4.383   4.333   5.200
 8717TIP3    H126094   4.342   4.345   5.285
 8717TIP3    H226095   4.467   4.291   5.219
 8718TIP3   OH226096   2.507   2.960   1.944
 8718TIP3    H126097   2.466   2.974   2.030
 8718TIP3    H226098   2.498   2.866   1.929
 8719TIP3   OH226099   6.690   3.216   6.530
 8719TIP3    H126100   6.647   3.145   6.578
 8719TIP3    H226101   6.701   3.182   6.441
 8720TIP3   OH226102   8.210   2.547   5.345
 8720TIP3    H126103   8.131   2.533   5.398
 8720TIP3    H226104   8.191   2.627   5.295
 8721TIP3   OH226105   2.517   3.248   2.619
 8721TIP3    H126106   2.605   3.271   2.589
 8721TIP3    H226107   2.531   3.194   2.696
 8722TIP3   OH226108   6.955   0.136   4.650
 8722TIP3    H126109   6.925   0.198   4.717
 8722TIP3    H226110   6.989   0.192   4.580
 8723TIP3   OH226111   0.918   0.490   4.753
 8723TIP3    H126112   0.860   0.498   4.677
 8723TIP3    H226113   0.860   0.474   4.827
 8724TIP3   OH226114   5.057   3.680   6.212
 8724TIP3    H126115   5.059   3.694   6.307
 8724TIP3    H226116   5.104   3.755   6.176
 8725TIP3   OH226117   1.818   2.597   3.201
 8725TIP3    H126118   1.775   2.622   3.119
 8725TIP3    H226119   1.905   2.568   3.174
 8726TIP3   OH226120   3.906   6.729   5.633
 8726TIP3    H126121   3.908   6.778   5.552
 8726TIP3    H226122   3.980   6.669   5.627
 8727TIP3   OH226123   2.818   5.294   2.468
 8727TIP3    H126124   2.759   5.349   2.519
 8727TIP3    H226125   2.903   5.337   2.476
 8728TIP3   OH226126   1.772   0.186   4.788
 8728TIP3    H126127   1.857   0.227   4.807
 8728TIP3    H226128   1.728   0.180   4.872
 8729TIP3   OH226129   2.047   4.835   2.323
 8729TIP3    H126130   2.007   4.909   2.368
 8729TIP3    H226131   2.092   4.873   2.248
 8730TIP3   OH226132   2.624   1.555   0.306
 8730TIP3    H126133   2.675   1.483   0.270
 8730TIP3    H226134   2.689   1.614   0.345
 8731TIP3   OH226135   5.842   5.135   3.564
 8731TIP3    H126136   5.867   5.042   3.565
 8731TIP3    H226137   5.800   5.149   3.649
 8732TIP3   OH226138   7.406   1.591   2.723
 8732TIP3    H126139   7.425   1.684   2.734
 8732TIP3    H226140   7.332   1.589   2.662
 8733TIP3   OH226141   1.972   6.564   6.703
 8733TIP3    H126142   1.996   6.586   6.613
 8733TIP3    H226143   1.884   6.527   6.696
 8734TIP3   OH226144   5.414   2.323   0.673
 8734TIP3    H126145   5.344   2.262   0.649
 8734TIP3    H226146   5.432   2.371   0.592
 8735TIP3   OH226147   4.766   7.444   2.648
 8735TIP3    H126148   4.853   7.481   2.638
 8735TIP3    H226149   4.716   7.512   2.694
 8736TIP3   OH226150   4.193   4.151   4.280
 8736TIP3    H126151   4.255   4.145   4.207
 8736TIP3    H226152   4.135   4.224   4.256
 8737TIP3   OH226153   5.666   2.298   6.606
 8737TIP3    H126154   5.626   2.221   6.648
 8737TIP3    H226155   5.641   2.291   6.514
 8738TIP3   OH226156   5.059   1.361   2.443
 8738TIP3    H126157   4.980   1.411   2.462
 8738TIP3    H226158   5.045   1.276   2.486
 8739TIP3   OH226159   5.980   3.723   3.785
 8739TIP3    H126160   5.974   3.629   3.764
 8739TIP3    H226161   6.074   3.741   3.787
 8740TIP3   OH226162   3.703   5.307   2.330
 8740TIP3    H126163   3.740   5.359   2.258
 8740TIP3    H226164   3.623   5.269   2.292
 8741TIP3   OH226165   6.589   1.916   1.320
 8741TIP3    H126166   6.582   1.820   1.318
 8741TIP3    H226167   6.681   1.933   1.300
 8742TIP3   OH226168   3.845   1.530   4.469
 8742TIP3    H126169   3.910   1.594   4.439
 8742TIP3    H226170   3.776   1.533   4.402
 8743TIP3   OH226171   5.039   5.919   4.475
 8743TIP3    H126172   5.079   5.931   4.389
 8743TIP3    H226173   5.093   5.972   4.534
 8744TIP3   OH226174   4.713   4.313   1.062
 8744TIP3    H126175   4.671   4.321   1.147
 8744TIP3    H226176   4.689   4.392   1.015
 8745TIP3   OH226177   2.315   0.776   6.525
 8745TIP3    H126178   2.259   0.821   6.589
 8745TIP3    H226179   2.269   0.787   6.442
 8746TIP3   OH226180   5.101   2.333   6.679
 8746TIP3    H126181   5.192   2.365   6.681
 8746TIP3    H226182   5.105   2.248   6.722
 8747TIP3   OH226183   1.203   4.522   2.995
 8747TIP3    H126184   1.247   4.577   3.060
 8747TIP3    H226185   1.110   4.546   3.003
 8748TIP3   OH226186   6.392   6.734   6.717
 8748TIP3    H126187   6.302   6.759   6.739
 8748TIP3    H226188   6.414   6.666   6.780
 8749TIP3   OH226189   3.754   2.604   2.508
 8749TIP3    H126190   3.800   2.521   2.505
 8749TIP3    H226191   3.822   2.670   2.493
 8750TIP3   OH226192   3.725   2.431   1.264
 8750TIP3    H126193   3.677   2.509   1.292
 8750TIP3    H226194   3.660   2.361   1.265
 8751TIP3   OH226195   2.809   6.668   0.133
 8751TIP3    H126196   2.825   6.673   0.038
 8751TIP3    H226197   2.737   6.605   0.141
 8752TIP3   OH226198   6.219   2.836   0.740
 8752TIP3    H126199   6.282   2.764   0.741
 8752TIP3    H226200   6.268   2.911   0.774
 8753TIP3   OH226201   4.533   6.583   4.508
 8753TIP3    H126202   4.600   6.638   4.547
 8753TIP3    H226203   4.534   6.605   4.415
 8754TIP3   OH226204   7.829   4.572   3.109
 8754TIP3    H126205   7.754   4.514   3.106
 8754TIP3    H226206   7.853   4.586   3.017
 8755TIP3   OH226207   6.785   2.473   3.984
 8755TIP3    H126208   6.735   2.537   3.933
 8755TIP3    H226209   6.754   2.485   4.074
 8756TIP3   OH226210   3.861   4.074   4.387
 8756TIP3    H126211   3.936   4.037   4.341
 8756TIP3    H226212   3.804   4.108   4.318
 8757TIP3   OH226213   1.070   2.058   3.618
 8757TIP3    H126214   1.014   2.112   3.563
 8757TIP3    H226215   1.130   2.119   3.659
 8758TIP3   OH226216   7.765   1.155   4.234
 8758TIP3    H126217   7.675   1.185   4.227
 8758TIP3    H226218   7.760   1.074   4.286
 8759TIP3   OH226219   3.681   5.489   2.556
 8759TIP3    H126220   3.738   5.542   2.501
 8759TIP3    H226221   3.672   5.406   2.508
 8760TIP3   OH226222   2.370   5.730   0.114
 8760TIP3    H126223   2.451   5.723   0.164
 8760TIP3    H226224   2.300   5.726   0.179
 8761TIP3   OH226225   8.038   6.577   6.432
 8761TIP3    H126226   8.056   6.485   6.409
 8761TIP3    H226227   8.121   6.609   6.467
 8762TIP3   OH226228   7.294   0.866   4.649
 8762TIP3    H126229   7.205   0.845   4.621
 8762TIP3    H226230   7.282   0.921   4.726
 8763TIP3   OH226231   6.585   3.067   1.468
 8763TIP3    H126232   6.623   3.148   1.502
 8763TIP3    H226233   6.655   3.028   1.416
 8764TIP3   OH226234   7.553   4.879   2.562
 8764TIP3    H126235   7.495   4.935   2.510
 8764TIP3    H226236   7.639   4.919   2.553
 8765TIP3   OH226237   3.272   1.486   5.525
 8765TIP3    H126238   3.221   1.427   5.582
 8765TIP3    H226239   3.295   1.559   5.582
 8766TIP3   OH226240   5.067   7.846   5.635
 8766TIP3    H126241   5.156   7.835   5.601
 8766TIP3    H226242   5.015   7.782   5.586
 8767TIP3   OH226243   4.422   5.915   6.088
 8767TIP3    H126244   4.450   5.847   6.149
 8767TIP3    H226245   4.440   5.879   6.002
 8768TIP3   OH226246   0.938   0.764   6.551
 8768TIP3    H126247   0.853   0.785   6.514
 8768TIP3    H226248   0.998   0.763   6.476
 8769TIP3   OH226249   6.857   0.130   6.448
 8769TIP3    H126250   6.803   0.177   6.384
 8769TIP3    H226251   6.944   0.128   6.408
 8770TIP3   OH226252   0.363   7.617   4.937
 8770TIP3    H126253   0.414   7.664   5.003
 8770TIP3    H226254   0.349   7.681   4.867
 8771TIP3   OH226255   1.473   0.782   6.118
 8771TIP3    H126256   1.411   0.853   6.100
 8771TIP3    H226257   1.525   0.774   6.038
 8772TIP3   OH226258   6.034   7.404   6.698
 8772TIP3    H126259   5.985   7.414   6.780
 8772TIP3    H226260   6.056   7.493   6.672
 8773TIP3   OH226261   3.228   4.297   1.741
 8773TIP3    H126262   3.260   4.369   1.795
 8773TIP3    H226263   3.160   4.255   1.794
 8774TIP3   OH226264   4.034   4.011   0.888
 8774TIP3    H126265   4.027   3.953   0.812
 8774TIP3    H226266   3.944   4.041   0.904
 8775TIP3   OH226267   3.840   0.909   6.337
 8775TIP3    H126268   3.879   0.837   6.287
 8775TIP3    H226269   3.915   0.959   6.370
 8776TIP3   OH226270   4.215   2.394   2.284
 8776TIP3    H126271   4.244   2.370   2.196
 8776TIP3    H226272   4.166   2.317   2.315
 8777TIP3   OH226273   0.682   2.761   3.339
 8777TIP3    H126274   0.613   2.798   3.394
 8777TIP3    H226275   0.655   2.780   3.249
 8778TIP3   OH226276   5.411   3.664   4.715
 8778TIP3    H126277   5.491   3.623   4.683
 8778TIP3    H226278   5.397   3.740   4.658
 8779TIP3   OH226279   7.039   6.715   1.620
 8779TIP3    H126280   7.063   6.672   1.703
 8779TIP3    H226281   7.120   6.755   1.589
 8780TIP3   OH226282   2.278   4.110   3.327
 8780TIP3    H126283   2.366   4.141   3.347
 8780TIP3    H226284   2.220   4.170   3.375
 8781TIP3   OH226285   2.310   5.131   3.561
 8781TIP3    H126286   2.401   5.100   3.561
 8781TIP3    H226287   2.306   5.195   3.490
 8782TIP3   OH226288   0.032   6.862   6.110
 8782TIP3    H126289   0.102   6.923   6.087
 8782TIP3    H226290   0.076   6.778   6.121
 8783TIP3   OH226291   7.262   3.520   0.674
 8783TIP3    H126292   7.220   3.579   0.612
 8783TIP3    H226293   7.352   3.511   0.642
 8784TIP3   OH226294   6.687   2.495   4.242
 8784TIP3    H126295   6.692   2.421   4.302
 8784TIP3    H226296   6.757   2.553   4.269
 8785TIP3   OH226297   0.009   4.349   1.996
 8785TIP3    H126298  -0.044   4.315   1.924
 8785TIP3    H226299   0.048   4.271   2.037
 8786TIP3   OH226300   0.500   0.922   5.696
 8786TIP3    H126301   0.470   0.870   5.771
 8786TIP3    H226302   0.596   0.918   5.702
 8787TIP3   OH226303   6.846   7.500   3.566
 8787TIP3    H126304   6.766   7.518   3.516
 8787TIP3    H226305   6.854   7.405   3.564
 8788TIP3   OH226306   4.352   6.917   0.809
 8788TIP3    H126307   4.265   6.878   0.816
 8788TIP3    H226308   4.410   6.852   0.850
 8789TIP3   OH226309   3.453   0.195   2.563
 8789TIP3    H126310   3.537   0.150   2.575
 8789TIP3    H226311   3.465   0.248   2.484
 8790TIP3   OH226312   5.248   4.914   4.284
 8790TIP3    H126313   5.241   5.004   4.252
 8790TIP3    H226314   5.204   4.862   4.217
 8791TIP3   OH226315   7.291   3.755   4.852
 8791TIP3    H126316   7.351   3.705   4.908
 8791TIP3    H226317   7.276   3.699   4.776
 8792TIP3   OH226318   1.991   6.135   1.786
 8792TIP3    H126319   2.033   6.114   1.870
 8792TIP3    H226320   1.916   6.076   1.781
 8793TIP3   OH226321   1.610   1.281   3.846
 8793TIP3    H126322   1.649   1.268   3.933
 8793TIP3    H226323   1.677   1.330   3.797
 8794TIP3   OH226324   7.273   6.280   0.459
 8794TIP3    H126325   7.231   6.279   0.373
 8794TIP3    H226326   7.205   6.251   0.520
 8795TIP3   OH226327   3.235   0.567   1.121
 8795TIP3    H126328   3.189   0.643   1.086
 8795TIP3    H226329   3.169   0.497   1.120
 8796TIP3   OH226330   4.540   5.103   5.070
 8796TIP3    H126331   4.446   5.125   5.072
 8796TIP3    H226332   4.542   5.008   5.087
 8797TIP3   OH226333   4.863   3.758   6.472
 8797TIP3    H126334   4.829   3.826   6.532
 8797TIP3    H226335   4.833   3.786   6.386
 8798TIP3   OH226336   0.663   4.330   0.961
 8798TIP3    H126337   0.634   4.265   0.897
 8798TIP3    H226338   0.676   4.280   1.042
 8799TIP3   OH226339   2.188   3.700   0.671
 8799TIP3    H126340   2.159   3.615   0.638
 8799TIP3    H226341   2.272   3.715   0.628
 8800TIP3   OH226342   1.959   5.989   6.552
 8800TIP3    H126343   1.948   5.939   6.472
 8800TIP3    H226344   2.034   5.949   6.596
 8801TIP3   OH226345   8.260   7.241   5.779
 8801TIP3    H126346   8.202   7.189   5.836
 8801TIP3    H226347   8.211   7.249   5.697
 8802TIP3   OH226348   6.796   7.021   6.197
 8802TIP3    H126349   6.778   6.967   6.121
 8802TIP3    H226350   6.766   7.108   6.173
 8803TIP3   OH226351   6.921   1.367   2.487
 8803TIP3    H126352   6.916   1.342   2.394
 8803TIP3    H226353   7.003   1.329   2.517
 8804TIP3   OH226354   5.384   6.581   5.478
 8804TIP3    H126355   5.379   6.505   5.536
 8804TIP3    H226356   5.444   6.556   5.409
 8805TIP3   OH226357   3.718   3.820   6.454
 8805TIP3    H126358   3.773   3.848   6.380
 8805TIP3    H226359   3.771   3.839   6.531
 8806TIP3   OH226360   2.842   2.884   4.657
 8806TIP3    H126361   2.937   2.869   4.662
 8806TIP3    H226362   2.804   2.817   4.713
 8807TIP3   OH226363   5.453   3.010   5.432
 8807TIP3    H126364   5.397   2.936   5.457
 8807TIP3    H226365   5.536   2.970   5.407
 8808TIP3   OH226366   6.878   5.652   0.723
 8808TIP3    H126367   6.965   5.657   0.684
 8808TIP3    H226368   6.856   5.559   0.720
 8809TIP3   OH226369   1.055   1.689   4.472
 8809TIP3    H126370   1.072   1.772   4.427
 8809TIP3    H226371   1.111   1.692   4.549
 8810TIP3   OH226372   4.908   0.970   6.113
 8810TIP3    H126373   4.973   0.996   6.047
 8810TIP3    H226374   4.902   0.875   6.105
 8811TIP3   OH226375   2.092   7.043   2.281
 8811TIP3    H126376   2.129   6.971   2.229
 8811TIP3    H226377   2.164   7.106   2.288
 8812TIP3   OH226378   4.885   0.482   3.988
 8812TIP3    H126379   4.883   0.390   3.964
 8812TIP3    H226380   4.827   0.489   4.063
 8813TIP3   OH226381   4.995   0.044   5.518
 8813TIP3    H126382   4.975  -0.044   5.487
 8813TIP3    H226383   5.047   0.030   5.597
 8814TIP3   OH226384   7.395   6.025   5.168
 8814TIP3    H126385   7.308   5.984   5.169
 8814TIP3    H226386   7.455   5.952   5.184
 8815TIP3   OH226387   4.640   4.922   2.612
 8815TIP3    H126388   4.664   4.894   2.700
 8815TIP3    H226389   4.643   5.017   2.615
 8816TIP3   OH226390   6.259   1.499   1.108
 8816TIP3    H126391   6.198   1.436   1.146
 8816TIP3    H226392   6.321   1.517   1.178
 8817TIP3   OH226393   4.218   7.496   4.756
 8817TIP3    H126394   4.129   7.466   4.776
 8817TIP3    H226395   4.234   7.566   4.819
 8818TIP3   OH226396   5.438   1.783   2.416
 8818TIP3    H126397   5.356   1.831   2.432
 8818TIP3    H226398   5.442   1.718   2.487
 8819TIP3   OH226399   4.165   3.885   0.603
 8819TIP3    H126400   4.240   3.835   0.636
 8819TIP3    H226401   4.088   3.837   0.633
 8820TIP3   OH226402   5.548   4.505   1.723
 8820TIP3    H126403   5.633   4.496   1.767
 8820TIP3    H226404   5.569   4.550   1.640
 8821TIP3   OH226405   7.155   3.318   5.650
 8821TIP3    H126406   7.209   3.328   5.728
 8821TIP3    H226407   7.100   3.396   5.649
 8822TIP3   OH226408   6.481   3.149   2.074
 8822TIP3    H126409   6.575   3.133   2.083
 8822TIP3    H226410   6.475   3.230   2.022
 8823TIP3   OH226411   0.867   2.674   3.550
 8823TIP3    H126412   0.796   2.616   3.576
 8823TIP3    H226413   0.862   2.678   3.455
 8824TIP3   OH226414   5.033   3.542   5.963
 8824TIP3    H126415   5.019   3.598   6.039
 8824TIP3    H226416   5.073   3.462   5.999
 8825TIP3   OH226417   8.175   1.973   1.888
 8825TIP3    H126418   8.175   1.879   1.873
 8825TIP3    H226419   8.131   1.984   1.973
 8826TIP3   OH226420   1.522   5.796   0.992
 8826TIP3    H126421   1.594   5.856   0.975
 8826TIP3    H226422   1.563   5.720   1.033
 8827TIP3   OH226423   0.954   6.748   2.600
 8827TIP3    H126424   0.966   6.654   2.612
 8827TIP3    H226425   0.943   6.782   2.689
 8828TIP3   OH226426   5.062   0.906   3.417
 8828TIP3    H126427   5.075   0.989   3.462
 8828TIP3    H226428   5.129   0.848   3.453
 8829TIP3   OH226429   5.382   1.306   3.630
 8829TIP3    H126430   5.332   1.345   3.558
 8829TIP3    H226431   5.435   1.239   3.588
 8830TIP3   OH226432   2.226   1.895   5.366
 8830TIP3    H126433   2.250   1.808   5.398
 8830TIP3    H226434   2.267   1.901   5.280
 8831TIP3   OH226435   4.730   4.697   1.399
 8831TIP3    H126436   4.739   4.628   1.334
 8831TIP3    H226437   4.819   4.710   1.433
 8832TIP3   OH226438   0.033   5.645   1.047
 8832TIP3    H126439   0.075   5.646   0.961
 8832TIP3    H226440  -0.053   5.685   1.032
 8833TIP3   OH226441   0.222   4.339   1.345
 8833TIP3    H126442   0.271   4.292   1.413
 8833TIP3    H226443   0.166   4.272   1.305
 8834TIP3   OH226444   0.413   0.991   3.138
 8834TIP3    H126445   0.339   0.990   3.078
 8834TIP3    H226446   0.379   0.954   3.220
 8835TIP3   OH226447   1.017   2.467   1.741
 8835TIP3    H126448   1.020   2.456   1.836
 8835TIP3    H226449   1.052   2.385   1.706
 8836TIP3   OH226450   1.986   5.073   2.610
 8836TIP3    H126451   2.037   5.127   2.670
 8836TIP3    H226452   1.987   5.120   2.527
 8837TIP3   OH226453   1.974   4.321   4.437
 8837TIP3    H126454   1.943   4.344   4.350
 8837TIP3    H226455   1.929   4.239   4.458
 8838TIP3   OH226456   3.435   7.318   1.330
 8838TIP3    H126457   3.406   7.405   1.300
 8838TIP3    H226458   3.376   7.297   1.402
 8839TIP3   OH226459   4.811   3.082   4.119
 8839TIP3    H126460   4.857   3.150   4.168
 8839TIP3    H226461   4.875   3.013   4.109
 8840TIP3   OH226462   7.842   4.710   2.537
 8840TIP3    H126463   7.866   4.761   2.459
 8840TIP3    H226464   7.916   4.723   2.597
 8841TIP3   OH226465   6.115   1.210   5.426
 8841TIP3    H126466   6.196   1.260   5.438
 8841TIP3    H226467   6.059   1.240   5.497
 8842TIP3   OH226468   1.823   0.957   5.491
 8842TIP3    H126469   1.900   1.014   5.498
 8842TIP3    H226470   1.859   0.872   5.466
 8843TIP3   OH226471   1.794   7.722   1.081
 8843TIP3    H126472   1.710   7.759   1.054
 8843TIP3    H226473   1.825   7.675   1.004
 8844TIP3   OH226474   0.778   5.621   6.285
 8844TIP3    H126475   0.774   5.528   6.262
 8844TIP3    H226476   0.762   5.668   6.204
 8845TIP3   OH226477   6.786   0.020   0.613
 8845TIP3    H126478   6.837   0.001   0.535
 8845TIP3    H226479   6.721   0.084   0.585
 8846TIP3   OH226480   3.048   2.022   3.894
 8846TIP3    H126481   2.973   1.987   3.846
 8846TIP3    H226482   3.094   2.075   3.831
 8847TIP3   OH226483   8.182   4.758   2.299
 8847TIP3    H126484   8.099   4.793   2.334
 8847TIP3    H226485   8.159   4.670   2.269
 8848TIP3   OH226486   4.253   4.429   4.459
 8848TIP3    H126487   4.269   4.412   4.366
 8848TIP3    H226488   4.161   4.455   4.463
 8849TIP3   OH226489   7.541   4.864   5.977
 8849TIP3    H126490   7.607   4.862   6.047
 8849TIP3    H226491   7.589   4.838   5.898
 8850TIP3   OH226492   0.856   2.828   0.368
 8850TIP3    H126493   0.864   2.923   0.382
 8850TIP3    H226494   0.937   2.792   0.404
 8851TIP3   OH226495   0.681   0.130   6.526
 8851TIP3    H126496   0.616   0.088   6.470
 8851TIP3    H226497   0.646   0.119   6.615
 8852TIP3   OH226498   2.566   4.771   3.075
 8852TIP3    H126499   2.633   4.773   3.143
 8852TIP3    H226500   2.484   4.782   3.121
 8853TIP3   OH226501   5.592   3.524   4.528
 8853TIP3    H126502   5.571   3.435   4.500
 8853TIP3    H226503   5.599   3.574   4.447
 8854TIP3   OH226504   5.492   0.796   3.473
 8854TIP3    H126505   5.483   0.853   3.549
 8854TIP3    H226506   5.514   0.855   3.401
 8855TIP3   OH226507   0.100   3.569   0.395
 8855TIP3    H126508   0.084   3.511   0.469
 8855TIP3    H226509   0.192   3.555   0.373
 8856TIP3   OH226510   5.133   6.349   6.091
 8856TIP3    H126511   5.158   6.424   6.038
 8856TIP3    H226512   5.164   6.370   6.180
 8857TIP3   OH226513   7.936   1.259   1.471
 8857TIP3    H126514   7.895   1.264   1.557
 8857TIP3    H226515   7.961   1.349   1.451
 8858TIP3   OH226516   5.962   3.048   4.175
 8858TIP3    H126517   5.869   3.061   4.196
 8858TIP3    H226518   5.979   2.957   4.199
 8859TIP3   OH226519   5.598   5.354   4.435
 8859TIP3    H126520   5.507   5.381   4.427
 8859TIP3    H226521   5.648   5.422   4.391
 8860TIP3   OH226522   5.970   3.445   3.745
 8860TIP3    H126523   5.906   3.381   3.774
 8860TIP3    H226524   5.947   3.462   3.653
 8861TIP3   OH226525   7.208   7.669   5.736
 8861TIP3    H126526   7.250   7.602   5.682
 8861TIP3    H226527   7.281   7.718   5.774
 8862TIP3   OH226528   2.906   7.530   4.621
 8862TIP3    H126529   2.859   7.586   4.683
 8862TIP3    H226530   2.974   7.488   4.674
 8863TIP3   OH226531   1.240   2.572   3.865
 8863TIP3    H126532   1.185   2.648   3.885
 8863TIP3    H226533   1.300   2.565   3.939
 8864TIP3   OH226534   7.615   5.882   3.982
 8864TIP3    H126535   7.635   5.819   3.913
 8864TIP3    H226536   7.558   5.946   3.940
 8865TIP3   OH226537   4.472   0.651   0.946
 8865TIP3    H126538   4.453   0.562   0.916
 8865TIP3    H226539   4.513   0.693   0.870
 8866TIP3   OH226540   7.738   2.911   1.576
 8866TIP3    H126541   7.828   2.934   1.551
 8866TIP3    H226542   7.717   2.972   1.647
 8867TIP3   OH226543   3.475   2.907   1.859
 8867TIP3    H126544   3.493   2.908   1.953
 8867TIP3    H226545   3.512   2.823   1.829
 8868TIP3   OH226546   5.594   0.932   4.816
 8868TIP3    H126547   5.611   0.960   4.726
 8868TIP3    H226548   5.674   0.952   4.864
 8869TIP3   OH226549   7.402  -0.016   6.761
 8869TIP3    H126550   7.496  -0.001   6.770
 8869TIP3    H226551   7.368   0.067   6.726
 8870TIP3   OH226552   1.953   5.212   6.100
 8870TIP3    H126553   2.013   5.262   6.044
 8870TIP3    H226554   1.964   5.122   6.071
 8871TIP3   OH226555   7.383   2.291   6.167
 8871TIP3    H126556   7.371   2.201   6.135
 8871TIP3    H226557   7.465   2.288   6.216
 8872TIP3   OH226558   3.460   4.113   5.396
 8872TIP3    H126559   3.473   4.208   5.395
 8872TIP3    H226560   3.548   4.077   5.385
 8873TIP3   OH226561   3.069   5.395   2.554
 8873TIP3    H126562   3.076   5.488   2.534
 8873TIP3    H226563   3.093   5.389   2.647
 8874TIP3   OH226564   3.964   2.730   3.316
 8874TIP3    H126565   4.030   2.791   3.348
 8874TIP3    H226566   3.929   2.689   3.395
 8875TIP3   OH226567   7.568   3.924   3.325
 8875TIP3    H126568   7.659   3.898   3.342
 8875TIP3    H226569   7.538   3.961   3.408
 8876TIP3   OH226570   6.998   2.620   1.992
 8876TIP3    H126571   7.048   2.583   1.919
 8876TIP3    H226572   7.064   2.643   2.057
 8877TIP3   OH226573   6.190   2.113   0.717
 8877TIP3    H126574   6.222   2.024   0.703
 8877TIP3    H226575   6.128   2.105   0.790
 8878TIP3   OH226576   2.064   0.326   5.432
 8878TIP3    H126577   2.113   0.271   5.371
 8878TIP3    H226578   1.994   0.269   5.464
 8879TIP3   OH226579   7.988   0.390   3.985
 8879TIP3    H126580   8.079   0.359   3.984
 8879TIP3    H226581   7.945   0.343   3.914
 8880TIP3   OH226582   6.394   1.054   6.503
 8880TIP3    H126583   6.473   1.099   6.472
 8880TIP3    H226584   6.366   1.000   6.429
 8881TIP3   OH226585   3.339   3.316   4.155
 8881TIP3    H126586   3.382   3.300   4.070
 8881TIP3    H226587   3.356   3.408   4.174
 8882TIP3   OH226588   5.203   4.702   0.881
 8882TIP3    H126589   5.111   4.705   0.854
 8882TIP3    H226590   5.242   4.781   0.844
 8883TIP3   OH226591   3.915   7.637   2.984
 8883TIP3    H126592   3.825   7.609   2.970
 8883TIP3    H226593   3.924   7.719   2.936
 8884TIP3   OH226594   4.370   2.455   4.410
 8884TIP3    H126595   4.286   2.484   4.447
 8884TIP3    H226596   4.396   2.381   4.465
 8885TIP3   OH226597   6.016   6.468   1.887
 8885TIP3    H126598   5.945   6.444   1.827
 8885TIP3    H226599   6.068   6.531   1.838
 8886TIP3   OH226600   7.283   2.043   3.433
 8886TIP3    H126601   7.373   2.066   3.410
 8886TIP3    H226602   7.257   1.978   3.368
 8887TIP3   OH226603   4.068   5.518   0.271
 8887TIP3    H126604   4.105   5.578   0.336
 8887TIP3    H226605   3.983   5.558   0.249
 8888TIP3   OH226606   8.243   1.402   4.367
 8888TIP3    H126607   8.198   1.318   4.368
 8888TIP3    H226608   8.255   1.424   4.460
 8889TIP3   OH226609   6.474   3.476   3.115
 8889TIP3    H126610   6.448   3.512   3.030
 8889TIP3    H226611   6.550   3.421   3.095
 8890TIP3   OH226612   4.749   6.740   4.568
 8890TIP3    H126613   4.814   6.810   4.571
 8890TIP3    H226614   4.797   6.661   4.592
 8891TIP3   OH226615   5.232   5.580   0.992
 8891TIP3    H126616   5.211   5.579   1.085
 8891TIP3    H226617   5.327   5.579   0.988
 8892TIP3   OH226618   0.286   2.980   3.986
 8892TIP3    H126619   0.192   2.984   4.003
 8892TIP3    H226620   0.304   2.888   3.968
 8893TIP3   OH226621   5.063   4.615   5.073
 8893TIP3    H126622   5.050   4.592   5.165
 8893TIP3    H226623   5.136   4.678   5.075
 8894TIP3   OH226624   2.257   7.486   1.829
 8894TIP3    H126625   2.276   7.562   1.774
 8894TIP3    H226626   2.235   7.524   1.914
 8895TIP3   OH226627   3.417   3.492   3.535
 8895TIP3    H126628   3.497   3.504   3.586
 8895TIP3    H226629   3.362   3.567   3.559
 8896TIP3   OH226630   7.413   5.323   3.693
 8896TIP3    H126631   7.387   5.347   3.604
 8896TIP3    H226632   7.376   5.235   3.706
 8897TIP3   OH226633   2.397   1.816   3.085
 8897TIP3    H126634   2.366   1.896   3.043
 8897TIP3    H226635   2.492   1.820   3.079
 8898TIP3   OH226636   7.168   6.600   1.835
 8898TIP3    H126637   7.262   6.605   1.851
 8898TIP3    H226638   7.136   6.540   1.902
 8899TIP3   OH226639   2.942   6.463   2.841
 8899TIP3    H126640   2.899   6.399   2.784
 8899TIP3    H226641   3.035   6.438   2.837
 8900TIP3   OH226642   8.185   5.927   1.477
 8900TIP3    H126643   8.120   5.922   1.406
 8900TIP3    H226644   8.217   5.838   1.486
 8901TIP3   OH226645   7.412   6.401   4.357
 8901TIP3    H126646   7.434   6.321   4.405
 8901TIP3    H226647   7.497   6.438   4.333
 8902TIP3   OH226648   5.223   3.389   4.220
 8902TIP3    H126649   5.137   3.347   4.217
 8902TIP3    H226650   5.205   3.477   4.254
 8903TIP3   OH226651   2.243   1.275   1.789
 8903TIP3    H126652   2.229   1.195   1.739
 8903TIP3    H226653   2.269   1.244   1.876
 8904TIP3   OH226654   2.016   3.070   1.480
 8904TIP3    H126655   1.932   3.057   1.525
 8904TIP3    H226656   2.042   3.159   1.505
 8905TIP3   OH226657   1.456   2.898   3.312
 8905TIP3    H126658   1.461   2.803   3.303
 8905TIP3    H226659   1.402   2.912   3.390
 8906TIP3   OH226660   4.786   0.640   6.044
 8906TIP3    H126661   4.809   0.561   5.996
 8906TIP3    H226662   4.835   0.634   6.126
 8907TIP3   OH226663   1.342   2.396   3.529
 8907TIP3    H126664   1.426   2.441   3.527
 8907TIP3    H226665   1.317   2.387   3.437
 8908TIP3   OH226666   7.224   3.146   6.104
 8908TIP3    H126667   7.229   3.186   6.191
 8908TIP3    H226668   7.148   3.088   6.109
 8909TIP3   OH226669   7.346   2.964   1.516
 8909TIP3    H126670   7.260   2.988   1.484
 8909TIP3    H226671   7.330   2.935   1.606
 8910TIP3   OH226672   0.008   7.800   5.654
 8910TIP3    H126673   0.049   7.883   5.629
 8910TIP3    H226674   0.000   7.752   5.572
 8911TIP3   OH226675   2.247   2.000   0.734
 8911TIP3    H126676   2.159   2.034   0.721
 8911TIP3    H226677   2.304   2.077   0.726
 8912TIP3   OH226678   6.625   6.849   6.631
 8912TIP3    H126679   6.550   6.807   6.674
 8912TIP3    H226680   6.647   6.922   6.688
 8913TIP3   OH226681   5.898   5.577   5.073
 8913TIP3    H126682   5.956   5.653   5.077
 8913TIP3    H226683   5.813   5.613   5.047
 8914TIP3   OH226684   2.755   4.448   0.955
 8914TIP3    H126685   2.817   4.509   0.996
 8914TIP3    H226686   2.736   4.486   0.869
 8915TIP3   OH226687   0.481   3.345   3.933
 8915TIP3    H126688   0.427   3.267   3.917
 8915TIP3    H226689   0.421   3.407   3.974
 8916TIP3   OH226690   5.835   2.436   2.759
 8916TIP3    H126691   5.908   2.416   2.818
 8916TIP3    H226692   5.814   2.528   2.776
 8917TIP3   OH226693   7.578   7.155   5.970
 8917TIP3    H126694   7.484   7.137   5.975
 8917TIP3    H226695   7.617   7.071   5.947
 8918TIP3   OH226696   5.842   4.228   2.358
 8918TIP3    H126697   5.882   4.159   2.410
 8918TIP3    H226698   5.770   4.186   2.312
 8919TIP3   OH226699   3.059   5.371   5.208
 8919TIP3    H126700   2.994   5.425   5.164
 8919TIP3    H226701   3.101   5.431   5.271
 8920TIP3   OH226702   4.287   5.717   6.404
 8920TIP3    H126703   4.203   5.761   6.387
 8920TIP3    H226704   4.301   5.728   6.498
 8921TIP3   OH226705   1.120   6.923   4.740
 8921TIP3    H126706   1.051   6.867   4.777
 8921TIP3    H226707   1.108   7.007   4.783
 8922TIP3   OH226708   6.610   7.156   1.672
 8922TIP3    H126709   6.667   7.099   1.620
 8922TIP3    H226710   6.642   7.244   1.654
 8923TIP3   OH226711   1.512   0.898   3.038
 8923TIP3    H126712   1.541   0.902   2.947
 8923TIP3    H226713   1.582   0.941   3.087
 8924TIP3   OH226714   0.366   6.845   0.494
 8924TIP3    H126715   0.362   6.761   0.539
 8924TIP3    H226716   0.414   6.828   0.414
 8925TIP3   OH226717   2.775   3.161   6.081
 8925TIP3    H126718   2.823   3.122   6.154
 8925TIP3    H226719   2.830   3.234   6.052
 8926TIP3   OH226720   5.390   1.043   6.609
 8926TIP3    H126721   5.311   1.067   6.561
 8926TIP3    H226722   5.395   0.948   6.601
 8927TIP3   OH226723   2.432   2.695   4.487
 8927TIP3    H126724   2.405   2.635   4.418
 8927TIP3    H226725   2.528   2.694   4.485
 8928TIP3   OH226726   6.628   5.152   0.973
 8928TIP3    H126727   6.709   5.110   0.945
 8928TIP3    H226728   6.638   5.163   1.068
 8929TIP3   OH226729   6.594   4.999   4.504
 8929TIP3    H126730   6.612   4.980   4.412
 8929TIP3    H226731   6.679   5.024   4.540
 8930TIP3   OH226732   0.029   0.560   6.319
 8930TIP3    H126733   0.075   0.589   6.398
 8930TIP3    H226734   0.084   0.589   6.247
 8931TIP3   OH226735   1.941   6.444   3.341
 8931TIP3    H126736   1.943   6.522   3.396
 8931TIP3    H226737   1.849   6.421   3.334
 8932TIP3   OH226738   6.732   2.952   1.782
 8932TIP3    H126739   6.643   2.967   1.749
 8932TIP3    H226740   6.752   3.030   1.833
 8933TIP3   OH226741   1.836   4.304   4.785
 8933TIP3    H126742   1.884   4.330   4.863
 8933TIP3    H226743   1.815   4.212   4.798
 8934TIP3   OH226744   0.327   0.061   1.054
 8934TIP3    H126745   0.275   0.123   1.004
 8934TIP3    H226746   0.340  -0.013   0.995
 8935TIP3   OH226747   2.809   1.265   2.470
 8935TIP3    H126748   2.785   1.278   2.379
 8935TIP3    H226749   2.788   1.348   2.513
 8936TIP3   OH226750   2.925   3.159   6.598
 8936TIP3    H126751   3.005   3.209   6.615
 8936TIP3    H226752   2.926   3.089   6.663
 8937TIP3   OH226753   0.657   5.758   2.538
 8937TIP3    H126754   0.726   5.704   2.578
 8937TIP3    H226755   0.609   5.794   2.613
 8938TIP3   OH226756   1.725   2.863   0.586
 8938TIP3    H126757   1.630   2.856   0.591
 8938TIP3    H226758   1.741   2.933   0.522
 8939TIP3   OH226759   4.632   1.629   5.410
 8939TIP3    H126760   4.592   1.623   5.324
 8939TIP3    H226761   4.561   1.609   5.471
 8940TIP3   OH226762   7.463   0.704   1.812
 8940TIP3    H126763   7.466   0.798   1.794
 8940TIP3    H226764   7.391   0.672   1.758
 8941TIP3   OH226765   1.258   2.798   2.586
 8941TIP3    H126766   1.345   2.784   2.549
 8941TIP3    H226767   1.215   2.857   2.524
 8942TIP3   OH226768   6.131   6.640   6.136
 8942TIP3    H126769   6.192   6.647   6.210
 8942TIP3    H226770   6.074   6.566   6.158
 8943TIP3   OH226771   3.927   4.185   1.699
 8943TIP3    H126772   3.865   4.163   1.769
 8943TIP3    H226773   3.906   4.275   1.675
 8944TIP3   OH226774   7.432   2.987   1.126
 8944TIP3    H126775   7.360   2.973   1.065
 8944TIP3    H226776   7.479   2.903   1.127
 8945TIP3   OH226777   2.534   3.571   1.153
 8945TIP3    H126778   2.540   3.627   1.076
 8945TIP3    H226779   2.541   3.482   1.119
 8946TIP3   OH226780   7.583   7.558   5.276
 8946TIP3    H126781   7.651   7.501   5.242
 8946TIP3    H226782   7.505   7.535   5.225
 8947TIP3   OH226783   1.499   2.764   2.431
 8947TIP3    H126784   1.532   2.679   2.461
 8947TIP3    H226785   1.454   2.745   2.349
 8948TIP3   OH226786   3.096   3.268   2.560
 8948TIP3    H126787   3.014   3.234   2.596
 8948TIP3    H226788   3.090   3.251   2.466
 8949TIP3   OH226789   4.821   7.148   5.525
 8949TIP3    H126790   4.828   7.242   5.508
 8949TIP3    H226791   4.730   7.135   5.552
 8950TIP3   OH226792   2.863   1.541   1.795
 8950TIP3    H126793   2.847   1.516   1.705
 8950TIP3    H226794   2.831   1.631   1.801
 8951TIP3   OH226795   7.400   2.766   3.847
 8951TIP3    H126796   7.494   2.760   3.864
 8951TIP3    H226797   7.394   2.812   3.763
 8952TIP3   OH226798   6.755   5.366   5.136
 8952TIP3    H126799   6.761   5.344   5.229
 8952TIP3    H226800   6.841   5.345   5.101
 8953TIP3   OH226801   1.457   5.599   1.369
 8953TIP3    H126802   1.420   5.683   1.342
 8953TIP3    H226803   1.396   5.533   1.336
 8954TIP3   OH226804   0.481   7.159   3.800
 8954TIP3    H126805   0.544   7.210   3.749
 8954TIP3    H226806   0.395   7.188   3.768
 8955TIP3   OH226807   7.331   6.269   5.849
 8955TIP3    H126808   7.409   6.269   5.905
 8955TIP3    H226809   7.326   6.180   5.815
 8956TIP3   OH226810   7.010   0.869   3.363
 8956TIP3    H126811   6.922   0.857   3.328
 8956TIP3    H226812   7.044   0.946   3.317
 8957TIP3   OH226813   3.420   6.199   1.689
 8957TIP3    H126814   3.510   6.170   1.673
 8957TIP3    H226815   3.425   6.294   1.682
 8958TIP3   OH226816   3.990   4.742   5.945
 8958TIP3    H126817   3.924   4.679   5.916
 8958TIP3    H226818   3.939   4.814   5.983
 8959TIP3   OH226819   3.103   0.576   0.129
 8959TIP3    H126820   3.182   0.629   0.135
 8959TIP3    H226821   3.134   0.486   0.137
 8960TIP3   OH226822   2.534   3.264   0.513
 8960TIP3    H126823   2.571   3.178   0.495
 8960TIP3    H226824   2.609   3.323   0.513
 8961TIP3   OH226825   3.907   5.352   4.894
 8961TIP3    H126826   3.921   5.445   4.914
 8961TIP3    H226827   3.816   5.336   4.919
 8962TIP3   OH226828   7.081   6.415   2.013
 8962TIP3    H126829   7.013   6.350   1.994
 8962TIP3    H226830   7.157   6.364   2.039
 8963TIP3   OH226831   5.595   2.321   4.640
 8963TIP3    H126832   5.640   2.249   4.596
 8963TIP3    H226833   5.525   2.279   4.690
 8964TIP3   OH226834   6.138   4.578   4.469
 8964TIP3    H126835   6.211   4.516   4.479
 8964TIP3    H226836   6.065   4.536   4.515
 8965TIP3   OH226837   1.560   5.270   6.104
 8965TIP3    H126838   1.611   5.331   6.050
 8965TIP3    H226839   1.515   5.326   6.167
 8966TIP3   OH226840   0.317   4.250   3.789
 8966TIP3    H126841   0.295   4.185   3.721
 8966TIP3    H226842   0.364   4.200   3.855
 8967TIP3   OH226843   0.255   0.875   0.977
 8967TIP3    H126844   0.218   0.828   0.902
 8967TIP3    H226845   0.287   0.806   1.036
 8968TIP3   OH226846   1.365   6.593   4.427
 8968TIP3    H126847   1.292   6.604   4.487
 8968TIP3    H226848   1.411   6.516   4.459
 8969TIP3   OH226849   5.020   6.375   3.675
 8969TIP3    H126850   4.988   6.285   3.662
 8969TIP3    H226851   4.957   6.413   3.736
 8970TIP3   OH226852   0.561   6.618   5.072
 8970TIP3    H126853   0.560   6.554   5.143
 8970TIP3    H226854   0.469   6.631   5.049
 8971TIP3   OH226855   1.130   3.121   2.411
 8971TIP3    H126856   1.112   3.029   2.393
 8971TIP3    H226857   1.226   3.128   2.404
 8972TIP3   OH226858   3.825   2.959   5.754
 8972TIP3    H126859   3.827   2.923   5.666
 8972TIP3    H226860   3.868   2.893   5.808
 8973TIP3   OH226861   4.277   6.981   4.475
 8973TIP3    H126862   4.365   6.984   4.513
 8973TIP3    H226863   4.219   6.963   4.550
 8974TIP3   OH226864   0.851   0.586   4.497
 8974TIP3    H126865   0.841   0.579   4.402
 8974TIP3    H226866   0.908   0.662   4.509
 8975TIP3   OH226867   3.948   1.483   5.701
 8975TIP3    H126868   3.916   1.397   5.727
 8975TIP3    H226869   4.026   1.464   5.648
 8976TIP3   OH226870   6.459   1.257   3.849
 8976TIP3    H126871   6.533   1.199   3.834
 8976TIP3    H226872   6.421   1.227   3.931
 8977TIP3   OH226873   6.934   2.378   3.047
 8977TIP3    H126874   6.993   2.359   2.974
 8977TIP3    H226875   6.952   2.309   3.111
 8978TIP3   OH226876   6.779   5.847   5.570
 8978TIP3    H126877   6.859   5.896   5.587
 8978TIP3    H226878   6.736   5.895   5.500
 8979TIP3   OH226879   5.515   5.571   5.767
 8979TIP3    H126880   5.524   5.620   5.685
 8979TIP3    H226881   5.511   5.480   5.740
 8980TIP3   OH226882   1.102   2.028   5.556
 8980TIP3    H126883   1.172   1.966   5.536
 8980TIP3    H226884   1.068   2.054   5.470
 8981TIP3   OH226885   2.868   0.715   6.681
 8981TIP3    H126886   2.923   0.679   6.611
 8981TIP3    H226887   2.927   0.772   6.730
 8982TIP3   OH226888   6.697   0.578   0.782
 8982TIP3    H126889   6.741   0.611   0.861
 8982TIP3    H226890   6.757   0.512   0.747
 8983TIP3   OH226891   2.789   2.109   2.765
 8983TIP3    H126892   2.811   2.152   2.682
 8983TIP3    H226893   2.874   2.098   2.808
 8984TIP3   OH226894   6.637   2.101   6.372
 8984TIP3    H126895   6.653   2.071   6.283
 8984TIP3    H226896   6.652   2.195   6.369
 8985TIP3   OH226897   0.246   1.153   0.219
 8985TIP3    H126898   0.271   1.202   0.141
 8985TIP3    H226899   0.184   1.088   0.188
 8986TIP3   OH226900   2.297   1.408   0.632
 8986TIP3    H126901   2.232   1.456   0.580
 8986TIP3    H226902   2.258   1.322   0.647
 8987TIP3   OH226903   5.015   6.179   0.270
 8987TIP3    H126904   5.061   6.158   0.352
 8987TIP3    H226905   4.995   6.094   0.231
 8988TIP3   OH226906   5.663   3.520   4.968
 8988TIP3    H126907   5.712   3.507   4.887
 8988TIP3    H226908   5.586   3.464   4.959
 8989TIP3   OH226909   0.202   2.245   5.163
 8989TIP3    H126910   0.182   2.240   5.257
 8989TIP3    H226911   0.139   2.309   5.129
 8990TIP3   OH226912   1.339   3.999   0.120
 8990TIP3    H126913   1.295   3.925   0.078
 8990TIP3    H226914   1.396   4.035   0.052
 8991TIP3   OH226915   2.093   3.825   1.667
 8991TIP3    H126916   2.091   3.732   1.690
 8991TIP3    H226917   2.047   3.868   1.739
 8992TIP3   OH226918   6.590   4.005   2.565
 8992TIP3    H126919   6.560   3.941   2.500
 8992TIP3    H226920   6.595   4.087   2.517
 8993TIP3   OH226921   2.940   7.028   6.295
 8993TIP3    H126922   2.895   7.000   6.216
 8993TIP3    H226923   3.033   7.016   6.275
 8994TIP3   OH226924   3.095   3.330   4.533
 8994TIP3    H126925   3.025   3.328   4.598
 8994TIP3    H226926   3.115   3.423   4.523
 8995TIP3   OH226927   7.607   3.251   6.117
 8995TIP3    H126928   7.664   3.275   6.044
 8995TIP3    H226929   7.575   3.164   6.095
 8996TIP3   OH226930   7.038   3.563   5.619
 8996TIP3    H126931   7.080   3.586   5.535
 8996TIP3    H226932   7.080   3.621   5.683
 8997TIP3   OH226933   3.335   7.597   3.102
 8997TIP3    H126934   3.317   7.690   3.119
 8997TIP3    H226935   3.332   7.590   3.006
 8998TIP3   OH226936   2.423   0.419   3.362
 8998TIP3    H126937   2.462   0.455   3.442
 8998TIP3    H226938   2.348   0.476   3.344
 8999TIP3   OH226939   6.271   3.863   4.277
 8999TIP3    H126940   6.205   3.847   4.344
 8999TIP3    H226941   6.229   3.833   4.196
 9000TIP3   OH226942   4.323   3.929   3.864
 9000TIP3    H126943   4.266   3.902   3.793
 9000TIP3    H226944   4.269   3.987   3.918
 9001TIP3   OH226945   5.304   1.450   4.994
 9001TIP3    H126946   5.312   1.355   4.983
 9001TIP3    H226947   5.246   1.477   4.922
 9002TIP3   OH226948   6.106   3.003   0.110
 9002TIP3    H126949   6.181   2.947   0.133
 9002TIP3    H226950   6.055   2.950   0.049
 9003TIP3   OH226951   8.133   6.967   2.199
 9003TIP3    H126952   8.198   7.003   2.139
 9003TIP3    H226953   8.169   6.883   2.227
 9004TIP3   OH226954   0.149   6.022   3.283
 9004TIP3    H126955   0.148   5.927   3.268
 9004TIP3    H226956   0.063   6.051   3.254
 9005TIP3   OH226957   7.403   7.265   0.411
 9005TIP3    H126958   7.421   7.344   0.359
 9005TIP3    H226959   7.471   7.203   0.385
 9006TIP3   OH226960   4.737   5.721   3.553
 9006TIP3    H126961   4.711   5.809   3.523
 9006TIP3    H226962   4.771   5.678   3.474
 9007TIP3   OH226963   0.965   3.205   6.141
 9007TIP3    H126964   1.022   3.268   6.184
 9007TIP3    H226965   0.922   3.158   6.212
 9008TIP3   OH226966   2.687   6.705   5.366
 9008TIP3    H126967   2.611   6.725   5.421
 9008TIP3    H226968   2.741   6.784   5.370
 9009TIP3   OH226969   7.528   2.735   5.453
 9009TIP3    H126970   7.529   2.797   5.380
 9009TIP3    H226971   7.464   2.669   5.428
 9010TIP3   OH226972   6.809   0.330   4.806
 9010TIP3    H126973   6.743   0.313   4.872
 9010TIP3    H226974   6.760   0.362   4.730
 9011TIP3   OH226975   3.485   2.948   2.998
 9011TIP3    H126976   3.567   2.959   2.950
 9011TIP3    H226977   3.502   2.986   3.084
 9012TIP3   OH226978   7.085   2.410   3.390
 9012TIP3    H126979   7.095   2.316   3.405
 9012TIP3    H226980   7.046   2.443   3.471
 9013TIP3   OH226981   5.979   4.746   6.183
 9013TIP3    H126982   6.049   4.708   6.235
 9013TIP3    H226983   5.918   4.781   6.248
 9014TIP3   OH226984   3.593   3.673   3.202
 9014TIP3    H126985   3.531   3.602   3.183
 9014TIP3    H226986   3.570   3.742   3.140
 9015TIP3   OH226987   2.515   6.780   0.956
 9015TIP3    H126988   2.511   6.873   0.981
 9015TIP3    H226989   2.423   6.752   0.954
 9016TIP3   OH226990   2.917   3.570   1.305
 9016TIP3    H126991   2.969   3.532   1.376
 9016TIP3    H226992   2.854   3.627   1.349
 9017TIP3   OH226993   3.205   4.758   6.158
 9017TIP3    H126994   3.191   4.829   6.221
 9017TIP3    H226995   3.127   4.759   6.103
 9018TIP3   OH226996   4.973   7.338   1.155
 9018TIP3    H126997   4.974   7.424   1.113
 9018TIP3    H226998   5.026   7.348   1.233
 9019TIP3   OH226999   2.810   2.297   6.259
 9019TIP3    H127000   2.772   2.224   6.211
 9019TIP3    H227001   2.742   2.322   6.322
 9020TIP3   OH227002   3.885   2.250   4.641
 9020TIP3    H127003   3.862   2.175   4.585
 9020TIP3    H227004   3.973   2.230   4.671
 9021TIP3   OH227005   7.372   1.759   1.985
 9021TIP3    H127006   7.303   1.757   2.052
 9021TIP3    H227007   7.405   1.669   1.983
 9022TIP3   OH227008   1.739   4.521   6.537
 9022TIP3    H127009   1.645   4.533   6.552
 9022TIP3    H227010   1.747   4.521   6.441
 9023TIP3   OH227011   2.523   7.308   4.637
 9023TIP3    H127012   2.436   7.332   4.606
 9023TIP3    H227013   2.582   7.334   4.566
 9024TIP3   OH227014   3.188   1.848   2.130
 9024TIP3    H127015   3.143   1.765   2.146
 9024TIP3    H227016   3.139   1.888   2.058
 9025TIP3   OH227017   5.801   0.197   5.062
 9025TIP3    H127018   5.762   0.246   4.990
 9025TIP3    H227019   5.767   0.108   5.052
 9026TIP3   OH227020   6.394   0.124   3.568
 9026TIP3    H127021   6.333   0.101   3.638
 9026TIP3    H227022   6.466   0.168   3.612
 9027TIP3   OH227023   4.708   3.169   0.213
 9027TIP3    H127024   4.731   3.099   0.152
 9027TIP3    H227025   4.656   3.230   0.161
 9028TIP3   OH227026   3.125   4.890   3.170
 9028TIP3    H127027   3.154   4.914   3.258
 9028TIP3    H227028   3.139   4.795   3.165
 9029TIP3   OH227029   5.311   5.594   2.418
 9029TIP3    H127030   5.359   5.530   2.365
 9029TIP3    H227031   5.301   5.670   2.361
 9030TIP3   OH227032   0.873   1.069   0.716
 9030TIP3    H127033   0.858   1.037   0.627
 9030TIP3    H227034   0.804   1.134   0.729
 9031TIP3   OH227035   1.942   6.039   3.578
 9031TIP3    H127036   1.944   6.052   3.673
 9031TIP3    H227037   2.029   6.066   3.549
 9032TIP3   OH227038   0.697   7.687   4.210
 9032TIP3    H127039   0.605   7.677   4.236
 9032TIP3    H227040   0.734   7.745   4.277
 9033TIP3   OH227041   4.727   2.802   2.064
 9033TIP3    H127042   4.779   2.847   1.997
 9033TIP3    H227043   4.636   2.824   2.042
 9034TIP3   OH227044   2.443   4.958   4.460
 9034TIP3    H127045   2.536   4.940   4.473
 9034TIP3    H227046   2.404   4.953   4.547
 9035TIP3   OH227047   3.879   6.794   0.181
 9035TIP3    H127048   3.934   6.718   0.161
 9035TIP3    H227049   3.940   6.863   0.203
 9036TIP3   OH227050   5.099   5.753   3.471
 9036TIP3    H127051   5.065   5.704   3.546
 9036TIP3    H227052   5.113   5.686   3.404
 9037TIP3   OH227053   6.043   5.920   3.883
 9037TIP3    H127054   6.100   5.866   3.938
 9037TIP3    H227055   6.053   6.009   3.918
 9038TIP3   OH227056   6.468   3.015   6.619
 9038TIP3    H127057   6.476   2.920   6.625
 9038TIP3    H227058   6.447   3.032   6.527
 9039TIP3   OH227059   4.535   6.224   1.017
 9039TIP3    H127060   4.534   6.130   1.004
 9039TIP3    H227061   4.562   6.260   0.932
 9040TIP3   OH227062   5.595   7.421   0.603
 9040TIP3    H127063   5.507   7.390   0.626
 9040TIP3    H227064   5.589   7.517   0.610
 9041TIP3   OH227065   3.930   6.514   1.043
 9041TIP3    H127066   3.886   6.599   1.038
 9041TIP3    H227067   3.966   6.512   1.132
 9042TIP3   OH227068   3.042   2.090   2.852
 9042TIP3    H127069   3.110   2.156   2.849
 9042TIP3    H227070   3.044   2.048   2.766
 9043TIP3   OH227071   6.338   4.043   2.324
 9043TIP3    H127072   6.397   4.118   2.314
 9043TIP3    H227073   6.268   4.076   2.381
 9044TIP3   OH227074   1.913   6.146   1.021
 9044TIP3    H127075   1.857   6.070   1.008
 9044TIP3    H227076   1.886   6.207   0.952
 9045TIP3   OH227077   1.345   7.268   4.130
 9045TIP3    H127078   1.355   7.174   4.116
 9045TIP3    H227079   1.435   7.300   4.142
 9046TIP3   OH227080   1.647   7.478   2.394
 9046TIP3    H127081   1.713   7.460   2.460
 9046TIP3    H227082   1.575   7.520   2.442
 9047TIP3   OH227083   1.698   3.532   0.570
 9047TIP3    H127084   1.701   3.622   0.539
 9047TIP3    H227085   1.733   3.480   0.497
 9048TIP3   OH227086   2.509   0.647   4.188
 9048TIP3    H127087   2.495   0.730   4.142
 9048TIP3    H227088   2.557   0.593   4.125
 9049TIP3   OH227089   6.662   4.709   2.665
 9049TIP3    H127090   6.598   4.712   2.736
 9049TIP3    H227091   6.616   4.664   2.594
 9050TIP3   OH227092   0.232   0.668   6.536
 9050TIP3    H127093   0.299   0.736   6.522
 9050TIP3    H227094   0.272   0.609   6.601
 9051TIP3   OH227095   2.797   6.296   0.961
 9051TIP3    H127096   2.760   6.377   0.927
 9051TIP3    H227097   2.754   6.227   0.911
 9052TIP3   OH227098   3.455   4.259   3.405
 9052TIP3    H127099   3.397   4.271   3.480
 9052TIP3    H227100   3.405   4.295   3.331
 9053TIP3   OH227101   0.963   6.883   1.252
 9053TIP3    H127102   0.917   6.799   1.254
 9053TIP3    H227103   0.923   6.931   1.180
 9054TIP3   OH227104   1.650   4.845   2.416
 9054TIP3    H127105   1.563   4.816   2.388
 9054TIP3    H227106   1.651   4.939   2.398
 9055TIP3   OH227107   5.011   6.740   4.961
 9055TIP3    H127108   5.014   6.645   4.952
 9055TIP3    H227109   4.919   6.763   4.945
 9056TIP3   OH227110   7.018   3.636   2.156
 9056TIP3    H127111   6.967   3.717   2.159
 9056TIP3    H227112   7.003   3.601   2.068
 9057TIP3   OH227113   7.832   1.841   1.026
 9057TIP3    H127114   7.804   1.927   1.056
 9057TIP3    H227115   7.864   1.856   0.937
 9058TIP3   OH227116   3.493   2.981   5.686
 9058TIP3    H127117   3.444   3.056   5.721
 9058TIP3    H227118   3.544   3.018   5.614
 9059TIP3   OH227119   1.620   5.916   2.561
 9059TIP3    H127120   1.705   5.878   2.581
 9059TIP3    H227121   1.639   5.995   2.511
 9060TIP3   OH227122   4.906   4.233   2.738
 9060TIP3    H127123   4.844   4.170   2.777
 9060TIP3    H227124   4.961   4.179   2.681
 9061TIP3   OH227125   0.911   5.204   6.271
 9061TIP3    H127126   0.973   5.228   6.340
 9061TIP3    H227127   0.951   5.129   6.228
 9062TIP3   OH227128   2.457   6.395   2.335
 9062TIP3    H127129   2.400   6.471   2.348
 9062TIP3    H227130   2.400   6.329   2.297
 9063TIP3   OH227131   7.741   5.509   6.473
 9063TIP3    H127132   7.721   5.587   6.525
 9063TIP3    H227133   7.742   5.540   6.383
 9064TIP3   OH227134   4.127   3.415   2.838
 9064TIP3    H127135   4.119   3.474   2.763
 9064TIP3    H227136   4.133   3.473   2.914
 9065TIP3   OH227137   4.195   6.469   4.860
 9065TIP3    H127138   4.254   6.527   4.812
 9065TIP3    H227139   4.110   6.512   4.854
 9066TIP3   OH227140   7.624   0.967   3.724
 9066TIP3    H127141   7.598   0.951   3.815
 9066TIP3    H227142   7.651   1.059   3.722
 9067TIP3   OH227143   5.975   6.048   5.347
 9067TIP3    H127144   5.902   6.033   5.287
 9067TIP3    H227145   6.053   6.030   5.294
 9068TIP3   OH227146   0.083   5.930   2.882
 9068TIP3    H127147   0.032   5.890   2.952
 9068TIP3    H227148   0.173   5.931   2.915
 9069TIP3   OH227149   1.307   3.610   1.701
 9069TIP3    H127150   1.385   3.619   1.647
 9069TIP3    H227151   1.239   3.582   1.640
 9070TIP3   OH227152   1.692   4.228   4.160
 9070TIP3    H127153   1.770   4.280   4.182
 9070TIP3    H227154   1.626   4.293   4.135
 9071TIP3   OH227155   2.456   7.030   1.762
 9071TIP3    H127156   2.401   7.096   1.719
 9071TIP3    H227157   2.393   6.965   1.794
 9072TIP3   OH227158   8.139   3.973   2.548
 9072TIP3    H127159   8.207   3.948   2.610
 9072TIP3    H227160   8.093   3.892   2.528
 9073TIP3   OH227161   6.930   5.410   2.376
 9073TIP3    H127162   6.902   5.396   2.286
 9073TIP3    H227163   7.022   5.433   2.370
 9074TIP3   OH227164   8.241   2.381   3.485
 9074TIP3    H127165   8.321   2.337   3.458
 9074TIP3    H227166   8.177   2.311   3.497
 9075TIP3   OH227167   2.810   7.318   0.387
 9075TIP3    H127168   2.868   7.283   0.319
 9075TIP3    H227169   2.824   7.413   0.383
 9076TIP3   OH227170   2.790   3.359   5.180
 9076TIP3    H127171   2.813   3.320   5.264
 9076TIP3    H227172   2.782   3.285   5.120
 9077TIP3   OH227173   8.170   2.235   6.446
 9077TIP3    H127174   8.251   2.219   6.397
 9077TIP3    H227175   8.107   2.173   6.410
 9078TIP3   OH227176   1.875   0.339   3.838
 9078TIP3    H127177   1.968   0.344   3.814
 9078TIP3    H227178   1.867   0.399   3.913
 9079TIP3   OH227179   5.363   1.752   6.093
 9079TIP3    H127180   5.432   1.716   6.149
 9079TIP3    H227181   5.291   1.772   6.153
 9080TIP3   OH227182   4.486   4.165   0.840
 9080TIP3    H127183   4.500   4.094   0.903
 9080TIP3    H227184   4.574   4.198   0.822
 9081TIP3   OH227185   2.421   2.408   3.438
 9081TIP3    H127186   2.377   2.367   3.513
 9081TIP3    H227187   2.400   2.501   3.446
 9082TIP3   OH227188   3.061   0.348   1.130
 9082TIP3    H127189   3.052   0.269   1.075
 9082TIP3    H227190   2.990   0.340   1.194
 9083TIP3   OH227191   0.604   2.721   2.504
 9083TIP3    H127192   0.664   2.778   2.456
 9083TIP3    H227193   0.640   2.717   2.593
 9084TIP3   OH227194   7.637   0.189   3.983
 9084TIP3    H127195   7.698   0.116   3.997
 9084TIP3    H227196   7.672   0.260   4.036
 9085TIP3   OH227197   7.408   4.620   1.478
 9085TIP3    H127198   7.388   4.677   1.553
 9085TIP3    H227199   7.322   4.586   1.451
 9086TIP3   OH227200   4.056   1.164   5.605
 9086TIP3    H127201   4.000   1.221   5.552
 9086TIP3    H227202   4.109   1.116   5.541
 9087TIP3   OH227203   0.098   6.354   0.100
 9087TIP3    H127204   0.119   6.306   0.020
 9087TIP3    H227205   0.178   6.402   0.121
 9088TIP3   OH227206   6.626   0.243   3.660
 9088TIP3    H127207   6.666   0.266   3.744
 9088TIP3    H227208   6.656   0.154   3.643
 9089TIP3   OH227209   7.302   1.059   4.422
 9089TIP3    H127210   7.329   1.014   4.502
 9089TIP3    H227211   7.275   1.146   4.452
 9090TIP3   OH227212   6.725   7.758   6.305
 9090TIP3    H127213   6.802   7.748   6.248
 9090TIP3    H227214   6.708   7.669   6.337
 9091TIP3   OH227215   3.945   0.996   1.774
 9091TIP3    H127216   3.980   0.920   1.727
 9091TIP3    H227217   3.936   0.967   1.864
 9092TIP3   OH227218   4.657   1.044   0.080
 9092TIP3    H127219   4.675   1.028   0.173
 9092TIP3    H227220   4.591   1.113   0.080
 9093TIP3   OH227221   7.364   7.075   0.949
 9093TIP3    H127222   7.359   7.058   1.043
 9093TIP3    H227223   7.308   7.008   0.910
 9094TIP3   OH227224   5.228   5.195   0.268
 9094TIP3    H127225   5.190   5.273   0.229
 9094TIP3    H227226   5.231   5.214   0.362
 9095TIP3   OH227227   6.668   5.176   6.522
 9095TIP3    H127228   6.647   5.125   6.443
 9095TIP3    H227229   6.673   5.266   6.491
 9096TIP3   OH227230   7.560   1.232   0.988
 9096TIP3    H127231   7.554   1.150   0.939
 9096TIP3    H227232   7.628   1.282   0.944
 9097TIP3   OH227233   6.868   1.805   0.751
 9097TIP3    H127234   6.910   1.769   0.673
 9097TIP3    H227235   6.858   1.898   0.732
 9098TIP3   OH227236   3.914   1.319   0.222
 9098TIP3    H127237   3.864   1.301   0.143
 9098TIP3    H227238   3.964   1.398   0.203
 9099TIP3   OH227239   2.596   1.518   4.481
 9099TIP3    H127240   2.549   1.600   4.466
 9099TIP3    H227241   2.594   1.506   4.576
 9100TIP3   OH227242   1.095   0.324   0.249
 9100TIP3    H127243   1.039   0.246   0.246
 9100TIP3    H227244   1.066   0.375   0.173
 9101TIP3   OH227245   5.973   0.440   6.493
 9101TIP3    H127246   5.910   0.368   6.496
 9101TIP3    H227247   6.029   0.419   6.419
 9102TIP3   OH227248   4.876   5.992   1.177
 9102TIP3    H127249   4.937   5.935   1.129
 9102TIP3    H227250   4.889   6.079   1.140
 9103TIP3   OH227251   2.089   2.593   4.673
 9103TIP3    H127252   2.145   2.671   4.679
 9103TIP3    H227253   2.043   2.604   4.590
 9104TIP3   OH227254   7.494   1.529   0.586
 9104TIP3    H127255   7.421   1.583   0.553
 9104TIP3    H227256   7.570   1.559   0.536
 9105TIP3   OH227257   3.829   2.455   1.549
 9105TIP3    H127258   3.757   2.422   1.495
 9105TIP3    H227259   3.900   2.392   1.535
 9106TIP3   OH227260   0.898   4.613   1.593
 9106TIP3    H127261   0.840   4.628   1.519
 9106TIP3    H227262   0.855   4.656   1.667
 9107TIP3   OH227263   5.919   4.615   2.788
 9107TIP3    H127264   5.955   4.622   2.700
 9107TIP3    H227265   5.996   4.601   2.844
 9108TIP3   OH227266   8.125   2.944   5.328
 9108TIP3    H127267   8.093   3.029   5.298
 9108TIP3    H227268   8.074   2.925   5.407
 9109TIP3   OH227269   4.779   4.608   6.160
 9109TIP3    H127270   4.749   4.607   6.069
 9109TIP3    H227271   4.770   4.516   6.189
 9110TIP3   OH227272   3.928   3.887   0.223
 9110TIP3    H127273   3.955   3.951   0.289
 9110TIP3    H227274   3.999   3.823   0.221
 9111TIP3   OH227275   7.907   1.041   2.577
 9111TIP3    H127276   7.848   1.100   2.623
 9111TIP3    H227277   7.972   1.098   2.537
 9112TIP3   OH227278   2.751   0.973   6.544
 9112TIP3    H127279   2.657   0.990   6.557
 9112TIP3    H227280   2.768   0.891   6.590
 9113TIP3   OH227281   4.190   3.225   6.573
 9113TIP3    H127282   4.190   3.310   6.528
 9113TIP3    H227283   4.152   3.164   6.510
 9114TIP3   OH227284   2.992   2.653   4.978
 9114TIP3    H127285   3.073   2.702   4.964
 9114TIP3    H227286   3.008   2.603   5.058
 9115TIP3   OH227287   0.408   6.430   2.419
 9115TIP3    H127288   0.421   6.423   2.324
 9115TIP3    H227289   0.383   6.521   2.434
 9116TIP3   OH227290   5.304   5.802   0.395
 9116TIP3    H127291   5.235   5.843   0.447
 9116TIP3    H227292   5.350   5.745   0.457
 9117TIP3   OH227293   1.703   6.304   1.936
 9117TIP3    H127294   1.656   6.259   1.865
 9117TIP3    H227295   1.736   6.233   1.991
 9118TIP3   OH227296   5.435   4.738   4.231
 9118TIP3    H127297   5.369   4.795   4.271
 9118TIP3    H227298   5.391   4.653   4.223
 9119TIP3   OH227299   5.610   3.321   3.331
 9119TIP3    H127300   5.593   3.392   3.269
 9119TIP3    H227301   5.526   3.277   3.341
 9120TIP3   OH227302   5.395   4.374   3.005
 9120TIP3    H127303   5.442   4.386   2.923
 9120TIP3    H227304   5.334   4.448   3.009
 9121TIP3   OH227305   3.022   5.683   5.093
 9121TIP3    H127306   3.022   5.669   5.188
 9121TIP3    H227307   2.955   5.750   5.079
 9122TIP3   OH227308   5.219   2.198   0.083
 9122TIP3    H127309   5.301   2.169   0.122
 9122TIP3    H227310   5.232   2.292   0.067
 9123TIP3   OH227311   1.936   0.824   4.430
 9123TIP3    H127312   1.931   0.826   4.525
 9123TIP3    H227313   2.030   0.831   4.411
 9124TIP3   OH227314   5.346   0.419   3.481
 9124TIP3    H127315   5.403   0.493   3.500
 9124TIP3    H227316   5.292   0.410   3.560
 9125TIP3   OH227317   1.991   6.676   5.659
 9125TIP3    H127318   1.958   6.654   5.572
 9125TIP3    H227319   2.070   6.728   5.643
 9126TIP3   OH227320   3.546   5.381   3.994
 9126TIP3    H127321   3.622   5.439   4.002
 9126TIP3    H227322   3.543   5.358   3.901
 9127TIP3   OH227323   2.681   5.321   1.475
 9127TIP3    H127324   2.738   5.338   1.400
 9127TIP3    H227325   2.713   5.380   1.543
 9128TIP3   OH227326   0.641   3.081   2.581
 9128TIP3    H127327   0.646   3.175   2.564
 9128TIP3    H227328   0.555   3.056   2.547
 9129TIP3   OH227329   6.356   7.255   6.030
 9129TIP3    H127330   6.346   7.175   6.082
 9129TIP3    H227331   6.401   7.316   6.089
 9130TIP3   OH227332   1.035   7.049   2.806
 9130TIP3    H127333   1.018   6.982   2.873
 9130TIP3    H227334   0.952   7.096   2.798
 9131TIP3   OH227335   4.810   4.532   1.775
 9131TIP3    H127336   4.899   4.554   1.802
 9131TIP3    H227337   4.794   4.588   1.698
 9132TIP3   OH227338   5.505   2.060   1.611
 9132TIP3    H127339   5.557   2.112   1.672
 9132TIP3    H227340   5.529   1.970   1.629
 9133TIP3   OH227341   4.192   6.210   2.732
 9133TIP3    H127342   4.154   6.123   2.725
 9133TIP3    H227343   4.233   6.211   2.818
 9134TIP3   OH227344   4.427   7.313   0.781
 9134TIP3    H127345   4.433   7.244   0.847
 9134TIP3    H227346   4.333   7.326   0.769
 9135TIP3   OH227347   1.179   0.007   3.947
 9135TIP3    H127348   1.197   0.086   3.895
 9135TIP3    H227349   1.260  -0.009   3.996
 9136TIP3   OH227350   2.775   2.670   4.836
 9136TIP3    H127351   2.710   2.715   4.890
 9136TIP3    H227352   2.850   2.656   4.895
 9137TIP3   OH227353   2.874   4.548   1.859
 9137TIP3    H127354   2.967   4.568   1.866
 9137TIP3    H227355   2.855   4.495   1.936
 9138TIP3   OH227356   7.927   5.247   3.241
 9138TIP3    H127357   7.920   5.200   3.324
 9138TIP3    H227358   8.012   5.219   3.205
 9139TIP3   OH227359   5.663   5.459   4.002
 9139TIP3    H127360   5.725   5.438   4.072
 9139TIP3    H227361   5.718   5.475   3.925
 9140TIP3   OH227362   4.456   7.706   1.823
 9140TIP3    H127363   4.403   7.627   1.814
 9140TIP3    H227364   4.520   7.699   1.752
 9141TIP3   OH227365   7.626   0.590   5.326
 9141TIP3    H127366   7.621   0.681   5.354
 9141TIP3    H227367   7.548   0.549   5.363
 9142TIP3   OH227368   1.980   7.353   3.681
 9142TIP3    H127369   2.066   7.393   3.665
 9142TIP3    H227370   1.945   7.337   3.594
 9143TIP3   OH227371   4.284   3.921   5.963
 9143TIP3    H127372   4.220   3.850   5.956
 9143TIP3    H227373   4.342   3.894   6.034
 9144TIP3   OH227374   0.112   3.300   3.064
 9144TIP3    H127375   0.034   3.354   3.069
 9144TIP3    H227376   0.079   3.211   3.053
 9145TIP3   OH227377   1.057   2.687   0.445
 9145TIP3    H127378   1.105   2.688   0.528
 9145TIP3    H227379   1.123   2.703   0.378
 9146TIP3   OH227380   3.362   1.394   3.177
 9146TIP3    H127381   3.445   1.443   3.180
 9146TIP3    H227382   3.363   1.343   3.258
 9147TIP3   OH227383   7.219   6.579   1.118
 9147TIP3    H127384   7.186   6.640   1.185
 9147TIP3    H227385   7.157   6.506   1.120
 9148TIP3   OH227386   2.073   5.183   5.199
 9148TIP3    H127387   2.150   5.237   5.185
 9148TIP3    H227388   2.007   5.218   5.139
 9149TIP3   OH227389   5.990   5.157   5.410
 9149TIP3    H127390   6.015   5.110   5.330
 9149TIP3    H227391   5.930   5.225   5.380
 9150TIP3   OH227392   0.663   2.916   4.680
 9150TIP3    H127393   0.703   2.835   4.712
 9150TIP3    H227394   0.687   2.982   4.745
 9151TIP3   OH227395   3.262   4.301   5.998
 9151TIP3    H127396   3.183   4.296   6.052
 9151TIP3    H227397   3.231   4.291   5.908
 9152TIP3   OH227398   3.062   3.628   5.014
 9152TIP3    H127399   3.060   3.583   5.098
 9152TIP3    H227400   2.971   3.650   4.996
 9153TIP3   OH227401   1.474   5.694   1.638
 9153TIP3    H127402   1.472   5.653   1.551
 9153TIP3    H227403   1.525   5.633   1.692
 9154TIP3   OH227404   6.476   3.728   0.008
 9154TIP3    H127405   6.480   3.745   0.102
 9154TIP3    H227406   6.451   3.812  -0.031
 9155TIP3   OH227407   2.593   2.714   5.270
 9155TIP3    H127408   2.671   2.746   5.316
 9155TIP3    H227409   2.600   2.751   5.182
 9156TIP3   OH227410   0.912   1.318   0.560
 9156TIP3    H127411   0.946   1.331   0.471
 9156TIP3    H227412   0.818   1.306   0.548
 9157TIP3   OH227413   1.543   0.923   3.371
 9157TIP3    H127414   1.588   0.840   3.357
 9157TIP3    H227415   1.558   0.944   3.463
 9158TIP3   OH227416   0.375   5.414   1.044
 9158TIP3    H127417   0.315   5.368   0.985
 9158TIP3    H227418   0.329   5.418   1.128
 9159TIP3   OH227419   7.955   4.129   2.357
 9159TIP3    H127420   7.958   4.033   2.355
 9159TIP3    H227421   8.022   4.154   2.421
 9160TIP3   OH227422   2.151   7.681   6.050
 9160TIP3    H127423   2.226   7.740   6.049
 9160TIP3    H227424   2.079   7.733   6.013
 9161TIP3   OH227425   4.019   5.673   5.331
 9161TIP3    H127426   4.032   5.590   5.285
 9161TIP3    H227427   4.081   5.733   5.290
 9162TIP3   OH227428   1.798   0.784   6.228
 9162TIP3    H127429   1.704   0.797   6.221
 9162TIP3    H227430   1.827   0.853   6.288
 9163TIP3   OH227431   1.041   1.617   5.191
 9163TIP3    H127432   1.115   1.571   5.231
 9163TIP3    H227433   1.035   1.581   5.103
 9164TIP3   OH227434   0.484   5.378   4.305
 9164TIP3    H127435   0.539   5.389   4.228
 9164TIP3    H227436   0.497   5.287   4.332
 9165TIP3   OH227437   4.273   2.819   2.295
 9165TIP3    H127438   4.215   2.752   2.259
 9165TIP3    H227439   4.214   2.884   2.333
 9166TIP3   OH227440   0.081   0.632   4.917
 9166TIP3    H127441   0.093   0.612   5.009
 9166TIP3    H227442  -0.001   0.682   4.914
 9167TIP3   OH227443   6.732   7.253   2.520
 9167TIP3    H127444   6.755   7.346   2.524
 9167TIP3    H227445   6.773   7.222   2.440
 9168TIP3   OH227446   5.130   6.692   0.169
 9168TIP3    H127447   5.178   6.610   0.160
 9168TIP3    H227448   5.074   6.695   0.091
 9169TIP3   OH227449   3.333   7.600   2.320
 9169TIP3    H127450   3.393   7.672   2.337
 9169TIP3    H227451   3.275   7.632   2.251
 9170TIP3   OH227452   1.106   5.647   5.278
 9170TIP3    H127453   1.177   5.707   5.256
 9170TIP3    H227454   1.148   5.581   5.334
 9171TIP3   OH227455   4.291   2.346   4.716
 9171TIP3    H127456   4.219   2.336   4.778
 9171TIP3    H227457   4.259   2.410   4.652
 9172TIP3   OH227458   3.858   4.195   1.399
 9172TIP3    H127459   3.880   4.283   1.429
 9172TIP3    H227460   3.853   4.143   1.480
 9173TIP3   OH227461   3.400   6.347   0.348
 9173TIP3    H127462   3.348   6.269   0.364
 9173TIP3    H227463   3.399   6.358   0.253
 9174TIP3   OH227464   7.392   5.000   4.719
 9174TIP3    H127465   7.424   5.029   4.805
 9174TIP3    H227466   7.297   5.004   4.727
 9175TIP3   OH227467   1.395   2.339   4.063
 9175TIP3    H127468   1.400   2.279   4.137
 9175TIP3    H227469   1.467   2.312   4.005
 9176TIP3   OH227470   5.599   5.489   1.432
 9176TIP3    H127471   5.690   5.460   1.437
 9176TIP3    H227472   5.579   5.490   1.339
 9177TIP3   OH227473   5.752   7.395   5.861
 9177TIP3    H127474   5.815   7.465   5.843
 9177TIP3    H227475   5.702   7.386   5.780
 9178TIP3   OH227476   5.179   7.213   5.378
 9178TIP3    H127477   5.169   7.246   5.468
 9178TIP3    H227478   5.211   7.123   5.389
 9179TIP3   OH227479   7.341   5.009   0.591
 9179TIP3    H127480   7.394   4.954   0.534
 9179TIP3    H227481   7.291   4.948   0.645
 9180TIP3   OH227482   6.969   5.066   1.927
 9180TIP3    H127483   7.030   5.053   1.999
 9180TIP3    H227484   7.021   5.107   1.858
 9181TIP3   OH227485   5.898   2.820   5.546
 9181TIP3    H127486   5.819   2.835   5.494
 9181TIP3    H227487   5.932   2.736   5.514
 9182TIP3   OH227488   5.612   5.939   4.141
 9182TIP3    H127489   5.525   5.978   4.150
 9182TIP3    H227490   5.607   5.888   4.060
 9183TIP3   OH227491   0.426   2.967   4.304
 9183TIP3    H127492   0.339   2.994   4.333
 9183TIP3    H227493   0.423   2.979   4.209
 9184TIP3   OH227494   0.195   6.829   3.520
 9184TIP3    H127495   0.273   6.790   3.482
 9184TIP3    H227496   0.130   6.759   3.519
 9185TIP3   OH227497   7.001   1.810   3.744
 9185TIP3    H127498   6.921   1.762   3.722
 9185TIP3    H227499   7.069   1.742   3.750
 9186TIP3   OH227500   4.200   0.245   3.136
 9186TIP3    H127501   4.150   0.282   3.209
 9186TIP3    H227502   4.238   0.321   3.092
 9187TIP3   OH227503   0.382   1.742   3.559
 9187TIP3    H127504   0.460   1.715   3.509
 9187TIP3    H227505   0.418   1.773   3.643
 9188TIP3   OH227506   2.937   3.395   2.835
 9188TIP3    H127507   2.921   3.442   2.917
 9188TIP3    H227508   3.023   3.355   2.848
 9189TIP3   OH227509   0.913   3.705   0.875
 9189TIP3    H127510   1.003   3.704   0.844
 9189TIP3    H227511   0.894   3.796   0.895
 9190TIP3   OH227512   3.906   6.598   1.667
 9190TIP3    H127513   3.857   6.664   1.717
 9190TIP3    H227514   3.993   6.636   1.657
 9191TIP3   OH227515   3.685   4.899   5.456
 9191TIP3    H127516   3.721   4.980   5.420
 9191TIP3    H227517   3.592   4.917   5.466
 9192TIP3   OH227518   7.203   5.425   2.422
 9192TIP3    H127519   7.297   5.424   2.442
 9192TIP3    H227520   7.169   5.348   2.466
 9193TIP3   OH227521   1.201   7.371   0.031
 9193TIP3    H127522   1.174   7.281   0.048
 9193TIP3    H227523   1.120   7.422   0.043
 9194TIP3   OH227524   1.963   7.227   0.781
 9194TIP3    H127525   1.983   7.301   0.724
 9194TIP3    H227526   1.913   7.166   0.726
 9195TIP3   OH227527   3.069   1.270   1.524
 9195TIP3    H127528   3.079   1.233   1.436
 9195TIP3    H227529   3.069   1.365   1.510
 9196TIP3   OH227530   3.180   0.966   0.764
 9196TIP3    H127531   3.270   0.966   0.733
 9196TIP3    H227532   3.128   0.989   0.687
 9197TIP3   OH227533   2.575   2.963   0.795
 9197TIP3    H127534   2.629   2.984   0.718
 9197TIP3    H227535   2.497   2.921   0.759
 9198TIP3   OH227536   3.683   7.796   0.007
 9198TIP3    H127537   3.635   7.847   0.073
 9198TIP3    H227538   3.721   7.723   0.056
 9199TIP3   OH227539   6.008   5.467   6.239
 9199TIP3    H127540   6.067   5.449   6.166
 9199TIP3    H227541   5.999   5.383   6.284
 9200TIP3   OH227542   7.056   4.701   0.936
 9200TIP3    H127543   7.138   4.653   0.948
 9200TIP3    H227544   7.069   4.782   0.986
 9201TIP3   OH227545   0.681   0.699   5.824
 9201TIP3    H127546   0.657   0.732   5.911
 9201TIP3    H227547   0.708   0.777   5.776
 9202TIP3   OH227548   4.614   4.818   0.141
 9202TIP3    H127549   4.685   4.837   0.202
 9202TIP3    H227550   4.580   4.732   0.169
 9203TIP3   OH227551   1.903   1.145   6.643
 9203TIP3    H127552   1.911   1.238   6.661
 9203TIP3    H227553   1.816   1.121   6.676
 9204TIP3   OH227554   0.812   6.030   1.560
 9204TIP3    H127555   0.834   5.957   1.502
 9204TIP3    H227556   0.731   6.066   1.524
 9205TIP3   OH227557   7.402   4.377   1.211
 9205TIP3    H127558   7.398   4.366   1.306
 9205TIP3    H227559   7.312   4.395   1.185
 9206TIP3   OH227560   5.003   3.365   6.748
 9206TIP3    H127561   5.032   3.293   6.692
 9206TIP3    H227562   4.960   3.426   6.689
 9207TIP3   OH227563   1.426   3.354   0.437
 9207TIP3    H127564   1.469   3.309   0.364
 9207TIP3    H227565   1.481   3.430   0.455
 9208TIP3   OH227566   2.849   6.288   2.663
 9208TIP3    H127567   2.819   6.229   2.732
 9208TIP3    H227568   2.838   6.238   2.582
 9209TIP3   OH227569   1.038   4.895   4.988
 9209TIP3    H127570   1.045   4.857   5.076
 9209TIP3    H227571   0.970   4.844   4.945
 9210TIP3   OH227572   6.459   2.003   2.126
 9210TIP3    H127573   6.413   2.065   2.183
 9210TIP3    H227574   6.389   1.954   2.083
 9211TIP3   OH227575   5.886   1.165   2.040
 9211TIP3    H127576   5.848   1.164   2.128
 9211TIP3    H227577   5.816   1.132   1.983
 9212TIP3   OH227578   8.286   4.108   2.838
 9212TIP3    H127579   8.207   4.055   2.839
 9212TIP3    H227580   8.344   4.064   2.776
 9213TIP3   OH227581   3.796   6.079   3.430
 9213TIP3    H127582   3.704   6.095   3.411
 9213TIP3    H227583   3.812   5.990   3.400
 9214TIP3   OH227584   3.888   7.112   4.426
 9214TIP3    H127585   3.953   7.167   4.471
 9214TIP3    H227586   3.909   7.023   4.454
 9215TIP3   OH227587   2.782   4.048   1.673
 9215TIP3    H127588   2.714   4.067   1.609
 9215TIP3    H227589   2.792   3.953   1.671
 9216TIP3   OH227590   3.814   7.772   5.131
 9216TIP3    H127591   3.752   7.795   5.199
 9216TIP3    H227592   3.770   7.705   5.080
 9217TIP3   OH227593   3.374   5.580   5.184
 9217TIP3    H127594   3.388   5.485   5.187
 9217TIP3    H227595   3.300   5.595   5.243
 9218TIP3   OH227596   3.873   0.232   5.192
 9218TIP3    H127597   3.835   0.175   5.258
 9218TIP3    H227598   3.815   0.225   5.116
 9219TIP3   OH227599   1.924   5.293   0.286
 9219TIP3    H127600   1.969   5.209   0.294
 9219TIP3    H227601   1.994   5.358   0.298
 9220TIP3   OH227602   4.167   2.607   1.364
 9220TIP3    H127603   4.109   2.540   1.327
 9220TIP3    H227604   4.214   2.561   1.434
 9221TIP3   OH227605   6.163   0.459   6.257
 9221TIP3    H127606   6.258   0.454   6.261
 9221TIP3    H227607   6.140   0.415   6.175
 9222TIP3   OH227608   2.986   1.464   3.046
 9222TIP3    H127609   2.919   1.438   2.984
 9222TIP3    H227610   2.975   1.406   3.121
 9223TIP3   OH227611   7.579   2.811   4.173
 9223TIP3    H127612   7.633   2.888   4.189
 9223TIP3    H227613   7.548   2.822   4.083
 9224TIP3   OH227614   2.399   0.820   3.773
 9224TIP3    H127615   2.448   0.879   3.830
 9224TIP3    H227616   2.309   0.826   3.804
 9225TIP3   OH227617   4.285   7.224   4.752
 9225TIP3    H127618   4.363   7.214   4.806
 9225TIP3    H227619   4.273   7.319   4.743
 9226TIP3   OH227620   1.954   4.577   6.038
 9226TIP3    H127621   1.863   4.607   6.031
 9226TIP3    H227622   1.998   4.620   5.964
 9227TIP3   OH227623   4.291   0.068   1.780
 9227TIP3    H127624   4.212   0.057   1.832
 9227TIP3    H227625   4.293  -0.007   1.722
 9228TIP3   OH227626   3.054   2.805   3.674
 9228TIP3    H127627   3.055   2.840   3.763
 9228TIP3    H227628   3.117   2.733   3.676
 9229TIP3   OH227629   3.311   5.910   6.498
 9229TIP3    H127630   3.319   5.833   6.556
 9229TIP3    H227631   3.400   5.924   6.466
 9230TIP3   OH227632   4.176   4.499   2.587
 9230TIP3    H127633   4.112   4.474   2.521
 9230TIP3    H227634   4.249   4.537   2.537
 9231TIP3   OH227635   1.954   4.982   3.927
 9231TIP3    H127636   2.013   4.975   4.001
 9231TIP3    H227637   2.012   4.996   3.851
 9232TIP3   OH227638   0.906   0.769   5.392
 9232TIP3    H127639   0.892   0.801   5.303
 9232TIP3    H227640   0.884   0.844   5.448
 9233TIP3   OH227641   7.737   2.623   2.032
 9233TIP3    H127642   7.790   2.698   2.060
 9233TIP3    H227643   7.739   2.626   1.937
 9234TIP3   OH227644   2.616   2.500   0.992
 9234TIP3    H127645   2.681   2.570   0.995
 9234TIP3    H227646   2.571   2.505   1.076
 9235TIP3   OH227647   4.016   3.813   4.074
 9235TIP3    H127648   4.020   3.721   4.101
 9235TIP3    H227649   4.048   3.862   4.150
 9236TIP3   OH227650   2.210   0.927   0.830
 9236TIP3    H127651   2.133   0.908   0.777
 9236TIP3    H227652   2.281   0.877   0.789
 9237TIP3   OH227653   3.213   1.754   0.224
 9237TIP3    H127654   3.293   1.706   0.246
 9237TIP3    H227655   3.213   1.828   0.284
 9238TIP3   OH227656   4.745   3.043   5.797
 9238TIP3    H127657   4.802   3.119   5.806
 9238TIP3    H227658   4.796   2.970   5.833
 9239TIP3   OH227659   4.199   6.264   1.221
 9239TIP3    H127660   4.122   6.207   1.214
 9239TIP3    H227661   4.266   6.209   1.263
 9240TIP3   OH227662   5.829   4.850   2.014
 9240TIP3    H127663   5.745   4.863   1.970
 9240TIP3    H227664   5.865   4.939   2.022
 9241TIP3   OH227665   2.975   2.830   1.483
 9241TIP3    H127666   3.026   2.814   1.562
 9241TIP3    H227667   3.040   2.842   1.413
 9242TIP3   OH227668   7.221   0.726   2.823
 9242TIP3    H127669   7.311   0.742   2.851
 9242TIP3    H227670   7.167   0.773   2.887
 9243TIP3   OH227671   0.596   4.781   0.910
 9243TIP3    H127672   0.645   4.791   0.992
 9243TIP3    H227673   0.557   4.867   0.895
 9244TIP3   OH227674   5.986   0.790   4.298
 9244TIP3    H127675   5.951   0.799   4.210
 9244TIP3    H227676   6.080   0.807   4.289
 9245TIP3   OH227677   3.420   3.050   0.716
 9245TIP3    H127678   3.402   2.971   0.766
 9245TIP3    H227679   3.516   3.052   0.708
 9246TIP3   OH227680   4.304   7.634   0.760
 9246TIP3    H127681   4.235   7.568   0.768
 9246TIP3    H227682   4.349   7.632   0.844
 9247TIP3   OH227683   4.194   4.354   1.702
 9247TIP3    H127684   4.163   4.356   1.792
 9247TIP3    H227685   4.120   4.383   1.649
 9248TIP3   OH227686   3.788   3.522   4.462
 9248TIP3    H127687   3.846   3.493   4.532
 9248TIP3    H227688   3.837   3.591   4.418
 9249TIP3   OH227689   1.163   3.233   5.128
 9249TIP3    H127690   1.083   3.220   5.179
 9249TIP3    H227691   1.234   3.210   5.188
 9250TIP3   OH227692   5.451   0.074   0.696
 9250TIP3    H127693   5.409   0.160   0.695
 9250TIP3    H227694   5.379   0.012   0.682
 9251TIP3   OH227695   7.564   6.531   2.848
 9251TIP3    H127696   7.595   6.512   2.936
 9251TIP3    H227697   7.518   6.452   2.820
 9252TIP3   OH227698   0.091   5.555   5.282
 9252TIP3    H127699   0.070   5.618   5.214
 9252TIP3    H227700   0.007   5.520   5.310
 9253TIP3   OH227701   1.911   4.198   1.724
 9253TIP3    H127702   1.856   4.272   1.750
 9253TIP3    H227703   1.889   4.183   1.632
 9254TIP3   OH227704   5.559   6.476   3.872
 9254TIP3    H127705   5.565   6.461   3.966
 9254TIP3    H227706   5.493   6.544   3.862
 9255TIP3   OH227707   4.540   6.393   1.636
 9255TIP3    H127708   4.548   6.405   1.730
 9255TIP3    H227709   4.630   6.383   1.605
 9256TIP3   OH227710   0.925   4.761   5.618
 9256TIP3    H127711   0.904   4.854   5.614
 9256TIP3    H227712   0.840   4.717   5.622
 9257TIP3   OH227713   0.637   5.416   0.418
 9257TIP3    H127714   0.591   5.367   0.487
 9257TIP3    H227715   0.666   5.496   0.461
 9258TIP3   OH227716   3.499   7.162   3.298
 9258TIP3    H127717   3.484   7.067   3.298
 9258TIP3    H227718   3.525   7.183   3.209
 9259TIP3   OH227719   7.548   1.202   3.901
 9259TIP3    H127720   7.551   1.166   3.990
 9259TIP3    H227721   7.587   1.289   3.909
 9260TIP3   OH227722   1.986   1.926   4.466
 9260TIP3    H127723   1.945   1.947   4.382
 9260TIP3    H227724   1.960   1.999   4.523
 9261TIP3   OH227725   1.364   2.183   5.587
 9261TIP3    H127726   1.389   2.177   5.679
 9261TIP3    H227727   1.270   2.164   5.586
 9262TIP3   OH227728   3.817   2.161   3.524
 9262TIP3    H127729   3.907   2.170   3.493
 9262TIP3    H227730   3.764   2.178   3.446
 9263TIP3   OH227731   7.002   0.231   4.962
 9263TIP3    H127732   6.934   0.274   4.909
 9263TIP3    H227733   6.956   0.205   5.042
 9264TIP3   OH227734   8.015   1.050   3.042
 9264TIP3    H127735   7.975   1.016   3.122
 9264TIP3    H227736   7.945   1.100   3.000
 9265TIP3   OH227737   2.271   6.897   0.488
 9265TIP3    H127738   2.311   6.817   0.454
 9265TIP3    H227739   2.331   6.927   0.556
 9266TIP3   OH227740   4.119   5.948   2.753
 9266TIP3    H127741   4.102   5.965   2.846
 9266TIP3    H227742   4.185   5.879   2.753
 9267TIP3   OH227743   5.906   7.796   1.916
 9267TIP3    H127744   5.932   7.707   1.939
 9267TIP3    H227745   5.853   7.786   1.837
 9268TIP3   OH227746   0.107   6.615   2.966
 9268TIP3    H127747   0.146   6.529   2.957
 9268TIP3    H227748   0.174   6.676   2.935
 9269TIP3   OH227749   0.973   5.390   3.332
 9269TIP3    H127750   0.962   5.482   3.356
 9269TIP3    H227751   1.024   5.353   3.404
 9270TIP3   OH227752   5.898   2.738   5.833
 9270TIP3    H127753   5.883   2.774   5.746
 9270TIP3    H227754   5.826   2.676   5.845
 9271TIP3   OH227755   0.910   7.690   2.294
 9271TIP3    H127756   0.853   7.636   2.349
 9271TIP3    H227757   0.944   7.630   2.228
 9272TIP3   OH227758   7.283   0.133   6.020
 9272TIP3    H127759   7.197   0.094   6.001
 9272TIP3    H227760   7.336   0.061   6.053
 9273TIP3   OH227761   7.326   2.301   0.141
 9273TIP3    H127762   7.272   2.379   0.129
 9273TIP3    H227763   7.279   2.249   0.205
 9274TIP3   OH227764   6.836   2.053   1.939
 9274TIP3    H127765   6.839   2.132   1.886
 9274TIP3    H227766   6.751   2.014   1.920
 9275TIP3   OH227767   0.901   0.090   5.263
 9275TIP3    H127768   0.835   0.135   5.208
 9275TIP3    H227769   0.872   0.106   5.353
 9276TIP3   OH227770   1.628   6.878   4.859
 9276TIP3    H127771   1.663   6.834   4.937
 9276TIP3    H227772   1.535   6.887   4.877
 9277TIP3   OH227773   5.793   6.290   0.431
 9277TIP3    H127774   5.728   6.358   0.451
 9277TIP3    H227775   5.841   6.279   0.513
 9278TIP3   OH227776   1.908   0.034   5.780
 9278TIP3    H127777   1.991  -0.006   5.806
 9278TIP3    H227778   1.881   0.085   5.857
 9279TIP3   OH227779   7.421   3.295   4.475
 9279TIP3    H127780   7.467   3.218   4.441
 9279TIP3    H227781   7.329   3.277   4.456
 9280TIP3   OH227782   0.407   6.307   1.123
 9280TIP3    H127783   0.356   6.289   1.044
 9280TIP3    H227784   0.404   6.226   1.173
 9281TIP3   OH227785   2.905   0.093   2.086
 9281TIP3    H127786   2.877   0.001   2.093
 9281TIP3    H227787   2.853   0.138   2.152
 9282TIP3   OH227788   1.818   4.453   3.474
 9282TIP3    H127789   1.788   4.543   3.487
 9282TIP3    H227790   1.887   4.460   3.408
 9283TIP3   OH227791   3.055   0.976   0.199
 9283TIP3    H127792   3.026   1.066   0.184
 9283TIP3    H227793   3.059   0.938   0.111
 9284TIP3   OH227794   4.016   4.457   6.199
 9284TIP3    H127795   4.102   4.489   6.170
 9284TIP3    H227796   3.993   4.515   6.271
 9285TIP3   OH227797   5.815   0.626   2.428
 9285TIP3    H127798   5.882   0.661   2.487
 9285TIP3    H227799   5.759   0.701   2.408
 9286TIP3   OH227800   1.422   1.066   5.787
 9286TIP3    H127801   1.336   1.098   5.814
 9286TIP3    H227802   1.408   0.973   5.767
 9287TIP3   OH227803   4.677   0.816   6.695
 9287TIP3    H127804   4.768   0.807   6.668
 9287TIP3    H227805   4.629   0.833   6.614
 9288TIP3   OH227806   6.988   2.017   5.890
 9288TIP3    H127807   6.947   1.931   5.899
 9288TIP3    H227808   7.051   2.007   5.818
 9289TIP3   OH227809   1.968   2.541   5.209
 9289TIP3    H127810   1.873   2.534   5.194
 9289TIP3    H227811   1.984   2.483   5.283
 9290TIP3   OH227812   6.699   7.611   4.547
 9290TIP3    H127813   6.780   7.613   4.497
 9290TIP3    H227814   6.662   7.699   4.536
 9291TIP3   OH227815   2.793   5.189   2.916
 9291TIP3    H127816   2.861   5.128   2.944
 9291TIP3    H227817   2.742   5.141   2.851
 9292TIP3   OH227818   6.770   2.557   4.873
 9292TIP3    H127819   6.847   2.541   4.928
 9292TIP3    H227820   6.707   2.597   4.932
 9293TIP3   OH227821   1.836   1.307   5.247
 9293TIP3    H127822   1.854   1.398   5.268
 9293TIP3    H227823   1.917   1.261   5.270
 9294TIP3   OH227824   3.913   6.954   0.859
 9294TIP3    H127825   3.900   6.941   0.765
 9294TIP3    H227826   3.982   6.893   0.883
 9295TIP3   OH227827   3.627   3.758   4.331
 9295TIP3    H127828   3.621   3.806   4.248
 9295TIP3    H227829   3.718   3.770   4.359
 9296TIP3   OH227830   5.819   7.096   5.604
 9296TIP3    H127831   5.751   7.092   5.536
 9296TIP3    H227832   5.770   7.089   5.686
 9297TIP3   OH227833   4.364   1.766   2.431
 9297TIP3    H127834   4.378   1.757   2.526
 9297TIP3    H227835   4.422   1.837   2.405
 9298TIP3   OH227836   5.134   6.724   2.950
 9298TIP3    H127837   5.210   6.731   3.007
 9298TIP3    H227838   5.059   6.718   3.009
 9299TIP3   OH227839   5.007   0.248   1.386
 9299TIP3    H127840   4.924   0.295   1.376
 9299TIP3    H227841   5.073   0.317   1.392
 9300TIP3   OH227842   1.293   3.973   1.506
 9300TIP3    H127843   1.354   3.998   1.436
 9300TIP3    H227844   1.341   3.990   1.587
 9301TIP3   OH227845   1.787   1.069   4.376
 9301TIP3    H127846   1.825   0.982   4.385
 9301TIP3    H227847   1.830   1.121   4.444
 9302TIP3   OH227848   0.133   0.299   1.056
 9302TIP3    H127849   0.140   0.323   1.149
 9302TIP3    H227850   0.042   0.271   1.046
 9303TIP3   OH227851   7.166   7.696   4.122
 9303TIP3    H127852   7.136   7.646   4.198
 9303TIP3    H227853   7.227   7.760   4.158
 9304TIP3   OH227854   6.781   0.082   2.495
 9304TIP3    H127855   6.868   0.093   2.534
 9304TIP3    H227856   6.767  -0.013   2.494
 9305TIP3   OH227857   6.355   2.166   4.723
 9305TIP3    H127858   6.327   2.087   4.768
 9305TIP3    H227859   6.291   2.233   4.749
 9306TIP3   OH227860   7.906   5.977   3.857
 9306TIP3    H127861   7.827   6.027   3.839
 9306TIP3    H227862   7.943   5.957   3.771
 9307TIP3   OH227863   1.906   7.474   2.488
 9307TIP3    H127864   1.888   7.495   2.579
 9307TIP3    H227865   1.991   7.515   2.470
 9308TIP3   OH227866   2.815   4.374   2.073
 9308TIP3    H127867   2.836   4.382   2.166
 9308TIP3    H227868   2.720   4.379   2.069
 9309TIP3   OH227869   1.309   3.979   6.754
 9309TIP3    H127870   1.268   4.025   6.828
 9309TIP3    H227871   1.241   3.978   6.687
 9310TIP3   OH227872   7.473   3.663   2.162
 9310TIP3    H127873   7.491   3.732   2.226
 9310TIP3    H227874   7.423   3.598   2.211
 9311TIP3   OH227875   6.627   6.331   4.678
 9311TIP3    H127876   6.539   6.323   4.713
 9311TIP3    H227877   6.661   6.413   4.713
 9312TIP3   OH227878   7.335   2.230   4.175
 9312TIP3    H127879   7.327   2.284   4.096
 9312TIP3    H227880   7.276   2.156   4.159
 9313TIP3   OH227881   1.870   0.382   2.841
 9313TIP3    H127882   1.816   0.461   2.839
 9313TIP3    H227883   1.858   0.343   2.754
 9314TIP3   OH227884   8.176   5.806   2.618
 9314TIP3    H127885   8.137   5.810   2.705
 9314TIP3    H227886   8.270   5.811   2.634
 9315TIP3   OH227887   2.303   5.435   6.456
 9315TIP3    H127888   2.221   5.406   6.496
 9315TIP3    H227889   2.284   5.524   6.426
 9316TIP3   OH227890   4.673   1.338   3.251
 9316TIP3    H127891   4.622   1.400   3.303
 9316TIP3    H227892   4.643   1.352   3.161
 9317TIP3   OH227893   5.308   7.486   6.183
 9317TIP3    H127894   5.348   7.531   6.109
 9317TIP3    H227895   5.382   7.455   6.235
 9318TIP3   OH227896   1.706   2.566   4.748
 9318TIP3    H127897   1.678   2.497   4.809
 9318TIP3    H227898   1.784   2.603   4.789
 9319TIP3   OH227899   8.198   6.695   5.089
 9319TIP3    H127900   8.196   6.604   5.116
 9319TIP3    H227901   8.224   6.743   5.168
 9320TIP3   OH227902   7.921   2.605   6.542
 9320TIP3    H127903   7.995   2.644   6.588
 9320TIP3    H227904   7.958   2.529   6.497
 9321TIP3   OH227905   6.985   7.632   1.283
 9321TIP3    H127906   6.890   7.636   1.297
 9321TIP3    H227907   6.995   7.632   1.188
 9322TIP3   OH227908   3.080   7.585   1.385
 9322TIP3    H127909   3.075   7.498   1.425
 9322TIP3    H227910   2.998   7.628   1.409
 9323TIP3   OH227911   5.291   0.270   6.505
 9323TIP3    H127912   5.230   0.296   6.574
 9323TIP3    H227913   5.316   0.180   6.526
 9324TIP3   OH227914   4.270   4.510   6.119
 9324TIP3    H127915   4.336   4.446   6.144
 9324TIP3    H227916   4.276   4.515   6.024
 9325TIP3   OH227917   5.359   3.264   4.670
 9325TIP3    H127918   5.352   3.171   4.651
 9325TIP3    H227919   5.358   3.306   4.584
 9326TIP3   OH227920   0.567   5.043   5.745
 9326TIP3    H127921   0.483   5.004   5.768
 9326TIP3    H227922   0.593   4.999   5.664
 9327TIP3   OH227923   1.348   2.599   4.163
 9327TIP3    H127924   1.347   2.504   4.154
 9327TIP3    H227925   1.315   2.616   4.252
 9328TIP3   OH227926   0.118   4.830   3.953
 9328TIP3    H127927   0.182   4.762   3.975
 9328TIP3    H227928   0.080   4.802   3.870
 9329TIP3   OH227929   6.964   1.704   2.768
 9329TIP3    H127930   7.000   1.616   2.756
 9329TIP3    H227931   6.869   1.692   2.768
 9330TIP3   OH227932   0.118   4.088   0.512
 9330TIP3    H127933   0.088   4.013   0.460
 9330TIP3    H227934   0.077   4.075   0.598
 9331TIP3   OH227935   5.978   6.220   4.437
 9331TIP3    H127936   5.946   6.238   4.349
 9331TIP3    H227937   5.904   6.178   4.481
 9332TIP3   OH227938   4.326   6.632   5.979
 9332TIP3    H127939   4.233   6.654   5.975
 9332TIP3    H227940   4.368   6.711   6.013
 9333TIP3   OH227941   4.231   4.776   0.332
 9333TIP3    H127942   4.149   4.754   0.290
 9333TIP3    H227943   4.271   4.841   0.274
 9334TIP3   OH227944   6.072   0.885   5.032
 9334TIP3    H127945   6.108   0.912   5.116
 9334TIP3    H227946   6.065   0.966   4.982
 9335TIP3   OH227947   0.665   3.129   3.355
 9335TIP3    H127948   0.604   3.056   3.345
 9335TIP3    H227949   0.713   3.132   3.272
 9336TIP3   OH227950   7.589   7.111   0.327
 9336TIP3    H127951   7.576   7.098   0.233
 9336TIP3    H227952   7.676   7.074   0.344
 9337TIP3   OH227953   2.407   4.227   3.682
 9337TIP3    H127954   2.370   4.210   3.769
 9337TIP3    H227955   2.337   4.204   3.621
 9338TIP3   OH227956   1.838   7.608   6.092
 9338TIP3    H127957   1.875   7.678   6.038
 9338TIP3    H227958   1.746   7.604   6.065
 9339TIP3   OH227959   2.139   0.671   4.023
 9339TIP3    H127960   2.202   0.635   3.960
 9339TIP3    H227961   2.186   0.742   4.066
 9340TIP3   OH227962   6.082   1.065   0.932
 9340TIP3    H127963   6.162   1.117   0.935
 9340TIP3    H227964   6.090   1.004   1.006
 9341TIP3   OH227965   5.389   3.091   0.684
 9341TIP3    H127966   5.464   3.092   0.745
 9341TIP3    H227967   5.422   3.135   0.606
 9342TIP3   OH227968   0.422   5.155   5.036
 9342TIP3    H127969   0.431   5.128   5.127
 9342TIP3    H227970   0.401   5.249   5.041
 9343TIP3   OH227971   8.238   0.529   5.361
 9343TIP3    H127972   8.246   0.493   5.449
 9343TIP3    H227973   8.168   0.594   5.368
 9344TIP3   OH227974   3.526   0.352   6.060
 9344TIP3    H127975   3.523   0.323   6.151
 9344TIP3    H227976   3.444   0.320   6.021
 9345TIP3   OH227977   3.953   3.644   5.778
 9345TIP3    H127978   3.868   3.600   5.782
 9345TIP3    H227979   3.996   3.607   5.700
 9346TIP3   OH227980   3.795   0.895   0.694
 9346TIP3    H127981   3.781   0.941   0.611
 9346TIP3    H227982   3.729   0.932   0.753
 9347TIP3   OH227983   1.861   1.509   4.979
 9347TIP3    H127984   1.956   1.523   4.976
 9347TIP3    H227985   1.825   1.591   5.011
 9348TIP3   OH227986   0.034   4.268   0.992
 9348TIP3    H127987   0.060   4.188   1.037
 9348TIP3    H227988   0.076   4.339   1.041
 9349TIP3   OH227989   8.261   5.750   4.333
 9349TIP3    H127990   8.197   5.721   4.398
 9349TIP3    H227991   8.216   5.819   4.285
 9350TIP3   OH227992   2.986   0.529   4.556
 9350TIP3    H127993   3.024   0.450   4.517
 9350TIP3    H227994   2.903   0.541   4.510
 9351TIP3   OH227995   0.169   2.525   4.122
 9351TIP3    H127996   0.259   2.529   4.153
 9351TIP3    H227997   0.173   2.476   4.041
 9352TIP3   OH227998   2.978   5.955   3.584
 9352TIP3    H127999   2.925   5.876   3.593
 9352TIP3    H228000   2.927   6.011   3.525
 9353TIP3   OH228001   2.912   6.109   3.820
 9353TIP3    H128002   2.837   6.159   3.788
 9353TIP3    H228003   2.953   6.075   3.741
 9354TIP3   OH228004   6.225   6.768   4.596
 9354TIP3    H128005   6.190   6.740   4.512
 9354TIP3    H228006   6.153   6.817   4.636
 9355TIP3   OH228007   6.858   1.909   1.580
 9355TIP3    H128008   6.913   1.907   1.502
 9355TIP3    H228009   6.827   1.819   1.590
 9356TIP3   OH228010   4.475   1.231   4.948
 9356TIP3    H128011   4.500   1.314   4.908
 9356TIP3    H228012   4.542   1.215   5.014
 9357TIP3   OH228013   0.930   4.267   6.643
 9357TIP3    H128014   0.873   4.263   6.720
 9357TIP3    H228015   0.962   4.357   6.642
 9358TIP3   OH228016   8.090   4.925   6.109
 9358TIP3    H128017   8.067   4.929   6.201
 9358TIP3    H228018   8.158   4.991   6.098
 9359TIP3   OH228019   5.765   7.605   5.252
 9359TIP3    H128020   5.860   7.617   5.256
 9359TIP3    H228021   5.730   7.693   5.240
 9360TIP3   OH228022   0.587   0.433   3.210
 9360TIP3    H128023   0.666   0.383   3.189
 9360TIP3    H228024   0.612   0.524   3.198
 9361TIP3   OH228025   4.821   3.324   5.791
 9361TIP3    H128026   4.761   3.389   5.827
 9361TIP3    H228027   4.896   3.325   5.851
 9362TIP3   OH228028   7.683   5.864   6.136
 9362TIP3    H128029   7.668   5.956   6.155
 9362TIP3    H228030   7.599   5.831   6.107
 9363TIP3   OH228031   4.734   3.635   3.926
 9363TIP3    H128032   4.643   3.663   3.921
 9363TIP3    H228033   4.733   3.562   3.989
 9364TIP3   OH228034   4.114   3.907   4.340
 9364TIP3    H128035   4.151   3.995   4.333
 9364TIP3    H228036   4.190   3.849   4.345
 9365TIP3   OH228037   8.034   0.887   0.116
 9365TIP3    H128038   7.954   0.852   0.075
 9365TIP3    H228039   8.088   0.810   0.134
 9366TIP3   OH228040   2.942   2.976   5.843
 9366TIP3    H128041   2.902   3.007   5.762
 9366TIP3    H228042   3.003   2.908   5.816
 9367TIP3   OH228043   2.011   7.654   2.208
 9367TIP3    H128044   2.046   7.621   2.291
 9367TIP3    H228045   1.936   7.597   2.191
 9368TIP3   OH228046   4.365   3.692   4.718
 9368TIP3    H128047   4.307   3.762   4.749
 9368TIP3    H228048   4.453   3.723   4.740
 9369TIP3   OH228049   2.872   4.566   2.370
 9369TIP3    H128050   2.849   4.531   2.456
 9369TIP3    H228051   2.944   4.510   2.341
 9370TIP3   OH228052   7.032   0.173   6.253
 9370TIP3    H128053   7.049   0.267   6.243
 9370TIP3    H228054   7.118   0.136   6.276
 9371TIP3   OH228055   7.532   0.205   6.215
 9371TIP3    H128056   7.614   0.242   6.182
 9371TIP3    H228057   7.559   0.125   6.261
 9372TIP3   OH228058   2.528   4.679   3.971
 9372TIP3    H128059   2.537   4.743   3.901
 9372TIP3    H228060   2.468   4.719   4.033
 9373TIP3   OH228061   0.192   0.175   6.655
 9373TIP3    H128062   0.227   0.098   6.610
 9373TIP3    H228063   0.228   0.249   6.606
 9374TIP3   OH228064   2.609   0.910   2.552
 9374TIP3    H128065   2.537   0.958   2.511
 9374TIP3    H228066   2.616   0.947   2.640
 9375TIP3   OH228067   4.352   4.537   3.694
 9375TIP3    H128068   4.434   4.575   3.726
 9375TIP3    H228069   4.379   4.483   3.619
 9376TIP3   OH228070   6.804   2.846   4.371
 9376TIP3    H128071   6.823   2.753   4.379
 9376TIP3    H228072   6.814   2.864   4.278
 9377TIP3   OH228073   3.286   6.100   3.952
 9377TIP3    H128074   3.354   6.167   3.949
 9377TIP3    H228075   3.249   6.107   4.040
 9378TIP3   OH228076  -0.006   6.879   4.605
 9378TIP3    H128077   0.077   6.842   4.573
 9378TIP3    H228078  -0.048   6.807   4.652
 9379TIP3   OH228079   1.910   7.213   3.903
 9379TIP3    H128080   1.922   7.244   3.813
 9379TIP3    H228081   1.950   7.280   3.957
 9380TIP3   OH228082   2.625   5.741   2.130
 9380TIP3    H128083   2.569   5.665   2.141
 9380TIP3    H228084   2.568   5.808   2.092
 9381TIP3   OH228085   7.565   2.414   4.043
 9381TIP3    H128086   7.531   2.457   4.121
 9381TIP3    H228087   7.492   2.417   3.980
 9382TIP3   OH228088   6.704   1.105   3.822
 9382TIP3    H128089   6.700   1.027   3.877
 9382TIP3    H228090   6.718   1.072   3.734
 9383TIP3   OH228091   5.756   5.779   5.261
 9383TIP3    H128092   5.785   5.688   5.257
 9383TIP3    H228093   5.825   5.828   5.217
 9384TIP3   OH228094   0.264   7.566   1.902
 9384TIP3    H128095   0.273   7.556   1.807
 9384TIP3    H228096   0.322   7.639   1.924
 9385TIP3   OH228097   1.085   7.103   3.195
 9385TIP3    H128098   1.117   7.139   3.277
 9385TIP3    H228099   1.096   7.175   3.132
 9386TIP3   OH228100   4.058   6.058   0.890
 9386TIP3    H128101   4.008   6.082   0.968
 9386TIP3    H228102   4.135   6.116   0.893
 9387TIP3   OH228103   5.369   5.461   4.530
 9387TIP3    H128104   5.279   5.429   4.527
 9387TIP3    H228105   5.380   5.490   4.621
 9388TIP3   OH228106   1.229   1.533   6.736
 9388TIP3    H128107   1.267   1.569   6.657
 9388TIP3    H228108   1.301   1.531   6.799
 9389TIP3   OH228109   0.865   2.172   5.043
 9389TIP3    H128110   0.932   2.218   4.992
 9389TIP3    H228111   0.801   2.144   4.978
 9390TIP3   OH228112   2.235   7.796   0.483
 9390TIP3    H128113   2.168   7.843   0.433
 9390TIP3    H228114   2.190   7.765   0.561
 9391TIP3   OH228115   3.059   3.864   1.087
 9391TIP3    H128116   3.086   3.905   1.169
 9391TIP3    H228117   2.964   3.874   1.085
 9392TIP3   OH228118   7.021   0.823   5.933
 9392TIP3    H128119   6.959   0.757   5.902
 9392TIP3    H228120   7.082   0.775   5.988
 9393TIP3   OH228121   5.359   3.008   1.965
 9393TIP3    H128122   5.421   3.032   1.896
 9393TIP3    H228123   5.401   2.936   2.012
 9394TIP3   OH228124   7.159   7.089   4.084
 9394TIP3    H128125   7.230   7.030   4.108
 9394TIP3    H228126   7.160   7.089   3.988
 9395TIP3   OH228127   2.808   2.554   2.251
 9395TIP3    H128128   2.840   2.611   2.181
 9395TIP3    H228129   2.853   2.587   2.330
 9396TIP3   OH228130   1.761   7.623   0.816
 9396TIP3    H128131   1.666   7.616   0.808
 9396TIP3    H228132   1.783   7.705   0.773
 9397TIP3   OH228133   7.756   4.139   5.601
 9397TIP3    H128134   7.725   4.173   5.516
 9397TIP3    H228135   7.848   4.163   5.604
 9398TIP3   OH228136   8.237   4.647   4.272
 9398TIP3    H128137   8.166   4.584   4.283
 9398TIP3    H228138   8.198   4.720   4.225
 9399TIP3   OH228139   1.289   0.693   0.859
 9399TIP3    H128140   1.306   0.774   0.907
 9399TIP3    H228141   1.210   0.710   0.809
 9400TIP3   OH228142   5.516   0.283   1.773
 9400TIP3    H128143   5.452   0.278   1.702
 9400TIP3    H228144   5.535   0.192   1.795
 9401TIP3   OH228145   6.391   0.518   5.136
 9401TIP3    H128146   6.345   0.515   5.052
 9401TIP3    H228147   6.385   0.610   5.163
 9402TIP3   OH228148   0.652   3.855   1.305
 9402TIP3    H128149   0.616   3.806   1.231
 9402TIP3    H228150   0.583   3.917   1.329
 9403TIP3   OH228151   3.686   1.317   4.104
 9403TIP3    H128152   3.604   1.273   4.123
 9403TIP3    H228153   3.697   1.380   4.175
 9404TIP3   OH228154   4.609   6.833   5.088
 9404TIP3    H128155   4.534   6.791   5.046
 9404TIP3    H228156   4.683   6.812   5.030
 9405TIP3   OH228157   3.918   1.055   3.129
 9405TIP3    H128158   3.999   1.048   3.078
 9405TIP3    H228159   3.871   1.128   3.090
 9406TIP3   OH228160   1.222   3.640   0.277
 9406TIP3    H128161   1.153   3.636   0.344
 9406TIP3    H228162   1.301   3.662   0.325
 9407TIP3   OH228163   8.252   6.540   0.241
 9407TIP3    H128164   8.307   6.612   0.211
 9407TIP3    H228165   8.275   6.466   0.185
 9408TIP3   OH228166   1.643   1.153   3.483
 9408TIP3    H128167   1.666   1.238   3.518
 9408TIP3    H228168   1.634   1.168   3.388
 9409TIP3   OH228169   3.924   7.456  -0.001
 9409TIP3    H128170   3.853   7.508   0.036
 9409TIP3    H228171   3.978   7.432   0.074
 9410TIP3   OH228172   8.112   1.009   5.973
 9410TIP3    H128173   8.153   0.982   5.891
 9410TIP3    H228174   8.023   0.975   5.969
 9411TIP3   OH228175   3.405   2.501   3.274
 9411TIP3    H128176   3.478   2.441   3.288
 9411TIP3    H228177   3.347   2.486   3.348
 9412TIP3   OH228178   4.767   6.303   5.455
 9412TIP3    H128179   4.704   6.265   5.517
 9412TIP3    H228180   4.841   6.331   5.509
 9413TIP3   OH228181   3.753   7.239   0.026
 9413TIP3    H128182   3.808   7.180  -0.026
 9413TIP3    H228183   3.804   7.320   0.030
 9414TIP3   OH228184   0.651   6.881   5.031
 9414TIP3    H128185   0.590   6.808   5.044
 9414TIP3    H228186   0.665   6.915   5.119
 9415TIP3   OH228187   3.759   1.963   2.537
 9415TIP3    H128188   3.728   1.877   2.508
 9415TIP3    H228189   3.819   1.944   2.610
 9416TIP3   OH228190   2.788   4.769   0.628
 9416TIP3    H128191   2.716   4.773   0.692
 9416TIP3    H228192   2.842   4.845   0.648
 9417TIP3   OH228193   2.677   7.028   3.938
 9417TIP3    H128194   2.688   7.119   3.964
 9417TIP3    H228195   2.729   6.979   4.000
 9418TIP3   OH228196   1.882   7.533   1.288
 9418TIP3    H128197   1.833   7.453   1.305
 9418TIP3    H228198   1.818   7.593   1.250
 9419TIP3   OH228199   5.428   7.217   6.574
 9419TIP3    H128200   5.449   7.186   6.486
 9419TIP3    H228201   5.510   7.210   6.622
 9420TIP3   OH228202   8.218   3.220   2.297
 9420TIP3    H128203   8.153   3.246   2.231
 9420TIP3    H228204   8.167   3.173   2.363
 9421TIP3   OH228205   0.623   4.514   6.230
 9421TIP3    H128206   0.571   4.442   6.193
 9421TIP3    H228207   0.689   4.471   6.284
 9422TIP3   OH228208   7.308   2.368   3.923
 9422TIP3    H128209   7.306   2.412   3.838
 9422TIP3    H228210   7.220   2.383   3.959
 9423TIP3   OH228211   5.408   4.967   6.516
 9423TIP3    H128212   5.385   4.883   6.556
 9423TIP3    H228213   5.336   5.026   6.540
 9424TIP3   OH228214   3.960   1.682   4.283
 9424TIP3    H128215   3.949   1.599   4.237
 9424TIP3    H228216   3.945   1.749   4.216
 9425TIP3   OH228217   6.459   6.884   4.519
 9425TIP3    H128218   6.389   6.825   4.546
 9425TIP3    H228219   6.444   6.900   4.426
 9426TIP3   OH228220   7.369   3.556   3.509
 9426TIP3    H128221   7.460   3.533   3.528
 9426TIP3    H228222   7.375   3.620   3.437
 9427TIP3   OH228223   8.069   4.862   0.445
 9427TIP3    H128224   8.033   4.844   0.532
 9427TIP3    H228225   8.108   4.779   0.418
 9428TIP3   OH228226   8.222   5.553   6.337
 9428TIP3    H128227   8.132   5.535   6.313
 9428TIP3    H228228   8.257   5.601   6.262
 9429TIP3   OH228229   2.731   1.635   6.387
 9429TIP3    H128230   2.742   1.544   6.362
 9429TIP3    H228231   2.803   1.653   6.447
 9430TIP3   OH228232   7.721   6.331   5.226
 9430TIP3    H128233   7.683   6.256   5.180
 9430TIP3    H228234   7.684   6.408   5.182
 9431TIP3   OH228235   7.521   0.815   0.410
 9431TIP3    H128236   7.598   0.759   0.394
 9431TIP3    H228237   7.467   0.763   0.470
 9432TIP3   OH228238   1.793   1.788   5.134
 9432TIP3    H128239   1.707   1.784   5.091
 9432TIP3    H228240   1.785   1.860   5.197
 9433TIP3   OH228241   2.389   2.939   2.222
 9433TIP3    H128242   2.449   2.986   2.280
 9433TIP3    H228243   2.429   2.853   2.211
 9434TIP3   OH228244   5.211   0.885   1.511
 9434TIP3    H128245   5.147   0.849   1.572
 9434TIP3    H228246   5.167   0.959   1.470
 9435TIP3   OH228247   2.323   5.786   0.662
 9435TIP3    H128248   2.394   5.744   0.613
 9435TIP3    H228249   2.336   5.758   0.752
 9436TIP3   OH228250   4.801   5.554   3.332
 9436TIP3    H128251   4.812   5.579   3.240
 9436TIP3    H228252   4.885   5.518   3.358
 9437TIP3   OH228253   5.185   1.441   6.039
 9437TIP3    H128254   5.254   1.449   5.973
 9437TIP3    H228255   5.152   1.352   6.028
 9438TIP3   OH228256   5.660   3.239   6.046
 9438TIP3    H128257   5.684   3.320   6.001
 9438TIP3    H228258   5.567   3.250   6.067
 9439TIP3   OH228259   6.253   7.061   1.957
 9439TIP3    H128260   6.249   7.106   1.872
 9439TIP3    H228261   6.335   7.091   1.997
 9440TIP3   OH228262   0.514   4.708   2.536
 9440TIP3    H128263   0.506   4.783   2.596
 9440TIP3    H228264   0.599   4.669   2.556
 9441TIP3   OH228265   6.540   0.409   0.980
 9441TIP3    H128266   6.628   0.445   0.992
 9441TIP3    H228267   6.543   0.323   1.020
 9442TIP3   OH228268   3.171   0.281   5.644
 9442TIP3    H128269   3.187   0.277   5.550
 9442TIP3    H228270   3.088   0.235   5.656
 9443TIP3   OH228271   5.909   1.125   0.738
 9443TIP3    H128272   5.866   1.169   0.811
 9443TIP3    H228273   5.985   1.082   0.778
 9444TIP3   OH228274   5.093   0.127   3.312
 9444TIP3    H128275   5.051   0.072   3.245
 9444TIP3    H228276   5.143   0.191   3.262
 9445TIP3   OH228277   3.236   5.579   0.161
 9445TIP3    H128278   3.313   5.581   0.104
 9445TIP3    H228279   3.166   5.615   0.108
 9446TIP3   OH228280   5.168   3.805   6.562
 9446TIP3    H128281   5.180   3.899   6.550
 9446TIP3    H228282   5.074   3.791   6.558
 9447TIP3   OH228283   4.690   2.655   6.025
 9447TIP3    H128284   4.717   2.666   6.116
 9447TIP3    H228285   4.656   2.565   6.021
 9448TIP3   OH228286   0.628   0.525   3.973
 9448TIP3    H128287   0.567   0.523   3.900
 9448TIP3    H228288   0.714   0.535   3.932
 9449TIP3   OH228289   6.480   1.475   3.224
 9449TIP3    H128290   6.413   1.474   3.155
 9449TIP3    H228291   6.506   1.566   3.232
 9450TIP3   OH228292   1.039   3.253   0.072
 9450TIP3    H128293   1.003   3.167   0.047
 9450TIP3    H228294   1.005   3.269   0.160
 9451TIP3   OH228295   3.879   1.959   5.554
 9451TIP3    H128296   3.829   2.022   5.502
 9451TIP3    H228297   3.819   1.885   5.565
 9452TIP3   OH228298   6.153   3.573   6.456
 9452TIP3    H128299   6.114   3.656   6.428
 9452TIP3    H228300   6.137   3.513   6.384
 9453TIP3   OH228301   5.975   0.276   4.643
 9453TIP3    H128302   6.017   0.260   4.559
 9453TIP3    H228303   6.022   0.219   4.704
 9454TIP3   OH228304   2.714   7.289   4.002
 9454TIP3    H128305   2.721   7.324   3.914
 9454TIP3    H228306   2.742   7.360   4.059
 9455TIP3   OH228307   6.998   0.568   4.824
 9455TIP3    H128308   6.940   0.492   4.826
 9455TIP3    H228309   6.939   0.643   4.814
 9456TIP3   OH228310   7.553   0.082   2.347
 9456TIP3    H128311   7.505   0.165   2.353
 9456TIP3    H228312   7.586   0.081   2.257
 9457TIP3   OH228313   7.144   2.819   5.853
 9457TIP3    H128314   7.147   2.915   5.848
 9457TIP3    H228315   7.084   2.793   5.783
 9458TIP3   OH228316   2.108   2.954   3.265
 9458TIP3    H128317   2.199   2.955   3.294
 9458TIP3    H228318   2.073   2.873   3.301
 9459TIP3   OH228319   4.208   0.835   3.393
 9459TIP3    H128320   4.183   0.825   3.485
 9459TIP3    H228321   4.279   0.899   3.394
 9460TIP3   OH228322   4.693   3.625   1.552
 9460TIP3    H128323   4.641   3.657   1.479
 9460TIP3    H228324   4.663   3.535   1.566
 9461TIP3   OH228325   2.988   5.855   0.688
 9461TIP3    H128326   3.027   5.801   0.618
 9461TIP3    H228327   2.918   5.903   0.644
 9462TIP3   OH228328   2.284   2.323   1.130
 9462TIP3    H128329   2.270   2.230   1.114
 9462TIP3    H228330   2.330   2.326   1.214
 9463TIP3   OH228331   7.787   3.650   2.174
 9463TIP3    H128332   7.700   3.615   2.158
 9463TIP3    H228333   7.841   3.615   2.103
 9464TIP3   OH228334   5.979   4.127   0.303
 9464TIP3    H128335   5.924   4.140   0.226
 9464TIP3    H228336   5.952   4.043   0.338
 9465TIP3   OH228337   0.932   0.915   2.936
 9465TIP3    H128338   0.847   0.885   2.966
 9465TIP3    H228339   0.919   1.007   2.914
 9466TIP3   OH228340   5.362   1.924   6.507
 9466TIP3    H128341   5.457   1.917   6.495
 9466TIP3    H228342   5.347   1.891   6.595
 9467TIP3   OH228343   1.267   4.403   5.467
 9467TIP3    H128344   1.249   4.495   5.487
 9467TIP3    H228345   1.295   4.365   5.550
 9468TIP3   OH228346   4.824   0.093   4.134
 9468TIP3    H128347   4.863   0.007   4.118
 9468TIP3    H228348   4.833   0.140   4.051
 9469TIP3   OH228349   7.692   7.708   5.886
 9469TIP3    H128350   7.780   7.690   5.921
 9469TIP3    H228351   7.634   7.658   5.943
 9470TIP3   OH228352   4.089   2.334   0.105
 9470TIP3    H128353   4.006   2.348   0.152
 9470TIP3    H228354   4.123   2.252   0.141
 9471TIP3   OH228355   4.502   1.460   1.870
 9471TIP3    H128356   4.436   1.529   1.863
 9471TIP3    H228357   4.523   1.439   1.779
 9472TIP3   OH228358   2.257   7.292   4.898
 9472TIP3    H128359   2.306   7.245   4.965
 9472TIP3    H228360   2.260   7.383   4.925
 9473TIP3   OH228361   3.772   2.812   4.136
 9473TIP3    H128362   3.782   2.885   4.075
 9473TIP3    H228363   3.747   2.738   4.080
 9474TIP3   OH228364   0.845   1.542   4.116
 9474TIP3    H128365   0.809   1.455   4.102
 9474TIP3    H228366   0.800   1.574   4.194
 9475TIP3   OH228367   8.065   4.675   5.606
 9475TIP3    H128368   8.077   4.695   5.699
 9475TIP3    H228369   8.049   4.761   5.565
 9476TIP3   OH228370   2.318   3.383   0.400
 9476TIP3    H128371   2.252   3.393   0.469
 9476TIP3    H228372   2.398   3.359   0.446
 9477TIP3   OH228373   4.579   2.135   3.852
 9477TIP3    H128374   4.618   2.098   3.931
 9477TIP3    H228375   4.578   2.230   3.868
 9478TIP3   OH228376   4.546   6.141   6.279
 9478TIP3    H128377   4.536   6.137   6.374
 9478TIP3    H228378   4.495   6.067   6.246
 9479TIP3   OH228379   4.209   5.816   5.180
 9479TIP3    H128380   4.289   5.868   5.168
 9479TIP3    H228381   4.228   5.734   5.135
 9480TIP3   OH228382   2.055   5.965   4.856
 9480TIP3    H128383   2.011   5.894   4.809
 9480TIP3    H228384   2.053   5.938   4.948
 9481TIP3   OH228385   1.998   3.341   6.417
 9481TIP3    H128386   2.039   3.255   6.406
 9481TIP3    H228387   1.940   3.330   6.492
 9482TIP3   OH228388   6.541   0.736   2.770
 9482TIP3    H128389   6.600   0.670   2.733
 9482TIP3    H228390   6.500   0.777   2.693
 9483TIP3   OH228391   4.037   2.848   5.538
 9483TIP3    H128392   4.084   2.922   5.497
 9483TIP3    H228393   4.104   2.803   5.588
 9484TIP3   OH228394   3.202   5.038   5.853
 9484TIP3    H128395   3.130   5.101   5.866
 9484TIP3    H228396   3.164   4.969   5.799
 9485TIP3   OH228397   0.076   1.797   5.516
 9485TIP3    H128398   0.049   1.851   5.442
 9485TIP3    H228399   0.106   1.860   5.582
 9486TIP3   OH228400   3.070   7.786   2.844
 9486TIP3    H128401   3.015   7.857   2.811
 9486TIP3    H228402   3.054   7.786   2.939
 9487TIP3   OH228403   6.601   6.219   1.635
 9487TIP3    H128404   6.646   6.169   1.704
 9487TIP3    H228405   6.648   6.197   1.555
 9488TIP3   OH228406   6.445   5.857   1.367
 9488TIP3    H128407   6.520   5.892   1.319
 9488TIP3    H228408   6.473   5.769   1.394
 9489TIP3   OH228409   1.480   1.441   6.539
 9489TIP3    H128410   1.424   1.368   6.512
 9489TIP3    H228411   1.460   1.453   6.632
 9490TIP3   OH228412   0.545   4.026   5.758
 9490TIP3    H128413   0.595   4.039   5.678
 9490TIP3    H228414   0.598   4.065   5.827
 9491TIP3   OH228415   0.919   4.589   4.447
 9491TIP3    H128416   0.921   4.494   4.453
 9491TIP3    H228417   0.928   4.619   4.537
 9492TIP3   OH228418   5.289   6.217   4.308
 9492TIP3    H128419   5.210   6.211   4.363
 9492TIP3    H228420   5.319   6.126   4.301
 9493TIP3   OH228421   6.362   0.631   4.381
 9493TIP3    H128422   6.331   0.556   4.330
 9493TIP3    H228423   6.389   0.594   4.465
 9494TIP3   OH228424   4.194   4.763   0.605
 9494TIP3    H128425   4.105   4.798   0.613
 9494TIP3    H228426   4.204   4.748   0.511
 9495TIP3   OH228427   6.364   0.295   1.621
 9495TIP3    H128428   6.353   0.322   1.712
 9495TIP3    H228429   6.451   0.327   1.597
 9496TIP3   OH228430   3.835   2.426   5.339
 9496TIP3    H128431   3.857   2.494   5.403
 9496TIP3    H228432   3.918   2.407   5.294
 9497TIP3   OH228433   4.470   7.547   0.969
 9497TIP3    H128434   4.428   7.465   0.994
 9497TIP3    H228435   4.527   7.568   1.044
 9498TIP3   OH228436   4.840   4.561   0.106
 9498TIP3    H128437   4.838   4.642   0.056
 9498TIP3    H228438   4.765   4.568   0.166
 9499TIP3   OH228439   6.322   4.387   0.925
 9499TIP3    H128440   6.396   4.399   0.865
 9499TIP3    H228441   6.326   4.462   0.984
 9500TIP3   OH228442   7.685   2.762   4.793
 9500TIP3    H128443   7.668   2.747   4.700
 9500TIP3    H228444   7.717   2.677   4.824
 9501TIP3   OH228445   4.646   0.551   3.315
 9501TIP3    H128446   4.592   0.607   3.260
 9501TIP3    H228447   4.733   0.588   3.309
 9502TIP3   OH228448   7.932   6.833   4.469
 9502TIP3    H128449   7.909   6.748   4.506
 9502TIP3    H228450   8.023   6.823   4.441
 9503TIP3   OH228451   7.704   2.297   2.136
 9503TIP3    H128452   7.775   2.317   2.198
 9503TIP3    H228453   7.638   2.254   2.190
 9504TIP3   OH228454   5.485   0.893   4.138
 9504TIP3    H128455   5.422   0.918   4.204
 9504TIP3    H228456   5.570   0.895   4.183
 9505TIP3   OH228457   2.935   0.582   2.841
 9505TIP3    H128458   3.027   0.556   2.829
 9505TIP3    H228459   2.927   0.665   2.794
 9506TIP3   OH228460   0.704   1.092   3.658
 9506TIP3    H128461   0.796   1.093   3.631
 9506TIP3    H228462   0.691   1.005   3.696
 9507TIP3   OH228463   5.704   3.037   1.373
 9507TIP3    H128464   5.721   3.102   1.442
 9507TIP3    H228465   5.781   3.041   1.317
 9508TIP3   OH228466   3.203   6.076   0.077
 9508TIP3    H128467   3.245   6.162   0.063
 9508TIP3    H228468   3.152   6.088   0.157
 9509TIP3   OH228469   8.257   6.934   2.756
 9509TIP3    H128470   8.298   7.015   2.787
 9509TIP3    H228471   8.167   6.959   2.736
 9510TIP3   OH228472   7.089   1.261   1.428
 9510TIP3    H128473   7.165   1.260   1.487
 9510TIP3    H228474   7.015   1.238   1.484
 9511TIP3   OH228475   1.737   1.008   4.815
 9511TIP3    H128476   1.643   0.998   4.798
 9511TIP3    H228477   1.741   1.039   4.905
 9512TIP3   OH228478   5.521   2.239   5.543
 9512TIP3    H128479   5.504   2.219   5.635
 9512TIP3    H228480   5.520   2.335   5.538
 9513TIP3   OH228481   3.070   6.201   3.149
 9513TIP3    H128482   2.994   6.260   3.152
 9513TIP3    H228483   3.100   6.205   3.058
 9514TIP3   OH228484   3.224   6.951   6.316
 9514TIP3    H128485   3.199   6.858   6.318
 9514TIP3    H228486   3.267   6.963   6.232
 9515TIP3   OH228487   4.221   4.762   5.734
 9515TIP3    H128488   4.220   4.694   5.666
 9515TIP3    H228489   4.189   4.717   5.813
 9516TIP3   OH228490   0.865   6.175   0.249
 9516TIP3    H128491   0.947   6.214   0.281
 9516TIP3    H228492   0.886   6.142   0.162
 9517TIP3   OH228493   0.781   2.684   0.144
 9517TIP3    H128494   0.846   2.615   0.131
 9517TIP3    H228495   0.792   2.710   0.235
 9518TIP3   OH228496   0.047   6.878   3.948
 9518TIP3    H128497  -0.009   6.838   4.014
 9518TIP3    H228498   0.071   6.963   3.985
 9519TIP3   OH228499   8.049   1.497   2.244
 9519TIP3    H128500   8.133   1.453   2.253
 9519TIP3    H228501   8.002   1.475   2.325
 9520TIP3   OH228502   2.095   5.062   5.462
 9520TIP3    H128503   2.182   5.083   5.497
 9520TIP3    H228504   2.088   5.113   5.382
 9521TIP3   OH228505   6.225   7.012   3.446
 9521TIP3    H128506   6.207   6.919   3.454
 9521TIP3    H228507   6.162   7.054   3.505
 9522TIP3   OH228508   5.036   6.857   0.767
 9522TIP3    H128509   5.053   6.909   0.689
 9522TIP3    H228510   4.990   6.917   0.826
 9523TIP3   OH228511   0.088   1.205   4.647
 9523TIP3    H128512   0.110   1.137   4.710
 9523TIP3    H228513   0.049   1.275   4.700
 9524TIP3   OH228514   3.723   3.644   4.896
 9524TIP3    H128515   3.646   3.647   4.952
 9524TIP3    H228516   3.795   3.672   4.952
 9525TIP3   OH228517   7.778   6.519   4.917
 9525TIP3    H128518   7.739   6.477   4.840
 9525TIP3    H228519   7.840   6.454   4.950
 9526TIP3   OH228520   3.701   5.616   3.934
 9526TIP3    H128521   3.772   5.626   3.871
 9526TIP3    H228522   3.629   5.668   3.900
 9527TIP3   OH228523   7.519   0.101   1.129
 9527TIP3    H128524   7.490   0.040   1.061
 9527TIP3    H228525   7.559   0.173   1.081
 9528TIP3   OH228526   4.922   6.404   1.969
 9528TIP3    H128527   4.954   6.334   2.027
 9528TIP3    H228528   4.879   6.357   1.897
 9529TIP3   OH228529   5.266   5.851   2.297
 9529TIP3    H128530   5.310   5.906   2.361
 9529TIP3    H228531   5.312   5.868   2.214
 9530TIP3   OH228532   0.723   3.351   5.648
 9530TIP3    H128533   0.796   3.350   5.710
 9530TIP3    H228534   0.764   3.346   5.562
 9531TIP3   OH228535   8.221   7.535   2.647
 9531TIP3    H128536   8.142   7.481   2.647
 9531TIP3    H228537   8.195   7.617   2.690
 9532TIP3   OH228538   0.832   5.714   6.017
 9532TIP3    H128539   0.856   5.792   6.067
 9532TIP3    H228540   0.870   5.727   5.930
 9533TIP3   OH228541   0.418   2.557   1.612
 9533TIP3    H128542   0.438   2.493   1.681
 9533TIP3    H228543   0.422   2.642   1.657
 9534TIP3   OH228544   2.253   5.262   5.775
 9534TIP3    H128545   2.157   5.263   5.772
 9534TIP3    H228546   2.280   5.261   5.683
 9535TIP3   OH228547   5.608   6.142   2.539
 9535TIP3    H128548   5.669   6.068   2.544
 9535TIP3    H228549   5.639   6.203   2.606
 9536TIP3   OH228550   5.602   6.578   0.059
 9536TIP3    H128551   5.531   6.532   0.013
 9536TIP3    H228552   5.669   6.511   0.071
 9537TIP3   OH228553   3.730   1.930   4.852
 9537TIP3    H128554   3.811   1.880   4.860
 9537TIP3    H228555   3.676   1.899   4.925
 9538TIP3   OH228556   0.520   4.653   6.709
 9538TIP3    H128557   0.538   4.573   6.660
 9538TIP3    H228558   0.595   4.662   6.768
 9539TIP3   OH228559   0.818   5.200   2.991
 9539TIP3    H128560   0.837   5.233   3.079
 9539TIP3    H228561   0.782   5.276   2.945
 9540TIP3   OH228562   2.263   4.600   4.355
 9540TIP3    H128563   2.336   4.543   4.333
 9540TIP3    H228564   2.200   4.587   4.284
 9541TIP3   OH228565   5.625   0.422   1.036
 9541TIP3    H128566   5.696   0.378   1.083
 9541TIP3    H228567   5.640   0.400   0.944
 9542TIP3   OH228568   5.866   2.663   1.542
 9542TIP3    H128569   5.839   2.617   1.622
 9542TIP3    H228570   5.853   2.599   1.472
 9543TIP3   OH228571   2.254   2.607   6.358
 9543TIP3    H128572   2.309   2.589   6.434
 9543TIP3    H228573   2.284   2.545   6.292
 9544TIP3   OH228574   1.503   7.732   6.294
 9544TIP3    H128575   1.430   7.671   6.290
 9544TIP3    H228576   1.542   7.716   6.381
 9545TIP3   OH228577   7.998   5.868   5.867
 9545TIP3    H128578   7.956   5.950   5.842
 9545TIP3    H228579   7.940   5.800   5.832
 9546TIP3   OH228580   8.016   3.538   4.532
 9546TIP3    H128581   8.061   3.555   4.449
 9546TIP3    H228582   7.933   3.586   4.524
 9547TIP3   OH228583   3.664   2.297   0.304
 9547TIP3    H128584   3.722   2.234   0.260
 9547TIP3    H228585   3.708   2.317   0.386
 9548TIP3   OH228586   5.398   7.637   3.461
 9548TIP3    H128587   5.314   7.594   3.447
 9548TIP3    H228588   5.377   7.730   3.467
 9549TIP3   OH228589   4.766   2.145   3.579
 9549TIP3    H128590   4.760   2.103   3.493
 9549TIP3    H228591   4.686   2.117   3.625
 9550TIP3   OH228592   6.911   5.439   0.973
 9550TIP3    H128593   6.893   5.403   1.060
 9550TIP3    H228594   7.005   5.428   0.961
 9551TIP3   OH228595   3.939   5.105   3.069
 9551TIP3    H128596   3.997   5.034   3.039
 9551TIP3    H228597   3.978   5.184   3.033
 9552TIP3   OH228598   6.041   6.076   4.782
 9552TIP3    H128599   6.113   6.016   4.804
 9552TIP3    H228600   5.980   6.023   4.731
 9553TIP3   OH228601   3.772   6.163   2.759
 9553TIP3    H128602   3.830   6.236   2.781
 9553TIP3    H228603   3.786   6.149   2.665
 9554TIP3   OH228604   5.357   5.145   4.830
 9554TIP3    H128605   5.281   5.190   4.867
 9554TIP3    H228606   5.327   5.114   4.745
 9555TIP3   OH228607   1.921   4.081   5.169
 9555TIP3    H128608   1.980   4.104   5.096
 9555TIP3    H228609   1.914   4.162   5.220
 9556TIP3   OH228610   2.509   7.806   1.459
 9556TIP3    H128611   2.470   7.726   1.423
 9556TIP3    H228612   2.601   7.783   1.474
 9557TIP3   OH228613   0.921   4.597   5.236
 9557TIP3    H128614   0.971   4.678   5.251
 9557TIP3    H228615   0.838   4.627   5.200
 9558TIP3   OH228616   2.318   7.208   2.958
 9558TIP3    H128617   2.356   7.179   3.041
 9558TIP3    H228618   2.224   7.215   2.975
 9559TIP3   OH228619   3.144   0.771   5.113
 9559TIP3    H128620   3.161   0.860   5.144
 9559TIP3    H228621   3.227   0.743   5.076
 9560TIP3   OH228622   5.242   0.963   3.190
 9560TIP3    H128623   5.173   0.948   3.255
 9560TIP3    H228624   5.195   0.979   3.108
 9561TIP3   OH228625   8.104   4.808   1.037
 9561TIP3    H128626   8.030   4.844   1.086
 9561TIP3    H228627   8.169   4.878   1.036
 9562TIP3   OH228628   1.429   2.955   1.188
 9562TIP3    H128629   1.513   2.918   1.161
 9562TIP3    H228630   1.416   2.922   1.277
 9563TIP3   OH228631   6.429   1.393   0.506
 9563TIP3    H128632   6.375   1.329   0.552
 9563TIP3    H228633   6.367   1.454   0.467
 9564TIP3   OH228634   5.997   5.172   4.234
 9564TIP3    H128635   6.036   5.182   4.321
 9564TIP3    H228636   6.007   5.079   4.214
 9565TIP3   OH228637   4.714   5.238   0.719
 9565TIP3    H128638   4.682   5.235   0.809
 9565TIP3    H228639   4.635   5.235   0.665
 9566TIP3   OH228640   5.002   6.143   5.649
 9566TIP3    H128641   4.992   6.238   5.649
 9566TIP3    H228642   5.097   6.128   5.650
 9567TIP3   OH228643   1.592   7.553   3.176
 9567TIP3    H128644   1.521   7.489   3.167
 9567TIP3    H228645   1.548   7.637   3.185
 9568TIP3   OH228646   1.813   7.029   1.740
 9568TIP3    H128647   1.727   6.988   1.742
 9568TIP3    H228648   1.795   7.121   1.760
 9569TIP3   OH228649   5.650   3.849   5.951
 9569TIP3    H128650   5.744   3.837   5.936
 9569TIP3    H228651   5.645   3.913   6.022
 9570TIP3   OH228652   0.496   4.638   3.595
 9570TIP3    H128653   0.504   4.732   3.580
 9570TIP3    H228654   0.559   4.599   3.534
 9571TIP3   OH228655   3.687   0.590   6.131
 9571TIP3    H128656   3.644   0.505   6.122
 9571TIP3    H228657   3.617   0.648   6.161
 9572TIP3   OH228658   3.157   3.521   0.844
 9572TIP3    H128659   3.092   3.573   0.797
 9572TIP3    H228660   3.191   3.460   0.779
 9573TIP3   OH228661   3.130   7.113   0.416
 9573TIP3    H128662   3.173   7.057   0.481
 9573TIP3    H228663   3.064   7.162   0.466
 9574TIP3   OH228664   1.888   7.352   4.262
 9574TIP3    H128665   1.962   7.347   4.201
 9574TIP3    H228666   1.887   7.443   4.292
 9575TIP3   OH228667   0.991   0.254   5.669
 9575TIP3    H128668   0.937   0.203   5.608
 9575TIP3    H228669   0.928   0.298   5.726
 9576TIP3   OH228670   5.897   0.808   5.620
 9576TIP3    H128671   5.917   0.740   5.556
 9576TIP3    H228672   5.853   0.762   5.692
 9577TIP3   OH228673   6.688   6.542   5.357
 9577TIP3    H128674   6.686   6.505   5.268
 9577TIP3    H228675   6.664   6.634   5.344
 9578TIP3   OH228676   4.899   1.775   1.312
 9578TIP3    H128677   4.975   1.722   1.290
 9578TIP3    H228678   4.889   1.764   1.407
 9579TIP3   OH228679   6.469   5.517   1.488
 9579TIP3    H128680   6.395   5.459   1.470
 9579TIP3    H228681   6.435   5.583   1.548
 9580TIP3   OH228682   1.533   3.212   6.439
 9580TIP3    H128683   1.628   3.206   6.453
 9580TIP3    H228684   1.508   3.293   6.484
 9581TIP3   OH228685   2.395   4.605   1.564
 9581TIP3    H128686   2.463   4.612   1.497
 9581TIP3    H228687   2.428   4.539   1.625
 9582TIP3   OH228688   5.021   3.242   5.990
 9582TIP3    H128689   4.944   3.213   6.039
 9582TIP3    H228690   5.083   3.169   5.998
 9583TIP3   OH228691   2.838   5.714   3.576
 9583TIP3    H128692   2.802   5.741   3.491
 9583TIP3    H228693   2.817   5.621   3.583
 9584TIP3   OH228694   7.048   6.184   1.415
 9584TIP3    H128695   7.097   6.176   1.497
 9584TIP3    H228696   6.956   6.181   1.441
 9585TIP3   OH228697   4.412   3.834   2.353
 9585TIP3    H128698   4.462   3.851   2.274
 9585TIP3    H228699   4.478   3.811   2.419
 9586TIP3   OH228700   0.882   2.324   3.465
 9586TIP3    H128701   0.801   2.354   3.506
 9586TIP3    H228702   0.921   2.404   3.428
 9587TIP3   OH228703   5.521   3.712   1.460
 9587TIP3    H128704   5.441   3.726   1.410
 9587TIP3    H228705   5.538   3.618   1.452
 9588TIP3   OH228706   0.667   0.786   4.682
 9588TIP3    H128707   0.604   0.798   4.753
 9588TIP3    H228708   0.629   0.719   4.626
 9589TIP3   OH228709   1.648   4.272   0.220
 9589TIP3    H128710   1.593   4.211   0.269
 9589TIP3    H228711   1.602   4.356   0.227
 9590TIP3   OH228712   0.055   3.461   2.192
 9590TIP3    H128713  -0.003   3.401   2.238
 9590TIP3    H228714   0.115   3.404   2.143
 9591TIP3   OH228715   7.107   3.810   6.317
 9591TIP3    H128716   7.202   3.803   6.306
 9591TIP3    H228717   7.084   3.734   6.371
 9592TIP3   OH228718   4.702   1.966   2.589
 9592TIP3    H128719   4.643   1.978   2.664
 9592TIP3    H228720   4.763   2.039   2.595
 9593TIP3   OH228721   8.214   7.707   3.486
 9593TIP3    H128722   8.142   7.677   3.542
 9593TIP3    H228723   8.211   7.802   3.492
 9594TIP3   OH228724   0.117   2.196   2.400
 9594TIP3    H128725   0.201   2.163   2.369
 9594TIP3    H228726   0.053   2.160   2.338
 9595TIP3   OH228727   1.739   4.383   6.215
 9595TIP3    H128728   1.688   4.435   6.153
 9595TIP3    H228729   1.800   4.445   6.254
 9596TIP3   OH228730   1.263   2.191   2.952
 9596TIP3    H128731   1.186   2.147   2.916
 9596TIP3    H228732   1.235   2.281   2.967
 9597TIP3   OH228733   5.825   5.039   1.636
 9597TIP3    H128734   5.790   4.968   1.582
 9597TIP3    H228735   5.917   5.015   1.651
 9598TIP3   OH228736   5.444   1.838   5.563
 9598TIP3    H128737   5.538   1.818   5.561
 9598TIP3    H228738   5.430   1.880   5.647
 9599TIP3   OH228739   2.340   7.269   4.279
 9599TIP3    H128740   2.295   7.193   4.315
 9599TIP3    H228741   2.357   7.326   4.355
 9600TIP3   OH228742   3.472   2.968   6.023
 9600TIP3    H128743   3.391   2.979   6.073
 9600TIP3    H228744   3.451   2.901   5.958
 9601TIP3   OH228745   5.237   6.544   1.822
 9601TIP3    H128746   5.179   6.500   1.885
 9601TIP3    H228747   5.324   6.538   1.861
 9602TIP3   OH228748   7.595   4.988   5.521
 9602TIP3    H128749   7.580   4.942   5.604
 9602TIP3    H228750   7.621   4.920   5.460
 9603TIP3   OH228751   8.214   5.733   6.547
 9603TIP3    H128752   8.208   5.696   6.459
 9603TIP3    H228753   8.263   5.668   6.598
 9604TIP3   OH228754   4.144   7.386   2.627
 9604TIP3    H128755   4.237   7.390   2.645
 9604TIP3    H228756   4.103   7.374   2.713
 9605TIP3   OH228757   1.654   2.696   2.988
 9605TIP3    H128758   1.724   2.739   2.940
 9605TIP3    H228759   1.581   2.757   2.983
 9606TIP3   OH228760   3.683   6.289   0.108
 9606TIP3    H128761   3.746   6.308   0.178
 9606TIP3    H228762   3.629   6.368   0.102
 9607TIP3   OH228763   0.067   1.822   2.835
 9607TIP3    H128764   0.123   1.841   2.759
 9607TIP3    H228765   0.008   1.897   2.841
 9608TIP3   OH228766   6.558   4.888   5.413
 9608TIP3    H128767   6.523   4.916   5.497
 9608TIP3    H228768   6.639   4.841   5.435
 9609TIP3   OH228769   7.147   5.185   5.895
 9609TIP3    H128770   7.188   5.208   5.978
 9609TIP3    H228771   7.162   5.261   5.838
 9610TIP3   OH228772   2.947   5.532   5.557
 9610TIP3    H128773   2.963   5.551   5.650
 9610TIP3    H228774   2.889   5.456   5.558
 9611TIP3   OH228775   2.621   4.080   2.067
 9611TIP3    H128776   2.634   4.148   2.133
 9611TIP3    H228777   2.531   4.093   2.037
 9612TIP3   OH228778   4.449   3.600   6.338
 9612TIP3    H128779   4.392   3.668   6.373
 9612TIP3    H228780   4.397   3.557   6.271
 9613TIP3   OH228781   3.663   4.339   4.641
 9613TIP3    H128782   3.575   4.362   4.672
 9613TIP3    H228783   3.670   4.245   4.657
 9614TIP3   OH228784   5.707   5.657   4.714
 9614TIP3    H128785   5.679   5.566   4.707
 9614TIP3    H228786   5.802   5.653   4.713
 9615TIP3   OH228787   4.961   0.810   6.710
 9615TIP3    H128788   4.952   0.786   6.802
 9615TIP3    H228789   5.043   0.859   6.706
 9616TIP3   OH228790   3.877   1.186   2.342
 9616TIP3    H128791   3.941   1.133   2.293
 9616TIP3    H228792   3.928   1.223   2.414
 9617TIP3   OH228793   8.178   4.490   3.527
 9617TIP3    H128794   8.132   4.569   3.499
 9617TIP3    H228795   8.270   4.505   3.502
 9618TIP3   OH228796   7.631   5.151   1.028
 9618TIP3    H128797   7.598   5.078   1.081
 9618TIP3    H228798   7.710   5.180   1.073
 9619TIP3   OH228799   0.439   2.533   2.780
 9619TIP3    H128800   0.507   2.567   2.723
 9619TIP3    H228801   0.482   2.464   2.830
 9620TIP3   OH228802   4.524   4.083   1.255
 9620TIP3    H128803   4.558   4.040   1.176
 9620TIP3    H228804   4.533   4.017   1.324
 9621TIP3   OH228805   7.558   6.558   1.405
 9621TIP3    H128806   7.589   6.500   1.475
 9621TIP3    H228807   7.531   6.499   1.335
 9622TIP3   OH228808   0.308   2.586   1.949
 9622TIP3    H128809   0.233   2.601   1.891
 9622TIP3    H228810   0.306   2.659   2.010
 9623TIP3   OH228811   6.072   3.296   4.185
 9623TIP3    H128812   6.053   3.205   4.163
 9623TIP3    H228813   6.006   3.346   4.137
 9624TIP3   OH228814   1.579   2.912   2.648
 9624TIP3    H128815   1.510   2.978   2.644
 9624TIP3    H228816   1.557   2.849   2.579
 9625TIP3   OH228817   2.974   1.838   6.125
 9625TIP3    H128818   3.057   1.883   6.107
 9625TIP3    H228819   2.963   1.779   6.051
 9626TIP3   OH228820   6.237   4.359   2.303
 9626TIP3    H128821   6.329   4.338   2.317
 9626TIP3    H228822   6.189   4.297   2.357
 9627TIP3   OH228823   3.433   7.240   2.998
 9627TIP3    H128824   3.507   7.287   2.960
 9627TIP3    H228825   3.355   7.285   2.964
 9628TIP3   OH228826   1.793   1.190   4.118
 9628TIP3    H128827   1.877   1.203   4.074
 9628TIP3    H228828   1.812   1.131   4.190
 9629TIP3   OH228829   1.089   1.942   1.741
 9629TIP3    H128830   0.995   1.934   1.724
 9629TIP3    H228831   1.095   2.009   1.809
 9630TIP3   OH228832   7.537   6.508   5.860
 9630TIP3    H128833   7.481   6.568   5.811
 9630TIP3    H228834   7.477   6.461   5.918
 9631TIP3   OH228835   3.618   6.856   1.579
 9631TIP3    H128836   3.569   6.923   1.530
 9631TIP3    H228837   3.700   6.899   1.602
 9632TIP3   OH228838   2.336   3.152   4.183
 9632TIP3    H128839   2.316   3.200   4.103
 9632TIP3    H228840   2.341   3.060   4.155
 9633TIP3   OH228841   7.109   1.452   0.034
 9633TIP3    H128842   7.188   1.469   0.085
 9633TIP3    H228843   7.123   1.366  -0.005
 9634TIP3   OH228844   4.206   2.670   6.667
 9634TIP3    H128845   4.189   2.638   6.578
 9634TIP3    H228846   4.296   2.703   6.664
 9635TIP3   OH228847   5.035   6.145   2.403
 9635TIP3    H128848   4.947   6.176   2.383
 9635TIP3    H228849   5.024   6.051   2.416
 9636TIP3   OH228850   0.933   4.893   1.342
 9636TIP3    H128851   0.995   4.843   1.396
 9636TIP3    H228852   0.971   4.980   1.335
 9637TIP3   OH228853   7.220   4.757   4.342
 9637TIP3    H128854   7.183   4.684   4.390
 9637TIP3    H228855   7.311   4.732   4.327
 9638TIP3   OH228856   1.616   1.072   6.388
 9638TIP3    H128857   1.607   1.066   6.292
 9638TIP3    H228858   1.664   1.153   6.402
 9639TIP3   OH228859   0.626   2.373   5.512
 9639TIP3    H128860   0.672   2.453   5.534
 9639TIP3    H228861   0.621   2.373   5.417
 9640TIP3   OH228862   2.988   3.898   3.998
 9640TIP3    H128863   3.053   3.851   4.051
 9640TIP3    H228864   2.993   3.857   3.912
 9641TIP3   OH228865   6.793   4.405   6.783
 9641TIP3    H128866   6.838   4.323   6.765
 9641TIP3    H228867   6.855   4.473   6.754
 9642TIP3   OH228868   5.605   6.227   1.579
 9642TIP3    H128869   5.637   6.164   1.515
 9642TIP3    H228870   5.579   6.174   1.655
 9643TIP3   OH228871   4.032   5.373   0.684
 9643TIP3    H128872   3.993   5.326   0.758
 9643TIP3    H228873   3.958   5.408   0.635
 9644TIP3   OH228874   7.689   4.062   4.129
 9644TIP3    H128875   7.748   4.137   4.131
 9644TIP3    H228876   7.617   4.087   4.188
 9645TIP3   OH228877   1.415   3.071   5.110
 9645TIP3    H128878   1.493   3.021   5.134
 9645TIP3    H228879   1.436   3.161   5.132
 9646TIP3   OH228880   5.687   7.314   3.612
 9646TIP3    H128881   5.744   7.335   3.538
 9646TIP3    H228882   5.686   7.218   3.615
 9647TIP3   OH228883   2.556   3.402   3.525
 9647TIP3    H128884   2.508   3.324   3.553
 9647TIP3    H228885   2.488   3.464   3.498
 9648TIP3   OH228886   1.590   1.404   5.314
 9648TIP3    H128887   1.602   1.488   5.359
 9648TIP3    H228888   1.670   1.355   5.332
 9649TIP3   OH228889   6.261   3.304   3.171
 9649TIP3    H128890   6.317   3.381   3.160
 9649TIP3    H228891   6.204   3.326   3.244
 9650TIP3   OH228892   2.269   2.571   5.578
 9650TIP3    H128893   2.304   2.517   5.649
 9650TIP3    H228894   2.209   2.632   5.622
 9651TIP3   OH228895   4.065   6.006   3.860
 9651TIP3    H128896   4.016   6.081   3.893
 9651TIP3    H228897   3.999   5.940   3.842
 9652TIP3   OH228898   2.703   5.145   1.662
 9652TIP3    H128899   2.707   5.187   1.577
 9652TIP3    H228900   2.714   5.217   1.725
 9653TIP3   OH228901   6.584   1.353   4.664
 9653TIP3    H128902   6.540   1.430   4.629
 9653TIP3    H228903   6.641   1.386   4.734
 9654TIP3   OH228904   2.156   1.946   2.386
 9654TIP3    H128905   2.189   2.027   2.348
 9654TIP3    H228906   2.196   1.877   2.334
 9655TIP3   OH228907   5.072   4.010   1.416
 9655TIP3    H128908   5.140   4.015   1.349
 9655TIP3    H228909   5.005   4.071   1.387
 9656TIP3   OH228910   1.967   3.918   0.695
 9656TIP3    H128911   2.051   3.874   0.703
 9656TIP3    H228912   1.982   4.005   0.734
 9657TIP3   OH228913   3.864   1.050   2.621
 9657TIP3    H128914   3.851   1.140   2.652
 9657TIP3    H228915   3.775   1.015   2.612
 9658TIP3   OH228916   5.071   6.564   0.974
 9658TIP3    H128917   5.076   6.495   0.907
 9658TIP3    H228918   5.150   6.551   1.026
 9659TIP3   OH228919   5.097   0.342   6.736
 9659TIP3    H128920   5.111   0.434   6.759
 9659TIP3    H228921   5.129   0.293   6.811
 9660TIP3   OH228922   5.674   2.239   2.885
 9660TIP3    H128923   5.755   2.203   2.920
 9660TIP3    H228924   5.701   2.315   2.834
 9661TIP3   OH228925   4.466   7.221   1.316
 9661TIP3    H128926   4.497   7.236   1.406
 9661TIP3    H228927   4.470   7.126   1.306
 9662TIP3   OH228928   2.278   4.811   1.685
 9662TIP3    H128929   2.230   4.728   1.687
 9662TIP3    H228930   2.354   4.793   1.629
 9663TIP3   OH228931   5.525   6.463   3.283
 9663TIP3    H128932   5.532   6.474   3.377
 9663TIP3    H228933   5.581   6.388   3.263
 9664TIP3   OH228934   4.657   5.785   0.659
 9664TIP3    H128935   4.632   5.700   0.694
 9664TIP3    H228936   4.608   5.848   0.713
 9665TIP3   OH228937   5.804   2.740   3.195
 9665TIP3    H128938   5.738   2.707   3.257
 9665TIP3    H228939   5.854   2.805   3.245
 9666TIP3   OH228940   5.429   6.122   5.341
 9666TIP3    H128941   5.454   6.168   5.261
 9666TIP3    H228942   5.499   6.143   5.403
 9667TIP3   OH228943   7.379   3.148   3.114
 9667TIP3    H128944   7.422   3.218   3.162
 9667TIP3    H228945   7.430   3.139   3.033
 9668TIP3   OH228946   6.458   4.944   2.922
 9668TIP3    H128947   6.440   4.852   2.942
 9668TIP3    H228948   6.445   4.951   2.827
 9669TIP3   OH228949   3.620   1.486   2.300
 9669TIP3    H128950   3.606   1.427   2.374
 9669TIP3    H228951   3.533   1.501   2.265
 9670TIP3   OH228952   3.542   0.305   3.502
 9670TIP3    H128953   3.524   0.227   3.448
 9670TIP3    H228954   3.635   0.324   3.485
 9671TIP3   OH228955   5.494   0.297   5.925
 9671TIP3    H128956   5.406   0.327   5.901
 9671TIP3    H228957   5.551   0.371   5.902
 9672TIP3   OH228958   3.645   4.565   4.469
 9672TIP3    H128959   3.716   4.564   4.405
 9672TIP3    H228960   3.662   4.489   4.525
 9673TIP3   OH228961   1.225   6.771   5.081
 9673TIP3    H128962   1.235   6.800   5.172
 9673TIP3    H228963   1.144   6.720   5.080
 9674TIP3   OH228964   2.803   6.980   3.465
 9674TIP3    H128965   2.749   6.992   3.387
 9674TIP3    H228966   2.848   6.897   3.450
 9675TIP3   OH228967   6.698   0.541   2.636
 9675TIP3    H128968   6.709   0.451   2.603
 9675TIP3    H228969   6.728   0.596   2.564
 9676TIP3   OH228970   4.832   1.332   0.099
 9676TIP3    H128971   4.909   1.369   0.142
 9676TIP3    H228972   4.768   1.319   0.169
 9677TIP3   OH228973   1.380   1.261   2.700
 9677TIP3    H128974   1.307   1.276   2.759
 9677TIP3    H228975   1.387   1.342   2.649
 9678TIP3   OH228976   2.296   5.230   2.040
 9678TIP3    H128977   2.349   5.281   1.979
 9678TIP3    H228978   2.354   5.215   2.115
 9679TIP3   OH228979   5.583   7.553   3.668
 9679TIP3    H128980   5.522   7.577   3.599
 9679TIP3    H228981   5.614   7.466   3.643
 9680TIP3   OH228982   7.660   1.865   2.157
 9680TIP3    H128983   7.617   1.915   2.088
 9680TIP3    H228984   7.661   1.775   2.123
 9681TIP3   OH228985   2.225   2.153   5.897
 9681TIP3    H128986   2.190   2.221   5.955
 9681TIP3    H228987   2.320   2.162   5.905
 9682TIP3   OH228988   4.439   3.510   3.661
 9682TIP3    H128989   4.473   3.584   3.711
 9682TIP3    H228990   4.345   3.522   3.662
 9683TIP3   OH228991   0.347   4.709   1.846
 9683TIP3    H128992   0.357   4.627   1.798
 9683TIP3    H228993   0.300   4.685   1.926
 9684TIP3   OH228994   7.280   7.115   1.485
 9684TIP3    H128995   7.321   7.202   1.492
 9684TIP3    H228996   7.186   7.132   1.495
 9685TIP3   OH228997   2.179   5.702   4.436
 9685TIP3    H128998   2.123   5.625   4.438
 9685TIP3    H228999   2.264   5.670   4.466
 9686TIP3   OH229000   2.809   3.079   5.604
 9686TIP3    H129001   2.787   3.101   5.514
 9686TIP3    H229002   2.744   3.126   5.657
 9687TIP3   OH229003   3.823   5.197   1.815
 9687TIP3    H129004   3.824   5.206   1.720
 9687TIP3    H229005   3.805   5.104   1.831
 9688TIP3   OH229006   7.103   0.034   4.159
 9688TIP3    H129007   7.024   0.024   4.212
 9688TIP3    H229008   7.118   0.128   4.156
 9689TIP3   OH229009   2.668   5.715   1.256
 9689TIP3    H129010   2.582   5.731   1.218
 9689TIP3    H229011   2.707   5.648   1.200
 9690TIP3   OH229012   0.742   4.903   2.809
 9690TIP3    H129013   0.705   4.972   2.754
 9690TIP3    H229014   0.836   4.902   2.787
 9691TIP3   OH229015   7.553   0.500   0.904
 9691TIP3    H129016   7.564   0.586   0.944
 9691TIP3    H229017   7.593   0.439   0.966
 9692TIP3   OH229018   7.385   4.982   2.853
 9692TIP3    H129019   7.339   4.935   2.783
 9692TIP3    H229020   7.443   5.042   2.807
 9693TIP3   OH229021   1.888   3.234   0.260
 9693TIP3    H129022   1.890   3.189   0.345
 9693TIP3    H229023   1.951   3.186   0.207
 9694TIP3   OH229024   2.061   3.265   3.309
 9694TIP3    H129025   2.148   3.238   3.336
 9694TIP3    H229026   2.042   3.213   3.232
 9695TIP3   OH229027   6.880   4.745   6.573
 9695TIP3    H129028   6.869   4.738   6.478
 9695TIP3    H229029   6.871   4.838   6.592
 9696TIP3   OH229030   1.874   2.256   2.703
 9696TIP3    H129031   1.851   2.348   2.719
 9696TIP3    H229032   1.921   2.258   2.620
 9697TIP3   OH229033   7.336   6.160   1.335
 9697TIP3    H129034   7.253   6.112   1.330
 9697TIP3    H229035   7.350   6.172   1.429
 9698TIP3   OH229036   0.165   4.489   1.124
 9698TIP3    H129037   0.193   4.580   1.138
 9698TIP3    H229038   0.191   4.444   1.204
 9699TIP3   OH229039   0.187   4.483   5.699
 9699TIP3    H129040   0.244   4.489   5.776
 9699TIP3    H229041   0.119   4.549   5.715
 9700TIP3   OH229042   0.107   1.435   2.346
 9700TIP3    H129043   0.041   1.366   2.341
 9700TIP3    H229044   0.168   1.406   2.413
 9701TIP3   OH229045   7.770   5.672   0.498
 9701TIP3    H129046   7.825   5.682   0.576
 9701TIP3    H229047   7.826   5.625   0.435
 9702TIP3   OH229048   0.487   6.561   0.870
 9702TIP3    H129049   0.456   6.650   0.885
 9702TIP3    H229050   0.464   6.542   0.779
 9703TIP3   OH229051   1.994   1.947   3.676
 9703TIP3    H129052   2.000   2.036   3.642
 9703TIP3    H229053   1.958   1.958   3.765
 9704TIP3   OH229054   0.158   1.111   2.678
 9704TIP3    H129055   0.226   1.049   2.654
 9704TIP3    H229056   0.106   1.066   2.744
 9705TIP3   OH229057   4.476   6.330   1.925
 9705TIP3    H129058   4.538   6.318   1.997
 9705TIP3    H229059   4.448   6.421   1.932
 9706TIP3   OH229060   4.283   3.153   2.694
 9706TIP3    H129061   4.213   3.090   2.678
 9706TIP3    H229062   4.247   3.237   2.664
 9707TIP3   OH229063   5.823   3.867   0.380
 9707TIP3    H129064   5.790   3.893   0.466
 9707TIP3    H229065   5.745   3.862   0.325
 9708TIP3   OH229066   6.805   3.008   5.744
 9708TIP3    H129067   6.787   3.101   5.762
 9708TIP3    H229068   6.790   2.964   5.828
 9709TIP3   OH229069   6.384   6.342   0.370
 9709TIP3    H129070   6.426   6.315   0.452
 9709TIP3    H229071   6.435   6.417   0.340
 9710TIP3   OH229072   3.614   7.217   3.545
 9710TIP3    H129073   3.573   7.217   3.459
 9710TIP3    H229074   3.690   7.275   3.536
 9711TIP3   OH229075   6.835   1.484   0.791
 9711TIP3    H129076   6.914   1.452   0.834
 9711TIP3    H229077   6.865   1.558   0.739
 9712TIP3   OH229078   6.370   1.940   3.732
 9712TIP3    H129079   6.384   2.002   3.661
 9712TIP3    H229080   6.349   1.994   3.808
 9713TIP3   OH229081   5.013   7.033   4.256
 9713TIP3    H129082   5.091   7.066   4.300
 9713TIP3    H229083   4.939   7.064   4.308
 9714TIP3   OH229084   0.082   7.249   5.434
 9714TIP3    H129085   0.114   7.162   5.410
 9714TIP3    H229086   0.079   7.298   5.352
 9715TIP3   OH229087   6.314   0.815   2.975
 9715TIP3    H129088   6.404   0.839   2.994
 9715TIP3    H229089   6.304   0.728   3.014
 9716TIP3   OH229090   6.862   4.333   2.008
 9716TIP3    H129091   6.767   4.331   2.010
 9716TIP3    H229092   6.884   4.321   1.916
 9717TIP3   OH229093   5.302   3.152   6.785
 9717TIP3    H129094   5.364   3.092   6.743
 9717TIP3    H229095   5.218   3.134   6.742
 9718TIP3   OH229096   3.172   0.191   5.357
 9718TIP3    H129097   3.091   0.157   5.318
 9718TIP3    H229098   3.210   0.115   5.402
 9719TIP3   OH229099   3.359   5.598   4.674
 9719TIP3    H129100   3.373   5.684   4.633
 9719TIP3    H229101   3.309   5.617   4.754
 9720TIP3   OH229102   1.352   1.423   1.134
 9720TIP3    H129103   1.346   1.514   1.104
 9720TIP3    H229104   1.289   1.418   1.206
 9721TIP3   OH229105   4.210   3.549   5.211
 9721TIP3    H129106   4.168   3.485   5.154
 9721TIP3    H229107   4.212   3.630   5.160
 9722TIP3   OH229108   3.758   1.416   3.381
 9722TIP3    H129109   3.732   1.456   3.464
 9722TIP3    H229110   3.775   1.324   3.402
 9723TIP3   OH229111   5.600   5.395   0.596
 9723TIP3    H129112   5.637   5.449   0.526
 9723TIP3    H229113   5.520   5.442   0.622
 9724TIP3   OH229114   1.603   5.060   6.686
 9724TIP3    H129115   1.577   5.110   6.608
 9724TIP3    H229116   1.688   5.097   6.710
 9725TIP3   OH229117   0.334   2.006   5.137
 9725TIP3    H129118   0.406   2.051   5.180
 9725TIP3    H229119   0.255   2.052   5.166
 9726TIP3   OH229120   2.072   1.710   2.311
 9726TIP3    H129121   2.080   1.785   2.369
 9726TIP3    H229122   2.024   1.645   2.363
 9727TIP3   OH229123   3.574   7.504   5.957
 9727TIP3    H129124   3.653   7.456   5.984
 9727TIP3    H229125   3.577   7.585   6.008
 9728TIP3   OH229126   0.830   3.492   0.074
 9728TIP3    H129127   0.904   3.431   0.079
 9728TIP3    H229128   0.759   3.440   0.037
 9729TIP3   OH229129   1.388   1.472   5.849
 9729TIP3    H129130   1.362   1.564   5.843
 9729TIP3    H229131   1.361   1.434   5.765
 9730TIP3   OH229132   6.603   6.076   6.159
 9730TIP3    H129133   6.540   6.033   6.102
 9730TIP3    H229134   6.654   6.132   6.101
 9731TIP3   OH229135   3.151   2.457   2.491
 9731TIP3    H129136   3.097   2.464   2.413
 9731TIP3    H229137   3.234   2.421   2.460
 9732TIP3   OH229138   0.312   4.008   3.628
 9732TIP3    H129139   0.407   4.014   3.617
 9732TIP3    H229140   0.287   3.930   3.579
 9733TIP3   OH229141   7.750   1.543   0.471
 9733TIP3    H129142   7.803   1.519   0.547
 9733TIP3    H229143   7.739   1.638   0.478
 9734TIP3   OH229144   5.186   5.030   3.997
 9734TIP3    H129145   5.276   5.007   3.974
 9734TIP3    H229146   5.146   4.947   4.024
 9735TIP3   OH229147   7.290   4.801   6.031
 9735TIP3    H129148   7.380   4.829   6.016
 9735TIP3    H229149   7.289   4.768   6.121
 9736TIP3   OH229150   3.445   4.963   0.145
 9736TIP3    H129151   3.481   4.879   0.173
 9736TIP3    H229152   3.519   5.023   0.145
 9737TIP3   OH229153   2.137   3.367   5.941
 9737TIP3    H129154   2.203   3.307   5.976
 9737TIP3    H229155   2.062   3.312   5.920
 9738TIP3   OH229156   2.527   4.243   5.605
 9738TIP3    H129157   2.432   4.255   5.612
 9738TIP3    H229158   2.565   4.319   5.648
 9739TIP3   OH229159   3.524   0.738   3.627
 9739TIP3    H129160   3.509   0.645   3.646
 9739TIP3    H229161   3.597   0.763   3.684
 9740TIP3   OH229162   1.942   1.847   1.029
 9740TIP3    H129163   1.966   1.760   0.995
 9740TIP3    H229164   1.848   1.853   1.016
 9741TIP3   OH229165   0.167   1.475   1.495
 9741TIP3    H129166   0.177   1.468   1.400
 9741TIP3    H229167   0.254   1.499   1.527
 9742TIP3   OH229168   5.870   3.598   2.863
 9742TIP3    H129169   5.838   3.518   2.820
 9742TIP3    H229170   5.855   3.667   2.799
 9743TIP3   OH229171   6.877   6.624   6.288
 9743TIP3    H129172   6.905   6.707   6.250
 9743TIP3    H229173   6.803   6.646   6.343
 9744TIP3   OH229174   3.182   4.970   3.427
 9744TIP3    H129175   3.251   5.013   3.478
 9744TIP3    H229176   3.203   4.876   3.434
 9745TIP3   OH229177   7.594   6.521   3.442
 9745TIP3    H129178   7.644   6.558   3.369
 9745TIP3    H229179   7.564   6.436   3.409
 9746TIP3   OH229180   1.304   5.306   4.414
 9746TIP3    H129181   1.221   5.337   4.449
 9746TIP3    H229182   1.303   5.332   4.322
 9747TIP3   OH229183   5.066   7.508   4.427
 9747TIP3    H129184   4.991   7.561   4.400
 9747TIP3    H229185   5.057   7.500   4.522
 9748TIP3   OH229186   0.106   5.336   1.506
 9748TIP3    H129187   0.079   5.428   1.496
 9748TIP3    H229188   0.068   5.292   1.431
 9749TIP3   OH229189   1.185   5.600   4.749
 9749TIP3    H129190   1.164   5.537   4.817
 9749TIP3    H229191   1.174   5.552   4.667
 9750TIP3   OH229192   2.924   4.876   6.632
 9750TIP3    H129193   2.857   4.940   6.655
 9750TIP3    H229194   2.944   4.894   6.540
 9751TIP3   OH229195   4.056   0.405   3.935
 9751TIP3    H129196   4.017   0.471   3.877
 9751TIP3    H229197   4.144   0.391   3.900
 9752TIP3   OH229198   7.999   6.291   1.628
 9752TIP3    H129199   8.007   6.209   1.678
 9752TIP3    H229200   7.996   6.262   1.537
 9753TIP3   OH229201   5.430   5.298   4.114
 9753TIP3    H129202   5.487   5.222   4.130
 9753TIP3    H229203   5.482   5.355   4.057
 9754TIP3   OH229204   6.840   4.184   3.824
 9754TIP3    H129205   6.833   4.116   3.757
 9754TIP3    H229206   6.783   4.154   3.894
 9755TIP3   OH229207   0.004   0.667   1.955
 9755TIP3    H129208  -0.062   0.656   1.886
 9755TIP3    H229209   0.075   0.608   1.929
 9756TIP3   OH229210   7.735   1.000   6.604
 9756TIP3    H129211   7.822   1.036   6.592
 9756TIP3    H229212   7.725   0.936   6.533
 9757TIP3   OH229213   3.991   0.357   2.883
 9757TIP3    H129214   4.010   0.442   2.922
 9757TIP3    H229215   3.901   0.363   2.852
 9758TIP3   OH229216   6.058   6.956   5.084
 9758TIP3    H129217   6.151   6.972   5.101
 9758TIP3    H229218   6.031   7.028   5.028
 9759TIP3   OH229219   7.448   0.913   6.307
 9759TIP3    H129220   7.371   0.937   6.359
 9759TIP3    H229221   7.440   0.819   6.294
 9760TIP3   OH229222   4.367   1.735   2.719
 9760TIP3    H129223   4.406   1.822   2.732
 9760TIP3    H229224   4.405   1.681   2.788
 9761TIP3   OH229225   1.474   3.411   6.630
 9761TIP3    H129226   1.561   3.445   6.651
 9761TIP3    H229227   1.436   3.478   6.572
 9762TIP3   OH229228   5.120   2.516   4.724
 9762TIP3    H129229   5.129   2.541   4.816
 9762TIP3    H229230   5.203   2.540   4.684
 9763TIP3   OH229231   0.014   0.878   2.413
 9763TIP3    H129232  -0.037   0.802   2.443
 9763TIP3    H229233   0.071   0.843   2.345
 9764TIP3   OH229234   1.930   5.782   0.020
 9764TIP3    H129235   1.966   5.854   0.072
 9764TIP3    H229236   1.924   5.816  -0.069
 9765TIP3   OH229237   2.729   6.476   1.217
 9765TIP3    H129238   2.711   6.498   1.125
 9765TIP3    H229239   2.821   6.450   1.217
 9766TIP3   OH229240   8.036   3.564   5.305
 9766TIP3    H129241   8.077   3.646   5.276
 9766TIP3    H229242   8.093   3.532   5.375
 9767TIP3   OH229243   6.983   3.594   6.440
 9767TIP3    H129244   6.981   3.517   6.498
 9767TIP3    H229245   6.904   3.643   6.464
 9768TIP3   OH229246   3.121   2.569   0.607
 9768TIP3    H129247   3.085   2.518   0.680
 9768TIP3    H229248   3.044   2.607   0.564
 9769TIP3   OH229249   4.639   7.167   2.055
 9769TIP3    H129250   4.715   7.139   2.004
 9769TIP3    H229251   4.630   7.260   2.037
 9770TIP3   OH229252   5.500   3.525   3.189
 9770TIP3    H129253   5.405   3.521   3.198
 9770TIP3    H229254   5.522   3.616   3.210
 9771TIP3   OH229255   8.257   1.137   4.408
 9771TIP3    H129256   8.327   1.129   4.344
 9771TIP3    H229257   8.296   1.186   4.481
 9772TIP3   OH229258   7.155   3.682   0.929
 9772TIP3    H129259   7.200   3.644   0.854
 9772TIP3    H229260   7.201   3.647   1.005
 9773TIP3   OH229261   3.626   7.503   1.965
 9773TIP3    H129262   3.686   7.434   1.933
 9773TIP3    H229263   3.658   7.524   2.052
 9774TIP3   OH229264   6.052   2.596   3.550
 9774TIP3    H129265   6.094   2.682   3.551
 9774TIP3    H229266   5.958   2.615   3.553
 9775TIP3   OH229267   5.649   4.445   1.173
 9775TIP3    H129268   5.644   4.388   1.250
 9775TIP3    H229269   5.701   4.395   1.110
 9776TIP3   OH229270   2.252   6.965   0.928
 9776TIP3    H129271   2.270   6.872   0.939
 9776TIP3    H229272   2.198   6.987   1.004
 9777TIP3   OH229273   1.763   5.975   0.859
 9777TIP3    H129274   1.812   6.032   0.800
 9777TIP3    H229275   1.691   5.942   0.805
 9778TIP3   OH229276   6.808   0.200   1.290
 9778TIP3    H129277   6.729   0.201   1.236
 9778TIP3    H229278   6.848   0.286   1.276
 9779TIP3   OH229279   6.331   4.969   4.625
 9779TIP3    H129280   6.267   5.006   4.564
 9779TIP3    H229281   6.416   4.993   4.588
 9780TIP3   OH229282   4.716   7.221   0.851
 9780TIP3    H129283   4.713   7.220   0.947
 9780TIP3    H229284   4.671   7.302   0.827
 9781TIP3   OH229285   4.056   2.189   3.394
 9781TIP3    H129286   4.100   2.129   3.333
 9781TIP3    H229287   4.083   2.276   3.366
 9782TIP3   OH229288   5.226   6.738   4.037
 9782TIP3    H129289   5.165   6.759   4.107
 9782TIP3    H229290   5.272   6.820   4.020
 9783TIP3   OH229291   7.780   0.836   1.209
 9783TIP3    H129292   7.865   0.812   1.172
 9783TIP3    H229293   7.800   0.900   1.277
 9784TIP3   OH229294   0.833   6.459   5.175
 9784TIP3    H129295   0.829   6.448   5.270
 9784TIP3    H229296   0.742   6.470   5.148
 9785TIP3   OH229297   0.825   7.825   1.425
 9785TIP3    H129298   0.794   7.740   1.393
 9785TIP3    H229299   0.870   7.864   1.351
 9786TIP3   OH229300   7.566   7.577   4.373
 9786TIP3    H129301   7.540   7.543   4.458
 9786TIP3    H229302   7.489   7.563   4.317
 9787TIP3   OH229303   5.301   0.447   2.088
 9787TIP3    H129304   5.381   0.406   2.055
 9787TIP3    H229305   5.231   0.390   2.058
 9788TIP3   OH229306   0.409   1.213   4.945
 9788TIP3    H129307   0.436   1.261   5.023
 9788TIP3    H229308   0.462   1.250   4.875
 9789TIP3   OH229309   6.285   6.655   2.847
 9789TIP3    H129310   6.216   6.629   2.787
 9789TIP3    H229311   6.241   6.709   2.913
 9790TIP3   OH229312   0.131   1.748   3.786
 9790TIP3    H129313   0.139   1.716   3.876
 9790TIP3    H229314   0.222   1.754   3.756
 9791TIP3   OH229315   2.156   4.584   4.079
 9791TIP3    H129316   2.168   4.675   4.053
 9791TIP3    H229317   2.062   4.568   4.065
 9792TIP3   OH229318   6.896   1.951   2.503
 9792TIP3    H129319   6.974   1.902   2.477
 9792TIP3    H229320   6.924   2.004   2.577
 9793TIP3   OH229321   4.582   2.621   1.291
 9793TIP3    H129322   4.652   2.574   1.246
 9793TIP3    H229323   4.525   2.652   1.220
 9794TIP3   OH229324   5.114   2.080   4.727
 9794TIP3    H129325   5.152   2.026   4.658
 9794TIP3    H229326   5.115   2.023   4.805
 9795TIP3   OH229327   5.809   4.911   2.830
 9795TIP3    H129328   5.850   4.923   2.744
 9795TIP3    H229329   5.718   4.936   2.817
 9796TIP3   OH229330   3.931   5.471   1.542
 9796TIP3    H129331   3.900   5.553   1.581
 9796TIP3    H229332   4.018   5.458   1.580
 9797TIP3   OH229333   4.542   2.993   2.320
 9797TIP3    H129334   4.637   3.006   2.314
 9797TIP3    H229335   4.521   3.009   2.412
 9798TIP3   OH229336   1.114   4.552   0.196
 9798TIP3    H129337   1.020   4.573   0.191
 9798TIP3    H229338   1.116   4.457   0.201
 9799TIP3   OH229339   6.818   6.725   3.413
 9799TIP3    H129340   6.864   6.702   3.493
 9799TIP3    H229341   6.841   6.817   3.398
 9800TIP3   OH229342   4.631   3.982   0.445
 9800TIP3    H129343   4.622   3.919   0.373
 9800TIP3    H229344   4.542   4.001   0.472
 9801TIP3   OH229345   1.459   6.775   3.876
 9801TIP3    H129346   1.386   6.810   3.928
 9801TIP3    H229347   1.478   6.845   3.813
 9802TIP3   OH229348   4.318   2.305   5.938
 9802TIP3    H129349   4.258   2.231   5.934
 9802TIP3    H229350   4.282   2.369   5.877
 9803TIP3   OH229351   4.448   4.361   3.491
 9803TIP3    H129352   4.541   4.355   3.469
 9803TIP3    H229353   4.403   4.329   3.414
 9804TIP3   OH229354   2.002   3.678   5.488
 9804TIP3    H129355   2.031   3.654   5.576
 9804TIP3    H229356   1.975   3.770   5.497
 9805TIP3   OH229357   1.288   7.301   5.642
 9805TIP3    H129358   1.315   7.361   5.712
 9805TIP3    H229359   1.193   7.313   5.635
 9806TIP3   OH229360   2.521   3.963   5.317
 9806TIP3    H129361   2.580   3.911   5.262
 9806TIP3    H229362   2.491   4.034   5.261
 9807TIP3   OH229363   3.685   0.684   6.466
 9807TIP3    H129364   3.681   0.769   6.511
 9807TIP3    H229365   3.631   0.697   6.388
 9808TIP3   OH229366   7.036   1.725   4.020
 9808TIP3    H129367   7.125   1.705   3.992
 9808TIP3    H229368   7.005   1.790   3.957
 9809TIP3   OH229369   2.385   1.904   0.206
 9809TIP3    H129370   2.392   1.848   0.283
 9809TIP3    H229371   2.462   1.884   0.153
 9810TIP3   OH229372   0.862   0.377   4.996
 9810TIP3    H129373   0.942   0.332   4.970
 9810TIP3    H229374   0.868   0.385   5.091
 9811TIP3   OH229375   2.441   3.060   1.663
 9811TIP3    H129376   2.474   3.038   1.576
 9811TIP3    H229377   2.357   3.103   1.645
 9812TIP3   OH229378   4.603   7.188   4.218
 9812TIP3    H129379   4.604   7.092   4.225
 9812TIP3    H229380   4.521   7.208   4.175
 9813TIP3   OH229381   5.209   0.429   4.184
 9813TIP3    H129382   5.128   0.466   4.220
 9813TIP3    H229383   5.279   0.473   4.233
 9814TIP3   OH229384   2.960   7.695   3.397
 9814TIP3    H129385   2.972   7.610   3.355
 9814TIP3    H229386   2.870   7.693   3.431
 9815TIP3   OH229387   7.574   5.571   6.242
 9815TIP3    H129388   7.521   5.491   6.234
 9815TIP3    H229389   7.523   5.637   6.194
 9816TIP3   OH229390   7.038   3.806   6.720
 9816TIP3    H129391   7.023   3.811   6.625
 9816TIP3    H229392   6.953   3.779   6.756
 9817TIP3   OH229393   2.399   7.636   2.950
 9817TIP3    H129394   2.407   7.548   2.912
 9817TIP3    H229395   2.348   7.623   3.030
 9818TIP3   OH229396   4.491   1.157   5.289
 9818TIP3    H129397   4.565   1.149   5.229
 9818TIP3    H229398   4.517   1.104   5.365
 9819TIP3   OH229399   6.193   6.150   0.328
 9819TIP3    H129400   6.246   6.218   0.369
 9819TIP3    H229401   6.234   6.068   0.353
 9820TIP3   OH229402   4.419   1.425   5.352
 9820TIP3    H129403   4.464   1.348   5.318
 9820TIP3    H229404   4.422   1.488   5.280
 9821TIP3   OH229405   6.142   4.308   0.434
 9821TIP3    H129406   6.220   4.255   0.446
 9821TIP3    H229407   6.085   4.255   0.378
 9822TIP3   OH229408   6.659   4.364   0.117
 9822TIP3    H129409   6.577   4.386   0.161
 9822TIP3    H229410   6.665   4.427   0.045
 9823TIP3   OH229411   5.220   4.052   2.234
 9823TIP3    H129412   5.221   4.061   2.139
 9823TIP3    H229413   5.190   4.138   2.265
 9824TIP3   OH229414   3.162   3.299   6.585
 9824TIP3    H129415   3.122   3.379   6.550
 9824TIP3    H229416   3.251   3.325   6.607
 9825TIP3   OH229417   1.528   1.045   2.776
 9825TIP3    H129418   1.498   0.967   2.729
 9825TIP3    H229419   1.461   1.111   2.758
 9826TIP3   OH229420   5.420   3.158   2.845
 9826TIP3    H129421   5.375   3.184   2.764
 9826TIP3    H229422   5.505   3.124   2.815
 9827TIP3   OH229423   8.187   6.441   4.826
 9827TIP3    H129424   8.248   6.387   4.775
 9827TIP3    H229425   8.233   6.458   4.908
 9828TIP3   OH229426   2.170   0.934   2.059
 9828TIP3    H129427   2.230   0.888   2.118
 9828TIP3    H229428   2.226   0.983   2.000
 9829TIP3   OH229429   2.113   5.424   2.025
 9829TIP3    H129430   2.176   5.356   2.048
 9829TIP3    H229431   2.150   5.468   1.949
 9830TIP3   OH229432   7.370   0.315   1.586
 9830TIP3    H129433   7.392   0.308   1.493
 9830TIP3    H229434   7.323   0.397   1.594
 9831TIP3   OH229435   1.672   0.711   1.526
 9831TIP3    H129436   1.735   0.669   1.467
 9831TIP3    H229437   1.632   0.780   1.473
 9832TIP3   OH229438   0.207   6.990   2.246
 9832TIP3    H129439   0.181   6.994   2.338
 9832TIP3    H229440   0.299   7.016   2.246
 9833TIP3   OH229441   1.206   0.617   6.101
 9833TIP3    H129442   1.241   0.537   6.061
 9833TIP3    H229443   1.161   0.661   6.029
 9834TIP3   OH229444   8.275   5.063   5.769
 9834TIP3    H129445   8.286   5.070   5.864
 9834TIP3    H229446   8.188   5.099   5.752
 9835TIP3   OH229447   8.040   0.376   0.767
 9835TIP3    H129448   8.088   0.453   0.739
 9835TIP3    H229449   7.952   0.388   0.730
 9836TIP3   OH229450   2.597   4.274   4.576
 9836TIP3    H129451   2.650   4.325   4.515
 9836TIP3    H229452   2.593   4.187   4.538
 9837TIP3   OH229453   5.986   5.493   3.082
 9837TIP3    H129454   5.953   5.502   2.992
 9837TIP3    H229455   5.908   5.503   3.137
 9838TIP3   OH229456   4.840   6.699   0.055
 9838TIP3    H129457   4.833   6.682  -0.039
 9838TIP3    H229458   4.873   6.789   0.061
 9839TIP3   OH229459   3.789   5.619   5.026
 9839TIP3    H129460   3.713   5.614   4.967
 9839TIP3    H229461   3.839   5.695   4.994
 9840TIP3   OH229462   5.564   5.020   4.185
 9840TIP3    H129463   5.526   5.042   4.270
 9840TIP3    H229464   5.554   4.925   4.177
 9841TIP3   OH229465   4.752   7.167   1.125
 9841TIP3    H129466   4.826   7.227   1.132
 9841TIP3    H229467   4.762   7.108   1.200
 9842TIP3   OH229468   3.925   1.633   1.675
 9842TIP3    H129469   3.865   1.558   1.675
 9842TIP3    H229470   3.976   1.623   1.755
 9843TIP3   OH229471   2.890   2.802   2.137
 9843TIP3    H129472   2.875   2.896   2.127
 9843TIP3    H229473   2.985   2.793   2.146
 9844TIP3   OH229474   3.640   3.321   0.912
 9844TIP3    H129475   3.570   3.332   0.848
 9844TIP3    H229476   3.716   3.295   0.861
 9845TIP3   OH229477   1.723   2.304   4.513
 9845TIP3    H129478   1.659   2.327   4.581
 9845TIP3    H229479   1.697   2.217   4.485
 9846TIP3   OH229480   2.873   7.741   5.048
 9846TIP3    H129481   2.894   7.749   5.141
 9846TIP3    H229482   2.824   7.660   5.041
 9847TIP3   OH229483   5.602   7.020   5.460
 9847TIP3    H129484   5.668   6.970   5.411
 9847TIP3    H229485   5.534   6.955   5.481
 9848TIP3   OH229486   7.359   5.825   0.016
 9848TIP3    H129487   7.383   5.901   0.068
 9848TIP3    H229488   7.409   5.753   0.055
 9849TIP3   OH229489   5.568   6.972   4.964
 9849TIP3    H129490   5.590   6.956   4.872
 9849TIP3    H229491   5.474   6.956   4.969
 9850TIP3   OH229492   1.970   3.511   4.804
 9850TIP3    H129493   2.047   3.531   4.858
 9850TIP3    H229494   1.895   3.526   4.863
 9851TIP3   OH229495   1.265   0.424   1.445
 9851TIP3    H129496   1.291   0.459   1.531
 9851TIP3    H229497   1.179   0.385   1.461
 9852TIP3   OH229498   6.505   7.469   6.158
 9852TIP3    H129499   6.548   7.481   6.242
 9852TIP3    H229500   6.577   7.470   6.094
 9853TIP3   OH229501   3.361   1.572   2.224
 9853TIP3    H129502   3.337   1.540   2.137
 9853TIP3    H229503   3.279   1.570   2.273
 9854TIP3   OH229504   7.639   4.560   3.496
 9854TIP3    H129505   7.718   4.614   3.500
 9854TIP3    H229506   7.629   4.539   3.403
 9855TIP3   OH229507   7.665   7.354   5.773
 9855TIP3    H129508   7.635   7.274   5.816
 9855TIP3    H229509   7.620   7.354   5.689
 9856TIP3   OH229510   4.582   3.225   5.262
 9856TIP3    H129511   4.589   3.146   5.209
 9856TIP3    H229512   4.584   3.193   5.352
 9857TIP3   OH229513   7.832   3.354   1.347
 9857TIP3    H129514   7.804   3.298   1.275
 9857TIP3    H229515   7.845   3.440   1.308
 9858TIP3   OH229516   7.165   3.191   1.151
 9858TIP3    H129517   7.076   3.194   1.116
 9858TIP3    H229518   7.222   3.193   1.074
 9859TIP3   OH229519   2.221   4.249   4.606
 9859TIP3    H129520   2.264   4.246   4.521
 9859TIP3    H229521   2.145   4.307   4.593
 9860TIP3   OH229522   3.999   6.983   5.778
 9860TIP3    H129523   4.037   7.065   5.747
 9860TIP3    H229524   4.010   6.922   5.704
 9861TIP3   OH229525   6.545   1.077   3.270
 9861TIP3    H129526   6.550   1.152   3.211
 9861TIP3    H229527   6.616   1.090   3.333
 9862TIP3   OH229528   8.249   3.030   5.850
 9862TIP3    H129529   8.269   3.030   5.756
 9862TIP3    H229530   8.176   2.968   5.859
 9863TIP3   OH229531   0.382   3.755   0.466
 9863TIP3    H129532   0.380   3.663   0.438
 9863TIP3    H229533   0.398   3.805   0.386
 9864TIP3   OH229534   1.985   3.775   5.126
 9864TIP3    H129535   2.038   3.854   5.143
 9864TIP3    H229536   1.925   3.771   5.200
 9865TIP3   OH229537   7.224   5.693   3.431
 9865TIP3    H129538   7.310   5.654   3.450
 9865TIP3    H229539   7.245   5.771   3.379
 9866TIP3   OH229540   4.604   6.638   4.259
 9866TIP3    H129541   4.697   6.652   4.239
 9866TIP3    H229542   4.574   6.579   4.189
 9867TIP3   OH229543   0.876   2.753   2.991
 9867TIP3    H129544   0.901   2.803   3.069
 9867TIP3    H229545   0.903   2.808   2.918
 9868TIP3   OH229546   3.281   6.902   5.286
 9868TIP3    H129547   3.213   6.941   5.341
 9868TIP3    H229548   3.289   6.813   5.318
 9869TIP3   OH229549   4.844   6.356   4.423
 9869TIP3    H129550   4.813   6.412   4.352
 9869TIP3    H229551   4.835   6.409   4.502
 9870TIP3   OH229552   5.427   6.225   0.184
 9870TIP3    H129553   5.388   6.148   0.143
 9870TIP3    H229554   5.456   6.279   0.110
 9871TIP3   OH229555   4.895   1.054   5.386
 9871TIP3    H129556   4.873   1.138   5.427
 9871TIP3    H229557   4.930   1.001   5.457
 9872TIP3   OH229558   4.761   6.060   4.117
 9872TIP3    H129559   4.820   5.989   4.143
 9872TIP3    H229560   4.815   6.116   4.061
 9873TIP3   OH229561   1.442   4.851   5.987
 9873TIP3    H129562   1.512   4.900   5.944
 9873TIP3    H229563   1.481   4.766   6.006
 9874TIP3   OH229564   5.634   3.993   1.441
 9874TIP3    H129565   5.655   3.922   1.380
 9874TIP3    H229566   5.637   3.952   1.528
 9875TIP3   OH229567   2.223   6.236   1.687
 9875TIP3    H129568   2.259   6.176   1.622
 9875TIP3    H229569   2.149   6.189   1.725
 9876TIP3   OH229570   3.226   3.174   1.583
 9876TIP3    H129571   3.160   3.235   1.616
 9876TIP3    H229572   3.244   3.204   1.494
 9877TIP3   OH229573   7.643   2.527   5.922
 9877TIP3    H129574   7.622   2.462   5.856
 9877TIP3    H229575   7.578   2.596   5.910
 9878TIP3   OH229576   3.596   4.755   0.222
 9878TIP3    H129577   3.672   4.725   0.171
 9878TIP3    H229578   3.581   4.685   0.285
 9879TIP3   OH229579   1.135   1.749   1.287
 9879TIP3    H129580   1.083   1.670   1.274
 9879TIP3    H229581   1.129   1.766   1.381
 9880TIP3   OH229582   3.550   5.138   4.266
 9880TIP3    H129583   3.643   5.115   4.276
 9880TIP3    H229584   3.546   5.187   4.184
 9881TIP3   OH229585   1.399   4.975   5.056
 9881TIP3    H129586   1.358   4.981   5.142
 9881TIP3    H229587   1.387   5.062   5.018
 9882TIP3   OH229588   4.197   7.263   1.401
 9882TIP3    H129589   4.144   7.251   1.322
 9882TIP3    H229590   4.284   7.233   1.377
 9883TIP3   OH229591   5.439   1.135   5.631
 9883TIP3    H129592   5.414   1.218   5.590
 9883TIP3    H229593   5.413   1.068   5.568
 9884TIP3   OH229594   3.811   6.934   6.494
 9884TIP3    H129595   3.770   6.924   6.580
 9884TIP3    H229596   3.904   6.942   6.513
 9885TIP3   OH229597   0.671   2.193   1.619
 9885TIP3    H129598   0.685   2.248   1.542
 9885TIP3    H229599   0.603   2.239   1.669
 9886TIP3   OH229600   4.494   5.818   2.612
 9886TIP3    H129601   4.478   5.728   2.583
 9886TIP3    H229602   4.583   5.837   2.582
 9887TIP3   OH229603   7.189   4.535   5.992
 9887TIP3    H129604   7.174   4.629   5.989
 9887TIP3    H229605   7.283   4.526   6.006
 9888TIP3   OH229606   4.170   6.319   4.197
 9888TIP3    H129607   4.082   6.281   4.202
 9888TIP3    H229608   4.227   6.246   4.174
 9889TIP3   OH229609   1.200   1.852   4.285
 9889TIP3    H129610   1.245   1.773   4.253
 9889TIP3    H229611   1.215   1.917   4.216
 9890TIP3   OH229612   2.408   5.339   1.795
 9890TIP3    H129613   2.410   5.368   1.704
 9890TIP3    H229614   2.361   5.256   1.793
 9891TIP3   OH229615   0.962   6.708   5.109
 9891TIP3    H129616   0.900   6.772   5.074
 9891TIP3    H229617   0.908   6.634   5.134
 9892TIP3   OH229618   6.079   1.480   6.695
 9892TIP3    H129619   6.136   1.460   6.769
 9892TIP3    H229620   6.123   1.553   6.650
 9893TIP3   OH229621   2.717   3.571   2.089
 9893TIP3    H129622   2.778   3.644   2.091
 9893TIP3    H229623   2.650   3.594   2.154
 9894TIP3   OH229624   3.646   6.853   2.203
 9894TIP3    H129625   3.577   6.885   2.144
 9894TIP3    H229626   3.718   6.914   2.191
 9895TIP3   OH229627   1.035   2.193   6.116
 9895TIP3    H129628   0.943   2.179   6.138
 9895TIP3    H229629   1.034   2.215   6.023
 9896TIP3   OH229630   5.745   1.116   5.591
 9896TIP3    H129631   5.778   1.034   5.554
 9896TIP3    H229632   5.651   1.102   5.601
 9897TIP3   OH229633   7.125   6.219   4.453
 9897TIP3    H129634   7.138   6.192   4.362
 9897TIP3    H229635   7.202   6.188   4.499
 9898TIP3   OH229636   5.075   1.466   0.578
 9898TIP3    H129637   4.992   1.481   0.533
 9898TIP3    H229638   5.087   1.371   0.576
 9899TIP3   OH229639   2.756   0.822   5.679
 9899TIP3    H129640   2.732   0.914   5.669
 9899TIP3    H229641   2.848   0.818   5.656
 9900TIP3   OH229642   1.827   3.870   3.251
 9900TIP3    H129643   1.873   3.951   3.274
 9900TIP3    H229644   1.896   3.811   3.222
 9901TIP3   OH229645   7.981   1.001   6.348
 9901TIP3    H129646   7.991   0.956   6.263
 9901TIP3    H229647   8.067   0.994   6.388
 9902TIP3   OH229648   2.108   4.479   0.504
 9902TIP3    H129649   2.113   4.475   0.409
 9902TIP3    H229650   2.189   4.522   0.531
 9903TIP3   OH229651   0.506   6.295   4.747
 9903TIP3    H129652   0.583   6.304   4.804
 9903TIP3    H229653   0.439   6.349   4.789
 9904TIP3   OH229654   7.054   7.194   1.195
 9904TIP3    H129655   7.143   7.227   1.181
 9904TIP3    H229656   7.011   7.204   1.110
 9905TIP3   OH229657   0.344   4.213   5.003
 9905TIP3    H129658   0.413   4.267   4.966
 9905TIP3    H229659   0.270   4.273   5.014
 9906TIP3   OH229660   7.654   3.075   6.341
 9906TIP3    H129661   7.687   3.123   6.416
 9906TIP3    H229662   7.647   3.140   6.271
 9907TIP3   OH229663   3.339   4.462   1.961
 9907TIP3    H129664   3.335   4.477   2.056
 9907TIP3    H229665   3.432   4.447   1.944
 9908TIP3   OH229666   3.809   5.011   2.572
 9908TIP3    H129667   3.829   5.065   2.649
 9908TIP3    H229668   3.849   5.058   2.499
 9909TIP3   OH229669   6.944   6.421   5.121
 9909TIP3    H129670   6.970   6.436   5.030
 9909TIP3    H229671   6.848   6.432   5.120
 9910TIP3   OH229672   1.145   1.939   3.275
 9910TIP3    H129673   1.121   1.894   3.357
 9910TIP3    H229674   1.121   2.030   3.291
 9911TIP3   OH229675   4.400   5.283   4.425
 9911TIP3    H129676   4.377   5.375   4.417
 9911TIP3    H229677   4.430   5.273   4.516
 9912TIP3   OH229678   1.824   1.218   1.405
 9912TIP3    H129679   1.746   1.177   1.443
 9912TIP3    H229680   1.793   1.257   1.323
 9913TIP3   OH229681   1.512   1.140   1.800
 9913TIP3    H129682   1.513   1.173   1.890
 9913TIP3    H229683   1.576   1.069   1.800
 9914TIP3   OH229684   5.226   5.172   5.193
 9914TIP3    H129685   5.303   5.127   5.229
 9914TIP3    H229686   5.165   5.101   5.171
 9915TIP3   OH229687   5.549   3.631   2.851
 9915TIP3    H129688   5.640   3.661   2.853
 9915TIP3    H229689   5.502   3.701   2.804
 9916TIP3   OH229690   1.404   6.534   1.411
 9916TIP3    H129691   1.467   6.491   1.353
 9916TIP3    H229692   1.411   6.486   1.494
 9917TIP3   OH229693   3.146   2.835   2.572
 9917TIP3    H129694   3.187   2.903   2.625
 9917TIP3    H229695   3.195   2.835   2.490
 9918TIP3   OH229696   6.308   7.318   6.729
 9918TIP3    H129697   6.217   7.289   6.733
 9918TIP3    H229698   6.309   7.387   6.663
 9919TIP3   OH229699   6.999   5.505   3.443
 9919TIP3    H129700   7.063   5.572   3.468
 9919TIP3    H229701   7.000   5.444   3.517
 9920TIP3   OH229702   4.076   3.075   6.354
 9920TIP3    H129703   4.037   3.081   6.267
 9920TIP3    H229704   4.070   2.982   6.376
 9921TIP3   OH229705   0.042   7.215   0.024
 9921TIP3    H129706   0.056   7.121   0.007
 9921TIP3    H229707   0.130   7.250   0.037
 9922TIP3   OH229708   5.086   3.062   6.673
 9922TIP3    H129709   5.028   3.023   6.739
 9922TIP3    H229710   5.112   2.989   6.617
 9923TIP3   OH229711   3.613   7.597   3.963
 9923TIP3    H129712   3.604   7.588   3.868
 9923TIP3    H229713   3.523   7.603   3.996
 9924TIP3   OH229714   1.174   0.482   3.591
 9924TIP3    H129715   1.112   0.551   3.616
 9924TIP3    H229716   1.258   0.511   3.627
 9925TIP3   OH229717   3.549   6.895   5.415
 9925TIP3    H129718   3.554   6.945   5.496
 9925TIP3    H229719   3.456   6.874   5.405
 9926TIP3   OH229720   1.830   1.156   6.017
 9926TIP3    H129721   1.863   1.214   6.086
 9926TIP3    H229722   1.735   1.161   6.025
 9927TIP3   OH229723   3.665   1.599   6.254
 9927TIP3    H129724   3.618   1.532   6.304
 9927TIP3    H229725   3.623   1.681   6.278
 9928TIP3   OH229726   2.211   1.319   0.268
 9928TIP3    H129727   2.294   1.304   0.314
 9928TIP3    H229728   2.215   1.411   0.241
 9929TIP3   OH229729   1.897   1.065   1.681
 9929TIP3    H129730   1.880   1.153   1.715
 9929TIP3    H229731   1.830   1.010   1.722
 9930TIP3   OH229732   6.596   2.301   2.209
 9930TIP3    H129733   6.662   2.319   2.142
 9930TIP3    H229734   6.645   2.261   2.281
 9931TIP3   OH229735   1.690   4.676   3.470
 9931TIP3    H129736   1.622   4.689   3.536
 9931TIP3    H229737   1.643   4.659   3.389
 9932TIP3   OH229738   4.963   1.064   0.335
 9932TIP3    H129739   5.004   1.056   0.250
 9932TIP3    H229740   4.995   0.988   0.384
 9933TIP3   OH229741   6.928   2.092   0.521
 9933TIP3    H129742   6.985   2.074   0.446
 9933TIP3    H229743   6.839   2.089   0.485
 9934TIP3   OH229744   4.306   7.354   6.240
 9934TIP3    H129745   4.296   7.390   6.152
 9934TIP3    H229746   4.265   7.419   6.297
 9935TIP3   OH229747   5.647   3.196   2.367
 9935TIP3    H129748   5.666   3.275   2.318
 9935TIP3    H229749   5.553   3.198   2.382
 9936TIP3   OH229750   7.725   7.395   1.007
 9936TIP3    H129751   7.761   7.308   0.991
 9936TIP3    H229752   7.736   7.409   1.102
 9937TIP3   OH229753   0.567   2.719   5.708
 9937TIP3    H129754   0.480   2.708   5.670
 9937TIP3    H229755   0.562   2.800   5.758
 9938TIP3   OH229756   2.654   4.508   6.415
 9938TIP3    H129757   2.577   4.454   6.434
 9938TIP3    H229758   2.618   4.587   6.375
 9939TIP3   OH229759   6.843   5.856   2.738
 9939TIP3    H129760   6.860   5.779   2.792
 9939TIP3    H229761   6.771   5.901   2.782
 9940TIP3   OH229762   5.758   6.659   4.773
 9940TIP3    H129763   5.671   6.697   4.782
 9940TIP3    H229764   5.765   6.637   4.681
 9941TIP3   OH229765   0.055   1.777   0.154
 9941TIP3    H129766   0.039   1.803   0.064
 9941TIP3    H229767   0.106   1.696   0.148
 9942TIP3   OH229768   1.898   1.547   4.538
 9942TIP3    H129769   1.893   1.609   4.610
 9942TIP3    H229770   1.816   1.558   4.490
 9943TIP3   OH229771   1.800   3.104   1.274
 9943TIP3    H129772   1.767   3.020   1.241
 9943TIP3    H229773   1.813   3.090   1.367
 9944TIP3   OH229774   3.354   3.432   6.358
 9944TIP3    H129775   3.445   3.463   6.361
 9944TIP3    H229776   3.360   3.342   6.327
 9945TIP3   OH229777   1.630   0.141   0.394
 9945TIP3    H129778   1.570   0.203   0.435
 9945TIP3    H229779   1.574   0.079   0.348
 9946TIP3   OH229780   3.053   2.063   4.172
 9946TIP3    H129781   2.961   2.087   4.159
 9946TIP3    H229782   3.088   2.055   4.083
 9947TIP3   OH229783   6.305   5.105   3.698
 9947TIP3    H129784   6.279   5.095   3.607
 9947TIP3    H229785   6.228   5.079   3.748
 9948TIP3   OH229786   7.632   2.044   1.494
 9948TIP3    H129787   7.638   2.119   1.436
 9948TIP3    H229788   7.625   1.968   1.435
 9949TIP3   OH229789   1.009   4.820   4.317
 9949TIP3    H129790   1.093   4.777   4.301
 9949TIP3    H229791   0.955   4.752   4.357
 9950TIP3   OH229792   6.488   7.660   2.759
 9950TIP3    H129793   6.541   7.592   2.801
 9950TIP3    H229794   6.452   7.617   2.681
 9951TIP3   OH229795   8.122   6.655   4.382
 9951TIP3    H129796   8.062   6.588   4.415
 9951TIP3    H229797   8.209   6.617   4.394
 9952TIP3   OH229798   1.032   0.866   2.586
 9952TIP3    H129799   1.011   0.957   2.609
 9952TIP3    H229800   1.084   0.873   2.507
 9953TIP3   OH229801   6.799   4.324   3.174
 9953TIP3    H129802   6.854   4.329   3.096
 9953TIP3    H229803   6.714   4.355   3.145
 9954TIP3   OH229804   5.569   4.925   1.027
 9954TIP3    H129805   5.614   4.913   1.110
 9954TIP3    H229806   5.558   4.836   0.992
 9955TIP3   OH229807   7.918   2.043   5.106
 9955TIP3    H129808   7.882   2.069   5.021
 9955TIP3    H229809   8.010   2.024   5.088
 9956TIP3   OH229810   5.869   1.680   5.164
 9956TIP3    H129811   5.903   1.600   5.204
 9956TIP3    H229812   5.825   1.651   5.084
 9957TIP3   OH229813   3.531   2.304   1.016
 9957TIP3    H129814   3.441   2.296   0.986
 9957TIP3    H229815   3.544   2.397   1.031
 9958TIP3   OH229816   4.434   5.034   5.910
 9958TIP3    H129817   4.341   5.055   5.920
 9958TIP3    H229818   4.479   5.118   5.922
 9959TIP3   OH229819   5.714   6.738   1.096
 9959TIP3    H129820   5.699   6.831   1.112
 9959TIP3    H229821   5.806   6.732   1.072
 9960TIP3   OH229822   2.772   3.762   1.467
 9960TIP3    H129823   2.680   3.778   1.447
 9960TIP3    H229824   2.771   3.736   1.559
 9961TIP3   OH229825   0.598   7.139   4.326
 9961TIP3    H129826   0.690   7.162   4.337
 9961TIP3    H229827   0.556   7.163   4.409
 9962TIP3   OH229828   2.348   5.632   3.632
 9962TIP3    H129829   2.427   5.684   3.619
 9962TIP3    H229830   2.279   5.697   3.647
 9963TIP3   OH229831   2.041   7.046   1.938
 9963TIP3    H129832   1.968   7.107   1.923
 9963TIP3    H229833   2.116   7.103   1.954
 9964TIP3   OH229834   0.408   1.768   0.628
 9964TIP3    H129835   0.435   1.757   0.719
 9964TIP3    H229836   0.464   1.838   0.595
 9965TIP3   OH229837   1.647   2.544   4.367
 9965TIP3    H129838   1.703   2.519   4.440
 9965TIP3    H229839   1.563   2.568   4.407
 9966TIP3   OH229840   0.572   1.941   0.167
 9966TIP3    H129841   0.556   2.032   0.193
 9966TIP3    H229842   0.668   1.933   0.167
 9967TIP3   OH229843   3.378   3.218   0.388
 9967TIP3    H129844   3.340   3.175   0.311
 9967TIP3    H229845   3.332   3.301   0.394
 9968TIP3   OH229846   4.437   1.458   0.701
 9968TIP3    H129847   4.349   1.423   0.685
 9968TIP3    H229848   4.485   1.440   0.620
 9969TIP3   OH229849   7.439   1.698   3.474
 9969TIP3    H129850   7.476   1.642   3.406
 9969TIP3    H229851   7.346   1.705   3.452
 9970TIP3   OH229852   4.570   3.128   4.813
 9970TIP3    H129853   4.572   3.146   4.719
 9970TIP3    H229854   4.655   3.156   4.845
 9971TIP3   OH229855   7.892   6.863   5.392
 9971TIP3    H129856   7.950   6.816   5.452
 9971TIP3    H229857   7.902   6.818   5.308
 9972TIP3   OH229858   8.142   4.457   6.719
 9972TIP3    H129859   8.085   4.504   6.780
 9972TIP3    H229860   8.140   4.509   6.639
 9973TIP3   OH229861   5.274   4.575   4.652
 9973TIP3    H129862   5.180   4.594   4.645
 9973TIP3    H229863   5.292   4.582   4.746
 9974TIP3   OH229864   6.607   0.941   0.346
 9974TIP3    H129865   6.614   0.982   0.432
 9974TIP3    H229866   6.661   0.996   0.289
 9975TIP3   OH229867   0.894   1.768   2.397
 9975TIP3    H129868   0.968   1.727   2.352
 9975TIP3    H229869   0.881   1.714   2.475
 9976TIP3   OH229870   6.977   7.148   1.570
 9976TIP3    H129871   6.906   7.194   1.526
 9976TIP3    H229872   6.947   7.057   1.576
 9977TIP3   OH229873   7.169   1.269   5.366
 9977TIP3    H129874   7.132   1.295   5.451
 9977TIP3    H229875   7.231   1.339   5.346
 9978TIP3   OH229876   3.722   6.746   4.298
 9978TIP3    H129877   3.777   6.730   4.221
 9978TIP3    H229878   3.779   6.791   4.359
 9979TIP3   OH229879   0.846   6.984   3.118
 9979TIP3    H129880   0.768   7.033   3.146
 9979TIP3    H229881   0.918   7.023   3.167
 9980TIP3   OH229882   4.196   5.441   6.387
 9980TIP3    H129883   4.250   5.520   6.395
 9980TIP3    H229884   4.194   5.404   6.475
 9981TIP3   OH229885   2.368   3.711   2.561
 9981TIP3    H129886   2.298   3.756   2.514
 9981TIP3    H229887   2.337   3.620   2.569
 9982TIP3   OH229888  -0.015   5.302   5.073
 9982TIP3    H129889   0.032   5.237   5.126
 9982TIP3    H229890  -0.005   5.271   4.983
 9983TIP3   OH229891   0.763   0.221   5.909
 9983TIP3    H129892   0.807   0.240   5.992
 9983TIP3    H229893   0.720   0.137   5.923
 9984TIP3   OH229894   7.700   5.472   3.450
 9984TIP3    H129895   7.780   5.522   3.465
 9984TIP3    H229896   7.727   5.380   3.460
 9985TIP3   OH229897   3.658   6.667   5.385
 9985TIP3    H129898   3.637   6.631   5.471
 9985TIP3    H229899   3.636   6.760   5.393
 9986TIP3   OH229900   3.893   3.767   4.451
 9986TIP3    H129901   3.971   3.817   4.428
 9986TIP3    H229902   3.890   3.771   4.547
 9987TIP3   OH229903   3.467   0.065   0.205
 9987TIP3    H129904   3.416  -0.007   0.243
 9987TIP3    H229905   3.455   0.056   0.111
 9988TIP3   OH229906   3.763   1.434   6.013
 9988TIP3    H129907   3.737   1.393   5.931
 9988TIP3    H229908   3.688   1.488   6.038
 9989TIP3   OH229909   0.579   4.314   1.290
 9989TIP3    H129910   0.537   4.389   1.247
 9989TIP3    H229911   0.660   4.301   1.240
 9990TIP3   OH229912   4.372   6.560   0.107
 9990TIP3    H129913   4.359   6.598   0.194
 9990TIP3    H229914   4.294   6.584   0.058
 9991TIP3   OH229915   2.295   0.232   2.137
 9991TIP3    H129916   2.351   0.156   2.154
 9991TIP3    H229917   2.222   0.223   2.198
 9992TIP3   OH229918   7.327   0.643   6.325
 9992TIP3    H129919   7.320   0.560   6.278
 9992TIP3    H229920   7.250   0.693   6.298
 9993TIP3   OH229921   5.033   1.007   3.947
 9993TIP3    H129922   5.010   0.924   3.905
 9993TIP3    H229923   4.999   1.074   3.889
 9994TIP3   OH229924   5.901   4.287   2.795
 9994TIP3    H129925   5.884   4.372   2.835
 9994TIP3    H229926   5.967   4.247   2.851
 9995TIP3   OH229927   7.891   4.210   0.480
 9995TIP3    H129928   7.962   4.162   0.524
 9995TIP3    H229929   7.845   4.255   0.551
 9996TIP3   OH229930   7.387   4.031   0.746
 9996TIP3    H129931   7.301   3.999   0.717
 9996TIP3    H229932   7.371   4.118   0.782
 9997TIP3   OH229933   6.698   4.024   1.622
 9997TIP3    H129934   6.784   4.065   1.621
 9997TIP3    H229935   6.661   4.045   1.536
 9998TIP3   OH229936   0.761   6.671   3.919
 9998TIP3    H129937   0.806   6.586   3.924
 9998TIP3    H229938   0.724   6.673   3.831
 9999TIP3   OH229939   6.448   4.533   4.679
 9999TIP3    H129940   6.391   4.604   4.709
 9999TIP3    H229941   6.470   4.485   4.759
10000TIP3   OH229942   1.496   6.812   2.047
10000TIP3    H129943   1.551   6.871   2.099
10000TIP3    H229944   1.547   6.732   2.039
10001TIP3   OH229945   4.587   6.456   2.764
10001TIP3    H129946   4.673   6.491   2.790
10001TIP3    H229947   4.574   6.488   2.675
10002TIP3   OH229948   4.754   0.825   5.183
10002TIP3    H129949   4.725   0.771   5.257
10002TIP3    H229950   4.772   0.911   5.222
10003TIP3   OH229951   0.791   1.706   4.830
10003TIP3    H129952   0.723   1.761   4.790
10003TIP3    H229953   0.777   1.619   4.793
10004TIP3   OH229954   4.766   7.179   4.428
10004TIP3    H129955   4.699   7.222   4.375
10004TIP3    H229956   4.838   7.243   4.431
10005TIP3   OH229957   2.851   2.671   4.198
10005TIP3    H129958   2.884   2.622   4.274
10005TIP3    H229959   2.911   2.647   4.127
10006TIP3   OH229960   4.325   0.435   0.169
10006TIP3    H129961   4.278   0.495   0.111
10006TIP3    H229962   4.383   0.386   0.110
10007TIP3   OH229963   7.964   1.642   6.524
10007TIP3    H129964   7.921   1.576   6.471
10007TIP3    H229965   7.892   1.691   6.564
10008TIP3   OH229966   5.968   4.927   3.260
10008TIP3    H129967   5.905   4.858   3.282
10008TIP3    H229968   5.914   5.006   3.251
10009TIP3   OH229969   0.542   4.398   0.326
10009TIP3    H129970   0.496   4.389   0.242
10009TIP3    H229971   0.635   4.406   0.301
10010TIP3   OH229972   1.394   1.700   0.542
10010TIP3    H129973   1.464   1.665   0.487
10010TIP3    H229974   1.318   1.645   0.522
10011TIP3   OH229975   4.852   1.430   2.635
10011TIP3    H129976   4.812   1.516   2.646
10011TIP3    H229977   4.782   1.368   2.652
10012TIP3   OH229978   2.511   1.993   3.401
10012TIP3    H129979   2.444   2.047   3.442
10012TIP3    H229980   2.477   1.903   3.408
10013TIP3   OH229981   4.088   3.445   4.992
10013TIP3    H129982   4.014   3.387   5.010
10013TIP3    H229983   4.064   3.490   4.911
10014TIP3   OH229984   5.464   4.977   5.539
10014TIP3    H129985   5.437   5.028   5.616
10014TIP3    H229986   5.383   4.962   5.491
10015TIP3   OH229987   6.609   5.655   4.711
10015TIP3    H129988   6.644   5.589   4.770
10015TIP3    H229989   6.679   5.719   4.701
10016TIP3   OH229990   0.136   0.581   0.927
10016TIP3    H129991   0.225   0.573   0.892
10016TIP3    H229992   0.131   0.514   0.995
10017TIP3   OH229993   5.643   3.119   3.110
10017TIP3    H129994   5.663   3.206   3.076
10017TIP3    H229995   5.646   3.062   3.032
10018TIP3   OH229996   2.258   6.508   2.950
10018TIP3    H129997   2.168   6.504   2.919
10018TIP3    H229998   2.311   6.482   2.874
10019TIP3   OH229999   5.488   7.730   6.437
10019TIP3    H130000   5.568   7.694   6.398
10019TIP3    H230001   5.439   7.654   6.467
10020TIP3   OH230002   6.970   4.369   4.775
10020TIP3    H130003   6.917   4.310   4.829
10020TIP3    H230004   6.930   4.455   4.787
10021TIP3   OH230005   2.051   3.113   4.538
10021TIP3    H130006   1.994   3.097   4.463
10021TIP3    H230007   2.005   3.177   4.592
10022TIP3   OH230008   2.712   0.257   6.124
10022TIP3    H130009   2.659   0.313   6.068
10022TIP3    H230010   2.783   0.227   6.068
10023TIP3   OH230011   3.717   0.298   0.711
10023TIP3    H130012   3.739   0.301   0.618
10023TIP3    H230013   3.660   0.374   0.724
10024TIP3   OH230014   4.443   5.318   1.433
10024TIP3    H130015   4.419   5.227   1.446
10024TIP3    H230016   4.407   5.340   1.347
10025TIP3   OH230017   6.615   5.702   0.024
10025TIP3    H130018   6.562   5.710   0.103
10025TIP3    H230019   6.669   5.624   0.039
10026TIP3   OH230020   5.351   5.937   4.250
10026TIP3    H130021   5.385   5.860   4.295
10026TIP3    H230022   5.292   5.902   4.183
10027TIP3   OH230023   1.893   2.801   3.360
10027TIP3    H130024   1.853   2.737   3.302
10027TIP3    H230025   1.836   2.878   3.354
10028TIP3   OH230026   0.169   6.999   5.373
10028TIP3    H130027   0.184   6.948   5.453
10028TIP3    H230028   0.249   6.986   5.322
10029TIP3   OH230029   6.186   1.748   1.248
10029TIP3    H130030   6.134   1.768   1.325
10029TIP3    H230031   6.138   1.679   1.203
10030TIP3   OH230032   1.543   3.660   4.933
10030TIP3    H130033   1.490   3.717   4.989
10030TIP3    H230034   1.497   3.577   4.934
10031TIP3   OH230035   3.394   3.570   2.797
10031TIP3    H130036   3.425   3.479   2.788
10031TIP3    H230037   3.299   3.564   2.788
10032TIP3   OH230038   2.089   2.350   2.135
10032TIP3    H130039   2.144   2.336   2.212
10032TIP3    H230040   2.053   2.438   2.147
10033TIP3   OH230041   5.939   2.401   0.881
10033TIP3    H130042   6.010   2.347   0.916
10033TIP3    H230043   5.927   2.470   0.946
10034TIP3   OH230044   0.389   1.172   5.297
10034TIP3    H130045   0.393   1.082   5.265
10034TIP3    H230046   0.403   1.226   5.219
10035TIP3   OH230047   3.613   6.791   0.487
10035TIP3    H130048   3.673   6.857   0.522
10035TIP3    H230049   3.531   6.838   0.472
10036TIP3   OH230050   4.844   1.247   3.950
10036TIP3    H130051   4.803   1.166   3.980
10036TIP3    H230052   4.784   1.281   3.882
10037TIP3   OH230053   5.464   2.067   5.763
10037TIP3    H130054   5.490   2.108   5.845
10037TIP3    H230055   5.411   1.991   5.789
10038TIP3   OH230056   4.773   6.251   3.015
10038TIP3    H130057   4.867   6.257   3.026
10038TIP3    H230058   4.761   6.203   2.933
10039TIP3   OH230059   7.193   1.522   1.855
10039TIP3    H130060   7.192   1.560   1.768
10039TIP3    H230061   7.157   1.590   1.912
10040TIP3   OH230062   5.050   0.463   5.463
10040TIP3    H130063   5.094   0.487   5.381
10040TIP3    H230064   4.958   0.484   5.447
10041TIP3   OH230065   3.708   6.349   5.896
10041TIP3    H130066   3.641   6.281   5.892
10041TIP3    H230067   3.711   6.383   5.806
10042TIP3   OH230068   6.915   1.224   6.207
10042TIP3    H130069   6.948   1.181   6.286
10042TIP3    H230070   6.969   1.189   6.136
10043TIP3   OH230071   8.144   6.336   3.564
10043TIP3    H130072   8.229   6.293   3.563
10043TIP3    H230073   8.164   6.430   3.572
10044TIP3   OH230074   3.781   1.180   3.812
10044TIP3    H130075   3.801   1.149   3.900
10044TIP3    H230076   3.842   1.253   3.798
10045TIP3   OH230077   1.222   2.660   0.143
10045TIP3    H130078   1.197   2.699   0.059
10045TIP3    H230079   1.170   2.580   0.148
10046TIP3   OH230080   7.677   5.946   4.562
10046TIP3    H130081   7.696   5.852   4.555
10046TIP3    H230082   7.588   5.954   4.530
10047TIP3   OH230083   4.403   6.863   1.615
10047TIP3    H130084   4.415   6.889   1.707
10047TIP3    H230085   4.470   6.796   1.601
10048TIP3   OH230086   1.818   3.762   5.952
10048TIP3    H130087   1.903   3.801   5.936
10048TIP3    H230088   1.755   3.827   5.920
10049TIP3   OH230089   5.261   0.252   0.877
10049TIP3    H130090   5.189   0.297   0.832
10049TIP3    H230091   5.231   0.161   0.884
10050TIP3   OH230092   2.957   5.979   4.321
10050TIP3    H130093   2.933   6.066   4.290
10050TIP3    H230094   2.996   5.936   4.245
10051TIP3   OH230095   0.134   1.972   4.641
10051TIP3    H130096   0.113   1.978   4.548
10051TIP3    H230097   0.086   2.043   4.681
10052TIP3   OH230098   3.746   6.307   2.325
10052TIP3    H130099   3.694   6.228   2.336
10052TIP3    H230100   3.837   6.277   2.328
10053TIP3   OH230101   8.117   6.014   5.585
10053TIP3    H130102   8.042   5.963   5.555
10053TIP3    H230103   8.193   5.968   5.550
10054TIP3   OH230104   6.169   2.919   4.432
10054TIP3    H130105   6.151   2.995   4.376
10054TIP3    H230106   6.093   2.862   4.420
10055TIP3   OH230107   6.507   4.379   5.964
10055TIP3    H130108   6.454   4.306   5.933
10055TIP3    H230109   6.597   4.345   5.965
10056TIP3   OH230110   5.543   7.580   5.413
10056TIP3    H130111   5.566   7.527   5.489
10056TIP3    H230112   5.621   7.578   5.357
10057TIP3   OH230113   2.798   6.871   1.612
10057TIP3    H130114   2.776   6.793   1.560
10057TIP3    H230115   2.713   6.909   1.634
10058TIP3   OH230116   1.880   0.652   0.772
10058TIP3    H130117   1.840   0.641   0.686
10058TIP3    H230118   1.890   0.746   0.783
10059TIP3   OH230119   6.169   0.609   6.602
10059TIP3    H130120   6.154   0.688   6.550
10059TIP3    H230121   6.126   0.539   6.552
10060TIP3   OH230122   6.498   6.564   4.225
10060TIP3    H130123   6.591   6.582   4.233
10060TIP3    H230124   6.479   6.572   4.131
10061TIP3   OH230125   6.850   4.848   1.530
10061TIP3    H130126   6.902   4.927   1.515
10061TIP3    H230127   6.788   4.872   1.599
10062TIP3   OH230128   4.622   4.834   3.552
10062TIP3    H130129   4.593   4.761   3.607
10062TIP3    H230130   4.635   4.907   3.614
10063TIP3   OH230131   2.550   3.888   3.448
10063TIP3    H130132   2.553   3.941   3.368
10063TIP3    H230133   2.641   3.879   3.475
10064TIP3   OH230134   3.804   0.783   5.122
10064TIP3    H130135   3.895   0.811   5.135
10064TIP3    H230136   3.810   0.690   5.100
10065TIP3   OH230137   1.529   7.360   1.977
10065TIP3    H130138   1.478   7.388   2.052
10065TIP3    H230139   1.474   7.294   1.934
10066TIP3   OH230140   3.805   5.498   4.557
10066TIP3    H130141   3.741   5.528   4.492
10066TIP3    H230142   3.775   5.535   4.639
10067TIP3   OH230143   1.650   4.269   3.368
10067TIP3    H130144   1.601   4.216   3.431
10067TIP3    H230145   1.701   4.329   3.422
10068TIP3   OH230146   2.098   2.874   1.009
10068TIP3    H130147   2.147   2.848   0.931
10068TIP3    H230148   2.015   2.826   1.002
10069TIP3   OH230149   8.104   7.290   2.199
10069TIP3    H130150   8.157   7.362   2.232
10069TIP3    H230151   8.143   7.270   2.113
10070TIP3   OH230152   3.951   6.980   0.566
10070TIP3    H130153   4.000   6.899   0.559
10070TIP3    H230154   3.969   7.026   0.484
10071TIP3   OH230155   2.066   5.075   2.012
10071TIP3    H130156   2.021   5.104   2.092
10071TIP3    H230157   2.158   5.096   2.027
10072TIP3   OH230158   0.610   5.068   2.614
10072TIP3    H130159   0.583   5.158   2.634
10072TIP3    H230160   0.635   5.072   2.521
10073TIP3   OH230161   2.397   4.793   4.201
10073TIP3    H130162   2.333   4.767   4.266
10073TIP3    H230163   2.450   4.860   4.245
10074TIP3   OH230164   3.271   6.225   5.808
10074TIP3    H130165   3.257   6.210   5.715
10074TIP3    H230166   3.367   6.231   5.817
10075TIP3   OH230167   2.174   1.882   4.873
10075TIP3    H130168   2.185   1.891   4.778
10075TIP3    H230169   2.135   1.796   4.885
10076TIP3   OH230170   8.011   3.619   3.992
10076TIP3    H130171   7.957   3.694   4.019
10076TIP3    H230172   8.004   3.557   4.065
10077TIP3   OH230173   6.420   0.234   4.023
10077TIP3    H130174   6.384   0.297   3.961
10077TIP3    H230175   6.345   0.180   4.050
10078TIP3   OH230176   7.351   3.851   2.567
10078TIP3    H130177   7.323   3.766   2.534
10078TIP3    H230178   7.421   3.878   2.507
10079TIP3   OH230179   2.842   5.905   5.203
10079TIP3    H130180   2.754   5.921   5.169
10079TIP3    H230181   2.829   5.844   5.276
10080TIP3   OH230182   3.032   6.390   4.365
10080TIP3    H130183   2.957   6.449   4.365
10080TIP3    H230184   3.004   6.314   4.416
10081TIP3   OH230185   3.993   3.842   1.130
10081TIP3    H130186   4.029   3.892   1.056
10081TIP3    H230187   4.045   3.871   1.205
10082TIP3   OH230188   5.023   0.571   1.857
10082TIP3    H130189   4.953   0.533   1.910
10082TIP3    H230190   5.084   0.498   1.841
10083TIP3   OH230191   1.852   2.354   4.959
10083TIP3    H130192   1.867   2.295   5.034
10083TIP3    H230193   1.927   2.338   4.901
10084TIP3   OH230194   5.530   3.576   0.672
10084TIP3    H130195   5.466   3.507   0.657
10084TIP3    H230196   5.512   3.640   0.602
10085TIP3   OH230197   3.565   5.598   1.344
10085TIP3    H130198   3.546   5.690   1.325
10085TIP3    H230199   3.607   5.600   1.431
10086TIP3   OH230200   0.342   0.763   5.854
10086TIP3    H130201   0.269   0.825   5.850
10086TIP3    H230202   0.331   0.708   5.776
10087TIP3   OH230203   5.470   4.685   0.921
10087TIP3    H130204   5.534   4.637   0.869
10087TIP3    H230205   5.385   4.654   0.889
10088TIP3   OH230206   3.459   1.961   6.388
10088TIP3    H130207   3.472   2.048   6.424
10088TIP3    H230208   3.425   1.909   6.461
10089TIP3   OH230209   2.855   3.762   6.631
10089TIP3    H130210   2.784   3.755   6.567
10089TIP3    H230211   2.830   3.836   6.687
10090TIP3   OH230212   6.732   1.529   1.125
10090TIP3    H130213   6.824   1.525   1.151
10090TIP3    H230214   6.731   1.494   1.036
10091TIP3   OH230215   4.267   5.143   2.964
10091TIP3    H130216   4.340   5.086   2.941
10091TIP3    H230217   4.296   5.231   2.942
10092TIP3   OH230218   5.546   4.418   2.756
10092TIP3    H130219   5.593   4.346   2.713
10092TIP3    H230220   5.517   4.474   2.683
10093TIP3   OH230221   0.158   6.836   6.767
10093TIP3    H130222   0.252   6.841   6.783
10093TIP3    H230223   0.151   6.824   6.673
10094TIP3   OH230224   3.137   4.523   0.654
10094TIP3    H130225   3.042   4.523   0.659
10094TIP3    H230226   3.162   4.432   0.668
10095TIP3   OH230227   6.845   0.219   0.342
10095TIP3    H130228   6.786   0.222   0.418
10095TIP3    H230229   6.787   0.228   0.267
10096TIP3   OH230230   4.246   1.012   5.044
10096TIP3    H130231   4.241   0.975   5.132
10096TIP3    H230232   4.250   1.107   5.058
10097TIP3   OH230233   7.617   0.626   3.967
10097TIP3    H130234   7.548   0.566   3.936
10097TIP3    H230235   7.570   0.706   3.989
10098TIP3   OH230236   3.179   7.799   2.200
10098TIP3    H130237   3.108   7.736   2.211
10098TIP3    H230238   3.163   7.838   2.113
10099TIP3   OH230239   3.752   2.376   0.805
10099TIP3    H130240   3.678   2.432   0.781
10099TIP3    H230241   3.792   2.421   0.879
10100TIP3   OH230242   5.846   1.081   3.093
10100TIP3    H130243   5.799   1.129   3.161
10100TIP3    H230244   5.932   1.064   3.131
10101TIP3   OH230245   5.683   7.316   1.117
10101TIP3    H130246   5.676   7.372   1.039
10101TIP3    H230247   5.592   7.305   1.146
10102TIP3   OH230248   5.467   4.845   0.100
10102TIP3    H130249   5.421   4.928   0.091
10102TIP3    H230250   5.398   4.779   0.102
10103TIP3   OH230251   6.908   3.065   4.491
10103TIP3    H130252   6.837   3.123   4.519
10103TIP3    H230253   6.863   2.996   4.441
10104TIP3   OH230254   6.287   1.076   6.048
10104TIP3    H130255   6.198   1.097   6.018
10104TIP3    H230256   6.338   1.067   5.968
10105TIP3   OH230257   1.127   0.598   4.618
10105TIP3    H130258   1.037   0.570   4.637
10105TIP3    H230259   1.149   0.554   4.536
10106TIP3   OH230260   3.888   2.751   6.010
10106TIP3    H130261   3.800   2.778   5.987
10106TIP3    H230262   3.876   2.680   6.072
10107TIP3   OH230263   7.840   0.261   0.067
10107TIP3    H130264   7.908   0.231   0.127
10107TIP3    H230265   7.838   0.194  -0.002
10108TIP3   OH230266  -0.003   4.821   4.703
10108TIP3    H130267   0.077   4.771   4.717
10108TIP3    H230268   0.024   4.897   4.651
10109TIP3   OH230269   5.156   5.340   3.980
10109TIP3    H130270   5.211   5.261   3.976
10109TIP3    H230271   5.139   5.362   3.889
10110TIP3   OH230272   6.917   4.170   6.709
10110TIP3    H130273   6.943   4.084   6.742
10110TIP3    H230274   6.895   4.156   6.617
10111TIP3   OH230275   0.304   0.111   3.750
10111TIP3    H130276   0.233   0.156   3.704
10111TIP3    H230277   0.379   0.170   3.742
10112TIP3   OH230278   7.657   4.081   2.380
10112TIP3    H130279   7.717   4.065   2.307
10112TIP3    H230280   7.715   4.095   2.455
10113TIP3   OH230281   6.041   4.741   1.898
10113TIP3    H130282   5.968   4.772   1.952
10113TIP3    H230283   6.039   4.797   1.821
10114TIP3   OH230284   7.163   7.521   2.471
10114TIP3    H130285   7.177   7.451   2.407
10114TIP3    H230286   7.234   7.583   2.456
10115TIP3   OH230287   3.051   0.375   2.371
10115TIP3    H130288   3.014   0.338   2.451
10115TIP3    H230289   3.110   0.307   2.338
10116TIP3   OH230290   2.450   1.977   1.615
10116TIP3    H130291   2.400   2.013   1.689
10116TIP3    H230292   2.386   1.926   1.565
10117TIP3   OH230293   0.422   0.355   1.615
10117TIP3    H130294   0.346   0.406   1.590
10117TIP3    H230295   0.392   0.264   1.610
10118TIP3   OH230296   7.564   0.296   0.688
10118TIP3    H130297   7.561   0.204   0.714
10118TIP3    H230298   7.542   0.344   0.768
10119TIP3   OH230299   1.545   0.949   5.570
10119TIP3    H130300   1.529   1.035   5.608
10119TIP3    H230301   1.641   0.940   5.569
10120TIP3   OH230302   4.704   5.893   2.445
10120TIP3    H130303   4.705   5.955   2.372
10120TIP3    H230304   4.772   5.925   2.504
10121TIP3   OH230305   7.961   6.304   4.928
10121TIP3    H130306   7.960   6.209   4.913
10121TIP3    H230307   8.034   6.336   4.875
10122TIP3   OH230308   3.134   3.478   2.033
10122TIP3    H130309   3.178   3.395   2.013
10122TIP3    H230310   3.205   3.538   2.054
10123TIP3   OH230311   5.832   5.711   2.429
10123TIP3    H130312   5.826   5.732   2.336
10123TIP3    H230313   5.899   5.643   2.434
10124TIP3   OH230314   7.509   0.914   3.973
10124TIP3    H130315   7.482   0.956   4.054
10124TIP3    H230316   7.427   0.886   3.932
10125TIP3   OH230317   1.131   1.054   6.385
10125TIP3    H130318   1.077   1.127   6.415
10125TIP3    H230319   1.207   1.055   6.444
10126TIP3   OH230320   7.720   0.279   4.657
10126TIP3    H130321   7.664   0.351   4.629
10126TIP3    H230322   7.725   0.288   4.752
10127TIP3   OH230323   1.694   7.063   2.638
10127TIP3    H130324   1.755   7.127   2.601
10127TIP3    H230325   1.610   7.084   2.598
10128TIP3   OH230326   6.404   7.677   2.213
10128TIP3    H130327   6.479   7.736   2.220
10128TIP3    H230328   6.339   7.727   2.163
10129TIP3   OH230329   0.307   6.656   5.356
10129TIP3    H130330   0.383   6.700   5.394
10129TIP3    H230331   0.274   6.600   5.426
10130TIP3   OH230332   0.251   2.324   2.703
10130TIP3    H130333   0.270   2.417   2.714
10130TIP3    H230334   0.192   2.320   2.628
10131TIP3   OH230335   2.068   7.663   4.665
10131TIP3    H130336   2.077   7.744   4.614
10131TIP3    H230337   2.052   7.693   4.755
10132TIP3   OH230338   7.711   3.597   5.805
10132TIP3    H130339   7.693   3.688   5.781
10132TIP3    H230340   7.807   3.592   5.807
10133TIP3   OH230341   0.650   2.189   4.336
10133TIP3    H130342   0.700   2.217   4.260
10133TIP3    H230343   0.701   2.221   4.411
10134TIP3   OH230344   2.081   6.907   0.696
10134TIP3    H130345   2.136   6.922   0.773
10134TIP3    H230346   2.143   6.901   0.623
10135TIP3   OH230347   7.941   4.736   6.571
10135TIP3    H130348   7.949   4.752   6.665
10135TIP3    H230349   8.026   4.699   6.545
10136TIP3   OH230350   1.218   4.447   5.755
10136TIP3    H130351   1.245   4.460   5.846
10136TIP3    H230352   1.221   4.534   5.716
10137TIP3   OH230353   1.262   3.717   3.262
10137TIP3    H130354   1.229   3.799   3.301
10137TIP3    H230355   1.204   3.649   3.297
10138TIP3   OH230356   2.847   4.686   4.376
10138TIP3    H130357   2.932   4.724   4.357
10138TIP3    H230358   2.815   4.653   4.292
10139TIP3   OH230359   1.716   4.020   4.607
10139TIP3    H130360   1.773   4.054   4.537
10139TIP3    H230361   1.776   3.993   4.676
10140TIP3   OH230362   7.155   2.479   4.306
10140TIP3    H130363   7.145   2.420   4.380
10140TIP3    H230364   7.249   2.481   4.289
10141TIP3   OH230365   4.681   5.979   3.454
10141TIP3    H130366   4.775   5.984   3.434
10141TIP3    H230367   4.639   6.024   3.380
10142TIP3   OH230368   4.873   1.595   0.446
10142TIP3    H130369   4.830   1.648   0.513
10142TIP3    H230370   4.846   1.635   0.363
10143TIP3   OH230371   5.341   6.706   2.613
10143TIP3    H130372   5.247   6.704   2.633
10143TIP3    H230373   5.346   6.732   2.521
10144TIP3   OH230374   7.509   2.170   3.311
10144TIP3    H130375   7.605   2.175   3.305
10144TIP3    H230376   7.479   2.173   3.220
10145TIP3   OH230377   4.924   0.967   4.884
10145TIP3    H130378   4.855   0.902   4.903
10145TIP3    H230379   4.995   0.943   4.944
10146TIP3   OH230380   8.058   6.816   1.042
10146TIP3    H130381   8.054   6.730   1.084
10146TIP3    H230382   7.975   6.857   1.065
10147TIP3   OH230383   4.118   3.561   3.406
10147TIP3    H130384   4.158   3.586   3.322
10147TIP3    H230385   4.037   3.613   3.410
10148TIP3   OH230386   1.955   3.119   3.093
10148TIP3    H130387   2.015   3.125   3.019
10148TIP3    H230388   1.998   3.059   3.154
10149TIP3   OH230389   0.165   5.362   6.316
10149TIP3    H130390   0.107   5.414   6.260
10149TIP3    H230391   0.163   5.406   6.401
10150TIP3   OH230392   6.977   3.438   0.797
10150TIP3    H130393   7.017   3.446   0.884
10150TIP3    H230394   7.045   3.468   0.737
10151TIP3   OH230395   6.461   0.537   0.640
10151TIP3    H130396   6.531   0.539   0.706
10151TIP3    H230397   6.505   0.507   0.561
10152TIP3   OH230398   4.275   4.290   3.292
10152TIP3    H130399   4.184   4.262   3.300
10152TIP3    H230400   4.271   4.371   3.242
10153TIP3   OH230401   1.608   0.021   5.525
10153TIP3    H130402   1.591  -0.034   5.601
10153TIP3    H230403   1.529   0.074   5.514
10154TIP3   OH230404   3.968   1.287   6.148
10154TIP3    H130405   3.891   1.308   6.095
10154TIP3    H230406   3.933   1.265   6.234
10155TIP3   OH230407   6.498   5.355   2.057
10155TIP3    H130408   6.586   5.360   2.021
10155TIP3    H230409   6.510   5.322   2.146
10156TIP3   OH230410   6.231   5.552   3.947
10156TIP3    H130411   6.158   5.566   3.887
10156TIP3    H230412   6.253   5.639   3.979
10157TIP3   OH230413   4.086   7.216   2.899
10157TIP3    H130414   4.176   7.184   2.889
10157TIP3    H230415   4.044   7.153   2.957
10158TIP3   OH230416   7.309   6.308   2.136
10158TIP3    H130417   7.390   6.281   2.094
10158TIP3    H230418   7.329   6.311   2.230
10159TIP3   OH230419   3.376   5.743   2.757
10159TIP3    H130420   3.455   5.794   2.737
10159TIP3    H230421   3.303   5.800   2.733
10160TIP3   OH230422   3.753   7.029   5.195
10160TIP3    H130423   3.692   6.982   5.250
10160TIP3    H230424   3.817   6.963   5.167
10161TIP3   OH230425   2.299   7.844   5.259
10161TIP3    H130426   2.341   7.759   5.251
10161TIP3    H230427   2.271   7.848   5.350
10162TIP3   OH230428   8.208   0.659   4.467
10162TIP3    H130429   8.183   0.744   4.432
10162TIP3    H230430   8.124   0.616   4.487
10163TIP3   OH230431   8.219   0.609   0.761
10163TIP3    H130432   8.283   0.657   0.708
10163TIP3    H230433   8.267   0.586   0.841
10164TIP3   OH230434   3.253   6.473   2.784
10164TIP3    H130435   3.242   6.550   2.728
10164TIP3    H230436   3.274   6.509   2.870
10165TIP3   OH230437   6.845   1.768   1.906
10165TIP3    H130438   6.756   1.764   1.941
10165TIP3    H230439   6.863   1.862   1.898
10166TIP3   OH230440   3.825   3.622   3.371
10166TIP3    H130441   3.731   3.632   3.359
10166TIP3    H230442   3.862   3.639   3.284
10167TIP3   OH230443   0.977   4.287   3.860
10167TIP3    H130444   0.992   4.346   3.786
10167TIP3    H230445   0.932   4.212   3.821
10168TIP3   OH230446   4.141   5.776   0.402
10168TIP3    H130447   4.179   5.839   0.340
10168TIP3    H230448   4.093   5.830   0.465
10169TIP3   OH230449   1.809   0.071   0.073
10169TIP3    H130450   1.835   0.107   0.158
10169TIP3    H230451   1.748   0.001   0.094
10170TIP3   OH230452   3.736   0.879   2.993
10170TIP3    H130453   3.758   0.786   2.994
10170TIP3    H230454   3.801   0.921   3.050
10171TIP3   OH230455   4.084   1.773   2.057
10171TIP3    H130456   4.132   1.711   2.111
10171TIP3    H230457   4.149   1.838   2.030
10172TIP3   OH230458   7.770   6.051   5.000
10172TIP3    H130459   7.767   6.008   5.085
10172TIP3    H230460   7.765   6.145   5.020
10173TIP3   OH230461   5.994   0.030   1.299
10173TIP3    H130462   5.962  -0.060   1.292
10173TIP3    H230463   5.939   0.069   1.367
10174TIP3   OH230464   6.082   7.571   3.784
10174TIP3    H130465   6.143   7.636   3.819
10174TIP3    H230466   6.043   7.614   3.708
10175TIP3   OH230467   3.692   5.871   6.328
10175TIP3    H130468   3.701   5.905   6.417
10175TIP3    H230469   3.705   5.777   6.337
10176TIP3   OH230470   2.033   1.803   5.672
10176TIP3    H130471   2.057   1.744   5.743
10176TIP3    H230472   2.114   1.851   5.653
10177TIP3   OH230473   3.582   1.079   4.331
10177TIP3    H130474   3.577   1.144   4.401
10177TIP3    H230475   3.533   1.117   4.259
10178TIP3   OH230476   2.615   0.756   4.519
10178TIP3    H130477   2.604   0.850   4.501
10178TIP3    H230478   2.636   0.753   4.613
10179TIP3   OH230479   5.448   7.512   4.692
10179TIP3    H130480   5.383   7.544   4.755
10179TIP3    H230481   5.474   7.590   4.644
10180TIP3   OH230482   6.389   7.015   2.905
10180TIP3    H130483   6.300   7.028   2.871
10180TIP3    H230484   6.378   6.956   2.979
10181TIP3   OH230485   8.026   0.137   2.773
10181TIP3    H130486   8.083   0.193   2.826
10181TIP3    H230487   8.060   0.145   2.684
10182TIP3   OH230488   6.850   5.421   1.237
10182TIP3    H130489   6.852   5.515   1.219
10182TIP3    H230490   6.761   5.405   1.269
10183TIP3   OH230491   5.737   7.338   0.390
10183TIP3    H130492   5.809   7.380   0.437
10183TIP3    H230493   5.661   7.350   0.447
10184TIP3   OH230494   7.545   6.256   1.824
10184TIP3    H130495   7.547   6.162   1.807
10184TIP3    H230496   7.620   6.271   1.881
10185TIP3   OH230497   1.068   7.575   5.394
10185TIP3    H130498   0.984   7.532   5.380
10185TIP3    H230499   1.119   7.553   5.316
10186TIP3   OH230500   8.300   5.142   1.339
10186TIP3    H130501   8.291   5.158   1.245
10186TIP3    H230502   8.243   5.067   1.355
10187TIP3   OH230503   0.257   6.116   4.957
10187TIP3    H130504   0.243   6.075   4.872
10187TIP3    H230505   0.169   6.132   4.991
10188TIP3   OH230506   6.700   0.921   6.060
10188TIP3    H130507   6.726   0.838   6.101
10188TIP3    H230508   6.775   0.946   6.007
10189TIP3   OH230509   0.838   4.128   2.710
10189TIP3    H130510   0.744   4.136   2.696
10189TIP3    H230511   0.860   4.040   2.677
10190TIP3   OH230512   2.178   4.704   2.945
10190TIP3    H130513   2.169   4.618   2.984
10190TIP3    H230514   2.091   4.726   2.913
10191TIP3   OH230515   7.636   1.335   5.785
10191TIP3    H130516   7.684   1.379   5.855
10191TIP3    H230517   7.574   1.279   5.830
10192TIP3   OH230518   3.093   5.598   3.214
10192TIP3    H130519   3.142   5.639   3.286
10192TIP3    H230520   3.161   5.569   3.153
10193TIP3   OH230521   7.370   3.153   0.427
10193TIP3    H130522   7.436   3.171   0.495
10193TIP3    H230523   7.360   3.058   0.428
10194TIP3   OH230524   5.273   2.298   3.483
10194TIP3    H130525   5.306   2.224   3.432
10194TIP3    H230526   5.199   2.331   3.432
10195TIP3   OH230527   0.231   5.766   4.418
10195TIP3    H130528   0.137   5.751   4.414
10195TIP3    H230529   0.267   5.685   4.455
10196TIP3   OH230530   1.696   6.658   0.616
10196TIP3    H130531   1.732   6.746   0.604
10196TIP3    H230532   1.758   6.615   0.675
10197TIP3   OH230533   5.690   6.220   6.326
10197TIP3    H130534   5.695   6.284   6.256
10197TIP3    H230535   5.612   6.168   6.306
10198TIP3   OH230536   2.246   1.006   1.337
10198TIP3    H130537   2.154   1.031   1.324
10198TIP3    H230538   2.245   0.947   1.412
10199TIP3   OH230539   2.364   4.391   6.469
10199TIP3    H130540   2.281   4.353   6.440
10199TIP3    H230541   2.357   4.395   6.564
10200TIP3   OH230542   6.291   0.716   1.431
10200TIP3    H130543   6.282   0.628   1.395
10200TIP3    H230544   6.283   0.704   1.526
10201TIP3   OH230545   4.476   2.715   0.797
10201TIP3    H130546   4.566   2.695   0.773
10201TIP3    H230547   4.433   2.737   0.714
10202TIP3   OH230548   2.659   4.534   1.425
10202TIP3    H130549   2.610   4.458   1.394
10202TIP3    H230550   2.714   4.500   1.496
10203TIP3   OH230551   0.909   3.937   3.456
10203TIP3    H130552   0.885   4.017   3.408
10203TIP3    H230553   0.839   3.875   3.436
10204TIP3   OH230554   6.953   3.422   5.239
10204TIP3    H130555   7.003   3.391   5.164
10204TIP3    H230556   6.954   3.348   5.301
10205TIP3   OH230557   6.350   7.553   4.440
10205TIP3    H130558   6.360   7.462   4.467
10205TIP3    H230559   6.347   7.602   4.522
10206TIP3   OH230560   3.598   3.229   5.157
10206TIP3    H130561   3.654   3.183   5.095
10206TIP3    H230562   3.511   3.227   5.117
10207TIP3   OH230563   2.454   3.163   4.818
10207TIP3    H130564   2.404   3.123   4.747
10207TIP3    H230565   2.478   3.250   4.785
10208TIP3   OH230566   5.245   0.393   5.882
10208TIP3    H130567   5.237   0.414   5.789
10208TIP3    H230568   5.174   0.442   5.924
10209TIP3   OH230569   7.943   6.882   0.212
10209TIP3    H130570   8.002   6.820   0.254
10209TIP3    H230571   8.000   6.935   0.156
10210TIP3   OH230572   7.255   3.627   2.826
10210TIP3    H130573   7.168   3.662   2.809
10210TIP3    H230574   7.263   3.552   2.767
10211TIP3   OH230575   1.381   1.813   1.817
10211TIP3    H130576   1.333   1.731   1.828
10211TIP3    H230577   1.463   1.787   1.775
10212TIP3   OH230578   1.748   1.326   2.096
10212TIP3    H130579   1.659   1.293   2.102
10212TIP3    H230580   1.738   1.421   2.086
10213TIP3   OH230581   7.796   7.647   2.643
10213TIP3    H130582   7.873   7.593   2.660
10213TIP3    H230583   7.724   7.602   2.686
10214TIP3   OH230584   4.150   2.494   2.742
10214TIP3    H130585   4.149   2.400   2.724
10214TIP3    H230586   4.195   2.532   2.666
10215TIP3   OH230587   6.164   2.641   5.908
10215TIP3    H130588   6.085   2.689   5.886
10215TIP3    H230589   6.139   2.584   5.981
10216TIP3   OH230590   7.853   2.580   0.418
10216TIP3    H130591   7.838   2.629   0.336
10216TIP3    H230592   7.948   2.567   0.421
10217TIP3   OH230593   0.655   5.324   5.693
10217TIP3    H130594   0.599   5.379   5.748
10217TIP3    H230595   0.617   5.236   5.702
10218TIP3   OH230596   6.766   3.098   3.438
10218TIP3    H130597   6.689   3.056   3.476
10218TIP3    H230598   6.840   3.048   3.472
10219TIP3   OH230599   4.105   0.190   2.468
10219TIP3    H130600   4.088   0.118   2.407
10219TIP3    H230601   4.191   0.224   2.442
10220TIP3   OH230602   0.074   1.516   6.768
10220TIP3    H130603   0.059   1.446   6.705
10220TIP3    H230604   0.021   1.590   6.736
10221TIP3   OH230605   1.258   0.322   3.975
10221TIP3    H130606   1.199   0.291   3.906
10221TIP3    H230607   1.200   0.362   4.040
10222TIP3   OH230608   2.042   2.778   5.991
10222TIP3    H130609   2.038   2.869   6.019
10222TIP3    H230610   2.055   2.728   6.072
10223TIP3   OH230611   2.568   6.114   5.424
10223TIP3    H130612   2.594   6.084   5.512
10223TIP3    H230613   2.508   6.186   5.440
10224TIP3   OH230614   7.874   6.752   5.150
10224TIP3    H130615   7.911   6.666   5.173
10224TIP3    H230616   7.922   6.779   5.072
10225TIP3   OH230617   4.079   3.294   5.879
10225TIP3    H130618   4.060   3.253   5.963
10225TIP3    H230619   4.058   3.386   5.891
10226TIP3   OH230620   3.626   5.920   4.800
10226TIP3    H130621   3.638   5.921   4.895
10226TIP3    H230622   3.531   5.923   4.788
10227TIP3   OH230623   7.624   6.286   1.055
10227TIP3    H130624   7.556   6.326   1.110
10227TIP3    H230625   7.653   6.356   0.997
10228TIP3   OH230626   0.923   0.658   5.987
10228TIP3    H130627   0.940   0.752   5.992
10228TIP3    H230628   0.836   0.652   5.948
10229TIP3   OH230629   7.033   1.936   5.036
10229TIP3    H130630   7.097   1.948   5.106
10229TIP3    H230631   6.948   1.940   5.080
10230TIP3   OH230632   4.213   1.290   4.147
10230TIP3    H130633   4.255   1.207   4.124
10230TIP3    H230634   4.155   1.269   4.220
10231TIP3   OH230635   0.249   5.852   4.125
10231TIP3    H130636   0.165   5.890   4.150
10231TIP3    H230637   0.226   5.779   4.067
10232TIP3   OH230638   0.606   7.143   2.848
10232TIP3    H130639   0.671   7.155   2.779
10232TIP3    H230640   0.619   7.053   2.878
10233TIP3   OH230641   5.537   7.685   0.684
10233TIP3    H130642   5.446   7.716   0.688
10233TIP3    H230643   5.588   7.763   0.662
10234TIP3   OH230644   7.814   7.329   4.207
10234TIP3    H130645   7.782   7.283   4.129
10234TIP3    H230646   7.910   7.327   4.198
10235TIP3   OH230647   3.614   5.462   2.853
10235TIP3    H130648   3.525   5.438   2.824
10235TIP3    H230649   3.659   5.486   2.772
10236TIP3   OH230650   1.018   2.025   0.700
10236TIP3    H130651   1.036   2.050   0.609
10236TIP3    H230652   0.988   1.934   0.694
10237TIP3   OH230653   3.112   4.404   2.651
10237TIP3    H130654   3.156   4.445   2.725
10237TIP3    H230655   3.123   4.310   2.665
10238TIP3   OH230656   4.529   1.494   2.349
10238TIP3    H130657   4.575   1.570   2.384
10238TIP3    H230658   4.545   1.425   2.414
10239TIP3   OH230659   1.350   6.321   4.093
10239TIP3    H130660   1.369   6.414   4.078
10239TIP3    H230661   1.430   6.276   4.067
10240TIP3   OH230662   7.262   7.147   5.205
10240TIP3    H130663   7.257   7.243   5.202
10240TIP3    H230664   7.354   7.128   5.222
10241TIP3   OH230665   4.731   3.673   3.575
10241TIP3    H130666   4.725   3.722   3.656
10241TIP3    H230667   4.814   3.701   3.535
10242TIP3   OH230668   7.388   3.985   2.183
10242TIP3    H130669   7.344   4.054   2.232
10242TIP3    H230670   7.384   3.909   2.239
10243TIP3   OH230671   3.464   0.434   1.033
10243TIP3    H130672   3.405   0.494   1.079
10243TIP3    H230673   3.407   0.366   0.997
10244TIP3   OH230674   2.018   6.039   5.368
10244TIP3    H130675   2.010   6.082   5.283
10244TIP3    H230676   2.074   5.963   5.351
10245TIP3   OH230677   4.732   4.896   1.711
10245TIP3    H130678   4.659   4.956   1.705
10245TIP3    H230679   4.810   4.951   1.702
10246TIP3   OH230680   3.829   7.265   2.735
10246TIP3    H130681   3.902   7.277   2.795
10246TIP3    H230682   3.840   7.176   2.702
10247TIP3   OH230683   3.707   2.557   4.047
10247TIP3    H130684   3.737   2.473   4.082
10247TIP3    H230685   3.613   2.559   4.068
10248TIP3   OH230686   3.743   6.012   2.531
10248TIP3    H130687   3.651   6.016   2.559
10248TIP3    H230688   3.738   6.002   2.435
10249TIP3   OH230689   5.989   0.729   2.604
10249TIP3    H130690   6.082   0.710   2.602
10249TIP3    H230691   5.975   0.773   2.688
10250TIP3   OH230692   5.398   0.979   1.009
10250TIP3    H130693   5.454   1.004   0.935
10250TIP3    H230694   5.312   1.015   0.986
10251TIP3   OH230695   2.679   4.321   4.868
10251TIP3    H130696   2.678   4.227   4.852
10251TIP3    H230697   2.648   4.360   4.787
10252TIP3   OH230698   1.581   7.769   2.141
10252TIP3    H130699   1.485   7.765   2.141
10252TIP3    H230700   1.606   7.750   2.051
10253TIP3   OH230701   3.734   6.174   1.203
10253TIP3    H130702   3.714   6.097   1.149
10253TIP3    H230703   3.650   6.199   1.242
10254TIP3   OH230704   6.044   7.784   6.374
10254TIP3    H130705   6.025   7.727   6.300
10254TIP3    H230706   5.987   7.860   6.360
10255TIP3   OH230707   6.111   5.826   3.415
10255TIP3    H130708   6.184   5.885   3.397
10255TIP3    H230709   6.152   5.740   3.426
10256TIP3   OH230710   7.575   0.756   1.040
10256TIP3    H130711   7.640   0.824   1.060
10256TIP3    H230712   7.500   0.804   1.005
10257TIP3   OH230713   0.825   6.876   1.725
10257TIP3    H130714   0.880   6.799   1.742
10257TIP3    H230715   0.852   6.907   1.639
10258TIP3   OH230716   0.557   6.319   5.901
10258TIP3    H130717   0.534   6.342   5.991
10258TIP3    H230718   0.473   6.295   5.860
10259TIP3   OH230719   0.077   6.564   4.445
10259TIP3    H130720   0.134   6.487   4.439
10259TIP3    H230721   0.134   6.632   4.481
10260TIP3   OH230722   2.920   3.473   4.338
10260TIP3    H130723   2.922   3.553   4.286
10260TIP3    H230724   2.977   3.412   4.290
10261TIP3   OH230725   6.187   0.135   6.320
10261TIP3    H130726   6.158   0.172   6.236
10261TIP3    H230727   6.163   0.043   6.314
10262TIP3   OH230728   6.837   7.364   1.434
10262TIP3    H130729   6.866   7.454   1.424
10262TIP3    H230730   6.824   7.333   1.344
10263TIP3   OH230731   2.567   0.827   0.446
10263TIP3    H130732   2.656   0.816   0.481
10263TIP3    H230733   2.547   0.919   0.460
10264TIP3   OH230734   0.293   2.793   2.120
10264TIP3    H130735   0.381   2.809   2.085
10264TIP3    H230736   0.268   2.876   2.161
10265TIP3   OH230737   1.463   1.924   2.060
10265TIP3    H130738   1.445   1.882   1.976
10265TIP3    H230739   1.520   1.998   2.038
10266TIP3   OH230740   2.490   1.602   6.661
10266TIP3    H130741   2.565   1.643   6.618
10266TIP3    H230742   2.511   1.606   6.754
10267TIP3   OH230743   2.434   2.265   0.388
10267TIP3    H130744   2.516   2.225   0.361
10267TIP3    H230745   2.440   2.355   0.357
10268TIP3   OH230746   3.654   7.545   4.332
10268TIP3    H130747   3.575   7.522   4.283
10268TIP3    H230748   3.669   7.470   4.390
10269TIP3   OH230749   4.671   7.148   2.715
10269TIP3    H130750   4.715   7.156   2.630
10269TIP3    H230751   4.658   7.238   2.743
10270TIP3   OH230752   4.778   6.793   4.857
10270TIP3    H130753   4.743   6.745   4.782
10270TIP3    H230754   4.748   6.883   4.844
10271TIP3   OH230755   0.706   6.913   2.895
10271TIP3    H130756   0.743   6.937   2.980
10271TIP3    H230757   0.695   6.818   2.900
10272TIP3   OH230758   4.101   7.405   4.500
10272TIP3    H130759   4.167   7.345   4.465
10272TIP3    H230760   4.064   7.359   4.575
10273TIP3   OH230761   4.227   4.611   1.583
10273TIP3    H130762   4.141   4.595   1.543
10273TIP3    H230763   4.211   4.611   1.677
10274TIP3   OH230764   2.210   4.447   5.254
10274TIP3    H130765   2.135   4.438   5.314
10274TIP3    H230766   2.275   4.386   5.289
10275TIP3   OH230767   8.001   5.374   5.900
10275TIP3    H130768   8.031   5.329   5.979
10275TIP3    H230769   8.045   5.458   5.902
10276TIP3   OH230770   0.944   4.577   6.046
10276TIP3    H130771   0.958   4.490   6.083
10276TIP3    H230772   0.998   4.635   6.101
10277TIP3   OH230773   2.992   4.057   4.919
10277TIP3    H130774   3.057   4.080   4.852
10277TIP3    H230775   3.036   3.991   4.973
10278TIP3   OH230776   8.096   6.376   1.926
10278TIP3    H130777   8.143   6.411   1.850
10278TIP3    H230778   8.165   6.361   1.991
10279TIP3   OH230779   4.581   0.173   1.042
10279TIP3    H130780   4.552   0.165   0.951
10279TIP3    H230781   4.592   0.082   1.071
10280TIP3   OH230782   3.970   1.848   5.921
10280TIP3    H130783   3.974   1.804   6.006
10280TIP3    H230784   3.912   1.794   5.868
10281TIP3   OH230785   1.709   1.349   3.282
10281TIP3    H130786   1.765   1.349   3.205
10281TIP3    H230787   1.757   1.402   3.346
10282TIP3   OH230788   3.193   0.931   4.857
10282TIP3    H130789   3.182   0.961   4.947
10282TIP3    H230790   3.146   0.847   4.853
10283TIP3   OH230791   6.301   3.109   2.770
10283TIP3    H130792   6.355   3.103   2.849
10283TIP3    H230793   6.253   3.191   2.780
10284TIP3   OH230794   6.164   2.842   6.511
10284TIP3    H130795   6.169   2.934   6.485
10284TIP3    H230796   6.248   2.825   6.553
10285TIP3   OH230797   5.147   5.812   1.782
10285TIP3    H130798   5.193   5.731   1.760
10285TIP3    H230799   5.063   5.783   1.816
10286TIP3   OH230800   7.438   3.057   6.510
10286TIP3    H130801   7.493   3.069   6.432
10286TIP3    H230802   7.493   3.087   6.583
10287TIP3   OH230803   2.339   1.581   1.041
10287TIP3    H130804   2.268   1.517   1.046
10287TIP3    H230805   2.360   1.600   1.133
10288TIP3   OH230806   7.456   5.310   6.221
10288TIP3    H130807   7.374   5.284   6.263
10288TIP3    H230808   7.450   5.274   6.133
10289TIP3   OH230809   5.919   5.333   6.736
10289TIP3    H130810   5.941   5.371   6.822
10289TIP3    H230811   6.004   5.317   6.695
10290TIP3   OH230812   6.543   6.447   1.092
10290TIP3    H130813   6.462   6.494   1.070
10290TIP3    H230814   6.604   6.516   1.117
10291TIP3   OH230815   3.122   4.801   2.214
10291TIP3    H130816   3.073   4.832   2.137
10291TIP3    H230817   3.213   4.825   2.195
10292TIP3   OH230818   6.925   2.169   4.215
10292TIP3    H130819   6.889   2.230   4.280
10292TIP3    H230820   6.860   2.169   4.144
10293TIP3   OH230821   5.679   3.759   5.073
10293TIP3    H130822   5.655   3.670   5.047
10293TIP3    H230823   5.769   3.752   5.104
10294TIP3   OH230824   1.342   6.611   3.665
10294TIP3    H130825   1.383   6.662   3.735
10294TIP3    H230826   1.301   6.537   3.710
10295TIP3   OH230827   5.361   3.070   2.230
10295TIP3    H130828   5.372   3.055   2.136
10295TIP3    H230829   5.269   3.049   2.247
10296TIP3   OH230830   2.674   5.198   6.377
10296TIP3    H130831   2.708   5.142   6.307
10296TIP3    H230832   2.600   5.244   6.337
10297TIP3   OH230833   1.262   0.880   1.829
10297TIP3    H130834   1.245   0.861   1.736
10297TIP3    H230835   1.340   0.829   1.850
10298TIP3   OH230836   1.113   4.976   1.947
10298TIP3    H130837   1.034   4.921   1.952
10298TIP3    H230838   1.119   5.016   2.034
10299TIP3   OH230839   0.665   1.181   1.776
10299TIP3    H130840   0.613   1.200   1.698
10299TIP3    H230841   0.741   1.240   1.769
10300TIP3   OH230842   3.644   3.029   4.279
10300TIP3    H130843   3.650   2.952   4.223
10300TIP3    H230844   3.678   3.101   4.226
10301TIP3   OH230845   6.238   1.375   1.512
10301TIP3    H130846   6.204   1.363   1.423
10301TIP3    H230847   6.211   1.296   1.558
10302TIP3   OH230848   6.098   3.549   4.425
10302TIP3    H130849   6.093   3.462   4.384
10302TIP3    H230850   6.182   3.585   4.395
10303TIP3   OH230851   1.115   1.448   6.383
10303TIP3    H130852   1.076   1.493   6.308
10303TIP3    H230853   1.152   1.519   6.436
10304TIP3   OH230854   1.793   3.583   2.946
10304TIP3    H130855   1.753   3.658   2.989
10304TIP3    H230856   1.884   3.584   2.976
10305TIP3   OH230857   5.402   1.099   5.219
10305TIP3    H130858   5.310   1.115   5.238
10305TIP3    H230859   5.403   1.060   5.131
10306TIP3   OH230860   1.999   6.316   2.239
10306TIP3    H130861   2.014   6.409   2.221
10306TIP3    H230862   1.981   6.312   2.333
10307TIP3   OH230863   7.035   1.950   1.222
10307TIP3    H130864   6.978   1.875   1.241
10307TIP3    H230865   6.997   1.990   1.144
10308TIP3   OH230866   5.033   7.213   0.866
10308TIP3    H130867   5.067   7.261   0.941
10308TIP3    H230868   4.961   7.160   0.902
10309TIP3   OH230869   1.665   3.852   5.572
10309TIP3    H130870   1.684   3.868   5.664
10309TIP3    H230871   1.701   3.928   5.526
10310TIP3   OH230872   0.043   5.887   4.869
10310TIP3    H130873  -0.035   5.869   4.817
10310TIP3    H230874   0.116   5.866   4.810
10311TIP3   OH230875   6.555   1.084   2.266
10311TIP3    H130876   6.595   1.130   2.193
10311TIP3    H230877   6.626   1.034   2.306
10312TIP3   OH230878   6.154   5.725   5.362
10312TIP3    H130879   6.184   5.795   5.304
10312TIP3    H230880   6.227   5.663   5.365
10313TIP3   OH230881   6.545   4.315   2.706
10313TIP3    H130882   6.535   4.354   2.620
10313TIP3    H230883   6.520   4.223   2.693
10314TIP3   OH230884   4.269   0.755   2.557
10314TIP3    H130885   4.237   0.844   2.537
10314TIP3    H230886   4.254   0.706   2.476
10315TIP3   OH230887   1.420   3.962   5.130
10315TIP3    H130888   1.507   3.993   5.108
10315TIP3    H230889   1.381   4.033   5.181
10316TIP3   OH230890   2.830   1.144   1.620
10316TIP3    H130891   2.902   1.197   1.587
10316TIP3    H230892   2.751   1.190   1.593
10317TIP3   OH230893   2.909   3.067   4.182
10317TIP3    H130894   2.842   3.103   4.124
10317TIP3    H230895   2.974   3.137   4.190
10318TIP3   OH230896   4.314   7.033   2.896
10318TIP3    H130897   4.395   7.015   2.944
10318TIP3    H230898   4.261   6.955   2.910
10319TIP3   OH230899   5.862   7.447   6.261
10319TIP3    H130900   5.844   7.395   6.339
10319TIP3    H230901   5.938   7.406   6.221
10320TIP3   OH230902   7.870   2.206   4.112
10320TIP3    H130903   7.931   2.134   4.101
10320TIP3    H230904   7.789   2.176   4.071
10321TIP3   OH230905   1.446   7.154   3.833
10321TIP3    H130906   1.365   7.180   3.789
10321TIP3    H230907   1.481   7.235   3.870
10322TIP3   OH230908   2.854   4.263   6.494
10322TIP3    H130909   2.773   4.264   6.545
10322TIP3    H230910   2.923   4.266   6.560
10323TIP3   OH230911   2.826   5.193   0.695
10323TIP3    H130912   2.748   5.140   0.678
10323TIP3    H230913   2.792   5.275   0.731
10324TIP3   OH230914   7.917   1.449   4.695
10324TIP3    H130915   7.853   1.518   4.708
10324TIP3    H230916   7.984   1.488   4.638
10325TIP3   OH230917   2.533   0.414   3.658
10325TIP3    H130918   2.590   0.482   3.621
10325TIP3    H230919   2.540   0.427   3.753
10326TIP3   OH230920   4.114   1.412   1.329
10326TIP3    H130921   4.080   1.420   1.239
10326TIP3    H230922   4.176   1.485   1.338
10327TIP3   OH230923   6.200   4.711   5.166
10327TIP3    H130924   6.287   4.682   5.138
10327TIP3    H230925   6.183   4.789   5.113
10328TIP3   OH230926   1.521   7.798   3.841
10328TIP3    H130927   1.486   7.851   3.912
10328TIP3    H230928   1.512   7.708   3.872
10329TIP3   OH230929   2.525   0.266   5.002
10329TIP3    H130930   2.580   0.251   4.925
10329TIP3    H230931   2.516   0.180   5.042
10330TIP3   OH230932   0.141   2.769   5.977
10330TIP3    H130933   0.096   2.708   5.918
10330TIP3    H230934   0.076   2.790   6.044
10331TIP3   OH230935   5.170   6.458   6.365
10331TIP3    H130936   5.178   6.465   6.460
10331TIP3    H230937   5.241   6.400   6.339
10332TIP3   OH230938   1.800   0.490   2.326
10332TIP3    H130939   1.711   0.526   2.330
10332TIP3    H230940   1.833   0.517   2.241
10333TIP3   OH230941   1.426   4.936   0.569
10333TIP3    H130942   1.416   4.904   0.479
10333TIP3    H230943   1.339   4.968   0.592
10334TIP3   OH230944   5.316   6.472   4.818
10334TIP3    H130945   5.319   6.384   4.856
10334TIP3    H230946   5.307   6.457   4.723
10335TIP3   OH230947   0.975   4.530   1.235
10335TIP3    H130948   1.009   4.594   1.173
10335TIP3    H230949   1.005   4.560   1.321
10336TIP3   OH230950   1.597   1.984   3.893
10336TIP3    H130951   1.615   2.075   3.869
10336TIP3    H230952   1.591   1.984   3.989
10337TIP3   OH230953   3.648   3.740   2.031
10337TIP3    H130954   3.734   3.766   2.063
10337TIP3    H230955   3.592   3.740   2.109
10338TIP3   OH230956   7.272   6.795   5.349
10338TIP3    H130957   7.178   6.812   5.343
10338TIP3    H230958   7.298   6.837   5.431
10339TIP3   OH230959   3.099   1.263   0.875
10339TIP3    H130960   3.155   1.313   0.934
10339TIP3    H230961   3.157   1.239   0.803
10340TIP3   OH230962   4.148   4.450   6.690
10340TIP3    H130963   4.116   4.508   6.620
10340TIP3    H230964   4.243   4.451   6.680
10341TIP3   OH230965   5.243   3.886   4.819
10341TIP3    H130966   5.279   3.798   4.811
10341TIP3    H230967   5.313   3.937   4.860
10342TIP3   OH230968   2.633   0.994   3.559
10342TIP3    H130969   2.611   1.069   3.614
10342TIP3    H230970   2.644   0.921   3.620
10343TIP3   OH230971   4.296   4.065   2.806
10343TIP3    H130972   4.282   4.108   2.721
10343TIP3    H230973   4.300   4.137   2.869
10344TIP3   OH230974   7.650   3.515   0.195
10344TIP3    H130975   7.701   3.438   0.223
10344TIP3    H230976   7.572   3.511   0.250
10345TIP3   OH230977   3.370   0.400   3.952
10345TIP3    H130978   3.301   0.349   3.911
10345TIP3    H230979   3.334   0.489   3.958
10346TIP3   OH230980   2.722   4.923   4.249
10346TIP3    H130981   2.788   4.978   4.290
10346TIP3    H230982   2.696   4.861   4.318
10347TIP3   OH230983   6.227   0.584   2.407
10347TIP3    H130984   6.275   0.666   2.412
10347TIP3    H230985   6.282   0.520   2.452
10348TIP3   OH230986   5.657   4.945   1.293
10348TIP3    H130987   5.620   5.004   1.358
10348TIP3    H230988   5.685   4.869   1.344
10349TIP3   OH230989   2.508   3.136   0.013
10349TIP3    H130990   2.500   3.197   0.086
10349TIP3    H230991   2.548   3.188  -0.057
10350TIP3   OH230992   1.159   0.857   6.691
10350TIP3    H130993   1.076   0.825   6.656
10350TIP3    H230994   1.226   0.806   6.646
10351TIP3   OH230995   7.891   4.692   3.491
10351TIP3    H130996   7.876   4.781   3.459
10351TIP3    H230997   7.940   4.649   3.422
10352TIP3   OH230998   0.354   3.793   4.737
10352TIP3    H130999   0.446   3.807   4.714
10352TIP3    H231000   0.357   3.767   4.830
10353TIP3   OH231001   3.679   2.735   1.799
10353TIP3    H131002   3.745   2.760   1.734
10353TIP3    H231003   3.683   2.639   1.801
10354TIP3   OH231004   4.369   2.713   0.450
10354TIP3    H131005   4.311   2.742   0.521
10354TIP3    H231006   4.419   2.791   0.426
10355TIP3   OH231007   5.734   2.494   5.849
10355TIP3    H131008   5.736   2.473   5.943
10355TIP3    H231009   5.645   2.526   5.835
10356TIP3   OH231010   1.384   5.226   4.941
10356TIP3    H131011   1.412   5.211   4.851
10356TIP3    H231012   1.292   5.199   4.942
10357TIP3   OH231013   2.947   1.127   5.709
10357TIP3    H131014   2.959   1.033   5.698
10357TIP3    H231015   2.863   1.135   5.755
10358TIP3   OH231016   5.980   3.972   1.467
10358TIP3    H131017   6.072   3.967   1.441
10358TIP3    H231018   5.940   4.030   1.402
10359TIP3   OH231019   0.329   4.138   2.105
10359TIP3    H131020   0.303   4.062   2.052
10359TIP3    H231021   0.246   4.179   2.129
10360TIP3   OH231022   0.665   7.629   1.293
10360TIP3    H131023   0.605   7.702   1.280
10360TIP3    H231024   0.608   7.556   1.319
10361TIP3   OH231025   1.019   0.921   3.831
10361TIP3    H131026   1.081   0.959   3.894
10361TIP3    H231027   0.978   0.997   3.789
10362TIP3   OH231028   7.864   5.925   6.501
10362TIP3    H131029   7.818   6.008   6.516
10362TIP3    H231030   7.866   5.883   6.587
10363TIP3   OH231031   0.344   1.634   0.128
10363TIP3    H131032   0.359   1.725   0.104
10363TIP3    H231033   0.402   1.619   0.203
10364TIP3   OH231034   3.585   0.190   6.279
10364TIP3    H131035   3.602   0.259   6.343
10364TIP3    H231036   3.645   0.119   6.303
10365TIP3   OH231037   7.102   5.764   1.817
10365TIP3    H131038   7.105   5.669   1.809
10365TIP3    H231039   7.016   5.783   1.854
10366TIP3   OH231040   1.230   2.000   4.045
10366TIP3    H131041   1.252   1.927   3.988
10366TIP3    H231042   1.171   2.055   3.994
10367TIP3   OH231043   3.314   3.671   5.160
10367TIP3    H131044   3.406   3.665   5.134
10367TIP3    H231045   3.266   3.680   5.078
10368TIP3   OH231046   4.920   5.165   4.889
10368TIP3    H131047   4.932   5.191   4.798
10368TIP3    H231048   4.975   5.088   4.900
10369TIP3   OH231049   4.223   5.287   3.655
10369TIP3    H131050   4.198   5.211   3.604
10369TIP3    H231051   4.318   5.280   3.665
10370TIP3   OH231052   2.340   3.223   5.988
10370TIP3    H131053   2.370   3.283   6.056
10370TIP3    H231054   2.393   3.144   6.000
10371TIP3   OH231055   4.406   6.013   5.309
10371TIP3    H131056   4.424   6.045   5.221
10371TIP3    H231057   4.312   5.997   5.310
10372TIP3   OH231058   2.792   6.136   2.887
10372TIP3    H131059   2.719   6.157   2.946
10372TIP3    H231060   2.786   6.042   2.874
10373TIP3   OH231061   0.073   1.402   3.242
10373TIP3    H131062  -0.018   1.411   3.213
10373TIP3    H231063   0.067   1.376   3.334
10374TIP3   OH231064   2.355   6.589   0.392
10374TIP3    H131065   2.304   6.541   0.327
10374TIP3    H231066   2.399   6.658   0.343
10375TIP3   OH231067   0.250   0.219   5.022
10375TIP3    H131068   0.185   0.238   5.089
10375TIP3    H231069   0.199   0.201   4.943
10376TIP3   OH231070   6.705   3.321   4.014
10376TIP3    H131071   6.646   3.352   3.945
10376TIP3    H231072   6.791   3.318   3.972
10377TIP3   OH231073   0.315   0.155   6.274
10377TIP3    H131074   0.337   0.233   6.222
10377TIP3    H231075   0.253   0.187   6.339
10378TIP3   OH231076   0.528   4.024   4.410
10378TIP3    H131077   0.544   4.114   4.436
10378TIP3    H231078   0.433   4.017   4.405
10379TIP3   OH231079   3.804   5.682   5.531
10379TIP3    H131080   3.871   5.658   5.466
10379TIP3    H231081   3.730   5.625   5.512
10380TIP3   OH231082   4.378   2.597   1.981
10380TIP3    H131083   4.436   2.641   2.043
10380TIP3    H231084   4.398   2.638   1.897
10381TIP3   OH231085   5.634   6.469   1.069
10381TIP3    H131086   5.648   6.563   1.077
10381TIP3    H231087   5.722   6.433   1.053
10382TIP3   OH231088   1.586   5.862   0.669
10382TIP3    H131089   1.541   5.786   0.707
10382TIP3    H231090   1.617   5.831   0.584
10383TIP3   OH231091   4.683   5.688   4.174
10383TIP3    H131092   4.715   5.738   4.249
10383TIP3    H231093   4.587   5.688   4.184
10384TIP3   OH231094   3.231   0.928   0.380
10384TIP3    H131095   3.168   0.921   0.309
10384TIP3    H231096   3.184   0.974   0.450
10385TIP3   OH231097   7.497   0.441   3.574
10385TIP3    H131098   7.588   0.448   3.603
10385TIP3    H231099   7.448   0.423   3.653
10386TIP3   OH231100   2.377   0.046   0.592
10386TIP3    H131101   2.364   0.088   0.677
10386TIP3    H231102   2.400  -0.045   0.614
10387TIP3   OH231103   1.201   0.330   3.115
10387TIP3    H131104   1.223   0.383   3.191
10387TIP3    H231105   1.114   0.295   3.135
10388TIP3   OH231106   4.361   7.632   3.119
10388TIP3    H131107   4.307   7.613   3.043
10388TIP3    H231108   4.339   7.564   3.183
10389TIP3   OH231109   1.308   1.876   5.466
10389TIP3    H131110   1.328   1.843   5.378
10389TIP3    H231111   1.324   1.801   5.524
10390TIP3   OH231112   3.009   6.124   6.112
10390TIP3    H131113   3.082   6.066   6.137
10390TIP3    H231114   3.052   6.204   6.082
10391TIP3   OH231115   1.102   6.389   3.028
10391TIP3    H131116   1.121   6.300   2.997
10391TIP3    H231117   1.174   6.409   3.089
10392TIP3   OH231118   7.078   4.091   0.907
10392TIP3    H131119   7.073   4.025   0.838
10392TIP3    H231120   7.095   4.173   0.860
10393TIP3   OH231121   7.376   5.995   2.788
10393TIP3    H131122   7.366   6.056   2.716
10393TIP3    H231123   7.286   5.973   2.814
10394TIP3   OH231124   1.646   4.499   4.351
10394TIP3    H131125   1.552   4.479   4.348
10394TIP3    H231126   1.669   4.490   4.443
10395TIP3   OH231127   4.271   3.532   4.049
10395TIP3    H131128   4.277   3.438   4.031
10395TIP3    H231129   4.179   3.554   4.037
10396TIP3   OH231130   5.617   4.010   6.165
10396TIP3    H131131   5.552   4.002   6.235
10396TIP3    H231132   5.639   4.103   6.163
10397TIP3   OH231133   0.969   7.491   2.733
10397TIP3    H131134   0.901   7.547   2.695
10397TIP3    H231135   0.991   7.532   2.816
10398TIP3   OH231136   0.044   2.612   2.072
10398TIP3    H131137   0.140   2.601   2.072
10398TIP3    H231138   0.019   2.603   1.980
10399TIP3   OH231139   3.469   2.310   4.699
10399TIP3    H131140   3.492   2.401   4.719
10399TIP3    H231141   3.513   2.259   4.767
10400TIP3   OH231142   1.837   2.820   0.841
10400TIP3    H131143   1.807   2.850   0.755
10400TIP3    H231144   1.869   2.900   0.884
10401TIP3   OH231145   3.007   2.251   3.505
10401TIP3    H131146   2.932   2.209   3.461
10401TIP3    H231147   3.045   2.181   3.558
10402TIP3   OH231148   1.411   1.740   2.506
10402TIP3    H131149   1.318   1.759   2.521
10402TIP3    H231150   1.417   1.645   2.513
10403TIP3   OH231151   3.982   0.055   3.387
10403TIP3    H131152   3.990   0.105   3.469
10403TIP3    H231153   3.942  -0.028   3.414
10404TIP3   OH231154   4.021   0.052   0.971
10404TIP3    H131155   3.974  -0.015   0.921
10404TIP3    H231156   4.084   0.089   0.909
10405TIP3   OH231157   3.748   4.229   2.637
10405TIP3    H131158   3.783   4.295   2.696
10405TIP3    H231159   3.658   4.216   2.667
10406TIP3   OH231160   0.168   3.407   1.241
10406TIP3    H131161   0.152   3.380   1.151
10406TIP3    H231162   0.106   3.478   1.256
10407TIP3   OH231163   0.150   7.010   5.885
10407TIP3    H131164   0.125   6.920   5.861
10407TIP3    H231165   0.096   7.065   5.829
10408TIP3   OH231166   4.485   5.481   1.771
10408TIP3    H131167   4.545   5.423   1.818
10408TIP3    H231168   4.529   5.498   1.687
10409TIP3   OH231169   5.232   7.109   5.077
10409TIP3    H131170   5.301   7.044   5.092
10409TIP3    H231171   5.256   7.152   4.995
10410TIP3   OH231172   5.420   6.465   3.028
10410TIP3    H131173   5.447   6.443   3.117
10410TIP3    H231174   5.501   6.460   2.976
10411TIP3   OH231175   2.013   1.977   0.497
10411TIP3    H131176   2.086   2.032   0.469
10411TIP3    H231177   1.981   2.019   0.577
10412TIP3   OH231178   2.460   7.676   4.469
10412TIP3    H131179   2.393   7.662   4.535
10412TIP3    H231180   2.440   7.614   4.399
10413TIP3   OH231181   5.199   3.851   5.498
10413TIP3    H131182   5.156   3.932   5.470
10413TIP3    H231183   5.289   3.859   5.467
10414TIP3   OH231184   7.243   5.222   4.270
10414TIP3    H131185   7.294   5.282   4.324
10414TIP3    H231186   7.252   5.137   4.313
10415TIP3   OH231187   7.667   4.996   0.647
10415TIP3    H131188   7.743   4.938   0.636
10415TIP3    H231189   7.605   4.946   0.700
10416TIP3   OH231190   1.897   3.970   2.344
10416TIP3    H131191   1.810   3.970   2.383
10416TIP3    H231192   1.956   3.977   2.419
10417TIP3   OH231193   2.905   5.545   0.550
10417TIP3    H131194   2.818   5.564   0.516
10417TIP3    H231195   2.889   5.496   0.631
10418TIP3   OH231196   5.442   3.342   1.069
10418TIP3    H131197   5.442   3.432   1.036
10418TIP3    H231198   5.516   3.300   1.025
10419TIP3   OH231199   6.277   1.921   1.478
10419TIP3    H131200   6.316   1.838   1.451
10419TIP3    H231201   6.301   1.982   1.408
10420TIP3   OH231202   6.487   2.661   3.024
10420TIP3    H131203   6.557   2.603   2.994
10420TIP3    H231204   6.531   2.725   3.080
10421TIP3   OH231205   8.152   7.756   0.203
10421TIP3    H131206   8.235   7.714   0.180
10421TIP3    H231207   8.124   7.713   0.283
10422TIP3   OH231208   5.556   0.702   2.951
10422TIP3    H131209   5.581   0.794   2.948
10422TIP3    H231210   5.580   0.667   2.865
10423TIP3   OH231211   5.232   3.877   5.773
10423TIP3    H131212   5.230   3.841   5.684
10423TIP3    H231213   5.202   3.967   5.764
10424TIP3   OH231214   1.686   5.037   0.343
10424TIP3    H131215   1.610   5.026   0.286
10424TIP3    H231216   1.649   5.045   0.431
10425TIP3   OH231217   4.448   7.189   5.308
10425TIP3    H131218   4.506   7.129   5.355
10425TIP3    H231219   4.507   7.250   5.264
10426TIP3   OH231220   2.345   5.080   0.806
10426TIP3    H131221   2.305   4.996   0.831
10426TIP3    H231222   2.314   5.095   0.717
10427TIP3   OH231223   7.211   3.020   4.656
10427TIP3    H131224   7.199   3.069   4.575
10427TIP3    H231225   7.258   2.941   4.631
10428TIP3   OH231226   6.993   0.180   3.102
10428TIP3    H131227   6.987   0.258   3.047
10428TIP3    H231228   7.052   0.206   3.173
10429TIP3   OH231229   7.673   0.036   1.989
10429TIP3    H131230   7.625   0.039   1.906
10429TIP3    H231231   7.636  -0.040   2.035
10430TIP3   OH231232   2.240   5.767   2.387
10430TIP3    H131233   2.313   5.829   2.395
10430TIP3    H231234   2.271   5.702   2.323
10431TIP3   OH231235   1.497   5.499   3.184
10431TIP3    H131236   1.508   5.455   3.100
10431TIP3    H231237   1.583   5.536   3.204
10432TIP3   OH231238   4.428   1.241   2.962
10432TIP3    H131239   4.456   1.152   2.984
10432TIP3    H231240   4.378   1.270   3.038
10433TIP3   OH231241   4.863   7.408   5.379
10433TIP3    H131242   4.806   7.455   5.318
10433TIP3    H231243   4.915   7.476   5.421
10434TIP3   OH231244   6.020   2.753   2.330
10434TIP3    H131245   5.935   2.757   2.374
10434TIP3    H231246   6.034   2.843   2.298
10435TIP3   OH231247   2.883   5.799   0.296
10435TIP3    H131248   2.836   5.726   0.257
10435TIP3    H231249   2.831   5.822   0.374
10436TIP3   OH231250   6.087   6.363   5.978
10436TIP3    H131251   6.049   6.416   5.908
10436TIP3    H231252   6.163   6.320   5.938
10437TIP3   OH231253   2.426   1.292   4.081
10437TIP3    H131254   2.421   1.387   4.071
10437TIP3    H231255   2.432   1.279   4.176
10438TIP3   OH231256   6.586   4.611   4.302
10438TIP3    H131257   6.506   4.661   4.316
10438TIP3    H231258   6.620   4.642   4.218
10439TIP3   OH231259   8.291   6.128   5.033
10439TIP3    H131260   8.222   6.105   5.095
10439TIP3    H231261   8.275   6.071   4.958
10440TIP3   OH231262   5.577   2.071   0.485
10440TIP3    H131263   5.495   2.054   0.531
10440TIP3    H231264   5.644   2.068   0.554
10441TIP3   OH231265   5.838   1.541   0.533
10441TIP3    H131266   5.902   1.486   0.579
10441TIP3    H231267   5.755   1.497   0.548
10442TIP3   OH231268   1.711   2.952   4.030
10442TIP3    H131269   1.677   2.899   4.102
10442TIP3    H231270   1.805   2.937   4.032
10443TIP3   OH231271   0.661   2.477   3.572
10443TIP3    H131272   0.597   2.410   3.548
10443TIP3    H231273   0.608   2.549   3.607
10444TIP3   OH231274   0.722   4.738   6.372
10444TIP3    H131275   0.695   4.660   6.324
10444TIP3    H231276   0.808   4.715   6.408
10445TIP3   OH231277   4.489   2.840   2.701
10445TIP3    H131278   4.394   2.834   2.691
10445TIP3    H231279   4.512   2.922   2.656
10446TIP3   OH231280   1.223   6.392   3.785
10446TIP3    H131281   1.184   6.307   3.764
10446TIP3    H231282   1.288   6.374   3.853
10447TIP3   OH231283   6.669   2.620   1.344
10447TIP3    H131284   6.753   2.579   1.365
10447TIP3    H231285   6.604   2.552   1.361
10448TIP3   OH231286   0.038   6.910   0.430
10448TIP3    H131287   0.006   6.999   0.441
10448TIP3    H231288   0.102   6.899   0.501
10449TIP3   OH231289   6.664   5.159   4.029
10449TIP3    H131290   6.656   5.248   3.996
10449TIP3    H231291   6.604   5.108   3.974
10450TIP3   OH231292   3.112   5.287   0.381
10450TIP3    H131293   3.171   5.213   0.365
10450TIP3    H231294   3.087   5.317   0.293
10451TIP3   OH231295   0.094   1.669   1.937
10451TIP3    H131296   0.171   1.692   1.886
10451TIP3    H231297   0.115   1.585   1.976
10452TIP3   OH231298   0.226   3.104   0.052
10452TIP3    H131299   0.153   3.062   0.099
10452TIP3    H231300   0.204   3.093  -0.041
10453TIP3   OH231301   5.626   0.959   2.901
10453TIP3    H131302   5.563   1.025   2.930
10453TIP3    H231303   5.694   0.960   2.968
10454TIP3   OH231304   0.387   3.561   0.061
10454TIP3    H131305   0.333   3.596  -0.011
10454TIP3    H231306   0.323   3.534   0.127
10455TIP3   OH231307   4.159   6.707   1.588
10455TIP3    H131308   4.209   6.787   1.602
10455TIP3    H231309   4.225   6.641   1.567
10456TIP3   OH231310   3.384   3.912   3.549
10456TIP3    H131311   3.320   3.978   3.573
10456TIP3    H231312   3.380   3.847   3.619
10457TIP3   OH231313   3.566   2.141   4.910
10457TIP3    H131314   3.594   2.069   4.854
10457TIP3    H231315   3.498   2.104   4.966
10458TIP3   OH231316   2.136   1.683   3.169
10458TIP3    H131317   2.062   1.740   3.148
10458TIP3    H231318   2.213   1.736   3.152
10459TIP3   OH231319   4.235   6.022   4.407
10459TIP3    H131320   4.253   6.004   4.315
10459TIP3    H231321   4.320   6.046   4.444
10460TIP3   OH231322   0.729   0.790   2.553
10460TIP3    H131323   0.822   0.781   2.575
10460TIP3    H231324   0.729   0.833   2.467
10461TIP3   OH231325   4.876   4.377   2.407
10461TIP3    H131326   4.815   4.318   2.452
10461TIP3    H231327   4.903   4.439   2.475
10462TIP3   OH231328   0.540   0.105   3.305
10462TIP3    H131329   0.551   0.122   3.211
10462TIP3    H231330   0.481   0.175   3.334
10463TIP3   OH231331   0.363   0.885   5.233
10463TIP3    H131332   0.430   0.817   5.238
10463TIP3    H231333   0.316   0.867   5.151
10464TIP3   OH231334   5.011   3.209   0.788
10464TIP3    H131335   4.962   3.172   0.715
10464TIP3    H231336   5.000   3.304   0.779
10465TIP3   OH231337   0.439   3.338   2.549
10465TIP3    H131338   0.404   3.351   2.461
10465TIP3    H231339   0.400   3.256   2.578
10466TIP3   OH231340   3.809   3.996   2.916
10466TIP3    H131341   3.860   4.069   2.953
10466TIP3    H231342   3.841   3.987   2.826
10467TIP3   OH231343   3.602   4.838   6.207
10467TIP3    H131344   3.582   4.769   6.270
10467TIP3    H231345   3.529   4.835   6.145
10468TIP3   OH231346   5.541   2.300   1.831
10468TIP3    H131347   5.509   2.340   1.912
10468TIP3    H231348   5.538   2.371   1.767
10469TIP3   OH231349   2.601   1.720   1.437
10469TIP3    H131350   2.577   1.793   1.380
10469TIP3    H231351   2.558   1.644   1.397
10470TIP3   OH231352   3.691   4.405   0.369
10470TIP3    H131353   3.753   4.369   0.306
10470TIP3    H231354   3.731   4.487   0.399
10471TIP3   OH231355   4.992   3.797   0.831
10471TIP3    H131356   4.965   3.884   0.801
10471TIP3    H231357   5.000   3.745   0.751
10472TIP3   OH231358   1.736   4.067   1.008
10472TIP3    H131359   1.740   4.160   1.028
10472TIP3    H231360   1.694   4.063   0.921
10473TIP3   OH231361   0.698   3.774   4.034
10473TIP3    H131362   0.627   3.829   4.067
10473TIP3    H231363   0.692   3.693   4.084
10474TIP3   OH231364   7.426   4.746   5.586
10474TIP3    H131365   7.474   4.692   5.649
10474TIP3    H231366   7.411   4.688   5.511
10475TIP3   OH231367   3.665   0.734   1.134
10475TIP3    H131368   3.718   0.676   1.080
10475TIP3    H231369   3.707   0.731   1.220
10476TIP3   OH231370   7.090   4.892   0.187
10476TIP3    H131371   7.090   4.796   0.189
10476TIP3    H231372   7.158   4.915   0.123
10477TIP3   OH231373   3.566   2.607   1.383
10477TIP3    H131374   3.529   2.577   1.467
10477TIP3    H231375   3.526   2.693   1.369
10478TIP3   OH231376   6.410   2.326   3.748
10478TIP3    H131377   6.476   2.280   3.800
10478TIP3    H231378   6.401   2.274   3.668
10479TIP3   OH231379   7.266   1.511   5.900
10479TIP3    H131380   7.311   1.504   5.816
10479TIP3    H231381   7.175   1.485   5.881
10480TIP3   OH231382   3.605   5.891   3.860
10480TIP3    H131383   3.693   5.874   3.827
10480TIP3    H231384   3.559   5.931   3.786
10481TIP3   OH231385   0.243   5.123   3.104
10481TIP3    H131386   0.263   5.037   3.140
10481TIP3    H231387   0.320   5.147   3.053
10482TIP3   OH231388   1.409   6.269   5.846
10482TIP3    H131389   1.457   6.270   5.763
10482TIP3    H231390   1.352   6.193   5.838
10483TIP3   OH231391   5.622   1.370   0.533
10483TIP3    H131392   5.671   1.294   0.564
10483TIP3    H231393   5.531   1.352   0.556
10484TIP3   OH231394   1.963   1.446   0.747
10484TIP3    H131395   2.001   1.426   0.661
10484TIP3    H231396   1.877   1.483   0.727
10485TIP3   OH231397   0.556   7.129   0.269
10485TIP3    H131398   0.525   7.050   0.224
10485TIP3    H231399   0.507   7.130   0.352
10486TIP3   OH231400   4.781   2.371   1.282
10486TIP3    H131401   4.705   2.341   1.330
10486TIP3    H231402   4.798   2.302   1.217
10487TIP3   OH231403   5.831   0.642   5.824
10487TIP3    H131404   5.761   0.623   5.886
10487TIP3    H231405   5.872   0.722   5.858
10488TIP3   OH231406   4.370   6.551   5.516
10488TIP3    H131407   4.374   6.456   5.506
10488TIP3    H231408   4.415   6.585   5.439
10489TIP3   OH231409   0.162   1.149   4.993
10489TIP3    H131410   0.179   1.055   5.002
10489TIP3    H231411   0.247   1.188   4.976
10490TIP3   OH231412   4.671   3.605   2.137
10490TIP3    H131413   4.707   3.599   2.048
10490TIP3    H231414   4.632   3.692   2.141
10491TIP3   OH231415   1.458   6.963   6.252
10491TIP3    H131416   1.503   7.024   6.311
10491TIP3    H231417   1.433   7.017   6.177
10492TIP3   OH231418   1.823   1.926   1.922
10492TIP3    H131419   1.875   1.981   1.863
10492TIP3    H231420   1.850   1.954   2.010
10493TIP3   OH231421   1.334   6.805   1.133
10493TIP3    H131422   1.285   6.865   1.076
10493TIP3    H231423   1.268   6.770   1.193
10494TIP3   OH231424   2.167   0.898   2.473
10494TIP3    H131425   2.248   0.848   2.482
10494TIP3    H231426   2.182   0.977   2.525
10495TIP3   OH231427   7.796   7.045   4.942
10495TIP3    H131428   7.836   6.969   4.902
10495TIP3    H231429   7.791   7.023   5.035
10496TIP3   OH231430   3.364   7.000   6.039
10496TIP3    H131431   3.417   6.928   6.074
10496TIP3    H231432   3.288   6.957   5.999
10497TIP3   OH231433   8.068   5.693   6.763
10497TIP3    H131434   8.108   5.730   6.684
10497TIP3    H231435   8.115   5.611   6.779
10498TIP3   OH231436   5.640   5.630   4.998
10498TIP3    H131437   5.643   5.571   4.923
10498TIP3    H231438   5.555   5.673   4.992
10499TIP3   OH231439   3.434   6.609   0.953
10499TIP3    H131440   3.342   6.635   0.944
10499TIP3    H231441   3.466   6.606   0.863
10500TIP3   OH231442   8.146   5.637   3.165
10500TIP3    H131443   8.127   5.565   3.105
10500TIP3    H231444   8.240   5.653   3.154
10501TIP3   OH231445   4.604   2.224   2.663
10501TIP3    H131446   4.681   2.234   2.608
10501TIP3    H231447   4.579   2.313   2.688
10502TIP3   OH231448   7.960   0.874   5.591
10502TIP3    H131449   8.019   0.928   5.643
10502TIP3    H231450   7.872   0.906   5.613
10503TIP3   OH231451   4.779   6.431   5.813
10503TIP3    H131452   4.802   6.514   5.855
10503TIP3    H231453   4.684   6.436   5.800
10504TIP3   OH231454   2.305   0.521   4.768
10504TIP3    H131455   2.341   0.466   4.698
10504TIP3    H231456   2.376   0.531   4.831
10505TIP3   OH231457   6.989   6.607   3.604
10505TIP3    H131458   7.047   6.600   3.679
10505TIP3    H231459   7.016   6.538   3.544
10506TIP3   OH231460   8.113   5.545   4.942
10506TIP3    H131461   8.158   5.468   4.975
10506TIP3    H231462   8.101   5.527   4.849
10507TIP3   OH231463   4.200   0.211   2.091
10507TIP3    H131464   4.218   0.305   2.094
10507TIP3    H231465   4.275   0.173   2.046
10508TIP3   OH231466   5.423   6.199   1.967
10508TIP3    H131467   5.398   6.211   1.876
10508TIP3    H231468   5.489   6.130   1.966
10509TIP3   OH231469   1.213   5.993   2.450
10509TIP3    H131470   1.151   5.922   2.431
10509TIP3    H231471   1.292   5.968   2.402
10510TIP3   OH231472   8.194   7.396   3.357
10510TIP3    H131473   8.114   7.446   3.338
10510TIP3    H231474   8.264   7.445   3.314
10511TIP3   OH231475   0.849   1.996   6.572
10511TIP3    H131476   0.773   2.047   6.544
10511TIP3    H231477   0.866   2.025   6.661
10512TIP3   OH231478   3.938   7.824   3.599
10512TIP3    H131479   3.941   7.778   3.515
10512TIP3    H231480   3.992   7.771   3.658
10513TIP3   OH231481   5.110   2.105   6.028
10513TIP3    H131482   5.017   2.097   6.007
10513TIP3    H231483   5.149   2.145   5.950
10514TIP3   OH231484   4.179   3.252   3.328
10514TIP3    H131485   4.270   3.226   3.317
10514TIP3    H231486   4.183   3.339   3.367
10515TIP3   OH231487   5.868   7.510   4.973
10515TIP3    H131488   5.825   7.572   5.031
10515TIP3    H231489   5.797   7.472   4.921
10516TIP3   OH231490   1.980   6.659   4.804
10516TIP3    H131491   2.002   6.747   4.833
10516TIP3    H231492   1.965   6.667   4.710
10517TIP3   OH231493   7.323   6.920   5.613
10517TIP3    H131494   7.417   6.904   5.606
10517TIP3    H231495   7.316   6.996   5.670
10518TIP3   OH231496   1.707   4.034   1.649
10518TIP3    H131497   1.613   4.021   1.661
10518TIP3    H231498   1.740   4.052   1.738
10519TIP3   OH231499   8.244   7.300   3.631
10519TIP3    H131500   8.223   7.346   3.550
10519TIP3    H231501   8.202   7.214   3.622
10520TIP3   OH231502   1.466   1.541   3.308
10520TIP3    H131503   1.528   1.468   3.312
10520TIP3    H231504   1.381   1.502   3.324
10521TIP3   OH231505   6.753   5.593   3.441
10521TIP3    H131506   6.692   5.521   3.422
10521TIP3    H231507   6.839   5.552   3.439
10522TIP3   OH231508   7.861   7.075   4.520
10522TIP3    H131509   7.797   7.093   4.451
10522TIP3    H231510   7.897   6.989   4.499
10523TIP3   OH231511   2.406   0.778   2.954
10523TIP3    H131512   2.479   0.764   2.893
10523TIP3    H231513   2.434   0.733   3.034
10524TIP3   OH231514   3.352   6.020   5.171
10524TIP3    H131515   3.410   5.949   5.197
10524TIP3    H231516   3.405   6.076   5.115
10525TIP3   OH231517   7.518   3.353   4.719
10525TIP3    H131518   7.537   3.271   4.764
10525TIP3    H231519   7.473   3.327   4.639
10526TIP3   OH231520   4.178   1.102   0.567
10526TIP3    H131521   4.168   1.188   0.608
10526TIP3    H231522   4.245   1.058   0.619
10527TIP3   OH231523   3.819   3.398   6.412
10527TIP3    H131524   3.892   3.403   6.350
10527TIP3    H231525   3.860   3.371   6.495
10528TIP3   OH231526   2.702   7.327   1.199
10528TIP3    H131527   2.720   7.258   1.263
10528TIP3    H231528   2.776   7.387   1.206
10529TIP3   OH231529   7.550   1.694   2.343
10529TIP3    H131530   7.486   1.755   2.378
10529TIP3    H231531   7.607   1.748   2.289
10530TIP3   OH231532   1.441   4.875   4.419
10530TIP3    H131533   1.385   4.804   4.386
10530TIP3    H231534   1.382   4.932   4.468
10531TIP3   OH231535   4.609   7.359   0.579
10531TIP3    H131536   4.542   7.342   0.645
10531TIP3    H231537   4.583   7.307   0.503
10532TIP3   OH231538   6.990   7.003   5.513
10532TIP3    H131539   6.932   7.058   5.462
10532TIP3    H231540   7.058   7.062   5.545
10533TIP3   OH231541   8.014   0.008   2.065
10533TIP3    H131542   8.029   0.083   2.008
10533TIP3    H231543   7.984  -0.061   2.007
10534TIP3   OH231544   0.222   5.233   4.485
10534TIP3    H131545   0.202   5.296   4.415
10534TIP3    H231546   0.313   5.208   4.469
10535TIP3   OH231547   7.008   6.064   1.169
10535TIP3    H131548   7.007   6.109   1.254
10535TIP3    H231549   7.024   5.972   1.190
10536TIP3   OH231550   5.286   1.527   6.659
10536TIP3    H131551   5.289   1.501   6.566
10536TIP3    H231552   5.200   1.498   6.688
10537TIP3   OH231553   6.027   7.509   0.227
10537TIP3    H131554   6.010   7.521   0.320
10537TIP3    H231555   5.990   7.423   0.207
10538TIP3   OH231556   4.879   1.045   0.960
10538TIP3    H131557   4.895   1.113   1.025
10538TIP3    H231558   4.784   1.043   0.950
10539TIP3   OH231559   0.745   4.605   1.368
10539TIP3    H131560   0.699   4.522   1.360
10539TIP3    H231561   0.788   4.617   1.283
10540TIP3   OH231562   7.733   6.281   2.234
10540TIP3    H131563   7.706   6.207   2.288
10540TIP3    H231564   7.772   6.343   2.296
10541TIP3   OH231565   5.082   7.228   4.468
10541TIP3    H131566   5.114   7.212   4.557
10541TIP3    H231567   5.083   7.324   4.460
10542TIP3   OH231568   3.617   4.917   0.522
10542TIP3    H131569   3.634   5.011   0.528
10542TIP3    H231570   3.656   4.891   0.439
10543TIP3   OH231571   5.026   6.662   0.441
10543TIP3    H131572   5.013   6.567   0.447
10543TIP3    H231573   5.079   6.674   0.362
10544TIP3   OH231574   5.510   5.140   5.270
10544TIP3    H131575   5.490   5.047   5.261
10544TIP3    H231576   5.553   5.146   5.356
10545TIP3   OH231577   0.752   5.637   1.043
10545TIP3    H131578   0.835   5.631   0.995
10545TIP3    H231579   0.720   5.547   1.047
10546TIP3   OH231580   2.396   2.206   0.668
10546TIP3    H131581   2.422   2.234   0.580
10546TIP3    H231582   2.400   2.285   0.722
10547TIP3   OH231583   5.935   2.046   0.508
10547TIP3    H131584   5.917   2.112   0.575
10547TIP3    H231585   5.901   1.965   0.545
10548TIP3   OH231586   2.808   3.074   1.475
10548TIP3    H131587   2.835   2.987   1.502
10548TIP3    H231588   2.820   3.075   1.380
10549TIP3   OH231589   0.348   7.520   5.870
10549TIP3    H131590   0.260   7.482   5.877
10549TIP3    H231591   0.357   7.541   5.777
10550TIP3   OH231592   2.188   0.316   3.876
10550TIP3    H131593   2.235   0.277   3.949
10550TIP3    H231594   2.223   0.405   3.870
10551TIP3   OH231595   1.644   7.769   6.569
10551TIP3    H131596   1.669   7.723   6.649
10551TIP3    H231597   1.665   7.861   6.587
10552TIP3   OH231598   4.530   3.405   1.655
10552TIP3    H131599   4.564   3.332   1.604
10552TIP3    H231600   4.488   3.364   1.731
10553TIP3   OH231601   3.603   4.082   0.198
10553TIP3    H131602   3.685   4.091   0.149
10553TIP3    H231603   3.625   4.108   0.287
10554TIP3   OH231604   5.874   6.586   6.634
10554TIP3    H131605   5.822   6.573   6.713
10554TIP3    H231606   5.919   6.503   6.621
10555TIP3   OH231607   5.417   6.356   5.646
10555TIP3    H131608   5.359   6.305   5.703
10555TIP3    H231609   5.481   6.292   5.613
10556TIP3   OH231610   2.147   6.113   2.721
10556TIP3    H131611   2.220   6.075   2.673
10556TIP3    H231612   2.175   6.113   2.812
10557TIP3   OH231613   7.935   7.628   3.917
10557TIP3    H131614   7.847   7.608   3.948
10557TIP3    H231615   7.925   7.708   3.866
10558TIP3   OH231616   6.452   6.740   6.287
10558TIP3    H131617   6.476   6.718   6.197
10558TIP3    H231618   6.501   6.820   6.306
10559TIP3   OH231619   7.337   5.057   3.122
10559TIP3    H131620   7.341   5.023   3.033
10559TIP3    H231621   7.268   5.005   3.164
10560TIP3   OH231622   5.741   5.838   0.300
10560TIP3    H131623   5.697   5.896   0.238
10560TIP3    H231624   5.821   5.885   0.324
10561TIP3   OH231625   3.524   4.816   4.418
10561TIP3    H131626   3.545   4.823   4.325
10561TIP3    H231627   3.549   4.726   4.442
10562TIP3   OH231628   6.362   7.417   5.080
10562TIP3    H131629   6.355   7.497   5.028
10562TIP3    H231630   6.334   7.443   5.168
10563TIP3   OH231631   1.468   0.291   3.811
10563TIP3    H131632   1.434   0.326   3.894
10563TIP3    H231633   1.475   0.368   3.754
10564TIP3   OH231634   7.464   3.647   5.473
10564TIP3    H131635   7.429   3.563   5.446
10564TIP3    H231636   7.558   3.640   5.457
10565TIP3   OH231637   6.929   3.344   3.856
10565TIP3    H131638   6.985   3.417   3.829
10565TIP3    H231639   6.945   3.276   3.789
10566TIP3   OH231640   7.600   6.962   2.814
10566TIP3    H131641   7.570   7.043   2.774
10566TIP3    H231642   7.696   6.969   2.814
10567TIP3   OH231643   1.866   4.619   6.321
10567TIP3    H131644   1.908   4.677   6.384
10567TIP3    H231645   1.857   4.673   6.242
10568TIP3   OH231646   7.912   6.738   3.566
10568TIP3    H131647   7.972   6.773   3.632
10568TIP3    H231648   7.826   6.773   3.590
10569TIP3   OH231649   2.306   5.870   5.734
10569TIP3    H131650   2.248   5.889   5.808
10569TIP3    H231651   2.385   5.835   5.774
10570TIP3   OH231652   7.824   2.581   3.698
10570TIP3    H131653   7.918   2.575   3.679
10570TIP3    H231654   7.810   2.517   3.767
10571TIP3   OH231655   4.625   7.644   3.064
10571TIP3    H131656   4.658   7.558   3.090
10571TIP3    H231657   4.531   7.630   3.050
10572TIP3   OH231658   7.703   6.047   4.239
10572TIP3    H131659   7.670   6.083   4.157
10572TIP3    H231660   7.793   6.021   4.218
10573TIP3   OH231661   1.796   0.149   3.653
10573TIP3    H131662   1.788   0.232   3.700
10573TIP3    H231663   1.867   0.163   3.591
10574TIP3   OH231664   2.585   2.121   1.443
10574TIP3    H131665   2.567   2.075   1.525
10574TIP3    H231666   2.534   2.073   1.377
10575TIP3   OH231667   2.246   3.389   3.930
10575TIP3    H131668   2.184   3.395   3.857
10575TIP3    H231669   2.223   3.464   3.986
10576TIP3   OH231670   6.319   6.609   1.316
10576TIP3    H131671   6.307   6.582   1.225
10576TIP3    H231672   6.348   6.529   1.361
10577TIP3   OH231673   4.636   0.035   5.958
10577TIP3    H131674   4.684   0.092   5.897
10577TIP3    H231675   4.567   0.091   5.993
10578TIP3   OH231676   7.014   4.395   0.907
10578TIP3    H131677   6.935   4.397   0.960
10578TIP3    H231678   7.034   4.487   0.890
10579TIP3   OH231679   1.219   4.690   2.753
10579TIP3    H131680   1.304   4.703   2.710
10579TIP3    H231681   1.228   4.607   2.799
10580TIP3   OH231682   4.914   3.115   4.722
10580TIP3    H131683   4.928   3.191   4.780
10580TIP3    H231684   4.986   3.120   4.659
10581TIP3   OH231685   2.097   1.659   5.029
10581TIP3    H131686   2.167   1.599   5.056
10581TIP3    H231687   2.110   1.737   5.084
10582TIP3   OH231688   3.452   7.060   2.288
10582TIP3    H131689   3.371   7.027   2.326
10582TIP3    H231690   3.442   7.045   2.194
10583TIP3   OH231691   1.279   3.898   2.905
10583TIP3    H131692   1.257   3.805   2.907
10583TIP3    H231693   1.235   3.934   2.982
10584TIP3   OH231694   7.095   6.653   4.175
10584TIP3    H131695   7.116   6.566   4.208
10584TIP3    H231696   7.164   6.673   4.112
10585TIP3   OH231697   6.309   5.828   3.694
10585TIP3    H131698   6.374   5.821   3.765
10585TIP3    H231699   6.335   5.759   3.632
10586TIP3   OH231700   3.328   6.623   0.383
10586TIP3    H131701   3.356   6.670   0.304
10586TIP3    H231702   3.367   6.537   0.376
10587TIP3   OH231703   2.545   5.427   1.196
10587TIP3    H131704   2.517   5.446   1.285
10587TIP3    H231705   2.520   5.504   1.146
10588TIP3   OH231706   8.095   1.807   1.546
10588TIP3    H131707   8.036   1.880   1.527
10588TIP3    H231708   8.170   1.821   1.489
10589TIP3   OH231709   7.196   0.450   6.666
10589TIP3    H131710   7.182   0.465   6.759
10589TIP3    H231711   7.146   0.519   6.623
10590TIP3   OH231712   4.489   3.816   4.945
10590TIP3    H131713   4.535   3.846   4.866
10590TIP3    H231714   4.559   3.788   5.004
10591TIP3   OH231715   1.972   6.364   2.827
10591TIP3    H131716   2.042   6.309   2.793
10591TIP3    H231717   1.984   6.448   2.784
10592TIP3   OH231718   3.234   2.415   6.512
10592TIP3    H131719   3.184   2.401   6.431
10592TIP3    H231720   3.168   2.413   6.581
10593TIP3   OH231721   0.642   7.382   3.085
10593TIP3    H131722   0.643   7.452   3.020
10593TIP3    H231723   0.604   7.307   3.039
10594TIP3   OH231724   0.654   6.619   6.584
10594TIP3    H131725   0.627   6.612   6.492
10594TIP3    H231726   0.679   6.530   6.608
10595TIP3   OH231727   7.416   2.166   3.712
10595TIP3    H131728   7.360   2.179   3.636
10595TIP3    H231729   7.357   2.175   3.787
10596TIP3   OH231730   5.891   6.322   6.474
10596TIP3    H131731   5.820   6.275   6.432
10596TIP3    H231732   5.876   6.310   6.568
10597TIP3   OH231733   2.141   5.070   2.950
10597TIP3    H131734   2.216   5.044   2.898
10597TIP3    H231735   2.157   5.162   2.972
10598TIP3   OH231736   4.951   0.691   2.865
10598TIP3    H131737   4.949   0.675   2.959
10598TIP3    H231738   5.031   0.741   2.851
10599TIP3   OH231739   3.536   1.750   3.331
10599TIP3    H131740   3.575   1.687   3.270
10599TIP3    H231741   3.611   1.788   3.377
10600TIP3   OH231742   5.111   2.377   2.394
10600TIP3    H131743   5.136   2.469   2.401
10600TIP3    H231744   5.178   2.330   2.446
10601TIP3   OH231745   2.627   1.469   4.769
10601TIP3    H131746   2.565   1.492   4.837
10601TIP3    H231747   2.711   1.503   4.800
10602TIP3   OH231748   1.360   5.563   6.505
10602TIP3    H131749   1.315   5.647   6.495
10602TIP3    H231750   1.445   5.585   6.541
10603TIP3   OH231751   5.871   1.727   3.587
10603TIP3    H131752   5.928   1.778   3.530
10603TIP3    H231753   5.909   1.639   3.587
10604TIP3   OH231754   7.106   4.007   4.855
10604TIP3    H131755   7.151   3.932   4.818
10604TIP3    H231756   7.159   4.082   4.828
10605TIP3   OH231757   0.122   6.069   5.373
10605TIP3    H131758   0.088   5.981   5.389
10605TIP3    H231759   0.046   6.120   5.347
10606TIP3   OH231760   2.320   5.105   3.867
10606TIP3    H131761   2.279   5.108   3.781
10606TIP3    H231762   2.285   5.181   3.913
10607TIP3   OH231763   3.371   6.905   0.549
10607TIP3    H131764   3.415   6.911   0.634
10607TIP3    H231765   3.278   6.903   0.571
10608TIP3   OH231766   0.945   3.334   0.333
10608TIP3    H131767   1.027   3.357   0.376
10608TIP3    H231768   0.896   3.416   0.330
10609TIP3   OH231769   5.003   3.186   5.612
10609TIP3    H131770   5.082   3.238   5.598
10609TIP3    H231771   4.966   3.219   5.694
10610TIP3   OH231772   1.967   2.858   2.066
10610TIP3    H131773   1.886   2.882   2.111
10610TIP3    H231774   2.033   2.916   2.104
10611TIP3   OH231775   8.179   2.034   6.077
10611TIP3    H131776   8.200   1.943   6.056
10611TIP3    H231777   8.261   2.068   6.114
10612TIP3   OH231778   3.635   0.135   3.981
10612TIP3    H131779   3.585   0.125   4.062
10612TIP3    H231780   3.713   0.184   4.008
10613TIP3   OH231781   2.782   2.884   6.621
10613TIP3    H131782   2.775   2.789   6.608
10613TIP3    H231783   2.777   2.895   6.716
10614TIP3   OH231784   4.044   5.130   4.754
10614TIP3    H131785   4.008   5.175   4.678
10614TIP3    H231786   4.102   5.196   4.795
10615TIP3   OH231787   4.493   7.754   3.350
10615TIP3    H131788   4.585   7.746   3.323
10615TIP3    H231789   4.444   7.712   3.279
10616TIP3   OH231790   6.852   3.736   4.755
10616TIP3    H131791   6.763   3.723   4.786
10616TIP3    H231792   6.907   3.691   4.820
10617TIP3   OH231793   6.651   6.441   5.119
10617TIP3    H131794   6.627   6.353   5.149
10617TIP3    H231795   6.569   6.476   5.084
10618TIP3   OH231796   0.753   3.772   1.757
10618TIP3    H131797   0.827   3.831   1.770
10618TIP3    H231798   0.755   3.752   1.664
10619TIP3   OH231799   2.467   2.891   4.052
10619TIP3    H131800   2.488   2.811   4.004
10619TIP3    H231801   2.535   2.898   4.119
10620TIP3   OH231802   0.039   3.891   4.050
10620TIP3    H131803   0.068   3.803   4.075
10620TIP3    H231804   0.117   3.933   4.013
10621TIP3   OH231805   2.279   2.402   1.613
10621TIP3    H131806   2.351   2.352   1.650
10621TIP3    H231807   2.311   2.431   1.528
10622TIP3   OH231808   8.000   1.279   6.341
10622TIP3    H131809   7.940   1.295   6.268
10622TIP3    H231810   7.985   1.187   6.364
10623TIP3   OH231811   5.123   5.058   3.019
10623TIP3    H131812   5.188   5.099   3.077
10623TIP3    H231813   5.166   5.057   2.933
10624TIP3   OH231814   6.240   0.998   3.519
10624TIP3    H131815   6.268   1.083   3.487
10624TIP3    H231816   6.299   0.936   3.475
10625TIP3   OH231817   2.531   0.597   1.993
10625TIP3    H131818   2.564   0.667   2.050
10625TIP3    H231819   2.609   0.560   1.953
10626TIP3   OH231820   0.797   2.099   3.343
10626TIP3    H131821   0.809   2.174   3.402
10626TIP3    H231822   0.707   2.071   3.358
10627TIP3   OH231823   3.448   4.386   2.504
10627TIP3    H131824   3.375   4.437   2.468
10627TIP3    H231825   3.450   4.411   2.597
10628TIP3   OH231826   7.804   0.333   4.910
10628TIP3    H131827   7.791   0.357   5.001
10628TIP3    H231828   7.892   0.295   4.907
10629TIP3   OH231829   8.166   6.870   3.691
10629TIP3    H131830   8.190   6.913   3.773
10629TIP3    H231831   8.129   6.940   3.637
10630TIP3   OH231832   3.611   1.717   0.632
10630TIP3    H131833   3.538   1.754   0.583
10630TIP3    H231834   3.687   1.768   0.604
10631TIP3   OH231835   5.588   2.193   6.371
10631TIP3    H131836   5.665   2.138   6.360
10631TIP3    H231837   5.516   2.131   6.386
10632TIP3   OH231838   3.566   5.753   2.394
10632TIP3    H131839   3.661   5.747   2.389
10632TIP3    H231840   3.538   5.762   2.303
10633TIP3   OH231841   3.653   3.983   5.665
10633TIP3    H131842   3.587   4.046   5.692
10633TIP3    H231843   3.623   3.899   5.700
10634TIP3   OH231844   3.120   5.654   6.316
10634TIP3    H131845   3.132   5.745   6.342
10634TIP3    H231846   3.196   5.608   6.354
10635TIP3   OH231847   0.529   0.680   4.447
10635TIP3    H131848   0.560   0.750   4.389
10635TIP3    H231849   0.529   0.602   4.392
10636TIP3   OH231850   1.677   7.108   0.356
10636TIP3    H131851   1.651   7.035   0.300
10636TIP3    H231852   1.599   7.127   0.408
10637TIP3   OH231853   5.889   0.566   1.902
10637TIP3    H131854   5.799   0.584   1.874
10637TIP3    H231855   5.890   0.474   1.925
10638TIP3   OH231856   3.494   6.460   0.092
10638TIP3    H131857   3.437   6.472   0.016
10638TIP3    H231858   3.517   6.549   0.118
10639TIP3   OH231859   2.783   2.151   3.357
10639TIP3    H131860   2.711   2.102   3.396
10639TIP3    H231861   2.766   2.149   3.263
10640TIP3   OH231862   7.092   0.890   6.746
10640TIP3    H131863   7.088   0.813   6.688
10640TIP3    H231864   7.001   0.918   6.754
10641TIP3   OH231865   0.626   4.296   6.720
10641TIP3    H131866   0.582   4.355   6.782
10641TIP3    H231867   0.555   4.243   6.683
10642TIP3   OH231868   1.706   1.504   0.693
10642TIP3    H131869   1.656   1.553   0.757
10642TIP3    H231870   1.653   1.506   0.613
10643TIP3   OH231871   7.888   3.367   1.029
10643TIP3    H131872   7.914   3.373   0.938
10643TIP3    H231873   7.968   3.386   1.079
10644TIP3   OH231874   3.531   2.171   0.651
10644TIP3    H131875   3.533   2.150   0.744
10644TIP3    H231876   3.466   2.241   0.643
10645TIP3   OH231877   8.265   1.285   6.349
10645TIP3    H131878   8.262   1.203   6.300
10645TIP3    H231879   8.174   1.313   6.356
10646TIP3   OH231880   3.996   4.036   3.697
10646TIP3    H131881   4.075   4.022   3.645
10646TIP3    H231882   4.028   4.063   3.783
10647TIP3   OH231883   3.424   1.319   2.784
10647TIP3    H131884   3.371   1.374   2.842
10647TIP3    H231885   3.489   1.279   2.842
10648TIP3   OH231886   5.299   2.518   3.801
10648TIP3    H131887   5.257   2.493   3.883
10648TIP3    H231888   5.245   2.589   3.767
10649TIP3   OH231889   1.428   3.352   3.308
10649TIP3    H131890   1.340   3.384   3.290
10649TIP3    H231891   1.449   3.389   3.394
10650TIP3   OH231892   1.917   0.927   0.786
10650TIP3    H131893   1.896   0.947   0.695
10650TIP3    H231894   1.842   0.960   0.836
10651TIP3   OH231895   7.052   7.812   3.079
10651TIP3    H131896   6.986   7.859   3.029
10651TIP3    H231897   7.003   7.748   3.130
10652TIP3   OH231898   5.394   1.554   2.972
10652TIP3    H131899   5.301   1.533   2.985
10652TIP3    H231900   5.394   1.622   2.906
10653TIP3   OH231901   0.684   1.625   0.930
10653TIP3    H131902   0.743   1.699   0.917
10653TIP3    H231903   0.742   1.552   0.952
10654TIP3   OH231904   5.143   3.470   2.323
10654TIP3    H131905   5.070   3.522   2.289
10654TIP3    H231906   5.202   3.459   2.248
10655TIP3   OH231907   1.880   0.508   4.336
10655TIP3    H131908   1.850   0.503   4.427
10655TIP3    H231909   1.976   0.509   4.343
10656TIP3   OH231910   5.803   4.044   2.765
10656TIP3    H131911   5.834   4.133   2.777
10656TIP3    H231912   5.785   4.012   2.853
10657TIP3   OH231913   0.446   5.472   5.766
10657TIP3    H131914   0.479   5.559   5.742
10657TIP3    H231915   0.372   5.457   5.707
10658TIP3   OH231916   0.620   3.651   6.167
10658TIP3    H131917   0.544   3.599   6.141
10658TIP3    H231918   0.677   3.588   6.211
10659TIP3   OH231919   7.260   1.873   4.285
10659TIP3    H131920   7.221   1.932   4.221
10659TIP3    H231921   7.348   1.854   4.251
10660TIP3   OH231922   3.446   3.009   5.358
10660TIP3    H131923   3.377   3.050   5.410
10660TIP3    H231924   3.516   3.075   5.356
10661TIP3   OH231925   6.133   4.546   2.072
10661TIP3    H131926   6.046   4.534   2.111
10661TIP3    H231927   6.121   4.614   2.006
10662TIP3   OH231928   3.351   4.613   3.813
10662TIP3    H131929   3.344   4.519   3.828
10662TIP3    H231930   3.442   4.626   3.786
10663TIP3   OH231931   4.125   2.041   5.422
10663TIP3    H131932   4.158   1.951   5.426
10663TIP3    H231933   4.198   2.092   5.388
10664TIP3   OH231934   0.385   1.865  -0.017
10664TIP3    H131935   0.328   1.941  -0.009
10664TIP3    H231936   0.450   1.877   0.052
10665TIP3   OH231937   7.786   6.061   5.743
10665TIP3    H131938   7.698   6.054   5.706
10665TIP3    H231939   7.831   6.125   5.688
10666TIP3   OH231940   7.599   1.850   6.256
10666TIP3    H131941   7.684   1.894   6.255
10666TIP3    H231942   7.605   1.784   6.188
10667TIP3   OH231943   2.756   0.745   2.154
10667TIP3    H131944   2.850   0.761   2.159
10667TIP3    H231945   2.718   0.832   2.141
10668TIP3   OH231946   6.891  -0.009   1.154
10668TIP3    H131947   6.863   0.050   1.083
10668TIP3    H231948   6.886   0.045   1.233
10669TIP3   OH231949   7.360   0.561   3.059
10669TIP3    H131950   7.364   0.476   3.102
10669TIP3    H231951   7.286   0.554   2.998
10670TIP3   OH231952   4.340   5.677   5.439
10670TIP3    H131953   4.306   5.697   5.526
10670TIP3    H231954   4.269   5.702   5.380
10671TIP3   OH231955   6.074   6.181   0.078
10671TIP3    H131956   6.115   6.167   0.163
10671TIP3    H231957   5.984   6.208   0.098
10672TIP3   OH231958   7.092   3.775   3.216
10672TIP3    H131959   7.005   3.780   3.257
10672TIP3    H231960   7.074   3.785   3.122
10673TIP3   OH231961   1.885   1.315   1.821
10673TIP3    H131962   1.964   1.264   1.838
10673TIP3    H231963   1.832   1.303   1.900
10674TIP3   OH231964   0.109   4.472   0.264
10674TIP3    H131965   0.164   4.500   0.192
10674TIP3    H231966   0.157   4.497   0.343
10675TIP3   OH231967   1.082   5.844   3.366
10675TIP3    H131968   1.069   5.914   3.302
10675TIP3    H231969   1.147   5.786   3.327
10676TIP3   OH231970   5.284   3.613   3.933
10676TIP3    H131971   5.271   3.708   3.935
10676TIP3    H231972   5.212   3.577   3.985
10677TIP3   OH231973   0.041   2.473   0.280
10677TIP3    H131974   0.032   2.436   0.193
10677TIP3    H231975   0.074   2.562   0.265
10678TIP3   OH231976   1.507   7.491   2.705
10678TIP3    H131977   1.425   7.538   2.691
10678TIP3    H231978   1.561   7.551   2.756
10679TIP3   OH231979   5.986   7.186   1.282
10679TIP3    H131980   6.028   7.254   1.334
10679TIP3    H231981   6.052   7.159   1.218
10680TIP3   OH231982   6.672   2.164   4.071
10680TIP3    H131983   6.594   2.219   4.075
10680TIP3    H231984   6.669   2.124   3.984
10681TIP3   OH231985   6.563   3.247   6.006
10681TIP3    H131986   6.483   3.270   5.960
10681TIP3    H231987   6.629   3.238   5.938
10682TIP3   OH231988   5.099   3.059   2.263
10682TIP3    H131989   5.005   3.042   2.260
10682TIP3    H231990   5.110   3.123   2.333
10683TIP3   OH231991   7.795   2.243   6.532
10683TIP3    H131992   7.766   2.328   6.566
10683TIP3    H231993   7.872   2.221   6.585
10684TIP3   OH231994   7.286   4.277   0.822
10684TIP3    H131995   7.316   4.323   0.744
10684TIP3    H231996   7.224   4.337   0.863
10685TIP3   OH231997   7.605   2.536   1.066
10685TIP3    H131998   7.645   2.605   1.013
10685TIP3    H231999   7.615   2.456   1.014
10686TIP3   OH232000   2.985   0.330   1.797
10686TIP3    H132001   3.037   0.332   1.878
10686TIP3    H232002   2.954   0.240   1.792
10687TIP3   OH232003   2.770   0.492   2.259
10687TIP3    H132004   2.768   0.576   2.213
10687TIP3    H232005   2.862   0.479   2.282
10688TIP3   OH232006   1.487   7.550   3.948
10688TIP3    H132007   1.466   7.522   3.859
10688TIP3    H232008   1.545   7.481   3.981
10689TIP3   OH232009   0.198   0.401   4.109
10689TIP3    H132010   0.140   0.464   4.153
10689TIP3    H232011   0.258   0.456   4.059
10690TIP3   OH232012   2.284   4.656   6.050
10690TIP3    H132013   2.243   4.601   6.116
10690TIP3    H232014   2.327   4.726   6.100
10691TIP3   OH232015   0.717   4.129   5.526
10691TIP3    H132016   0.801   4.173   5.510
10691TIP3    H232017   0.668   4.139   5.445
10692TIP3   OH232018   3.114   1.850   4.673
10692TIP3    H132019   3.173   1.836   4.599
10692TIP3    H232020   3.048   1.782   4.664
10693TIP3   OH232021   3.378   7.279   0.288
10693TIP3    H132022   3.413   7.242   0.207
10693TIP3    H232023   3.299   7.228   0.306
10694TIP3   OH232024   8.147   3.480   4.955
10694TIP3    H132025   8.157   3.414   5.023
10694TIP3    H232026   8.230   3.478   4.906
10695TIP3   OH232027   4.542   1.439   6.556
10695TIP3    H132028   4.459   1.393   6.566
10695TIP3    H232029   4.608   1.370   6.547
10696TIP3   OH232030   4.666   5.533   4.687
10696TIP3    H132031   4.578   5.559   4.659
10696TIP3    H232032   4.651   5.471   4.758
10697TIP3   OH232033   6.983   5.957   3.450
10697TIP3    H132034   6.940   6.042   3.462
10697TIP3    H232035   7.076   5.978   3.439
10698TIP3   OH232036   7.846   1.185   0.524
10698TIP3    H132037   7.881   1.213   0.439
10698TIP3    H232038   7.756   1.158   0.505
10699TIP3   OH232039   7.092   5.968   4.997
10699TIP3    H132040   7.015   6.017   5.028
10699TIP3    H232041   7.136   6.029   4.937
10700TIP3   OH232042   5.810   1.649   1.654
10700TIP3    H132043   5.898   1.622   1.629
10700TIP3    H232044   5.755   1.622   1.581
10701TIP3   OH232045   3.713   7.376   4.550
10701TIP3    H132046   3.786   7.406   4.605
10701TIP3    H232047   3.704   7.283   4.571
10702TIP3   OH232048   7.513   3.559   6.677
10702TIP3    H132049   7.575   3.597   6.739
10702TIP3    H232050   7.495   3.472   6.712
10703TIP3   OH232051   5.514   6.396   1.317
10703TIP3    H132052   5.591   6.358   1.360
10703TIP3    H232053   5.550   6.452   1.248
10704TIP3   OH232054   1.354   5.139   3.089
10704TIP3    H132055   1.260   5.147   3.099
10704TIP3    H232056   1.377   5.061   3.141
10705TIP3   OH232057   6.642   5.399   4.334
10705TIP3    H132058   6.674   5.490   4.332
10705TIP3    H232059   6.721   5.346   4.347
10706TIP3   OH232060   6.775   2.997   1.150
10706TIP3    H132061   6.796   3.088   1.168
10706TIP3    H232062   6.830   2.975   1.075
10707TIP3   OH232063   2.765   6.510   6.691
10707TIP3    H132064   2.822   6.587   6.691
10707TIP3    H232065   2.792   6.461   6.613
10708TIP3   OH232066   6.890   4.252   4.534
10708TIP3    H132067   6.918   4.288   4.618
10708TIP3    H232068   6.832   4.179   4.558
10709TIP3   OH232069   3.037   3.479   5.218
10709TIP3    H132070   2.949   3.446   5.197
10709TIP3    H232071   3.022   3.552   5.277
10710TIP3   OH232072   4.463   4.604   2.499
10710TIP3    H132073   4.476   4.616   2.405
10710TIP3    H232074   4.534   4.654   2.539
10711TIP3   OH232075   3.789   3.043   2.878
10711TIP3    H132076   3.794   3.045   2.974
10711TIP3    H232077   3.869   3.087   2.849
10712TIP3   OH232078   4.765   7.665   3.721
10712TIP3    H132079   4.685   7.648   3.671
10712TIP3    H232080   4.742   7.738   3.778
10713TIP3   OH232081   4.585   1.393   1.620
10713TIP3    H132082   4.679   1.412   1.617
10713TIP3    H232083   4.579   1.301   1.593
10714TIP3   OH232084   6.110   7.468   1.380
10714TIP3    H132085   6.199   7.452   1.347
10714TIP3    H232086   6.117   7.449   1.474
10715TIP3   OH232087   3.111   2.338   6.288
10715TIP3    H132088   3.138   2.317   6.198
10715TIP3    H232089   3.015   2.336   6.285
10716TIP3   OH232090   3.604   0.376   5.237
10716TIP3    H132091   3.580   0.437   5.307
10716TIP3    H232092   3.651   0.306   5.283
10717TIP3   OH232093   0.203   6.804   5.596
10717TIP3    H132094   0.285   6.769   5.630
10717TIP3    H232095   0.136   6.771   5.657
10718TIP3   OH232096   0.683   0.393   0.363
10718TIP3    H132097   0.776   0.382   0.384
10718TIP3    H232098   0.637   0.372   0.444
10719TIP3   OH232099   0.348   4.439   4.558
10719TIP3    H132100   0.399   4.497   4.501
10719TIP3    H232101   0.282   4.400   4.500
10720TIP3   OH232102   4.058   6.487   1.301
10720TIP3    H132103   4.142   6.446   1.281
10720TIP3    H232104   4.007   6.419   1.344
10721TIP3   OH232105   4.135   7.434   0.871
10721TIP3    H132106   4.124   7.341   0.851
10721TIP3    H232107   4.123   7.440   0.966
10722TIP3   OH232108   5.415   5.479   4.805
10722TIP3    H132109   5.477   5.407   4.818
10722TIP3    H232110   5.335   5.450   4.849
10723TIP3   OH232111   8.295   3.658   3.124
10723TIP3    H132112   8.243   3.625   3.052
10723TIP3    H232113   8.241   3.642   3.202
10724TIP3   OH232114   4.559   1.816   2.108
10724TIP3    H132115   4.595   1.729   2.092
10724TIP3    H232116   4.568   1.829   2.202
10725TIP3   OH232117   7.294   4.618   1.003
10725TIP3    H132118   7.330   4.561   0.935
10725TIP3    H232119   7.371   4.657   1.044
10726TIP3   OH232120   1.551   4.686   4.074
10726TIP3    H132121   1.597   4.660   4.154
10726TIP3    H232122   1.616   4.734   4.024
10727TIP3   OH232123   5.701   2.578   2.991
10727TIP3    H132124   5.713   2.648   3.056
10727TIP3    H232125   5.690   2.499   3.043
10728TIP3   OH232126   7.574   3.509   0.711
10728TIP3    H132127   7.615   3.516   0.797
10728TIP3    H232128   7.643   3.533   0.649
10729TIP3   OH232129   2.561   2.912   5.699
10729TIP3    H132130   2.478   2.953   5.724
10729TIP3    H232131   2.540   2.860   5.622
10730TIP3   OH232132   7.800   0.283   5.469
10730TIP3    H132133   7.786   0.207   5.412
10730TIP3    H232134   7.721   0.287   5.523
10731TIP3   OH232135   1.321   1.220   4.248
10731TIP3    H132136   1.341   1.126   4.245
10731TIP3    H232137   1.231   1.227   4.217
10732TIP3   OH232138   0.506   4.585   1.132
10732TIP3    H132139   0.452   4.659   1.105
10732TIP3    H232140   0.592   4.603   1.094
10733TIP3   OH232141   7.440   0.676   5.653
10733TIP3    H132142   7.397   0.679   5.567
10733TIP3    H232143   7.434   0.766   5.685
10734TIP3   OH232144   2.689   4.418   5.431
10734TIP3    H132145   2.700   4.472   5.353
10734TIP3    H232146   2.742   4.462   5.498
10735TIP3   OH232147   6.253   4.294   2.698
10735TIP3    H132148   6.340   4.333   2.690
10735TIP3    H232149   6.226   4.313   2.788
10736TIP3   OH232150   1.523   4.513   0.261
10736TIP3    H132151   1.579   4.561   0.200
10736TIP3    H232152   1.456   4.576   0.288
10737TIP3   OH232153   4.361   6.014   1.204
10737TIP3    H132154   4.280   5.971   1.176
10737TIP3    H232155   4.428   5.947   1.194
10738TIP3   OH232156   6.748   6.315   1.409
10738TIP3    H132157   6.703   6.370   1.345
10738TIP3    H232158   6.716   6.345   1.494
10739TIP3   OH232159   7.213   4.911   2.666
10739TIP3    H132160   7.125   4.947   2.677
10739TIP3    H232161   7.204   4.849   2.593
10740TIP3   OH232162   8.222   5.707   3.658
10740TIP3    H132163   8.280   5.775   3.625
10740TIP3    H232164   8.281   5.637   3.686
10741TIP3   OH232165   5.991   6.888   6.085
10741TIP3    H132166   6.015   6.795   6.090
10741TIP3    H232167   5.980   6.915   6.176
10742TIP3   OH232168   3.629   7.211   1.707
10742TIP3    H132169   3.717   7.202   1.672
10742TIP3    H232170   3.605   7.303   1.691
10743TIP3   OH232171   3.273   7.321   2.788
10743TIP3    H132172   3.290   7.242   2.737
10743TIP3    H232173   3.340   7.383   2.761
10744TIP3   OH232174   3.453   4.402   3.181
10744TIP3    H132175   3.548   4.402   3.165
10744TIP3    H232176   3.427   4.494   3.173
10745TIP3   OH232177   4.605   2.427   4.245
10745TIP3    H132178   4.524   2.450   4.289
10745TIP3    H232179   4.580   2.413   4.154
10746TIP3   OH232180   6.351   6.905   3.147
10746TIP3    H132181   6.279   6.927   3.205
10746TIP3    H232182   6.381   6.819   3.177
10747TIP3   OH232183   1.424   5.025   0.198
10747TIP3    H132184   1.379   5.108   0.185
10747TIP3    H232185   1.380   4.964   0.139
10748TIP3   OH232186   0.411   2.637   4.216
10748TIP3    H132187   0.392   2.670   4.304
10748TIP3    H232188   0.504   2.655   4.204
10749TIP3   OH232189   1.891   4.571   3.993
10749TIP3    H132190   1.852   4.542   3.911
10749TIP3    H232191   1.882   4.667   3.992
10750TIP3   OH232192   1.258   7.774   0.061
10750TIP3    H132193   1.217   7.703   0.110
10750TIP3    H232194   1.231   7.854   0.108
10751TIP3   OH232195   2.479   7.613   0.640
10751TIP3    H132196   2.505   7.635   0.550
10751TIP3    H232197   2.418   7.540   0.630
10752TIP3   OH232198   6.310   0.795   0.068
10752TIP3    H132199   6.373   0.733   0.106
10752TIP3    H232200   6.362   0.850   0.010
10753TIP3   OH232201   7.351   4.432   5.135
10753TIP3    H132202   7.367   4.338   5.137
10753TIP3    H232203   7.317   4.449   5.047
10754TIP3   OH232204   4.979   3.472   3.089
10754TIP3    H132205   4.934   3.425   3.159
10754TIP3    H232206   5.032   3.405   3.046
10755TIP3   OH232207   4.577   6.920   4.247
10755TIP3    H132208   4.593   6.924   4.153
10755TIP3    H232209   4.574   6.827   4.268
10756TIP3   OH232210   1.868   0.767   4.710
10756TIP3    H132211   1.891   0.709   4.782
10756TIP3    H232212   1.833   0.846   4.752
10757TIP3   OH232213   4.100   0.494   3.645
10757TIP3    H132214   4.159   0.539   3.585
10757TIP3    H232215   4.036   0.560   3.671
10758TIP3   OH232216   3.244   7.727   0.086
10758TIP3    H132217   3.186   7.802   0.096
10758TIP3    H232218   3.194   7.664   0.033
10759TIP3   OH232219   5.453   2.353   2.756
10759TIP3    H132220   5.524   2.319   2.811
10759TIP3    H232221   5.383   2.375   2.818
10760TIP3   OH232222   5.390   4.913   1.697
10760TIP3    H132223   5.363   4.885   1.610
10760TIP3    H232224   5.468   4.968   1.682
10761TIP3   OH232225   2.469   2.182   4.143
10761TIP3    H132226   2.388   2.164   4.190
10761TIP3    H232227   2.523   2.104   4.158
10762TIP3   OH232228   3.009   0.878   1.323
10762TIP3    H132229   3.046   0.946   1.266
10762TIP3    H232230   3.083   0.850   1.377
10763TIP3   OH232231   4.466   2.702   6.732
10763TIP3    H132232   4.556   2.678   6.713
10763TIP3    H232233   4.428   2.625   6.774
10764TIP3   OH232234   0.704   5.632   4.783
10764TIP3    H132235   0.694   5.556   4.726
10764TIP3    H232236   0.643   5.697   4.748
10765TIP3   OH232237   1.075   7.092   6.710
10765TIP3    H132238   1.033   7.015   6.672
10765TIP3    H232239   1.169   7.073   6.706
10766TIP3   OH232240   1.470   7.129   1.784
10766TIP3    H132241   1.524   7.050   1.773
10766TIP3    H232242   1.448   7.155   1.695
10767TIP3   OH232243   6.759   0.804   4.678
10767TIP3    H132244   6.677   0.841   4.646
10767TIP3    H232245   6.789   0.747   4.608
10768TIP3   OH232246   2.253   3.734   0.256
10768TIP3    H132247   2.230   3.645   0.282
10768TIP3    H232248   2.176   3.786   0.279
10769TIP3   OH232249   0.882   4.904   3.554
10769TIP3    H132250   0.879   4.936   3.644
10769TIP3    H232251   0.966   4.860   3.546
10770TIP3   OH232252   1.416   6.709   0.260
10770TIP3    H132253   1.395   6.632   0.207
10770TIP3    H232254   1.422   6.675   0.349
10771TIP3   OH232255   2.491   3.965   1.103
10771TIP3    H132256   2.438   4.045   1.094
10771TIP3    H232257   2.503   3.934   1.013
10772TIP3   OH232258  -0.011   0.714   6.682
10772TIP3    H132259  -0.028   0.805   6.704
10772TIP3    H232260   0.064   0.717   6.623
10773TIP3   OH232261   1.041   6.830   1.533
10773TIP3    H132262   1.082   6.765   1.476
10773TIP3    H232263   0.990   6.885   1.475
10774TIP3   OH232264   1.230   3.577   5.512
10774TIP3    H132265   1.303   3.516   5.523
10774TIP3    H232266   1.267   3.649   5.461
10775TIP3   OH232267   0.073   4.135   1.252
10775TIP3    H132268   0.031   4.122   1.337
10775TIP3    H232269   0.090   4.047   1.220
10776TIP3   OH232270   1.378   3.734   0.963
10776TIP3    H132271   1.410   3.697   1.045
10776TIP3    H232272   1.414   3.677   0.895
10777TIP3   OH232273   2.772   5.104   5.503
10777TIP3    H132274   2.845   5.081   5.445
10777TIP3    H232275   2.715   5.028   5.502
10778TIP3   OH232276   2.346   4.174   4.351
10778TIP3    H132277   2.370   4.266   4.346
10778TIP3    H232278   2.429   4.128   4.366
10779TIP3   OH232279   1.690   6.538   0.063
10779TIP3    H132280   1.718   6.452   0.095
10779TIP3    H232281   1.762   6.568   0.007
10780TIP3   OH232282  -0.020   0.106   5.693
10780TIP3    H132283   0.061   0.055   5.702
10780TIP3    H232284  -0.026   0.125   5.600
10781TIP3   OH232285   2.646   5.311   6.634
10781TIP3    H132286   2.636   5.274   6.546
10781TIP3    H232287   2.619   5.402   6.625
10782TIP3   OH232288   7.211   2.912   1.769
10782TIP3    H132289   7.199   3.003   1.795
10782TIP3    H232290   7.123   2.883   1.743
10783TIP3   OH232291   1.377   6.176   0.962
10783TIP3    H132292   1.391   6.256   1.013
10783TIP3    H232293   1.410   6.198   0.874
10784TIP3   OH232294   4.029   5.631   4.829
10784TIP3    H132295   4.034   5.656   4.737
10784TIP3    H232296   3.983   5.705   4.871
10785TIP3   OH232297   7.119   0.503   5.065
10785TIP3    H132298   7.072   0.553   4.998
10785TIP3    H232299   7.078   0.417   5.063
10786TIP3   OH232300   0.829   0.300   4.055
10786TIP3    H132301   0.860   0.338   3.973
10786TIP3    H232302   0.888   0.335   4.122
10787TIP3   OH232303   6.590   1.508   2.259
10787TIP3    H132304   6.607   1.510   2.353
10787TIP3    H232305   6.610   1.597   2.229
10788TIP3   OH232306   2.224   4.071   2.678
10788TIP3    H132307   2.289   4.007   2.708
10788TIP3    H232308   2.147   4.055   2.733
10789TIP3   OH232309   8.074   1.154   0.936
10789TIP3    H132310   8.095   1.186   0.848
10789TIP3    H232311   8.120   1.071   0.942
10790TIP3   OH232312   5.914   1.245   4.201
10790TIP3    H132313   5.861   1.302   4.256
10790TIP3    H232314   5.850   1.201   4.144
10791TIP3   OH232315   0.258   0.604   3.655
10791TIP3    H132316   0.221   0.602   3.743
10791TIP3    H232317   0.257   0.697   3.631
10792TIP3   OH232318   7.392   5.067   2.410
10792TIP3    H132319   7.448   5.142   2.390
10792TIP3    H232320   7.333   5.098   2.478
10793TIP3   OH232321   7.098   1.779   5.432
10793TIP3    H132322   7.007   1.797   5.411
10793TIP3    H232323   7.115   1.693   5.394
10794TIP3   OH232324   6.631   3.503   4.327
10794TIP3    H132325   6.678   3.435   4.279
10794TIP3    H232326   6.698   3.546   4.380
10795TIP3   OH232327   7.069   4.983   3.765
10795TIP3    H132328   7.009   4.930   3.713
10795TIP3    H232329   7.040   4.970   3.856
10796TIP3   OH232330   4.755   6.572   6.112
10796TIP3    H132331   4.683   6.547   6.055
10796TIP3    H232332   4.827   6.593   6.053
10797TIP3   OH232333   4.335   2.741   3.578
10797TIP3    H132334   4.368   2.786   3.655
10797TIP3    H232335   4.399   2.672   3.561
10798TIP3   OH232336   4.997   3.331   4.900
10798TIP3    H132337   4.922   3.388   4.915
10798TIP3    H232338   5.065   3.389   4.866
10799TIP3   OH232339   1.101   0.700   3.240
10799TIP3    H132340   1.134   0.661   3.159
10799TIP3    H232341   1.180   0.730   3.285
10800TIP3   OH232342   2.226   1.409   5.004
10800TIP3    H132343   2.155   1.350   5.030
10800TIP3    H232344   2.306   1.363   5.029
10801TIP3   OH232345   2.139   0.717   2.981
10801TIP3    H132346   2.218   0.769   2.965
10801TIP3    H232347   2.095   0.713   2.896
10802TIP3   OH232348   8.005   6.419   5.180
10802TIP3    H132349   7.929   6.367   5.205
10802TIP3    H232350   8.026   6.390   5.091
10803TIP3   OH232351   4.843   6.212   1.775
10803TIP3    H132352   4.900   6.137   1.790
10803TIP3    H232353   4.856   6.234   1.682
10804TIP3   OH232354   7.185   3.263   3.389
10804TIP3    H132355   7.233   3.317   3.325
10804TIP3    H232356   7.243   3.190   3.407
10805TIP3   OH232357   4.451   5.413   5.088
10805TIP3    H132358   4.366   5.455   5.082
10805TIP3    H232359   4.435   5.333   5.138
10806TIP3   OH232360   4.067   7.618   3.757
10806TIP3    H132361   4.039   7.570   3.835
10806TIP3    H232362   4.146   7.665   3.785
10807TIP3   OH232363   3.774   1.658   0.223
10807TIP3    H132364   3.742   1.653   0.133
10807TIP3    H232365   3.712   1.605   0.274
10808TIP3   OH232366   6.291   2.925   2.579
10808TIP3    H132367   6.240   2.868   2.637
10808TIP3    H232368   6.309   3.002   2.632
10809TIP3   OH232369   6.690   7.038   3.323
10809TIP3    H132370   6.650   7.002   3.402
10809TIP3    H232371   6.693   7.132   3.338
10810TIP3   OH232372   3.438   4.854   1.457
10810TIP3    H132373   3.422   4.907   1.535
10810TIP3    H232374   3.418   4.764   1.485
10811TIP3   OH232375   6.694   1.594   6.484
10811TIP3    H132376   6.638   1.517   6.486
10811TIP3    H232377   6.641   1.663   6.524
10812TIP3   OH232378   7.077   5.275   3.665
10812TIP3    H132379   7.119   5.333   3.729
10812TIP3    H232380   7.027   5.213   3.717
10813TIP3   OH232381   4.947   3.212   2.742
10813TIP3    H132382   4.856   3.205   2.771
10813TIP3    H232383   4.998   3.208   2.823
10814TIP3   OH232384   4.455   5.067   3.891
10814TIP3    H132385   4.432   4.974   3.898
10814TIP3    H232386   4.453   5.099   3.981
10815TIP3   OH232387   2.008   2.401   3.164
10815TIP3    H132388   1.919   2.366   3.167
10815TIP3    H232389   2.064   2.324   3.160
10816TIP3   OH232390   7.225   7.198   3.359
10816TIP3    H132391   7.292   7.130   3.362
10816TIP3    H232392   7.217   7.228   3.449
10817TIP3   OH232393   5.388   7.123   4.554
10817TIP3    H132394   5.322   7.105   4.621
10817TIP3    H232395   5.405   7.038   4.513
10818TIP3   OH232396   4.422   5.788   4.221
10818TIP3    H132397   4.331   5.787   4.192
10818TIP3    H232398   4.466   5.847   4.160
10819TIP3   OH232399   5.867   6.772   4.259
10819TIP3    H132400   5.916   6.853   4.248
10819TIP3    H232401   5.903   6.713   4.193
10820TIP3   OH232402   4.245   5.383   0.043
10820TIP3    H132403   4.280   5.452   0.099
10820TIP3    H232404   4.320   5.328   0.022
10821TIP3   OH232405   8.151   4.403   2.670
10821TIP3    H132406   8.237   4.385   2.707
10821TIP3    H232407   8.155   4.495   2.643
10822TIP3   OH232408   2.761   3.758   1.749
10822TIP3    H132409   2.817   3.700   1.801
10822TIP3    H232410   2.683   3.770   1.803
10823TIP3   OH232411   7.742   1.680   4.710
10823TIP3    H132412   7.647   1.675   4.703
10823TIP3    H232413   7.767   1.741   4.640
10824TIP3   OH232414   0.925   5.623   1.675
10824TIP3    H132415   0.986   5.590   1.609
10824TIP3    H232416   0.842   5.634   1.628
10825TIP3   OH232417   7.922   0.052   3.029
10825TIP3    H132418   7.942   0.074   2.938
10825TIP3    H232419   7.974  -0.027   3.047
10826TIP3   OH232420   7.262   3.459   1.702
10826TIP3    H132421   7.173   3.464   1.669
10826TIP3    H232422   7.267   3.525   1.771
10827TIP3   OH232423   5.563   4.526   5.749
10827TIP3    H132424   5.599   4.512   5.837
10827TIP3    H232425   5.600   4.610   5.721
10828TIP3   OH232426   2.920   0.900   3.756
10828TIP3    H132427   2.969   0.895   3.837
10828TIP3    H232428   2.954   0.978   3.711
10829TIP3   OH232429   1.277   3.888   2.403
10829TIP3    H132430   1.183   3.890   2.387
10829TIP3    H232431   1.309   3.972   2.370
10830TIP3   OH232432   1.644   6.862   0.189
10830TIP3    H132433   1.643   6.886   0.097
10830TIP3    H232434   1.557   6.824   0.205
10831TIP3   OH232435   4.672   2.005   3.307
10831TIP3    H132436   4.601   1.958   3.351
10831TIP3    H232437   4.628   2.069   3.252
10832TIP3   OH232438   4.802   6.532   2.364
10832TIP3    H132439   4.894   6.538   2.337
10832TIP3    H232440   4.792   6.603   2.428
10833TIP3   OH232441   4.533   6.547   6.714
10833TIP3    H132442   4.453   6.597   6.729
10833TIP3    H232443   4.521   6.467   6.766
10834TIP3   OH232444   3.566   1.400   1.393
10834TIP3    H132445   3.518   1.374   1.472
10834TIP3    H232446   3.564   1.323   1.337
10835TIP3   OH232447   0.179   5.061   4.070
10835TIP3    H132448   0.117   5.055   4.143
10835TIP3    H232449   0.170   4.977   4.024
10836TIP3   OH232450   6.270   0.429   3.872
10836TIP3    H132451   6.281   0.519   3.902
10836TIP3    H232452   6.284   0.434   3.777
10837TIP3   OH232453   5.161   2.340   0.333
10837TIP3    H132454   5.223   2.267   0.326
10837TIP3    H232455   5.180   2.395   0.257
10838TIP3   OH232456   2.225   5.278   3.326
10838TIP3    H132457   2.213   5.373   3.320
10838TIP3    H232458   2.159   5.249   3.388
10839TIP3   OH232459   4.439   7.249   6.527
10839TIP3    H132460   4.526   7.256   6.568
10839TIP3    H232461   4.449   7.292   6.443
10840TIP3   OH232462   3.305   0.225   0.880
10840TIP3    H132463   3.226   0.177   0.905
10840TIP3    H232464   3.273   0.300   0.831
10841TIP3   OH232465   4.657   7.503   2.325
10841TIP3    H132466   4.592   7.457   2.377
10841TIP3    H232467   4.653   7.594   2.355
10842TIP3   OH232468   1.813   2.925   2.891
10842TIP3    H132469   1.765   2.921   2.808
10842TIP3    H232470   1.789   3.009   2.929
10843TIP3   OH232471   0.337   6.799   5.087
10843TIP3    H132472   0.356   6.887   5.118
10843TIP3    H232473   0.284   6.760   5.157
10844TIP3   OH232474   0.126   1.425   5.813
10844TIP3    H132475   0.173   1.508   5.815
10844TIP3    H232476   0.072   1.430   5.734
10845TIP3   OH232477   0.964   2.259   6.645
10845TIP3    H132478   0.940   2.297   6.729
10845TIP3    H232479   0.881   2.254   6.597
10846TIP3   OH232480   5.965   0.984   1.592
10846TIP3    H132481   6.026   1.019   1.658
10846TIP3    H232482   5.940   0.898   1.625
10847TIP3   OH232483   6.609   7.360   6.668
10847TIP3    H132484   6.647   7.406   6.743
10847TIP3    H232485   6.514   7.370   6.680
10848TIP3   OH232486   0.247   3.333   1.998
10848TIP3    H132487   0.195   3.289   1.931
10848TIP3    H232488   0.335   3.296   1.989
10849TIP3   OH232489   5.547   7.392   2.766
10849TIP3    H132490   5.452   7.402   2.762
10849TIP3    H232491   5.574   7.448   2.839
10850TIP3   OH232492   1.786   4.473   2.893
10850TIP3    H132493   1.831   4.392   2.917
10850TIP3    H232494   1.702   4.444   2.858
10851TIP3   OH232495   4.622   1.432   0.888
10851TIP3    H132496   4.591   1.344   0.910
10851TIP3    H232497   4.568   1.458   0.813
10852TIP3   OH232498   6.369   1.967   1.758
10852TIP3    H132499   6.341   1.933   1.673
10852TIP3    H232500   6.291   2.009   1.794
10853TIP3   OH232501   2.252   2.209   3.205
10853TIP3    H132502   2.256   2.239   3.114
10853TIP3    H232503   2.325   2.254   3.248
10854TIP3   OH232504   0.693   5.965   0.709
10854TIP3    H132505   0.729   5.951   0.621
10854TIP3    H232506   0.643   5.886   0.727
10855TIP3   OH232507   3.039   3.467   3.600
10855TIP3    H132508   2.951   3.442   3.626
10855TIP3    H232509   3.032   3.560   3.580
10856TIP3   OH232510   3.293   5.065   2.065
10856TIP3    H132511   3.320   5.117   1.990
10856TIP3    H232512   3.201   5.087   2.078
10857TIP3   OH232513   6.343   0.812   0.566
10857TIP3    H132514   6.368   0.720   0.564
10857TIP3    H232515   6.392   0.849   0.640
10858TIP3   OH232516   2.821   6.087   1.210
10858TIP3    H132517   2.854   6.110   1.123
10858TIP3    H232518   2.737   6.131   1.216
10859TIP3   OH232519   8.278   0.348   2.530
10859TIP3    H132520   8.288   0.430   2.579
10859TIP3    H232521   8.259   0.376   2.441
10860TIP3   OH232522   0.078   0.958   3.876
10860TIP3    H132523   0.067   0.936   3.969
10860TIP3    H232524   0.153   0.907   3.848
10861TIP3   OH232525   0.251   0.119   4.185
10861TIP3    H132526   0.243   0.206   4.144
10861TIP3    H232527   0.314   0.132   4.256
10862TIP3   OH232528   6.720   0.369   3.346
10862TIP3    H132529   6.807   0.411   3.343
10862TIP3    H232530   6.717   0.326   3.431
10863TIP3   OH232531   6.102   2.105   4.447
10863TIP3    H132532   6.054   2.119   4.365
10863TIP3    H232533   6.190   2.079   4.419
10864TIP3   OH232534   5.606   0.442   3.956
10864TIP3    H132535   5.531   0.479   4.003
10864TIP3    H232536   5.682   0.479   4.000
10865TIP3   OH232537   6.623   2.473   0.283
10865TIP3    H132538   6.617   2.392   0.334
10865TIP3    H232539   6.587   2.540   0.341
10866TIP3   OH232540   0.233   1.151   0.933
10866TIP3    H132541   0.252   1.200   1.012
10866TIP3    H232542   0.220   1.061   0.963
10867TIP3   OH232543   6.655   7.367   4.370
10867TIP3    H132544   6.698   7.451   4.388
10867TIP3    H232545   6.580   7.365   4.429
10868TIP3   OH232546   8.049   2.288   0.770
10868TIP3    H132547   8.050   2.269   0.864
10868TIP3    H232548   8.050   2.201   0.729
10869TIP3   OH232549   4.242   0.316   1.637
10869TIP3    H132550   4.159   0.346   1.598
10869TIP3    H232551   4.222   0.227   1.668
10870TIP3   OH232552   6.133   4.115   4.010
10870TIP3    H132553   6.113   4.207   3.994
10870TIP3    H232554   6.051   4.077   4.039
10871TIP3   OH232555   0.456   7.034   4.916
10871TIP3    H132556   0.534   6.985   4.944
10871TIP3    H232557   0.489   7.121   4.894
10872TIP3   OH232558   5.156   0.344   3.758
10872TIP3    H132559   5.173   0.286   3.833
10872TIP3    H232560   5.115   0.287   3.693
10873TIP3   OH232561   1.995   3.986   2.780
10873TIP3    H132562   1.978   3.899   2.744
10873TIP3    H232563   1.958   4.047   2.715
10874TIP3   OH232564   5.939   5.742   6.305
10874TIP3    H132565   5.876   5.731   6.376
10874TIP3    H232566   5.981   5.656   6.298
10875TIP3   OH232567   6.996   4.271   3.359
10875TIP3    H132568   6.923   4.324   3.328
10875TIP3    H232569   6.998   4.196   3.300
10876TIP3   OH232570   4.116   6.375   4.502
10876TIP3    H132571   4.205   6.360   4.470
10876TIP3    H232572   4.078   6.287   4.508
10877TIP3   OH232573   5.162   7.270   6.247
10877TIP3    H132574   5.200   7.354   6.225
10877TIP3    H232575   5.227   7.206   6.220
10878TIP3   OH232576   1.074   0.085   2.812
10878TIP3    H132577   1.048   0.132   2.733
10878TIP3    H232578   1.025   0.003   2.809
10879TIP3   OH232579   7.481   1.437   4.599
10879TIP3    H132580   7.508   1.521   4.639
10879TIP3    H232581   7.562   1.386   4.596
10880TIP3   OH232582   7.260   2.278   1.244
10880TIP3    H132583   7.211   2.353   1.210
10880TIP3    H232584   7.337   2.316   1.285
10881TIP3   OH232585   7.810   3.856   2.958
10881TIP3    H132586   7.731   3.845   2.905
10881TIP3    H232587   7.853   3.933   2.922
10882TIP3   OH232588   5.126   0.875   2.089
10882TIP3    H132589   5.046   0.848   2.134
10882TIP3    H232590   5.196   0.828   2.134
10883TIP3   OH232591   5.007   1.420   5.690
10883TIP3    H132592   4.977   1.454   5.774
10883TIP3    H232593   5.100   1.443   5.687
10884TIP3   OH232594   6.016   6.782   3.527
10884TIP3    H132595   6.087   6.718   3.524
10884TIP3    H232596   5.944   6.740   3.479
10885TIP3   OH232597   4.272   7.122   3.438
10885TIP3    H132598   4.193   7.099   3.390
10885TIP3    H232599   4.253   7.096   3.529
10886TIP3   OH232600   1.164   5.799   4.486
10886TIP3    H132601   1.238   5.777   4.542
10886TIP3    H232602   1.195   5.871   4.431
10887TIP3   OH232603   5.328   2.713   6.753
10887TIP3    H132604   5.322   2.630   6.705
10887TIP3    H232605   5.314   2.689   6.845
10888TIP3   OH232606   6.822   3.928   5.056
10888TIP3    H132607   6.872   3.869   5.112
10888TIP3    H232608   6.733   3.894   5.060
10889TIP3   OH232609   7.876   6.354   3.945
10889TIP3    H132610   7.821   6.383   3.873
10889TIP3    H232611   7.961   6.335   3.905
10890TIP3   OH232612   3.435   4.794   3.621
10890TIP3    H132613   3.442   4.879   3.577
10890TIP3    H232614   3.364   4.805   3.684
10891TIP3   OH232615   7.928   4.243   4.074
10891TIP3    H132616   7.891   4.332   4.079
10891TIP3    H232617   7.944   4.230   3.980
10892TIP3   OH232618   7.411   3.549   1.047
10892TIP3    H132619   7.399   3.566   1.141
10892TIP3    H232620   7.414   3.453   1.040
10893TIP3   OH232621   1.652   7.720   4.764
10893TIP3    H132622   1.674   7.644   4.817
10893TIP3    H232623   1.587   7.768   4.816
10894TIP3   OH232624   5.261   5.317   1.736
10894TIP3    H132625   5.247   5.222   1.726
10894TIP3    H232626   5.182   5.357   1.699
10895TIP3   OH232627   3.094   6.434   0.204
10895TIP3    H132628   3.104   6.524   0.234
10895TIP3    H232629   3.038   6.392   0.270
10896TIP3   OH232630   0.435   0.871   1.865
10896TIP3    H132631   0.371   0.847   1.798
10896TIP3    H232632   0.400   0.834   1.946
10897TIP3   OH232633   0.489   4.955   3.760
10897TIP3    H132634   0.536   4.893   3.816
10897TIP3    H232635   0.540   4.958   3.679
10898TIP3   OH232636   3.080   1.981   6.694
10898TIP3    H132637   3.069   1.974   6.599
10898TIP3    H232638   2.991   1.979   6.729
10899TIP3   OH232639   7.552   1.270   0.682
10899TIP3    H132640   7.563   1.198   0.620
10899TIP3    H232641   7.527   1.345   0.628
10900TIP3   OH232642   3.530   6.406   6.318
10900TIP3    H132643   3.604   6.390   6.260
10900TIP3    H232644   3.542   6.344   6.390
10901TIP3   OH232645   0.430   7.798   1.224
10901TIP3    H132646   0.395   7.760   1.143
10901TIP3    H232647   0.416   7.892   1.215
10902TIP3   OH232648   6.968   0.011   2.892
10902TIP3    H132649   7.001   0.011   2.981
10902TIP3    H232650   6.873   0.016   2.901
10903TIP3   OH232651   8.126   7.187   0.269
10903TIP3    H132652   8.155   7.132   0.342
10903TIP3    H232653   8.049   7.233   0.303
10904TIP3   OH232654   5.106   6.839   3.386
10904TIP3    H132655   5.017   6.848   3.420
10904TIP3    H232656   5.143   6.927   3.395
10905TIP3   OH232657   7.668   7.782   3.296
10905TIP3    H132658   7.743   7.821   3.340
10905TIP3    H232659   7.607   7.761   3.367
10906TIP3   OH232660   5.842   1.611   6.558
10906TIP3    H132661   5.750   1.601   6.534
10906TIP3    H232662   5.849   1.571   6.645
10907TIP3   OH232663   3.245   3.322   0.661
10907TIP3    H132664   3.184   3.262   0.619
10907TIP3    H232665   3.308   3.265   0.705
10908TIP3   OH232666   0.639   4.265   2.927
10908TIP3    H132667   0.688   4.217   2.993
10908TIP3    H232668   0.626   4.202   2.856
10909TIP3   OH232669   2.205   4.003   0.884
10909TIP3    H132670   2.270   4.054   0.933
10909TIP3    H232671   2.126   4.008   0.937
10910TIP3   OH232672   2.274   5.063   2.414
10910TIP3    H132673   2.244   4.977   2.442
10910TIP3    H232674   2.201   5.099   2.365
10911TIP3   OH232675   6.029   0.299   4.968
10911TIP3    H132676   5.952   0.265   5.013
10911TIP3    H232677   6.052   0.231   4.905
10912TIP3   OH232678   0.658   7.683   4.913
10912TIP3    H132679   0.673   7.706   4.821
10912TIP3    H232680   0.614   7.759   4.950
10913TIP3   OH232681   7.347   4.440   2.510
10913TIP3    H132682   7.427   4.442   2.459
10913TIP3    H232683   7.294   4.371   2.468
10914TIP3   OH232684   3.067   5.493   3.970
10914TIP3    H132685   3.021   5.559   3.919
10914TIP3    H232686   3.050   5.517   4.061
10915TIP3   OH232687   4.904   3.509   0.678
10915TIP3    H132688   4.873   3.526   0.589
10915TIP3    H232689   4.829   3.466   0.721
10916TIP3   OH232690   6.124   4.953   0.703
10916TIP3    H132691   6.159   4.871   0.737
10916TIP3    H232692   6.188   5.020   0.729
10917TIP3   OH232693   5.655   5.226   5.871
10917TIP3    H132694   5.616   5.267   5.793
10917TIP3    H232695   5.724   5.287   5.897
10918TIP3   OH232696   2.817   0.392   6.633
10918TIP3    H132697   2.862   0.401   6.548
10918TIP3    H232698   2.871   0.443   6.693
10919TIP3   OH232699   3.876   6.944   2.737
10919TIP3    H132700   3.904   6.902   2.656
10919TIP3    H232701   3.953   6.940   2.794
10920TIP3   OH232702   1.720   5.043   2.960
10920TIP3    H132703   1.778   5.054   2.885
10920TIP3    H232704   1.758   5.098   3.028
10921TIP3   OH232705   1.015   1.902   5.108
10921TIP3    H132706   1.045   1.826   5.158
10921TIP3    H232707   1.076   1.972   5.132
10922TIP3   OH232708   7.436   1.857   2.784
10922TIP3    H132709   7.420   1.894   2.696
10922TIP3    H232710   7.498   1.918   2.824
10923TIP3   OH232711   7.666   7.177   6.228
10923TIP3    H132712   7.640   7.155   6.139
10923TIP3    H232713   7.619   7.258   6.249
10924TIP3   OH232714   6.581   1.900   4.658
10924TIP3    H132715   6.610   1.916   4.748
10924TIP3    H232716   6.647   1.942   4.603
10925TIP3   OH232717   5.759   0.186   5.660
10925TIP3    H132718   5.729   0.200   5.570
10925TIP3    H232719   5.811   0.263   5.680
10926TIP3   OH232720   2.392   6.646   3.742
10926TIP3    H132721   2.311   6.652   3.793
10926TIP3    H232722   2.455   6.700   3.791
10927TIP3   OH232723   8.096   2.931   6.709
10927TIP3    H132724   8.145   2.997   6.758
10927TIP3    H232725   8.161   2.864   6.687
10928TIP3   OH232726   7.119   4.591   5.024
10928TIP3    H132727   7.125   4.558   5.113
10928TIP3    H232728   7.136   4.514   4.969
10929TIP3   OH232729   2.416   7.621   0.097
10929TIP3    H132730   2.421   7.698   0.153
10929TIP3    H232731   2.387   7.655   0.012
10930TIP3   OH232732   0.611   6.701   2.583
10930TIP3    H132733   0.581   6.628   2.636
10930TIP3    H232734   0.537   6.722   2.527
10931TIP3   OH232735   2.037   4.839   5.150
10931TIP3    H132736   2.052   4.927   5.117
10931TIP3    H232737   1.944   4.835   5.169
10932TIP3   OH232738   4.672   6.619   2.138
10932TIP3    H132739   4.743   6.630   2.075
10932TIP3    H232740   4.714   6.584   2.217
10933TIP3   OH232741   1.253   6.309   5.236
10933TIP3    H132742   1.344   6.313   5.269
10933TIP3    H232743   1.253   6.235   5.176
10934TIP3   OH232744   6.675   6.577   4.771
10934TIP3    H132745   6.692   6.609   4.683
10934TIP3    H232746   6.715   6.642   4.829
10935TIP3   OH232747   2.332   0.796   5.071
10935TIP3    H132748   2.379   0.769   4.991
10935TIP3    H232749   2.305   0.713   5.111
10936TIP3   OH232750   6.971   4.261   2.926
10936TIP3    H132751   7.063   4.285   2.912
10936TIP3    H232752   6.922   4.326   2.876
10937TIP3   OH232753   7.432   6.065   3.849
10937TIP3    H132754   7.355   6.036   3.800
10937TIP3    H232755   7.475   6.127   3.791
10938TIP3   OH232756   0.882   5.882   0.023
10938TIP3    H132757   0.893   5.800   0.070
10938TIP3    H232758   0.972   5.911   0.005
10939TIP3   OH232759   4.086   6.967   3.311
10939TIP3    H132760   4.003   7.009   3.288
10939TIP3    H232761   4.063   6.906   3.382
10940TIP3   OH232762   7.105   5.014   0.421
10940TIP3    H132763   7.195   5.034   0.446
10940TIP3    H232764   7.111   4.981   0.332
10941TIP3   OH232765   0.336   6.333   4.184
10941TIP3    H132766   0.302   6.368   4.102
10941TIP3    H232767   0.394   6.261   4.158
10942TIP3   OH232768   7.253   0.854   3.898
10942TIP3    H132769   7.173   0.886   3.856
10942TIP3    H232770   7.248   0.758   3.888
10943TIP3   OH232771   5.300   2.358   5.733
10943TIP3    H132772   5.242   2.346   5.657
10943TIP3    H232773   5.266   2.437   5.776
10944TIP3   OH232774   6.338   3.291   4.023
10944TIP3    H132775   6.274   3.316   4.090
10944TIP3    H232776   6.410   3.354   4.034
10945TIP3   OH232777   8.200   1.915   0.897
10945TIP3    H132778   8.245   1.843   0.853
10945TIP3    H232779   8.108   1.888   0.900
10946TIP3   OH232780   0.594   1.552   6.179
10946TIP3    H132781   0.610   1.644   6.155
10946TIP3    H232782   0.502   1.549   6.202
10947TIP3   OH232783   7.450   5.183   1.576
10947TIP3    H132784   7.448   5.143   1.663
10947TIP3    H232785   7.529   5.237   1.575
10948TIP3   OH232786   1.673   3.959   3.836
10948TIP3    H132787   1.649   4.042   3.878
10948TIP3    H232788   1.600   3.901   3.855
10949TIP3   OH232789   6.163   1.615   4.457
10949TIP3    H132790   6.141   1.665   4.536
10949TIP3    H232791   6.131   1.669   4.385
10950TIP3   OH232792   6.949   2.836   1.656
10950TIP3    H132793   6.872   2.872   1.700
10950TIP3    H232794   6.917   2.808   1.570
10951TIP3   OH232795   6.037   4.582   1.002
10951TIP3    H132796   6.094   4.627   0.940
10951TIP3    H232797   6.020   4.496   0.962
10952TIP3   OH232798   8.217   5.076   2.431
10952TIP3    H132799   8.263   5.159   2.417
10952TIP3    H232800   8.211   5.037   2.344
10953TIP3   OH232801   6.753   4.847   0.039
10953TIP3    H132802   6.810   4.924   0.043
10953TIP3    H232803   6.673   4.878  -0.002
10954TIP3   OH232804   1.307   1.626   0.947
10954TIP3    H132805   1.339   1.550   0.898
10954TIP3    H232806   1.328   1.701   0.891
10955TIP3   OH232807   4.574   6.878   3.723
10955TIP3    H132808   4.572   6.952   3.662
10955TIP3    H232809   4.482   6.856   3.738
10956TIP3   OH232810   3.947   5.726   6.526
10956TIP3    H132811   3.877   5.696   6.584
10956TIP3    H232812   3.925   5.690   6.441
10957TIP3   OH232813   0.796   7.511   4.493
10957TIP3    H132814   0.720   7.477   4.444
10957TIP3    H232815   0.870   7.496   4.435
10958TIP3   OH232816   6.391   2.183   5.031
10958TIP3    H132817   6.432   2.167   5.116
10958TIP3    H232818   6.297   2.188   5.051
10959TIP3   OH232819   0.458   0.149   5.762
10959TIP3    H132820   0.502   0.097   5.830
10959TIP3    H232821   0.432   0.084   5.697
10960TIP3   OH232822   0.637   4.932   3.253
10960TIP3    H132823   0.716   4.936   3.199
10960TIP3    H232824   0.571   4.892   3.196
10961TIP3   OH232825   6.758   6.287   3.729
10961TIP3    H132826   6.766   6.264   3.636
10961TIP3    H232827   6.823   6.232   3.773
10962TIP3   OH232828   5.334   3.462   0.385
10962TIP3    H132829   5.310   3.427   0.471
10962TIP3    H232830   5.254   3.455   0.334
10963TIP3   OH232831   0.531   2.573   6.503
10963TIP3    H132832   0.498   2.608   6.420
10963TIP3    H232833   0.549   2.651   6.556
10964TIP3   OH232834   5.349   2.677   3.140
10964TIP3    H132835   5.310   2.695   3.055
10964TIP3    H232836   5.323   2.752   3.194
10965TIP3   OH232837   3.775   4.930   4.165
10965TIP3    H132838   3.777   4.889   4.079
10965TIP3    H232839   3.799   4.860   4.226
10966TIP3   OH232840   1.324   5.139   6.439
10966TIP3    H132841   1.382   5.190   6.495
10966TIP3    H232842   1.370   5.133   6.356
10967TIP3   OH232843   8.238   6.908   1.795
10967TIP3    H132844   8.231   6.965   1.871
10967TIP3    H232845   8.243   6.968   1.720
10968TIP3   OH232846   7.732   6.604   6.071
10968TIP3    H132847   7.681   6.673   6.114
10968TIP3    H232848   7.667   6.552   6.025
10969TIP3   OH232849   7.811   2.025   5.900
10969TIP3    H132850   7.727   2.052   5.863
10969TIP3    H232851   7.855   1.980   5.828
10970TIP3   OH232852   4.393   3.772   3.042
10970TIP3    H132853   4.479   3.733   3.027
10970TIP3    H232854   4.409   3.866   3.043
10971TIP3   OH232855   3.418   0.719   4.969
10971TIP3    H132856   3.467   0.637   4.964
10971TIP3    H232857   3.484   0.788   4.956
10972TIP3   OH232858   7.546   2.688   1.596
10972TIP3    H132859   7.493   2.721   1.524
10972TIP3    H232860   7.624   2.744   1.596
10973TIP3   OH232861   1.735   6.241   2.226
10973TIP3    H132862   1.713   6.195   2.307
10973TIP3    H232863   1.823   6.277   2.241
10974TIP3   OH232864   0.234   2.487   0.854
10974TIP3    H132865   0.245   2.547   0.929
10974TIP3    H232866   0.198   2.542   0.785
10975TIP3   OH232867   7.082   1.843   4.491
10975TIP3    H132868   7.152   1.866   4.431
10975TIP3    H232869   7.006   1.828   4.435
10976TIP3   OH232870   6.914   0.444   6.761
10976TIP3    H132871   6.827   0.405   6.751
10976TIP3    H232872   6.975   0.373   6.743
10977TIP3   OH232873   2.826   0.882   1.618
10977TIP3    H132874   2.863   0.840   1.696
10977TIP3    H232875   2.861   0.971   1.620
10978TIP3   OH232876   2.753   5.123   6.131
10978TIP3    H132877   2.785   5.137   6.042
10978TIP3    H232878   2.713   5.037   6.129
10979TIP3   OH232879   6.134   3.897   6.737
10979TIP3    H132880   6.067   3.930   6.677
10979TIP3    H232881   6.088   3.835   6.793
10980TIP3   OH232882   0.907   6.407   0.526
10980TIP3    H132883   0.826   6.413   0.477
10980TIP3    H232884   0.882   6.368   0.610
10981TIP3   OH232885   5.643   2.050   1.886
10981TIP3    H132886   5.732   2.082   1.871
10981TIP3    H232887   5.586   2.124   1.865
10982TIP3   OH232888   6.657   1.462   2.552
10982TIP3    H132889   6.598   1.387   2.553
10982TIP3    H232890   6.744   1.424   2.539
10983TIP3   OH232891   6.826   3.988   5.879
10983TIP3    H132892   6.878   3.919   5.920
10983TIP3    H232893   6.744   3.990   5.929
10984TIP3   OH232894   5.763   6.066   4.547
10984TIP3    H132895   5.673   6.088   4.521
10984TIP3    H232896   5.753   6.020   4.630
10985TIP3   OH232897   4.281   5.520   3.824
10985TIP3    H132898   4.340   5.467   3.770
10985TIP3    H232899   4.194   5.484   3.807
10986TIP3   OH232900   6.889   5.085   0.982
10986TIP3    H132901   6.913   5.130   1.063
10986TIP3    H232902   6.939   5.129   0.914
10987TIP3   OH232903   5.186   4.690   5.560
10987TIP3    H132904   5.207   4.621   5.623
10987TIP3    H232905   5.233   4.767   5.593
10988TIP3   OH232906   7.192   5.218   2.587
10988TIP3    H132907   7.123   5.163   2.549
10988TIP3    H232908   7.192   5.195   2.680
10989TIP3   OH232909   0.336   6.755   2.501
10989TIP3    H132910   0.265   6.753   2.436
10989TIP3    H232911   0.327   6.840   2.543
10990TIP3   OH232912   6.830   2.257   0.705
10990TIP3    H132913   6.872   2.200   0.641
10990TIP3    H232914   6.791   2.197   0.769
10991TIP3   OH232915   2.587   4.267   0.288
10991TIP3    H132916   2.633   4.185   0.275
10991TIP3    H232917   2.526   4.273   0.214
10992TIP3   OH232918   2.956   4.219   3.008
10992TIP3    H132919   2.972   4.159   2.935
10992TIP3    H232920   3.040   4.225   3.053
10993TIP3   OH232921   7.898   0.693   6.480
10993TIP3    H132922   7.803   0.691   6.489
10993TIP3    H232923   7.928   0.619   6.533
10994TIP3   OH232924   6.428   2.302   4.045
10994TIP3    H132925   6.364   2.362   4.007
10994TIP3    H232926   6.377   2.248   4.105
10995TIP3   OH232927   5.595   1.818   1.728
10995TIP3    H132928   5.618   1.876   1.800
10995TIP3    H232929   5.678   1.786   1.694
10996TIP3   OH232930   5.903   2.750   3.873
10996TIP3    H132931   5.896   2.676   3.933
10996TIP3    H232932   5.996   2.755   3.852
10997TIP3   OH232933   4.811   0.544   5.700
10997TIP3    H132934   4.797   0.505   5.614
10997TIP3    H232935   4.737   0.605   5.710
10998TIP3   OH232936   7.030   7.491   2.708
10998TIP3    H132937   7.059   7.403   2.731
10998TIP3    H232938   7.069   7.508   2.623
10999TIP3   OH232939   7.630   4.836   3.846
10999TIP3    H132940   7.567   4.796   3.906
10999TIP3    H232941   7.604   4.804   3.759
11000TIP3   OH232942   7.200   2.864   5.066
11000TIP3    H132943   7.123   2.919   5.050
11000TIP3    H232944   7.213   2.869   5.161
11001TIP3   OH232945   8.063   6.535   1.157
11001TIP3    H132946   8.111   6.474   1.212
11001TIP3    H232947   7.983   6.553   1.206
11002TIP3   OH232948   3.694   4.766   0.995
11002TIP3    H132949   3.691   4.762   0.899
11002TIP3    H232950   3.733   4.852   1.013
11003TIP3   OH232951   5.873   1.807   0.641
11003TIP3    H132952   5.862   1.725   0.595
11003TIP3    H232953   5.786   1.825   0.679
11004TIP3   OH232954   0.447   4.490   5.925
11004TIP3    H132955   0.537   4.458   5.917
11004TIP3    H232956   0.429   4.488   6.019
11005TIP3   OH232957   3.010   5.400   4.733
11005TIP3    H132958   3.075   5.342   4.694
11005TIP3    H232959   3.053   5.436   4.811
11006TIP3   OH232960   3.347   7.617   0.748
11006TIP3    H132961   3.440   7.609   0.728
11006TIP3    H232962   3.323   7.533   0.786
11007TIP3   OH232963   4.739   7.613   0.403
11007TIP3    H132964   4.679   7.564   0.460
11007TIP3    H232965   4.767   7.550   0.338
11008TIP3   OH232966   0.084   2.045   1.704
11008TIP3    H132967   0.014   2.038   1.768
11008TIP3    H232968   0.065   1.977   1.639
11009TIP3   OH232969   4.570   2.663   6.408
11009TIP3    H132970   4.492   2.712   6.435
11009TIP3    H232971   4.536   2.586   6.363
11010TIP3   OH232972   4.354   5.381   0.438
11010TIP3    H132973   4.291   5.329   0.388
11010TIP3    H232974   4.389   5.444   0.375
11011TIP3   OH232975   2.314   4.585   1.999
11011TIP3    H132976   2.233   4.583   1.947
11011TIP3    H232977   2.289   4.629   2.080
11012TIP3   OH232978   0.385   3.746   5.116
11012TIP3    H132979   0.415   3.808   5.182
11012TIP3    H232980   0.299   3.718   5.146
11013TIP3   OH232981   5.873   1.154   6.444
11013TIP3    H132982   5.817   1.219   6.402
11013TIP3    H232983   5.954   1.201   6.463
11014TIP3   OH232984   8.181   5.269   3.700
11014TIP3    H132985   8.192   5.203   3.768
11014TIP3    H232986   8.249   5.334   3.719
11015TIP3   OH232987   7.056   2.402   6.309
11015TIP3    H132988   7.087   2.445   6.230
11015TIP3    H232989   7.038   2.474   6.370
11016TIP3   OH232990   7.224   0.620   0.546
11016TIP3    H132991   7.278   0.630   0.625
11016TIP3    H232992   7.262   0.545   0.501
11017TIP3   OH232993   2.994   1.307   4.210
11017TIP3    H132994   3.046   1.380   4.177
11017TIP3    H232995   2.955   1.341   4.291
11018TIP3   OH232996   2.651   3.153   5.821
11018TIP3    H132997   2.698   3.153   5.904
11018TIP3    H232998   2.640   3.060   5.799
11019TIP3   OH232999   5.411   4.063   3.487
11019TIP3    H133000   5.413   4.035   3.579
11019TIP3    H233001   5.405   4.158   3.491
11020TIP3   OH233002   3.934   6.038   4.674
11020TIP3    H133003   3.842   6.062   4.684
11020TIP3    H233004   3.956   6.066   4.585
11021TIP3   OH233005   1.110   5.142   1.200
11021TIP3    H133006   1.055   5.084   1.147
11021TIP3    H233007   1.191   5.151   1.150
11022TIP3   OH233008   3.882   0.695   4.771
11022TIP3    H133009   3.830   0.775   4.783
11022TIP3    H233010   3.962   0.710   4.822
11023TIP3   OH233011   2.807   2.636   1.410
11023TIP3    H133012   2.724   2.659   1.451
11023TIP3    H233013   2.869   2.701   1.443
11024TIP3   OH233014   2.486   6.827   2.469
11024TIP3    H133015   2.519   6.825   2.379
11024TIP3    H233016   2.530   6.903   2.508
11025TIP3   OH233017   3.488   1.056   3.276
11025TIP3    H133018   3.577   1.090   3.275
11025TIP3    H233019   3.498   0.964   3.299
11026TIP3   OH233020   0.384   7.143   0.471
11026TIP3    H133021   0.387   7.047   0.476
11026TIP3    H233022   0.333   7.169   0.548
11027TIP3   OH233023   2.731   5.536   1.632
11027TIP3    H133024   2.768   5.596   1.567
11027TIP3    H233025   2.714   5.590   1.709
11028TIP3   OH233026   6.145   1.130   2.079
11028TIP3    H133027   6.132   1.042   2.043
11028TIP3    H233028   6.059   1.171   2.073
11029TIP3   OH233029   1.668   5.358   4.110
11029TIP3    H133030   1.663   5.277   4.058
11029TIP3    H233031   1.579   5.373   4.139
11030TIP3   OH233032   0.325   6.309   5.757
11030TIP3    H133033   0.295   6.314   5.667
11030TIP3    H233034   0.271   6.241   5.797
11031TIP3   OH233035   5.104   5.367   4.627
11031TIP3    H133036   5.091   5.459   4.651
11031TIP3    H233037   5.017   5.335   4.605
11032TIP3   OH233038   4.429   3.230   3.759
11032TIP3    H133039   4.520   3.204   3.745
11032TIP3    H233040   4.422   3.315   3.715
11033TIP3   OH233041   3.280   1.059   5.673
11033TIP3    H133042   3.300   0.981   5.724
11033TIP3    H233043   3.217   1.030   5.608
11034TIP3   OH233044   3.476   1.278   1.896
11034TIP3    H133045   3.404   1.312   1.844
11034TIP3    H233046   3.486   1.187   1.868
11035TIP3   OH233047   4.143   5.470   4.202
11035TIP3    H133048   4.085   5.486   4.277
11035TIP3    H233049   4.130   5.378   4.181
11036TIP3   OH233050   0.795   5.098   5.093
11036TIP3    H133051   0.742   5.033   5.140
11036TIP3    H233052   0.802   5.172   5.153
11037TIP3   OH233053   3.913   4.809   2.333
11037TIP3    H133054   3.832   4.764   2.311
11037TIP3    H233055   3.892   4.902   2.322
11038TIP3   OH233056   5.944   5.165   0.081
11038TIP3    H133057   5.851   5.153   0.062
11038TIP3    H233058   5.988   5.124   0.007
11039TIP3   OH233059   4.312   2.158   1.818
11039TIP3    H133060   4.391   2.105   1.822
11039TIP3    H233061   4.293   2.167   1.724
11040TIP3   OH233062   3.572   7.250   2.654
11040TIP3    H133063   3.667   7.253   2.662
11040TIP3    H233064   3.550   7.326   2.600
11041TIP3   OH233065   0.491   2.923   2.847
11041TIP3    H133066   0.465   3.012   2.868
11041TIP3    H233067   0.449   2.904   2.764
11042TIP3   OH233068   7.064   6.446   3.849
11042TIP3    H133069   7.152   6.407   3.853
11042TIP3    H233070   7.008   6.375   3.818
11043TIP3   OH233071   8.037   7.537   5.151
11043TIP3    H133072   8.071   7.488   5.225
11043TIP3    H233073   8.012   7.622   5.188
11044TIP3   OH233074   0.481   0.807   6.555
11044TIP3    H133075   0.501   0.899   6.572
11044TIP3    H233076   0.551   0.758   6.598
11045TIP3   OH233077   7.233   4.783   4.649
11045TIP3    H133078   7.208   4.693   4.627
11045TIP3    H233079   7.321   4.775   4.686
11046TIP3   OH233080   7.354   6.042   0.758
11046TIP3    H133081   7.334   6.025   0.850
11046TIP3    H233082   7.355   6.138   0.751
11047TIP3   OH233083   4.537   4.563   6.365
11047TIP3    H133084   4.509   4.492   6.307
11047TIP3    H233085   4.632   4.553   6.372
11048TIP3   OH233086   5.410   2.380   3.165
11048TIP3    H133087   5.369   2.465   3.178
11048TIP3    H233088   5.381   2.352   3.079
11049TIP3   OH233089   1.289   6.813   5.344
11049TIP3    H133090   1.289   6.899   5.386
11049TIP3    H233091   1.265   6.752   5.413
11050TIP3   OH233092   5.411   4.126   1.885
11050TIP3    H133093   5.459   4.206   1.909
11050TIP3    H233094   5.393   4.138   1.791
11051TIP3   OH233095   3.797   7.298   5.277
11051TIP3    H133096   3.705   7.317   5.296
11051TIP3    H233097   3.795   7.215   5.229
11052TIP3   OH233098   4.293   3.816   6.429
11052TIP3    H133099   4.292   3.859   6.514
11052TIP3    H233100   4.207   3.833   6.392
11053TIP3   OH233101   2.812   3.057   2.025
11053TIP3    H133102   2.858   3.139   2.045
11053TIP3    H233103   2.729   3.084   1.988
11054TIP3   OH233104   8.003   3.879   0.551
11054TIP3    H133105   8.048   3.820   0.611
11054TIP3    H233106   8.044   3.965   0.566
11055TIP3   OH233107   2.492   1.324   1.221
11055TIP3    H133108   2.427   1.272   1.174
11055TIP3    H233109   2.576   1.294   1.187
11056TIP3   OH233110   3.845   4.929   1.969
11056TIP3    H133111   3.927   4.974   1.992
11056TIP3    H233112   3.867   4.836   1.974
11057TIP3   OH233113   7.011   6.993   3.329
11057TIP3    H133114   6.962   6.968   3.251
11057TIP3    H233115   7.094   7.027   3.295
11058TIP3   OH233116   6.987   5.220   6.167
11058TIP3    H133117   6.909   5.264   6.132
11058TIP3    H233118   6.985   5.133   6.127
11059TIP3   OH233119   3.107   5.883   1.699
11059TIP3    H133120   3.129   5.792   1.718
11059TIP3    H233121   3.103   5.926   1.784
11060TIP3   OH233122   7.989   1.321   0.056
11060TIP3    H133123   7.954   1.410   0.058
11060TIP3    H233124   8.059   1.324  -0.009
11061TIP3   OH233125   7.784   3.653   3.141
11061TIP3    H133126   7.804   3.737   3.100
11061TIP3    H233127   7.690   3.642   3.128
11062TIP3   OH233128   6.974   6.034   2.100
11062TIP3    H133129   6.904   6.016   2.163
11062TIP3    H233130   6.971   6.129   2.088
11063TIP3   OH233131   4.181   3.473   3.658
11063TIP3    H133132   4.117   3.403   3.663
11063TIP3    H233133   4.184   3.496   3.565
11064TIP3   OH233134   4.721   0.125   2.480
11064TIP3    H133135   4.764   0.203   2.446
11064TIP3    H233136   4.653   0.105   2.416
11065TIP3   OH233137   4.973   1.852   2.746
11065TIP3    H133138   4.921   1.909   2.802
11065TIP3    H233139   5.061   1.854   2.784
11066TIP3   OH233140   5.266   7.821   4.159
11066TIP3    H133141   5.356   7.790   4.151
11066TIP3    H233142   5.234   7.828   4.068
11067TIP3   OH233143   3.032   4.511   5.872
11067TIP3    H133144   3.035   4.418   5.894
11067TIP3    H233145   2.968   4.548   5.932
11068TIP3   OH233146   8.218   0.693   0.190
11068TIP3    H133147   8.150   0.628   0.209
11068TIP3    H233148   8.239   0.679   0.098
11069TIP3   OH233149   0.455   5.856   2.732
11069TIP3    H133150   0.399   5.851   2.655
11069TIP3    H233151   0.393   5.861   2.805
11070TIP3   OH233152   6.040   4.745   1.479
11070TIP3    H133153   6.067   4.713   1.565
11070TIP3    H233154   6.121   4.745   1.427
11071TIP3   OH233155   5.262   6.668   4.563
11071TIP3    H133156   5.319   6.660   4.640
11071TIP3    H233157   5.259   6.580   4.526
11072TIP3   OH233158   4.470   0.974   4.553
11072TIP3    H133159   4.559   0.957   4.584
11072TIP3    H233160   4.468   1.068   4.538
11073TIP3   OH233161   1.463   3.657   1.202
11073TIP3    H133162   1.529   3.719   1.233
11073TIP3    H233163   1.503   3.571   1.216
11074TIP3   OH233164   2.686   1.091   3.035
11074TIP3    H133165   2.670   1.045   3.118
11074TIP3    H233166   2.707   1.181   3.061
11075TIP3   OH233167   0.485   7.716   0.386
11075TIP3    H133168   0.534   7.645   0.426
11075TIP3    H233169   0.444   7.762   0.459
11076TIP3   OH233170   6.156   4.613   3.006
11076TIP3    H133171   6.110   4.589   3.086
11076TIP3    H233172   6.193   4.699   3.025
11077TIP3   OH233173   0.790   7.760   4.610
11077TIP3    H133174   0.787   7.674   4.568
11077TIP3    H233175   0.762   7.821   4.541
11078TIP3   OH233176   6.099   7.281   5.383
11078TIP3    H133177   6.033   7.290   5.314
11078TIP3    H233178   6.136   7.193   5.369
11079TIP3   OH233179   2.730   4.907   0.033
11079TIP3    H133180   2.812   4.956   0.044
11079TIP3    H233181   2.704   4.925  -0.058
11080TIP3   OH233182   1.523   4.082   3.209
11080TIP3    H133183   1.535   4.049   3.120
11080TIP3    H233184   1.560   4.170   3.207
11081TIP3   OH233185   7.535   4.737   6.260
11081TIP3    H133186   7.595   4.775   6.324
11081TIP3    H233187   7.587   4.725   6.181
11082TIP3   OH233188   4.028   5.266   6.577
11082TIP3    H133189   3.939   5.296   6.561
11082TIP3    H233190   4.020   5.173   6.595
11083TIP3   OH233191   7.856   4.299   6.739
11083TIP3    H133192   7.780   4.255   6.775
11083TIP3    H233193   7.821   4.362   6.677
11084TIP3   OH233194   2.204   3.144   5.712
11084TIP3    H133195   2.231   3.080   5.647
11084TIP3    H233196   2.277   3.148   5.774
11085TIP3   OH233197   2.333   2.466   5.834
11085TIP3    H133198   2.366   2.378   5.817
11085TIP3    H233199   2.326   2.472   5.929
11086TIP3   OH233200   4.114   0.491   2.589
11086TIP3    H133201   4.171   0.551   2.542
11086TIP3    H233202   4.025   0.520   2.566
11087TIP3   OH233203   5.523   4.426   2.340
11087TIP3    H133204   5.564   4.495   2.287
11087TIP3    H233205   5.588   4.356   2.343
11088TIP3   OH233206   6.751   5.298   3.774
11088TIP3    H133207   6.687   5.326   3.709
11088TIP3    H233208   6.763   5.205   3.759
11089TIP3   OH233209   1.388   3.747   3.628
11089TIP3    H133210   1.315   3.806   3.607
11089TIP3    H233211   1.466   3.798   3.609
11090TIP3   OH233212   7.356   6.059   0.155
11090TIP3    H133213   7.265   6.084   0.166
11090TIP3    H233214   7.404   6.142   0.150
11091TIP3   OH233215   3.327   0.628   1.391
11091TIP3    H133216   3.263   0.697   1.411
11091TIP3    H233217   3.298   0.593   1.306
11092TIP3   OH233218   5.160   5.073   0.608
11092TIP3    H133219   5.203   5.157   0.589
11092TIP3    H233220   5.223   5.027   0.664
11093TIP3   OH233221   7.984   7.764   3.663
11093TIP3    H133222   7.963   7.826   3.594
11093TIP3    H233223   8.032   7.816   3.728
11094TIP3   OH233224   0.849   4.262   1.233
11094TIP3    H133225   0.897   4.344   1.218
11094TIP3    H233226   0.907   4.194   1.199
11095TIP3   OH233227   4.885   6.893   3.607
11095TIP3    H133228   4.808   6.846   3.641
11095TIP3    H233229   4.959   6.837   3.631
11096TIP3   OH233230   7.457   7.742   6.292
11096TIP3    H133231   7.497   7.695   6.219
11096TIP3    H233232   7.521   7.734   6.363
11097TIP3   OH233233   7.343   1.080   2.798
11097TIP3    H133234   7.410   1.147   2.781
11097TIP3    H233235   7.392   1.005   2.831
11098TIP3   OH233236   2.682   7.089   2.517
11098TIP3    H133237   2.735   7.014   2.491
11098TIP3    H233238   2.736   7.165   2.496
11099TIP3   OH233239   7.523   4.852   4.553
11099TIP3    H133240   7.464   4.893   4.616
11099TIP3    H233241   7.546   4.768   4.594
11100TIP3   OH233242   4.490   4.045   3.068
11100TIP3    H133243   4.420   4.110   3.058
11100TIP3    H233244   4.568   4.097   3.087
11101TIP3   OH233245   5.365   0.545   1.597
11101TIP3    H133246   5.376   0.551   1.692
11101TIP3    H233247   5.394   0.631   1.565
11102TIP3   OH233248   4.322   2.672   5.047
11102TIP3    H133249   4.361   2.633   5.125
11102TIP3    H233250   4.376   2.749   5.029
11103TIP3   OH233251   2.999   1.061   0.561
11103TIP3    H133252   2.944   1.129   0.600
11103TIP3    H233253   2.938   0.993   0.533
11104TIP3   OH233254   0.889   6.769   4.541
11104TIP3    H133255   0.859   6.825   4.613
11104TIP3    H233256   0.894   6.682   4.579
11105TIP3   OH233257   6.128   3.292   3.395
11105TIP3    H133258   6.061   3.231   3.427
11105TIP3    H233259   6.209   3.263   3.437
11106TIP3   OH233260   3.381   1.798   4.490
11106TIP3    H133261   3.442   1.836   4.553
11106TIP3    H233262   3.328   1.873   4.461
11107TIP3   OH233263   2.588   0.781   5.444
11107TIP3    H133264   2.682   0.785   5.462
11107TIP3    H233265   2.565   0.689   5.459
11108TIP3   OH233266   7.867   6.490   1.349
11108TIP3    H133267   7.798   6.463   1.410
11108TIP3    H233268   7.867   6.586   1.354
11109TIP3   OH233269   3.557   5.800   1.829
11109TIP3    H133270   3.480   5.745   1.844
11109TIP3    H233271   3.530   5.887   1.857
11110TIP3   OH233272   1.376   3.176   6.224
11110TIP3    H133273   1.430   3.231   6.281
11110TIP3    H233274   1.438   3.137   6.163
11111TIP3   OH233275   4.411   3.658   5.680
11111TIP3    H133276   4.359   3.703   5.614
11111TIP3    H233277   4.375   3.570   5.685
11112TIP3   OH233278   7.518   5.822   2.637
11112TIP3    H133279   7.459   5.827   2.562
11112TIP3    H233280   7.471   5.866   2.708
11113TIP3   OH233281   7.833   1.222   3.713
11113TIP3    H133282   7.908   1.194   3.767
11113TIP3    H233283   7.865   1.216   3.623
11114TIP3   OH233284   3.611   0.805   4.280
11114TIP3    H133285   3.584   0.897   4.285
11114TIP3    H233286   3.681   0.797   4.344
11115TIP3   OH233287   3.523   0.064   0.751
11115TIP3    H133288   3.561   0.017   0.825
11115TIP3    H233289   3.532   0.157   0.774
11116TIP3   OH233290   1.633   5.907   0.065
11116TIP3    H133291   1.686   5.890   0.142
11116TIP3    H233292   1.631   5.824   0.018
11117TIP3   OH233293   0.897   0.235   6.150
11117TIP3    H133294   0.865   0.317   6.188
11117TIP3    H233295   0.961   0.202   6.213
11118TIP3   OH233296   2.598   2.177   3.610
11118TIP3    H133297   2.595   2.114   3.539
11118TIP3    H233298   2.551   2.135   3.682
11119TIP3   OH233299   6.223   6.771   5.504
11119TIP3    H133300   6.197   6.719   5.428
11119TIP3    H233301   6.144   6.819   5.528
11120TIP3   OH233302   2.624   1.772   2.437
11120TIP3    H133303   2.532   1.756   2.416
11120TIP3    H233304   2.622   1.807   2.526
11121TIP3   OH233305   6.035   7.216   0.158
11121TIP3    H133306   6.067   7.228   0.069
11121TIP3    H233307   5.939   7.214   0.149
11122TIP3   OH233308   2.067   2.686   3.539
11122TIP3    H133309   2.159   2.681   3.513
11122TIP3    H233310   2.025   2.740   3.472
11123TIP3   OH233311   4.862   1.726   1.885
11123TIP3    H133312   4.925   1.668   1.843
11123TIP3    H233313   4.801   1.667   1.929
11124TIP3   OH233314   6.022   3.120   1.003
11124TIP3    H133315   5.993   3.086   1.088
11124TIP3    H233316   6.011   3.215   1.011
11125TIP3   OH233317   3.061   5.323   1.721
11125TIP3    H133318   2.983   5.325   1.778
11125TIP3    H233319   3.038   5.263   1.650
11126TIP3   OH233320   5.830   5.421   5.938
11126TIP3    H133321   5.773   5.491   5.971
11126TIP3    H233322   5.905   5.466   5.901
11127TIP3   OH233323   8.038   0.788   2.566
11127TIP3    H133324   7.975   0.860   2.563
11127TIP3    H233325   8.037   0.759   2.657
11128TIP3   OH233326   0.599   2.308   0.727
11128TIP3    H133327   0.661   2.239   0.751
11128TIP3    H233328   0.562   2.280   0.643
11129TIP3   OH233329   4.412   0.421   5.099
11129TIP3    H133330   4.423   0.510   5.065
11129TIP3    H233331   4.352   0.379   5.038
11130TIP3   OH233332   1.640   0.645   2.012
11130TIP3    H133333   1.553   0.658   1.974
11130TIP3    H233334   1.667   0.559   1.980
11131TIP3   OH233335   4.776   6.968   1.347
11131TIP3    H133336   4.797   7.018   1.426
11131TIP3    H233337   4.806   6.879   1.366
11132TIP3   OH233338   1.560   2.174   2.013
11132TIP3    H133339   1.589   2.185   1.922
11132TIP3    H233340   1.493   2.240   2.025
11133TIP3   OH233341   7.407   1.444   2.464
11133TIP3    H133342   7.341   1.513   2.468
11133TIP3    H233343   7.482   1.485   2.420
11134TIP3   OH233344   5.185   1.128   0.931
11134TIP3    H133345   5.092   1.145   0.944
11134TIP3    H233346   5.220   1.209   0.895
11135TIP3   OH233347   4.141   6.642   4.502
11135TIP3    H133348   4.130   6.550   4.526
11135TIP3    H233349   4.181   6.641   4.416
11136TIP3   OH233350   2.320   5.646   2.988
11136TIP3    H133351   2.410   5.612   2.991
11136TIP3    H233352   2.321   5.709   2.915
11137TIP3   OH233353   1.908   5.486   5.292
11137TIP3    H133354   1.856   5.517   5.366
11137TIP3    H233355   1.843   5.455   5.228
11138TIP3   OH233356   5.241   4.593   3.045
11138TIP3    H133357   5.236   4.655   2.972
11138TIP3    H233358   5.164   4.614   3.099
11139TIP3   OH233359   1.270  -0.029   2.570
11139TIP3    H133360   1.238   0.044   2.518
11139TIP3    H233361   1.235  -0.013   2.658
11140TIP3   OH233362   7.249   0.339   0.772
11140TIP3    H133363   7.276   0.288   0.848
11140TIP3    H233364   7.326   0.340   0.715
11141TIP3   OH233365   1.134   4.523   3.408
11141TIP3    H133366   1.044   4.543   3.431
11141TIP3    H233367   1.162   4.597   3.354
11142TIP3   OH233368   0.451   5.715   0.298
11142TIP3    H133369   0.422   5.706   0.207
11142TIP3    H233370   0.406   5.645   0.345
11143TIP3   OH233371   5.971   3.526   1.287
11143TIP3    H133372   5.881   3.496   1.288
11143TIP3    H233373   5.986   3.561   1.376
11144TIP3   OH233374   1.180   1.005   2.045
11144TIP3    H133375   1.085   0.995   2.046
11144TIP3    H233376   1.209   0.951   1.971
11145TIP3   OH233377   7.598   3.069   2.579
11145TIP3    H133378   7.620   3.132   2.510
11145TIP3    H233379   7.672   3.073   2.639
11146TIP3   OH233380   6.798  -0.011   4.864
11146TIP3    H133381   6.845   0.019   4.786
11146TIP3    H233382   6.835   0.040   4.936
11147TIP3   OH233383   4.398   4.118   4.095
11147TIP3    H133384   4.448   4.039   4.117
11147TIP3    H233385   4.464   4.186   4.083
11148TIP3   OH233386   1.777   3.101   2.184
11148TIP3    H133387   1.776   3.079   2.277
11148TIP3    H233388   1.684   3.105   2.160
11149TIP3   OH233389   0.714   2.621   3.885
11149TIP3    H133390   0.787   2.570   3.851
11149TIP3    H233391   0.705   2.593   3.976
11150TIP3   OH233392   7.725   3.872   1.150
11150TIP3    H133393   7.657   3.890   1.086
11150TIP3    H233394   7.805   3.906   1.110
11151TIP3   OH233395   5.877   6.997   2.967
11151TIP3    H133396   5.797   7.040   2.937
11151TIP3    H233397   5.881   7.018   3.060
11152TIP3   OH233398   4.522   7.246   5.605
11152TIP3    H133399   4.445   7.302   5.592
11152TIP3    H233400   4.496   7.187   5.676
11153TIP3   OH233401   7.038   0.538   3.707
11153TIP3    H133402   6.943   0.537   3.718
11153TIP3    H233403   7.052   0.581   3.623
11154TIP3   OH233404  -0.024   6.127   2.709
11154TIP3    H133405   0.028   6.069   2.765
11154TIP3    H233406   0.040   6.172   2.655
11155TIP3   OH233407   7.024   4.526   2.440
11155TIP3    H133408   7.036   4.449   2.496
11155TIP3    H233409   6.989   4.490   2.359
11156TIP3   OH233410   1.496   0.109   6.749
11156TIP3    H133411   1.438   0.178   6.780
11156TIP3    H233412   1.467   0.092   6.659
11157TIP3   OH233413   5.270   0.359   0.236
11157TIP3    H133414   5.347   0.314   0.201
11157TIP3    H233415   5.217   0.379   0.158
11158TIP3   OH233416   1.117   5.499   1.516
11158TIP3    H133417   1.149   5.495   1.427
11158TIP3    H233418   1.159   5.426   1.561
11159TIP3   OH233419   3.062   6.320   3.675
11159TIP3    H133420   3.073   6.360   3.589
11159TIP3    H233421   2.999   6.376   3.721
11160TIP3   OH233422   0.293   2.132   3.754
11160TIP3    H133423   0.213   2.115   3.803
11160TIP3    H233424   0.348   2.056   3.769
11161TIP3   OH233425   1.770   3.198   6.577
11161TIP3    H133426   1.791   3.105   6.567
11161TIP3    H233427   1.760   3.211   6.671
11162TIP3   OH233428   7.089   5.943   1.591
11162TIP3    H133429   7.117   5.871   1.648
11162TIP3    H233430   7.166   5.999   1.583
11163TIP3   OH233431   8.093   1.654   3.461
11163TIP3    H133432   8.026   1.627   3.525
11163TIP3    H233433   8.176   1.629   3.501
11164TIP3   OH233434   4.254   4.812   1.988
11164TIP3    H133435   4.330   4.811   2.046
11164TIP3    H233436   4.182   4.839   2.044
11165TIP3   OH233437   7.677   3.198   6.596
11165TIP3    H133438   7.622   3.249   6.656
11165TIP3    H233439   7.754   3.175   6.648
11166TIP3   OH233440   2.999   4.124   4.603
11166TIP3    H133441   2.987   4.201   4.659
11166TIP3    H233442   3.074   4.078   4.640
11167TIP3   OH233443   2.898   1.775   0.508
11167TIP3    H133444   2.907   1.686   0.543
11167TIP3    H233445   2.882   1.763   0.414
11168TIP3   OH233446   8.142   6.656   5.966
11168TIP3    H133447   8.149   6.561   5.974
11168TIP3    H233448   8.106   6.685   6.050
11169TIP3   OH233449   8.075   7.395   5.948
11169TIP3    H133450   8.037   7.346   5.875
11169TIP3    H233451   8.137   7.456   5.906
11170TIP3   OH233452   6.015   6.522   3.758
11170TIP3    H133453   6.038   6.525   3.851
11170TIP3    H233454   6.091   6.481   3.717
11171TIP3   OH233455   5.403   0.479   0.794
11171TIP3    H133456   5.367   0.556   0.839
11171TIP3    H233457   5.385   0.406   0.852
11172TIP3   OH233458   5.056   7.009   4.000
11172TIP3    H133459   5.050   7.037   4.091
11172TIP3    H233460   4.990   7.061   3.955
11173TIP3   OH233461   2.641   7.709   3.928
11173TIP3    H133462   2.636   7.745   3.839
11173TIP3    H233463   2.713   7.646   3.925
11174TIP3   OH233464   0.047   0.117   4.416
11174TIP3    H133465   0.141   0.103   4.404
11174TIP3    H233466   0.014   0.138   4.329
11175TIP3   OH233467   2.282   3.989   6.520
11175TIP3    H133468   2.302   4.003   6.427
11175TIP3    H233469   2.195   4.028   6.532
11176TIP3   OH233470   7.632   3.948   1.796
11176TIP3    H133471   7.604   4.015   1.733
11176TIP3    H233472   7.580   3.871   1.774
11177TIP3   OH233473   3.207   2.893   1.318
11177TIP3    H133474   3.289   2.893   1.368
11177TIP3    H233475   3.202   2.805   1.281
11178TIP3   OH233476   4.277   3.956   3.311
11178TIP3    H133477   4.287   4.025   3.376
11178TIP3    H233478   4.366   3.928   3.292
11179TIP3   OH233479   1.739   3.522   1.491
11179TIP3    H133480   1.674   3.591   1.479
11179TIP3    H233481   1.793   3.526   1.412
11180TIP3   OH233482   0.486   4.121   1.782
11180TIP3    H133483   0.472   4.056   1.851
11180TIP3    H233484   0.398   4.149   1.757
11181TIP3   OH233485   2.101   5.512   4.898
11181TIP3    H133486   2.167   5.574   4.867
11181TIP3    H233487   2.113   5.435   4.843
11182TIP3   OH233488   4.909   6.670   6.397
11182TIP3    H133489   4.824   6.631   6.419
11182TIP3    H233490   4.941   6.617   6.324
11183TIP3   OH233491   2.520   1.393   5.387
11183TIP3    H133492   2.441   1.345   5.414
11183TIP3    H233493   2.592   1.333   5.404
11184TIP3   OH233494   2.607   7.210   0.570
11184TIP3    H133495   2.667   7.258   0.513
11184TIP3    H233496   2.531   7.268   0.578
11185TIP3   OH233497   3.304   4.121   3.865
11185TIP3    H133498   3.259   4.049   3.908
11185TIP3    H233499   3.269   4.122   3.776
11186TIP3   OH233500   4.375   4.427   4.187
11186TIP3    H133501   4.330   4.408   4.105
11186TIP3    H233502   4.343   4.513   4.213
11187TIP3   OH233503   3.243   2.188   3.290
11187TIP3    H133504   3.312   2.138   3.248
11187TIP3    H233505   3.214   2.134   3.363
11188TIP3   OH233506   3.129   5.878   2.630
11188TIP3    H133507   3.074   5.875   2.708
11188TIP3    H233508   3.097   5.806   2.576
11189TIP3   OH233509   5.893   6.820   5.525
11189TIP3    H133510   5.905   6.911   5.553
11189TIP3    H233511   5.876   6.827   5.431
11190TIP3   OH233512   1.429   3.002   6.660
11190TIP3    H133513   1.442   3.012   6.565
11190TIP3    H233514   1.351   3.054   6.679
11191TIP3   OH233515   3.713   3.622   2.859
11191TIP3    H133516   3.628   3.578   2.860
11191TIP3    H233517   3.724   3.650   2.767
11192TIP3   OH233518   4.640   7.007   0.171
11192TIP3    H133519   4.650   6.936   0.234
11192TIP3    H233520   4.580   6.973   0.105
11193TIP3   OH233521   5.318   0.227   1.575
11193TIP3    H133522   5.288   0.295   1.516
11193TIP3    H233523   5.289   0.145   1.535
11194TIP3   OH233524   0.918   4.153   3.265
11194TIP3    H133525   1.003   4.190   3.288
11194TIP3    H233526   0.935   4.103   3.185
11195TIP3   OH233527   0.621   4.092   0.756
11195TIP3    H133528   0.626   4.152   0.682
11195TIP3    H233529   0.558   4.025   0.729
11196TIP3   OH233530   6.720   6.179   3.382
11196TIP3    H133531   6.642   6.225   3.350
11196TIP3    H233532   6.687   6.108   3.437
11197TIP3   OH233533   6.132   3.567   3.340
11197TIP3    H133534   6.054   3.531   3.382
11197TIP3    H233535   6.205   3.527   3.387
11198TIP3   OH233536   6.448   3.873   1.875
11198TIP3    H133537   6.456   3.894   1.968
11198TIP3    H233538   6.484   3.950   1.830
11199TIP3   OH233539   0.645   0.457   4.662
11199TIP3    H133540   0.686   0.513   4.596
11199TIP3    H233541   0.636   0.372   4.619
11200TIP3   OH233542   4.115   0.073   0.398
11200TIP3    H133543   4.142  -0.003   0.346
11200TIP3    H233544   4.197   0.116   0.421
11201TIP3   OH233545   2.283   4.063   5.564
11201TIP3    H133546   2.234   4.049   5.645
11201TIP3    H233547   2.301   3.975   5.531
11202TIP3   OH233548   2.047   7.000   3.671
11202TIP3    H133549   2.138   7.030   3.660
11202TIP3    H233550   2.041   6.974   3.763
11203TIP3   OH233551   5.550   3.250   0.542
11203TIP3    H133552   5.640   3.267   0.567
11203TIP3    H233553   5.537   3.301   0.463
11204TIP3   OH233554   0.087   6.895   6.473
11204TIP3    H133555   0.126   6.981   6.459
11204TIP3    H233556  -0.007   6.909   6.470
11205TIP3   OH233557   3.766   2.122   0.894
11205TIP3    H133558   3.740   2.203   0.849
11205TIP3    H233559   3.803   2.152   0.977
11206TIP3   OH233560   4.851   0.222   3.891
11206TIP3    H133561   4.916   0.161   3.857
11206TIP3    H233562   4.775   0.210   3.834
11207TIP3   OH233563   0.208   4.747   6.497
11207TIP3    H133564   0.121   4.751   6.457
11207TIP3    H233565   0.197   4.787   6.583
11208TIP3   OH233566   4.692   1.325   6.018
11208TIP3    H133567   4.626   1.315   5.949
11208TIP3    H233568   4.767   1.274   5.988
11209TIP3   OH233569   2.990   3.052   4.451
11209TIP3    H133570   2.908   3.012   4.422
11209TIP3    H233571   3.008   3.120   4.386
11210TIP3   OH233572   4.791   2.034   1.439
11210TIP3    H133573   4.766   2.045   1.347
11210TIP3    H233574   4.796   1.939   1.451
11211TIP3   OH233575   0.905   4.825   0.644
11211TIP3    H133576   0.897   4.916   0.675
11211TIP3    H233577   0.820   4.805   0.606
11212TIP3   OH233578   4.477   6.382   1.269
11212TIP3    H133579   4.477   6.301   1.321
11212TIP3    H233580   4.474   6.352   1.178
11213TIP3   OH233581   1.678   6.117   4.590
11213TIP3    H133582   1.732   6.072   4.525
11213TIP3    H233583   1.599   6.143   4.542
11214TIP3   OH233584   5.002   7.450   4.967
11214TIP3    H133585   4.997   7.446   4.871
11214TIP3    H233586   4.970   7.365   4.997
11215TIP3   OH233587   0.760   0.560   1.873
11215TIP3    H133588   0.722   0.508   1.803
11215TIP3    H233589   0.688   0.577   1.933
11216TIP3   OH233590   4.974   7.529   2.935
11216TIP3    H133591   5.004   7.510   2.846
11216TIP3    H233592   4.904   7.465   2.951
11217TIP3   OH233593   5.462   1.260   4.692
11217TIP3    H133594   5.443   1.351   4.673
11217TIP3    H233595   5.402   1.238   4.764
11218TIP3   OH233596   6.859   7.649   2.874
11218TIP3    H133597   6.895   7.737   2.864
11218TIP3    H233598   6.917   7.593   2.822
11219TIP3   OH233599   4.450   2.421   6.575
11219TIP3    H133600   4.530   2.428   6.627
11219TIP3    H233601   4.481   2.409   6.485
11220TIP3   OH233602   4.779   4.560   6.534
11220TIP3    H133603   4.775   4.534   6.626
11220TIP3    H233604   4.826   4.488   6.491
11221TIP3   OH233605   6.100   7.688   0.017
11221TIP3    H133606   6.097   7.646   0.103
11221TIP3    H233607   6.145   7.625  -0.039
11222TIP3   OH233608   1.668   2.515   5.116
11222TIP3    H133609   1.703   2.451   5.055
11222TIP3    H233610   1.591   2.551   5.072
11223TIP3   OH233611   3.541   6.615   0.698
11223TIP3    H133612   3.499   6.672   0.634
11223TIP3    H233613   3.633   6.614   0.672
11224TIP3   OH233614   6.766   0.630   6.149
11224TIP3    H133615   6.687   0.580   6.168
11224TIP3    H233616   6.816   0.574   6.089
11225TIP3   OH233617   6.549   6.924   0.655
11225TIP3    H133618   6.557   6.836   0.691
11225TIP3    H233619   6.488   6.915   0.582
11226TIP3   OH233620   4.037  -0.008   2.974
11226TIP3    H133621   4.098  -0.004   3.047
11226TIP3    H233622   4.089   0.021   2.898
11227TIP3   OH233623   3.849   5.625   3.420
11227TIP3    H133624   3.782   5.613   3.487
11227TIP3    H233625   3.875   5.536   3.395
11228TIP3   OH233626   8.033   3.684   2.510
11228TIP3    H133627   8.020   3.593   2.537
11228TIP3    H233628   8.120   3.684   2.470
11229TIP3   OH233629   6.021   1.043   4.578
11229TIP3    H133630   6.086   0.989   4.533
11229TIP3    H233631   6.026   1.128   4.534
11230TIP3   OH233632   5.255   6.345   2.674
11230TIP3    H133633   5.335   6.306   2.709
11230TIP3    H233634   5.204   6.369   2.751
11231TIP3   OH233635   5.137   6.090   1.882
11231TIP3    H133636   5.187   6.157   1.835
11231TIP3    H233637   5.151   6.010   1.831
11232TIP3   OH233638   0.343   6.491   6.407
11232TIP3    H133639   0.277   6.431   6.374
11232TIP3    H233640   0.380   6.447   6.484
11233TIP3   OH233641   1.860   1.946   4.867
11233TIP3    H133642   1.923   1.906   4.927
11233TIP3    H233643   1.914   1.998   4.806
11234TIP3   OH233644   7.857   7.449   1.546
11234TIP3    H133645   7.857   7.469   1.640
11234TIP3    H233646   7.935   7.396   1.533
11235TIP3   OH233647   1.188   7.279   4.633
11235TIP3    H133648   1.284   7.274   4.635
11235TIP3    H233649   1.167   7.293   4.540
11236TIP3   OH233650   1.857   3.776   4.065
11236TIP3    H133651   1.832   3.762   4.157
11236TIP3    H233652   1.823   3.863   4.045
11237TIP3   OH233653   3.081   7.232   3.031
11237TIP3    H133654   3.126   7.181   3.098
11237TIP3    H233655   2.995   7.190   3.021
11238TIP3   OH233656   2.671   0.230   1.901
11238TIP3    H133657   2.740   0.163   1.902
11238TIP3    H233658   2.590   0.180   1.895
11239TIP3   OH233659   3.863   7.452   0.491
11239TIP3    H133660   3.788   7.453   0.431
11239TIP3    H233661   3.823   7.449   0.578
11240TIP3   OH233662   1.105   7.459   1.031
11240TIP3    H133663   1.026   7.495   1.071
11240TIP3    H233664   1.086   7.457   0.937
11241TIP3   OH233665   6.967   1.417   1.235
11241TIP3    H133666   7.000   1.364   1.306
11241TIP3    H233667   6.959   1.357   1.161
11242TIP3   OH233668   2.346   0.144   0.341
11242TIP3    H133669   2.365   0.233   0.371
11242TIP3    H233670   2.350   0.091   0.421
11243TIP3   OH233671   2.233   2.382   5.157
11243TIP3    H133672   2.204   2.458   5.108
11243TIP3    H233673   2.306   2.414   5.210
11244TIP3   OH233674   0.316   6.161   1.992
11244TIP3    H133675   0.252   6.191   1.927
11244TIP3    H233676   0.326   6.068   1.974
11245TIP3   OH233677   8.010   0.238   5.995
11245TIP3    H133678   7.991   0.180   6.069
11245TIP3    H233679   8.072   0.301   6.030
11246TIP3   OH233680   5.678   2.972   3.366
11246TIP3    H133681   5.655   3.012   3.282
11246TIP3    H233682   5.597   2.973   3.416
11247TIP3   OH233683   5.055  -0.013   2.504
11247TIP3    H133684   5.014   0.069   2.532
11247TIP3    H233685   5.133  -0.021   2.559
11248TIP3   OH233686   2.105   6.431   5.435
11248TIP3    H133687   2.193   6.464   5.450
11248TIP3    H233688   2.071   6.413   5.523
11249TIP3   OH233689   4.330   3.712   4.450
11249TIP3    H133690   4.335   3.696   4.544
11249TIP3    H233691   4.401   3.775   4.434
11250TIP3   OH233692   2.691   6.979   5.162
11250TIP3    H133693   2.669   6.887   5.145
11250TIP3    H233694   2.626   7.008   5.226
11251TIP3   OH233695   3.337   6.416   5.232
11251TIP3    H133696   3.284   6.340   5.206
11251TIP3    H233697   3.400   6.381   5.294
11252TIP3   OH233698   4.400   3.499   0.167
11252TIP3    H133699   4.390   3.537   0.254
11252TIP3    H233700   4.361   3.563   0.108
11253TIP3   OH233701   5.964   1.956   0.075
11253TIP3    H133702   5.870   1.972   0.070
11253TIP3    H233703   5.972   1.861   0.066
11254TIP3   OH233704   3.448   3.733   2.599
11254TIP3    H133705   3.437   3.696   2.686
11254TIP3    H233706   3.359   3.740   2.565
11255TIP3   OH233707   7.363   7.288   4.753
11255TIP3    H133708   7.284   7.246   4.719
11255TIP3    H233709   7.406   7.220   4.805
11256TIP3   OH233710   4.024   2.386   3.824
11256TIP3    H133711   4.061   2.322   3.885
11256TIP3    H233712   4.012   2.338   3.743
11257TIP3   OH233713   0.003   7.516   1.977
11257TIP3    H133714  -0.024   7.511   1.886
11257TIP3    H233715   0.099   7.524   1.973
11258TIP3   OH233716   2.445   3.702   0.538
11258TIP3    H133717   2.533   3.723   0.569
11258TIP3    H233718   2.448   3.722   0.444
11259TIP3   OH233719   1.174   3.379   2.583
11259TIP3    H133720   1.224   3.347   2.658
11259TIP3    H233721   1.153   3.470   2.605
11260TIP3   OH233722   7.359   4.100   5.457
11260TIP3    H133723   7.440   4.065   5.419
11260TIP3    H233724   7.339   4.041   5.529
11261TIP3   OH233725   0.427   7.437   4.705
11261TIP3    H133726   0.432   7.510   4.642
11261TIP3    H233727   0.365   7.467   4.771
11262TIP3   OH233728   0.969   3.075   5.490
11262TIP3    H133729   1.039   3.112   5.544
11262TIP3    H233730   0.990   2.982   5.484
11263TIP3   OH233731   5.256   3.369   0.029
11263TIP3    H133732   5.303   3.446   0.060
11263TIP3    H233733   5.194   3.404  -0.036
11264TIP3   OH233734   5.973   2.372   1.697
11264TIP3    H133735   6.054   2.330   1.671
11264TIP3    H233736   5.995   2.465   1.701
11265TIP3   OH233737   4.962   6.222   2.678
11265TIP3    H133738   4.879   6.175   2.678
11265TIP3    H233739   4.998   6.208   2.591
11266TIP3   OH233740   0.319   0.607   1.836
11266TIP3    H133741   0.395   0.625   1.781
11266TIP3    H233742   0.271   0.539   1.789
11267TIP3   OH233743   6.393   0.137   0.458
11267TIP3    H133744   6.343   0.143   0.539
11267TIP3    H233745   6.449   0.214   0.459
11268TIP3   OH233746   7.367   3.176   5.286
11268TIP3    H133747   7.444   3.212   5.242
11268TIP3    H233748   7.375   3.081   5.274
11269TIP3   OH233749   7.475   4.668   5.206
11269TIP3    H133750   7.405   4.733   5.219
11269TIP3    H233751   7.430   4.587   5.183
11270TIP3   OH233752   0.446   4.536   1.647
11270TIP3    H133753   0.432   4.587   1.566
11270TIP3    H233754   0.531   4.566   1.679
11271TIP3   OH233755   5.728   2.267   5.267
11271TIP3    H133756   5.783   2.298   5.339
11271TIP3    H233757   5.713   2.174   5.285
11272TIP3   OH233758   1.784   5.439   6.338
11272TIP3    H133759   1.712   5.390   6.299
11272TIP3    H233760   1.827   5.483   6.265
11273TIP3   OH233761   7.361   1.857   2.477
11273TIP3    H133762   7.358   1.950   2.498
11273TIP3    H233763   7.288   1.844   2.416
11274TIP3   OH233764   6.866   4.596   4.510
11274TIP3    H133765   6.799   4.535   4.479
11274TIP3    H233766   6.868   4.583   4.605
11275TIP3   OH233767   6.538   7.484   4.701
11275TIP3    H133768   6.584   7.419   4.755
11275TIP3    H233769   6.607   7.534   4.659
11276TIP3   OH233770   1.250   5.647   0.923
11276TIP3    H133771   1.333   5.635   0.968
11276TIP3    H233772   1.257   5.733   0.881
11277TIP3   OH233773   0.914   0.347   0.846
11277TIP3    H133774   0.994   0.335   0.796
11277TIP3    H233775   0.844   0.340   0.781
11278TIP3   OH233776   8.201   1.288   1.846
11278TIP3    H133777   8.270   1.223   1.866
11278TIP3    H233778   8.217   1.312   1.755
11279TIP3   OH233779   4.522   7.256   2.970
11279TIP3    H133780   4.456   7.299   3.025
11279TIP3    H233781   4.542   7.175   3.016
11280TIP3   OH233782   1.726   5.155   4.580
11280TIP3    H133783   1.715   5.240   4.624
11280TIP3    H233784   1.761   5.177   4.494
11281TIP3   OH233785   1.243   2.689   3.198
11281TIP3    H133786   1.224   2.735   3.280
11281TIP3    H233787   1.245   2.758   3.132
11282TIP3   OH233788   1.160   7.294   5.149
11282TIP3    H133789   1.176   7.284   5.243
11282TIP3    H233790   1.163   7.388   5.133
11283TIP3   OH233791   7.438   4.082   6.143
11283TIP3    H133792   7.442   3.999   6.191
11283TIP3    H233793   7.381   4.064   6.069
11284TIP3   OH233794   2.839   7.496   4.151
11284TIP3    H133795   2.821   7.534   4.237
11284TIP3    H233796   2.935   7.494   4.146
11285TIP3   OH233797   1.569   1.540   1.372
11285TIP3    H133798   1.506   1.470   1.351
11285TIP3    H233799   1.517   1.604   1.421
11286TIP3   OH233800   3.586   5.502   0.465
11286TIP3    H133801   3.608   5.593   0.444
11286TIP3    H233802   3.495   5.492   0.437
11287TIP3   OH233803   6.195   2.605   3.115
11287TIP3    H133804   6.260   2.604   3.045
11287TIP3    H233805   6.222   2.677   3.172
11288TIP3   OH233806   1.155   3.478   3.362
11288TIP3    H133807   1.169   3.452   3.453
11288TIP3    H233808   1.089   3.417   3.329
11289TIP3   OH233809   0.561   4.886   6.545
11289TIP3    H133810   0.528   4.804   6.583
11289TIP3    H233811   0.631   4.858   6.486
11290TIP3   OH233812   5.355   7.474   0.996
11290TIP3    H133813   5.298   7.517   0.932
11290TIP3    H233814   5.342   7.380   0.980
11291TIP3   OH233815   6.176   3.338   4.920
11291TIP3    H133816   6.163   3.419   4.871
11291TIP3    H233817   6.264   3.309   4.894
11292TIP3   OH233818   0.741   1.050   4.887
11292TIP3    H133819   0.815   0.998   4.917
11292TIP3    H233820   0.668   0.988   4.885
11293TIP3   OH233821   4.435   1.094   1.859
11293TIP3    H133822   4.417   1.006   1.824
11293TIP3    H233823   4.353   1.121   1.900
11294TIP3   OH233824   4.157   4.887   0.997
11294TIP3    H133825   4.086   4.826   0.975
11294TIP3    H233826   4.126   4.932   1.076
11295TIP3   OH233827   4.627   7.683   1.611
11295TIP3    H133828   4.690   7.617   1.585
11295TIP3    H233829   4.680   7.754   1.647
11296TIP3   OH233830   5.230   2.216   4.237
11296TIP3    H133831   5.273   2.170   4.165
11296TIP3    H233832   5.303   2.256   4.286
11297TIP3   OH233833   0.460   1.468   6.543
11297TIP3    H133834   0.473   1.383   6.585
11297TIP3    H233835   0.516   1.527   6.593
11298TIP3   OH233836   2.624   0.219   1.028
11298TIP3    H133837   2.551   0.279   1.042
11298TIP3    H233838   2.584   0.132   1.037
11299TIP3   OH233839   2.432   3.738   0.035
11299TIP3    H133840   2.371   3.745   0.109
11299TIP3    H233841   2.439   3.644   0.018
11300TIP3   OH233842   6.951   7.561   6.679
11300TIP3    H133843   6.920   7.572   6.589
11300TIP3    H233844   7.040   7.596   6.679
11301TIP3   OH233845   6.734   7.562   2.202
11301TIP3    H133846   6.752   7.648   2.240
11301TIP3    H233847   6.796   7.503   2.244
11302TIP3   OH233848   2.654   6.962   0.452
11302TIP3    H133849   2.613   7.032   0.503
11302TIP3    H233850   2.745   6.960   0.483
11303TIP3   OH233851   5.624  -0.004   0.479
11303TIP3    H133852   5.701   0.049   0.460
11303TIP3    H233853   5.583   0.041   0.553
11304TIP3   OH233854   3.618   4.016   3.395
11304TIP3    H133855   3.660   4.007   3.480
11304TIP3    H233856   3.558   4.090   3.405
11305TIP3   OH233857   6.106   2.288   3.967
11305TIP3    H133858   6.170   2.353   3.996
11305TIP3    H233859   6.108   2.292   3.872
11306TIP3   OH233860   2.903   4.040   2.675
11306TIP3    H133861   2.824   4.083   2.641
11306TIP3    H233862   2.870   3.962   2.720
11307TIP3   OH233863   3.826   7.098   2.481
11307TIP3    H133864   3.764   7.026   2.493
11307TIP3    H233865   3.782   7.157   2.419
11308TIP3   OH233866   0.323   3.862   6.175
11308TIP3    H133867   0.310   3.932   6.239
11308TIP3    H233868   0.268   3.886   6.101
11309TIP3   OH233869   0.122   6.237   2.531
11309TIP3    H133870   0.160   6.214   2.446
11309TIP3    H233871   0.151   6.327   2.547
11310TIP3   OH233872   6.462   2.928   1.721
11310TIP3    H133873   6.416   2.938   1.637
11310TIP3    H233874   6.395   2.945   1.787
11311TIP3   OH233875   4.217   5.688   3.537
11311TIP3    H133876   4.256   5.612   3.495
11311TIP3    H233877   4.277   5.711   3.607
11312TIP3   OH233878   6.396   5.785   6.349
11312TIP3    H133879   6.321   5.760   6.404
11312TIP3    H233880   6.366   5.769   6.259
11313TIP3   OH233881   3.690   1.598   0.885
11313TIP3    H133882   3.647   1.611   0.801
11313TIP3    H233883   3.636   1.647   0.947
11314TIP3   OH233884   1.977   0.578   6.328
11314TIP3    H133885   1.922   0.651   6.299
11314TIP3    H233886   1.916   0.505   6.341
11315TIP3   OH233887   7.185   3.098   5.849
11315TIP3    H133888   7.220   3.176   5.805
11315TIP3    H233889   7.184   3.123   5.942
11316TIP3   OH233890   0.384   5.094   2.274
11316TIP3    H133891   0.357   5.058   2.190
11316TIP3    H233892   0.332   5.045   2.338
11317TIP3   OH233893   4.915   2.972   3.805
11317TIP3    H133894   4.868   3.032   3.748
11317TIP3    H233895   4.851   2.904   3.826
11318TIP3   OH233896   5.669   3.831   1.667
11318TIP3    H133897   5.735   3.766   1.692
11318TIP3    H233898   5.608   3.783   1.612
11319TIP3   OH233899   4.705   4.829   2.890
11319TIP3    H133900   4.784   4.873   2.860
11319TIP3    H233901   4.719   4.813   2.983
11320TIP3   OH233902   2.116   0.150   1.956
11320TIP3    H133903   2.136   0.060   1.981
11320TIP3    H233904   2.171   0.204   2.013
11321TIP3   OH233905   5.249   4.821   5.845
11321TIP3    H133906   5.245   4.824   5.941
11321TIP3    H233907   5.324   4.877   5.823
11322TIP3   OH233908   5.637   3.302   0.222
11322TIP3    H133909   5.628   3.394   0.196
11322TIP3    H233910   5.590   3.254   0.154
11323TIP3   OH233911   5.957   7.023   3.990
11323TIP3    H133912   5.863   7.033   3.974
11323TIP3    H233913   5.967   7.034   4.084
11324TIP3   OH233914   2.827   6.981   6.067
11324TIP3    H133915   2.842   6.957   5.975
11324TIP3    H233916   2.734   7.005   6.071
11325TIP3   OH233917   6.285   6.506   0.638
11325TIP3    H133918   6.330   6.421   0.641
11325TIP3    H233919   6.264   6.520   0.546
11326TIP3   OH233920   4.979   0.561   2.453
11326TIP3    H133921   4.924   0.572   2.531
11326TIP3    H233922   4.918   0.542   2.383
11327TIP3   OH233923   0.384   2.690   6.273
11327TIP3    H133924   0.424   2.776   6.262
11327TIP3    H233925   0.405   2.642   6.193
11328TIP3   OH233926   2.496   6.351   1.340
11328TIP3    H133927   2.574   6.393   1.303
11328TIP3    H233928   2.484   6.272   1.287
11329TIP3   OH233929   6.978   1.202   4.174
11329TIP3    H133930   6.977   1.278   4.117
11329TIP3    H233931   7.008   1.235   4.259
11330TIP3   OH233932   4.431   6.659   1.307
11330TIP3    H133933   4.478   6.693   1.231
11330TIP3    H233934   4.446   6.565   1.304
11331TIP3   OH233935   7.388   7.696   2.433
11331TIP3    H133936   7.354   7.731   2.516
11331TIP3    H233937   7.469   7.651   2.457
11332TIP3   OH233938   3.442   5.356   0.678
11332TIP3    H133939   3.497   5.387   0.606
11332TIP3    H233940   3.378   5.299   0.636
11333TIP3   OH233941   6.019   1.417   2.073
11333TIP3    H133942   5.969   1.340   2.047
11333TIP3    H233943   6.108   1.399   2.043
11334TIP3   OH233944   3.282   2.279   5.221
11334TIP3    H133945   3.304   2.360   5.267
11334TIP3    H233946   3.261   2.307   5.132
11335TIP3   OH233947   0.297   6.447   5.128
11335TIP3    H133948   0.360   6.375   5.126
11335TIP3    H233949   0.304   6.482   5.217
11336TIP3   OH233950   0.182   1.704   3.401
11336TIP3    H133951   0.258   1.743   3.444
11336TIP3    H233952   0.161   1.627   3.454
11337TIP3   OH233953   2.102   6.926   3.943
11337TIP3    H133954   2.161   7.001   3.932
11337TIP3    H233955   2.057   6.944   4.026
11338TIP3   OH233956   2.503   3.430   6.592
11338TIP3    H133957   2.570   3.361   6.593
11338TIP3    H233958   2.540   3.501   6.645
11339TIP3   OH233959   8.124   3.898   0.004
11339TIP3    H133960   8.179   3.820  -0.005
11339TIP3    H233961   8.105   3.904   0.098
11340TIP3   OH233962   2.830   7.504   6.413
11340TIP3    H133963   2.858   7.469   6.497
11340TIP3    H233964   2.843   7.432   6.351
11341TIP3   OH233965   5.644   1.461   2.940
11341TIP3    H133966   5.625   1.369   2.923
11341TIP3    H233967   5.558   1.502   2.946
11342TIP3   OH233968   4.037   4.668   1.815
11342TIP3    H133969   4.001   4.682   1.902
11342TIP3    H233970   3.996   4.587   1.785
11343TIP3   OH233971   0.118   4.653   0.860
11343TIP3    H133972   0.178   4.716   0.900
11343TIP3    H233973   0.123   4.576   0.917
11344TIP3   OH233974   7.914   3.040   3.726
11344TIP3    H133975   7.881   3.130   3.728
11344TIP3    H233976   7.891   3.004   3.812
11345TIP3   OH233977   5.676   2.884   6.556
11345TIP3    H133978   5.655   2.793   6.533
11345TIP3    H233979   5.655   2.933   6.476
11346TIP3   OH233980   5.773   6.398   0.731
11346TIP3    H133981   5.776   6.493   0.723
11346TIP3    H233982   5.792   6.381   0.824
11347TIP3   OH233983   5.771   5.687   1.526
11347TIP3    H133984   5.771   5.596   1.498
11347TIP3    H233985   5.680   5.704   1.552
11348TIP3   OH233986   0.152   5.739   2.607
11348TIP3    H133987   0.222   5.794   2.572
11348TIP3    H233988   0.197   5.675   2.661
11349TIP3   OH233989   2.864   4.058   1.935
11349TIP3    H133990   2.785   4.063   1.988
11349TIP3    H233991   2.834   4.074   1.845
11350TIP3   OH233992   1.928   5.637   6.165
11350TIP3    H133993   1.872   5.701   6.121
11350TIP3    H233994   1.973   5.591   6.094
11351TIP3   OH233995   5.342   6.129   6.641
11351TIP3    H133996   5.434   6.126   6.668
11351TIP3    H233997   5.294   6.089   6.714
11352TIP3   OH233998   5.677   5.175   5.473
11352TIP3    H133999   5.743   5.114   5.508
11352TIP3    H234000   5.727   5.251   5.446
11353TIP3   OH234001   1.237   4.639   1.063
11353TIP3    H134002   1.257   4.565   1.120
11353TIP3    H234003   1.254   4.716   1.117
11354TIP3   OH234004   2.518   3.375   2.944
11354TIP3    H134005   2.425   3.389   2.928
11354TIP3    H234006   2.532   3.282   2.925
11355TIP3   OH234007   5.064   2.715   0.881
11355TIP3    H134008   5.155   2.686   0.887
11355TIP3    H234009   5.031   2.709   0.971
11356TIP3   OH234010   5.303   7.039   1.165
11356TIP3    H134011   5.374   7.011   1.223
11356TIP3    H234012   5.289   6.966   1.106
11357TIP3   OH234013   2.374   0.572   6.795
11357TIP3    H134014   2.352   0.514   6.722
11357TIP3    H234015   2.462   0.604   6.775
11358TIP3   OH234016   6.236   4.982   0.238
11358TIP3    H134017   6.259   5.021   0.322
11358TIP3    H234018   6.233   5.055   0.177
11359TIP3   OH234019   4.570   1.141   1.516
11359TIP3    H134020   4.589   1.051   1.541
11359TIP3    H234021   4.482   1.139   1.480
11360TIP3   OH234022   7.159   3.730   5.389
11360TIP3    H134023   7.237   3.785   5.391
11360TIP3    H234024   7.120   3.745   5.303
11361TIP3   OH234025   2.155   4.009   0.433
11361TIP3    H134026   2.121   3.951   0.500
11361TIP3    H234027   2.084   4.071   0.417
11362TIP3   OH234028   6.951   4.777   3.512
11362TIP3    H134029   6.885   4.712   3.487
11362TIP3    H234030   7.025   4.724   3.544
11363TIP3   OH234031   1.918   1.385   0.219
11363TIP3    H134032   1.943   1.390   0.127
11363TIP3    H234033   1.961   1.306   0.251
11364TIP3   OH234034   5.711   0.246   2.407
11364TIP3    H134035   5.657   0.311   2.361
11364TIP3    H234036   5.649   0.202   2.466
11365TIP3   OH234037   7.779   7.371   5.172
11365TIP3    H134038   7.867   7.388   5.204
11365TIP3    H234039   7.789   7.358   5.077
11366TIP3   OH234040   2.008   2.606   2.173
11366TIP3    H134041   2.072   2.634   2.239
11366TIP3    H234042   1.993   2.684   2.120
11367TIP3   OH234043   1.076   7.265   4.021
11367TIP3    H134044   1.154   7.268   4.077
11367TIP3    H234045   1.060   7.171   4.008
11368TIP3   OH234046   6.041   4.330   1.427
11368TIP3    H134047   6.102   4.276   1.376
11368TIP3    H234048   5.954   4.297   1.403
11369TIP3   OH234049   7.616   6.806   5.642
11369TIP3    H134050   7.644   6.776   5.555
11369TIP3    H234051   7.685   6.867   5.669
11370TIP3   OH234052   6.390   2.702   6.182
11370TIP3    H134053   6.312   2.731   6.230
11370TIP3    H234054   6.361   2.701   6.090
11371TIP3   OH234055   7.318   5.555   6.599
11371TIP3    H134056   7.253   5.593   6.657
11371TIP3    H234057   7.399   5.557   6.649
11372TIP3   OH234058   0.792   1.362   1.628
11372TIP3    H134059   0.755   1.427   1.568
11372TIP3    H234060   0.886   1.378   1.625
11373TIP3   OH234061   0.168   4.352   6.660
11373TIP3    H134062   0.102   4.357   6.590
11373TIP3    H234063   0.252   4.346   6.614
11374TIP3   OH234064   6.919   1.547   3.615
11374TIP3    H134065   6.898   1.472   3.669
11374TIP3    H234066   6.835   1.592   3.602
11375TIP3   OH234067   7.892   6.237   6.313
11375TIP3    H134068   7.841   6.169   6.269
11375TIP3    H234069   7.838   6.316   6.307
11376TIP3   OH234070   0.777   2.179   6.260
11376TIP3    H134071   0.749   2.243   6.325
11376TIP3    H234072   0.709   2.182   6.192
11377TIP3   OH234073   6.153   5.635   1.228
11377TIP3    H134074   6.166   5.653   1.321
11377TIP3    H234075   6.145   5.539   1.223
11378TIP3   OH234076   3.791   4.582   0.096
11378TIP3    H134077   3.778   4.488   0.108
11378TIP3    H234078   3.844   4.588   0.016
11379TIP3   OH234079   6.995   3.398   2.318
11379TIP3    H134080   6.902   3.390   2.296
11379TIP3    H234081   7.021   3.483   2.282
11380TIP3   OH234082   3.944   4.790   3.013
11380TIP3    H134083   3.931   4.780   3.108
11380TIP3    H234084   4.024   4.742   2.994
11381TIP3   OH234085   3.871   4.810   1.583
11381TIP3    H134086   3.875   4.715   1.570
11381TIP3    H234087   3.957   4.834   1.617
11382TIP3   OH234088   3.559   3.806   0.157
11382TIP3    H134089   3.591   3.896   0.156
11382TIP3    H234090   3.519   3.794   0.243
11383TIP3   OH234091   4.317   1.554   4.134
11383TIP3    H134092   4.303   1.461   4.118
11383TIP3    H234093   4.297   1.596   4.050
11384TIP3   OH234094   4.350   5.997   0.362
11384TIP3    H134095   4.442   6.025   0.360
11384TIP3    H234096   4.302   6.070   0.323
11385TIP3   OH234097   1.191   2.485   4.473
11385TIP3    H134098   1.139   2.453   4.399
11385TIP3    H234099   1.133   2.476   4.549
11386TIP3   OH234100   5.354   5.889   2.998
11386TIP3    H134101   5.333   5.906   2.906
11386TIP3    H234102   5.442   5.852   2.997
11387TIP3   OH234103   6.473   2.771   4.843
11387TIP3    H134104   6.480   2.743   4.752
11387TIP3    H234105   6.458   2.865   4.838
11388TIP3   OH234106   1.874   7.208   2.495
11388TIP3    H134107   1.902   7.299   2.487
11388TIP3    H234108   1.898   7.168   2.411
11389TIP3   OH234109   7.571   4.624   6.689
11389TIP3    H134110   7.610   4.627   6.777
11389TIP3    H234111   7.631   4.569   6.638
11390TIP3   OH234112   1.134   6.631   3.904
11390TIP3    H134113   1.157   6.543   3.873
11390TIP3    H234114   1.049   6.648   3.865
11391TIP3   OH234115   6.294   6.195   5.880
11391TIP3    H134116   6.263   6.164   5.795
11391TIP3    H234117   6.310   6.116   5.931
11392TIP3   OH234118   3.220   5.611   4.921
11392TIP3    H134119   3.278   5.576   4.988
11392TIP3    H234120   3.135   5.618   4.964
11393TIP3   OH234121   1.209   1.295   2.018
11393TIP3    H134122   1.176   1.206   2.025
11393TIP3    H234123   1.146   1.349   2.065
11394TIP3   OH234124   3.706   7.331   3.198
11394TIP3    H134125   3.742   7.401   3.253
11394TIP3    H234126   3.704   7.369   3.110
11395TIP3   OH234127   6.322   4.759   2.415
11395TIP3    H134128   6.383   4.693   2.448
11395TIP3    H234129   6.370   4.804   2.346
11396TIP3   OH234130   6.275   3.243   5.329
11396TIP3    H134131   6.224   3.169   5.298
11396TIP3    H234132   6.211   3.304   5.366
11397TIP3   OH234133   8.146   7.751   4.057
11397TIP3    H134134   8.084   7.682   4.035
11397TIP3    H234135   8.157   7.743   4.152
11398TIP3   OH234136   2.251   6.718   1.026
11398TIP3    H134137   2.299   6.661   1.087
11398TIP3    H234138   2.176   6.666   0.998
11399TIP3   OH234139   8.168   5.374   0.141
11399TIP3    H134140   8.231   5.308   0.112
11399TIP3    H234141   8.108   5.385   0.067
11400TIP3   OH234142   0.144   7.634   3.290
11400TIP3    H134143   0.072   7.672   3.341
11400TIP3    H234144   0.221   7.644   3.345
11401TIP3   OH234145   2.775   3.853   1.096
11401TIP3    H134146   2.751   3.945   1.087
11401TIP3    H234147   2.756   3.833   1.188
11402TIP3   OH234148   7.364   7.489   3.351
11402TIP3    H134149   7.301   7.424   3.383
11402TIP3    H234150   7.437   7.436   3.317
11403TIP3   OH234151   1.490   4.065   0.362
11403TIP3    H134152   1.424   4.130   0.385
11403TIP3    H234153   1.446   4.007   0.299
11404TIP3   OH234154   6.713   7.849   1.115
11404TIP3    H134155   6.742   7.795   1.188
11404TIP3    H234156   6.622   7.823   1.100
11405TIP3   OH234157   0.926   0.803   3.454
11405TIP3    H134158   0.851   0.771   3.403
11405TIP3    H234159   1.002   0.780   3.401
11406TIP3   OH234160   2.931   0.166   3.588
11406TIP3    H134161   3.004   0.140   3.531
11406TIP3    H234162   2.895   0.245   3.548
11407TIP3   OH234163   1.505   2.106   3.474
11407TIP3    H134164   1.487   2.012   3.474
11407TIP3    H234165   1.424   2.147   3.445
11408TIP3   OH234166   0.444   0.875   0.222
11408TIP3    H134167   0.396   0.792   0.221
11408TIP3    H234168   0.393   0.932   0.165
11409TIP3   OH234169   7.856   1.438   5.970
11409TIP3    H134170   7.933   1.413   5.919
11409TIP3    H234171   7.843   1.365   6.030
11410TIP3   OH234172   5.031   0.058   1.593
11410TIP3    H134173   5.118   0.021   1.580
11410TIP3    H234174   5.022   0.124   1.524
11411TIP3   OH234175   7.619   5.085   0.374
11411TIP3    H134176   7.714   5.087   0.363
11411TIP3    H234177   7.606   5.057   0.465
11412TIP3   OH234178   4.775   0.176   5.442
11412TIP3    H134179   4.740   0.139   5.361
11412TIP3    H234180   4.848   0.118   5.465
11413TIP3   OH234181   0.404   7.013   5.253
11413TIP3    H134182   0.393   7.107   5.242
11413TIP3    H234183   0.498   6.998   5.241
11414TIP3   OH234184   1.426   7.233   2.665
11414TIP3    H134185   1.332   7.249   2.675
11414TIP3    H234186   1.467   7.317   2.687
11415TIP3   OH234187   2.685   5.789   4.478
11415TIP3    H134188   2.771   5.751   4.463
11415TIP3    H234189   2.638   5.777   4.395
11416TIP3   OH234190   2.929   0.660   1.177
11416TIP3    H134191   2.952   0.736   1.231
11416TIP3    H234192   2.851   0.624   1.220
11417TIP3   OH234193   2.133   2.091   1.396
11417TIP3    H134194   2.141   2.079   1.302
11417TIP3    H234195   2.187   2.168   1.415
11418TIP3   OH234196   7.532   4.204   6.594
11418TIP3    H134197   7.443   4.200   6.629
11418TIP3    H234198   7.576   4.127   6.629
11419TIP3   OH234199   3.580   4.284   6.485
11419TIP3    H134200   3.659   4.327   6.518
11419TIP3    H234201   3.558   4.219   6.551
11420TIP3   OH234202   4.491   1.289   3.594
11420TIP3    H134203   4.438   1.368   3.582
11420TIP3    H234204   4.462   1.253   3.677
11421TIP3   OH234205   3.475   4.185   5.724
11421TIP3    H134206   3.380   4.178   5.717
11421TIP3    H234207   3.490   4.276   5.748
11422TIP3   OH234208   4.811   2.657   0.129
11422TIP3    H134209   4.893   2.637   0.175
11422TIP3    H234210   4.814   2.601   0.050
11423TIP3   OH234211   1.284   7.656   3.639
11423TIP3    H134212   1.242   7.611   3.713
11423TIP3    H234213   1.329   7.730   3.679
11424TIP3   OH234214   0.495   2.881   1.990
11424TIP3    H134215   0.470   2.867   1.899
11424TIP3    H234216   0.496   2.976   2.001
11425TIP3   OH234217   4.252   4.788   5.170
11425TIP3    H134218   4.299   4.814   5.250
11425TIP3    H234219   4.316   4.736   5.121
11426TIP3   OH234220   1.418   1.998   0.479
11426TIP3    H134221   1.413   1.915   0.527
11426TIP3    H234222   1.399   1.974   0.389
11427TIP3   OH234223   6.399   0.644   1.079
11427TIP3    H134224   6.436   0.561   1.047
11427TIP3    H234225   6.327   0.663   1.020
11428TIP3   OH234226   5.796   5.172   1.130
11428TIP3    H134227   5.734   5.102   1.149
11428TIP3    H234228   5.861   5.166   1.199
11429TIP3   OH234229   6.315   7.239   0.609
11429TIP3    H134230   6.335   7.241   0.516
11429TIP3    H234231   6.221   7.257   0.614
11430TIP3   OH234232   0.452   4.432   4.196
11430TIP3    H134233   0.475   4.352   4.244
11430TIP3    H234234   0.514   4.435   4.123
11431TIP3   OH234235   1.156   3.628   5.779
11431TIP3    H134236   1.169   3.579   5.697
11431TIP3    H234237   1.232   3.685   5.786
11432TIP3   OH234238   4.499   5.536   2.735
11432TIP3    H134239   4.590   5.506   2.726
11432TIP3    H234240   4.471   5.501   2.820
11433TIP3   OH234241   2.709   0.441   2.647
11433TIP3    H134242   2.787   0.447   2.702
11433TIP3    H234243   2.741   0.407   2.563
11434TIP3   OH234244   6.539   4.138   3.025
11434TIP3    H134245   6.500   4.138   2.938
11434TIP3    H234246   6.479   4.086   3.079
11435TIP3   OH234247   5.117   2.924   5.721
11435TIP3    H134248   5.060   3.000   5.705
11435TIP3    H234249   5.085   2.887   5.803
11436TIP3   OH234250   6.374   1.657   3.662
11436TIP3    H134251   6.382   1.731   3.721
11436TIP3    H234252   6.427   1.588   3.702
11437TIP3   OH234253   1.299   0.100   4.209
11437TIP3    H134254   1.395   0.092   4.206
11437TIP3    H234255   1.281   0.183   4.165
11438TIP3   OH234256   5.632   3.803   1.073
11438TIP3    H134257   5.567   3.735   1.055
11438TIP3    H234258   5.650   3.794   1.167
11439TIP3   OH234259   5.203   2.610   5.813
11439TIP3    H134260   5.122   2.625   5.764
11439TIP3    H234261   5.269   2.660   5.765
11440TIP3   OH234262   6.622   7.054   1.017
11440TIP3    H134263   6.628   6.962   0.989
11440TIP3    H234264   6.538   7.084   0.982
11441TIP3   OH234265   1.819   2.078   2.895
11441TIP3    H134266   1.810   2.147   2.961
11441TIP3    H234267   1.842   2.125   2.815
11442TIP3   OH234268   1.607   4.826   6.261
11442TIP3    H134269   1.567   4.747   6.224
11442TIP3    H234270   1.699   4.819   6.239
11443TIP3   OH234271   5.273   0.412   5.616
11443TIP3    H134272   5.231   0.426   5.531
11443TIP3    H234273   5.328   0.335   5.604
11444TIP3   OH234274   3.053   2.310   3.117
11444TIP3    H134275   3.108   2.383   3.088
11444TIP3    H234276   3.105   2.264   3.182
11445TIP3   OH234277   6.301   1.958   2.481
11445TIP3    H134278   6.233   1.991   2.540
11445TIP3    H234279   6.308   2.024   2.412
11446TIP3   OH234280   3.815   2.419   5.660
11446TIP3    H134281   3.848   2.495   5.612
11446TIP3    H234282   3.870   2.346   5.630
11447TIP3   OH234283   6.402   7.114   0.852
11447TIP3    H134284   6.455   7.056   0.798
11447TIP3    H234285   6.363   7.176   0.791
11448TIP3   OH234286   0.970   4.545   2.379
11448TIP3    H134287   0.928   4.573   2.298
11448TIP3    H234288   0.981   4.451   2.371
11449TIP3   OH234289   7.706   1.959   4.098
11449TIP3    H134290   7.673   2.026   4.038
11449TIP3    H234291   7.631   1.901   4.113
11450TIP3   OH234292   7.994   6.723   6.179
11450TIP3    H134293   7.918   6.674   6.147
11450TIP3    H234294   8.009   6.690   6.268
11451TIP3   OH234295   4.766   7.362   3.023
11451TIP3    H134296   4.679   7.325   3.009
11451TIP3    H234297   4.800   7.315   3.099
11452TIP3   OH234298   2.183   3.853   2.422
11452TIP3    H134299   2.204   3.937   2.381
11452TIP3    H234300   2.181   3.791   2.350
11453TIP3   OH234301   4.750   7.686   3.388
11453TIP3    H134302   4.795   7.744   3.449
11453TIP3    H234303   4.812   7.673   3.316
11454TIP3   OH234304   5.059   4.948   5.204
11454TIP3    H134305   4.965   4.942   5.218
11454TIP3    H234306   5.085   4.861   5.174
11455TIP3   OH234307   3.546   7.090   0.168
11455TIP3    H134308   3.579   7.090   0.257
11455TIP3    H234309   3.621   7.113   0.114
11456TIP3   OH234310   3.946   1.692   2.982
11456TIP3    H134311   4.013   1.747   2.942
11456TIP3    H234312   3.919   1.632   2.913
11457TIP3   OH234313   1.357   5.682   0.095
11457TIP3    H134314   1.433   5.626   0.078
11457TIP3    H234315   1.376   5.724   0.179
11458TIP3   OH234316   0.938   4.375   3.589
11458TIP3    H134317   0.987   4.330   3.520
11458TIP3    H234318   0.908   4.456   3.549
11459TIP3   OH234319   6.471   0.763   6.580
11459TIP3    H134320   6.409   0.798   6.644
11459TIP3    H234321   6.512   0.840   6.542
11460TIP3   OH234322   0.307   7.650   0.753
11460TIP3    H134323   0.237   7.621   0.694
11460TIP3    H234324   0.365   7.702   0.698
11461TIP3   OH234325   4.595   1.724   1.078
11461TIP3    H134326   4.518   1.668   1.073
11461TIP3    H234327   4.569   1.797   1.135
11462TIP3   OH234328   5.288   3.140   2.610
11462TIP3    H134329   5.199   3.138   2.647
11462TIP3    H234330   5.297   3.056   2.565
11463TIP3   OH234331   0.260   3.036   1.651
11463TIP3    H134332   0.209   3.027   1.571
11463TIP3    H234333   0.225   3.114   1.693
11464TIP3   OH234334   0.182   6.997   2.507
11464TIP3    H134335   0.194   7.066   2.572
11464TIP3    H234336   0.126   6.933   2.550
11465TIP3   OH234337   4.702   3.656   1.844
11465TIP3    H134338   4.719   3.649   1.750
11465TIP3    H234339   4.608   3.676   1.850
11466TIP3   OH234340   3.549   6.139   5.804
11466TIP3    H134341   3.550   6.091   5.721
11466TIP3    H234342   3.621   6.102   5.854
11467TIP3   OH234343   6.579   4.989   1.673
11467TIP3    H134344   6.519   5.021   1.741
11467TIP3    H234345   6.554   5.037   1.594
11468TIP3   OH234346   0.979   1.767   5.403
11468TIP3    H134347   0.989   1.714   5.324
11468TIP3    H234348   1.058   1.748   5.455
11469TIP3   OH234349   6.558   4.509   5.541
11469TIP3    H134350   6.615   4.438   5.571
11469TIP3    H234351   6.594   4.587   5.582
11470TIP3   OH234352   5.061   2.771   4.301
11470TIP3    H134353   4.991   2.770   4.235
11470TIP3    H234354   5.139   2.743   4.253
11471TIP3   OH234355   4.724   5.738   6.116
11471TIP3    H134356   4.676   5.748   6.198
11471TIP3    H234357   4.657   5.715   6.052
11472TIP3   OH234358   8.292   2.327   1.037
11472TIP3    H134359   8.199   2.313   1.051
11472TIP3    H234360   8.332   2.242   1.052
11473TIP3   OH234361   4.589   1.805   0.215
11473TIP3    H134362   4.680   1.791   0.240
11473TIP3    H234363   4.593   1.874   0.150
11474TIP3   OH234364   2.976   7.453   3.284
11474TIP3    H134365   3.040   7.402   3.334
11474TIP3    H234366   2.999   7.438   3.193
11475TIP3   OH234367   4.210   2.499   6.398
11475TIP3    H134368   4.225   2.492   6.304
11475TIP3    H234369   4.291   2.466   6.438
11476TIP3   OH234370   5.411   0.400   6.208
11476TIP3    H134371   5.488   0.358   6.247
11476TIP3    H234372   5.371   0.331   6.155
11477TIP3   OH234373   8.140   1.507   1.236
11477TIP3    H134374   8.086   1.494   1.314
11477TIP3    H234375   8.119   1.595   1.206
11478TIP3   OH234376   2.316   4.827   3.168
11478TIP3    H134377   2.272   4.781   3.096
11478TIP3    H234378   2.258   4.900   3.189
11479TIP3   OH234379   5.147   5.072   6.512
11479TIP3    H134380   5.085   5.000   6.508
11479TIP3    H234381   5.132   5.112   6.598
11480TIP3   OH234382   0.355   4.746   5.433
11480TIP3    H134383   0.335   4.657   5.403
11480TIP3    H234384   0.362   4.739   5.528
11481TIP3   OH234385   1.734   1.375   1.194
11481TIP3    H134386   1.644   1.402   1.208
11481TIP3    H234387   1.737   1.352   1.101
11482TIP3   OH234388   0.239   6.749   4.549
11482TIP3    H134389   0.328   6.754   4.512
11482TIP3    H234390   0.254   6.736   4.643
11483TIP3   OH234391   7.106   1.213   3.864
11483TIP3    H134392   7.029   1.237   3.813
11483TIP3    H234393   7.089   1.124   3.894
11484TIP3   OH234394   0.074   2.777   4.233
11484TIP3    H134395   0.094   2.708   4.170
11484TIP3    H234396   0.034   2.731   4.307
11485TIP3   OH234397   6.582   1.081   4.733
11485TIP3    H134398   6.560   1.174   4.725
11485TIP3    H234399   6.615   1.057   4.646
11486TIP3   OH234400   4.182   6.409   1.994
11486TIP3    H134401   4.205   6.354   1.918
11486TIP3    H234402   4.235   6.488   1.983
11487TIP3   OH234403   2.515   2.258   2.847
11487TIP3    H134404   2.476   2.258   2.760
11487TIP3    H234405   2.605   2.226   2.833
11488TIP3   OH234406   5.765   1.391   6.315
11488TIP3    H134407   5.725   1.321   6.263
11488TIP3    H234408   5.707   1.466   6.302
11489TIP3   OH234409   2.013   5.787   6.378
11489TIP3    H134410   1.951   5.755   6.443
11489TIP3    H234411   2.007   5.724   6.305
11490TIP3   OH234412   2.757   7.056   0.743
11490TIP3    H134413   2.714   7.114   0.680
11490TIP3    H234414   2.779   7.114   0.816
11491TIP3   OH234415   5.445   2.702   5.724
11491TIP3    H134416   5.503   2.721   5.797
11491TIP3    H234417   5.504   2.683   5.651
11492TIP3   OH234418   0.768   4.609   2.556
11492TIP3    H134419   0.831   4.628   2.626
11492TIP3    H234420   0.822   4.582   2.482
11493TIP3   OH234421   6.963   4.049   1.542
11493TIP3    H134422   7.052   4.075   1.566
11493TIP3    H234423   6.972   3.961   1.505
11494TIP3   OH234424   2.589   3.294   2.287
11494TIP3    H134425   2.634   3.361   2.339
11494TIP3    H234426   2.624   3.211   2.320
11495TIP3   OH234427   4.102   2.746   4.620
11495TIP3    H134428   4.138   2.788   4.541
11495TIP3    H234429   4.017   2.788   4.632
11496TIP3   OH234430   5.033   4.605   1.113
11496TIP3    H134431   5.066   4.601   1.023
11496TIP3    H234432   5.043   4.697   1.138
11497TIP3   OH234433   7.452   2.797   3.068
11497TIP3    H134434   7.443   2.751   2.985
11497TIP3    H234435   7.362   2.825   3.090
11498TIP3   OH234436   1.736   0.258   1.445
11498TIP3    H134437   1.819   0.301   1.427
11498TIP3    H234438   1.749   0.167   1.417
11499TIP3   OH234439   7.580   0.838   2.379
11499TIP3    H134440   7.574   0.898   2.453
11499TIP3    H234441   7.668   0.851   2.344
11500TIP3   OH234442   0.769   7.176   3.312
11500TIP3    H134443   0.742   7.224   3.234
11500TIP3    H234444   0.837   7.231   3.352
11501TIP3   OH234445   3.488   6.736   4.041
11501TIP3    H134446   3.573   6.779   4.033
11501TIP3    H234447   3.427   6.806   4.065
11502TIP3   OH234448   2.251   6.506   5.764
11502TIP3    H134449   2.213   6.593   5.776
11502TIP3    H234450   2.178   6.450   5.739
11503TIP3   OH234451   1.878   6.719   1.939
11503TIP3    H134452   1.799   6.666   1.951
11503TIP3    H234453   1.850   6.792   1.884
11504TIP3   OH234454   7.297   4.985   0.040
11504TIP3    H134455   7.387   4.963   0.062
11504TIP3    H234456   7.302   5.016  -0.051
11505TIP3   OH234457   6.623   4.932   4.209
11505TIP3    H134458   6.577   4.996   4.155
11505TIP3    H234459   6.644   4.860   4.149
11506TIP3   OH234460   4.190   2.886   2.889
11506TIP3    H134461   4.170   2.961   2.946
11506TIP3    H234462   4.204   2.925   2.803
11507TIP3   OH234463   4.920   7.513   4.663
11507TIP3    H134464   4.926   7.601   4.700
11507TIP3    H234465   4.829   7.505   4.636
11508TIP3   OH234466   0.687   7.483   5.121
11508TIP3    H134467   0.773   7.455   5.091
11508TIP3    H234468   0.655   7.544   5.055
11509TIP3   OH234469   2.491   5.492   3.445
11509TIP3    H134470   2.446   5.508   3.528
11509TIP3    H234471   2.539   5.411   3.458
11510TIP3   OH234472   3.284   0.060   6.439
11510TIP3    H134473   3.281  -0.013   6.500
11510TIP3    H234474   3.345   0.122   6.478
11511TIP3   OH234475   7.253   3.201   6.367
11511TIP3    H134476   7.204   3.217   6.448
11511TIP3    H234477   7.341   3.177   6.396
11512TIP3   OH234478   3.118   3.529   3.182
11512TIP3    H134479   3.023   3.530   3.177
11512TIP3    H234480   3.138   3.487   3.266
11513TIP3   OH234481   7.991   1.355   4.942
11513TIP3    H134482   7.945   1.396   5.016
11513TIP3    H234483   7.972   1.413   4.868
11514TIP3   OH234484   2.043  -0.012   0.797
11514TIP3    H134485   1.966   0.022   0.843
11514TIP3    H234486   2.111   0.053   0.813
11515TIP3   OH234487   1.376   6.653   3.031
11515TIP3    H134488   1.285   6.676   3.052
11515TIP3    H234489   1.381   6.559   3.052
11516TIP3   OH234490   3.847   7.376   3.848
11516TIP3    H134491   3.800   7.436   3.789
11516TIP3    H234492   3.862   7.427   3.927
11517TIP3   OH234493   2.256   6.222   2.973
11517TIP3    H134494   2.335   6.267   3.002
11517TIP3    H234495   2.190   6.246   3.038
11518TIP3   OH234496   7.684   7.300   1.938
11518TIP3    H134497   7.683   7.385   1.893
11518TIP3    H234498   7.635   7.242   1.880
11519TIP3   OH234499   4.411   4.546   1.390
11519TIP3    H134500   4.342   4.538   1.456
11519TIP3    H234501   4.469   4.615   1.423
11520TIP3   OH234502   1.257   7.009   5.556
11520TIP3    H134503   1.268   7.104   5.562
11520TIP3    H234504   1.167   6.994   5.584
11521TIP3   OH234505   2.556   6.133   4.219
11521TIP3    H134506   2.566   6.102   4.309
11521TIP3    H234507   2.536   6.227   4.228
11522TIP3   OH234508   5.937   4.147   4.972
11522TIP3    H134509   5.921   4.196   5.052
11522TIP3    H234510   6.020   4.102   4.988
11523TIP3   OH234511   4.300   0.767   0.155
11523TIP3    H134512   4.301   0.723   0.070
11523TIP3    H234513   4.270   0.856   0.134
11524TIP3   OH234514   6.260   0.513   0.307
11524TIP3    H134515   6.185   0.524   0.248
11524TIP3    H234516   6.231   0.553   0.389
11525TIP3   OH234517   0.490   6.400   6.155
11525TIP3    H134518   0.403   6.434   6.175
11525TIP3    H234519   0.507   6.337   6.225
11526TIP3   OH234520   0.327   6.454   0.240
11526TIP3    H134521   0.368   6.540   0.237
11526TIP3    H234522   0.399   6.394   0.263
11527TIP3   OH234523   4.134   1.887   5.679
11527TIP3    H134524   4.164   1.861   5.766
11527TIP3    H234525   4.050   1.929   5.694
11528TIP3   OH234526   7.623   1.873   1.263
11528TIP3    H134527   7.642   1.826   1.182
11528TIP3    H234528   7.634   1.807   1.332
11529TIP3   OH234529   4.592   7.550   3.977
11529TIP3    H134530   4.521   7.583   4.033
11529TIP3    H234531   4.637   7.628   3.946
11530TIP3   OH234532   2.822   6.922   4.150
11530TIP3    H134533   2.761   6.961   4.213
11530TIP3    H234534   2.908   6.951   4.179
11531TIP3   OH234535   3.528   6.934   4.320
11531TIP3    H134536   3.568   7.021   4.329
11531TIP3    H234537   3.602   6.876   4.302
11532TIP3   OH234538   3.185   5.986   1.420
11532TIP3    H134539   3.244   5.914   1.441
11532TIP3    H234540   3.231   6.065   1.448
11533TIP3   OH234541   6.046   2.604   5.494
11533TIP3    H134542   6.075   2.579   5.407
11533TIP3    H234543   6.025   2.521   5.537
11534TIP3   OH234544   2.276   3.332   2.223
11534TIP3    H134545   2.312   3.351   2.136
11534TIP3    H234546   2.348   3.291   2.271
11535TIP3   OH234547   6.544   6.615   6.021
11535TIP3    H134548   6.471   6.554   6.009
11535TIP3    H234549   6.616   6.561   6.054
11536TIP3   OH234550   1.124   6.685   5.878
11536TIP3    H134551   1.038   6.642   5.871
11536TIP3    H234552   1.172   6.631   5.940
11537TIP3   OH234553   1.012   4.693   4.715
11537TIP3    H134554   0.959   4.690   4.795
11537TIP3    H234555   1.055   4.607   4.711
11538TIP3   OH234556   1.608   1.715   0.827
11538TIP3    H134557   1.531   1.767   0.805
11538TIP3    H234558   1.615   1.722   0.922
11539TIP3   OH234559   3.492   7.692   4.832
11539TIP3    H134560   3.581   7.724   4.822
11539TIP3    H234561   3.483   7.625   4.763
11540TIP3   OH234562   1.989   0.052   4.532
11540TIP3    H134563   1.899   0.037   4.560
11540TIP3    H234564   2.042   0.021   4.605
11541TIP3   OH234565   7.836   0.669   3.021
11541TIP3    H134566   7.800   0.683   3.108
11541TIP3    H234567   7.763   0.633   2.971
11542TIP3   OH234568   1.634   1.794   1.087
11542TIP3    H134569   1.567   1.852   1.122
11542TIP3    H234570   1.681   1.762   1.164
11543TIP3   OH234571   5.398   2.998   4.592
11543TIP3    H134572   5.338   2.930   4.622
11543TIP3    H234573   5.376   3.011   4.499
11544TIP3   OH234574   1.888   5.280   3.911
11544TIP3    H134575   1.826   5.232   3.856
11544TIP3    H234576   1.912   5.217   3.980
11545TIP3   OH234577   4.844   1.414   1.625
11545TIP3    H134578   4.866   1.366   1.704
11545TIP3    H234579   4.912   1.480   1.617
11546TIP3   OH234580   6.941   2.916   0.959
11546TIP3    H134581   6.985   2.986   0.909
11546TIP3    H234582   7.013   2.868   0.999
11547TIP3   OH234583   4.955   6.158   5.254
11547TIP3    H134584   4.933   6.191   5.341
11547TIP3    H234585   4.871   6.139   5.213
11548TIP3   OH234586   7.865   0.555   0.951
11548TIP3    H134587   7.901   0.633   0.992
11548TIP3    H234588   7.941   0.498   0.937
11549TIP3   OH234589   7.214   7.223   3.621
11549TIP3    H134590   7.228   7.141   3.668
11549TIP3    H234591   7.208   7.290   3.689
11550TIP3   OH234592   7.767   7.724   6.752
11550TIP3    H134593   7.708   7.792   6.786
11550TIP3    H234594   7.829   7.772   6.697
11551TIP3   OH234595   1.045   4.850   5.276
11551TIP3    H134596   1.124   4.898   5.300
11551TIP3    H234597   0.974   4.894   5.324
11552TIP3   OH234598   7.345   6.158   2.561
11552TIP3    H134599   7.328   6.076   2.513
11552TIP3    H234600   7.288   6.222   2.519
11553TIP3   OH234601   3.810   3.886   6.721
11553TIP3    H134602   3.832   3.795   6.742
11553TIP3    H234603   3.723   3.898   6.759
11554TIP3   OH234604   0.755   5.881   4.398
11554TIP3    H134605   0.787   5.851   4.313
11554TIP3    H234606   0.660   5.884   4.389
11555TIP3   OH234607   3.781   1.945   1.867
11555TIP3    H134608   3.843   1.947   1.940
11555TIP3    H234609   3.695   1.942   1.908
11556TIP3   OH234610   4.189   7.395   2.097
11556TIP3    H134611   4.255   7.464   2.105
11556TIP3    H234612   4.153   7.386   2.185
11557TIP3   OH234613   5.622   2.728   4.501
11557TIP3    H134614   5.601   2.808   4.550
11557TIP3    H234615   5.664   2.670   4.565
11558TIP3   OH234616   2.645   0.183   3.579
11558TIP3    H134617   2.671   0.230   3.500
11558TIP3    H234618   2.572   0.234   3.615
11559TIP3   OH234619   6.004   1.159   3.532
11559TIP3    H134620   6.000   1.180   3.625
11559TIP3    H234621   6.092   1.124   3.519
11560TIP3   OH234622   4.793   3.311   2.229
11560TIP3    H134623   4.714   3.363   2.213
11560TIP3    H234624   4.822   3.286   2.141
11561TIP3   OH234625   7.076   1.703   2.081
11561TIP3    H134626   7.018   1.768   2.041
11561TIP3    H234627   7.017   1.632   2.107
11562TIP3   OH234628   6.700   4.701   2.215
11562TIP3    H134629   6.663   4.755   2.146
11562TIP3    H234630   6.720   4.617   2.172
11563TIP3   OH234631   8.282   4.216   2.493
11563TIP3    H134632   8.243   4.129   2.491
11563TIP3    H234633   8.231   4.265   2.557
11564TIP3   OH234634   3.729   5.420   5.812
11564TIP3    H134635   3.787   5.483   5.854
11564TIP3    H234636   3.772   5.336   5.825
11565TIP3   OH234637   6.200   1.138   6.665
11565TIP3    H134638   6.136   1.193   6.619
11565TIP3    H234639   6.269   1.123   6.600
11566TIP3   OH234640   3.148   6.340   6.027
11566TIP3    H134641   3.175   6.297   5.946
11566TIP3    H234642   3.218   6.403   6.044
11567TIP3   OH234643   3.710   6.765   4.999
11567TIP3    H134644   3.796   6.740   5.031
11567TIP3    H234645   3.650   6.704   5.041
11568TIP3   OH234646   2.844   1.743   6.673
11568TIP3    H134647   2.826   1.832   6.643
11568TIP3    H234648   2.937   1.730   6.652
11569TIP3   OH234649   5.540   6.509   2.559
11569TIP3    H134650   5.483   6.458   2.501
11569TIP3    H234651   5.486   6.583   2.586
11570TIP3   OH234652   4.581   2.808   5.805
11570TIP3    H134653   4.643   2.743   5.838
11570TIP3    H234654   4.631   2.889   5.799
11571TIP3   OH234655   2.456   1.797   5.766
11571TIP3    H134656   2.389   1.859   5.736
11571TIP3    H234657   2.520   1.851   5.811
11572TIP3   OH234658   0.763   2.503   2.177
11572TIP3    H134659   0.775   2.476   2.268
11572TIP3    H234660   0.766   2.598   2.180
11573TIP3   OH234661   2.871   4.612   3.499
11573TIP3    H134662   2.910   4.629   3.585
11573TIP3    H234663   2.825   4.692   3.476
11574TIP3   OH234664   4.175   4.756   6.149
11574TIP3    H134665   4.118   4.753   6.072
11574TIP3    H234666   4.219   4.671   6.149
11575TIP3   OH234667   8.131   6.378   6.237
11575TIP3    H134668   8.154   6.400   6.146
11575TIP3    H234669   8.056   6.319   6.229
11576TIP3   OH234670   0.639   3.528   0.951
11576TIP3    H134671   0.600   3.574   0.877
11576TIP3    H234672   0.624   3.435   0.933
11577TIP3   OH234673   5.543   7.850   2.142
11577TIP3    H134674   5.600   7.787   2.187
11577TIP3    H234675   5.456   7.811   2.144
11578TIP3   OH234676   1.478   7.539   4.643
11578TIP3    H134677   1.478   7.475   4.573
11578TIP3    H234678   1.543   7.604   4.616
11579TIP3   OH234679   6.647   2.718   3.910
11579TIP3    H134680   6.551   2.724   3.913
11579TIP3    H234681   6.669   2.745   3.820
11580TIP3   OH234682   2.213   4.849   2.614
11580TIP3    H134683   2.135   4.899   2.637
11580TIP3    H234684   2.191   4.758   2.634
11581TIP3   OH234685   2.434   1.736   4.554
11581TIP3    H134686   2.367   1.805   4.558
11581TIP3    H234687   2.467   1.730   4.643
11582TIP3   OH234688   5.870   4.770   0.607
11582TIP3    H134689   5.938   4.791   0.671
11582TIP3    H234690   5.903   4.691   0.562
11583TIP3   OH234691   2.186   1.484   4.746
11583TIP3    H134692   2.206   1.469   4.838
11583TIP3    H234693   2.093   1.463   4.738
11584TIP3   OH234694   6.896   4.260   1.738
11584TIP3    H134695   6.907   4.229   1.649
11584TIP3    H234696   6.830   4.328   1.732
11585TIP3   OH234697   0.634   7.564   0.820
11585TIP3    H134698   0.715   7.557   0.870
11585TIP3    H234699   0.567   7.589   0.884
11586TIP3   OH234700   6.530   5.289   6.743
11586TIP3    H134701   6.495   5.376   6.724
11586TIP3    H234702   6.581   5.266   6.666
11587TIP3   OH234703   3.872   1.976   2.790
11587TIP3    H134704   3.815   1.980   2.867
11587TIP3    H234705   3.949   1.928   2.820
11588TIP3   OH234706   5.098   6.224   4.512
11588TIP3    H134707   5.071   6.182   4.593
11588TIP3    H234708   5.019   6.267   4.479
11589TIP3   OH234709   3.984   3.109   2.580
11589TIP3    H134710   3.974   3.021   2.616
11589TIP3    H234711   4.019   3.095   2.492
11590TIP3   OH234712   3.394   0.322   2.819
11590TIP3    H134713   3.398   0.368   2.735
11590TIP3    H234714   3.421   0.387   2.883
11591TIP3   OH234715   0.110   6.710   1.764
11591TIP3    H134716   0.041   6.771   1.791
11591TIP3    H234717   0.094   6.696   1.671
11592TIP3   OH234718   5.360   7.274   4.208
11592TIP3    H134719   5.279   7.320   4.188
11592TIP3    H234720   5.402   7.328   4.275
11593TIP3   OH234721   1.345   6.585   0.857
11593TIP3    H134722   1.374   6.659   0.911
11593TIP3    H234723   1.270   6.619   0.808
11594TIP3   OH234724   7.980   4.775   2.776
11594TIP3    H134725   8.024   4.857   2.755
11594TIP3    H234726   7.913   4.798   2.839
11595TIP3   OH234727   0.778   6.791   2.404
11595TIP3    H134728   0.731   6.736   2.467
11595TIP3    H234729   0.870   6.778   2.426
11596TIP3   OH234730   4.908   4.059   0.782
11596TIP3    H134731   4.947   4.089   0.864
11596TIP3    H234732   4.847   4.129   0.758
11597TIP3   OH234733   5.738   6.435   6.090
11597TIP3    H134734   5.718   6.528   6.079
11597TIP3    H234735   5.827   6.434   6.126
11598TIP3   OH234736   8.265   2.892   2.093
11598TIP3    H134737   8.302   2.804   2.102
11598TIP3    H234738   8.296   2.922   2.008
11599TIP3   OH234739   0.932   0.285   2.604
11599TIP3    H134740   0.979   0.317   2.527
11599TIP3    H234741   0.874   0.357   2.629
11600TIP3   OH234742   6.997   7.057   5.930
11600TIP3    H134743   6.990   6.977   5.878
11600TIP3    H234744   7.072   7.041   5.988
11601TIP3   OH234745   7.782   4.389   6.287
11601TIP3    H134746   7.720   4.335   6.240
11601TIP3    H234747   7.791   4.468   6.234
11602TIP3   OH234748   4.709   0.050   5.198
11602TIP3    H134749   4.671   0.113   5.136
11602TIP3    H234750   4.654  -0.028   5.189
11603TIP3   OH234751   1.006   2.121   3.939
11603TIP3    H134752   0.952   2.120   3.860
11603TIP3    H234753   1.053   2.205   3.934
11604TIP3   OH234754   3.359   0.324   0.517
11604TIP3    H134755   3.398   0.304   0.602
11604TIP3    H234756   3.434   0.331   0.458
11605TIP3   OH234757   6.408   0.782   5.190
11605TIP3    H134758   6.352   0.839   5.242
11605TIP3    H234759   6.421   0.830   5.108
11606TIP3   OH234760   2.092   4.298   6.431
11606TIP3    H134761   2.029   4.354   6.478
11606TIP3    H234762   2.094   4.217   6.482
11607TIP3   OH234763   2.826   1.082   4.037
11607TIP3    H134764   2.768   1.157   4.049
11607TIP3    H234765   2.907   1.120   4.002
11608TIP3   OH234766   1.885   1.247   5.721
11608TIP3    H134767   1.877   1.190   5.797
11608TIP3    H234768   1.800   1.243   5.678
11609TIP3   OH234769   7.357   6.513   0.274
11609TIP3    H134770   7.268   6.498   0.242
11609TIP3    H234771   7.373   6.606   0.258
11610TIP3   OH234772   0.071   2.459   6.100
11610TIP3    H134773   0.031   2.529   6.151
11610TIP3    H234774   0.160   2.490   6.083
11611TIP3   OH234775   2.081   3.051   5.996
11611TIP3    H134776   2.029   3.112   5.944
11611TIP3    H234777   2.169   3.058   5.961
11612TIP3   OH234778   2.829   0.225   5.008
11612TIP3    H134779   2.876   0.308   5.019
11612TIP3    H234780   2.771   0.240   4.934
11613TIP3   OH234781   7.946   5.572   5.400
11613TIP3    H134782   7.954   5.548   5.493
11613TIP3    H234783   7.994   5.504   5.354
11614TIP3   OH234784   0.850   6.593   1.685
11614TIP3    H134785   0.790   6.565   1.755
11614TIP3    H234786   0.793   6.636   1.621
11615TIP3   OH234787   4.805   5.846   0.412
11615TIP3    H134788   4.901   5.840   0.416
11615TIP3    H234789   4.776   5.841   0.503
11616TIP3   OH234790   2.649   4.539   4.486
11616TIP3    H134791   2.608   4.622   4.509
11616TIP3    H234792   2.740   4.561   4.467
11617TIP3   OH234793   8.060   2.025   4.102
11617TIP3    H134794   8.080   1.932   4.094
11617TIP3    H234795   8.106   2.053   4.181
11618TIP3   OH234796   4.909   4.306   0.205
11618TIP3    H134797   4.868   4.235   0.156
11618TIP3    H234798   4.876   4.296   0.294
11619TIP3   OH234799   0.794   2.007   5.894
11619TIP3    H134800   0.726   1.966   5.948
11619TIP3    H234801   0.782   2.101   5.907
11620TIP3   OH234802   0.501   5.697   1.411
11620TIP3    H134803   0.590   5.716   1.384
11620TIP3    H234804   0.471   5.629   1.351
11621TIP3   OH234805   2.968   3.552  -0.016
11621TIP3    H134806   2.911   3.627  -0.005
11621TIP3    H234807   2.961   3.504   0.067
11622TIP3   OH234808   0.803   4.075   1.991
11622TIP3    H134809   0.774   4.146   1.933
11622TIP3    H234810   0.856   4.018   1.936
11623TIP3   OH234811   3.849   6.689   6.697
11623TIP3    H134812   3.910   6.720   6.630
11623TIP3    H234813   3.779   6.646   6.647
11624TIP3   OH234814   7.215   2.561   0.935
11624TIP3    H134815   7.147   2.542   0.999
11624TIP3    H234816   7.173   2.550   0.850
11625TIP3   OH234817   0.473   7.828   4.152
11625TIP3    H134818   0.560   7.804   4.121
11625TIP3    H234819   0.481   7.829   4.247
11626TIP3   OH234820   3.397   5.237   5.778
11626TIP3    H134821   3.389   5.273   5.866
11626TIP3    H234822   3.361   5.148   5.784
11627TIP3   OH234823   1.807   5.664   6.521
11627TIP3    H134824   1.740   5.733   6.523
11627TIP3    H234825   1.772   5.599   6.460
11628TIP3   OH234826   7.817   0.242   5.787
11628TIP3    H134827   7.879   0.241   5.859
11628TIP3    H234828   7.851   0.177   5.725
11629TIP3   OH234829   7.703   5.630   2.743
11629TIP3    H134830   7.661   5.709   2.710
11629TIP3    H234831   7.668   5.618   2.831
11630TIP3   OH234832   4.666   1.080   2.959
11630TIP3    H134833   4.658   1.046   3.048
11630TIP3    H234834   4.650   1.003   2.903
11631TIP3   OH234835   8.014   5.175   1.315
11631TIP3    H134836   7.998   5.233   1.389
11631TIP3    H234837   8.038   5.091   1.354
11632TIP3   OH234838   6.408   6.831   0.451
11632TIP3    H134839   6.339   6.766   0.464
11632TIP3    H234840   6.432   6.823   0.359
11633TIP3   OH234841   0.589   6.638   1.398
11633TIP3    H134842   0.552   6.692   1.468
11633TIP3    H234843   0.513   6.598   1.356
11634TIP3   OH234844   0.295   1.665   1.088
11634TIP3    H134845   0.280   1.574   1.114
11634TIP3    H234846   0.231   1.680   1.018
11635TIP3   OH234847   3.686   5.115   6.473
11635TIP3    H134848   3.611   5.166   6.443
11635TIP3    H234849   3.735   5.094   6.394
11636TIP3   OH234850   3.067   1.399   2.209
11636TIP3    H134851   3.095   1.457   2.138
11636TIP3    H234852   3.009   1.453   2.263
11637TIP3   OH234853   7.981   3.264   6.133
11637TIP3    H134854   8.004   3.171   6.123
11637TIP3    H234855   7.959   3.293   6.045
11638TIP3   OH234856   4.273   1.627   2.213
11638TIP3    H134857   4.315   1.684   2.278
11638TIP3    H234858   4.291   1.538   2.243
11639TIP3   OH234859   1.792   5.541   3.299
11639TIP3    H134860   1.830   5.616   3.345
11639TIP3    H234861   1.791   5.471   3.364
11640TIP3   OH234862   5.647   0.646   1.820
11640TIP3    H134863   5.638   0.605   1.734
11640TIP3    H234864   5.563   0.629   1.863
11641TIP3   OH234865   0.854   6.814   6.616
11641TIP3    H134866   0.802   6.738   6.588
11641TIP3    H234867   0.942   6.796   6.583
11642TIP3   OH234868   4.481   4.092   4.991
11642TIP3    H134869   4.492   3.999   4.974
11642TIP3    H234870   4.400   4.098   5.042
11643TIP3   OH234871   0.936   5.070   1.001
11643TIP3    H134872   0.865   5.007   1.015
11643TIP3    H234873   0.912   5.116   0.920
11644TIP3   OH234874   0.200   7.374   1.045
11644TIP3    H134875   0.169   7.294   1.003
11644TIP3    H234876   0.182   7.360   1.138
11645TIP3   OH234877   0.099   2.267   2.061
11645TIP3    H134878   0.008   2.290   2.043
11645TIP3    H234879   0.094   2.184   2.108
11646TIP3   OH234880   2.848   6.791   2.097
11646TIP3    H134881   2.805   6.706   2.083
11646TIP3    H234882   2.892   6.810   2.014
11647TIP3   OH234883   6.551   4.042   4.425
11647TIP3    H134884   6.605   4.104   4.476
11647TIP3    H234885   6.613   3.996   4.369
11648TIP3   OH234886   3.737   2.691   2.187
11648TIP3    H134887   3.735   2.603   2.226
11648TIP3    H234888   3.725   2.750   2.261
11649TIP3   OH234889   1.360   1.404   4.474
11649TIP3    H134890   1.353   1.403   4.378
11649TIP3    H234891   1.289   1.345   4.503
11650TIP3   OH234892   3.742   2.865   0.870
11650TIP3    H134893   3.797   2.863   0.948
11650TIP3    H234894   3.747   2.955   0.838
11651TIP3   OH234895   8.205   4.384   5.792
11651TIP3    H134896   8.264   4.371   5.717
11651TIP3    H234897   8.154   4.462   5.768
11652TIP3   OH234898   0.097   5.203   4.853
11652TIP3    H134899   0.132   5.267   4.791
11652TIP3    H234900   0.162   5.133   4.856
11653TIP3   OH234901   1.692   5.906   3.223
11653TIP3    H134902   1.711   5.847   3.150
11653TIP3    H234903   1.599   5.925   3.215
11654TIP3   OH234904   0.885   0.500   3.116
11654TIP3    H134905   0.890   0.410   3.146
11654TIP3    H234906   0.976   0.529   3.110
11655TIP3   OH234907   0.807   5.372   0.966
11655TIP3    H134908   0.802   5.296   1.023
11655TIP3    H234909   0.901   5.384   0.949
11656TIP3   OH234910   7.384   5.545   2.693
11656TIP3    H134911   7.356   5.488   2.764
11656TIP3    H234912   7.444   5.607   2.734
11657TIP3   OH234913   2.168   7.574   2.437
11657TIP3    H134914   2.198   7.660   2.465
11657TIP3    H234915   2.183   7.518   2.514
11658TIP3   OH234916   3.823   6.363   3.383
11658TIP3    H134917   3.846   6.366   3.476
11658TIP3    H234918   3.801   6.271   3.367
11659TIP3   OH234919   2.780   3.387   2.448
11659TIP3    H134920   2.789   3.349   2.535
11659TIP3    H234921   2.866   3.379   2.408
11660TIP3   OH234922   4.547   0.935   4.990
11660TIP3    H134923   4.466   0.973   5.027
11660TIP3    H234924   4.603   0.922   5.066
11661TIP3   OH234925   0.968   0.627   1.392
11661TIP3    H134926   1.010   0.582   1.319
11661TIP3    H234927   0.974   0.564   1.465
11662TIP3   OH234928   7.840   7.435   6.105
11662TIP3    H134929   7.912   7.405   6.050
11662TIP3    H234930   7.838   7.374   6.178
11663TIP3   OH234931   2.792   5.481   0.253
11663TIP3    H134932   2.815   5.455   0.164
11663TIP3    H234933   2.790   5.399   0.302
11664TIP3   OH234934   2.644   0.174   2.275
11664TIP3    H134935   2.589   0.105   2.238
11664TIP3    H234936   2.635   0.247   2.214
11665TIP3   OH234937   4.925   6.438   0.085
11665TIP3    H134938   4.859   6.379   0.121
11665TIP3    H234939   4.891   6.526   0.101
11666TIP3   OH234940   3.275   5.940   2.207
11666TIP3    H134941   3.359   5.903   2.234
11666TIP3    H234942   3.244   5.988   2.283
11667TIP3   OH234943   6.844   2.028   4.532
11667TIP3    H134944   6.926   1.978   4.537
11667TIP3    H234945   6.871   2.118   4.551
11668TIP3   OH234946   4.208   5.149   6.183
11668TIP3    H134947   4.174   5.239   6.185
11668TIP3    H234948   4.194   5.119   6.094
11669TIP3   OH234949   7.303   4.128   2.841
11669TIP3    H134950   7.295   4.220   2.816
11669TIP3    H234951   7.303   4.129   2.937
11670TIP3   OH234952   3.153   0.442   0.785
11670TIP3    H134953   3.115   0.493   0.856
11670TIP3    H234954   3.165   0.504   0.714
11671TIP3   OH234955   0.719   0.659   6.228
11671TIP3    H134956   0.743   0.733   6.284
11671TIP3    H234957   0.797   0.603   6.227
11672TIP3   OH234958   3.825   5.679   2.347
11672TIP3    H134959   3.822   5.590   2.312
11672TIP3    H234960   3.896   5.722   2.300
11673TIP3   OH234961   1.468   4.048   0.850
11673TIP3    H134962   1.443   4.106   0.922
11673TIP3    H234963   1.450   3.960   0.882
11674TIP3   OH234964   4.654   1.824   3.072
11674TIP3    H134965   4.692   1.780   3.148
11674TIP3    H234966   4.715   1.896   3.054
11675TIP3   OH234967   1.625   0.206   2.239
11675TIP3    H134968   1.713   0.195   2.204
11675TIP3    H234969   1.600   0.119   2.268
11676TIP3   OH234970   1.676   1.554   1.766
11676TIP3    H134971   1.666   1.649   1.757
11676TIP3    H234972   1.723   1.527   1.687
11677TIP3   OH234973   5.678   3.963   4.899
11677TIP3    H134974   5.699   3.925   4.813
11677TIP3    H234975   5.667   3.886   4.956
11678TIP3   OH234976   1.765   5.821   0.301
11678TIP3    H134977   1.841   5.765   0.285
11678TIP3    H234978   1.802   5.905   0.329
11679TIP3   OH234979   7.453   1.595   5.142
11679TIP3    H134980   7.461   1.682   5.102
11679TIP3    H234981   7.520   1.542   5.098
11680TIP3   OH234982   6.081   7.619   5.140
11680TIP3    H134983   6.161   7.655   5.103
11680TIP3    H234984   6.026   7.599   5.065
11681TIP3   OH234985   0.339   2.023   3.449
11681TIP3    H134986   0.359   1.943   3.499
11681TIP3    H234987   0.405   2.025   3.381
11682TIP3   OH234988   6.793   1.474   5.334
11682TIP3    H134989   6.719   1.433   5.380
11682TIP3    H234990   6.754   1.547   5.285
11683TIP3   OH234991   4.790   4.519   3.697
11683TIP3    H134992   4.876   4.518   3.740
11683TIP3    H234993   4.767   4.426   3.688
11684TIP3   OH234994   2.268   6.826   2.231
11684TIP3    H134995   2.360   6.829   2.205
11684TIP3    H234996   2.232   6.750   2.185
11685TIP3   OH234997   7.174   3.364   3.654
11685TIP3    H134998   7.230   3.414   3.594
11685TIP3    H234999   7.091   3.355   3.608
11686TIP3   OH235000   2.063   3.634   4.289
11686TIP3    H135001   2.073   3.540   4.278
11686TIP3    H235002   1.980   3.644   4.336
11687TIP3   OH235003   6.007   3.174   3.145
11687TIP3    H135004   6.000   3.165   3.240
11687TIP3    H235005   6.098   3.198   3.130
11688TIP3   OH235006   8.164   5.827   2.345
11688TIP3    H135007   8.167   5.830   2.441
11688TIP3    H235008   8.108   5.752   2.325
11689TIP3   OH235009   6.695   3.661   6.166
11689TIP3    H135010   6.721   3.601   6.236
11689TIP3    H235011   6.633   3.720   6.207
11690TIP3   OH235012   3.120   4.477   3.155
11690TIP3    H135013   3.207   4.473   3.116
11690TIP3    H235014   3.060   4.453   3.084
11691TIP3   OH235015   6.329   5.777   0.622
11691TIP3    H135016   6.264   5.714   0.654
11691TIP3    H235017   6.390   5.787   0.694
11692TIP3   OH235018   1.457   5.894   5.467
11692TIP3    H135019   1.476   5.978   5.424
11692TIP3    H235020   1.460   5.830   5.396
11693TIP3   OH235021   7.589   2.565   2.250
11693TIP3    H135022   7.628   2.573   2.163
11693TIP3    H235023   7.650   2.509   2.298
11694TIP3   OH235024   7.062   2.100   6.551
11694TIP3    H135025   7.140   2.096   6.607
11694TIP3    H235026   7.067   2.020   6.498
11695TIP3   OH235027   1.367   1.154   5.369
11695TIP3    H135028   1.350   1.204   5.289
11695TIP3    H235029   1.462   1.138   5.368
11696TIP3   OH235030   1.948   7.563   5.294
11696TIP3    H135031   1.932   7.503   5.222
11696TIP3    H235032   1.866   7.612   5.302
11697TIP3   OH235033   4.411   1.808   0.408
11697TIP3    H135034   4.383   1.719   0.386
11697TIP3    H235035   4.482   1.828   0.347
11698TIP3   OH235036   2.896   1.341   1.957
11698TIP3    H135037   2.894   1.410   1.890
11698TIP3    H235038   2.829   1.279   1.929
11699TIP3   OH235039   0.175   7.337   1.315
11699TIP3    H135040   0.179   7.245   1.341
11699TIP3    H235041   0.110   7.375   1.374
11700TIP3   OH235042   7.146   5.703   5.459
11700TIP3    H135043   7.064   5.685   5.505
11700TIP3    H235044   7.207   5.638   5.494
11701TIP3   OH235045   7.611   7.072   3.612
11701TIP3    H135046   7.557   7.138   3.656
11701TIP3    H235047   7.683   7.122   3.574
11702TIP3   OH235048   3.647   5.186   1.323
11702TIP3    H135049   3.565   5.136   1.317
11702TIP3    H235050   3.693   5.167   1.242
11703TIP3   OH235051   7.448   0.396   3.907
11703TIP3    H135052   7.386   0.344   3.855
11703TIP3    H235053   7.530   0.348   3.903
11704TIP3   OH235054   5.631   0.662   0.705
11704TIP3    H135055   5.627   0.569   0.727
11704TIP3    H235056   5.638   0.706   0.790
11705TIP3   OH235057   6.731   7.555   6.036
11705TIP3    H135058   6.818   7.566   5.997
11705TIP3    H235059   6.671   7.558   5.962
11706TIP3   OH235060   0.100   6.001   0.989
11706TIP3    H135061   0.011   6.036   0.989
11706TIP3    H235062   0.137   6.032   1.072
11707TIP3   OH235063   5.651   2.199   0.837
11707TIP3    H135064   5.574   2.229   0.789
11707TIP3    H235065   5.726   2.236   0.790
11708TIP3   OH235066   0.856   2.203   4.764
11708TIP3    H135067   0.892   2.160   4.686
11708TIP3    H235068   0.786   2.145   4.794
11709TIP3   OH235069   3.427   1.322   5.936
11709TIP3    H135070   3.361   1.252   5.940
11709TIP3    H235071   3.511   1.276   5.938
11710TIP3   OH235072   7.133   4.862   4.993
11710TIP3    H135073   7.088   4.881   5.075
11710TIP3    H235074   7.120   4.768   4.979
11711TIP3   OH235075   4.034   1.424   6.504
11711TIP3    H135076   4.128   1.409   6.514
11711TIP3    H235077   4.027   1.483   6.429
11712TIP3   OH235078   4.506   5.969   4.028
11712TIP3    H135079   4.595   5.996   4.053
11712TIP3    H235080   4.519   5.917   3.949
11713TIP3   OH235081   0.693   5.400   4.122
11713TIP3    H135082   0.737   5.485   4.120
11713TIP3    H235083   0.735   5.353   4.194
11714TIP3   OH235084   7.775   2.495   4.841
11714TIP3    H135085   7.729   2.485   4.925
11714TIP3    H235086   7.795   2.405   4.816
11715TIP3   OH235087   5.127   1.919   1.899
11715TIP3    H135088   5.102   1.830   1.921
11715TIP3    H235089   5.221   1.924   1.918
11716TIP3   OH235090   1.228   4.686   6.100
11716TIP3    H135091   1.198   4.701   6.011
11716TIP3    H235092   1.304   4.744   6.109
11717TIP3   OH235093   0.292   4.925   5.216
11717TIP3    H135094   0.307   4.850   5.274
11717TIP3    H235095   0.253   4.885   5.137
11718TIP3   OH235096   5.377   3.286   6.103
11718TIP3    H135097   5.336   3.286   6.017
11718TIP3    H235098   5.315   3.334   6.159
11719TIP3   OH235099   3.570   3.885   2.400
11719TIP3    H135100   3.533   3.874   2.487
11719TIP3    H235101   3.556   3.978   2.379
11720TIP3   OH235102   4.907   4.191   5.255
11720TIP3    H135103   4.915   4.256   5.185
11720TIP3    H235104   4.814   4.187   5.275
11721TIP3   OH235105   1.334   6.434   6.682
11721TIP3    H135106   1.325   6.449   6.776
11721TIP3    H235107   1.341   6.339   6.673
11722TIP3   OH235108   6.011   5.663   6.721
11722TIP3    H135109   6.004   5.635   6.813
11722TIP3    H235110   6.098   5.702   6.715
11723TIP3   OH235111   4.511   4.379   6.150
11723TIP3    H135112   4.539   4.432   6.076
11723TIP3    H235113   4.532   4.289   6.126
11724TIP3   OH235114   4.255   0.627   3.893
11724TIP3    H135115   4.271   0.621   3.799
11724TIP3    H235116   4.175   0.680   3.900
11725TIP3   OH235117   1.333   4.559   1.416
11725TIP3    H135118   1.333   4.474   1.373
11725TIP3    H235119   1.408   4.605   1.378
11726TIP3   OH235120   6.955   5.344   6.405
11726TIP3    H135121   6.863   5.371   6.408
11726TIP3    H235122   6.954   5.264   6.354
11727TIP3   OH235123   5.606   0.365   4.267
11727TIP3    H135124   5.664   0.424   4.316
11727TIP3    H235125   5.664   0.324   4.203
11728TIP3   OH235126   2.157   0.868   3.225
11728TIP3    H135127   2.226   0.838   3.284
11728TIP3    H235128   2.148   0.798   3.160
11729TIP3   OH235129   5.904   0.908   0.163
11729TIP3    H135130   5.932   0.974   0.099
11729TIP3    H235131   5.855   0.844   0.112
11730TIP3   OH235132   2.550   6.546   5.775
11730TIP3    H135133   2.463   6.508   5.778
11730TIP3    H235134   2.546   6.620   5.835
11731TIP3   OH235135   5.769   5.200   4.067
11731TIP3    H135136   5.707   5.133   4.098
11731TIP3    H235137   5.846   5.187   4.122
11732TIP3   OH235138   7.002   2.686   2.551
11732TIP3    H135139   6.946   2.679   2.474
11732TIP3    H235140   7.059   2.761   2.532
11733TIP3   OH235141   5.479   4.759   2.107
11733TIP3    H135142   5.419   4.713   2.049
11733TIP3    H235143   5.516   4.829   2.054
11734TIP3   OH235144   2.093   5.858   0.517
11734TIP3    H135145   2.052   5.776   0.490
11734TIP3    H235146   2.182   5.834   0.540
11735TIP3   OH235147   2.709   4.672   5.263
11735TIP3    H135148   2.624   4.661   5.220
11735TIP3    H235149   2.755   4.737   5.209
11736TIP3   OH235150   4.034   0.916   5.245
11736TIP3    H135151   4.087   0.984   5.286
11736TIP3    H235152   4.030   0.845   5.309
11737TIP3   OH235153   3.476   0.892   6.614
11737TIP3    H135154   3.539   0.835   6.658
11737TIP3    H235155   3.392   0.849   6.626
11738TIP3   OH235156   4.402   4.582   4.628
11738TIP3    H135157   4.354   4.535   4.560
11738TIP3    H235158   4.339   4.596   4.698
11739TIP3   OH235159   8.036   1.640   3.040
11739TIP3    H135160   8.114   1.663   3.091
11739TIP3    H235161   8.072   1.606   2.957
11740TIP3   OH235162   2.327   4.191   3.053
11740TIP3    H135163   2.232   4.192   3.042
11740TIP3    H235164   2.340   4.163   3.144
11741TIP3   OH235165   7.241   4.683   2.507
11741TIP3    H135166   7.321   4.634   2.526
11741TIP3    H235167   7.174   4.616   2.492
11742TIP3   OH235168   6.626   5.366   1.769
11742TIP3    H135169   6.590   5.455   1.766
11742TIP3    H235170   6.710   5.376   1.815
11743TIP3   OH235171   5.294   5.128   2.559
11743TIP3    H135172   5.381   5.112   2.522
11743TIP3    H235173   5.290   5.072   2.637
11744TIP3   OH235174   6.498   2.396   1.381
11744TIP3    H135175   6.481   2.303   1.372
11744TIP3    H235176   6.440   2.425   1.452
11745TIP3   OH235177   5.377   4.160   5.830
11745TIP3    H135178   5.290   4.143   5.795
11745TIP3    H235179   5.378   4.255   5.844
11746TIP3   OH235180   3.920   2.653   0.741
11746TIP3    H135181   3.864   2.588   0.698
11746TIP3    H235182   3.864   2.690   0.809
11747TIP3   OH235183   1.295   6.582   4.862
11747TIP3    H135184   1.280   6.635   4.941
11747TIP3    H235185   1.376   6.535   4.881
11748TIP3   OH235186   1.145   0.269   0.661
11748TIP3    H135187   1.223   0.323   0.674
11748TIP3    H235188   1.180   0.183   0.637
11749TIP3   OH235189   6.180   3.085   3.596
11749TIP3    H135190   6.207   3.136   3.672
11749TIP3    H235191   6.260   3.076   3.544
11750TIP3   OH235192   6.915   5.097   0.065
11750TIP3    H135193   6.957   5.019   0.102
11750TIP3    H235194   6.882   5.145   0.141
11751TIP3   OH235195   6.221   7.422   3.391
11751TIP3    H135196   6.294   7.360   3.389
11751TIP3    H235197   6.144   7.368   3.405
11752TIP3   OH235198   2.951   7.749   6.306
11752TIP3    H135199   2.888   7.794   6.249
11752TIP3    H235200   2.903   7.674   6.340
11753TIP3   OH235201   4.718   2.329   1.923
11753TIP3    H135202   4.694   2.390   1.993
11753TIP3    H235203   4.714   2.243   1.964
11754TIP3   OH235204   1.455   1.050   2.389
11754TIP3    H135205   1.520   1.120   2.389
11754TIP3    H235206   1.492   0.983   2.447
11755TIP3   OH235207   0.929   1.144   4.449
11755TIP3    H135208   0.846   1.169   4.491
11755TIP3    H235209   0.937   1.050   4.467
11756TIP3   OH235210   0.184   7.057   4.684
11756TIP3    H135211   0.103   7.008   4.673
11756TIP3    H235212   0.169   7.112   4.761
11757TIP3   OH235213   6.111   7.503   4.645
11757TIP3    H135214   6.113   7.532   4.554
11757TIP3    H235215   6.155   7.572   4.694
11758TIP3   OH235216   7.399   5.130   5.410
11758TIP3    H135217   7.375   5.048   5.368
11758TIP3    H235218   7.465   5.106   5.475
11759TIP3   OH235219   1.148   4.254   1.367
11759TIP3    H135220   1.148   4.161   1.387
11759TIP3    H235221   1.109   4.296   1.444
11760TIP3   OH235222   1.969   7.802   3.308
11760TIP3    H135223   1.912   7.729   3.332
11760TIP3    H235224   1.910   7.868   3.271
11761TIP3   OH235225   1.528   7.536   0.697
11761TIP3    H135226   1.575   7.488   0.629
11761TIP3    H235227   1.438   7.505   0.690
11762TIP3   OH235228   3.613   3.225   6.373
11762TIP3    H135229   3.666   3.303   6.361
11762TIP3    H235230   3.659   3.157   6.324
11763TIP3   OH235231   5.385   1.856   4.338
11763TIP3    H135232   5.465   1.862   4.287
11763TIP3    H235233   5.406   1.797   4.411
11764TIP3   OH235234   5.536   6.985   1.319
11764TIP3    H135235   5.578   6.906   1.353
11764TIP3    H235236   5.586   7.008   1.241
11765TIP3   OH235237   7.941   0.612   4.485
11765TIP3    H135238   7.905   0.640   4.569
11765TIP3    H235239   7.864   0.593   4.431
11766TIP3   OH235240   0.394   3.951   0.676
11766TIP3    H135241   0.390   4.010   0.601
11766TIP3    H235242   0.394   3.863   0.638
11767TIP3   OH235243   0.499   6.979   2.222
11767TIP3    H135244   0.525   7.053   2.276
11767TIP3    H235245   0.518   7.007   2.132
11768TIP3   OH235246   2.863   4.227   5.276
11768TIP3    H135247   2.804   4.220   5.351
11768TIP3    H235248   2.848   4.316   5.242
11769TIP3   OH235249   0.192   3.298   1.485
11769TIP3    H135250   0.247   3.354   1.540
11769TIP3    H235251   0.199   3.335   1.397
11770TIP3   OH235252   3.242   0.610   1.988
11770TIP3    H135253   3.233   0.698   2.025
11770TIP3    H235254   3.187   0.555   2.044
11771TIP3   OH235255   7.750   0.885   0.255
11771TIP3    H135256   7.655   0.877   0.247
11771TIP3    H235257   7.771   0.966   0.208
11772TIP3   OH235258   3.399   6.946   4.918
11772TIP3    H135259   3.478   6.901   4.949
11772TIP3    H235260   3.385   7.016   4.980
11773TIP3   OH235261   3.881   4.588   6.679
11773TIP3    H135262   3.794   4.617   6.706
11773TIP3    H235263   3.940   4.626   6.743
11774TIP3   OH235264   3.616   6.923   3.537
11774TIP3    H135265   3.573   6.999   3.575
11774TIP3    H235266   3.602   6.932   3.443
11775TIP3   OH235267   1.617   7.023   2.191
11775TIP3    H135268   1.689   7.086   2.195
11775TIP3    H235269   1.541   7.072   2.222
11776TIP3   OH235270   5.877   7.773   0.788
11776TIP3    H135271   5.932   7.724   0.727
11776TIP3    H235272   5.879   7.863   0.755
11777TIP3   OH235273   4.970   5.846   6.428
11777TIP3    H135274   4.895   5.867   6.484
11777TIP3    H235275   4.993   5.928   6.385
11778TIP3   OH235276   0.447   2.103   6.300
11778TIP3    H135277   0.493   2.130   6.220
11778TIP3    H235278   0.426   2.185   6.345
11779TIP3   OH235279   1.644   3.366   3.893
11779TIP3    H135280   1.624   3.298   3.829
11779TIP3    H235281   1.665   3.319   3.973
11780TIP3   OH235282   7.710   2.876   3.098
11780TIP3    H135283   7.717   2.958   3.050
11780TIP3    H235284   7.629   2.836   3.066
11781TIP3   OH235285   6.075   6.560   0.841
11781TIP3    H135286   6.040   6.644   0.809
11781TIP3    H235287   6.149   6.542   0.782
11782TIP3   OH235288   5.584   2.523   5.271
11782TIP3    H135289   5.588   2.445   5.216
11782TIP3    H235290   5.494   2.525   5.303
11783TIP3   OH235291   2.771   0.714   3.260
11783TIP3    H135292   2.777   0.715   3.164
11783TIP3    H235293   2.683   0.747   3.279
11784TIP3   OH235294   6.703   6.250   5.969
11784TIP3    H135295   6.655   6.280   5.892
11784TIP3    H235296   6.733   6.330   6.012
11785TIP3   OH235297   6.851   5.153   5.839
11785TIP3    H135298   6.828   5.222   5.776
11785TIP3    H235299   6.946   5.161   5.850
11786TIP3   OH235300   1.236   4.178   6.078
11786TIP3    H135301   1.247   4.267   6.042
11786TIP3    H235302   1.323   4.154   6.109
11787TIP3   OH235303   2.630   1.819   4.338
11787TIP3    H135304   2.537   1.840   4.326
11787TIP3    H235305   2.637   1.792   4.430
11788TIP3   OH235306   2.092   3.851   6.060
11788TIP3    H135307   2.091   3.755   6.053
11788TIP3    H235308   2.090   3.868   6.154
11789TIP3   OH235309   6.592   1.258   1.640
11789TIP3    H135310   6.518   1.245   1.580
11789TIP3    H235311   6.662   1.204   1.604
11790TIP3   OH235312   8.233   5.894   0.462
11790TIP3    H135313   8.196   5.806   0.471
11790TIP3    H235314   8.285   5.905   0.542
11791TIP3   OH235315   2.537   6.160   1.714
11791TIP3    H135316   2.454   6.204   1.694
11791TIP3    H235317   2.605   6.219   1.683
11792TIP3   OH235318   7.985   4.451   6.031
11792TIP3    H135319   8.024   4.367   6.055
11792TIP3    H235320   7.997   4.457   5.936
11793TIP3   OH235321   1.214   4.317   4.987
11793TIP3    H135322   1.306   4.299   4.966
11793TIP3    H235323   1.198   4.269   5.068
11794TIP3   OH235324   2.676   2.169   0.358
11794TIP3    H135325   2.687   2.140   0.449
11794TIP3    H235326   2.708   2.096   0.305
11795TIP3   OH235327   1.761   3.077   5.373
11795TIP3    H135328   1.853   3.067   5.395
11795TIP3    H235329   1.739   2.997   5.325
11796TIP3   OH235330   1.654   6.364   6.058
11796TIP3    H135331   1.642   6.299   6.126
11796TIP3    H235332   1.565   6.385   6.030
11797TIP3   OH235333   4.358   4.071   5.492
11797TIP3    H135334   4.358   4.073   5.588
11797TIP3    H235335   4.273   4.033   5.469
11798TIP3   OH235336   1.755   3.006   5.676
11798TIP3    H135337   1.675   3.049   5.647
11798TIP3    H235338   1.787   2.959   5.599
11799TIP3   OH235339   8.167   3.822   3.700
11799TIP3    H135340   8.180   3.831   3.606
11799TIP3    H235341   8.128   3.736   3.711
11800TIP3   OH235342   2.115   2.246   6.250
11800TIP3    H135343   2.182   2.302   6.211
11800TIP3    H235344   2.138   2.242   6.343
11801TIP3   OH235345   7.507   5.421   1.030
11801TIP3    H135346   7.566   5.495   1.047
11801TIP3    H235347   7.563   5.343   1.039
11802TIP3   OH235348   0.801   4.976   0.395
11802TIP3    H135349   0.775   5.005   0.308
11802TIP3    H235350   0.830   5.056   0.439
11803TIP3   OH235351   2.789   6.883   2.372
11803TIP3    H135352   2.876   6.854   2.399
11803TIP3    H235353   2.741   6.802   2.357
11804TIP3   OH235354   3.561   5.786   0.380
11804TIP3    H135355   3.472   5.808   0.353
11804TIP3    H235356   3.583   5.850   0.448
11805TIP3   OH235357   7.476   0.661   4.851
11805TIP3    H135358   7.559   0.627   4.820
11805TIP3    H235359   7.412   0.594   4.826
11806TIP3   OH235360   6.967   3.648   1.884
11806TIP3    H135361   6.892   3.695   1.847
11806TIP3    H235362   7.044   3.696   1.852
11807TIP3   OH235363   4.787   6.262   2.389
11807TIP3    H135364   4.697   6.259   2.420
11807TIP3    H235365   4.810   6.355   2.392
11808TIP3   OH235366   1.186   5.205   0.248
11808TIP3    H135367   1.114   5.267   0.262
11808TIP3    H235368   1.265   5.259   0.249
11809TIP3   OH235369   4.247  -0.025   3.265
11809TIP3    H135370   4.277   0.064   3.248
11809TIP3    H235371   4.168  -0.013   3.318
11810TIP3   OH235372   6.702   1.212   6.560
11810TIP3    H135373   6.692   1.248   6.472
11810TIP3    H235374   6.768   1.143   6.550
11811TIP3   OH235375   4.854   6.391   1.284
11811TIP3    H135376   4.813   6.319   1.236
11811TIP3    H235377   4.898   6.348   1.358
11812TIP3   OH235378   0.831   6.124   3.451
11812TIP3    H135379   0.873   6.187   3.392
11812TIP3    H235380   0.751   6.098   3.406
11813TIP3   OH235381   7.361   6.566   2.411
11813TIP3    H135382   7.369   6.600   2.501
11813TIP3    H235383   7.279   6.604   2.379
11814TIP3   OH235384   7.900   7.224   3.802
11814TIP3    H135385   7.880   7.288   3.733
11814TIP3    H235386   7.986   7.250   3.834
11815TIP3   OH235387   4.939   5.586   6.233
11815TIP3    H135388   4.977   5.671   6.255
11815TIP3    H235389   4.861   5.607   6.182
11816TIP3   OH235390   1.320   4.848   1.229
11816TIP3    H135391   1.277   4.857   1.315
11816TIP3    H235392   1.413   4.849   1.249
11817TIP3   OH235393   1.126   7.496   2.460
11817TIP3    H135394   1.050   7.489   2.519
11817TIP3    H235395   1.200   7.510   2.518
11818TIP3   OH235396   0.101   1.712   4.525
11818TIP3    H135397   0.075   1.785   4.469
11818TIP3    H235398   0.137   1.753   4.604
11819TIP3   OH235399   3.067   5.420   1.395
11819TIP3    H135400   3.099   5.454   1.311
11819TIP3    H235401   2.972   5.414   1.384
11820TIP3   OH235402   7.523   7.342   5.494
11820TIP3    H135403   7.600   7.291   5.469
11820TIP3    H235404   7.524   7.419   5.437
11821TIP3   OH235405   0.442   5.308   2.009
11821TIP3    H135406   0.502   5.360   1.955
11821TIP3    H235407   0.388   5.372   2.054
11822TIP3   OH235408   3.488   2.031   0.403
11822TIP3    H135409   3.453   2.006   0.488
11822TIP3    H235410   3.482   2.127   0.402
11823TIP3   OH235411   5.895   7.502   0.998
11823TIP3    H135412   5.870   7.453   1.076
11823TIP3    H235413   5.812   7.531   0.961
11824TIP3   OH235414   4.850   2.100   5.039
11824TIP3    H135415   4.911   2.026   5.043
11824TIP3    H235416   4.893   2.162   4.980
11825TIP3   OH235417   6.374   6.734   0.808
11825TIP3    H135418   6.419   6.673   0.750
11825TIP3    H235419   6.283   6.705   0.809
11826TIP3   OH235420   1.865   3.083   4.251
11826TIP3    H135421   1.800   3.138   4.208
11826TIP3    H235422   1.928   3.062   4.183
11827TIP3   OH235423   6.217   5.168   5.829
11827TIP3    H135424   6.258   5.083   5.844
11827TIP3    H235425   6.287   5.231   5.848
11828TIP3   OH235426   4.474   0.106   5.712
11828TIP3    H135427   4.514   0.064   5.788
11828TIP3    H235428   4.441   0.190   5.746
11829TIP3   OH235429   3.648   4.127   0.443
11829TIP3    H135430   3.717   4.182   0.480
11829TIP3    H235431   3.661   4.042   0.485
11830TIP3   OH235432   5.614   6.979   6.441
11830TIP3    H135433   5.700   6.937   6.451
11830TIP3    H235434   5.569   6.961   6.524
11831TIP3   OH235435   2.052   2.305   0.303
11831TIP3    H135436   2.119   2.237   0.305
11831TIP3    H235437   1.993   2.282   0.375
11832TIP3   OH235438   5.178   2.227   0.577
11832TIP3    H135439   5.099   2.241   0.630
11832TIP3    H235440   5.158   2.270   0.494
11833TIP3   OH235441   8.176   5.347   0.452
11833TIP3    H135442   8.205   5.289   0.382
11833TIP3    H235443   8.081   5.353   0.442
11834TIP3   OH235444   6.621   3.710   3.852
11834TIP3    H135445   6.566   3.708   3.930
11834TIP3    H235446   6.567   3.753   3.786
11835TIP3   OH235447   0.985   2.379   1.995
11835TIP3    H135448   0.912   2.422   2.039
11835TIP3    H235449   0.955   2.290   1.978
11836TIP3   OH235450   5.876   7.776   2.367
11836TIP3    H135451   5.876   7.680   2.364
11836TIP3    H235452   5.784   7.799   2.379
11837TIP3   OH235453   5.999   0.194   3.471
11837TIP3    H135454   5.910   0.214   3.444
11837TIP3    H235455   6.000   0.210   3.565
11838TIP3   OH235456   4.943   6.382   0.436
11838TIP3    H135457   4.992   6.304   0.410
11838TIP3    H235458   4.853   6.352   0.447
11839TIP3   OH235459   3.917   5.372   1.273
11839TIP3    H135460   3.932   5.396   1.365
11839TIP3    H235461   3.830   5.406   1.253
11840TIP3   OH235462   6.861   0.462   5.528
11840TIP3    H135463   6.910   0.392   5.486
11840TIP3    H235464   6.792   0.418   5.577
11841TIP3   OH235465   1.616   2.276   3.910
11841TIP3    H135466   1.708   2.251   3.925
11841TIP3    H235467   1.606   2.273   3.815
11842TIP3   OH235468   1.140   6.021   2.148
11842TIP3    H135469   1.070   6.032   2.212
11842TIP3    H235470   1.123   6.090   2.083
11843TIP3   OH235471   1.172   6.648   4.604
11843TIP3    H135472   1.122   6.717   4.647
11843TIP3    H235473   1.252   6.641   4.656
11844TIP3   OH235474   3.204   5.871   3.820
11844TIP3    H135475   3.250   5.948   3.854
11844TIP3    H235476   3.260   5.797   3.845
11845TIP3   OH235477   3.766   3.634   2.588
11845TIP3    H135478   3.697   3.588   2.540
11845TIP3    H235479   3.847   3.594   2.556
11846TIP3   OH235480   7.185   7.281   2.779
11846TIP3    H135481   7.223   7.271   2.866
11846TIP3    H235482   7.221   7.207   2.729
11847TIP3   OH235483   3.360   7.293   6.727
11847TIP3    H135484   3.288   7.342   6.768
11847TIP3    H235485   3.317   7.236   6.663
11848TIP3   OH235486   6.273   3.802   3.192
11848TIP3    H135487   6.201   3.840   3.141
11848TIP3    H235488   6.230   3.742   3.253
11849TIP3   OH235489   4.598   0.691   0.222
11849TIP3    H135490   4.643   0.762   0.176
11849TIP3    H235491   4.506   0.700   0.194
11850TIP3   OH235492   0.123   5.603   0.780
11850TIP3    H135493   0.190   5.642   0.725
11850TIP3    H235494   0.117   5.512   0.750
11851TIP3   OH235495   1.217   2.323   6.548
11851TIP3    H135496   1.132   2.292   6.578
11851TIP3    H235497   1.207   2.332   6.453
11852TIP3   OH235498   1.521   5.484   3.852
11852TIP3    H135499   1.519   5.545   3.926
11852TIP3    H235500   1.608   5.494   3.815
11853TIP3   OH235501   0.085   3.383   4.364
11853TIP3    H135502   0.170   3.421   4.342
11853TIP3    H235503   0.026   3.458   4.372
11854TIP3   OH235504   0.962   0.483   2.078
11854TIP3    H135505   0.870   0.469   2.054
11854TIP3    H235506   0.995   0.542   2.010
11855TIP3   OH235507   7.376   5.327   1.342
11855TIP3    H135508   7.352   5.234   1.345
11855TIP3    H235509   7.440   5.337   1.412
11856TIP3   OH235510   4.561   5.327   3.218
11856TIP3    H135511   4.640   5.333   3.163
11856TIP3    H235512   4.595   5.323   3.307
11857TIP3   OH235513   1.822   4.159   0.514
11857TIP3    H135514   1.762   4.229   0.488
11857TIP3    H235515   1.835   4.172   0.608
11858TIP3   OH235516   3.178   3.494   0.438
11858TIP3    H135517   3.212   3.465   0.522
11858TIP3    H235518   3.149   3.584   0.454
11859TIP3   OH235519   5.489   7.025   4.140
11859TIP3    H135520   5.437   7.092   4.183
11859TIP3    H235521   5.441   7.003   4.060
11860TIP3   OH235522   0.508   7.634   6.602
11860TIP3    H135523   0.525   7.555   6.653
11860TIP3    H235524   0.480   7.601   6.516
11861TIP3   OH235525   4.254   5.389   1.908
11861TIP3    H135526   4.238   5.320   1.844
11861TIP3    H235527   4.322   5.443   1.869
11862TIP3   OH235528   8.092   5.885   3.052
11862TIP3    H135529   8.075   5.829   2.977
11862TIP3    H235530   8.112   5.825   3.124
11863TIP3   OH235531   1.003   0.202   2.096
11863TIP3    H135532   1.006   0.289   2.058
11863TIP3    H235533   0.945   0.152   2.038
11864TIP3   OH235534   1.372   7.738   4.776
11864TIP3    H135535   1.410   7.657   4.743
11864TIP3    H235536   1.368   7.796   4.700
11865TIP3   OH235537   6.695   4.357   4.016
11865TIP3    H135538   6.777   4.308   4.012
11865TIP3    H235539   6.668   4.353   4.108
11866TIP3   OH235540   2.097   7.284   1.724
11866TIP3    H135541   2.013   7.329   1.716
11866TIP3    H235542   2.152   7.345   1.773
11867TIP3   OH235543   7.248   0.266   4.236
11867TIP3    H135544   7.330   0.305   4.268
11867TIP3    H235545   7.265   0.172   4.239
11868TIP3   OH235546   7.238   7.343   3.061
11868TIP3    H135547   7.246   7.281   3.133
11868TIP3    H235548   7.328   7.359   3.033
11869TIP3   OH235549   0.248   6.858   3.148
11869TIP3    H135550   0.315   6.926   3.153
11869TIP3    H235551   0.272   6.805   3.072
11870TIP3   OH235552   4.991   4.174   1.729
11870TIP3    H135553   4.901   4.206   1.716
11870TIP3    H235554   4.989   4.083   1.699
11871TIP3   OH235555   3.690   5.602   3.650
11871TIP3    H135556   3.625   5.632   3.587
11871TIP3    H235557   3.653   5.520   3.685
11872TIP3   OH235558   7.276   4.146   5.180
11872TIP3    H135559   7.264   4.084   5.252
11872TIP3    H235560   7.188   4.158   5.143
11873TIP3   OH235561   2.263   6.224   2.268
11873TIP3    H135562   2.184   6.222   2.322
11873TIP3    H235563   2.253   6.302   2.213
11874TIP3   OH235564   4.174   3.096   3.713
11874TIP3    H135565   4.182   3.012   3.758
11874TIP3    H235566   4.255   3.142   3.734
11875TIP3   OH235567   2.064   2.745   3.812
11875TIP3    H135568   2.068   2.652   3.836
11875TIP3    H235569   2.089   2.746   3.720
11876TIP3   OH235570   3.942   3.426   0.283
11876TIP3    H135571   3.896   3.483   0.343
11876TIP3    H235572   3.966   3.482   0.209
11877TIP3   OH235573   2.992   2.004   5.785
11877TIP3    H135574   2.933   2.064   5.832
11877TIP3    H235575   3.076   2.049   5.784
11878TIP3   OH235576   5.644   4.263   5.635
11878TIP3    H135577   5.689   4.194   5.683
11878TIP3    H235578   5.626   4.330   5.701
11879TIP3   OH235579   5.844   3.133   3.689
11879TIP3    H135580   5.807   3.045   3.692
11879TIP3    H235581   5.860   3.156   3.781
11880TIP3   OH235582   0.812   5.398   4.981
11880TIP3    H135583   0.747   5.466   4.968
11880TIP3    H235584   0.830   5.400   5.075
11881TIP3   OH235585   5.908   3.753   3.111
11881TIP3    H135586   5.925   3.834   3.062
11881TIP3    H235587   5.822   3.767   3.152
11882TIP3   OH235588   7.676   1.331   1.242
11882TIP3    H135589   7.636   1.306   1.159
11882TIP3    H235590   7.729   1.408   1.220
11883TIP3   OH235591   4.968   5.400   0.657
11883TIP3    H135592   5.009   5.451   0.728
11883TIP3    H235593   4.902   5.346   0.701
11884TIP3   OH235594   6.968   2.722   6.395
11884TIP3    H135595   6.987   2.728   6.302
11884TIP3    H235596   7.054   2.723   6.437
11885TIP3   OH235597   6.124   0.054   3.103
11885TIP3    H135598   6.175   0.041   3.183
11885TIP3    H235599   6.082   0.139   3.116
11886TIP3   OH235600   7.756   2.569   4.557
11886TIP3    H135601   7.755   2.533   4.645
11886TIP3    H235602   7.846   2.556   4.526
11887TIP3   OH235603   4.021   5.940   6.667
11887TIP3    H135604   4.012   5.855   6.625
11887TIP3    H235605   3.979   6.001   6.606
11888TIP3   OH235606   1.891   7.554   2.739
11888TIP3    H135607   1.944   7.557   2.818
11888TIP3    H235608   1.814   7.606   2.760
11889TIP3   OH235609   0.593   4.117   6.408
11889TIP3    H135610   0.662   4.177   6.379
11889TIP3    H235611   0.515   4.172   6.416
11890TIP3   OH235612   5.365   3.121   3.900
11890TIP3    H135613   5.305   3.188   3.867
11890TIP3    H235614   5.391   3.153   3.986
11891TIP3   OH235615   7.437   6.383   6.089
11891TIP3    H135616   7.470   6.365   6.177
11891TIP3    H235617   7.348   6.415   6.103
11892TIP3   OH235618   5.919   6.322   4.173
11892TIP3    H135619   5.947   6.410   4.147
11892TIP3    H235620   5.980   6.264   4.127
11893TIP3   OH235621   2.836   6.573   4.370
11893TIP3    H135622   2.879   6.652   4.403
11893TIP3    H235623   2.768   6.554   4.435
11894TIP3   OH235624   2.456   6.990   5.301
11894TIP3    H135625   2.435   6.911   5.251
11894TIP3    H235626   2.448   6.963   5.392
11895TIP3   OH235627   2.570   2.392   3.194
11895TIP3    H135628   2.656   2.424   3.221
11895TIP3    H235629   2.517   2.394   3.273
11896TIP3   OH235630   4.156   2.876   3.436
11896TIP3    H135631   4.203   2.822   3.500
11896TIP3    H235632   4.220   2.895   3.368
11897TIP3   OH235633   1.553   1.136   6.017
11897TIP3    H135634   1.472   1.139   6.068
11897TIP3    H235635   1.526   1.112   5.929
11898TIP3   OH235636   5.611   2.934   4.991
11898TIP3    H135637   5.523   2.896   4.990
11898TIP3    H235638   5.634   2.938   5.083
11899TIP3   OH235639   6.222   3.805   2.576
11899TIP3    H135640   6.168   3.870   2.622
11899TIP3    H235641   6.206   3.822   2.483
11900TIP3   OH235642   1.300   4.834   5.704
11900TIP3    H135643   1.213   4.826   5.743
11900TIP3    H235644   1.320   4.927   5.710
11901TIP3   OH235645   0.211   7.418   3.946
11901TIP3    H135646   0.134   7.471   3.924
11901TIP3    H235647   0.256   7.404   3.862
11902TIP3   OH235648   5.120   0.904   5.062
11902TIP3    H135649   5.160   0.843   5.124
11902TIP3    H235650   5.175   0.899   4.984
11903TIP3   OH235651   0.313   3.796   3.452
11903TIP3    H135652   0.254   3.721   3.447
11903TIP3    H235653   0.369   3.788   3.374
11904TIP3   OH235654   0.276   1.554   3.137
11904TIP3    H135655   0.201   1.498   3.156
11904TIP3    H235656   0.270   1.624   3.203
11905TIP3   OH235657   7.180   3.289   6.619
11905TIP3    H135658   7.223   3.371   6.645
11905TIP3    H235659   7.087   3.304   6.635
11906TIP3   OH235660   2.409   5.702   1.230
11906TIP3    H135661   2.375   5.792   1.229
11906TIP3    H235662   2.333   5.648   1.206
11907TIP3   OH235663   7.091   1.644   1.610
11907TIP3    H135664   7.132   1.715   1.658
11907TIP3    H235665   7.145   1.631   1.533
11908TIP3   OH235666   7.775   2.105   1.748
11908TIP3    H135667   7.773   2.088   1.654
11908TIP3    H235668   7.684   2.129   1.769
11909TIP3   OH235669   3.571   7.599   5.325
11909TIP3    H135670   3.564   7.536   5.396
11909TIP3    H235671   3.568   7.685   5.368
11910TIP3   OH235672   3.924   1.472   5.167
11910TIP3    H135673   3.847   1.521   5.196
11910TIP3    H235674   3.892   1.383   5.154
11911TIP3   OH235675   3.027   3.198   2.303
11911TIP3    H135676   3.053   3.111   2.273
11911TIP3    H235677   2.953   3.222   2.247
11912TIP3   OH235678   2.430   0.007   6.551
11912TIP3    H135679   2.407   0.047   6.467
11912TIP3    H235680   2.476   0.076   6.599
11913TIP3   OH235681   6.778   6.618   4.153
11913TIP3    H135682   6.870   6.641   4.144
11913TIP3    H235683   6.733   6.671   4.087
11914TIP3   OH235684   1.701   3.947   4.223
11914TIP3    H135685   1.689   4.039   4.198
11914TIP3    H235686   1.624   3.927   4.277
11915TIP3   OH235687   3.692   5.522   0.047
11915TIP3    H135688   3.750   5.588   0.088
11915TIP3    H235689   3.666   5.562  -0.036
11916TIP3   OH235690   0.648   1.037   2.627
11916TIP3    H135691   0.619   1.014   2.715
11916TIP3    H235692   0.688   0.956   2.593
11917TIP3   OH235693   4.862   2.987   1.230
11917TIP3    H135694   4.904   3.069   1.204
11917TIP3    H235695   4.878   2.981   1.324
11918TIP3   OH235696   1.085   1.260   6.114
11918TIP3    H135697   1.111   1.347   6.086
11918TIP3    H235698   1.012   1.275   6.174
11919TIP3   OH235699   7.679   2.988   0.452
11919TIP3    H135700   7.698   3.064   0.507
11919TIP3    H235701   7.758   2.933   0.458
11920TIP3   OH235702   1.504   0.285   1.597
11920TIP3    H135703   1.579   0.286   1.538
11920TIP3    H235704   1.448   0.216   1.564
11921TIP3   OH235705   4.160   4.052   3.099
11921TIP3    H135706   4.151   3.966   3.059
11921TIP3    H235707   4.196   4.035   3.186
11922TIP3   OH235708   2.118   1.823   6.152
11922TIP3    H135709   2.058   1.884   6.111
11922TIP3    H235710   2.196   1.823   6.096
11923TIP3   OH235711   0.186   4.026   4.881
11923TIP3    H135712   0.211   4.093   4.945
11923TIP3    H235713   0.236   4.048   4.802
11924TIP3   OH235714   1.281   1.645   0.067
11924TIP3    H135715   1.193   1.659   0.032
11924TIP3    H235716   1.327   1.597  -0.002
11925TIP3   OH235717   5.647   4.062   5.157
11925TIP3    H135718   5.685   4.070   5.070
11925TIP3    H235719   5.573   4.001   5.145
11926TIP3   OH235720   5.805   0.611   0.488
11926TIP3    H135721   5.751   0.651   0.419
11926TIP3    H235722   5.751   0.617   0.567
11927TIP3   OH235723   8.049   1.646   0.298
11927TIP3    H135724   7.978   1.709   0.287
11927TIP3    H235725   8.128   1.700   0.304
11928TIP3   OH235726   0.647   3.761   4.357
11928TIP3    H135727   0.640   3.857   4.359
11928TIP3    H235728   0.557   3.730   4.366
11929TIP3   OH235729   4.209   3.767   3.677
11929TIP3    H135730   4.142   3.784   3.611
11929TIP3    H235731   4.180   3.687   3.721
11930TIP3   OH235732   6.915   0.626   3.105
11930TIP3    H135733   6.885   0.645   3.016
11930TIP3    H235734   6.865   0.686   3.160
11931TIP3   OH235735   6.851   1.921   3.368
11931TIP3    H135736   6.884   1.895   3.282
11931TIP3    H235737   6.927   1.956   3.413
11932TIP3   OH235738   3.955   4.231   2.998
11932TIP3    H135739   4.012   4.185   3.059
11932TIP3    H235740   4.014   4.275   2.937
11933TIP3   OH235741   7.521   5.799   6.719
11933TIP3    H135742   7.538   5.707   6.736
11933TIP3    H235743   7.540   5.811   6.626
11934TIP3   OH235744   5.527   6.184   4.424
11934TIP3    H135745   5.462   6.213   4.360
11934TIP3    H235746   5.495   6.097   4.451
11935TIP3   OH235747   7.368   2.337   0.859
11935TIP3    H135748   7.308   2.316   0.788
11935TIP3    H235749   7.337   2.421   0.893
11936TIP3   OH235750   4.357   5.033   1.858
11936TIP3    H135751   4.290   5.101   1.848
11936TIP3    H235752   4.309   4.957   1.889
11937TIP3   OH235753   1.882   1.525   3.405
11937TIP3    H135754   1.962   1.563   3.370
11937TIP3    H235755   1.867   1.572   3.487
11938TIP3   OH235756   2.334   1.051   2.923
11938TIP3    H135757   2.359   0.959   2.923
11938TIP3    H235758   2.331   1.075   3.016
11939TIP3   OH235759   2.611   2.652   3.910
11939TIP3    H135760   2.706   2.663   3.903
11939TIP3    H235761   2.600   2.577   3.968
11940TIP3   OH235762  -0.009   5.012   1.067
11940TIP3    H135763   0.084   5.019   1.089
11940TIP3    H235764  -0.020   5.070   0.992
11941TIP3   OH235765   7.439   0.316   2.851
11941TIP3    H135766   7.435   0.306   2.756
11941TIP3    H235767   7.513   0.261   2.878
11942TIP3   OH235768   0.529   7.061   5.558
11942TIP3    H135769   0.449   7.075   5.608
11942TIP3    H235770   0.545   7.145   5.514
11943TIP3   OH235771   5.576   7.767   4.656
11943TIP3    H135772   5.564   7.831   4.586
11943TIP3    H235773   5.666   7.778   4.685
11944TIP3   OH235774   0.608   3.911   6.043
11944TIP3    H135775   0.522   3.930   6.080
11944TIP3    H235776   0.638   3.833   6.088
11945TIP3   OH235777   8.080   0.502   6.699
11945TIP3    H135778   8.146   0.571   6.696
11945TIP3    H235779   8.124   0.428   6.742
11946TIP3   OH235780   5.511   0.473   1.356
11946TIP3    H135781   5.435   0.462   1.413
11946TIP3    H235782   5.585   0.484   1.416
11947TIP3   OH235783   1.997   1.981   2.622
11947TIP3    H135784   1.911   2.000   2.584
11947TIP3    H235785   2.052   1.959   2.547
11948TIP3   OH235786   3.834   0.625   3.594
11948TIP3    H135787   3.817   0.679   3.671
11948TIP3    H235788   3.847   0.687   3.523
11949TIP3   OH235789   1.602   7.664   3.562
11949TIP3    H135790   1.602   7.717   3.642
11949TIP3    H235791   1.515   7.624   3.560
11950TIP3   OH235792   5.241   6.736   6.349
11950TIP3    H135793   5.195   6.651   6.352
11950TIP3    H235794   5.324   6.720   6.394
11951TIP3   OH235795   2.607   3.250   4.261
11951TIP3    H135796   2.649   3.243   4.176
11951TIP3    H235797   2.517   3.220   4.247
11952TIP3   OH235798   2.049   3.900   2.101
11952TIP3    H135799   1.971   3.895   2.156
11952TIP3    H235800   2.019   3.875   2.014
11953TIP3   OH235801   7.651   4.490   1.416
11953TIP3    H135802   7.613   4.402   1.407
11953TIP3    H235803   7.578   4.544   1.447
11954TIP3   OH235804   3.253   0.601   0.562
11954TIP3    H135805   3.330   0.658   0.568
11954TIP3    H235806   3.289   0.517   0.532
11955TIP3   OH235807   6.504   1.994   5.210
11955TIP3    H135808   6.552   1.912   5.224
11955TIP3    H235809   6.418   1.966   5.177
11956TIP3   OH235810   7.149   0.824   3.059
11956TIP3    H135811   7.115   0.908   3.089
11956TIP3    H235812   7.096   0.759   3.105
11957TIP3   OH235813   1.064   0.798   1.157
11957TIP3    H135814   1.025   0.877   1.119
11957TIP3    H235815   1.022   0.726   1.110
11958TIP3   OH235816   3.972   2.339   5.891
11958TIP3    H135817   3.901   2.397   5.861
11958TIP3    H235818   3.984   2.277   5.819
11959TIP3   OH235819   5.542   2.465   0.202
11959TIP3    H135820   5.598   2.538   0.177
11959TIP3    H235821   5.573   2.392   0.149
11960TIP3   OH235822   4.252   7.048   0.451
11960TIP3    H135823   4.341   7.022   0.477
11960TIP3    H235824   4.247   7.141   0.474
11961TIP3   OH235825   7.513   0.550   2.378
11961TIP3    H135826   7.529   0.643   2.391
11961TIP3    H235827   7.572   0.525   2.306
11962TIP3   OH235828   3.603   4.668   4.120
11962TIP3    H135829   3.621   4.658   4.026
11962TIP3    H235830   3.688   4.661   4.162
11963TIP3   OH235831   2.645   7.360   3.056
11963TIP3    H135832   2.577   7.353   2.989
11963TIP3    H235833   2.693   7.278   3.050
11964TIP3   OH235834   5.287   0.859   0.616
11964TIP3    H135835   5.308   0.768   0.593
11964TIP3    H235836   5.232   0.890   0.544
11965TIP3   OH235837   2.466   6.034   3.221
11965TIP3    H135838   2.385   5.998   3.186
11965TIP3    H235839   2.457   6.129   3.212
11966TIP3   OH235840   4.169   4.775   3.661
11966TIP3    H135841   4.192   4.806   3.749
11966TIP3    H235842   4.231   4.705   3.643
11967TIP3   OH235843   4.403   6.016   5.637
11967TIP3    H135844   4.371   5.942   5.687
11967TIP3    H235845   4.351   6.090   5.668
11968TIP3   OH235846   5.108   1.930   4.969
11968TIP3    H135847   5.031   1.887   4.934
11968TIP3    H235848   5.150   1.864   5.024
11969TIP3   OH235849   4.535   3.969   2.619
11969TIP3    H135850   4.492   3.974   2.704
11969TIP3    H235851   4.548   3.875   2.604
11970TIP3   OH235852   6.720   3.742   5.460
11970TIP3    H135853   6.692   3.673   5.520
11970TIP3    H235854   6.638   3.778   5.426
11971TIP3   OH235855   4.712   1.672   2.630
11971TIP3    H135856   4.702   1.767   2.618
11971TIP3    H235857   4.627   1.643   2.662
11972TIP3   OH235858   7.168   6.575   0.508
11972TIP3    H135859   7.218   6.517   0.451
11972TIP3    H235860   7.183   6.541   0.596
11973TIP3   OH235861   5.698   6.784   1.416
11973TIP3    H135862   5.774   6.771   1.359
11973TIP3    H235863   5.716   6.730   1.493
11974TIP3   OH235864   1.603   5.018   1.126
11974TIP3    H135865   1.609   4.945   1.188
11974TIP3    H235866   1.623   5.096   1.178
11975TIP3   OH235867   3.102   3.168   1.267
11975TIP3    H135868   3.015   3.170   1.229
11975TIP3    H235869   3.124   3.075   1.271
11976TIP3   OH235870   2.203   2.519   0.319
11976TIP3    H135871   2.146   2.443   0.306
11976TIP3    H235872   2.259   2.521   0.242
11977TIP3   OH235873   3.918   6.129   4.159
11977TIP3    H135874   3.826   6.108   4.171
11977TIP3    H235875   3.926   6.152   4.067
11978TIP3   OH235876   5.179   5.472   1.269
11978TIP3    H135877   5.103   5.417   1.283
11978TIP3    H235878   5.229   5.466   1.351
11979TIP3   OH235879   6.901   1.837   0.189
11979TIP3    H135880   6.889   1.742   0.181
11979TIP3    H235881   6.971   1.858   0.128
11980TIP3   OH235882   1.515   0.586   5.138
11980TIP3    H135883   1.452   0.658   5.150
11980TIP3    H235884   1.598   0.622   5.170
11981TIP3   OH235885   0.767   6.777   5.823
11981TIP3    H135886   0.809   6.854   5.861
11981TIP3    H235887   0.716   6.739   5.895
11982TIP3   OH235888   3.800   5.978   0.389
11982TIP3    H135889   3.734   6.043   0.365
11982TIP3    H235890   3.751   5.911   0.437
11983TIP3   OH235891   5.211   1.411   0.816
11983TIP3    H135892   5.138   1.472   0.807
11983TIP3    H235893   5.247   1.404   0.728
11984TIP3   OH235894   0.614   5.215   1.531
11984TIP3    H135895   0.705   5.230   1.507
11984TIP3    H235896   0.601   5.121   1.522
11985TIP3   OH235897   4.652   3.767   0.724
11985TIP3    H135898   4.693   3.692   0.768
11985TIP3    H235899   4.719   3.799   0.663
11986TIP3   OH235900   0.223   2.654   2.363
11986TIP3    H135901   0.216   2.704   2.282
11986TIP3    H235902   0.142   2.676   2.411
11987TIP3   OH235903   7.305   1.041   0.752
11987TIP3    H135904   7.399   1.057   0.762
11987TIP3    H235905   7.296   1.005   0.664
11988TIP3   OH235906   3.106   0.865   2.328
11988TIP3    H135907   3.089   0.959   2.328
11988TIP3    H235908   3.116   0.842   2.236
11989TIP3   OH235909   6.577   0.763   1.493
11989TIP3    H135910   6.490   0.796   1.514
11989TIP3    H235911   6.577   0.755   1.397
11990TIP3   OH235912   5.582   4.799   4.961
11990TIP3    H135913   5.573   4.875   4.903
11990TIP3    H235914   5.651   4.746   4.921
11991TIP3   OH235915   3.593   0.156   3.260
11991TIP3    H135916   3.678   0.190   3.235
11991TIP3    H235917   3.542   0.156   3.179
11992TIP3   OH235918   8.034   4.261   3.187
11992TIP3    H135919   8.022   4.336   3.244
11992TIP3    H235920   8.128   4.261   3.167
11993TIP3   OH235921   4.592   0.561   1.436
11993TIP3    H135922   4.510   0.558   1.388
11993TIP3    H235923   4.573   0.518   1.519
11994TIP3   OH235924   5.156   4.275   3.241
11994TIP3    H135925   5.148   4.180   3.240
11994TIP3    H235926   5.101   4.305   3.168
11995TIP3   OH235927   7.944   7.220   2.911
11995TIP3    H135928   7.976   7.160   2.843
11995TIP3    H235929   7.966   7.177   2.993
11996TIP3   OH235930   2.810   4.950   4.781
11996TIP3    H135931   2.789   5.039   4.808
11996TIP3    H235932   2.900   4.955   4.751
11997TIP3   OH235933   5.191   4.065   6.483
11997TIP3    H135934   5.117   4.085   6.426
11997TIP3    H235935   5.221   4.150   6.515
11998TIP3   OH235936   1.946   6.687   5.934
11998TIP3    H135937   1.907   6.599   5.936
11998TIP3    H235938   1.977   6.697   5.844
11999TIP3   OH235939   3.307   2.536   5.340
11999TIP3    H135940   3.299   2.496   5.426
11999TIP3    H235941   3.362   2.613   5.354
12000TIP3   OH235942   5.805   6.013   1.699
12000TIP3    H135943   5.733   5.998   1.638
12000TIP3    H235944   5.881   6.028   1.642
12001TIP3   OH235945   4.323   1.022   2.140
12001TIP3    H135946   4.306   1.106   2.099
12001TIP3    H235947   4.365   1.043   2.223
12002TIP3   OH235948   5.343   3.103   0.249
12002TIP3    H135949   5.432   3.070   0.262
12002TIP3    H235950   5.353   3.173   0.184
12003TIP3   OH235951   7.141   2.242   5.370
12003TIP3    H135952   7.149   2.326   5.325
12003TIP3    H235953   7.211   2.242   5.435
12004TIP3   OH235954   7.998   2.290   1.060
12004TIP3    H135955   7.914   2.245   1.071
12004TIP3    H235956   7.974   2.381   1.044
12005TIP3   OH235957   1.997   4.756   3.324
12005TIP3    H135958   2.051   4.835   3.318
12005TIP3    H235959   1.983   4.743   3.418
12006TIP3   OH235960   5.059   0.510   0.400
12006TIP3    H135961   4.973   0.533   0.436
12006TIP3    H235962   5.096   0.593   0.370
12007TIP3   OH235963   1.137   4.636   1.871
12007TIP3    H135964   1.071   4.567   1.881
12007TIP3    H235965   1.151   4.669   1.960
12008TIP3   OH235966   6.013   6.471   4.567
12008TIP3    H135967   5.998   6.387   4.524
12008TIP3    H235968   5.941   6.527   4.536
12009TIP3   OH235969   2.276   6.220   4.539
12009TIP3    H135970   2.226   6.295   4.572
12009TIP3    H235971   2.215   6.146   4.544
12010TIP3   OH235972   7.671   6.986   1.962
12010TIP3    H135973   7.672   6.914   2.025
12010TIP3    H235974   7.740   7.046   1.992
12011TIP3   OH235975   6.981   4.898   4.764
12011TIP3    H135976   7.071   4.885   4.733
12011TIP3    H235977   6.990   4.907   4.859
12012TIP3   OH235978   7.633   6.171   1.475
12012TIP3    H135979   7.601   6.154   1.386
12012TIP3    H235980   7.658   6.085   1.508
12013TIP3   OH235981   6.081   0.752   1.243
12013TIP3    H135982   6.112   0.767   1.154
12013TIP3    H235983   6.155   0.775   1.299
12014TIP3   OH235984   7.334   5.581   1.578
12014TIP3    H135985   7.255   5.534   1.552
12014TIP3    H235986   7.384   5.592   1.497
12015TIP3   OH235987   5.816   6.579   3.476
12015TIP3    H135988   5.741   6.638   3.482
12015TIP3    H235989   5.827   6.544   3.564
12016TIP3   OH235990   4.885   3.492   3.741
12016TIP3    H135991   4.806   3.528   3.701
12016TIP3    H235992   4.898   3.545   3.821
12017TIP3   OH235993   2.286   2.076   3.512
12017TIP3    H135994   2.198   2.039   3.501
12017TIP3    H235995   2.302   2.072   3.607
12018TIP3   OH235996   3.150   5.409   4.395
12018TIP3    H135997   3.179   5.382   4.308
12018TIP3    H235998   3.149   5.504   4.392
12019TIP3   OH235999   6.985   1.002   1.806
12019TIP3    H136000   6.951   1.059   1.875
12019TIP3    H236001   7.005   0.920   1.850
12020TIP3   OH236002   5.462   3.958   6.646
12020TIP3    H136003   5.429   4.040   6.682
12020TIP3    H236004   5.426   3.953   6.558
12021TIP3   OH236005   3.389   3.096   4.340
12021TIP3    H136006   3.397   3.190   4.356
12021TIP3    H236007   3.478   3.068   4.318
12022TIP3   OH236008   5.322   2.799   0.062
12022TIP3    H136009   5.368   2.819  -0.019
12022TIP3    H236010   5.230   2.793   0.036
12023TIP3   OH236011   7.894   7.057   2.121
12023TIP3    H136012   7.904   7.147   2.153
12023TIP3    H236013   7.980   7.017   2.137
12024TIP3   OH236014   4.160   5.938   3.367
12024TIP3    H136015   4.157   5.862   3.424
12024TIP3    H236016   4.253   5.958   3.357
12025TIP3   OH236017   3.978   4.379   2.414
12025TIP3    H136018   3.891   4.418   2.421
12025TIP3    H236019   3.961   4.288   2.390
12026TIP3   OH236020   2.376   2.817   3.265
12026TIP3    H136021   2.455   2.869   3.253
12026TIP3    H236022   2.385   2.743   3.205
12027TIP3   OH236023   7.301   1.522   5.348
12027TIP3    H136024   7.218   1.554   5.311
12027TIP3    H236025   7.368   1.559   5.291
12028TIP3   OH236026   2.329   0.613   0.223
12028TIP3    H136027   2.298   0.588   0.310
12028TIP3    H236028   2.373   0.535   0.190
12029TIP3   OH236029   4.981   1.739   6.658
12029TIP3    H136030   4.993   1.800   6.585
12029TIP3    H236031   5.027   1.781   6.731
12030TIP3   OH236032   4.744   4.652   0.518
12030TIP3    H136033   4.667   4.595   0.516
12030TIP3    H236034   4.720   4.725   0.461
12031TIP3   OH236035   5.616   3.555   2.074
12031TIP3    H136036   5.637   3.461   2.080
12031TIP3    H236037   5.608   3.571   1.980
12032TIP3   OH236038   2.849   7.584   0.345
12032TIP3    H136039   2.936   7.545   0.345
12032TIP3    H236040   2.859   7.667   0.392
12033TIP3   OH236041   4.076   3.472   0.972
12033TIP3    H136042   4.166   3.498   0.951
12033TIP3    H236043   4.077   3.458   1.067
12034TIP3   OH236044   6.277   3.880   6.265
12034TIP3    H136045   6.196   3.841   6.298
12034TIP3    H236046   6.281   3.853   6.174
12035TIP3   OH236047   0.319   1.733   2.354
12035TIP3    H136048   0.278   1.765   2.274
12035TIP3    H236049   0.269   1.655   2.378
12036TIP3   OH236050   7.510   0.338   4.326
12036TIP3    H136051   7.557   0.374   4.251
12036TIP3    H236052   7.557   0.258   4.349
12037TIP3   OH236053   2.051   1.546   6.565
12037TIP3    H136054   2.128   1.597   6.588
12037TIP3    H236055   2.048   1.548   6.469
12038TIP3   OH236056   1.343   1.683   4.112
12038TIP3    H136057   1.288   1.607   4.130
12038TIP3    H236058   1.425   1.664   4.158
12039TIP3   OH236059   1.021   3.108   1.606
12039TIP3    H136060   0.966   3.117   1.529
12039TIP3    H236061   1.037   3.198   1.635
12040TIP3   OH236062   5.582   6.811   2.405
12040TIP3    H136063   5.622   6.767   2.330
12040TIP3    H236064   5.615   6.762   2.481
12041TIP3   OH236065   1.176   6.668   1.297
12041TIP3    H136066   1.250   6.607   1.309
12041TIP3    H236067   1.099   6.617   1.321
12042TIP3   OH236068   5.374   6.697   1.471
12042TIP3    H136069   5.330   6.690   1.386
12042TIP3    H236070   5.467   6.703   1.449
12043TIP3   OH236071   1.007   1.342   5.747
12043TIP3    H136072   0.978   1.338   5.656
12043TIP3    H236073   1.056   1.424   5.753
12044TIP3   OH236074   2.275   4.708   5.205
12044TIP3    H136075   2.188   4.747   5.198
12044TIP3    H236076   2.259   4.614   5.198
12045TIP3   OH236077   2.773   7.823   1.777
12045TIP3    H136078   2.698   7.771   1.807
12045TIP3    H236079   2.772   7.814   1.681
12046TIP3   OH236080   2.658   7.522   0.841
12046TIP3    H136081   2.606   7.527   0.761
12046TIP3    H236082   2.595   7.538   0.911
12047TIP3   OH236083   1.056   4.188   2.064
12047TIP3    H136084   1.034   4.197   2.157
12047TIP3    H236085   0.988   4.130   2.029
12048TIP3   OH236086   1.769   0.246   3.214
12048TIP3    H136087   1.854   0.206   3.199
12048TIP3    H236088   1.737   0.269   3.127
12049TIP3   OH236089   4.744   7.509   4.275
12049TIP3    H136090   4.699   7.574   4.329
12049TIP3    H236091   4.673   7.468   4.225
12050TIP3   OH236092   1.592   2.678   5.764
12050TIP3    H136093   1.643   2.736   5.821
12050TIP3    H236094   1.624   2.590   5.784
12051TIP3   OH236095   7.675   7.241   2.762
12051TIP3    H136096   7.755   7.261   2.810
12051TIP3    H236097   7.705   7.209   2.677
12052TIP3   OH236098   6.830   0.132   1.546
12052TIP3    H136099   6.826   0.148   1.452
12052TIP3    H236100   6.791   0.209   1.586
12053TIP3   OH236101   6.018   1.935   1.627
12053TIP3    H136102   6.092   1.924   1.567
12053TIP3    H236103   5.961   1.860   1.609
12054TIP3   OH236104   7.878   4.206   4.448
12054TIP3    H136105   7.919   4.291   4.463
12054TIP3    H236106   7.786   4.226   4.432
12055TIP3   OH236107   2.858   2.241   4.854
12055TIP3    H136108   2.900   2.189   4.786
12055TIP3    H236109   2.907   2.222   4.934
12056TIP3   OH236110   6.679   4.096   0.821
12056TIP3    H136111   6.608   4.137   0.870
12056TIP3    H236112   6.669   4.129   0.732
12057TIP3   OH236113   0.129   3.999   2.643
12057TIP3    H136114   0.144   3.906   2.630
12057TIP3    H236115   0.173   4.041   2.570
12058TIP3   OH236116   6.092   1.672   3.773
12058TIP3    H136117   6.183   1.677   3.744
12058TIP3    H236118   6.055   1.598   3.724
12059TIP3   OH236119   0.917   5.473   1.896
12059TIP3    H136120   0.926   5.513   1.810
12059TIP3    H236121   0.924   5.379   1.880
12060TIP3   OH236122   6.236   6.423   6.452
12060TIP3    H136123   6.144   6.409   6.478
12060TIP3    H236124   6.247   6.369   6.374
12061TIP3   OH236125   7.946   6.490   0.260
12061TIP3    H136126   7.904   6.406   0.279
12061TIP3    H236127   8.038   6.476   0.283
12062TIP3   OH236128   0.199   3.429   3.966
12062TIP3    H136129   0.107   3.448   3.949
12062TIP3    H236130   0.198   3.370   4.041
12063TIP3   OH236131   5.126   5.665   4.610
12063TIP3    H136132   5.039   5.626   4.615
12063TIP3    H236133   5.112   5.747   4.562
12064TIP3   OH236134   8.089   7.349   4.144
12064TIP3    H136135   8.134   7.432   4.131
12064TIP3    H236136   8.138   7.306   4.214
12065TIP3   OH236137   8.053   6.364   0.531
12065TIP3    H136138   8.006   6.314   0.465
12065TIP3    H236139   8.067   6.303   0.603
12066TIP3   OH236140   0.831   3.969   3.067
12066TIP3    H136141   0.792   3.896   3.020
12066TIP3    H236142   0.764   3.996   3.130
12067TIP3   OH236143   4.364   5.589   0.228
12067TIP3    H136144   4.435   5.633   0.274
12067TIP3    H236145   4.332   5.653   0.165
12068TIP3   OH236146   3.660   1.409   4.893
12068TIP3    H136147   3.719   1.454   4.832
12068TIP3    H236148   3.588   1.471   4.906
12069TIP3   OH236149   2.033   4.200   6.163
12069TIP3    H136150   1.968   4.155   6.217
12069TIP3    H236151   2.086   4.249   6.226
12070TIP3   OH236152   5.732   2.128   1.119
12070TIP3    H136153   5.717   2.212   1.163
12070TIP3    H236154   5.707   2.145   1.028
12071TIP3   OH236155   0.455   5.721   3.870
12071TIP3    H136156   0.398   5.787   3.830
12071TIP3    H236157   0.462   5.652   3.805
12072TIP3   OH236158   6.375   2.219   6.418
12072TIP3    H136159   6.326   2.176   6.348
12072TIP3    H236160   6.464   2.185   6.410
12073TIP3   OH236161   0.893   3.194   3.497
12073TIP3    H136162   0.816   3.169   3.445
12073TIP3    H236163   0.867   3.276   3.538
12074TIP3   OH236164   8.036   5.693   2.842
12074TIP3    H136165   8.118   5.644   2.835
12074TIP3    H236166   7.979   5.637   2.896
12075TIP3   OH236167   7.437   1.801   1.490
12075TIP3    H136168   7.423   1.741   1.416
12075TIP3    H236169   7.396   1.883   1.461
12076TIP3   OH236170   6.849   1.533   0.226
12076TIP3    H136171   6.804   1.493   0.300
12076TIP3    H236172   6.906   1.465   0.193
12077TIP3   OH236173   5.091   1.173   4.453
12077TIP3    H136174   5.047   1.201   4.534
12077TIP3    H236175   5.019   1.148   4.395
12078TIP3   OH236176   1.695   1.246   2.398
12078TIP3    H136177   1.732   1.325   2.359
12078TIP3    H236178   1.770   1.187   2.408
12079TIP3   OH236179   3.607   6.391   4.234
12079TIP3    H136180   3.693   6.392   4.275
12079TIP3    H236181   3.624   6.370   4.142
12080TIP3   OH236182   0.154   1.418   2.057
12080TIP3    H136183   0.105   1.343   2.089
12080TIP3    H236184   0.223   1.431   2.122
12081TIP3   OH236185   0.356   5.241   5.991
12081TIP3    H136186   0.338   5.236   5.897
12081TIP3    H236187   0.449   5.219   5.999
12082TIP3   OH236188   5.713   0.179   2.711
12082TIP3    H136189   5.619   0.189   2.726
12082TIP3    H236190   5.745   0.268   2.701
12083TIP3   OH236191   3.575   4.797   3.301
12083TIP3    H136192   3.580   4.888   3.274
12083TIP3    H236193   3.647   4.786   3.363
12084TIP3   OH236194   0.018   3.017   5.590
12084TIP3    H136195  -0.010   3.035   5.500
12084TIP3    H236196   0.114   3.016   5.585
12085TIP3   OH236197   4.937   3.719   5.746
12085TIP3    H136198   4.842   3.719   5.758
12085TIP3    H236199   4.970   3.662   5.815
12086TIP3   OH236200   7.454   1.315   2.727
12086TIP3    H136201   7.457   1.403   2.766
12086TIP3    H236202   7.439   1.331   2.634
12087TIP3   OH236203   1.577   3.420   1.211
12087TIP3    H136204   1.588   3.337   1.165
12087TIP3    H236205   1.659   3.468   1.195
12088TIP3   OH236206   7.270   3.880   4.262
12088TIP3    H136207   7.185   3.843   4.238
12088TIP3    H236208   7.302   3.920   4.181
12089TIP3   OH236209   3.872   5.192   2.760
12089TIP3    H136210   3.832   5.210   2.846
12089TIP3    H236211   3.936   5.262   2.749
12090TIP3   OH236212   6.296   2.845   0.395
12090TIP3    H136213   6.228   2.781   0.372
12090TIP3    H236214   6.329   2.875   0.311
12091TIP3   OH236215   4.602   3.379   3.470
12091TIP3    H136216   4.635   3.319   3.537
12091TIP3    H236217   4.547   3.440   3.518
12092TIP3   OH236218   7.756   3.547   6.509
12092TIP3    H136219   7.762   3.634   6.470
12092TIP3    H236220   7.671   3.546   6.552
12093TIP3   OH236221   3.445   3.513   6.026
12093TIP3    H136222   3.412   3.567   5.954
12093TIP3    H236223   3.470   3.577   6.093
12094TIP3   OH236224   6.907   6.150   5.074
12094TIP3    H136225   6.883   6.125   5.163
12094TIP3    H236226   6.949   6.235   5.082
12095TIP3   OH236227   0.415   3.570   1.327
12095TIP3    H136228   0.323   3.546   1.316
12095TIP3    H236229   0.415   3.633   1.398
12096TIP3   OH236230   6.057   0.858   2.322
12096TIP3    H136231   6.016   0.813   2.249
12096TIP3    H236232   6.046   0.799   2.397
12097TIP3   OH236233   2.519   5.458   2.349
12097TIP3    H136234   2.526   5.528   2.414
12097TIP3    H236235   2.430   5.468   2.314
12098TIP3   OH236236   6.767   7.294   6.246
12098TIP3    H136237   6.733   7.376   6.282
12098TIP3    H236238   6.838   7.321   6.188
12099TIP3   OH236239   2.003   7.751   2.956
12099TIP3    H136240   2.009   7.790   2.868
12099TIP3    H236241   1.953   7.815   3.006
12100TIP3   OH236242   8.197   5.474   4.435
12100TIP3    H136243   8.275   5.432   4.397
12100TIP3    H236244   8.230   5.518   4.513
12101TIP3   OH236245   5.228   6.732   1.235
12101TIP3    H136246   5.135   6.740   1.254
12101TIP3    H236247   5.235   6.745   1.140
12102TIP3   OH236248   5.847   2.410   1.355
12102TIP3    H136249   5.843   2.317   1.332
12102TIP3    H236250   5.761   2.444   1.330
12103TIP3   OH236251   3.917   4.765   0.700
12103TIP3    H136252   3.969   4.747   0.779
12103TIP3    H236253   3.841   4.812   0.732
12104TIP3   OH236254   5.350   4.861   1.442
12104TIP3    H136255   5.365   4.801   1.369
12104TIP3    H236256   5.379   4.946   1.409
12105TIP3   OH236257   4.249   4.961   6.529
12105TIP3    H136258   4.313   4.890   6.522
12105TIP3    H236259   4.277   5.025   6.465
12106TIP3   OH236260   5.410   0.292   2.364
12106TIP3    H136261   5.409   0.250   2.278
12106TIP3    H236262   5.404   0.219   2.426
12107TIP3   OH236263   0.563   5.039   0.803
12107TIP3    H136264   0.512   5.068   0.727
12107TIP3    H236265   0.526   5.088   0.877
12108TIP3   OH236266   5.880   0.544   6.174
12108TIP3    H136267   5.915   0.564   6.260
12108TIP3    H236268   5.787   0.566   6.179
12109TIP3   OH236269   7.700   6.739   0.097
12109TIP3    H136270   7.786   6.755   0.136
12109TIP3    H236271   7.716   6.670   0.032
12110TIP3   OH236272   1.911   7.507   1.822
12110TIP3    H136273   1.839   7.570   1.825
12110TIP3    H236274   1.979   7.552   1.772
12111TIP3   OH236275   7.526   5.786   5.207
12111TIP3    H136276   7.620   5.770   5.197
12111TIP3    H236277   7.489   5.700   5.229
12112TIP3   OH236278   5.027   1.667   6.192
12112TIP3    H136279   5.073   1.749   6.171
12112TIP3    H236280   5.037   1.613   6.113
12113TIP3   OH236281   0.838   3.924   4.864
12113TIP3    H136282   0.836   3.846   4.919
12113TIP3    H236283   0.779   3.985   4.908
12114TIP3   OH236284   2.826   7.366   2.187
12114TIP3    H136285   2.855   7.383   2.277
12114TIP3    H236286   2.828   7.270   2.179
12115TIP3   OH236287   5.327   2.515   0.878
12115TIP3    H136288   5.332   2.604   0.843
12115TIP3    H236289   5.403   2.470   0.841
12116TIP3   OH236290   5.321   0.716   2.201
12116TIP3    H136291   5.415   0.732   2.187
12116TIP3    H236292   5.309   0.624   2.181
12117TIP3   OH236293   4.884   1.012   3.714
12117TIP3    H136294   4.947   1.053   3.655
12117TIP3    H236295   4.915   0.921   3.722
12118TIP3   OH236296   5.771   2.822   2.525
12118TIP3    H136297   5.827   2.806   2.601
12118TIP3    H236298   5.754   2.916   2.527
12119TIP3   OH236299   4.694   4.881   5.402
12119TIP3    H136300   4.767   4.899   5.461
12119TIP3    H236301   4.693   4.785   5.395
12120TIP3   OH236302   0.958   3.299   5.809
12120TIP3    H136303   0.925   3.353   5.882
12120TIP3    H236304   0.946   3.209   5.838
12121TIP3   OH236305   0.473   3.125   5.422
12121TIP3    H136306   0.414   3.196   5.398
12121TIP3    H236307   0.552   3.140   5.369
12122TIP3   OH236308   5.806   2.469   0.497
12122TIP3    H136309   5.837   2.430   0.415
12122TIP3    H236310   5.885   2.506   0.537
12123TIP3   OH236311   6.274   2.570   1.080
12123TIP3    H136312   6.259   2.558   1.174
12123TIP3    H236313   6.352   2.626   1.076
12124TIP3   OH236314   6.588   5.508   0.845
12124TIP3    H136315   6.672   5.471   0.819
12124TIP3    H236316   6.543   5.527   0.763
12125TIP3   OH236317   7.066   0.518   1.692
12125TIP3    H136318   7.151   0.555   1.668
12125TIP3    H236319   7.087   0.441   1.745
12126TIP3   OH236320   8.009   1.993   2.125
12126TIP3    H136321   7.949   2.041   2.181
12126TIP3    H236322   7.960   1.978   2.044
12127TIP3   OH236323   3.692   0.835   0.238
12127TIP3    H136324   3.634   0.893   0.189
12127TIP3    H236325   3.714   0.765   0.176
12128TIP3   OH236326   2.906   1.076   0.928
12128TIP3    H136327   2.966   1.144   0.896
12128TIP3    H236328   2.962   1.001   0.946
12129TIP3   OH236329   8.055   1.208   0.680
12129TIP3    H136330   8.104   1.257   0.615
12129TIP3    H236331   7.969   1.195   0.641
12130TIP3   OH236332   3.623   6.490   1.137
12130TIP3    H136333   3.572   6.556   1.090
12130TIP3    H236334   3.711   6.497   1.100
12131TIP3   OH236335   8.147   5.617   5.901
12131TIP3    H136336   8.113   5.702   5.873
12131TIP3    H236337   8.191   5.635   5.984
12132TIP3   OH236338   6.385   6.442   0.073
12132TIP3    H136339   6.347   6.379   0.011
12132TIP3    H236340   6.343   6.421   0.156
12133TIP3   OH236341   7.580   3.266   3.571
12133TIP3    H136342   7.657   3.252   3.516
12133TIP3    H236343   7.581   3.360   3.591
12134TIP3   OH236344   6.284   0.851   5.698
12134TIP3    H136345   6.368   0.878   5.735
12134TIP3    H236346   6.220   0.911   5.737
12135TIP3   OH236347   8.146   5.072   5.306
12135TIP3    H136348   8.229   5.116   5.291
12135TIP3    H236349   8.084   5.116   5.249
12136TIP3   OH236350   8.243   1.036   6.213
12136TIP3    H136351   8.228   0.946   6.243
12136TIP3    H236352   8.187   1.045   6.136
12137TIP3   OH236353   4.239   4.763   2.896
12137TIP3    H136354   4.299   4.696   2.861
12137TIP3    H236355   4.237   4.830   2.828
12138TIP3   OH236356   4.475   4.326   4.832
12138TIP3    H136357   4.487   4.234   4.855
12138TIP3    H236358   4.409   4.357   4.894
12139TIP3   OH236359   3.736   0.602   3.060
12139TIP3    H136360   3.681   0.583   3.136
12139TIP3    H236361   3.712   0.535   2.996
12140TIP3   OH236362   7.173   2.507   0.100
12140TIP3    H136363   7.159   2.590   0.146
12140TIP3    H236364   7.102   2.450   0.130
12141TIP3   OH236365   2.621   7.045   0.128
12141TIP3    H136366   2.609   7.139   0.114
12141TIP3    H236367   2.712   7.036   0.158
12142TIP3   OH236368   5.277   0.082   2.182
12142TIP3    H136369   5.191   0.043   2.199
12142TIP3    H236370   5.258   0.173   2.158
12143TIP3   OH236371   6.844   2.716   2.793
12143TIP3    H136372   6.758   2.755   2.777
12143TIP3    H236373   6.877   2.694   2.706
12144TIP3   OH236374   2.874   4.633   6.040
12144TIP3    H136375   2.861   4.728   6.035
12144TIP3    H236376   2.790   4.599   6.072
12145TIP3   OH236377   5.820   3.113   2.588
12145TIP3    H136378   5.900   3.165   2.574
12145TIP3    H236379   5.759   3.146   2.522
12146TIP3   OH236380   0.018   4.243   3.182
12146TIP3    H136381   0.022   4.244   3.086
12146TIP3    H236382   0.110   4.250   3.209
12147TIP3   OH236383   7.053   6.371   1.205
12147TIP3    H136384   6.960   6.369   1.228
12147TIP3    H236385   7.097   6.334   1.281
12148TIP3   OH236386   3.496   1.663   4.028
12148TIP3    H136387   3.534   1.736   3.978
12148TIP3    H236388   3.422   1.702   4.074
12149TIP3   OH236389   4.427   2.074   1.090
12149TIP3    H136390   4.413   1.997   1.145
12149TIP3    H236391   4.378   2.143   1.133
12150TIP3   OH236392   1.038   0.428   2.394
12150TIP3    H136393   1.106   0.496   2.388
12150TIP3    H236394   0.964   0.464   2.346
12151TIP3   OH236395   6.849   4.067   2.683
12151TIP3    H136396   6.769   4.024   2.653
12151TIP3    H236397   6.840   4.071   2.778
12152TIP3   OH236398   1.814   3.849   1.494
12152TIP3    H136399   1.814   3.913   1.565
12152TIP3    H236400   1.899   3.860   1.452
12153TIP3   OH236401   7.317   6.012   4.739
12153TIP3    H136402   7.336   5.929   4.783
12153TIP3    H236403   7.238   5.994   4.688
12154TIP3   OH236404   5.014   0.663   4.884
12154TIP3    H136405   4.953   0.626   4.821
12154TIP3    H236406   5.099   0.628   4.858
12155TIP3   OH236407   0.197   0.597   3.381
12155TIP3    H136408   0.231   0.586   3.470
12155TIP3    H236409   0.152   0.514   3.363
12156TIP3   OH236410   3.542   2.549   2.022
12156TIP3    H136411   3.552   2.505   1.938
12156TIP3    H236412   3.627   2.592   2.037
12157TIP3   OH236413   5.587   3.625   5.429
12157TIP3    H136414   5.644   3.649   5.356
12157TIP3    H236415   5.510   3.587   5.387
12158TIP3   OH236416   1.199   2.074   5.200
12158TIP3    H136417   1.165   2.163   5.211
12158TIP3    H236418   1.276   2.071   5.258
12159TIP3   OH236419   6.494   3.882   5.702
12159TIP3    H136420   6.550   3.806   5.715
12159TIP3    H236421   6.457   3.870   5.615
12160TIP3   OH236422   1.328   0.441   5.455
12160TIP3    H136423   1.255   0.480   5.503
12160TIP3    H236424   1.393   0.510   5.448
12161TIP3   OH236425   6.977   1.108   6.589
12161TIP3    H136426   7.019   1.188   6.558
12161TIP3    H236427   6.978   1.115   6.684
12162TIP3   OH236428   7.199   0.629   2.367
12162TIP3    H136429   7.132   0.675   2.316
12162TIP3    H236430   7.186   0.658   2.457
12163TIP3   OH236431   6.526   4.570   2.440
12163TIP3    H136432   6.538   4.478   2.418
12163TIP3    H236433   6.588   4.616   2.384
12164TIP3   OH236434   0.871   7.098   1.871
12164TIP3    H136435   0.856   7.026   1.810
12164TIP3    H236436   0.934   7.155   1.826
12165TIP3   OH236437   4.768   2.716   3.775
12165TIP3    H136438   4.778   2.652   3.845
12165TIP3    H236439   4.761   2.664   3.695
12166TIP3   OH236440   2.804   5.331   5.907
12166TIP3    H136441   2.833   5.422   5.903
12166TIP3    H236442   2.882   5.281   5.929
12167TIP3   OH236443   1.644   5.101   2.311
12167TIP3    H136444   1.596   5.182   2.291
12167TIP3    H236445   1.736   5.126   2.308
12168TIP3   OH236446   8.102   1.603   1.930
12168TIP3    H136447   8.107   1.521   1.980
12168TIP3    H236448   8.193   1.626   1.913
12169TIP3   OH236449   5.366   5.660   2.685
12169TIP3    H136450   5.372   5.635   2.593
12169TIP3    H236451   5.326   5.747   2.684
12170TIP3   OH236452   2.147   4.178   4.087
12170TIP3    H136453   2.188   4.246   4.141
12170TIP3    H236454   2.125   4.108   4.149
12171TIP3   OH236455   1.578   1.939   5.929
12171TIP3    H136456   1.593   1.941   6.023
12171TIP3    H236457   1.665   1.927   5.890
12172TIP3   OH236458   0.971   4.163   2.975
12172TIP3    H136459   0.954   4.190   2.885
12172TIP3    H236460   0.908   4.092   2.991
12173TIP3   OH236461   8.036   4.601   3.266
12173TIP3    H136462   8.115   4.626   3.218
12173TIP3    H236463   7.971   4.582   3.197
12174TIP3   OH236464   2.760   4.067   5.051
12174TIP3    H136465   2.839   4.056   4.998
12174TIP3    H236466   2.788   4.121   5.125
12175TIP3   OH236467   3.116   6.708   6.309
12175TIP3    H136468   3.174   6.644   6.349
12175TIP3    H236469   3.036   6.659   6.290
12176TIP3   OH236470   3.344   7.743   3.964
12176TIP3    H136471   3.386   7.824   3.992
12176TIP3    H236472   3.265   7.772   3.918
12177TIP3   OH236473   8.186   2.031   0.633
12177TIP3    H136474   8.252   1.986   0.581
12177TIP3    H236475   8.209   2.011   0.724
12178TIP3   OH236476   4.929   4.495   2.689
12178TIP3    H136477   5.021   4.510   2.709
12178TIP3    H236478   4.918   4.400   2.694
12179TIP3   OH236479   6.291   1.200   2.308
12179TIP3    H136480   6.379   1.163   2.301
12179TIP3    H236481   6.251   1.186   2.223
12180TIP3   OH236482   5.125   4.569   1.817
12180TIP3    H136483   5.209   4.610   1.839
12180TIP3    H236484   5.148   4.498   1.757
12181TIP3   OH236485   6.481   5.795   2.645
12181TIP3    H136486   6.513   5.720   2.595
12181TIP3    H236487   6.404   5.826   2.596
12182TIP3   OH236488   5.272   2.461   0.092
12182TIP3    H136489   5.357   2.464   0.137
12182TIP3    H236490   5.289   2.499   0.006
12183TIP3   OH236491   5.433   4.137   5.440
12183TIP3    H136492   5.474   4.205   5.493
12183TIP3    H236493   5.488   4.060   5.454
12184TIP3   OH236494   7.588   2.944   1.947
12184TIP3    H136495   7.650   2.915   2.014
12184TIP3    H236496   7.545   2.863   1.919
12185TIP3   OH236497   2.668   1.095   5.775
12185TIP3    H136498   2.634   1.177   5.812
12185TIP3    H236499   2.680   1.038   5.851
12186TIP3   OH236500   3.208   0.839   1.529
12186TIP3    H136501   3.244   0.926   1.543
12186TIP3    H236502   3.237   0.789   1.606
12187TIP3   OH236503   2.304   1.349   2.711
12187TIP3    H136504   2.370   1.361   2.779
12187TIP3    H236505   2.240   1.418   2.728
12188TIP3   OH236506   4.024   5.818   4.299
12188TIP3    H136507   4.080   5.780   4.231
12188TIP3    H236508   3.939   5.827   4.258
12189TIP3   OH236509   0.922   0.241   1.106
12189TIP3    H136510   0.909   0.147   1.093
12189TIP3    H236511   0.918   0.278   1.018
12190TIP3   OH236512   5.427   5.810   3.256
12190TIP3    H136513   5.440   5.867   3.331
12190TIP3    H236514   5.406   5.869   3.183
12191TIP3   OH236515   4.630   3.752   5.776
12191TIP3    H136516   4.608   3.836   5.816
12191TIP3    H236517   4.548   3.721   5.738
12192TIP3   OH236518   2.582   6.816   4.537
12192TIP3    H136519   2.537   6.851   4.461
12192TIP3    H236520   2.589   6.722   4.519
12193TIP3   OH236521   7.167   0.492   5.590
12193TIP3    H136522   7.079   0.521   5.612
12193TIP3    H236523   7.167   0.398   5.610
12194TIP3   OH236524   1.069   6.434   4.312
12194TIP3    H136525   1.059   6.506   4.250
12194TIP3    H236526   1.151   6.453   4.358
12195TIP3   OH236527   5.844   4.138   1.296
12195TIP3    H136528   5.831   4.141   1.201
12195TIP3    H236529   5.758   4.161   1.332
12196TIP3   OH236530   6.205   4.704   6.366
12196TIP3    H136531   6.238   4.671   6.449
12196TIP3    H236532   6.242   4.644   6.300
12197TIP3   OH236533   5.379   3.612   0.114
12197TIP3    H136534   5.308   3.650   0.166
12197TIP3    H236535   5.457   3.624   0.168
12198TIP3   OH236536   7.464   3.529   5.718
12198TIP3    H136537   7.534   3.569   5.770
12198TIP3    H236538   7.485   3.553   5.628
12199TIP3   OH236539   4.769   2.189   6.259
12199TIP3    H136540   4.819   2.115   6.226
12199TIP3    H236541   4.736   2.159   6.344
12200TIP3   OH236542   4.049   6.106   2.328
12200TIP3    H136543   3.976   6.047   2.307
12200TIP3    H236544   4.118   6.082   2.266
12201TIP3   OH236545   1.307   3.311   2.833
12201TIP3    H136546   1.224   3.305   2.880
12201TIP3    H236547   1.361   3.368   2.887
12202TIP3   OH236548   2.624   0.436   3.175
12202TIP3    H136549   2.538   0.443   3.216
12202TIP3    H236550   2.655   0.527   3.168
12203TIP3   OH236551   7.912   2.680   2.960
12203TIP3    H136552   7.919   2.733   2.881
12203TIP3    H236553   7.846   2.725   3.013
12204TIP3   OH236554   5.983   4.428   3.544
12204TIP3    H136555   6.001   4.518   3.572
12204TIP3    H236556   5.894   4.411   3.576
12205TIP3   OH236557   0.781   5.943   1.037
12205TIP3    H136558   0.850   5.982   0.983
12205TIP3    H236559   0.774   5.853   1.007
12206TIP3   OH236560   1.124   2.635   6.301
12206TIP3    H136561   1.155   2.623   6.390
12206TIP3    H236562   1.157   2.721   6.275
12207TIP3   OH236563   6.963   4.719   0.514
12207TIP3    H136564   6.898   4.722   0.445
12207TIP3    H236565   6.983   4.811   0.533
12208TIP3   OH236566   6.087   4.165   1.733
12208TIP3    H136567   6.158   4.115   1.693
12208TIP3    H236568   6.049   4.104   1.797
12209TIP3   OH236569   0.467   5.529   5.249
12209TIP3    H136570   0.419   5.590   5.305
12209TIP3    H236571   0.404   5.503   5.182
12210TIP3   OH236572   1.841   1.654   0.252
12210TIP3    H136573   1.863   1.561   0.243
12210TIP3    H236574   1.906   1.688   0.314
12211TIP3   OH236575   2.097   7.037   0.316
12211TIP3    H136576   2.162   7.095   0.276
12211TIP3    H236577   2.147   6.988   0.381
12212TIP3   OH236578   1.966   0.833   3.869
12212TIP3    H136579   2.019   0.788   3.934
12212TIP3    H236580   1.884   0.854   3.915
12213TIP3   OH236581   4.966   7.198   6.457
12213TIP3    H136582   5.010   7.140   6.395
12213TIP3    H236583   4.979   7.286   6.421
12214TIP3   OH236584   4.149   5.692   4.034
12214TIP3    H136585   4.194   5.646   3.963
12214TIP3    H236586   4.127   5.622   4.097
12215TIP3   OH236587   4.006   7.586   3.225
12215TIP3    H136588   3.970   7.607   3.139
12215TIP3    H236589   4.019   7.671   3.267
12216TIP3   OH236590   6.651   6.569   1.848
12216TIP3    H136591   6.639   6.481   1.884
12216TIP3    H236592   6.737   6.596   1.879
12217TIP3   OH236593   1.542   5.615   4.475
12217TIP3    H136594   1.491   5.538   4.452
12217TIP3    H236595   1.514   5.682   4.412
12218TIP3   OH236596   8.152   3.316   4.142
12218TIP3    H136597   8.076   3.353   4.186
12218TIP3    H236598   8.222   3.320   4.207
12219TIP3   OH236599   0.638   4.891   5.193
12219TIP3    H136600   0.599   4.906   5.107
12219TIP3    H236601   0.649   4.796   5.198
12220TIP3   OH236602   0.627   1.026   2.009
12220TIP3    H136603   0.631   1.100   1.949
12220TIP3    H236604   0.567   0.964   1.967
12221TIP3   OH236605   5.375   1.158   1.690
12221TIP3    H136606   5.328   1.112   1.759
12221TIP3    H236607   5.466   1.128   1.698
12222TIP3   OH236608   5.716   3.768   3.814
12222TIP3    H136609   5.809   3.785   3.801
12222TIP3    H236610   5.693   3.705   3.746
12223TIP3   OH236611   5.380   0.158   5.572
12223TIP3    H136612   5.432   0.119   5.642
12223TIP3    H236613   5.351   0.084   5.520
12224TIP3   OH236614   6.433   5.573   3.068
12224TIP3    H136615   6.412   5.663   3.093
12224TIP3    H236616   6.372   5.552   2.997
12225TIP3   OH236617   4.388   1.591   6.274
12225TIP3    H136618   4.437   1.607   6.355
12225TIP3    H236619   4.302   1.563   6.304
12226TIP3   OH236620   1.157   3.442   2.161
12226TIP3    H136621   1.134   3.428   2.069
12226TIP3    H236622   1.178   3.535   2.166
12227TIP3   OH236623   7.766   2.165   4.361
12227TIP3    H136624   7.806   2.219   4.293
12227TIP3    H236625   7.815   2.082   4.358
12228TIP3   OH236626   2.190   7.473   0.070
12228TIP3    H136627   2.179   7.379   0.087
12228TIP3    H236628   2.274   7.495   0.111
12229TIP3   OH236629   2.355   4.578   3.600
12229TIP3    H136630   2.350   4.613   3.690
12229TIP3    H236631   2.434   4.525   3.600
12230TIP3   OH236632   5.412   3.874   6.337
12230TIP3    H136633   5.437   3.791   6.297
12230TIP3    H236634   5.319   3.865   6.358
12231TIP3   OH236635   2.012   3.250   1.177
12231TIP3    H136636   1.939   3.215   1.229
12231TIP3    H236637   2.089   3.233   1.231
12232TIP3   OH236638   5.342   2.513   1.161
12232TIP3    H136639   5.343   2.515   1.065
12232TIP3    H236640   5.249   2.500   1.183
12233TIP3   OH236641   0.109   3.904   3.073
12233TIP3    H136642   0.069   3.983   3.109
12233TIP3    H236643   0.067   3.832   3.121
12234TIP3   OH236644   0.720   1.706   5.096
12234TIP3    H136645   0.693   1.615   5.084
12234TIP3    H236646   0.757   1.731   5.011
12235TIP3   OH236647   4.930   4.890   6.518
12235TIP3    H136648   4.942   4.799   6.543
12235TIP3    H236649   4.836   4.898   6.500
12236TIP3   OH236650   6.276   5.033   1.082
12236TIP3    H136651   6.294   5.118   1.123
12236TIP3    H236652   6.184   5.015   1.103
12237TIP3   OH236653   8.080   4.500   0.778
12237TIP3    H136654   8.044   4.466   0.860
12237TIP3    H236655   8.162   4.452   0.766
12238TIP3   OH236656   7.605   2.613   2.658
12238TIP3    H136657   7.547   2.662   2.599
12238TIP3    H236658   7.596   2.658   2.742
12239TIP3   OH236659   2.666   1.541   5.780
12239TIP3    H136660   2.713   1.571   5.702
12239TIP3    H236661   2.612   1.616   5.806
12240TIP3   OH236662   3.836   2.187   5.015
12240TIP3    H136663   3.810   2.253   5.080
12240TIP3    H236664   3.755   2.165   4.969
12241TIP3   OH236665   7.485   4.355   4.728
12241TIP3    H136666   7.422   4.299   4.683
12241TIP3    H236667   7.546   4.295   4.770
12242TIP3   OH236668   1.284   4.905   0.004
12242TIP3    H136669   1.196   4.932   0.031
12242TIP3    H236670   1.275   4.813  -0.019
12243TIP3   OH236671   7.779   1.473   5.097
12243TIP3    H136672   7.767   1.561   5.060
12243TIP3    H236673   7.706   1.422   5.063
12244TIP3   OH236674   6.099   5.958   4.264
12244TIP3    H136675   6.005   5.938   4.263
12244TIP3    H236676   6.118   5.979   4.355
12245TIP3   OH236677   0.669   7.354   6.601
12245TIP3    H136678   0.619   7.297   6.659
12245TIP3    H236679   0.760   7.330   6.617
12246TIP3   OH236680   7.441   2.813   2.288
12246TIP3    H136681   7.434   2.831   2.382
12246TIP3    H236682   7.508   2.745   2.281
12247TIP3   OH236683   3.450   5.532   6.199
12247TIP3    H136684   3.437   5.626   6.211
12247TIP3    H236685   3.545   5.522   6.194
12248TIP3   OH236686   0.144   4.933   0.182
12248TIP3    H136687   0.191   4.930   0.099
12248TIP3    H236688   0.084   4.858   0.180
12249TIP3   OH236689   0.346   2.657   4.483
12249TIP3    H136690   0.336   2.735   4.538
12249TIP3    H236691   0.263   2.611   4.492
12250TIP3   OH236692   5.654   4.325   5.232
12250TIP3    H136693   5.668   4.380   5.155
12250TIP3    H236694   5.640   4.237   5.197
12251TIP3   OH236695   2.239   2.164   4.861
12251TIP3    H136696   2.298   2.204   4.924
12251TIP3    H236697   2.219   2.077   4.897
12252TIP3   OH236698   2.309   7.794   6.582
12252TIP3    H136699   2.404   7.800   6.580
12252TIP3    H236700   2.285   7.761   6.496
12253TIP3   OH236701   1.756   1.052   2.098
12253TIP3    H136702   1.764   1.145   2.122
12253TIP3    H236703   1.662   1.036   2.098
12254TIP3   OH236704   2.963   6.786   3.650
12254TIP3    H136705   2.874   6.756   3.671
12254TIP3    H236706   3.013   6.772   3.731
12255TIP3   OH236707   4.775   4.879   0.334
12255TIP3    H136708   4.753   4.971   0.325
12255TIP3    H236709   4.863   4.879   0.370
12256TIP3   OH236710   4.339   4.113   0.609
12256TIP3    H136711   4.284   4.036   0.626
12256TIP3    H236712   4.387   4.126   0.691
12257TIP3   OH236713   7.240   7.697   0.929
12257TIP3    H136714   7.190   7.725   0.853
12257TIP3    H236715   7.268   7.779   0.971
12258TIP3   OH236716   1.001   4.358   2.651
12258TIP3    H136717   0.939   4.422   2.684
12258TIP3    H236718   0.956   4.274   2.659
12259TIP3   OH236719   3.921   7.651   1.943
12259TIP3    H136720   3.884   7.592   2.009
12259TIP3    H236721   3.852   7.714   1.925
12260TIP3   OH236722   7.480   4.198   1.741
12260TIP3    H136723   7.550   4.240   1.690
12260TIP3    H236724   7.509   4.205   1.832
12261TIP3   OH236725   6.925   2.710   5.222
12261TIP3    H136726   6.952   2.795   5.188
12261TIP3    H236727   6.850   2.729   5.278
12262TIP3   OH236728   6.920   0.988   4.014
12262TIP3    H136729   6.946   1.069   4.058
12262TIP3    H236730   6.827   0.978   4.036
12263TIP3   OH236731   6.426   6.685   1.728
12263TIP3    H136732   6.445   6.779   1.727
12263TIP3    H236733   6.499   6.646   1.776
12264TIP3   OH236734   0.931   2.408   0.584
12264TIP3    H136735   1.000   2.475   0.583
12264TIP3    H236736   0.928   2.377   0.674
12265TIP3   OH236737   6.876   6.220   1.918
12265TIP3    H136738   6.865   6.155   1.849
12265TIP3    H236739   6.795   6.271   1.916
12266TIP3   OH236740   3.587   1.450   0.308
12266TIP3    H136741   3.574   1.433   0.401
12266TIP3    H236742   3.572   1.366   0.265
12267TIP3   OH236743   6.311   6.987   2.574
12267TIP3    H136744   6.324   6.903   2.620
12267TIP3    H236745   6.236   6.972   2.518
12268TIP3   OH236746   8.019   3.010   2.164
12268TIP3    H136747   8.020   3.043   2.254
12268TIP3    H236748   8.112   2.993   2.145
12269TIP3   OH236749   0.056   4.967   5.531
12269TIP3    H136750  -0.006   5.019   5.480
12269TIP3    H236751   0.035   4.988   5.622
12270TIP3   OH236752   1.013   1.766   4.056
12270TIP3    H136753   0.992   1.676   4.079
12270TIP3    H236754   1.108   1.766   4.042
12271TIP3   OH236755   0.425   1.938   5.536
12271TIP3    H136756   0.445   1.994   5.611
12271TIP3    H236757   0.467   1.854   5.557
12272TIP3   OH236758   4.031   1.856   0.586
12272TIP3    H136759   3.942   1.890   0.592
12272TIP3    H236760   4.026   1.785   0.523
12273TIP3   OH236761   6.825   5.397   2.966
12273TIP3    H136762   6.872   5.360   3.041
12273TIP3    H236763   6.735   5.366   2.977
12274TIP3   OH236764   1.476   2.370   6.304
12274TIP3    H136765   1.385   2.358   6.277
12274TIP3    H236766   1.490   2.465   6.299
12275TIP3   OH236767   1.343   6.882   0.784
12275TIP3    H136768   1.338   6.919   0.696
12275TIP3    H236769   1.433   6.895   0.812
12276TIP3   OH236770   3.087   2.191   1.450
12276TIP3    H136771   3.113   2.205   1.541
12276TIP3    H236772   3.029   2.264   1.430
12277TIP3   OH236773   5.002   0.120   5.009
12277TIP3    H136774   5.094   0.138   4.994
12277TIP3    H236775   4.997   0.100   5.103
12278TIP3   OH236776   4.263   7.204   5.971
12278TIP3    H136777   4.315   7.142   6.021
12278TIP3    H236778   4.262   7.169   5.882
12279TIP3   OH236779   3.663   1.507   2.883
12279TIP3    H136780   3.732   1.560   2.843
12279TIP3    H236781   3.585   1.562   2.879
12280TIP3   OH236782   1.187   7.219   3.419
12280TIP3    H136783   1.168   7.211   3.512
12280TIP3    H236784   1.282   7.211   3.412
12281TIP3   OH236785   6.396   7.070   6.758
12281TIP3    H136786   6.339   7.028   6.694
12281TIP3    H236787   6.384   7.164   6.743
12282TIP3   OH236788   5.921   2.554   4.059
12282TIP3    H136789   5.981   2.482   4.074
12282TIP3    H236790   5.838   2.524   4.097
12283TIP3   OH236791   8.197   5.108   0.821
12283TIP3    H136792   8.183   5.014   0.833
12283TIP3    H236793   8.243   5.114   0.737
12284TIP3   OH236794   0.488   7.763   5.134
12284TIP3    H136795   0.568   7.803   5.170
12284TIP3    H236796   0.420   7.829   5.150
12285TIP3   OH236797   6.570   0.044   3.332
12285TIP3    H136798   6.498   0.013   3.277
12285TIP3    H236799   6.526   0.086   3.406
12286TIP3   OH236800   2.287   2.520   6.626
12286TIP3    H136801   2.253   2.524   6.716
12286TIP3    H236802   2.256   2.437   6.592
12287TIP3   OH236803   4.719   5.032   2.220
12287TIP3    H136804   4.766   5.115   2.218
12287TIP3    H236805   4.635   5.050   2.177
12288TIP3   OH236806   7.117   2.780   2.859
12288TIP3    H136807   7.022   2.774   2.855
12288TIP3    H236808   7.134   2.837   2.934
12289TIP3   OH236809   2.308   0.078   2.569
12289TIP3    H136810   2.361   0.119   2.637
12289TIP3    H236811   2.296  -0.012   2.599
12290TIP3   OH236812   6.936   5.664   5.232
12290TIP3    H136813   7.006   5.647   5.295
12290TIP3    H236814   6.980   5.664   5.147
12291TIP3   OH236815   7.977   5.434   2.989
12291TIP3    H136816   8.024   5.418   2.907
12291TIP3    H236817   7.995   5.357   3.043
12292TIP3   OH236818   3.855   4.311   0.180
12292TIP3    H136819   3.948   4.331   0.174
12292TIP3    H236820   3.848   4.218   0.158
12293TIP3   OH236821   4.471   2.932   5.432
12293TIP3    H136822   4.503   2.930   5.342
12293TIP3    H236823   4.520   3.004   5.472
12294TIP3   OH236824   4.731   0.549   2.174
12294TIP3    H136825   4.713   0.641   2.154
12294TIP3    H236826   4.688   0.534   2.258
12295TIP3   OH236827   1.053   2.086   1.002
12295TIP3    H136828   1.087   2.035   0.929
12295TIP3    H236829   1.031   2.021   1.069
12296TIP3   OH236830   1.440   1.395   1.745
12296TIP3    H136831   1.470   1.304   1.735
12296TIP3    H236832   1.520   1.447   1.745
12297TIP3   OH236833   6.554   2.904   2.418
12297TIP3    H136834   6.611   2.935   2.348
12297TIP3    H236835   6.607   2.910   2.497
12298TIP3   OH236836   7.596   4.236   1.043
12298TIP3    H136837   7.575   4.143   1.039
12298TIP3    H236838   7.522   4.275   1.088
12299TIP3   OH236839   7.969   3.647   0.369
12299TIP3    H136840   7.999   3.719   0.425
12299TIP3    H236841   8.047   3.621   0.320
12300TIP3   OH236842   7.696   1.802   2.550
12300TIP3    H136843   7.640   1.748   2.496
12300TIP3    H236844   7.660   1.890   2.543
12301TIP3   OH236845   1.908   6.909   1.535
12301TIP3    H136846   1.892   6.959   1.615
12301TIP3    H236847   1.999   6.926   1.513
12302TIP3   OH236848   0.109   5.142   5.239
12302TIP3    H136849   0.165   5.177   5.308
12302TIP3    H236850   0.143   5.054   5.223
12303TIP3   OH236851   4.894   4.020   2.203
12303TIP3    H136852   4.889   4.113   2.223
12303TIP3    H236853   4.866   3.976   2.283
12304TIP3   OH236854   3.944   3.627   6.260
12304TIP3    H136855   3.977   3.708   6.221
12304TIP3    H236856   3.948   3.643   6.355
12305TIP3   OH236857   0.736   1.293   4.164
12305TIP3    H136858   0.673   1.279   4.234
12305TIP3    H236859   0.699   1.246   4.089
12306TIP3   OH236860   3.491   0.849   1.474
12306TIP3    H136861   3.442   0.783   1.425
12306TIP3    H236862   3.563   0.875   1.416
12307TIP3   OH236863   0.159   6.042   4.411
12307TIP3    H136864   0.190   5.952   4.400
12307TIP3    H236865   0.175   6.084   4.327
12308TIP3   OH236866   1.507   3.467   3.544
12308TIP3    H136867   1.551   3.536   3.494
12308TIP3    H236868   1.520   3.492   3.635
12309TIP3   OH236869   6.196   6.815   2.071
12309TIP3    H136870   6.227   6.896   2.031
12309TIP3    H236871   6.252   6.747   2.034
12310TIP3   OH236872   6.072   3.254   2.523
12310TIP3    H136873   6.085   3.269   2.617
12310TIP3    H236874   6.117   3.327   2.481
12311TIP3   OH236875   3.432   3.706   4.875
12311TIP3    H136876   3.488   3.765   4.925
12311TIP3    H236877   3.476   3.696   4.791
12312TIP3   OH236878   2.136   4.499   6.226
12312TIP3    H136879   2.064   4.500   6.162
12312TIP3    H236880   2.122   4.419   6.276
12313TIP3   OH236881   2.548   1.340   1.896
12313TIP3    H136882   2.455   1.321   1.889
12313TIP3    H236883   2.588   1.257   1.924
12314TIP3   OH236884   2.085   3.835   6.330
12314TIP3    H136885   2.058   3.855   6.420
12314TIP3    H236886   2.128   3.750   6.337
12315TIP3   OH236887   1.354   1.742   5.865
12315TIP3    H136888   1.380   1.775   5.779
12315TIP3    H236889   1.379   1.812   5.926
12316TIP3   OH236890   0.801   1.611   4.394
12316TIP3    H136891   0.759   1.697   4.386
12316TIP3    H236892   0.894   1.632   4.409
12317TIP3   OH236893   4.726   6.217   3.744
12317TIP3    H136894   4.803   6.167   3.717
12317TIP3    H236895   4.741   6.235   3.837
12318TIP3   OH236896   6.775   4.538   0.656
12318TIP3    H136897   6.731   4.486   0.589
12318TIP3    H236898   6.838   4.591   0.608
12319TIP3   OH236899   1.375   5.160   1.094
12319TIP3    H136900   1.436   5.088   1.110
12319TIP3    H236901   1.374   5.209   1.176
12320TIP3   OH236902   5.118   4.025   0.262
12320TIP3    H136903   5.045   4.035   0.201
12320TIP3    H236904   5.127   4.111   0.303
12321TIP3   OH236905   4.429   0.106   3.437
12321TIP3    H136906   4.372   0.152   3.498
12321TIP3    H236907   4.406   0.013   3.447
12322TIP3   OH236908   0.453   2.648   1.343
12322TIP3    H136909   0.396   2.724   1.332
12322TIP3    H236910   0.440   2.621   1.434
12323TIP3   OH236911   4.188   1.500   0.324
12323TIP3    H136912   4.122   1.570   0.332
12323TIP3    H236913   4.197   1.488   0.229
12324TIP3   OH236914   4.988   5.232   6.728
12324TIP3    H136915   4.995   5.323   6.755
12324TIP3    H236916   4.905   5.228   6.679
12325TIP3   OH236917   4.193   3.641   5.904
12325TIP3    H136918   4.107   3.643   5.862
12325TIP3    H236919   4.255   3.660   5.834
12326TIP3   OH236920   5.403   3.427   5.620
12326TIP3    H136921   5.488   3.384   5.624
12326TIP3    H236922   5.377   3.436   5.712
12327TIP3   OH236923   2.927   5.100   0.136
12327TIP3    H136924   3.000   5.161   0.139
12327TIP3    H236925   2.959   5.022   0.182
12328TIP3   OH236926   5.131   4.260   0.430
12328TIP3    H136927   5.107   4.293   0.517
12328TIP3    H236928   5.220   4.293   0.415
12329TIP3   OH236929   6.460   1.710   2.903
12329TIP3    H136930   6.400   1.673   2.969
12329TIP3    H236931   6.407   1.715   2.824
12330TIP3   OH236932   2.624   7.800   3.130
12330TIP3    H136933   2.587   7.827   3.045
12330TIP3    H236934   2.697   7.743   3.108
12331TIP3   OH236935   0.071   3.672   3.504
12331TIP3    H136936   0.006   3.609   3.474
12331TIP3    H236937   0.037   3.757   3.478
12332TIP3   OH236938   4.509   0.391   5.366
12332TIP3    H136939   4.495   0.381   5.272
12332TIP3    H236940   4.453   0.325   5.406
12333TIP3   OH236941   2.512   2.698   6.659
12333TIP3    H136942   2.444   2.632   6.668
12333TIP3    H236943   2.577   2.659   6.600
12334TIP3   OH236944   0.877   2.765   2.208
12334TIP3    H136945   0.816   2.826   2.250
12334TIP3    H236946   0.859   2.775   2.114
12335TIP3   OH236947   2.400   6.380   4.299
12335TIP3    H136948   2.325   6.396   4.242
12335TIP3    H236949   2.364   6.327   4.371
12336TIP3   OH236950   3.431   6.928   0.832
12336TIP3    H136951   3.389   6.842   0.834
12336TIP3    H236952   3.387   6.978   0.900
12337TIP3   OH236953   0.016   5.531   1.925
12337TIP3    H136954  -0.015   5.515   2.014
12337TIP3    H236955   0.072   5.608   1.932
12338TIP3   OH236956   1.863   3.559   3.870
12338TIP3    H136957   1.789   3.498   3.868
12338TIP3    H236958   1.837   3.627   3.932
12339TIP3   OH236959   1.913   4.167   5.712
12339TIP3    H136960   1.946   4.086   5.750
12339TIP3    H236961   1.947   4.236   5.770
12340TIP3   OH236962   6.694   0.551   4.133
12340TIP3    H136963   6.769   0.535   4.189
12340TIP3    H236964   6.623   0.499   4.171
12341TIP3   OH236965   5.114   1.269   3.880
12341TIP3    H136966   5.132   1.329   3.807
12341TIP3    H236967   5.019   1.273   3.892
12342TIP3   OH236968   1.422   6.112   3.565
12342TIP3    H136969   1.357   6.047   3.592
12342TIP3    H236970   1.446   6.086   3.475
12343TIP3   OH236971   1.199   3.825   1.846
12343TIP3    H136972   1.242   3.754   1.800
12343TIP3    H236973   1.252   3.838   1.925
12344TIP3   OH236974   1.828   5.205   6.751
12344TIP3    H136975   1.893   5.175   6.814
12344TIP3    H236976   1.872   5.274   6.701
12345TIP3   OH236977   2.289   4.489   3.141
12345TIP3    H136978   2.329   4.430   3.077
12345TIP3    H236979   2.361   4.513   3.199
12346TIP3   OH236980   6.143   4.911   2.601
12346TIP3    H136981   6.053   4.884   2.582
12346TIP3    H236982   6.197   4.853   2.547
12347TIP3   OH236983   8.090   0.543   5.876
12347TIP3    H136984   8.083   0.526   5.970
12347TIP3    H236985   8.159   0.484   5.846
12348TIP3   OH236986   3.630   1.105   6.017
12348TIP3    H136987   3.671   1.142   6.095
12348TIP3    H236988   3.703   1.085   5.958
12349TIP3   OH236989   4.307   2.190   1.515
12349TIP3    H136990   4.305   2.096   1.498
12349TIP3    H236991   4.393   2.218   1.484
12350TIP3   OH236992   1.067   3.952   1.350
12350TIP3    H136993   1.142   3.973   1.406
12350TIP3    H236994   1.085   3.865   1.317
12351TIP3   OH236995   0.353   3.317   2.294
12351TIP3    H136996   0.299   3.308   2.216
12351TIP3    H236997   0.426   3.373   2.267
12352TIP3   OH236998   7.769   3.992   2.115
12352TIP3    H136999   7.757   3.898   2.129
12352TIP3    H237000   7.846   3.998   2.058
12353TIP3   OH237001   4.564   4.585   2.194
12353TIP3    H137002   4.649   4.629   2.197
12353TIP3    H237003   4.581   4.504   2.145
12354TIP3   OH237004   7.485   2.630   3.343
12354TIP3    H137005   7.473   2.562   3.277
12354TIP3    H237006   7.555   2.686   3.309
12355TIP3   OH237007   6.919   5.974   3.786
12355TIP3    H137008   6.954   5.895   3.744
12355TIP3    H237009   6.960   6.046   3.738
12356TIP3   OH237010   7.143   1.191   6.009
12356TIP3    H137011   7.203   1.265   6.005
12356TIP3    H237012   7.199   1.113   6.000
12357TIP3   OH237013   8.161   0.029   0.428
12357TIP3    H137014   8.239   0.067   0.467
12357TIP3    H237015   8.187  -0.060   0.404
12358TIP3   OH237016   5.204   1.719   5.125
12358TIP3    H137017   5.161   1.637   5.101
12358TIP3    H237018   5.216   1.712   5.220
12359TIP3   OH237019   0.471   6.524   2.751
12359TIP3    H137020   0.420   6.527   2.669
12359TIP3    H237021   0.415   6.477   2.812
12360TIP3   OH237022   8.270   2.942   1.810
12360TIP3    H137023   8.306   2.888   1.740
12360TIP3    H237024   8.201   2.993   1.768
12361TIP3   OH237025   7.971   7.236   1.352
12361TIP3    H137026   7.947   7.201   1.438
12361TIP3    H237027   7.899   7.211   1.295
12362TIP3   OH237028   4.945   4.180   1.028
12362TIP3    H137029   5.018   4.239   1.043
12362TIP3    H237030   4.867   4.232   1.048
12363TIP3   OH237031   4.952   5.966   3.411
12363TIP3    H137032   5.000   5.884   3.421
12363TIP3    H237033   4.959   5.987   3.317
12364TIP3   OH237034   2.707   6.660   0.462
12364TIP3    H137035   2.679   6.726   0.399
12364TIP3    H237036   2.659   6.681   0.542
12365TIP3   OH237037   1.707   3.672   6.201
12365TIP3    H137038   1.748   3.590   6.228
12365TIP3    H237039   1.766   3.709   6.136
12366TIP3   OH237040   7.421   6.229   3.098
12366TIP3    H137041   7.507   6.271   3.108
12366TIP3    H237042   7.439   6.146   3.055
12367TIP3   OH237043   7.422   4.710   2.990
12367TIP3    H137044   7.336   4.674   2.966
12367TIP3    H237045   7.463   4.730   2.906
12368TIP3   OH237046   4.761   4.240   3.678
12368TIP3    H137047   4.694   4.177   3.704
12368TIP3    H237048   4.819   4.191   3.620
12369TIP3   OH237049   0.661   4.639   5.527
12369TIP3    H137050   0.704   4.554   5.514
12369TIP3    H237051   0.636   4.667   5.440
12370TIP3   OH237052   5.201   4.897   0.172
12370TIP3    H137053   5.113   4.918   0.139
12370TIP3    H237054   5.243   4.982   0.184
12371TIP3   OH237055   2.135   1.296   3.483
12371TIP3    H137056   2.159   1.331   3.398
12371TIP3    H237057   2.067   1.231   3.465
12372TIP3   OH237058   4.268   6.084   4.099
12372TIP3    H137059   4.354   6.061   4.064
12372TIP3    H237060   4.206   6.058   4.031
12373TIP3   OH237061   5.319   5.824   5.045
12373TIP3    H137062   5.267   5.899   5.077
12373TIP3    H237063   5.323   5.837   4.950
12374TIP3   OH237064   4.764   6.682   2.770
12374TIP3    H137065   4.828   6.611   2.773
12374TIP3    H237066   4.761   6.716   2.859
12375TIP3   OH237067   5.729   1.936   3.689
12375TIP3    H137068   5.765   1.853   3.659
12375TIP3    H237069   5.804   1.982   3.728
12376TIP3   OH237070   1.592   3.213   0.241
12376TIP3    H137071   1.556   3.263   0.167
12376TIP3    H237072   1.686   3.231   0.238
12377TIP3   OH237073   7.355   7.526   4.558
12377TIP3    H137074   7.332   7.617   4.577
12377TIP3    H237075   7.373   7.487   4.643
12378TIP3   OH237076   7.198   3.179   1.922
12378TIP3    H137077   7.141   3.160   1.997
12378TIP3    H237078   7.156   3.253   1.879
12379TIP3   OH237079   2.400   7.031   5.603
12379TIP3    H137080   2.331   7.044   5.538
12379TIP3    H237081   2.357   7.049   5.687
12380TIP3   OH237082   2.129   4.581   2.643
12380TIP3    H137083   2.049   4.556   2.597
12380TIP3    H237084   2.142   4.512   2.708
12381TIP3   OH237085   7.029   7.460   6.017
12381TIP3    H137086   6.993   7.420   5.938
12381TIP3    H237087   7.122   7.437   6.016
12382TIP3   OH237088   4.030   6.114   1.775
12382TIP3    H137089   3.997   6.202   1.756
12382TIP3    H237090   4.124   6.126   1.789
12383TIP3   OH237091   6.010   2.096   2.152
12383TIP3    H137092   6.032   2.142   2.233
12383TIP3    H237093   6.032   2.158   2.083
12384TIP3   OH237094   2.333   3.715   6.054
12384TIP3    H137095   2.277   3.720   5.977
12384TIP3    H237096   2.372   3.802   6.061
12385TIP3   OH237097   3.383   4.447   5.361
12385TIP3    H137098   3.462   4.423   5.409
12385TIP3    H237099   3.416   4.488   5.281
12386TIP3   OH237100   2.599   1.337   1.614
12386TIP3    H137101   2.506   1.323   1.596
12386TIP3    H237102   2.604   1.353   1.708
12387TIP3   OH237103   5.759   0.793   5.297
12387TIP3    H137104   5.777   0.887   5.299
12387TIP3    H237105   5.815   0.756   5.365
12388TIP3   OH237106   6.446   5.514   0.604
12388TIP3    H137107   6.352   5.500   0.596
12388TIP3    H237108   6.462   5.596   0.558
12389TIP3   OH237109   1.884   6.001   5.803
12389TIP3    H137110   1.907   5.940   5.733
12389TIP3    H237111   1.876   6.086   5.759
12390TIP3   OH237112   7.764   6.530   3.725
12390TIP3    H137113   7.726   6.596   3.667
12390TIP3    H237114   7.830   6.578   3.776
12391TIP3   OH237115   3.796   3.360   3.291
12391TIP3    H137116   3.817   3.442   3.335
12391TIP3    H237117   3.700   3.354   3.296
12392TIP3   OH237118   0.096   5.368   0.622
12392TIP3    H137119   0.005   5.377   0.591
12392TIP3    H237120   0.098   5.283   0.666
12393TIP3   OH237121   3.504   6.129   2.338
12393TIP3    H137122   3.462   6.111   2.422
12393TIP3    H237123   3.438   6.178   2.289
12394TIP3   OH237124   1.561   2.553   3.635
12394TIP3    H137125   1.524   2.583   3.718
12394TIP3    H237126   1.608   2.473   3.657
12395TIP3   OH237127   7.115   1.631   5.168
12395TIP3    H137128   7.155   1.701   5.116
12395TIP3    H237129   7.038   1.604   5.117
12396TIP3   OH237130   4.590   7.504   4.967
12396TIP3    H137131   4.631   7.504   5.053
12396TIP3    H237132   4.504   7.544   4.981
12397TIP3   OH237133   0.985   2.271   2.820
12397TIP3    H137134   0.977   2.215   2.898
12397TIP3    H237135   0.899   2.267   2.779
12398TIP3   OH237136   3.625   4.275   1.251
12398TIP3    H137137   3.703   4.295   1.199
12398TIP3    H237138   3.655   4.278   1.342
12399TIP3   OH237139   1.628   4.412   0.502
12399TIP3    H137140   1.598   4.448   0.419
12399TIP3    H237141   1.697   4.472   0.531
12400TIP3   OH237142   4.070   2.265   4.862
12400TIP3    H137143   3.979   2.234   4.860
12400TIP3    H237144   4.067   2.344   4.917
12401TIP3   OH237145   1.424   6.151   3.079
12401TIP3    H137146   1.410   6.138   2.985
12401TIP3    H237147   1.512   6.189   3.085
12402TIP3   OH237148   7.706   0.749   3.249
12402TIP3    H137149   7.731   0.840   3.263
12402TIP3    H237150   7.683   0.716   3.336
12403TIP3   OH237151   2.125   6.370   4.711
12403TIP3    H137152   2.092   6.450   4.753
12403TIP3    H237153   2.048   6.315   4.701
12404TIP3   OH237154   3.227   2.681   4.394
12404TIP3    H137155   3.311   2.637   4.388
12404TIP3    H237156   3.225   2.739   4.318
12405TIP3   OH237157   3.934   3.571   1.207
12405TIP3    H137158   3.959   3.650   1.160
12405TIP3    H237159   3.853   3.543   1.165
12406TIP3   OH237160   4.240   2.234   5.218
12406TIP3    H137161   4.210   2.310   5.167
12406TIP3    H237162   4.335   2.241   5.217
12407TIP3   OH237163   3.278   0.674   3.902
12407TIP3    H137164   3.249   0.676   3.811
12407TIP3    H237165   3.373   0.685   3.897
12408TIP3   OH237166   0.408   7.363   0.657
12408TIP3    H137167   0.467   7.429   0.621
12408TIP3    H237168   0.343   7.414   0.706
12409TIP3   OH237169   6.544   5.318   2.975
12409TIP3    H137170   6.469   5.267   2.944
12409TIP3    H237171   6.512   5.408   2.980
12410TIP3   OH237172   1.066   0.059   0.291
12410TIP3    H137173   1.094   0.075   0.381
12410TIP3    H237174   1.034  -0.032   0.292
12411TIP3   OH237175   6.630   1.757   0.239
12411TIP3    H137176   6.616   1.669   0.272
12411TIP3    H237177   6.717   1.781   0.270
12412TIP3   OH237178   2.529   6.737   3.324
12412TIP3    H137179   2.449   6.703   3.284
12412TIP3    H237180   2.515   6.831   3.330
12413TIP3   OH237181   7.713   1.720   4.999
12413TIP3    H137182   7.731   1.702   4.907
12413TIP3    H237183   7.644   1.786   4.998
12414TIP3   OH237184   5.493   0.053   2.533
12414TIP3    H137185   5.420   0.038   2.593
12414TIP3    H237186   5.527  -0.035   2.515
12415TIP3   OH237187   7.574   3.461   3.999
12415TIP3    H137188   7.542   3.548   4.024
12415TIP3    H237189   7.511   3.431   3.933
12416TIP3   OH237190   5.926   7.100   3.254
12416TIP3    H137191   5.837   7.128   3.275
12416TIP3    H237192   5.977   7.122   3.332
12417TIP3   OH237193   5.118   3.969   3.874
12417TIP3    H137194   5.036   3.973   3.825
12417TIP3    H237195   5.103   3.902   3.941
12418TIP3   OH237196   4.978   5.416   6.440
12418TIP3    H137197   4.985   5.487   6.375
12418TIP3    H237198   5.068   5.389   6.456
12419TIP3   OH237199   4.321   3.274   6.246
12419TIP3    H137200   4.372   3.278   6.165
12419TIP3    H237201   4.293   3.183   6.253
12420TIP3   OH237202   7.158   4.956   4.159
12420TIP3    H137203   7.129   4.879   4.208
12420TIP3    H237204   7.080   4.988   4.116
12421TIP3   OH237205   6.567   5.045   5.192
12421TIP3    H137206   6.529   4.997   5.266
12421TIP3    H237207   6.661   5.031   5.200
12422TIP3   OH237208   7.403   0.883   4.235
12422TIP3    H137209   7.342   0.926   4.294
12422TIP3    H237210   7.485   0.878   4.284
12423TIP3   OH237211   2.867   5.560   4.500
12423TIP3    H137212   2.830   5.545   4.587
12423TIP3    H237213   2.946   5.507   4.499
12424TIP3   OH237214   1.865   6.818   4.369
12424TIP3    H137215   1.913   6.738   4.347
12424TIP3    H237216   1.876   6.875   4.293
12425TIP3   OH237217   5.007   7.046   6.716
12425TIP3    H137218   4.987   7.093   6.635
12425TIP3    H237219   5.099   7.019   6.706
12426TIP3   OH237220   3.609   0.488   5.738
12426TIP3    H137221   3.520   0.483   5.772
12426TIP3    H237222   3.610   0.568   5.684
12427TIP3   OH237223   4.557   2.940   2.972
12427TIP3    H137224   4.610   3.019   2.983
12427TIP3    H237225   4.562   2.922   2.878
12428TIP3   OH237226   2.669   3.207   6.552
12428TIP3    H137227   2.763   3.196   6.568
12428TIP3    H237228   2.660   3.200   6.457
12429TIP3   OH237229   3.926   6.819   5.356
12429TIP3    H137230   3.873   6.753   5.312
12429TIP3    H237231   3.986   6.851   5.288
12430TIP3   OH237232   7.640   0.333   0.243
12430TIP3    H137233   7.726   0.332   0.202
12430TIP3    H237234   7.640   0.257   0.302
12431TIP3   OH237235   7.331   3.462   5.149
12431TIP3    H137236   7.253   3.422   5.111
12431TIP3    H237237   7.312   3.467   5.243
12432TIP3   OH237238   3.149   5.911   1.979
12432TIP3    H137239   3.064   5.869   1.993
12432TIP3    H237240   3.180   5.931   2.067
12433TIP3   OH237241   6.329   1.775   2.684
12433TIP3    H137242   6.312   1.828   2.606
12433TIP3    H237243   6.280   1.694   2.669
12434TIP3   OH237244   4.864   1.759   0.200
12434TIP3    H137245   4.910   1.836   0.167
12434TIP3    H237246   4.871   1.694   0.130
12435TIP3   OH237247   8.035   5.919   3.613
12435TIP3    H137248   8.002   5.941   3.526
12435TIP3    H237249   8.093   5.844   3.598
12436TIP3   OH237250   5.207   2.197   4.991
12436TIP3    H137251   5.291   2.172   5.031
12436TIP3    H237252   5.171   2.114   4.958
12437TIP3   OH237253   3.655   2.411   2.276
12437TIP3    H137254   3.709   2.355   2.332
12437TIP3    H237255   3.689   2.396   2.188
12438TIP3   OH237256   6.420   1.587   5.412
12438TIP3    H137257   6.477   1.552   5.480
12438TIP3    H237258   6.477   1.640   5.357
12439TIP3   OH237259   6.449   3.722   4.978
12439TIP3    H137260   6.487   3.802   5.015
12439TIP3    H237261   6.489   3.713   4.892
12440TIP3   OH237262   6.643   1.029   4.107
12440TIP3    H137263   6.564   1.084   4.112
12440TIP3    H237264   6.619   0.950   4.155
12441TIP3   OH237265   1.283   0.109   2.980
12441TIP3    H137266   1.240   0.170   3.040
12441TIP3    H237267   1.211   0.071   2.930
12442TIP3   OH237268   6.655   1.471   3.438
12442TIP3    H137269   6.580   1.438   3.388
12442TIP3    H237270   6.654   1.566   3.422
12443TIP3   OH237271   3.084   2.666   1.953
12443TIP3    H137272   3.017   2.603   1.929
12443TIP3    H237273   3.041   2.751   1.944
12444TIP3   OH237274   4.102   4.912   1.721
12444TIP3    H137275   4.092   4.837   1.779
12444TIP3    H237276   4.168   4.884   1.658
12445TIP3   OH237277   1.924   3.767   1.914
12445TIP3    H137278   1.922   3.698   1.980
12445TIP3    H237279   1.865   3.735   1.845
12446TIP3   OH237280   3.523   2.659   2.394
12446TIP3    H137281   3.602   2.643   2.445
12446TIP3    H237282   3.539   2.614   2.311
12447TIP3   OH237283   7.834   1.802   2.879
12447TIP3    H137284   7.764   1.854   2.917
12447TIP3    H237285   7.910   1.819   2.935
12448TIP3   OH237286   7.763   5.878   1.531
12448TIP3    H137287   7.809   5.892   1.447
12448TIP3    H237288   7.830   5.841   1.589
12449TIP3   OH237289   7.394   3.559   6.420
12449TIP3    H137290   7.438   3.556   6.505
12449TIP3    H237291   7.306   3.527   6.438
12450TIP3   OH237292   4.960   4.008   6.325
12450TIP3    H137293   4.995   4.033   6.239
12450TIP3    H237294   4.866   4.024   6.319
12451TIP3   OH237295   3.657   2.138   1.185
12451TIP3    H137296   3.675   2.055   1.142
12451TIP3    H237297   3.615   2.192   1.118
12452TIP3   OH237298   7.642   7.770   3.705
12452TIP3    H137299   7.609   7.797   3.791
12452TIP3    H237300   7.676   7.850   3.666
12453TIP3   OH237301   0.045   6.735   5.364
12453TIP3    H137302   0.139   6.717   5.366
12453TIP3    H237303   0.032   6.804   5.429
12454TIP3   OH237304   8.124   7.423   1.252
12454TIP3    H137305   8.169   7.452   1.331
12454TIP3    H237306   8.071   7.349   1.279
12455TIP3   OH237307   5.628   4.360   0.156
12455TIP3    H137308   5.616   4.419   0.231
12455TIP3    H237309   5.541   4.353   0.117
12456TIP3   OH237310   1.310   0.305   6.449
12456TIP3    H137311   1.390   0.358   6.442
12456TIP3    H237312   1.251   0.358   6.502
12457TIP3   OH237313   3.383   2.016   5.117
12457TIP3    H137314   3.338   2.095   5.147
12457TIP3    H237315   3.326   1.980   5.050
12458TIP3   OH237316   4.922   5.123   4.027
12458TIP3    H137317   5.016   5.103   4.030
12458TIP3    H237318   4.917   5.205   3.979
12459TIP3   OH237319   1.874   0.358   2.573
12459TIP3    H137320   1.912   0.273   2.553
12459TIP3    H237321   1.917   0.419   2.513
12460TIP3   OH237322   5.419   5.431   6.725
12460TIP3    H137323   5.357   5.368   6.763
12460TIP3    H237324   5.377   5.460   6.644
12461TIP3   OH237325   0.677   0.959   3.107
12461TIP3    H137326   0.589   0.994   3.123
12461TIP3    H237327   0.736   1.024   3.147
12462TIP3   OH237328   1.180   7.491   2.206
12462TIP3    H137329   1.271   7.465   2.214
12462TIP3    H237330   1.145   7.486   2.295
12463TIP3   OH237331   1.727   3.818   0.206
12463TIP3    H137332   1.772   3.881   0.150
12463TIP3    H237333   1.754   3.840   0.295
12464TIP3   OH237334   5.557   1.045   2.141
12464TIP3    H137335   5.533   1.054   2.233
12464TIP3    H237336   5.516   1.120   2.098
12465TIP3   OH237337   4.078   1.580   3.927
12465TIP3    H137338   4.007   1.642   3.941
12465TIP3    H237339   4.153   1.633   3.901
12466TIP3   OH237340   1.232   7.211   1.842
12466TIP3    H137341   1.316   7.172   1.867
12466TIP3    H237342   1.217   7.181   1.753
12467TIP3   OH237343   7.788   5.074   3.838
12467TIP3    H137344   7.713   5.017   3.854
12467TIP3    H237345   7.768   5.118   3.756
12468TIP3   OH237346   2.997   5.530   2.004
12468TIP3    H137347   3.077   5.539   2.055
12468TIP3    H237348   2.955   5.616   2.011
12469TIP3   OH237349   0.802   5.900   5.026
12469TIP3    H137350   0.739   5.922   4.958
12469TIP3    H237351   0.835   5.814   5.002
12470TIP3   OH237352   6.100   1.444   3.363
12470TIP3    H137353   6.176   1.392   3.337
12470TIP3    H237354   6.027   1.407   3.314
12471TIP3   OH237355   2.944   1.400   6.585
12471TIP3    H137356   2.942   1.334   6.516
12471TIP3    H237357   3.024   1.450   6.569
12472TIP3   OH237358   4.180   5.366   5.515
12472TIP3    H137359   4.101   5.349   5.463
12472TIP3    H237360   4.252   5.342   5.456
12473TIP3   OH237361   0.268   3.295   4.614
12473TIP3    H137362   0.264   3.387   4.638
12473TIP3    H237363   0.343   3.288   4.555
12474TIP3   OH237364   4.400   3.220   2.985
12474TIP3    H137365   4.352   3.162   3.044
12474TIP3    H237366   4.346   3.225   2.906
12475TIP3   OH237367   5.736   4.753   3.058
12475TIP3    H137368   5.756   4.805   2.980
12475TIP3    H237369   5.746   4.662   3.028
12476TIP3   OH237370   6.830   1.766   1.288
12476TIP3    H137371   6.761   1.741   1.350
12476TIP3    H237372   6.870   1.683   1.262
12477TIP3   OH237373   2.246   6.800   5.811
12477TIP3    H137374   2.206   6.844   5.736
12477TIP3    H237375   2.272   6.872   5.869
12478TIP3   OH237376   4.344   0.443   3.033
12478TIP3    H137377   4.437   0.460   3.051
12478TIP3    H237378   4.301   0.527   3.050
12479TIP3   OH237379   3.247   6.832   1.769
12479TIP3    H137380   3.289   6.748   1.753
12479TIP3    H237381   3.317   6.897   1.761
12480TIP3   OH237382   2.185   2.598   0.584
12480TIP3    H137383   2.115   2.542   0.617
12480TIP3    H237384   2.197   2.570   0.494
12481TIP3   OH237385   5.991   4.824   4.533
12481TIP3    H137386   6.019   4.738   4.504
12481TIP3    H237387   6.057   4.884   4.499
12482TIP3   OH237388   8.008   2.429   2.970
12482TIP3    H137389   7.950   2.505   2.963
12482TIP3    H237390   8.088   2.457   2.926
12483TIP3   OH237391   3.369   2.935   6.633
12483TIP3    H137392   3.353   2.844   6.658
12483TIP3    H237393   3.297   2.957   6.575
12484TIP3   OH237394   2.797   2.175   3.082
12484TIP3    H137395   2.874   2.223   3.113
12484TIP3    H237396   2.806   2.175   2.986
12485TIP3   OH237397   1.135   3.167   1.281
12485TIP3    H137398   1.172   3.080   1.264
12485TIP3    H237399   1.176   3.223   1.216
12486TIP3   OH237400   3.205   0.426   3.661
12486TIP3    H137401   3.127   0.433   3.716
12486TIP3    H237402   3.228   0.516   3.640
12487TIP3   OH237403   5.262   5.668   5.819
12487TIP3    H137404   5.341   5.614   5.822
12487TIP3    H237405   5.275   5.727   5.745
12488TIP3   OH237406   0.078   1.531   0.639
12488TIP3    H137407   0.098   1.438   0.653
12488TIP3    H237408   0.138   1.558   0.569
12489TIP3   OH237409   5.871   3.836   5.795
12489TIP3    H137410   5.926   3.909   5.767
12489TIP3    H237411   5.813   3.819   5.721
12490TIP3   OH237412   8.256   7.197   4.292
12490TIP3    H137413   8.274   7.206   4.385
12490TIP3    H237414   8.290   7.111   4.269
12491TIP3   OH237415   7.170   5.839   0.751
12491TIP3    H137416   7.247   5.890   0.775
12491TIP3    H237417   7.200   5.748   0.755
12492TIP3   OH237418   2.506   1.694   1.740
12492TIP3    H137419   2.582   1.745   1.767
12492TIP3    H237420   2.495   1.716   1.647
12493TIP3   OH237421   1.094   1.725   1.591
12493TIP3    H137422   1.089   1.797   1.654
12493TIP3    H237423   1.149   1.659   1.634
12494TIP3   OH237424   1.434   3.485   3.015
12494TIP3    H137425   1.486   3.564   3.033
12494TIP3    H237426   1.437   3.435   3.096
12495TIP3   OH237427   3.846   0.929   1.031
12495TIP3    H137428   3.915   0.864   1.024
12495TIP3    H237429   3.771   0.881   1.067
12496TIP3   OH237430   0.768   3.892   5.326
12496TIP3    H137431   0.818   3.969   5.354
12496TIP3    H237432   0.834   3.823   5.317
12497TIP3   OH237433   6.153   0.348   5.262
12497TIP3    H137434   6.206   0.426   5.251
12497TIP3    H237435   6.092   0.349   5.188
12498TIP3   OH237436   4.209   2.766   0.659
12498TIP3    H137437   4.116   2.776   0.642
12498TIP3    H237438   4.223   2.809   0.743
12499TIP3   OH237439   2.616   0.419   5.627
12499TIP3    H137440   2.559   0.421   5.550
12499TIP3    H237441   2.566   0.465   5.695
12500TIP3   OH237442   3.278   3.531   1.773
12500TIP3    H137443   3.307   3.528   1.864
12500TIP3    H237444   3.322   3.455   1.732
12501TIP3   OH237445   3.020   5.997   4.992
12501TIP3    H137446   2.944   5.963   4.945
12501TIP3    H237447   3.018   5.953   5.077
12502TIP3   OH237448   3.881   1.423   0.794
12502TIP3    H137449   3.823   1.489   0.831
12502TIP3    H237450   3.838   1.339   0.812
12503TIP3   OH237451   2.578   7.667   0.368
12503TIP3    H137452   2.673   7.662   0.377
12503TIP3    H237453   2.562   7.749   0.322
12504TIP3   OH237454   7.172   4.997   2.121
12504TIP3    H137455   7.234   4.934   2.084
12504TIP3    H237456   7.197   5.004   2.213
12505TIP3   OH237457   2.183   5.736   5.515
12505TIP3    H137458   2.239   5.708   5.443
12505TIP3    H237459   2.238   5.793   5.568
12506TIP3   OH237460   7.053   1.122   0.514
12506TIP3    H137461   7.076   1.119   0.422
12506TIP3    H237462   7.090   1.043   0.552
12507TIP3   OH237463   6.277   6.434   6.734
12507TIP3    H137464   6.361   6.432   6.779
12507TIP3    H237465   6.299   6.454   6.643
12508TIP3   OH237466   2.050   6.834   5.226
12508TIP3    H137467   2.010   6.909   5.182
12508TIP3    H237468   2.111   6.797   5.162
12509TIP3   OH237469   1.629   7.407   6.673
12509TIP3    H137470   1.651   7.488   6.720
12509TIP3    H237471   1.705   7.390   6.618
12510TIP3   OH237472   6.452   7.762   1.056
12510TIP3    H137473   6.502   7.681   1.046
12510TIP3    H237474   6.382   7.755   0.991
12511TIP3   OH237475   5.679   7.364   2.237
12511TIP3    H137476   5.586   7.349   2.252
12511TIP3    H237477   5.719   7.356   2.324
12512TIP3   OH237478   8.055   2.655   4.595
12512TIP3    H137479   8.017   2.733   4.636
12512TIP3    H237480   8.073   2.682   4.505
12513TIP3   OH237481   2.062   6.241   3.165
12513TIP3    H137482   2.060   6.310   3.232
12513TIP3    H237483   1.985   6.259   3.111
12514TIP3   OH237484   3.576   2.800   3.477
12514TIP3    H137485   3.608   2.890   3.485
12514TIP3    H237486   3.540   2.796   3.389
12515TIP3   OH237487   7.339   6.165   6.731
12515TIP3    H137488   7.333   6.227   6.804
12515TIP3    H237489   7.300   6.084   6.765
12516TIP3   OH237490   2.998   6.660   5.407
12516TIP3    H137491   3.026   6.676   5.497
12516TIP3    H237492   2.921   6.716   5.396
12517TIP3   OH237493   6.105   6.763   3.053
12517TIP3    H137494   6.117   6.857   3.062
12517TIP3    H237495   6.020   6.746   3.094
12518TIP3   OH237496   4.222   0.605   2.343
12518TIP3    H137497   4.146   0.645   2.302
12518TIP3    H237498   4.277   0.577   2.270
12519TIP3   OH237499   8.208   3.880   2.193
12519TIP3    H137500   8.237   3.822   2.263
12519TIP3    H237501   8.119   3.905   2.218
12520TIP3   OH237502   6.683   4.499   1.176
12520TIP3    H137503   6.717   4.558   1.244
12520TIP3    H237504   6.681   4.551   1.097
12521TIP3   OH237505   0.283   4.308   5.514
12521TIP3    H137506   0.252   4.334   5.601
12521TIP3    H237507   0.329   4.385   5.480
12522TIP3   OH237508   2.784   4.400   5.101
12522TIP3    H137509   2.737   4.482   5.112
12522TIP3    H237510   2.745   4.360   5.023
12523TIP3   OH237511   0.293   3.226   6.174
12523TIP3    H137512   0.247   3.296   6.219
12523TIP3    H237513   0.238   3.205   6.098
12524TIP3   OH237514   0.810   3.312   1.602
12524TIP3    H137515   0.859   3.383   1.560
12524TIP3    H237516   0.795   3.343   1.692
12525TIP3   OH237517   1.415   1.578   4.715
12525TIP3    H137518   1.398   1.539   4.630
12525TIP3    H237519   1.353   1.650   4.722
12526TIP3   OH237520   3.114   3.240   5.091
12526TIP3    H137521   3.086   3.329   5.112
12526TIP3    H237522   3.194   3.253   5.039
12527TIP3   OH237523   2.281   4.206   5.985
12527TIP3    H137524   2.302   4.290   5.944
12527TIP3    H237525   2.187   4.209   5.999
12528TIP3   OH237526   3.011   0.529   3.847
12528TIP3    H137527   2.959   0.610   3.847
12528TIP3    H237528   3.057   0.531   3.931
12529TIP3   OH237529   1.175   6.378   5.482
12529TIP3    H137530   1.093   6.422   5.459
12529TIP3    H237531   1.203   6.337   5.400
12530TIP3   OH237532   4.790   1.239   5.600
12530TIP3    H137533   4.707   1.286   5.601
12530TIP3    H237534   4.854   1.305   5.628
12531TIP3   OH237535   2.454   4.564   2.916
12531TIP3    H137536   2.378   4.622   2.912
12531TIP3    H237537   2.519   4.614   2.967
12532TIP3   OH237538   3.590   6.093   0.318
12532TIP3    H137539   3.495   6.096   0.332
12532TIP3    H237540   3.606   6.162   0.253
12533TIP3   OH237541   8.241   5.869   1.948
12533TIP3    H137542   8.193   5.949   1.971
12533TIP3    H237543   8.249   5.873   1.852
12534TIP3   OH237544   6.842   4.673   6.275
12534TIP3    H137545   6.920   4.618   6.269
12534TIP3    H237546   6.796   4.660   6.192
12535TIP3   OH237547   7.304   6.890   2.093
12535TIP3    H137548   7.262   6.912   2.010
12535TIP3    H237549   7.368   6.960   2.108
12536TIP3   OH237550   3.103   2.961   2.216
12536TIP3    H137551   3.148   2.972   2.132
12536TIP3    H237552   3.159   2.899   2.264
12537TIP3   OH237553   2.803   4.438   2.648
12537TIP3    H137554   2.893   4.409   2.660
12537TIP3    H237555   2.750   4.361   2.668
12538TIP3   OH237556   5.637   7.240   6.054
12538TIP3    H137557   5.675   7.303   5.993
12538TIP3    H237558   5.701   7.235   6.126
12539TIP3   OH237559   2.824   0.234   5.585
12539TIP3    H137560   2.841   0.263   5.495
12539TIP3    H237561   2.763   0.298   5.620
12540TIP3   OH237562   7.991   3.515   6.638
12540TIP3    H137563   7.908   3.493   6.597
12540TIP3    H237564   7.988   3.610   6.650
12541TIP3   OH237565   2.728   2.640   6.504
12541TIP3    H137566   2.724   2.705   6.434
12541TIP3    H237567   2.821   2.621   6.514
12542TIP3   OH237568   6.626   6.229   6.408
12542TIP3    H137569   6.603   6.321   6.417
12542TIP3    H237570   6.617   6.212   6.314
12543TIP3   OH237571   3.921   3.800   0.652
12543TIP3    H137572   3.847   3.857   0.630
12543TIP3    H237573   3.882   3.729   0.703
12544TIP3   OH237574   2.118   3.419   0.211
12544TIP3    H137575   2.060   3.348   0.239
12544TIP3    H237576   2.197   3.408   0.264
12545TIP3   OH237577   7.336   0.591   2.036
12545TIP3    H137578   7.371   0.641   1.963
12545TIP3    H237579   7.412   0.545   2.072
12546TIP3   OH237580   5.319   4.678   6.692
12546TIP3    H137581   5.232   4.655   6.661
12546TIP3    H237582   5.308   4.692   6.786
12547TIP3   OH237583   1.897   4.034   4.409
12547TIP3    H137584   1.992   4.031   4.400
12547TIP3    H237585   1.864   3.988   4.332
12548TIP3   OH237586   5.462   4.139   4.929
12548TIP3    H137587   5.545   4.092   4.931
12548TIP3    H237588   5.478   4.212   4.869
12549TIP3   OH237589   7.618   0.872   4.989
12549TIP3    H137590   7.572   0.803   4.942
12549TIP3    H237591   7.640   0.937   4.922
12550TIP3   OH237592   8.292   5.639   5.672
12550TIP3    H137593   8.268   5.602   5.757
12550TIP3    H237594   8.235   5.594   5.610
12551TIP3   OH237595   8.157   5.014   6.411
12551TIP3    H137596   8.204   5.069   6.474
12551TIP3    H237597   8.170   4.924   6.443
12552TIP3   OH237598   1.777   4.961   3.366
12552TIP3    H137599   1.860   4.957   3.413
12552TIP3    H237600   1.783   4.892   3.299
12553TIP3   OH237601   4.956   5.523   0.943
12553TIP3    H137602   5.048   5.525   0.971
12553TIP3    H237603   4.943   5.607   0.898
12554TIP3   OH237604   6.650   1.246   6.293
12554TIP3    H137605   6.582   1.248   6.225
12554TIP3    H237606   6.732   1.242   6.245
12555TIP3   OH237607   5.666   6.955   2.722
12555TIP3    H137608   5.605   6.889   2.756
12555TIP3    H237609   5.613   7.011   2.667
12556TIP3   OH237610   0.045   7.043   2.040
12556TIP3    H137611   0.083   7.109   1.981
12556TIP3    H237612   0.116   7.020   2.099
12557TIP3   OH237613   2.226   3.026   6.778
12557TIP3    H137614   2.184   3.092   6.722
12557TIP3    H237615   2.318   3.027   6.751
12558TIP3   OH237616   3.875   0.455   5.432
12558TIP3    H137617   3.856   0.541   5.396
12558TIP3    H237618   3.930   0.412   5.366
12559TIP3   OH237619   6.318   4.192   5.892
12559TIP3    H137620   6.271   4.122   5.937
12559TIP3    H237621   6.249   4.248   5.855
12560TIP3   OH237622   7.825   2.295   5.138
12560TIP3    H137623   7.856   2.210   5.169
12560TIP3    H237624   7.873   2.358   5.190
12561TIP3   OH237625   5.718   5.859   2.162
12561TIP3    H137626   5.663   5.920   2.211
12561TIP3    H237627   5.807   5.894   2.171
12562TIP3   OH237628   7.353   7.010   1.235
12562TIP3    H137629   7.333   7.024   1.327
12562TIP3    H237630   7.442   6.976   1.235
12563TIP3   OH237631   3.782   6.615   2.829
12563TIP3    H137632   3.781   6.669   2.750
12563TIP3    H237633   3.837   6.540   2.805
12564TIP3   OH237634   7.801   5.205   2.721
12564TIP3    H137635   7.712   5.220   2.751
12564TIP3    H237636   7.853   5.275   2.761
12565TIP3   OH237637   4.454   6.839   1.877
12565TIP3    H137638   4.428   6.930   1.892
12565TIP3    H237639   4.549   6.839   1.891
12566TIP3   OH237640   0.649   6.027   6.021
12566TIP3    H137641   0.731   6.050   6.065
12566TIP3    H237642   0.619   6.110   5.983
12567TIP3   OH237643   4.056   6.928   6.608
12567TIP3    H137644   4.146   6.909   6.582
12567TIP3    H237645   4.061   7.013   6.651
12568TIP3   OH237646   6.444   0.719   6.135
12568TIP3    H137647   6.352   0.696   6.121
12568TIP3    H237648   6.490   0.675   6.064
12569TIP3   OH237649   3.411   2.654   6.423
12569TIP3    H137650   3.326   2.670   6.381
12569TIP3    H237651   3.390   2.634   6.514
12570TIP3   OH237652   7.600   4.244   4.422
12570TIP3    H137653   7.548   4.164   4.431
12570TIP3    H237654   7.538   4.311   4.395
12571TIP3   OH237655   7.595   4.526   2.154
12571TIP3    H137656   7.684   4.529   2.189
12571TIP3    H237657   7.579   4.433   2.137
12572TIP3   OH237658   7.668   5.639   5.639
12572TIP3    H137659   7.704   5.670   5.722
12572TIP3    H237660   7.658   5.545   5.651
12573TIP3   OH237661   0.288   0.459   5.246
12573TIP3    H137662   0.219   0.508   5.203
12573TIP3    H237663   0.242   0.393   5.298
12574TIP3   OH237664   2.039   3.800   1.271
12574TIP3    H137665   2.063   3.720   1.225
12574TIP3    H237666   2.122   3.833   1.307
12575TIP3   OH237667   4.137   5.846   1.941
12575TIP3    H137668   4.149   5.917   1.878
12575TIP3    H237669   4.214   5.790   1.930
12576TIP3   OH237670   6.904   6.200   4.619
12576TIP3    H137671   6.932   6.184   4.709
12576TIP3    H237672   6.986   6.215   4.571
12577TIP3   OH237673   6.131   3.308   2.777
12577TIP3    H137674   6.066   3.302   2.848
12577TIP3    H237675   6.175   3.392   2.793
12578TIP3   OH237676   3.499   7.500   1.675
12578TIP3    H137677   3.407   7.503   1.650
12578TIP3    H237678   3.512   7.579   1.727
12579TIP3   OH237679   4.114   7.142   1.106
12579TIP3    H137680   4.201   7.182   1.107
12579TIP3    H237681   4.130   7.050   1.128
12580TIP3   OH237682   8.064   5.240   6.322
12580TIP3    H137683   8.116   5.163   6.343
12580TIP3    H237684   7.975   5.217   6.352
12581TIP3   OH237685   2.452   2.246   2.119
12581TIP3    H137686   2.453   2.154   2.092
12581TIP3    H237687   2.427   2.294   2.040
12582TIP3   OH237688   2.842   3.772   4.491
12582TIP3    H137689   2.833   3.809   4.579
12582TIP3    H237690   2.933   3.743   4.487
12583TIP3   OH237691   6.782   6.917   4.658
12583TIP3    H137692   6.751   6.841   4.706
12583TIP3    H237693   6.714   6.983   4.670
12584TIP3   OH237694   3.646   4.723   0.704
12584TIP3    H137695   3.628   4.794   0.642
12584TIP3    H237696   3.561   4.682   0.718
12585TIP3   OH237697   3.500   6.976   2.025
12585TIP3    H137698   3.587   7.003   1.998
12585TIP3    H237699   3.446   6.989   1.947
12586TIP3   OH237700   0.848   3.665   2.771
12586TIP3    H137701   0.810   3.579   2.786
12586TIP3    H237702   0.935   3.648   2.735
12587TIP3   OH237703   4.609   6.201   5.668
12587TIP3    H137704   4.563   6.117   5.669
12587TIP3    H237705   4.648   6.209   5.755
12588TIP3   OH237706   7.690   0.301   1.060
12588TIP3    H137707   7.760   0.363   1.078
12588TIP3    H237708   7.734   0.224   1.024
12589TIP3   OH237709   4.842   3.741   4.886
12589TIP3    H137710   4.775   3.700   4.941
12589TIP3    H237711   4.844   3.688   4.807
12590TIP3   OH237712   5.619   5.151   1.475
12590TIP3    H137713   5.594   5.244   1.475
12590TIP3    H237714   5.671   5.140   1.554
12591TIP3   OH237715   3.659   3.176   5.901
12591TIP3    H137716   3.690   3.115   5.834
12591TIP3    H237717   3.575   3.140   5.930
12592TIP3   OH237718   4.457   6.085   2.792
12592TIP3    H137719   4.472   5.999   2.753
12592TIP3    H237720   4.392   6.127   2.736
12593TIP3   OH237721   4.927   2.254   0.680
12593TIP3    H137722   4.886   2.241   0.766
12593TIP3    H237723   4.864   2.307   0.631
12594TIP3   OH237724   2.234   1.679   6.690
12594TIP3    H137725   2.329   1.685   6.694
12594TIP3    H237726   2.205   1.712   6.775
12595TIP3   OH237727   7.161   6.136   5.425
12595TIP3    H137728   7.240   6.179   5.459
12595TIP3    H237729   7.106   6.207   5.394
12596TIP3   OH237730   5.475   2.986   3.558
12596TIP3    H137731   5.545   3.004   3.621
12596TIP3    H237732   5.397   3.025   3.597
12597TIP3   OH237733   7.385   1.100   3.207
12597TIP3    H137734   7.406   1.019   3.161
12597TIP3    H237735   7.395   1.078   3.300
12598TIP3   OH237736   3.127   0.122   3.353
12598TIP3    H137737   3.081   0.114   3.269
12598TIP3    H237738   3.122   0.216   3.374
12599TIP3   OH237739   6.191   4.450   5.943
12599TIP3    H137740   6.228   4.476   5.859
12599TIP3    H237741   6.106   4.493   5.946
12600TIP3   OH237742   2.232   2.677   5.164
12600TIP3    H137743   2.160   2.636   5.212
12600TIP3    H237744   2.196   2.761   5.133
12601TIP3   OH237745   7.976   5.730   0.699
12601TIP3    H137746   8.058   5.747   0.745
12601TIP3    H237747   7.912   5.784   0.744
12602TIP3   OH237748   7.585   1.421   6.336
12602TIP3    H137749   7.507   1.378   6.300
12602TIP3    H237750   7.553   1.507   6.365
12603TIP3   OH237751   3.218   4.584   6.578
12603TIP3    H137752   3.160   4.580   6.501
12603TIP3    H237753   3.302   4.613   6.543
12604TIP3   OH237754   5.826   4.363   0.672
12604TIP3    H137755   5.892   4.293   0.677
12604TIP3    H237756   5.847   4.409   0.590
12605TIP3   OH237757   7.089   1.021   5.618
12605TIP3    H137758   7.166   1.059   5.661
12605TIP3    H237759   7.122   0.990   5.534
12606TIP3   OH237760   7.923   0.975   4.536
12606TIP3    H137761   7.976   1.029   4.595
12606TIP3    H237762   7.987   0.933   4.478
12607TIP3   OH237763   2.090   7.048   6.533
12607TIP3    H137764   2.084   6.953   6.527
12607TIP3    H237765   2.059   7.069   6.621
12608TIP3   OH237766   7.493   7.355   2.971
12608TIP3    H137767   7.550   7.317   2.903
12608TIP3    H237768   7.488   7.448   2.949
12609TIP3   OH237769   2.131   5.805   3.677
12609TIP3    H137770   2.166   5.888   3.708
12609TIP3    H237771   2.064   5.781   3.741
12610TIP3   OH237772   7.632   0.761   3.515
12610TIP3    H137773   7.629   0.834   3.577
12610TIP3    H237774   7.549   0.716   3.527
12611TIP3   OH237775   7.064   0.116   2.541
12611TIP3    H137776   7.083   0.156   2.625
12611TIP3    H237777   7.096   0.180   2.476
12612TIP3   OH237778   3.920   7.439   1.757
12612TIP3    H137779   3.932   7.480   1.672
12612TIP3    H237780   3.910   7.513   1.818
12613TIP3   OH237781   7.112   7.328   6.516
12613TIP3    H137782   7.177   7.268   6.480
12613TIP3    H237783   7.083   7.286   6.597
12614TIP3   OH237784   2.891   6.733   5.036
12614TIP3    H137785   2.924   6.645   5.055
12614TIP3    H237786   2.967   6.790   5.046
12615TIP3   OH237787   1.247   5.662   1.832
12615TIP3    H137788   1.275   5.691   1.745
12615TIP3    H237789   1.164   5.618   1.816
12616TIP3   OH237790   6.689   0.341   1.611
12616TIP3    H137791   6.756   0.401   1.578
12616TIP3    H237792   6.650   0.387   1.685
12617TIP3   OH237793   3.604   1.138   2.451
12617TIP3    H137794   3.684   1.161   2.404
12617TIP3    H237795   3.605   1.042   2.454
12618TIP3   OH237796   5.431   6.857   4.463
12618TIP3    H137797   5.476   6.797   4.404
12618TIP3    H237798   5.357   6.807   4.498
12619TIP3   OH237799   1.780   0.394   3.429
12619TIP3    H137800   1.802   0.330   3.362
12619TIP3    H237801   1.711   0.447   3.390
12620TIP3   OH237802   7.410   2.042   1.091
12620TIP3    H137803   7.383   2.133   1.078
12620TIP3    H237804   7.405   2.029   1.185
12621TIP3   OH237805   4.094   6.695   3.156
12621TIP3    H137806   4.030   6.730   3.218
12621TIP3    H237807   4.049   6.622   3.114
12622TIP3   OH237808   2.876   5.660   6.651
12622TIP3    H137809   2.950   5.721   6.645
12622TIP3    H237810   2.844   5.653   6.561
12623TIP3   OH237811   3.549   4.929   5.117
12623TIP3    H137812   3.581   4.974   5.039
12623TIP3    H237813   3.552   4.996   5.186
12624TIP3   OH237814   6.232   2.087   6.632
12624TIP3    H137815   6.270   2.088   6.544
12624TIP3    H237816   6.297   2.041   6.685
12625TIP3   OH237817   2.035   6.367   5.689
12625TIP3    H137818   1.988   6.363   5.772
12625TIP3    H237819   2.059   6.276   5.670
12626TIP3   OH237820   1.925   0.480   5.097
12626TIP3    H137821   1.849   0.481   5.154
12626TIP3    H237822   1.910   0.552   5.036
12627TIP3   OH237823   7.094   1.189   2.055
12627TIP3    H137824   7.035   1.238   1.998
12627TIP3    H237825   7.047   1.181   2.138
12628TIP3   OH237826   6.517   2.028   0.169
12628TIP3    H137827   6.486   1.986   0.249
12628TIP3    H237828   6.503   1.963   0.101
12629TIP3   OH237829   7.012   4.182   5.585
12629TIP3    H137830   7.021   4.094   5.549
12629TIP3    H237831   6.921   4.207   5.567
12630TIP3   OH237832   4.773   2.899   4.370
12630TIP3    H137833   4.802   2.812   4.343
12630TIP3    H237834   4.769   2.894   4.466
12631TIP3   OH237835   3.476   4.031   4.805
12631TIP3    H137836   3.512   4.075   4.728
12631TIP3    H237837   3.549   3.984   4.843
12632TIP3   OH237838   2.766   1.618   3.595
12632TIP3    H137839   2.770   1.681   3.524
12632TIP3    H237840   2.756   1.533   3.552
12633TIP3   OH237841   3.515   5.611   5.770
12633TIP3    H137842   3.567   5.531   5.769
12633TIP3    H237843   3.426   5.582   5.788
12634TIP3   OH237844   7.648   4.234   6.096
12634TIP3    H137845   7.564   4.210   6.135
12634TIP3    H237846   7.629   4.243   6.002
12635TIP3   OH237847   5.773   0.507   4.414
12635TIP3    H137848   5.859   0.506   4.457
12635TIP3    H237849   5.714   0.545   4.480
12636TIP3   OH237850   1.794   1.458   1.547
12636TIP3    H137851   1.860   1.498   1.490
12636TIP3    H237852   1.791   1.366   1.519
12637TIP3   OH237853   6.883   2.492   0.881
12637TIP3    H137854   6.874   2.398   0.864
12637TIP3    H237855   6.945   2.523   0.816
12638TIP3   OH237856   2.259   4.480   1.148
12638TIP3    H137857   2.193   4.462   1.082
12638TIP3    H237858   2.315   4.547   1.108
12639TIP3   OH237859   2.987   6.804   4.462
12639TIP3    H137860   3.082   6.810   4.461
12639TIP3    H237861   2.957   6.893   4.442
12640TIP3   OH237862   3.514   0.560   5.425
12640TIP3    H137863   3.537   0.645   5.387
12640TIP3    H237864   3.418   0.561   5.429
12641TIP3   OH237865   5.574   1.692   1.157
12641TIP3    H137866   5.636   1.728   1.094
12641TIP3    H237867   5.528   1.623   1.108
12642TIP3   OH237868   0.506   2.424   6.769
12642TIP3    H137869   0.454   2.440   6.690
12642TIP3    H237870   0.458   2.468   6.839
12643TIP3   OH237871   7.715   2.588   6.184
12643TIP3    H137872   7.688   2.567   6.095
12643TIP3    H237873   7.735   2.503   6.224
12644TIP3   OH237874   4.573   2.019   5.836
12644TIP3    H137875   4.508   2.064   5.890
12644TIP3    H237876   4.652   2.018   5.890
12645TIP3   OH237877   3.048   3.717   0.664
12645TIP3    H137878   2.969   3.745   0.711
12645TIP3    H237879   3.094   3.798   0.644
12646TIP3   OH237880   7.959   0.142   2.296
12646TIP3    H137881   8.009   0.121   2.374
12646TIP3    H237882   8.003   0.095   2.225
12647TIP3   OH237883   5.516   7.325   3.992
12647TIP3    H137884   5.449   7.335   3.924
12647TIP3    H237885   5.467   7.293   4.068
12648TIP3   OH237886   5.307   1.339   5.510
12648TIP3    H137887   5.255   1.281   5.454
12648TIP3    H237888   5.335   1.410   5.453
12649TIP3   OH237889   3.027   7.302   4.841
12649TIP3    H137890   2.934   7.287   4.858
12649TIP3    H237891   3.072   7.244   4.903
12650TIP3   OH237892   3.972   7.563   4.018
12650TIP3    H137893   3.942   7.647   4.051
12650TIP3    H237894   4.015   7.521   4.092
12651TIP3   OH237895   2.537   6.744   0.671
12651TIP3    H137896   2.534   6.835   0.642
12651TIP3    H237897   2.540   6.749   0.766
12652TIP3   OH237898   7.371   7.366   1.493
12652TIP3    H137899   7.284   7.402   1.476
12652TIP3    H237900   7.431   7.437   1.473
12653TIP3   OH237901   4.095   1.634   6.325
12653TIP3    H137902   4.116   1.726   6.340
12653TIP3    H237903   4.049   1.634   6.241
12654TIP3   OH237904   4.944   5.224   0.458
12654TIP3    H137905   5.002   5.155   0.490
12654TIP3    H237906   4.963   5.299   0.514
12655TIP3   OH237907   6.117   5.742   3.085
12655TIP3    H137908   6.037   5.787   3.111
12655TIP3    H237909   6.095   5.649   3.089
12656TIP3   OH237910   2.817   7.595   1.224
12656TIP3    H137911   2.816   7.658   1.297
12656TIP3    H237912   2.795   7.648   1.147
12657TIP3   OH237913   0.439   2.864   1.712
12657TIP3    H137914   0.359   2.916   1.711
12657TIP3    H237915   0.487   2.893   1.634
12658TIP3   OH237916   5.773   3.361   3.555
12658TIP3    H137917   5.709   3.346   3.486
12658TIP3    H237918   5.805   3.274   3.578
12659TIP3   OH237919   6.895   0.661   2.826
12659TIP3    H137920   6.854   0.607   2.758
12659TIP3    H237921   6.877   0.751   2.799
12660TIP3   OH237922   6.477   1.621   6.780
12660TIP3    H137923   6.556   1.667   6.749
12660TIP3    H237924   6.423   1.610   6.702
12661TIP3   OH237925   2.095   1.470   3.702
12661TIP3    H137926   2.078   1.453   3.609
12661TIP3    H237927   2.169   1.532   3.702
12662TIP3   OH237928   0.225   2.327   4.660
12662TIP3    H137929   0.270   2.306   4.578
12662TIP3    H237930   0.295   2.356   4.719
12663TIP3   OH237931   6.197   4.318   4.856
12663TIP3    H137932   6.164   4.407   4.841
12663TIP3    H237933   6.120   4.268   4.883
12664TIP3   OH237934   3.429   4.401   0.311
12664TIP3    H137935   3.385   4.473   0.355
12664TIP3    H237936   3.522   4.424   0.315
12665TIP3   OH237937   3.363   1.133   2.146
12665TIP3    H137938   3.417   1.199   2.103
12665TIP3    H237939   3.419   1.056   2.151
12666TIP3   OH237940   1.813   7.337   6.482
12666TIP3    H137941   1.890   7.355   6.537
12666TIP3    H237942   1.848   7.336   6.393
12667TIP3   OH237943   0.545   3.800   3.762
12667TIP3    H137944   0.479   3.801   3.692
12667TIP3    H237945   0.596   3.880   3.749
12668TIP3   OH237946   1.391   0.648   1.846
12668TIP3    H137947   1.393   0.617   1.756
12668TIP3    H237948   1.366   0.571   1.897
12669TIP3   OH237949   2.972   1.484   6.144
12669TIP3    H137950   2.985   1.498   6.050
12669TIP3    H237951   3.059   1.493   6.182
12670TIP3   OH237952   6.174   2.260   5.825
12670TIP3    H137953   6.214   2.218   5.901
12670TIP3    H237954   6.107   2.199   5.796
12671TIP3   OH237955   1.295   2.731   5.783
12671TIP3    H137956   1.264   2.641   5.770
12671TIP3    H237957   1.390   2.723   5.784
12672TIP3   OH237958   6.466   6.942   2.337
12672TIP3    H137959   6.408   6.924   2.411
12672TIP3    H237960   6.447   6.873   2.273
12673TIP3   OH237961   4.108   2.954   0.053
12673TIP3    H137962   4.066   2.870   0.034
12673TIP3    H237963   4.123   2.993  -0.034
12674TIP3   OH237964   2.178   6.108   5.685
12674TIP3    H137965   2.164   6.109   5.780
12674TIP3    H237966   2.227   6.028   5.669
12675TIP3   OH237967   1.132   3.195   4.851
12675TIP3    H137968   1.041   3.220   4.831
12675TIP3    H237969   1.140   3.206   4.946
12676TIP3   OH237970   3.252   3.303   6.001
12676TIP3    H137971   3.264   3.246   6.077
12676TIP3    H237972   3.317   3.372   6.013
12677TIP3   OH237973   7.861   6.143   2.966
12677TIP3    H137974   7.956   6.139   2.954
12677TIP3    H237975   7.825   6.123   2.880
12678TIP3   OH237976   7.611   2.515   6.477
12678TIP3    H137977   7.662   2.596   6.480
12678TIP3    H237978   7.560   2.517   6.558
12679TIP3   OH237979   4.569   1.474   4.225
12679TIP3    H137980   4.481   1.507   4.209
12679TIP3    H237981   4.627   1.544   4.194
12680TIP3   OH237982   5.920   4.123   5.739
12680TIP3    H137983   5.988   4.162   5.684
12680TIP3    H237984   5.896   4.191   5.801
12681TIP3   OH237985   5.016   6.206   2.111
12681TIP3    H137986   5.071   6.142   2.066
12681TIP3    H237987   5.008   6.173   2.200
12682TIP3   OH237988   3.133   7.521   0.305
12682TIP3    H137989   3.159   7.518   0.397
12682TIP3    H237990   3.174   7.601   0.271
12683TIP3   OH237991   3.245   4.342   3.596
12683TIP3    H137992   3.198   4.367   3.516
12683TIP3    H237993   3.177   4.341   3.664
12684TIP3   OH237994   6.886   3.863   2.309
12684TIP3    H137995   6.821   3.918   2.264
12684TIP3    H237996   6.943   3.924   2.353
12685TIP3   OH237997   5.321   2.870   3.327
12685TIP3    H137998   5.351   2.853   3.416
12685TIP3    H237999   5.386   2.930   3.291
12686TIP3   OH238000   4.481   1.960   5.248
12686TIP3    H138001   4.492   1.939   5.340
12686TIP3    H238002   4.496   2.055   5.243
12687TIP3   OH238003   8.106   3.096   0.295
12687TIP3    H138004   8.115   3.090   0.390
12687TIP3    H238005   8.160   3.172   0.270
12688TIP3   OH238006   4.652   5.067   4.822
12688TIP3    H138007   4.609   5.036   4.901
12688TIP3    H238008   4.745   5.074   4.846
12689TIP3   OH238009   7.591   5.290   6.469
12689TIP3    H138010   7.561   5.313   6.381
12689TIP3    H238011   7.624   5.372   6.505
12690TIP3   OH238012   5.585   5.918   5.083
12690TIP3    H138013   5.490   5.908   5.086
12690TIP3    H238014   5.619   5.843   5.131
12691TIP3   OH238015   1.497   4.402   0.738
12691TIP3    H138016   1.525   4.385   0.648
12691TIP3    H238017   1.494   4.498   0.745
12692TIP3   OH238018   3.136   4.211   0.169
12692TIP3    H138019   3.213   4.243   0.122
12692TIP3    H238020   3.061   4.247   0.121
12693TIP3   OH238021   2.773   5.291   4.819
12693TIP3    H138022   2.855   5.312   4.775
12693TIP3    H238023   2.799   5.243   4.898
12694TIP3   OH238024   3.584   6.394   2.096
12694TIP3    H138025   3.546   6.337   2.163
12694TIP3    H238026   3.509   6.424   2.045
12695TIP3   OH238027   5.603   0.591   5.665
12695TIP3    H138028   5.601   0.546   5.581
12695TIP3    H238029   5.659   0.536   5.720
12696TIP3   OH238030   6.061   1.418   5.030
12696TIP3    H138031   6.151   1.421   4.996
12696TIP3    H238032   6.054   1.332   5.071
12697TIP3   OH238033   7.961   6.455   0.906
12697TIP3    H138034   8.011   6.473   0.985
12697TIP3    H238035   7.982   6.527   0.847
12698TIP3   OH238036   2.290   1.923   3.988
12698TIP3    H138037   2.280   1.833   3.958
12698TIP3    H238038   2.332   1.916   4.073
12699TIP3   OH238039   4.624   5.883   1.122
12699TIP3    H138040   4.709   5.921   1.143
12699TIP3    H238041   4.631   5.791   1.149
12700TIP3   OH238042   6.072   2.604   1.779
12700TIP3    H138043   6.042   2.671   1.841
12700TIP3    H238044   6.166   2.597   1.794
12701TIP3   OH238045   1.698   0.792   4.002
12701TIP3    H138046   1.716   0.698   3.994
12701TIP3    H238047   1.690   0.806   4.096
12702TIP3   OH238048   2.065   0.244   6.325
12702TIP3    H138049   2.082   0.156   6.290
12702TIP3    H238050   2.095   0.239   6.416
12703TIP3   OH238051   5.220   7.510   4.183
12703TIP3    H138052   5.244   7.594   4.143
12703TIP3    H238053   5.170   7.534   4.261
12704TIP3   OH238054   6.146   3.733   1.185
12704TIP3    H138055   6.094   3.676   1.242
12704TIP3    H238056   6.234   3.695   1.187
12705TIP3   OH238057   0.042   1.156   2.444
12705TIP3    H138058   0.038   1.061   2.436
12705TIP3    H238059   0.094   1.172   2.522
12706TIP3   OH238060   7.704   1.920   5.276
12706TIP3    H138061   7.775   1.983   5.291
12706TIP3    H238062   7.723   1.883   5.189
12707TIP3   OH238063   8.185   3.347   3.656
12707TIP3    H138064   8.189   3.273   3.716
12707TIP3    H238065   8.255   3.331   3.593
12708TIP3   OH238066   5.836   0.719   6.603
12708TIP3    H138067   5.916   0.670   6.624
12708TIP3    H238068   5.799   0.672   6.528
12709TIP3   OH238069   7.560   7.275   2.424
12709TIP3    H138070   7.634   7.235   2.469
12709TIP3    H238071   7.593   7.297   2.337
12710TIP3   OH238072   0.217   4.539   2.047
12710TIP3    H138073   0.136   4.487   2.055
12710TIP3    H238074   0.282   4.488   2.096
12711TIP3   OH238075   6.913   4.477   5.700
12711TIP3    H138076   7.000   4.507   5.674
12711TIP3    H238077   6.927   4.426   5.780
12712TIP3   OH238078   2.899   0.987   4.515
12712TIP3    H138079   2.941   0.906   4.544
12712TIP3    H238080   2.933   1.054   4.574
12713TIP3   OH238081   0.752   4.214   1.503
12713TIP3    H138082   0.762   4.119   1.493
12713TIP3    H238083   0.723   4.244   1.417
12714TIP3   OH238084   0.922   5.081   4.251
12714TIP3    H138085   0.974   5.001   4.262
12714TIP3    H238086   0.832   5.054   4.271
12715TIP3   OH238087   8.057   1.249   5.446
12715TIP3    H138088   8.085   1.181   5.506
12715TIP3    H238089   7.961   1.248   5.451
12716TIP3   OH238090   8.156   1.214   5.168
12716TIP3    H138091   8.107   1.229   5.249
12716TIP3    H238092   8.226   1.279   5.169
12717TIP3   OH238093   3.745   1.235   6.289
12717TIP3    H138094   3.732   1.293   6.364
12717TIP3    H238095   3.689   1.159   6.308
12718TIP3   OH238096   0.452   6.640   3.457
12718TIP3    H138097   0.530   6.696   3.460
12718TIP3    H238098   0.456   6.599   3.371
12719TIP3   OH238099   7.739   5.751   5.868
12719TIP3    H138100   7.717   5.824   5.927
12719TIP3    H238101   7.732   5.673   5.923
12720TIP3   OH238102   2.044   2.674   5.722
12720TIP3    H138103   2.040   2.581   5.741
12720TIP3    H238104   2.058   2.715   5.808
12721TIP3   OH238105   2.280   1.303   5.479
12721TIP3    H138106   2.222   1.378   5.491
12721TIP3    H238107   2.222   1.234   5.446
12722TIP3   OH238108   1.022   3.953   3.764
12722TIP3    H138109   1.079   3.952   3.687
12722TIP3    H238110   0.944   4.000   3.736
12723TIP3   OH238111   4.360   0.142   0.479
12723TIP3    H138112   4.391   0.223   0.438
12723TIP3    H238113   4.417   0.130   0.554
12724TIP3   OH238114   1.288   7.151   0.281
12724TIP3    H138115   1.274   7.207   0.205
12724TIP3    H238116   1.248   7.067   0.258
12725TIP3   OH238117   2.429   5.396   2.708
12725TIP3    H138118   2.440   5.453   2.632
12725TIP3    H238119   2.448   5.308   2.675
12726TIP3   OH238120   6.745   3.649   5.871
12726TIP3    H138121   6.830   3.676   5.905
12726TIP3    H238122   6.691   3.637   5.948
12727TIP3   OH238123   1.727   0.024   1.855
12727TIP3    H138124   1.699  -0.013   1.939
12727TIP3    H238125   1.700   0.116   1.859
12728TIP3   OH238126   0.956   0.512   6.263
12728TIP3    H138127   0.996   0.511   6.176
12728TIP3    H238128   1.000   0.585   6.308
12729TIP3   OH238129   1.071   5.743   3.738
12729TIP3    H138130   1.135   5.763   3.806
12729TIP3    H238131   1.009   5.684   3.781
12730TIP3   OH238132   2.355   4.901   4.727
12730TIP3    H138133   2.350   4.902   4.823
12730TIP3    H238134   2.320   4.815   4.702
12731TIP3   OH238135   4.000   2.737   2.422
12731TIP3    H138136   4.010   2.698   2.335
12731TIP3    H238137   4.003   2.831   2.406
12732TIP3   OH238138   1.141   6.353   1.107
12732TIP3    H138139   1.228   6.387   1.089
12732TIP3    H238140   1.155   6.283   1.171
12733TIP3   OH238141   2.983   5.942   3.278
12733TIP3    H138142   2.908   5.976   3.327
12733TIP3    H238143   3.021   6.019   3.237
12734TIP3   OH238144   6.326   3.470   6.664
12734TIP3    H138145   6.290   3.392   6.621
12734TIP3    H238146   6.289   3.544   6.615
12735TIP3   OH238147   4.881   5.441   2.279
12735TIP3    H138148   4.896   5.364   2.226
12735TIP3    H238149   4.812   5.489   2.232
12736TIP3   OH238150   1.816   7.767   4.116
12736TIP3    H138151   1.900   7.800   4.149
12736TIP3    H238152   1.771   7.733   4.194
12737TIP3   OH238153   8.285   4.696   5.418
12737TIP3    H138154   8.324   4.783   5.429
12737TIP3    H238155   8.227   4.687   5.493
12738TIP3   OH238156   2.324   7.090   3.209
12738TIP3    H138157   2.313   7.005   3.167
12738TIP3    H238158   2.249   7.099   3.267
12739TIP3   OH238159   0.938   5.642   2.918
12739TIP3    H138160   0.866   5.691   2.957
12739TIP3    H238161   0.937   5.665   2.825
12740TIP3   OH238162   2.834   2.190   5.925
12740TIP3    H138163   2.891   2.254   5.968
12740TIP3    H238164   2.762   2.243   5.889
12741TIP3   OH238165   0.080   7.283   4.527
12741TIP3    H138166   0.114   7.202   4.565
12741TIP3    H238167   0.049   7.333   4.602
12742TIP3   OH238168   1.573   7.794   1.308
12742TIP3    H138169   1.542   7.785   1.218
12742TIP3    H238170   1.563   7.707   1.346
12743TIP3   OH238171   1.171   3.414   0.471
12743TIP3    H138172   1.256   3.381   0.442
12743TIP3    H238173   1.192   3.490   0.525
12744TIP3   OH238174   0.859   6.622   1.306
12744TIP3    H138175   0.877   6.533   1.337
12744TIP3    H238176   0.769   6.639   1.336
12745TIP3   OH238177   8.025   6.159   0.943
12745TIP3    H138178   7.994   6.246   0.966
12745TIP3    H238179   7.963   6.100   0.986
12746TIP3   OH238180   0.705   6.619   4.827
12746TIP3    H138181   0.729   6.527   4.827
12746TIP3    H238182   0.665   6.634   4.913
12747TIP3   OH238183   0.263   7.323   6.207
12747TIP3    H138184   0.315   7.284   6.136
12747TIP3    H238185   0.175   7.332   6.170
12748TIP3   OH238186   6.764   0.807   2.071
12748TIP3    H138187   6.690   0.747   2.071
12748TIP3    H238188   6.820   0.776   2.000
12749TIP3   OH238189   6.465   4.669   0.696
12749TIP3    H138190   6.432   4.617   0.622
12749TIP3    H238191   6.535   4.722   0.659
12750TIP3   OH238192   2.839   0.102   5.910
12750TIP3    H138193   2.926   0.063   5.903
12750TIP3    H238194   2.808   0.107   5.819
12751TIP3   OH238195   1.949   2.463   2.528
12751TIP3    H138196   1.960   2.558   2.523
12751TIP3    H238197   1.901   2.440   2.449
12752TIP3   OH238198   1.399   4.962   2.160
12752TIP3    H138199   1.335   4.945   2.230
12752TIP3    H238200   1.460   5.024   2.199
12753TIP3   OH238201   5.196   6.600   3.428
12753TIP3    H138202   5.182   6.688   3.393
12753TIP3    H238203   5.201   6.544   3.351
12754TIP3   OH238204   1.314   7.182   0.771
12754TIP3    H138205   1.282   7.106   0.820
12754TIP3    H238206   1.333   7.148   0.684
12755TIP3   OH238207   3.506   5.361   0.161
12755TIP3    H138208   3.577   5.419   0.134
12755TIP3    H238209   3.549   5.278   0.182
12756TIP3   OH238210   5.528   5.797   6.561
12756TIP3    H138211   5.501   5.759   6.477
12756TIP3    H238212   5.607   5.847   6.540
12757TIP3   OH238213   3.794   0.365   2.169
12757TIP3    H138214   3.756   0.278   2.181
12757TIP3    H238215   3.812   0.371   2.075
12758TIP3   OH238216   6.253   2.746   4.142
12758TIP3    H138217   6.169   2.751   4.189
12758TIP3    H238218   6.255   2.826   4.089
12759TIP3   OH238219   4.758   6.898   6.176
12759TIP3    H138220   4.700   6.874   6.248
12759TIP3    H238221   4.721   6.854   6.100
12760TIP3   OH238222   0.434   1.467   5.710
12760TIP3    H138223   0.418   1.426   5.794
12760TIP3    H238224   0.448   1.394   5.649
12761TIP3   OH238225   2.710   5.935   4.083
12761TIP3    H138226   2.794   5.979   4.076
12761TIP3    H238227   2.648   6.004   4.107
12762TIP3   OH238228   3.015   4.253   2.369
12762TIP3    H138229   3.095   4.239   2.319
12762TIP3    H238230   3.018   4.187   2.438
12763TIP3   OH238231   7.611   5.222   4.102
12763TIP3    H138232   7.696   5.264   4.087
12763TIP3    H238233   7.617   5.187   4.191
12764TIP3   OH238234   7.681   6.746   2.102
12764TIP3    H138235   7.665   6.723   2.193
12764TIP3    H238236   7.763   6.700   2.080
12765TIP3   OH238237   5.076   1.867   1.572
12765TIP3    H138238   5.097   1.886   1.664
12765TIP3    H238239   5.152   1.896   1.523
12766TIP3   OH238240   0.334   0.259   4.605
12766TIP3    H138241   0.314   0.295   4.518
12766TIP3    H238242   0.340   0.336   4.662
12767TIP3   OH238243   5.032   5.117   1.190
12767TIP3    H138244   5.065   5.153   1.108
12767TIP3    H238245   5.005   5.194   1.240
12768TIP3   OH238246   3.372   5.647   4.283
12768TIP3    H138247   3.356   5.669   4.191
12768TIP3    H238248   3.462   5.675   4.299
12769TIP3   OH238249   2.947   4.174   5.698
12769TIP3    H138250   2.889   4.244   5.667
12769TIP3    H238251   2.902   4.138   5.775
12770TIP3   OH238252   5.878   3.153   5.213
12770TIP3    H138253   5.958   3.101   5.221
12770TIP3    H238254   5.899   3.219   5.147
12771TIP3   OH238255   1.198   2.651   6.607
12771TIP3    H138256   1.287   2.672   6.634
12771TIP3    H238257   1.186   2.560   6.631
12772TIP3   OH238258   8.057   2.771   0.797
12772TIP3    H138259   8.118   2.845   0.791
12772TIP3    H238260   8.113   2.696   0.818
12773TIP3   OH238261   7.560   1.682   6.472
12773TIP3    H138262   7.634   1.704   6.528
12773TIP3    H238263   7.564   1.745   6.400
12774TIP3   OH238264   4.245   2.847   2.570
12774TIP3    H138265   4.274   2.788   2.500
12774TIP3    H238266   4.157   2.817   2.592
12775TIP3   OH238267   3.039   4.396   3.415
12775TIP3    H138268   3.048   4.442   3.332
12775TIP3    H238269   2.998   4.459   3.474
12776TIP3   OH238270   5.950   5.838   3.641
12776TIP3    H138271   5.982   5.888   3.716
12776TIP3    H238272   6.009   5.862   3.570
12777TIP3   OH238273   6.070   4.154   2.957
12777TIP3    H138274   6.053   4.120   3.045
12777TIP3    H238275   6.116   4.237   2.973
12778TIP3   OH238276   1.515   3.774   6.786
12778TIP3    H138277   1.497   3.694   6.736
12778TIP3    H238278   1.435   3.826   6.779
12779TIP3   OH238279   2.587   6.257   6.513
12779TIP3    H138280   2.544   6.300   6.439
12779TIP3    H238281   2.680   6.275   6.500
12780TIP3   OH238282   0.409   7.363   4.146
12780TIP3    H138283   0.484   7.321   4.104
12780TIP3    H238284   0.354   7.394   4.073
12781TIP3   OH238285   4.907   1.867   5.199
12781TIP3    H138286   4.999   1.842   5.197
12781TIP3    H238287   4.889   1.886   5.291
12782TIP3   OH238288   1.500   4.111   2.943
12782TIP3    H138289   1.416   4.157   2.949
12782TIP3    H238290   1.477   4.022   2.916
12783TIP3   OH238291   0.141   1.729   0.813
12783TIP3    H138292   0.216   1.779   0.782
12783TIP3    H238293   0.132   1.657   0.751
12784TIP3   OH238294   3.116   1.700   6.583
12784TIP3    H138295   3.189   1.700   6.645
12784TIP3    H238296   3.126   1.619   6.533
12785TIP3   OH238297   0.734   5.087   0.159
12785TIP3    H138298   0.815   5.138   0.155
12785TIP3    H238299   0.700   5.091   0.069
12786TIP3   OH238300   0.601   7.239   1.131
12786TIP3    H138301   0.580   7.296   1.205
12786TIP3    H238302   0.601   7.151   1.167
12787TIP3   OH238303   0.122   1.126   1.838
12787TIP3    H138304   0.136   1.068   1.913
12787TIP3    H238305   0.136   1.070   1.762
12788TIP3   OH238306   6.288   0.942   5.358
12788TIP3    H138307   6.356   0.971   5.419
12788TIP3    H238308   6.220   1.009   5.364
12789TIP3   OH238309   4.297   2.677   3.020
12789TIP3    H138310   4.345   2.640   2.946
12789TIP3    H238311   4.230   2.732   2.980
12790TIP3   OH238312   5.264   4.360   4.473
12790TIP3    H138313   5.229   4.283   4.517
12790TIP3    H238314   5.280   4.423   4.543
12791TIP3   OH238315   1.271   4.066   3.282
12791TIP3    H138316   1.219   4.029   3.210
12791TIP3    H238317   1.362   4.054   3.254
12792TIP3   OH238318   2.920   3.505   3.983
12792TIP3    H138319   2.951   3.416   3.970
12792TIP3    H238320   2.950   3.529   4.071
12793TIP3   OH238321   4.605   5.539   0.760
12793TIP3    H138322   4.535   5.522   0.822
12793TIP3    H238323   4.639   5.452   0.738
12794TIP3   OH238324   3.551   0.262   1.922
12794TIP3    H138325   3.534   0.256   1.828
12794TIP3    H238326   3.646   0.271   1.928
12795TIP3   OH238327   5.459   7.708   1.434
12795TIP3    H138328   5.488   7.651   1.363
12795TIP3    H238329   5.464   7.653   1.512
12796TIP3   OH238330   7.278   2.034   1.369
12796TIP3    H138331   7.191   1.996   1.358
12796TIP3    H238332   7.273   2.118   1.322
12797TIP3   OH238333   6.883   1.744   4.294
12797TIP3    H138334   6.936   1.751   4.215
12797TIP3    H238335   6.823   1.818   4.290
12798TIP3   OH238336   4.315   3.335   5.325
12798TIP3    H138337   4.296   3.416   5.278
12798TIP3    H238338   4.400   3.306   5.291
12799TIP3   OH238339   6.939   2.484   5.084
12799TIP3    H138340   6.935   2.557   5.145
12799TIP3    H238341   7.029   2.452   5.090
12800TIP3   OH238342   4.674   7.236   6.141
12800TIP3    H138343   4.663   7.272   6.053
12800TIP3    H238344   4.742   7.170   6.131
12801TIP3   OH238345   2.682   7.771   1.052
12801TIP3    H138346   2.622   7.699   1.074
12801TIP3    H238347   2.627   7.834   1.005
12802TIP3   OH238348   7.964   6.033   4.143
12802TIP3    H138349   8.055   6.011   4.124
12802TIP3    H238350   7.924   6.049   4.057
12803TIP3   OH238351   2.519   4.174   6.596
12803TIP3    H138352   2.512   4.240   6.527
12803TIP3    H238353   2.522   4.090   6.550
12804TIP3   OH238354   4.728   6.057   5.114
12804TIP3    H138355   4.696   6.023   5.031
12804TIP3    H238356   4.694   5.995   5.180
12805TIP3   OH238357   8.273   4.020   6.525
12805TIP3    H138358   8.192   4.070   6.523
12805TIP3    H238359   8.248   3.932   6.498
12806TIP3   OH238360   2.011   4.627   4.925
12806TIP3    H138361   2.077   4.673   4.977
12806TIP3    H238362   1.987   4.689   4.856
12807TIP3   OH238363   0.827   0.567   3.786
12807TIP3    H138364   0.867   0.649   3.756
12807TIP3    H238365   0.897   0.502   3.778
12808TIP3   OH238366   5.006   5.163   2.522
12808TIP3    H138367   5.092   5.136   2.553
12808TIP3    H238368   4.990   5.107   2.445
12809TIP3   OH238369   7.185   4.021   5.958
12809TIP3    H138370   7.233   4.067   5.888
12809TIP3    H238371   7.124   3.964   5.911
12810TIP3   OH238372   1.911   2.340   5.408
12810TIP3    H138373   1.842   2.363   5.470
12810TIP3    H238374   1.936   2.251   5.431
12811TIP3   OH238375   3.600   3.881   5.011
12811TIP3    H138376   3.538   3.933   5.063
12811TIP3    H238377   3.664   3.850   5.075
12812TIP3   OH238378   1.629   5.117   0.609
12812TIP3    H138379   1.560   5.066   0.650
12812TIP3    H238380   1.704   5.109   0.669
12813TIP3   OH238381   8.253   2.971   6.123
12813TIP3    H138382   8.302   2.993   6.044
12813TIP3    H238383   8.161   2.987   6.099
12814TIP3   OH238384   1.246   2.999   3.821
12814TIP3    H138385   1.288   3.079   3.788
12814TIP3    H238386   1.243   2.940   3.746
12815TIP3   OH238387   0.737   0.160   0.642
12815TIP3    H138388   0.809   0.214   0.609
12815TIP3    H238389   0.662   0.219   0.642
12816TIP3   OH238390   7.948   2.776   3.428
12816TIP3    H138391   7.912   2.713   3.490
12816TIP3    H238392   7.987   2.722   3.359
12817TIP3   OH238393   6.476   2.706   5.802
12817TIP3    H138394   6.541   2.641   5.830
12817TIP3    H238395   6.418   2.657   5.743
12818TIP3   OH238396   3.760   6.752   1.945
12818TIP3    H138397   3.743   6.845   1.957
12818TIP3    H238398   3.744   6.714   2.032
12819TIP3   OH238399   1.200   7.570   4.518
12819TIP3    H138400   1.270   7.633   4.536
12819TIP3    H238401   1.149   7.567   4.599
12820TIP3   OH238402   8.162   7.607   4.910
12820TIP3    H138403   8.112   7.582   4.988
12820TIP3    H238404   8.123   7.557   4.839
12821TIP3   OH238405   4.065   7.037   5.145
12821TIP3    H138406   4.069   7.130   5.123
12821TIP3    H238407   4.153   7.017   5.177
12822TIP3   OH238408   1.034   3.486   4.008
12822TIP3    H138409   0.976   3.441   3.947
12822TIP3    H238410   1.006   3.577   4.007
12823TIP3   OH238411   7.845   4.428   2.616
12823TIP3    H138412   7.856   4.516   2.580
12823TIP3    H238413   7.928   4.385   2.599
12824TIP3   OH238414   7.347   5.792   4.900
12824TIP3    H138415   7.279   5.790   4.967
12824TIP3    H238416   7.392   5.708   4.909
12825TIP3   OH238417   1.130   1.239   3.424
12825TIP3    H138418   1.176   1.307   3.374
12825TIP3    H238419   1.199   1.178   3.450
12826TIP3   OH238420   3.995   2.515   6.783
12826TIP3    H138421   3.918   2.533   6.729
12826TIP3    H238422   4.065   2.564   6.741
12827TIP3   OH238423   0.587   1.133   2.270
12827TIP3    H138424   0.665   1.178   2.301
12827TIP3    H238425   0.613   1.096   2.186
12828TIP3   OH238426   3.549   1.240   4.586
12828TIP3    H138427   3.503   1.178   4.643
12828TIP3    H238428   3.485   1.309   4.569
12829TIP3   OH238429   3.630   1.818   5.573
12829TIP3    H138430   3.577   1.880   5.623
12829TIP3    H238431   3.609   1.838   5.482
12830TIP3   OH238432   5.598   0.580   5.968
12830TIP3    H138433   5.530   0.627   5.919
12830TIP3    H238434   5.566   0.579   6.058
12831TIP3   OH238435   6.749   3.701   0.791
12831TIP3    H138436   6.672   3.651   0.767
12831TIP3    H238437   6.819   3.636   0.799
12832TIP3   OH238438   6.867   7.655   0.368
12832TIP3    H138439   6.865   7.571   0.415
12832TIP3    H238440   6.827   7.636   0.283
12833TIP3   OH238441   4.876   6.943   5.367
12833TIP3    H138442   4.873   6.948   5.271
12833TIP3    H238443   4.857   7.031   5.396
12834TIP3   OH238444   4.760   6.508   5.259
12834TIP3    H138445   4.731   6.432   5.309
12834TIP3    H238446   4.832   6.475   5.204
12835TIP3   OH238447   6.645   2.259   3.009
12835TIP3    H138448   6.666   2.188   2.949
12835TIP3    H238449   6.725   2.310   3.015
12836TIP3   OH238450   2.074   3.113   1.874
12836TIP3    H138451   1.986   3.149   1.878
12836TIP3    H238452   2.104   3.110   1.964
12837TIP3   OH238453   6.613   4.790   3.385
12837TIP3    H138454   6.659   4.707   3.395
12837TIP3    H238455   6.616   4.831   3.472
12838TIP3   OH238456   3.386   1.253   5.141
12838TIP3    H138457   3.347   1.340   5.129
12838TIP3    H238458   3.381   1.238   5.236
12839TIP3   OH238459   2.437   1.308   2.492
12839TIP3    H138460   2.524   1.345   2.508
12839TIP3    H238461   2.387   1.329   2.571
12840TIP3   OH238462   0.344   5.290   3.394
12840TIP3    H138463   0.405   5.284   3.467
12840TIP3    H238464   0.398   5.280   3.316
12841TIP3   OH238465   1.379   7.220   6.400
12841TIP3    H138466   1.293   7.185   6.378
12841TIP3    H238467   1.424   7.149   6.445
12842TIP3   OH238468   0.768   3.706   5.061
12842TIP3    H138469   0.703   3.676   5.125
12842TIP3    H238470   0.821   3.628   5.043
12843TIP3   OH238471   1.721   6.225   3.648
12843TIP3    H138472   1.708   6.160   3.578
12843TIP3    H238473   1.816   6.235   3.654
12844TIP3   OH238474   1.745   0.633   2.958
12844TIP3    H138475   1.724   0.695   2.888
12844TIP3    H238476   1.662   0.621   3.004
12845TIP3   OH238477   2.298   5.283   6.058
12845TIP3    H138478   2.229   5.347   6.076
12845TIP3    H238479   2.277   5.250   5.970
12846TIP3   OH238480   7.702   3.364   1.609
12846TIP3    H138481   7.639   3.292   1.609
12846TIP3    H238482   7.745   3.357   1.524
12847TIP3   OH238483   2.102   6.457   0.496
12847TIP3    H138484   2.069   6.369   0.510
12847TIP3    H238485   2.181   6.462   0.551
12848TIP3   OH238486   7.783   6.940   6.003
12848TIP3    H138487   7.823   6.932   6.089
12848TIP3    H238488   7.855   6.923   5.942
12849TIP3   OH238489   6.094   2.300   3.447
12849TIP3    H138490   6.031   2.354   3.398
12849TIP3    H238491   6.092   2.336   3.535
12850TIP3   OH238492   3.639   3.509   1.109
12850TIP3    H138493   3.570   3.498   1.174
12850TIP3    H238494   3.624   3.438   1.046
12851TIP3   OH238495   6.086   3.698   5.915
12851TIP3    H138496   6.000   3.739   5.903
12851TIP3    H238497   6.114   3.674   5.827
12852TIP3   OH238498   6.365   7.816   1.969
12852TIP3    H138499   6.351   7.750   1.901
12852TIP3    H238500   6.278   7.830   2.007
12853TIP3   OH238501   6.769   4.736   0.317
12853TIP3    H138502   6.704   4.798   0.350
12853TIP3    H238503   6.783   4.762   0.226
12854TIP3   OH238504   6.404   0.423   3.631
12854TIP3    H138505   6.471   0.354   3.632
12854TIP3    H238506   6.372   0.423   3.541
12855TIP3   OH238507   0.679   1.889   3.597
12855TIP3    H138508   0.716   1.859   3.514
12855TIP3    H238509   0.741   1.860   3.663
12856TIP3   OH238510   7.093   2.527   4.832
12856TIP3    H138511   7.026   2.463   4.806
12856TIP3    H238512   7.056   2.612   4.808
12857TIP3   OH238513   5.299   6.402   4.535
12857TIP3    H138514   5.218   6.352   4.530
12857TIP3    H238515   5.347   6.377   4.455
12858TIP3   OH238516   6.348   2.398   4.331
12858TIP3    H138517   6.369   2.316   4.376
12858TIP3    H238518   6.377   2.384   4.241
12859TIP3   OH238519   7.382   6.491   4.954
12859TIP3    H138520   7.401   6.417   5.011
12859TIP3    H238521   7.370   6.565   5.013
12860TIP3   OH238522   0.964   6.287   3.297
12860TIP3    H138523   1.037   6.228   3.275
12860TIP3    H238524   1.005   6.360   3.344
12861TIP3   OH238525   0.582   0.791   3.410
12861TIP3    H138526   0.651   0.773   3.347
12861TIP3    H238527   0.509   0.823   3.356
12862TIP3   OH238528   4.939   0.499   3.687
12862TIP3    H138529   5.000   0.454   3.745
12862TIP3    H238530   4.924   0.437   3.616
12863TIP3   OH238531   5.406   6.671   6.685
12863TIP3    H138532   5.332   6.704   6.736
12863TIP3    H238533   5.430   6.589   6.728
12864TIP3   OH238534   0.394   2.702   0.473
12864TIP3    H138535   0.450   2.764   0.427
12864TIP3    H238536   0.418   2.616   0.438
12865TIP3   OH238537   1.809   4.518   1.701
12865TIP3    H138538   1.883   4.568   1.665
12865TIP3    H238539   1.781   4.569   1.777
12866TIP3   OH238540   4.328   3.208   2.306
12866TIP3    H138541   4.364   3.121   2.323
12866TIP3    H238542   4.401   3.256   2.267
12867TIP3   OH238543   1.407   4.382   1.713
12867TIP3    H138544   1.331   4.335   1.749
12867TIP3    H238545   1.463   4.312   1.677
12868TIP3   OH238546   3.749   3.326   3.616
12868TIP3    H138547   3.681   3.363   3.673
12868TIP3    H238548   3.823   3.310   3.675
12869TIP3   OH238549   6.270   5.285   4.148
12869TIP3    H138550   6.320   5.256   4.224
12869TIP3    H238551   6.188   5.237   4.153
12870TIP3   OH238552   3.870   2.038   4.208
12870TIP3    H138553   3.965   2.049   4.206
12870TIP3    H238554   3.850   1.986   4.130
12871TIP3   OH238555   0.149   2.848   3.010
12871TIP3    H138556   0.219   2.794   2.972
12871TIP3    H238557   0.166   2.848   3.104
12872TIP3   OH238558   2.505   7.754   2.673
12872TIP3    H138559   2.492   7.660   2.658
12872TIP3    H238560   2.485   7.768   2.765
12873TIP3   OH238561   6.345   2.148   1.055
12873TIP3    H138562   6.268   2.092   1.058
12873TIP3    H238563   6.318   2.224   1.003
12874TIP3   OH238564   2.636   0.452   5.960
12874TIP3    H138565   2.701   0.519   5.982
12874TIP3    H238566   2.577   0.495   5.897
12875TIP3   OH238567   6.493   5.569   1.116
12875TIP3    H138568   6.520   5.581   1.026
12875TIP3    H238569   6.564   5.606   1.169
12876TIP3   OH238570   0.198   7.426   5.014
12876TIP3    H138571   0.253   7.495   4.977
12876TIP3    H238572   0.227   7.346   4.970
12877TIP3   OH238573   1.467   0.111   0.887
12877TIP3    H138574   1.523   0.105   0.809
12877TIP3    H238575   1.408   0.184   0.869
12878TIP3   OH238576   4.095   5.350   5.767
12878TIP3    H138577   4.131   5.339   5.679
12878TIP3    H238578   4.045   5.270   5.782
12879TIP3   OH238579   3.475   3.170   1.751
12879TIP3    H138580   3.389   3.169   1.708
12879TIP3    H238581   3.489   3.079   1.777
12880TIP3   OH238582   5.718   0.377   3.717
12880TIP3    H138583   5.650   0.418   3.664
12880TIP3    H238584   5.689   0.390   3.808
12881TIP3   OH238585   5.908   2.426   2.222
12881TIP3    H138586   5.968   2.389   2.287
12881TIP3    H238587   5.854   2.488   2.272
12882TIP3   OH238588   2.330   4.055   6.274
12882TIP3    H138589   2.267   4.069   6.203
12882TIP3    H238590   2.415   4.071   6.234
12883TIP3   OH238591   0.658   1.618   6.687
12883TIP3    H138592   0.708   1.658   6.616
12883TIP3    H238593   0.724   1.582   6.746
12884TIP3   OH238594   0.031   7.384   4.766
12884TIP3    H138595   0.051   7.434   4.845
12884TIP3    H238596  -0.029   7.316   4.795
12885TIP3   OH238597   0.422   1.873   3.089
12885TIP3    H138598   0.416   1.838   3.001
12885TIP3    H238599   0.332   1.892   3.114
12886TIP3   OH238600   3.592   2.148   3.751
12886TIP3    H138601   3.574   2.241   3.763
12886TIP3    H238602   3.687   2.141   3.749
12887TIP3   OH238603   3.548   1.250   0.049
12887TIP3    H138604   3.637   1.286   0.040
12887TIP3    H238605   3.495   1.304  -0.010
12888TIP3   OH238606   8.205   3.569   4.267
12888TIP3    H138607   8.192   3.663   4.280
12888TIP3    H238608   8.255   3.562   4.186
12889TIP3   OH238609   5.355   7.337   0.681
12889TIP3    H138610   5.362   7.314   0.774
12889TIP3    H238611   5.262   7.331   0.662
12890TIP3   OH238612   3.820   0.435   1.880
12890TIP3    H138613   3.840   0.382   1.803
12890TIP3    H238614   3.776   0.513   1.845
12891TIP3   OH238615   3.217   4.075   6.425
12891TIP3    H138616   3.281   4.018   6.383
12891TIP3    H238617   3.235   4.066   6.519
12892TIP3   OH238618   5.090   0.163   3.588
12892TIP3    H138619   5.085   0.143   3.494
12892TIP3    H238620   5.049   0.088   3.631
12893TIP3   OH238621   7.278   2.449   2.983
12893TIP3    H138622   7.234   2.484   3.060
12893TIP3    H238623   7.325   2.524   2.946
12894TIP3   OH238624   2.875   7.126   0.115
12894TIP3    H138625   2.900   7.211   0.080
12894TIP3    H238626   2.889   7.065   0.042
12895TIP3   OH238627   6.377   4.459   0.508
12895TIP3    H138628   6.296   4.428   0.547
12895TIP3    H238629   6.439   4.388   0.522
12896TIP3   OH238630   3.066   4.329   5.086
12896TIP3    H138631   3.032   4.266   5.149
12896TIP3    H238632   3.013   4.316   5.007
12897TIP3   OH238633   6.083   2.713   2.608
12897TIP3    H138634   6.067   2.726   2.514
12897TIP3    H238635   6.118   2.625   2.614
12898TIP3   OH238636   6.446   1.903   6.455
12898TIP3    H138637   6.519   1.965   6.460
12898TIP3    H238638   6.445   1.876   6.363
12899TIP3   OH238639   0.882   4.134   4.701
12899TIP3    H138640   0.977   4.146   4.698
12899TIP3    H238641   0.868   4.066   4.767
12900TIP3   OH238642   7.142   5.937   3.145
12900TIP3    H138643   7.122   5.843   3.143
12900TIP3    H238644   7.060   5.979   3.120
12901TIP3   OH238645   3.429   6.032   0.814
12901TIP3    H138646   3.401   5.978   0.740
12901TIP3    H238647   3.348   6.062   0.855
12902TIP3   OH238648   2.903   6.063   6.633
12902TIP3    H138649   2.952   6.040   6.554
12902TIP3    H238650   2.969   6.057   6.703
12903TIP3   OH238651   4.370   7.278   2.737
12903TIP3    H138652   4.362   7.190   2.773
12903TIP3    H238653   4.425   7.325   2.801
12904TIP3   OH238654   3.178   5.860   5.646
12904TIP3    H138655   3.143   5.773   5.665
12904TIP3    H238656   3.143   5.883   5.560
12905TIP3   OH238657   7.870   0.966   0.888
12905TIP3    H138658   7.896   0.885   0.845
12905TIP3    H238659   7.951   1.018   0.893
12906TIP3   OH238660   3.177   0.329   2.036
12906TIP3    H138661   3.221   0.287   2.111
12906TIP3    H238662   3.227   0.301   1.960
12907TIP3   OH238663   5.936   4.412   4.591
12907TIP3    H138664   5.900   4.325   4.610
12907TIP3    H238665   5.883   4.472   4.644
12908TIP3   OH238666   1.362   5.088   5.580
12908TIP3    H138667   1.291   5.148   5.557
12908TIP3    H238668   1.441   5.129   5.545
12909TIP3   OH238669   7.762   6.973   3.089
12909TIP3    H138670   7.813   6.926   3.155
12909TIP3    H238671   7.806   6.953   3.006
12910TIP3   OH238672   3.310   2.763   2.923
12910TIP3    H138673   3.343   2.724   2.842
12910TIP3    H238674   3.364   2.841   2.937
12911TIP3   OH238675   6.611   2.170   5.907
12911TIP3    H138676   6.627   2.226   5.983
12911TIP3    H238677   6.649   2.217   5.834
12912TIP3   OH238678   6.076   6.751   2.604
12912TIP3    H138679   6.113   6.771   2.517
12912TIP3    H238680   6.021   6.827   2.624
12913TIP3   OH238681   3.258   1.384   0.261
12913TIP3    H138682   3.335   1.333   0.287
12913TIP3    H238683   3.232   1.430   0.341
12914TIP3   OH238684   4.261   5.782   0.759
12914TIP3    H138685   4.258   5.867   0.716
12914TIP3    H238686   4.235   5.720   0.691
12915TIP3   OH238687   0.621   5.027   4.010
12915TIP3    H138688   0.662   4.943   3.991
12915TIP3    H238689   0.579   5.053   3.928
12916TIP3   OH238690   5.047   1.944   0.030
12916TIP3    H138691   5.120   1.975   0.084
12916TIP3    H238692   4.986   2.018   0.028
12917TIP3   OH238693   8.265   5.499   1.256
12917TIP3    H138694   8.288   5.561   1.324
12917TIP3    H238695   8.294   5.540   1.175
12918TIP3   OH238696   8.104   3.805   1.212
12918TIP3    H138697   8.195   3.819   1.183
12918TIP3    H238698   8.105   3.719   1.252
12919TIP3   OH238699   3.848   4.045   4.878
12919TIP3    H138700   3.788   4.085   4.941
12919TIP3    H238701   3.933   4.081   4.899
12920TIP3   OH238702   6.742   6.639   3.841
12920TIP3    H138703   6.798   6.562   3.833
12920TIP3    H238704   6.804   6.713   3.844
12921TIP3   OH238705   4.769   5.227   1.571
12921TIP3    H138706   4.835   5.161   1.592
12921TIP3    H238707   4.688   5.177   1.559
12922TIP3   OH238708   0.697   6.330   1.406
12922TIP3    H138709   0.789   6.334   1.381
12922TIP3    H238710   0.657   6.406   1.364
12923TIP3   OH238711   3.508   3.362   3.298
12923TIP3    H138712   3.441   3.403   3.242
12923TIP3    H238713   3.485   3.390   3.387
12924TIP3   OH238714   6.941   5.441   6.798
12924TIP3    H138715   6.894   5.493   6.733
12924TIP3    H238716   6.967   5.361   6.752
12925TIP3   OH238717   3.376   6.810   3.609
12925TIP3    H138718   3.328   6.885   3.644
12925TIP3    H238719   3.456   6.848   3.573
12926TIP3   OH238720   5.245   2.359   1.808
12926TIP3    H138721   5.165   2.410   1.793
12926TIP3    H238722   5.214   2.276   1.845
12927TIP3   OH238723   5.772   1.411   4.363
12927TIP3    H138724   5.807   1.489   4.405
12927TIP3    H238725   5.677   1.423   4.367
12928TIP3   OH238726   6.615   3.770   2.926
12928TIP3    H138727   6.535   3.726   2.898
12928TIP3    H238728   6.685   3.706   2.912
12929TIP3   OH238729   4.350   0.649   6.661
12929TIP3    H138730   4.361   0.737   6.627
12929TIP3    H238731   4.342   0.594   6.583
12930TIP3   OH238732   6.918   7.284   5.811
12930TIP3    H138733   6.827   7.275   5.785
12930TIP3    H238734   6.934   7.209   5.869
12931TIP3   OH238735   6.021   3.663   0.509
12931TIP3    H138736   6.094   3.606   0.486
12931TIP3    H238737   5.942   3.613   0.485
12932TIP3   OH238738   8.000   0.535   2.749
12932TIP3    H138739   7.972   0.485   2.826
12932TIP3    H238740   7.948   0.498   2.677
12933TIP3   OH238741   7.843   4.673   5.914
12933TIP3    H138742   7.816   4.692   6.004
12933TIP3    H238743   7.937   4.691   5.913
12934TIP3   OH238744   5.984   3.685   4.881
12934TIP3    H138745   5.905   3.690   4.827
12934TIP3    H238746   6.045   3.633   4.830
12935TIP3   OH238747   3.467   5.308   6.439
12935TIP3    H138748   3.464   5.343   6.528
12935TIP3    H238749   3.449   5.384   6.383
12936TIP3   OH238750   6.996   6.796   0.176
12936TIP3    H138751   6.944   6.867   0.139
12936TIP3    H238752   7.044   6.760   0.102
12937TIP3   OH238753   0.234   3.708   3.731
12937TIP3    H138754   0.187   3.690   3.812
12937TIP3    H238755   0.168   3.700   3.662
12938TIP3   OH238756   5.980   2.910   3.013
12938TIP3    H138757   5.911   2.968   3.045
12938TIP3    H238758   6.061   2.956   3.036
12939TIP3   OH238759   2.227   1.584   0.023
12939TIP3    H138760   2.262   1.670  -0.003
12939TIP3    H238761   2.211   1.592   0.117
12940TIP3   OH238762   2.292   4.901   2.167
12940TIP3    H138763   2.354   4.902   2.093
12940TIP3    H238764   2.348   4.897   2.245
12941TIP3   OH238765   3.187   6.893   5.817
12941TIP3    H138766   3.250   6.897   5.746
12941TIP3    H238767   3.106   6.863   5.776
12942TIP3   OH238768   0.858   4.608   3.473
12942TIP3    H138769   0.787   4.621   3.410
12942TIP3    H238770   0.903   4.692   3.476
12943TIP3   OH238771   7.994   7.768   4.643
12943TIP3    H138772   7.983   7.778   4.548
12943TIP3    H238773   7.906   7.783   4.679
12944TIP3   OH238774   3.893   7.084   5.503
12944TIP3    H138775   3.931   7.001   5.476
12944TIP3    H238776   3.883   7.134   5.421
12945TIP3   OH238777   2.208   1.660   2.585
12945TIP3    H138778   2.145   1.591   2.567
12945TIP3    H238779   2.191   1.687   2.675
12946TIP3   OH238780   4.216   6.620   0.360
12946TIP3    H138781   4.297   6.636   0.408
12946TIP3    H238782   4.148   6.623   0.427
12947TIP3   OH238783   0.042   2.080   3.881
12947TIP3    H138784   0.008   2.170   3.883
12947TIP3    H238785  -0.031   2.027   3.851
12948TIP3   OH238786   2.027   1.655   4.284
12948TIP3    H138787   2.012   1.709   4.361
12948TIP3    H238788   1.996   1.568   4.309
12949TIP3   OH238789   5.768   1.416   5.769
12949TIP3    H138790   5.743   1.443   5.681
12949TIP3    H238791   5.690   1.431   5.822
12950TIP3   OH238792   3.895   1.855   5.273
12950TIP3    H138793   3.940   1.903   5.204
12950TIP3    H238794   3.964   1.811   5.322
12951TIP3   OH238795   8.113   7.603   3.028
12951TIP3    H138796   8.140   7.689   2.996
12951TIP3    H238797   8.053   7.621   3.100
12952TIP3   OH238798   3.682   5.566   3.201
12952TIP3    H138799   3.633   5.622   3.142
12952TIP3    H238800   3.749   5.623   3.238
12953TIP3   OH238801   7.814   1.302   1.718
12953TIP3    H138802   7.810   1.396   1.739
12953TIP3    H238803   7.883   1.268   1.775
12954TIP3   OH238804   5.510   1.988   1.218
12954TIP3    H138805   5.443   2.055   1.230
12954TIP3    H238806   5.585   2.036   1.182
12955TIP3   OH238807   4.710   4.963   4.044
12955TIP3    H138808   4.772   5.033   4.020
12955TIP3    H238809   4.694   4.978   4.137
12956TIP3   OH238810   2.857   7.235   3.571
12956TIP3    H138811   2.941   7.250   3.614
12956TIP3    H238812   2.863   7.145   3.537
12957TIP3   OH238813   1.472   3.577   0.782
12957TIP3    H138814   1.553   3.576   0.731
12957TIP3    H238815   1.452   3.485   0.797
12958TIP3   OH238816   1.083   1.261   0.977
12958TIP3    H138817   1.170   1.300   0.992
12958TIP3    H238818   1.100   1.167   0.976
12959TIP3   OH238819   6.779   4.262   5.973
12959TIP3    H138820   6.869   4.277   5.944
12959TIP3    H238821   6.752   4.181   5.930
12960TIP3   OH238822   0.181   4.415   1.626
12960TIP3    H138823   0.151   4.385   1.540
12960TIP3    H238824   0.273   4.438   1.612
12961TIP3   OH238825   0.695   0.432   1.639
12961TIP3    H138826   0.709   0.425   1.545
12961TIP3    H238827   0.600   0.434   1.650
12962TIP3   OH238828   4.668   0.523   6.388
12962TIP3    H138829   4.688   0.614   6.407
12962TIP3    H238830   4.721   0.474   6.452
12963TIP3   OH238831   7.462   3.489   6.132
12963TIP3    H138832   7.461   3.506   6.227
12963TIP3    H238833   7.531   3.424   6.120
12964TIP3   OH238834   3.238   0.693   3.627
12964TIP3    H138835   3.195   0.757   3.570
12964TIP3    H238836   3.331   0.707   3.613
12965TIP3   OH238837   7.474   0.214   5.406
12965TIP3    H138838   7.503   0.272   5.336
12965TIP3    H238839   7.515   0.251   5.485
12966TIP3   OH238840   7.563   5.749   1.333
12966TIP3    H138841   7.558   5.840   1.305
12966TIP3    H238842   7.622   5.750   1.408
12967TIP3   OH238843   7.314   3.152   0.915
12967TIP3    H138844   7.297   3.080   0.854
12967TIP3    H238845   7.402   3.181   0.893
12968TIP3   OH238846   3.035   7.774   3.145
12968TIP3    H138847   2.963   7.718   3.116
12968TIP3    H238848   3.037   7.763   3.240
12969TIP3   OH238849   1.723   5.631   0.526
12969TIP3    H138850   1.676   5.552   0.500
12969TIP3    H238851   1.771   5.658   0.448
12970TIP3   OH238852   4.257   0.507   2.086
12970TIP3    H138853   4.248   0.601   2.072
12970TIP3    H238854   4.337   0.484   2.039
12971TIP3   OH238855   0.387   4.178   0.499
12971TIP3    H138856   0.407   4.253   0.443
12971TIP3    H238857   0.292   4.166   0.489
12972TIP3   OH238858   1.770   0.096   5.087
12972TIP3    H138859   1.694   0.041   5.068
12972TIP3    H238860   1.810   0.056   5.165
12973TIP3   OH238861   7.915   6.563   4.567
12973TIP3    H138862   7.949   6.484   4.610
12973TIP3    H238863   7.822   6.546   4.556
12974TIP3   OH238864   4.909   2.891   3.506
12974TIP3    H138865   4.977   2.907   3.572
12974TIP3    H238866   4.889   2.798   3.516
12975TIP3   OH238867   3.358   6.532   3.771
12975TIP3    H138868   3.423   6.590   3.732
12975TIP3    H238869   3.375   6.447   3.731
12976TIP3   OH238870   4.075   0.812   2.782
12976TIP3    H138871   4.098   0.720   2.786
12976TIP3    H238872   4.112   0.843   2.700
12977TIP3   OH238873   1.812   4.429   3.749
12977TIP3    H138874   1.821   4.410   3.656
12977TIP3    H238875   1.873   4.371   3.793
12978TIP3   OH238876   6.512   6.071   6.645
12978TIP3    H138877   6.534   6.131   6.573
12978TIP3    H238878   6.441   6.115   6.692
12979TIP3   OH238879   4.673   3.195   2.884
12979TIP3    H138880   4.583   3.186   2.916
12979TIP3    H238881   4.664   3.245   2.802
12980TIP3   OH238882   4.246   0.468   6.359
12980TIP3    H138883   4.179   0.457   6.292
12980TIP3    H238884   4.314   0.404   6.335
12981TIP3   OH238885   3.409   5.205   6.098
12981TIP3    H138886   3.379   5.118   6.124
12981TIP3    H238887   3.329   5.258   6.092
12982TIP3   OH238888   1.595   0.844   6.563
12982TIP3    H138889   1.596   0.936   6.536
12982TIP3    H238890   1.560   0.797   6.487
12983TIP3   OH238891   5.491   3.396   1.412
12983TIP3    H138892   5.548   3.341   1.466
12983TIP3    H238893   5.417   3.339   1.390
12984TIP3   OH238894   3.874   3.990   3.296
12984TIP3    H138895   3.886   3.936   3.218
12984TIP3    H238896   3.779   3.992   3.309
12985TIP3   OH238897   6.515   4.384   6.245
12985TIP3    H138898   6.498   4.403   6.153
12985TIP3    H238899   6.592   4.436   6.267
12986TIP3   OH238900   5.476   5.616   0.733
12986TIP3    H138901   5.499   5.635   0.824
12986TIP3    H238902   5.492   5.698   0.687
12987TIP3   OH238903   4.627   6.280   2.129
12987TIP3    H138904   4.698   6.335   2.164
12987TIP3    H238905   4.596   6.230   2.204
12988TIP3   OH238906   1.860   5.906   2.086
12988TIP3    H138907   1.772   5.871   2.105
12988TIP3    H238908   1.909   5.830   2.053
12989TIP3   OH238909   2.845   7.281   6.211
12989TIP3    H138910   2.931   7.310   6.181
12989TIP3    H238911   2.855   7.187   6.225
12990TIP3   OH238912   7.047   4.652   5.466
12990TIP3    H138913   7.094   4.638   5.547
12990TIP3    H238914   6.986   4.724   5.486
12991TIP3   OH238915   4.197   4.434   0.377
12991TIP3    H138916   4.254   4.510   0.392
12991TIP3    H238917   4.242   4.362   0.420
12992TIP3   OH238918   4.797   6.258   6.259
12992TIP3    H138919   4.799   6.352   6.241
12992TIP3    H238920   4.707   6.232   6.239
12993TIP3   OH238921   6.550   3.504   0.791
12993TIP3    H138922   6.559   3.480   0.699
12993TIP3    H238923   6.457   3.521   0.803
12994TIP3   OH238924   5.911   1.668   2.154
12994TIP3    H138925   5.901   1.695   2.063
12994TIP3    H238926   5.957   1.584   2.150
12995TIP3   OH238927   7.457   5.524   3.225
12995TIP3    H138928   7.471   5.566   3.310
12995TIP3    H238929   7.398   5.451   3.244
12996TIP3   OH238930   0.816   5.579   6.757
12996TIP3    H138931   0.845   5.610   6.672
12996TIP3    H238932   0.872   5.504   6.776
12997TIP3   OH238933   5.110   2.311   2.714
12997TIP3    H138934   5.027   2.358   2.724
12997TIP3    H238935   5.171   2.376   2.679
12998TIP3   OH238936   7.006   0.708   6.301
12998TIP3    H138937   6.981   0.794   6.337
12998TIP3    H238938   6.941   0.690   6.234
12999TIP3   OH238939   0.024   3.239   1.052
12999TIP3    H138940   0.044   3.222   0.960
12999TIP3    H238941   0.018   3.153   1.092
13000TIP3   OH238942   6.380   4.264   1.900
13000TIP3    H138943   6.419   4.206   1.966
13000TIP3    H238944   6.300   4.298   1.942
13001TIP3   OH238945   8.249   6.409   1.658
13001TIP3    H138946   8.218   6.500   1.666
13001TIP3    H238947   8.175   6.363   1.618
13002TIP3   OH238948   4.868   5.623   4.531
13002TIP3    H138949   4.792   5.575   4.563
13002TIP3    H238950   4.833   5.708   4.506
13003TIP3   OH238951   0.059   4.929   2.193
13003TIP3    H138952  -0.004   4.864   2.224
13003TIP3    H238953   0.145   4.890   2.213
13004TIP3   OH238954   1.646   2.300   3.642
13004TIP3    H138955   1.695   2.345   3.573
13004TIP3    H238956   1.598   2.231   3.597
13005TIP3   OH238957   7.747   7.793   4.762
13005TIP3    H138958   7.734   7.875   4.809
13005TIP3    H238959   7.686   7.732   4.803
13006TIP3   OH238960   7.623   7.728   1.546
13006TIP3    H138961   7.637   7.730   1.451
13006TIP3    H238962   7.677   7.799   1.580
13007TIP3   OH238963   5.920   0.091   3.841
13007TIP3    H138964   5.912   0.170   3.788
13007TIP3    H238965   5.838   0.044   3.826
13008TIP3   OH238966   2.003   1.399   2.415
13008TIP3    H138967   2.080   1.345   2.398
13008TIP3    H238968   1.965   1.416   2.329
13009TIP3   OH238969   4.764   2.380   0.520
13009TIP3    H138970   4.751   2.311   0.456
13009TIP3    H238971   4.704   2.450   0.493
13010TIP3   OH238972   0.189   0.684   6.144
13010TIP3    H138973   0.165   0.764   6.098
13010TIP3    H238974   0.283   0.673   6.126
13011TIP3   OH238975   2.572   5.861   6.220
13011TIP3    H138976   2.587   5.879   6.313
13011TIP3    H238977   2.628   5.923   6.173
13012TIP3   OH238978   2.667   0.353   1.450
13012TIP3    H138979   2.590   0.391   1.493
13012TIP3    H238980   2.735   0.420   1.459
13013TIP3   OH238981   4.500   2.824   3.784
13013TIP3    H138982   4.514   2.911   3.820
13013TIP3    H238983   4.586   2.781   3.790
13014TIP3   OH238984   4.941   6.638   5.932
13014TIP3    H138985   4.944   6.679   5.846
13014TIP3    H238986   5.031   6.638   5.963
13015TIP3   OH238987   5.250   6.808   5.192
13015TIP3    H138988   5.287   6.832   5.277
13015TIP3    H238989   5.183   6.743   5.212
13016TIP3   OH238990   5.816   1.347   2.642
13016TIP3    H138991   5.829   1.283   2.573
13016TIP3    H238992   5.852   1.306   2.721
13017TIP3   OH238993   7.903   3.324   5.498
13017TIP3    H138994   7.835   3.261   5.519
13017TIP3    H238995   7.932   3.300   5.410
13018TIP3   OH238996   6.146   2.309   4.852
13018TIP3    H138997   6.112   2.385   4.900
13018TIP3    H238998   6.095   2.307   4.771
13019TIP3   OH238999   3.413   3.361   6.691
13019TIP3    H139000   3.469   3.438   6.698
13019TIP3    H239001   3.473   3.287   6.689
13020TIP3   OH239002   5.612   1.065   4.579
13020TIP3    H139003   5.650   1.131   4.520
13020TIP3    H239004   5.527   1.102   4.603
13021TIP3   OH239005   1.586   3.426   6.038
13021TIP3    H139006   1.658   3.422   6.101
13021TIP3    H239007   1.523   3.488   6.077
13022TIP3   OH239008   1.732   6.151   2.488
13022TIP3    H139009   1.687   6.225   2.530
13022TIP3    H239010   1.824   6.162   2.512
13023TIP3   OH239011   2.655   1.066   6.232
13023TIP3    H139012   2.641   1.160   6.220
13023TIP3    H239013   2.682   1.058   6.324
13024TIP3   OH239014   7.329   2.127   2.490
13024TIP3    H139015   7.342   2.157   2.581
13024TIP3    H239016   7.256   2.180   2.458
13025TIP3   OH239017   2.097   6.660   4.249
13025TIP3    H139018   2.126   6.583   4.200
13025TIP3    H239019   2.157   6.730   4.221
13026TIP3   OH239020   3.876   1.611   2.696
13026TIP3    H139021   3.962   1.587   2.662
13026TIP3    H239022   3.834   1.656   2.623
13027TIP3   OH239023   3.138   1.568   2.004
13027TIP3    H139024   3.055   1.578   1.956
13027TIP3    H239025   3.204   1.608   1.947
13028TIP3   OH239026   5.543   7.050   3.283
13028TIP3    H139027   5.533   7.012   3.195
13028TIP3    H239028   5.512   7.140   3.274
13029TIP3   OH239029   4.680   2.624   2.992
13029TIP3    H139030   4.621   2.688   3.032
13029TIP3    H239031   4.711   2.571   3.065
13030TIP3   OH239032   0.112   0.131   0.547
13030TIP3    H139033   0.149   0.128   0.635
13030TIP3    H239034   0.120   0.222   0.520
13031TIP3   OH239035   3.278   2.212   1.833
13031TIP3    H139036   3.342   2.145   1.811
13031TIP3    H239037   3.244   2.186   1.919
13032TIP3   OH239038   3.726   4.415   4.170
13032TIP3    H139039   3.638   4.450   4.179
13032TIP3    H239040   3.781   4.475   4.221
13033TIP3   OH239041   7.419   6.188   4.549
13033TIP3    H139042   7.492   6.129   4.527
13033TIP3    H239043   7.373   6.143   4.620
13034TIP3   OH239044   7.752   2.915   1.087
13034TIP3    H139045   7.830   2.966   1.065
13034TIP3    H239046   7.754   2.841   1.027
13035TIP3   OH239047   2.387   1.537   1.345
13035TIP3    H139048   2.331   1.512   1.419
13035TIP3    H239049   2.408   1.455   1.303
13036TIP3   OH239050   0.786   7.661   3.297
13036TIP3    H139051   0.780   7.710   3.379
13036TIP3    H239052   0.819   7.575   3.323
13037TIP3   OH239053   6.400   5.435   6.477
13037TIP3    H139054   6.380   5.435   6.384
13037TIP3    H239055   6.496   5.437   6.481
13038TIP3   OH239056   6.941   4.045   3.174
13038TIP3    H139057   6.856   4.063   3.215
13038TIP3    H239058   6.920   4.023   3.083
13039TIP3   OH239059   5.090   1.576   1.643
13039TIP3    H139060   5.154   1.516   1.681
13039TIP3    H239061   5.136   1.660   1.638
13040TIP3   OH239062   1.005   2.254   5.850
13040TIP3    H139063   1.090   2.226   5.817
13040TIP3    H239064   0.945   2.240   5.776
13041TIP3   OH239065   0.656   6.992   2.573
13041TIP3    H139066   0.686   6.917   2.522
13041TIP3    H239067   0.696   6.980   2.659
13042TIP3   OH239068   1.831   0.182   5.555
13042TIP3    H139069   1.768   0.125   5.513
13042TIP3    H239070   1.867   0.129   5.626
13043TIP3   OH239071   0.534   5.490   3.723
13043TIP3    H139072   0.507   5.409   3.678
13043TIP3    H239073   0.621   5.509   3.686
13044TIP3   OH239074   7.894   3.525   4.891
13044TIP3    H139075   7.986   3.541   4.873
13044TIP3    H239076   7.873   3.446   4.840
13045TIP3   OH239077   1.138   1.538   3.343
13045TIP3    H139078   1.200   1.598   3.302
13045TIP3    H239079   1.186   1.502   3.418
13046TIP3   OH239080   2.551   5.561   6.542
13046TIP3    H139081   2.484   5.518   6.489
13046TIP3    H239082   2.502   5.620   6.599
13047TIP3   OH239083   0.469   2.484   2.391
13047TIP3    H139084   0.380   2.496   2.357
13047TIP3    H239085   0.500   2.573   2.407
13048TIP3   OH239086   5.291   1.190   4.920
13048TIP3    H139087   5.282   1.101   4.884
13048TIP3    H239088   5.203   1.214   4.947
13049TIP3   OH239089   1.875   2.404   1.759
13049TIP3    H139090   1.969   2.399   1.778
13049TIP3    H239091   1.847   2.489   1.793
13050TIP3   OH239092   5.769   4.505   2.978
13050TIP3    H139093   5.694   4.463   2.937
13050TIP3    H239094   5.811   4.554   2.907
13051TIP3   OH239095   5.273   7.598   5.286
13051TIP3    H139096   5.361   7.603   5.322
13051TIP3    H239097   5.273   7.660   5.213
13052TIP3   OH239098   6.289   3.964   5.235
13052TIP3    H139099   6.251   3.962   5.147
13052TIP3    H239100   6.225   4.013   5.287
13053TIP3   OH239101   1.131   7.820   2.479
13053TIP3    H139102   1.159   7.868   2.401
13053TIP3    H239103   1.083   7.744   2.445
13054TIP3   OH239104   3.175   1.081   6.311
13054TIP3    H139105   3.202   1.109   6.224
13054TIP3    H239106   3.241   1.117   6.370
13055TIP3   OH239107   1.493   0.035   2.707
13055TIP3    H139108   1.502   0.131   2.706
13055TIP3    H239109   1.422   0.018   2.646
13056TIP3   OH239110   6.534   5.877   5.717
13056TIP3    H139111   6.600   5.840   5.658
13056TIP3    H239112   6.522   5.967   5.687
13057TIP3   OH239113   0.509   6.080   1.738
13057TIP3    H139114   0.541   6.166   1.713
13057TIP3    H239115   0.433   6.065   1.682
13058TIP3   OH239116   7.373   1.266   1.178
13058TIP3    H139117   7.331   1.348   1.149
13058TIP3    H239118   7.442   1.251   1.114
13059TIP3   OH239119   3.023   7.614   6.625
13059TIP3    H139120   3.063   7.603   6.539
13059TIP3    H239121   3.018   7.709   6.636
13060TIP3   OH239122   3.573   1.906   3.950
13060TIP3    H139123   3.576   1.982   3.892
13060TIP3    H239124   3.528   1.937   4.028
13061TIP3   OH239125   2.500   0.835   0.181
13061TIP3    H139126   2.442   0.762   0.204
13061TIP3    H239127   2.560   0.842   0.256
13062TIP3   OH239128   5.332   4.457   5.630
13062TIP3    H139129   5.348   4.483   5.539
13062TIP3    H239130   5.412   4.483   5.676
13063TIP3   OH239131   7.128   6.700   6.495
13063TIP3    H139132   7.136   6.747   6.577
13063TIP3    H239133   7.087   6.763   6.435
13064TIP3   OH239134   4.906   5.043   3.194
13064TIP3    H139135   4.908   5.107   3.265
13064TIP3    H239136   4.985   5.061   3.143
13065TIP3   OH239137   6.144   4.188   2.482
13065TIP3    H139138   6.081   4.123   2.514
13065TIP3    H239139   6.180   4.228   2.561
13066TIP3   OH239140   8.215   6.721   2.276
13066TIP3    H139141   8.221   6.725   2.371
13066TIP3    H239142   8.172   6.638   2.258
13067TIP3   OH239143   5.956   4.537   5.650
13067TIP3    H139144   5.877   4.506   5.606
13067TIP3    H239145   5.923   4.589   5.724
13068TIP3   OH239146   2.875   2.647   0.461
13068TIP3    H139147   2.864   2.578   0.396
13068TIP3    H239148   2.833   2.613   0.540
13069TIP3   OH239149   7.469   5.582   3.495
13069TIP3    H139150   7.551   5.537   3.477
13069TIP3    H239151   7.484   5.627   3.578
13070TIP3   OH239152   6.559   7.361   5.383
13070TIP3    H139153   6.472   7.400   5.377
13070TIP3    H239154   6.554   7.282   5.329
13071TIP3   OH239155   3.969   6.391   2.814
13071TIP3    H139156   4.037   6.342   2.767
13071TIP3    H239157   4.011   6.420   2.895
13072TIP3   OH239158   1.440   7.280   1.000
13072TIP3    H139159   1.407   7.247   0.916
13072TIP3    H239160   1.372   7.257   1.063
13073TIP3   OH239161   2.417   1.073   2.345
13073TIP3    H139162   2.324   1.088   2.365
13073TIP3    H239163   2.463   1.141   2.395
13074TIP3   OH239164   3.205   7.799   5.605
13074TIP3    H139165   3.150   7.877   5.594
13074TIP3    H239166   3.143   7.729   5.624
13075TIP3   OH239167   0.561   4.074   2.715
13075TIP3    H139168   0.492   4.114   2.769
13075TIP3    H239169   0.564   3.983   2.744
13076TIP3   OH239170   2.320   0.325   4.557
13076TIP3    H139171   2.336   0.403   4.504
13076TIP3    H239172   2.396   0.270   4.544
13077TIP3   OH239173   7.138   7.500   1.498
13077TIP3    H139174   7.100   7.520   1.413
13077TIP3    H239175   7.166   7.585   1.532
13078TIP3   OH239176   3.904   6.275   0.537
13078TIP3    H139177   3.868   6.331   0.468
13078TIP3    H239178   3.999   6.282   0.526
13079TIP3   OH239179   2.959   7.263   2.705
13079TIP3    H139180   3.035   7.298   2.751
13079TIP3    H239181   2.915   7.209   2.771
13080TIP3   OH239182   2.362   5.107   0.520
13080TIP3    H139183   2.431   5.167   0.494
13080TIP3    H239184   2.393   5.020   0.492
13081TIP3   OH239185   2.477   5.212   2.227
13081TIP3    H139186   2.439   5.151   2.290
13081TIP3    H239187   2.534   5.269   2.278
13082TIP3   OH239188   3.996   6.347   2.176
13082TIP3    H139189   4.063   6.346   2.108
13082TIP3    H239190   4.012   6.269   2.228
13083TIP3   OH239191   2.614   2.673   1.614
13083TIP3    H139192   2.649   2.648   1.699
13083TIP3    H239193   2.634   2.766   1.605
13084TIP3   OH239194   6.659   1.260   0.798
13084TIP3    H139195   6.725   1.330   0.796
13084TIP3    H239196   6.679   1.206   0.722
13085TIP3   OH239197   4.024   4.045   0.427
13085TIP3    H139198   4.053   4.134   0.445
13085TIP3    H239199   4.059   3.993   0.499
13086TIP3   OH239200   3.691   2.772   5.354
13086TIP3    H139201   3.611   2.746   5.401
13086TIP3    H239202   3.672   2.859   5.322
13087TIP3   OH239203   5.697   2.966   5.256
13087TIP3    H139204   5.745   2.883   5.262
13087TIP3    H239205   5.765   3.031   5.239
13088TIP3   OH239206   1.161   0.368   2.776
13088TIP3    H139207   1.100   0.356   2.703
13088TIP3    H239208   1.132   0.304   2.841
13089TIP3   OH239209   2.596   6.991   3.302
13089TIP3    H139210   2.530   7.060   3.295
13089TIP3    H239211   2.609   6.961   3.212
13090TIP3   OH239212   7.872   4.597   2.123
13090TIP3    H139213   7.831   4.615   2.038
13090TIP3    H239214   7.910   4.510   2.113
13091TIP3   OH239215   2.987   2.533   3.551
13091TIP3    H139216   2.995   2.439   3.531
13091TIP3    H239217   3.071   2.570   3.524
13092TIP3   OH239218   6.430   7.541   3.218
13092TIP3    H139219   6.349   7.503   3.255
13092TIP3    H239220   6.400   7.592   3.143
13093TIP3   OH239221   7.905   7.502   6.422
13093TIP3    H139222   7.990   7.495   6.465
13093TIP3    H239223   7.925   7.530   6.333
13094TIP3   OH239224   7.370   1.196   1.922
13094TIP3    H139225   7.421   1.157   1.993
13094TIP3    H239226   7.297   1.239   1.965
13095TIP3   OH239227   4.877   0.780   3.986
13095TIP3    H139228   4.905   0.696   4.022
13095TIP3    H239229   4.899   0.776   3.893
13096TIP3   OH239230   1.674   6.366   3.395
13096TIP3    H139231   1.622   6.445   3.402
13096TIP3    H239232   1.644   6.311   3.468
13097TIP3   OH239233   5.955   7.024   4.263
13097TIP3    H139234   5.872   7.043   4.305
13097TIP3    H239235   6.019   7.076   4.311
13098TIP3   OH239236   6.690   4.699   4.053
13098TIP3    H139237   6.651   4.662   3.974
13098TIP3    H239238   6.783   4.676   4.046
13099TIP3   OH239239   6.071   1.583   1.620
13099TIP3    H139240   6.111   1.574   1.706
13099TIP3    H239241   6.129   1.533   1.562
13100TIP3   OH239242   0.526   3.098   4.923
13100TIP3    H139243   0.440   3.113   4.882
13100TIP3    H239244   0.558   3.186   4.942
13101TIP3   OH239245   1.740   6.812   5.125
13101TIP3    H139246   1.776   6.724   5.120
13101TIP3    H239247   1.680   6.809   5.200
13102TIP3   OH239248   2.060   0.683   2.720
13102TIP3    H139249   2.102   0.619   2.663
13102TIP3    H239250   2.052   0.762   2.667
13103TIP3   OH239251   6.682   1.288   3.134
13103TIP3    H139252   6.635   1.362   3.171
13103TIP3    H239253   6.769   1.322   3.112
13104TIP3   OH239254   1.586   4.121   2.573
13104TIP3    H139255   1.605   4.038   2.529
13104TIP3    H239256   1.497   4.109   2.607
13105TIP3   OH239257   0.906   5.701   6.531
13105TIP3    H139258   0.985   5.749   6.506
13105TIP3    H239259   0.881   5.653   6.453
13106TIP3   OH239260   1.023   7.834   6.382
13106TIP3    H139261   1.119   7.826   6.387
13106TIP3    H239262   0.993   7.750   6.349
13107TIP3   OH239263   1.146   4.222   1.782
13107TIP3    H139264   1.088   4.266   1.720
13107TIP3    H239265   1.103   4.235   1.867
13108TIP3   OH239266   5.690   1.709   0.108
13108TIP3    H139267   5.758   1.668   0.055
13108TIP3    H239268   5.609   1.669   0.076
13109TIP3   OH239269   6.139   0.716   4.037
13109TIP3    H139270   6.224   0.748   4.008
13109TIP3    H239271   6.076   0.772   3.993
13110TIP3   OH239272   8.128   1.675   0.709
13110TIP3    H139273   8.123   1.697   0.616
13110TIP3    H239274   8.198   1.609   0.714
13111TIP3   OH239275   6.383   5.976   0.399
13111TIP3    H139276   6.395   5.921   0.477
13111TIP3    H239277   6.326   5.924   0.342
13112TIP3   OH239278   4.628   5.941   5.433
13112TIP3    H139279   4.651   6.032   5.449
13112TIP3    H239280   4.540   5.945   5.395
13113TIP3   OH239281   8.155   3.111   0.556
13113TIP3    H139282   8.103   3.080   0.630
13113TIP3    H239283   8.242   3.075   0.570
13114TIP3   OH239284   3.251   2.448   3.857
13114TIP3    H139285   3.207   2.486   3.781
13114TIP3    H239286   3.338   2.425   3.826
13115TIP3   OH239287   2.530   2.235   5.957
13115TIP3    H139288   2.573   2.169   6.011
13115TIP3    H239289   2.486   2.293   6.020
13116TIP3   OH239290   0.328   0.840   2.381
13116TIP3    H139291   0.316   0.764   2.437
13116TIP3    H239292   0.341   0.913   2.443
13117TIP3   OH239293   4.007   1.612   1.010
13117TIP3    H139294   4.096   1.628   0.978
13117TIP3    H239295   3.952   1.619   0.933
13118TIP3   OH239296   6.087   5.078   4.742
13118TIP3    H139297   6.111   5.054   4.832
13118TIP3    H239298   6.165   5.057   4.690
13119TIP3   OH239299   6.569   3.460   5.421
13119TIP3    H139300   6.576   3.451   5.516
13119TIP3    H239301   6.495   3.519   5.408
13120TIP3   OH239302   6.485   1.639   1.830
13120TIP3    H139303   6.515   1.730   1.829
13120TIP3    H239304   6.565   1.587   1.832
13121TIP3   OH239305   3.549   1.190   5.669
13121TIP3    H139306   3.526   1.229   5.585
13121TIP3    H239307   3.472   1.139   5.694
13122TIP3   OH239308   2.834   1.581   2.106
13122TIP3    H139309   2.850   1.506   2.048
13122TIP3    H239310   2.738   1.585   2.113
13123TIP3   OH239311   8.001   5.134   6.794
13123TIP3    H139312   8.084   5.100   6.761
13123TIP3    H239313   7.945   5.140   6.717
13124TIP3   OH239314   0.662   7.180   5.962
13124TIP3    H139315   0.727   7.224   6.018
13124TIP3    H239316   0.578   7.196   6.005
13125TIP3   OH239317   5.604   4.291   4.711
13125TIP3    H139318   5.677   4.237   4.681
13125TIP3    H239319   5.600   4.362   4.647
13126TIP3   OH239320   6.456   3.183   5.065
13126TIP3    H139321   6.394   3.194   5.137
13126TIP3    H239322   6.521   3.252   5.079
13127TIP3   OH239323   1.124   6.123   3.764
13127TIP3    H139324   1.178   6.048   3.740
13127TIP3    H239325   1.079   6.096   3.844
13128TIP3   OH239326   8.127   4.718   5.889
13128TIP3    H139327   8.116   4.799   5.938
13128TIP3    H239328   8.220   4.697   5.896
13129TIP3   OH239329   1.792   6.758   1.015
13129TIP3    H139330   1.862   6.819   1.037
13129TIP3    H239331   1.723   6.775   1.079
13130TIP3   OH239332   7.435   3.178   2.269
13130TIP3    H139333   7.432   3.083   2.260
13130TIP3    H239334   7.529   3.199   2.274
13131TIP3   OH239335   5.324   0.451   5.311
13131TIP3    H139336   5.315   0.358   5.292
13131TIP3    H239337   5.250   0.492   5.266
13132TIP3   OH239338   4.620   3.529   5.945
13132TIP3    H139339   4.677   3.568   6.012
13132TIP3    H239340   4.611   3.597   5.879
13133TIP3   OH239341   2.145   2.047   6.667
13133TIP3    H139342   2.191   2.111   6.613
13133TIP3    H239343   2.127   1.974   6.607
13134TIP3   OH239344   8.184   0.541   3.010
13134TIP3    H139345   8.214   0.596   3.083
13134TIP3    H239346   8.151   0.603   2.945
13135TIP3   OH239347   0.246   6.423   3.313
13135TIP3    H139348   0.230   6.369   3.236
13135TIP3    H239349   0.341   6.436   3.315
13136TIP3   OH239350   1.638   2.151   0.243
13136TIP3    H139351   1.567   2.096   0.212
13136TIP3    H239352   1.698   2.090   0.286
13137TIP3   OH239353   7.313   5.865   4.098
13137TIP3    H139354   7.247   5.810   4.055
13137TIP3    H239355   7.397   5.823   4.074
13138TIP3   OH239356   4.296   5.750   2.811
13138TIP3    H139357   4.377   5.754   2.759
13138TIP3    H239358   4.321   5.701   2.889
13139TIP3   OH239359   1.612   1.312   2.873
13139TIP3    H139360   1.677   1.254   2.914
13139TIP3    H239361   1.551   1.253   2.829
13140TIP3   OH239362   5.827   5.405   5.364
13140TIP3    H139363   5.763   5.452   5.311
13140TIP3    H239364   5.854   5.469   5.430
13141TIP3   OH239365   1.568   5.724   3.973
13141TIP3    H139366   1.621   5.743   3.896
13141TIP3    H239367   1.554   5.809   4.015
13142TIP3   OH239368   1.430   5.832   0.359
13142TIP3    H139369   1.376   5.910   0.369
13142TIP3    H239370   1.520   5.865   0.362
13143TIP3   OH239371   3.554   4.116   3.144
13143TIP3    H139372   3.557   4.062   3.223
13143TIP3    H239373   3.615   4.187   3.162
13144TIP3   OH239374   7.593   4.945   6.651
13144TIP3    H139375   7.519   4.969   6.594
13144TIP3    H239376   7.563   4.969   6.739
13145TIP3   OH239377   1.814   5.451   2.630
13145TIP3    H139378   1.847   5.481   2.545
13145TIP3    H239379   1.883   5.394   2.663
13146TIP3   OH239380   4.234   1.060   5.375
13146TIP3    H139381   4.271   0.972   5.376
13146TIP3    H239382   4.308   1.117   5.359
13147TIP3   OH239383   3.795   7.291   2.059
13147TIP3    H139384   3.756   7.293   2.146
13147TIP3    H239385   3.885   7.264   2.073
13148TIP3   OH239386   4.125   5.670   1.385
13148TIP3    H139387   4.130   5.603   1.453
13148TIP3    H239388   4.033   5.695   1.382
13149TIP3   OH239389   6.970   0.212   3.880
13149TIP3    H139390   7.000   0.282   3.938
13149TIP3    H239391   6.878   0.199   3.904
13150TIP3   OH239392   0.272   5.736   0.050
13150TIP3    H139393   0.358   5.744   0.009
13150TIP3    H239394   0.250   5.643   0.041
13151TIP3   OH239395   3.260   2.708   4.947
13151TIP3    H139396   3.253   2.717   5.042
13151TIP3    H239397   3.321   2.777   4.921
13152TIP3   OH239398   0.681   6.463   2.450
13152TIP3    H139399   0.705   6.546   2.491
13152TIP3    H239400   0.585   6.464   2.447
13153TIP3   OH239401   3.954   1.340   2.013
13153TIP3    H139402   3.921   1.417   1.966
13153TIP3    H239403   3.886   1.273   2.000
13154TIP3   OH239404   0.037   2.916   0.530
13154TIP3    H139405  -0.023   2.857   0.484
13154TIP3    H239406   0.092   2.858   0.583
13155TIP3   OH239407   3.889   0.769   3.373
13155TIP3    H139408   3.974   0.783   3.330
13155TIP3    H239409   3.825   0.801   3.309
13156TIP3   OH239410   0.920   0.444   5.282
13156TIP3    H139411   0.900   0.537   5.282
13156TIP3    H239412   1.004   0.436   5.239
13157TIP3   OH239413   6.135   1.174   5.152
13157TIP3    H139414   6.130   1.203   5.243
13157TIP3    H239415   6.229   1.174   5.132
13158TIP3   OH239416   5.486   0.784   5.842
13158TIP3    H139417   5.415   0.844   5.819
13158TIP3    H239418   5.518   0.752   5.758
13159TIP3   OH239419   7.397   0.391   0.441
13159TIP3    H139420   7.448   0.319   0.477
13159TIP3    H239421   7.318   0.349   0.406
13160TIP3   OH239422   4.809   2.034   1.758
13160TIP3    H139423   4.899   2.046   1.788
13160TIP3    H239424   4.813   2.049   1.664
13161TIP3   OH239425   3.542   5.800   2.139
13161TIP3    H139426   3.606   5.861   2.102
13161TIP3    H239427   3.495   5.766   2.063
13162TIP3   OH239428   2.410   7.336   5.464
13162TIP3    H139429   2.342   7.353   5.530
13162TIP3    H239430   2.362   7.305   5.387
13163TIP3   OH239431   7.279   6.659   2.846
13163TIP3    H139432   7.352   6.600   2.865
13163TIP3    H239433   7.296   6.737   2.898
13164TIP3   OH239434   8.171   1.968   6.604
13164TIP3    H139435   8.123   1.999   6.526
13164TIP3    H239436   8.256   2.012   6.598
13165TIP3   OH239437   4.651   0.934   3.587
13165TIP3    H139438   4.720   0.983   3.633
13165TIP3    H239439   4.571   0.956   3.635
13166TIP3   OH239440   0.907   6.415   5.424
13166TIP3    H139441   0.847   6.366   5.481
13166TIP3    H239442   0.899   6.505   5.454
13167TIP3   OH239443   4.839   5.590   1.563
13167TIP3    H139444   4.776   5.645   1.610
13167TIP3    H239445   4.785   5.542   1.499
13168TIP3   OH239446   1.382   4.163   4.030
13168TIP3    H139447   1.392   4.139   4.122
13168TIP3    H239448   1.359   4.081   3.986
13169TIP3   OH239449   7.340   4.112   1.331
13169TIP3    H139450   7.269   4.094   1.269
13169TIP3    H239451   7.398   4.036   1.324
13170TIP3   OH239452   4.482   5.022   2.847
13170TIP3    H139453   4.432   4.960   2.795
13170TIP3    H239454   4.557   4.972   2.879
13171TIP3   OH239455   1.947   5.598   2.256
13171TIP3    H139456   1.904   5.521   2.218
13171TIP3    H239457   1.980   5.646   2.180
13172TIP3   OH239458   7.905   6.806   4.875
13172TIP3    H139459   7.977   6.787   4.814
13172TIP3    H239460   7.846   6.731   4.867
13173TIP3   OH239461   0.437   6.683   6.726
13173TIP3    H139462   0.520   6.650   6.693
13173TIP3    H239463   0.384   6.698   6.647
13174TIP3   OH239464   3.893   3.363   6.689
13174TIP3    H139465   3.876   3.454   6.712
13174TIP3    H239466   3.962   3.335   6.749
13175TIP3   OH239467   2.978   3.757   3.251
13175TIP3    H139468   3.020   3.740   3.335
13175TIP3    H239469   3.047   3.745   3.187
13176TIP3   OH239470   1.062   1.312   6.775
13176TIP3    H139471   1.127   1.256   6.732
13176TIP3    H239472   1.104   1.398   6.780
13177TIP3   OH239473   7.622   1.231   3.427
13177TIP3    H139474   7.551   1.170   3.448
13177TIP3    H239475   7.604   1.308   3.481
13178TIP3   OH239476   3.411   1.570   3.518
13178TIP3    H139477   3.445   1.601   3.434
13178TIP3    H239478   3.416   1.645   3.576
13179TIP3   OH239479   6.657   5.691   6.385
13179TIP3    H139480   6.568   5.725   6.377
13179TIP3    H239481   6.711   5.754   6.337
13180TIP3   OH239482   4.383   5.565   4.667
13180TIP3    H139483   4.322   5.508   4.714
13180TIP3    H239484   4.363   5.551   4.575
13181TIP3   OH239485   5.656   6.032   3.286
13181TIP3    H139486   5.721   5.964   3.302
13181TIP3    H239487   5.658   6.086   3.366
13182TIP3   OH239488   5.402   7.779   1.767
13182TIP3    H139489   5.332   7.810   1.710
13182TIP3    H239490   5.359   7.719   1.827
13183TIP3   OH239491   4.668   1.986   4.053
13183TIP3    H139492   4.758   2.009   4.077
13183TIP3    H239493   4.664   1.891   4.066
13184TIP3   OH239494   5.350   4.200   6.225
13184TIP3    H139495   5.435   4.241   6.210
13184TIP3    H239496   5.361   4.111   6.191
13185TIP3   OH239497   2.607   5.677   0.255
13185TIP3    H139498   2.589   5.653   0.346
13185TIP3    H239499   2.675   5.615   0.227
13186TIP3   OH239500   5.628   1.728   5.793
13186TIP3    H139501   5.598   1.639   5.813
13186TIP3    H239502   5.554   1.784   5.814
13187TIP3   OH239503   2.449   1.728   4.823
13187TIP3    H139504   2.507   1.796   4.859
13187TIP3    H239505   2.437   1.667   4.896
13188TIP3   OH239506   3.713   0.235   5.631
13188TIP3    H139507   3.694   0.314   5.680
13188TIP3    H239508   3.808   0.226   5.633
13189TIP3   OH239509   3.461   0.486   3.690
13189TIP3    H139510   3.505   0.439   3.619
13189TIP3    H239511   3.386   0.430   3.712
13190TIP3   OH239512   3.219   5.625   2.237
13190TIP3    H139513   3.235   5.586   2.323
13190TIP3    H239514   3.213   5.719   2.253
13191TIP3   OH239515   7.687   5.371   2.987
13191TIP3    H139516   7.629   5.446   3.000
13191TIP3    H239517   7.770   5.399   3.026
13192TIP3   OH239518   1.491   5.336   2.122
13192TIP3    H139519   1.406   5.363   2.159
13192TIP3    H239520   1.553   5.401   2.156
13193TIP3   OH239521   2.947   1.619   4.661
13193TIP3    H139522   2.923   1.615   4.754
13193TIP3    H239523   2.962   1.527   4.636
13194TIP3   OH239524   6.753   5.741   3.677
13194TIP3    H139525   6.756   5.675   3.608
13194TIP3    H239526   6.683   5.711   3.735
13195TIP3   OH239527   1.492   5.300   6.542
13195TIP3    H139528   1.498   5.381   6.491
13195TIP3    H239529   1.486   5.329   6.633
13196TIP3   OH239530   0.215   6.649   3.919
13196TIP3    H139531   0.263   6.661   4.001
13196TIP3    H239532   0.159   6.726   3.913
13197TIP3   OH239533   0.749   7.713   2.687
13197TIP3    H139534   0.801   7.793   2.673
13197TIP3    H239535   0.675   7.721   2.626
13198TIP3   OH239536   1.959   1.861   3.053
13198TIP3    H139537   1.994   1.902   3.132
13198TIP3    H239538   1.909   1.930   3.010
13199TIP3   OH239539   1.798   3.791   0.501
13199TIP3    H139540   1.712   3.828   0.520
13199TIP3    H239541   1.856   3.829   0.567
13200TIP3   OH239542   5.851   3.233   3.945
13200TIP3    H139543   5.773   3.283   3.920
13200TIP3    H239544   5.826   3.187   4.024
13201TIP3   OH239545   0.972   6.958   3.916
13201TIP3    H139546   0.925   6.915   3.987
13201TIP3    H239547   0.906   6.969   3.847
13202TIP3   OH239548   7.684   7.783   5.622
13202TIP3    H139549   7.696   7.747   5.710
13202TIP3    H239550   7.746   7.856   5.617
13203TIP3   OH239551   6.503   4.793   6.246
13203TIP3    H139552   6.539   4.746   6.322
13203TIP3    H239553   6.561   4.770   6.174
13204TIP3   OH239554   2.585   2.453   4.111
13204TIP3    H139555   2.616   2.479   4.197
13204TIP3    H239556   2.518   2.387   4.129
13205TIP3   OH239557   2.699   4.229   2.282
13205TIP3    H139558   2.792   4.216   2.304
13205TIP3    H239559   2.652   4.180   2.349
13206TIP3   OH239560   2.907   4.898   3.479
13206TIP3    H139561   2.986   4.941   3.447
13206TIP3    H239562   2.900   4.925   3.571
13207TIP3   OH239563   3.980   2.695   3.840
13207TIP3    H139564   3.927   2.619   3.815
13207TIP3    H239565   3.962   2.760   3.772
13208TIP3   OH239566   0.265   7.077   3.486
13208TIP3    H139567   0.359   7.079   3.468
13208TIP3    H239568   0.246   6.985   3.504
13209TIP3   OH239569   6.298   2.696   2.364
13209TIP3    H139570   6.206   2.670   2.354
13209TIP3    H239571   6.348   2.617   2.344
13210TIP3   OH239572   0.664   2.425   5.257
13210TIP3    H139573   0.746   2.432   5.208
13210TIP3    H239574   0.642   2.516   5.280
13211TIP3   OH239575   4.843   2.461   6.215
13211TIP3    H139576   4.813   2.384   6.264
13211TIP3    H239577   4.901   2.426   6.148
13212TIP3   OH239578   7.486   4.665   2.720
13212TIP3    H139579   7.454   4.589   2.672
13212TIP3    H239580   7.488   4.735   2.655
13213TIP3   OH239581   0.569   7.086   1.967
13213TIP3    H139582   0.538   7.174   1.950
13213TIP3    H239583   0.647   7.076   1.912
13214TIP3   OH239584   4.300   6.316   2.240
13214TIP3    H139585   4.275   6.349   2.154
13214TIP3    H239586   4.280   6.223   2.237
13215TIP3   OH239587   5.979   2.625   0.640
13215TIP3    H139588   5.951   2.597   0.727
13215TIP3    H239589   6.015   2.712   0.653
13216TIP3   OH239590   4.553   2.972   6.057
13216TIP3    H139591   4.530   2.896   6.003
13216TIP3    H239592   4.477   2.985   6.113
13217TIP3   OH239593   7.161   5.520   1.264
13217TIP3    H139594   7.232   5.468   1.302
13217TIP3    H239595   7.169   5.504   1.170
13218TIP3   OH239596   7.020   3.746   4.207
13218TIP3    H139597   7.018   3.650   4.197
13218TIP3    H239598   6.952   3.778   4.148
13219TIP3   OH239599   4.975   3.530   1.895
13219TIP3    H139600   4.923   3.451   1.912
13219TIP3    H239601   4.911   3.601   1.893
13220TIP3   OH239602   4.837   5.704   5.860
13220TIP3    H139603   4.843   5.798   5.845
13220TIP3    H239604   4.811   5.696   5.952
13221TIP3   OH239605   6.482   0.067   6.760
13221TIP3    H139606   6.475  -0.011   6.705
13221TIP3    H239607   6.559   0.053   6.814
13222TIP3   OH239608   5.687   5.729   3.576
13222TIP3    H139609   5.747   5.798   3.606
13222TIP3    H239610   5.730   5.692   3.499
13223TIP3   OH239611   6.250   7.083   4.651
13223TIP3    H139612   6.244   7.088   4.746
13223TIP3    H239613   6.291   6.998   4.634
13224TIP3   OH239614   1.468   7.259   4.562
13224TIP3    H139615   1.476   7.164   4.568
13224TIP3    H239616   1.510   7.282   4.480
13225TIP3   OH239617   6.628   5.829   6.698
13225TIP3    H139618   6.575   5.904   6.669
13225TIP3    H239619   6.718   5.854   6.674
13226TIP3   OH239620   5.275   7.580   4.899
13226TIP3    H139621   5.334   7.624   4.960
13226TIP3    H239622   5.234   7.511   4.952
13227TIP3   OH239623   6.772   3.751   6.525
13227TIP3    H139624   6.692   3.753   6.471
13227TIP3    H239625   6.744   3.785   6.610
13228TIP3   OH239626   1.770   7.464   0.468
13228TIP3    H139627   1.825   7.388   0.450
13228TIP3    H239628   1.792   7.491   0.557
13229TIP3   OH239629   2.512   7.317   0.109
13229TIP3    H139630   2.471   7.365   0.181
13229TIP3    H239631   2.491   7.369   0.031
13230TIP3   OH239632   4.476   5.566   3.535
13230TIP3    H139633   4.543   5.526   3.590
13230TIP3    H239634   4.501   5.659   3.531
13231TIP3   OH239635   2.066   0.996   5.948
13231TIP3    H139636   2.006   1.050   6.000
13231TIP3    H239637   2.070   0.913   5.995
13232TIP3   OH239638   5.895   3.596   2.252
13232TIP3    H139639   5.915   3.613   2.160
13232TIP3    H239640   5.803   3.622   2.262
13233TIP3   OH239641   6.811   7.464   0.753
13233TIP3    H139642   6.870   7.532   0.721
13233TIP3    H239643   6.832   7.387   0.700
13234TIP3   OH239644   0.511   5.792   6.012
13234TIP3    H139645   0.544   5.738   5.941
13234TIP3    H239646   0.579   5.858   6.025
13235TIP3   OH239647   3.761   7.767   4.802
13235TIP3    H139648   3.800   7.759   4.715
13235TIP3    H239649   3.836   7.781   4.860
13236TIP3   OH239650   6.762   1.086   1.352
13236TIP3    H139651   6.796   1.123   1.270
13236TIP3    H239652   6.785   0.993   1.347
13237TIP3   OH239653   0.753   0.629   0.016
13237TIP3    H139654   0.676   0.580  -0.013
13237TIP3    H239655   0.754   0.617   0.111
13238TIP3   OH239656   6.581   6.183   5.153
13238TIP3    H139657   6.512   6.168   5.087
13238TIP3    H239658   6.603   6.095   5.184
13239TIP3   OH239659   6.099   0.444   4.094
13239TIP3    H139660   6.111   0.538   4.084
13239TIP3    H239661   6.164   0.405   4.035
13240TIP3   OH239662   1.171   5.742   3.028
13240TIP3    H139663   1.199   5.780   2.945
13240TIP3    H239664   1.092   5.693   3.006
13241TIP3   OH239665   4.492   0.790   3.355
13241TIP3    H139666   4.554   0.834   3.296
13241TIP3    H239667   4.538   0.783   3.438
13242TIP3   OH239668   2.118   7.137   4.383
13242TIP3    H139669   2.059   7.206   4.410
13242TIP3    H239670   2.178   7.127   4.457
13243TIP3   OH239671   0.867   1.548   3.309
13243TIP3    H139672   0.840   1.467   3.266
13243TIP3    H239673   0.956   1.530   3.340
13244TIP3   OH239674   4.127   0.625   1.787
13244TIP3    H139675   4.073   0.617   1.709
13244TIP3    H239676   4.067   0.616   1.860
13245TIP3   OH239677   1.804   4.940   0.789
13245TIP3    H139678   1.727   4.906   0.834
13245TIP3    H239679   1.809   4.890   0.707
13246TIP3   OH239680   6.061   6.902   3.769
13246TIP3    H139681   5.990   6.867   3.822
13246TIP3    H239682   6.060   6.848   3.690
13247TIP3   OH239683   6.694   1.808   6.698
13247TIP3    H139684   6.773   1.797   6.751
13247TIP3    H239685   6.714   1.881   6.640
13248TIP3   OH239686   8.153   3.036   0.830
13248TIP3    H139687   8.109   3.012   0.911
13248TIP3    H239688   8.244   3.050   0.855
13249TIP3   OH239689   7.208   5.306   4.795
13249TIP3    H139690   7.276   5.374   4.793
13249TIP3    H239691   7.221   5.262   4.879
13250TIP3   OH239692   7.336   5.909   5.527
13250TIP3    H139693   7.272   5.979   5.518
13250TIP3    H239694   7.315   5.847   5.457
13251TIP3   OH239695   5.902   7.233   1.854
13251TIP3    H139696   5.945   7.184   1.923
13251TIP3    H239697   5.855   7.303   1.899
13252TIP3   OH239698   6.873   1.374   4.965
13252TIP3    H139699   6.859   1.413   4.878
13252TIP3    H239700   6.879   1.449   5.024
13253TIP3   OH239701   2.293   3.246   3.603
13253TIP3    H139702   2.329   3.194   3.532
13253TIP3    H239703   2.234   3.187   3.649
13254TIP3   OH239704   5.442   4.541   5.360
13254TIP3    H139705   5.463   4.471   5.298
13254TIP3    H239706   5.359   4.576   5.329
13255TIP3   OH239707   6.299   3.556   5.137
13255TIP3    H139708   6.267   3.499   5.067
13255TIP3    H239709   6.368   3.608   5.096
13256TIP3   OH239710   1.574   1.112   1.498
13256TIP3    H139711   1.518   1.178   1.457
13256TIP3    H239712   1.546   1.111   1.590
13257TIP3   OH239713   4.526   4.499   0.549
13257TIP3    H139714   4.442   4.510   0.592
13257TIP3    H239715   4.524   4.410   0.515
13258TIP3   OH239716   2.490   0.700   4.891
13258TIP3    H139717   2.585   0.691   4.887
13258TIP3    H239718   2.470   0.773   4.832
13259TIP3   OH239719   1.801   5.868   6.045
13259TIP3    H139720   1.813   5.914   5.962
13259TIP3    H239721   1.807   5.937   6.111
13260TIP3   OH239722   2.255   2.664   2.823
13260TIP3    H139723   2.188   2.719   2.863
13260TIP3    H239724   2.208   2.614   2.756
13261TIP3   OH239725   1.233   2.285   1.059
13261TIP3    H139726   1.151   2.241   1.038
13261TIP3    H239727   1.232   2.364   1.004
13262TIP3   OH239728   1.972   5.745   3.870
13262TIP3    H139729   1.907   5.678   3.890
13262TIP3    H239730   1.929   5.828   3.893
13263TIP3   OH239731   4.969   5.744   5.136
13263TIP3    H139732   4.900   5.755   5.201
13263TIP3    H239733   5.046   5.718   5.187
13264TIP3   OH239734   7.174   0.826   1.374
13264TIP3    H139735   7.217   0.898   1.329
13264TIP3    H239736   7.143   0.864   1.457
13265TIP3   OH239737   6.057   2.359   4.268
13265TIP3    H139738   6.114   2.291   4.233
13265TIP3    H239739   6.116   2.417   4.317
13266TIP3   OH239740   0.875   4.814   2.058
13266TIP3    H139741   0.945   4.776   2.111
13266TIP3    H239742   0.800   4.820   2.117
13267TIP3   OH239743   8.018   7.849   1.831
13267TIP3    H139744   8.088   7.788   1.808
13267TIP3    H239745   7.997   7.827   1.922
13268TIP3   OH239746   3.099   2.028   2.605
13268TIP3    H139747   3.062   2.028   2.517
13268TIP3    H239748   3.194   2.018   2.591
13269TIP3   OH239749   4.659   0.230   3.678
13269TIP3    H139750   4.608   0.155   3.649
13269TIP3    H239751   4.596   0.288   3.721
13270TIP3   OH239752   7.094   2.243   3.726
13270TIP3    H139753   7.013   2.288   3.750
13270TIP3    H239754   7.153   2.314   3.698
13271TIP3   OH239755   6.252   7.195   4.971
13271TIP3    H139756   6.297   7.273   5.003
13271TIP3    H239757   6.176   7.229   4.924
13272TIP3   OH239758   7.062   4.046   2.426
13272TIP3    H139759   6.992   4.109   2.443
13272TIP3    H239760   7.088   4.015   2.513
13273TIP3   OH239761   7.121   4.504   5.273
13273TIP3    H139762   7.097   4.550   5.353
13273TIP3    H239763   7.209   4.470   5.290
13274TIP3   OH239764   2.639   5.209   0.062
13274TIP3    H139765   2.679   5.187  -0.022
13274TIP3    H239766   2.713   5.223   0.121
13275TIP3   OH239767   3.860   7.207   1.335
13275TIP3    H139768   3.798   7.271   1.303
13275TIP3    H239769   3.857   7.136   1.272
13276TIP3   OH239770   0.531   3.239   1.998
13276TIP3    H139771   0.543   3.285   2.080
13276TIP3    H239772   0.617   3.203   1.977
13277TIP3   OH239773   3.088   0.819   2.722
13277TIP3    H139774   3.134   0.899   2.696
13277TIP3    H239775   3.003   0.825   2.678
13278TIP3   OH239776   1.410   5.446   0.431
13278TIP3    H139777   1.407   5.445   0.336
13278TIP3    H239778   1.499   5.421   0.454
13279TIP3   OH239779   6.116   7.052   2.835
13279TIP3    H139780   6.036   7.054   2.888
13279TIP3    H239781   6.087   7.028   2.747
13280TIP3   OH239782   2.223   0.675   1.940
13280TIP3    H139783   2.318   0.675   1.942
13280TIP3    H239784   2.198   0.750   1.995
13281TIP3   OH239785   5.131   2.068   3.030
13281TIP3    H139786   5.160   2.158   3.013
13281TIP3    H239787   5.211   2.015   3.021
13282TIP3   OH239788   7.858   3.393   2.818
13282TIP3    H139789   7.925   3.361   2.758
13282TIP3    H239790   7.885   3.483   2.838
13283TIP3   OH239791   1.880   4.505   2.583
13283TIP3    H139792   1.808   4.547   2.535
13283TIP3    H239793   1.852   4.505   2.674
13284TIP3   OH239794   6.303   7.639   4.200
13284TIP3    H139795   6.346   7.600   4.276
13284TIP3    H239796   6.371   7.690   4.158
13285TIP3   OH239797   6.361   4.749   2.091
13285TIP3    H139798   6.306   4.691   2.144
13285TIP3    H239799   6.432   4.775   2.149
13286TIP3   OH239800   3.962   7.308   4.724
13286TIP3    H139801   3.968   7.214   4.710
13286TIP3    H239802   3.889   7.320   4.784
13287TIP3   OH239803   2.102   6.766   6.148
13287TIP3    H139804   2.127   6.678   6.177
13287TIP3    H239805   2.053   6.752   6.068
13288TIP3   OH239806   3.077   7.625   4.908
13288TIP3    H139807   3.016   7.679   4.959
13288TIP3    H239808   3.059   7.536   4.938
13289TIP3   OH239809   0.365   6.395   2.126
13289TIP3    H139810   0.343   6.336   2.054
13289TIP3    H239811   0.385   6.479   2.084
13290TIP3   OH239812   8.247   7.422   2.898
13290TIP3    H139813   8.199   7.486   2.951
13290TIP3    H239814   8.229   7.447   2.808
13291TIP3   OH239815   3.621   0.558   0.846
13291TIP3    H139816   3.572   0.528   0.922
13291TIP3    H239817   3.709   0.572   0.878
13292TIP3   OH239818   0.325   5.175   1.315
13292TIP3    H139819   0.283   5.218   1.390
13292TIP3    H239820   0.346   5.247   1.255
13293TIP3   OH239821   6.264   3.549   0.679
13293TIP3    H139822   6.185   3.508   0.714
13293TIP3    H239823   6.294   3.491   0.609
13294TIP3   OH239824   6.914   6.344   4.131
13294TIP3    H139825   6.856   6.419   4.148
13294TIP3    H239826   7.002   6.378   4.151
13295TIP3   OH239827   3.083   6.629   0.816
13295TIP3    H139828   3.001   6.673   0.793
13295TIP3    H239829   3.116   6.593   0.734
13296TIP3   OH239830   0.844   7.037   1.502
13296TIP3    H139831   0.899   7.113   1.485
13296TIP3    H239832   0.777   7.041   1.434
13297TIP3   OH239833   0.509   1.039   6.691
13297TIP3    H139834   0.526   0.996   6.775
13297TIP3    H239835   0.526   1.132   6.708
13298TIP3   OH239836   3.877   7.533   5.436
13298TIP3    H139837   3.844   7.458   5.386
13298TIP3    H239838   3.804   7.594   5.437
13299TIP3   OH239839   2.757   0.558   5.218
13299TIP3    H139840   2.835   0.522   5.175
13299TIP3    H239841   2.777   0.552   5.312
13300TIP3   OH239842   4.105   4.345   5.915
13300TIP3    H139843   4.167   4.325   5.985
13300TIP3    H239844   4.030   4.383   5.959
13301TIP3   OH239845   1.399   0.238   4.596
13301TIP3    H139846   1.377   0.256   4.687
13301TIP3    H239847   1.488   0.272   4.585
13302TIP3   OH239848   5.031   1.035   0.077
13302TIP3    H139849   5.070   1.119   0.056
13302TIP3    H239850   4.978   1.014   0.000
13303TIP3   OH239851   7.585   3.405   2.638
13303TIP3    H139852   7.612   3.496   2.634
13303TIP3    H239853   7.660   3.359   2.674
13304TIP3   OH239854   8.074   5.362   2.714
13304TIP3    H139855   8.169   5.364   2.701
13304TIP3    H239856   8.037   5.367   2.626
13305TIP3   OH239857   1.575   0.887   1.325
13305TIP3    H139858   1.577   0.976   1.361
13305TIP3    H239859   1.483   0.861   1.328
13306TIP3   OH239860   1.327   4.442   4.427
13306TIP3    H139861   1.386   4.466   4.498
13306TIP3    H239862   1.242   4.426   4.470
13307TIP3   OH239863   1.113   3.184   1.876
13307TIP3    H139864   1.062   3.103   1.884
13307TIP3    H239865   1.169   3.184   1.953
13308TIP3   OH239866   3.745   3.102   0.761
13308TIP3    H139867   3.826   3.151   0.775
13308TIP3    H239868   3.701   3.150   0.691
13309TIP3   OH239869   8.135   0.896   4.375
13309TIP3    H139870   8.100   0.875   4.289
13309TIP3    H239871   8.167   0.985   4.367
13310TIP3   OH239872   1.953   3.388   4.162
13310TIP3    H139873   1.925   3.318   4.103
13310TIP3    H239874   1.877   3.446   4.167
13311TIP3   OH239875   6.170   5.973   6.039
13311TIP3    H139876   6.148   5.944   5.951
13311TIP3    H239877   6.090   6.014   6.071
13312TIP3   OH239878   0.106   3.597   5.132
13312TIP3    H139879   0.039   3.531   5.152
13312TIP3    H239880   0.061   3.681   5.145
13313TIP3   OH239881   8.251   4.976   3.744
13313TIP3    H139882   8.225   4.989   3.653
13313TIP3    H239883   8.346   4.966   3.741
13314TIP3   OH239884   0.942   3.686   6.448
13314TIP3    H139885   0.874   3.637   6.402
13314TIP3    H239886   0.899   3.714   6.529
13315TIP3   OH239887   6.463   7.145   5.246
13315TIP3    H139888   6.382   7.115   5.287
13315TIP3    H239889   6.442   7.149   5.153
13316TIP3   OH239890   2.579   4.016   5.773
13316TIP3    H139891   2.631   4.056   5.703
13316TIP3    H239892   2.519   3.958   5.728
13317TIP3   OH239893   6.366   3.358   2.501
13317TIP3    H139894   6.436   3.422   2.490
13317TIP3    H239895   6.398   3.279   2.457
13318TIP3   OH239896   7.204   3.319   2.900
13318TIP3    H139897   7.196   3.381   2.972
13318TIP3    H239898   7.243   3.241   2.939
13319TIP3   OH239899   2.128   0.874   6.699
13319TIP3    H139900   2.127   0.962   6.737
13319TIP3    H239901   2.044   0.866   6.655
13320TIP3   OH239902   5.204   6.017   3.750
13320TIP3    H139903   5.274   6.005   3.687
13320TIP3    H239904   5.243   6.068   3.821
13321TIP3   OH239905   5.701   6.343   2.723
13321TIP3    H139906   5.742   6.386   2.798
13321TIP3    H239907   5.622   6.394   2.707
13322TIP3   OH239908   2.214   6.517   1.796
13322TIP3    H139909   2.120   6.514   1.815
13322TIP3    H239910   2.235   6.428   1.766
13323TIP3   OH239911   5.140   7.640   1.894
13323TIP3    H139912   5.158   7.550   1.868
13323TIP3    H239913   5.049   7.654   1.870
13324TIP3   OH239914   4.939   7.229   5.182
13324TIP3    H139915   4.907   7.282   5.256
13324TIP3    H239916   5.025   7.199   5.210
13325TIP3   OH239917   2.904   7.334   4.419
13325TIP3    H139918   2.973   7.349   4.354
13325TIP3    H239919   2.927   7.391   4.492
13326TIP3   OH239920   0.719   7.535   2.449
13326TIP3    H139921   0.641   7.579   2.485
13326TIP3    H239922   0.701   7.442   2.459
13327TIP3   OH239923   2.316   6.379   5.980
13327TIP3    H139924   2.287   6.432   5.905
13327TIP3    H239925   2.236   6.364   6.030
13328TIP3   OH239926   0.606   1.423   0.181
13328TIP3    H139927   0.594   1.334   0.148
13328TIP3    H239928   0.547   1.429   0.256
13329TIP3   OH239929   6.640   2.996   0.280
13329TIP3    H139930   6.574   3.062   0.259
13329TIP3    H239931   6.713   3.045   0.317
13330TIP3   OH239932   7.677   7.000   4.696
13330TIP3    H139933   7.718   7.006   4.782
13330TIP3    H239934   7.749   7.012   4.634
13331TIP3   OH239935   3.005   4.867   0.941
13331TIP3    H139936   3.016   4.848   0.848
13331TIP3    H239937   2.913   4.846   0.959
13332TIP3   OH239938   0.628   0.869   3.946
13332TIP3    H139939   0.707   0.832   3.987
13332TIP3    H239940   0.617   0.817   3.867
13333TIP3   OH239941   2.548   5.743   4.239
13333TIP3    H139942   2.459   5.773   4.220
13333TIP3    H239943   2.604   5.804   4.189
13334TIP3   OH239944   2.762   1.952   4.134
13334TIP3    H139945   2.727   1.897   4.204
13334TIP3    H239946   2.770   2.039   4.173
13335TIP3   OH239947   1.160   4.656   0.612
13335TIP3    H139948   1.076   4.698   0.628
13335TIP3    H239949   1.211   4.723   0.566
13336TIP3   OH239950   5.612   1.872   6.484
13336TIP3    H139951   5.590   1.808   6.552
13336TIP3    H239952   5.627   1.819   6.406
13337TIP3   OH239953   6.386   3.066   4.282
13337TIP3    H139954   6.384   2.972   4.297
13337TIP3    H239955   6.475   3.084   4.251
13338TIP3   OH239956   4.466   2.836   2.087
13338TIP3    H139957   4.371   2.839   2.084
13338TIP3    H239958   4.489   2.873   2.173
13339TIP3   OH239959   5.014   6.746   5.702
13339TIP3    H139960   4.983   6.732   5.612
13339TIP3    H239961   5.051   6.834   5.701
13340TIP3   OH239962   4.104   5.182   1.779
13340TIP3    H139963   4.015   5.215   1.765
13340TIP3    H239964   4.108   5.100   1.730
13341TIP3   OH239965   6.107   7.811   1.336
13341TIP3    H139966   6.128   7.778   1.424
13341TIP3    H239967   6.080   7.733   1.288
13342TIP3   OH239968   4.952   5.590   2.723
13342TIP3    H139969   4.952   5.599   2.628
13342TIP3    H239970   5.031   5.540   2.743
13343TIP3   OH239971   2.715   4.077   5.518
13343TIP3    H139972   2.663   4.152   5.546
13343TIP3    H239973   2.656   4.025   5.463
13344TIP3   OH239974   5.953   1.288   1.564
13344TIP3    H139975   6.013   1.233   1.615
13344TIP3    H239976   5.898   1.330   1.630
13345TIP3   OH239977   7.656   0.518   2.904
13345TIP3    H139978   7.572   0.474   2.916
13345TIP3    H239979   7.676   0.507   2.811
13346TIP3   OH239980   2.461   4.654   3.335
13346TIP3    H139981   2.394   4.700   3.284
13346TIP3    H239982   2.487   4.716   3.402
13347TIP3   OH239983   6.579   3.616   1.814
13347TIP3    H139984   6.635   3.647   1.742
13347TIP3    H239985   6.536   3.695   1.847
13348TIP3   OH239986   0.750   1.420   1.236
13348TIP3    H139987   0.794   1.447   1.155
13348TIP3    H239988   0.733   1.327   1.224
13349TIP3   OH239989   3.682   0.398   1.204
13349TIP3    H139990   3.602   0.422   1.157
13349TIP3    H239991   3.695   0.305   1.182
13350TIP3   OH239992   3.881   5.086   5.399
13350TIP3    H139993   3.878   5.181   5.410
13350TIP3    H239994   3.946   5.056   5.463
13351TIP3   OH239995   3.557   3.068   3.231
13351TIP3    H139996   3.536   3.162   3.229
13351TIP3    H239997   3.541   3.042   3.321
13352TIP3   OH239998   0.489   6.039   1.376
13352TIP3    H139999   0.537   6.013   1.297
13352TIP3    H240000   0.409   5.987   1.373
13353TIP3   OH240001   7.477   0.097   1.769
13353TIP3    H140002   7.420   0.107   1.845
13353TIP3    H240003   7.466   0.177   1.719
13354TIP3   OH240004   4.826   5.177   6.453
13354TIP3    H140005   4.899   5.115   6.462
13354TIP3    H240006   4.868   5.262   6.444
13355TIP3   OH240007   7.243   3.998   3.356
13355TIP3    H140008   7.179   3.946   3.307
13355TIP3    H240009   7.269   4.066   3.294
13356TIP3   OH240010   4.027   6.028   1.222
13356TIP3    H140011   4.064   5.941   1.205
13356TIP3    H240012   3.948   6.010   1.273
13357TIP3   OH240013   3.580   6.446   4.880
13357TIP3    H140014   3.573   6.510   4.951
13357TIP3    H240015   3.529   6.486   4.809
13358TIP3   OH240016   0.436   4.115   6.665
13358TIP3    H140017   0.361   4.058   6.650
13358TIP3    H240018   0.495   4.098   6.592
13359TIP3   OH240019   2.989   3.722   3.795
13359TIP3    H140020   2.917   3.711   3.733
13359TIP3    H240021   2.968   3.662   3.867
13360TIP3   OH240022   3.202   7.565   1.641
13360TIP3    H140023   3.161   7.615   1.712
13360TIP3    H240024   3.144   7.579   1.566
13361TIP3   OH240025   1.835   7.266   1.913
13361TIP3    H140026   1.742   7.281   1.930
13361TIP3    H240027   1.872   7.354   1.903
13362TIP3   OH240028   3.096   5.580   1.632
13362TIP3    H140029   3.057   5.571   1.545
13362TIP3    H240030   3.073   5.499   1.677
13363TIP3   OH240031   1.327   1.700   6.220
13363TIP3    H140032   1.258   1.755   6.184
13363TIP3    H240033   1.389   1.762   6.259
13364TIP3   OH240034   6.704   4.154   3.494
13364TIP3    H140035   6.711   4.117   3.407
13364TIP3    H240036   6.683   4.247   3.479
13365TIP3   OH240037   6.873   1.675   5.006
13365TIP3    H140038   6.782   1.658   4.981
13365TIP3    H240039   6.872   1.765   5.038
13366TIP3   OH240040   1.294   0.818   3.376
13366TIP3    H140041   1.251   0.869   3.444
13366TIP3    H240042   1.372   0.869   3.353
13367TIP3   OH240043   1.409   5.015   1.504
13367TIP3    H140044   1.367   5.081   1.449
13367TIP3    H240045   1.390   5.043   1.593
13368TIP3   OH240046   2.257   6.408   2.056
13368TIP3    H140047   2.313   6.464   2.003
13368TIP3    H240048   2.186   6.465   2.085
13369TIP3   OH240049   4.238   0.445   5.587
13369TIP3    H140050   4.151   0.421   5.619
13369TIP3    H240051   4.298   0.412   5.654
13370TIP3   OH240052   5.395   6.187   2.860
13370TIP3    H140053   5.464   6.123   2.879
13370TIP3    H240054   5.340   6.187   2.938
13371TIP3   OH240055   4.172   1.918   6.388
13371TIP3    H140056   4.121   1.899   6.467
13371TIP3    H240057   4.250   1.963   6.420
13372TIP3   OH240058   3.082   4.899   4.723
13372TIP3    H140059   3.134   4.882   4.645
13372TIP3    H240060   3.144   4.896   4.795
13373TIP3   OH240061   3.963   7.691   6.762
13373TIP3    H140062   4.000   7.610   6.797
13373TIP3    H240063   3.873   7.667   6.739
13374TIP3   OH240064   6.697   2.585   5.933
13374TIP3    H140065   6.789   2.558   5.931
13374TIP3    H240066   6.679   2.601   6.026
13375TIP3   OH240067   5.657   5.588   0.403
13375TIP3    H140068   5.595   5.547   0.344
13375TIP3    H240069   5.671   5.676   0.367
13376TIP3   OH240070   1.224   4.093   0.696
13376TIP3    H140071   1.246   4.179   0.732
13376TIP3    H240072   1.291   4.034   0.730
13377TIP3   OH240073   6.956   6.935   2.271
13377TIP3    H140074   6.864   6.925   2.295
13377TIP3    H240075   6.988   7.006   2.328
13378TIP3   OH240076   6.301   4.101   0.480
13378TIP3    H140077   6.383   4.068   0.517
13378TIP3    H240078   6.250   4.023   0.460
13379TIP3   OH240079   7.077   1.065   2.713
13379TIP3    H140080   7.087   1.151   2.674
13379TIP3    H240081   7.164   1.044   2.747
13380TIP3   OH240082   1.903   5.770   5.612
13380TIP3    H140083   1.854   5.744   5.533
13380TIP3    H240084   1.989   5.796   5.579
13381TIP3   OH240085   1.596   1.256   5.689
13381TIP3    H140086   1.590   1.187   5.756
13381TIP3    H240087   1.509   1.260   5.650
13382TIP3   OH240088   5.372   5.932   0.149
13382TIP3    H140089   5.282   5.952   0.122
13382TIP3    H240090   5.361   5.884   0.231
13383TIP3   OH240091   4.880   2.192   3.215
13383TIP3    H140092   4.966   2.157   3.236
13383TIP3    H240093   4.818   2.129   3.253
13384TIP3   OH240094   3.195   4.571   5.111
13384TIP3    H140095   3.168   4.479   5.117
13384TIP3    H240096   3.178   4.606   5.199
13385TIP3   OH240097   7.809   3.654   4.393
13385TIP3    H140098   7.715   3.646   4.404
13385TIP3    H240099   7.826   3.748   4.405
13386TIP3   OH240100   5.176   1.696   5.408
13386TIP3    H140101   5.242   1.715   5.474
13386TIP3    H240102   5.093   1.714   5.452
13387TIP3   OH240103   4.862   3.156   5.368
13387TIP3    H140104   4.938   3.173   5.423
13387TIP3    H240105   4.884   3.197   5.284
13388TIP3   OH240106   3.674   3.046   3.544
13388TIP3    H140107   3.736   3.119   3.538
13388TIP3    H240108   3.591   3.083   3.514
13389TIP3   OH240109   7.502   3.762   6.017
13389TIP3    H140110   7.546   3.812   6.086
13389TIP3    H240111   7.488   3.676   6.056
13390TIP3   OH240112   4.987   4.998   4.493
13390TIP3    H140113   4.978   5.048   4.412
13390TIP3    H240114   5.080   5.001   4.512
13391TIP3   OH240115   5.716   7.150   4.360
13391TIP3    H140116   5.710   7.237   4.320
13391TIP3    H240117   5.628   7.113   4.350
13392TIP3   OH240118   1.851   3.136   6.114
13392TIP3    H140119   1.771   3.086   6.101
13392TIP3    H240120   1.918   3.070   6.133
13393TIP3   OH240121   0.385   2.705   3.936
13393TIP3    H140122   0.378   2.623   3.886
13393TIP3    H240123   0.394   2.677   4.027
13394TIP3   OH240124   8.011   4.899   5.477
13394TIP3    H140125   7.977   4.982   5.510
13394TIP3    H240126   8.064   4.923   5.401
13395TIP3   OH240127   2.853   4.185   0.792
13395TIP3    H140128   2.863   4.274   0.757
13395TIP3    H240129   2.894   4.188   0.878
13396TIP3   OH240130   1.651   6.740   6.761
13396TIP3    H140131   1.740   6.772   6.777
13396TIP3    H240132   1.658   6.687   6.681
13397TIP3   OH240133   5.859   5.227   0.342
13397TIP3    H140134   5.873   5.185   0.257
13397TIP3    H240135   5.898   5.166   0.405
13398TIP3   OH240136   5.278   7.341   2.854
13398TIP3    H140137   5.336   7.265   2.848
13398TIP3    H240138   5.190   7.303   2.855
13399TIP3   OH240139   7.526   2.015   0.383
13399TIP3    H140140   7.588   2.059   0.441
13399TIP3    H240141   7.440   2.033   0.421
13400TIP3   OH240142   0.580   2.819   4.962
13400TIP3    H140143   0.673   2.843   4.963
13400TIP3    H240144   0.539   2.883   4.904
13401TIP3   OH240145   8.281   1.946   1.367
13401TIP3    H140146   8.351   1.962   1.305
13401TIP3    H240147   8.212   2.009   1.343
13402TIP3   OH240148   4.846   3.766   2.748
13402TIP3    H140149   4.918   3.761   2.685
13402TIP3    H240150   4.818   3.675   2.760
13403TIP3   OH240151   3.321   3.709   3.344
13403TIP3    H140152   3.381   3.704   3.269
13403TIP3    H240153   3.350   3.786   3.392
13404TIP3   OH240154   2.855   0.791   2.594
13404TIP3    H140155   2.769   0.833   2.583
13404TIP3    H240156   2.891   0.786   2.506
13405TIP3   OH240157   3.004   1.778   1.272
13405TIP3    H140158   2.964   1.695   1.247
13405TIP3    H240159   3.026   1.768   1.365
13406TIP3   OH240160   7.232   2.911   0.734
13406TIP3    H140161   7.154   2.966   0.745
13406TIP3    H240162   7.219   2.868   0.649
13407TIP3   OH240163   0.095   4.451   5.988
13407TIP3    H140164   0.037   4.518   6.025
13407TIP3    H240165   0.039   4.404   5.926
13408TIP3   OH240166   6.117   0.128   1.708
13408TIP3    H140167   6.201   0.149   1.667
13408TIP3    H240168   6.051   0.157   1.645
13409TIP3   OH240169   7.341   3.394   1.438
13409TIP3    H140170   7.391   3.312   1.442
13409TIP3    H240171   7.326   3.418   1.529
13410TIP3   OH240172   2.690   2.895   4.278
13410TIP3    H140173   2.772   2.944   4.270
13410TIP3    H240174   2.715   2.804   4.262
13411TIP3   OH240175   6.759   7.168   4.209
13411TIP3    H140176   6.749   7.251   4.255
13411TIP3    H240177   6.783   7.105   4.277
13412TIP3   OH240178   7.071   5.811   6.521
13412TIP3    H140179   7.052   5.717   6.532
13412TIP3    H240180   7.163   5.814   6.496
13413TIP3   OH240181   0.449   1.201   5.572
13413TIP3    H140182   0.413   1.185   5.485
13413TIP3    H240183   0.417   1.129   5.625
13414TIP3   OH240184   6.711   5.030   3.738
13414TIP3    H140185   6.669   5.026   3.653
13414TIP3    H240186   6.646   4.997   3.800
13415TIP3   OH240187   4.528   6.210   2.397
13415TIP3    H140188   4.463   6.146   2.427
13415TIP3    H240189   4.475   6.283   2.364
13416TIP3   OH240190   5.054   5.930   1.521
13416TIP3    H140191   5.057   5.860   1.455
13416TIP3    H240192   5.085   5.888   1.601
13417TIP3   OH240193   2.492   5.327   0.933
13417TIP3    H140194   2.503   5.375   1.015
13417TIP3    H240195   2.426   5.261   0.952
13418TIP3   OH240196   3.851   1.736   3.939
13418TIP3    H140197   3.787   1.685   3.988
13418TIP3    H240198   3.801   1.813   3.909
13419TIP3   OH240199   1.724   2.304   4.221
13419TIP3    H140200   1.674   2.290   4.140
13419TIP3    H240201   1.669   2.363   4.273
13420TIP3   OH240202   5.791   4.746   3.333
13420TIP3    H140203   5.736   4.684   3.382
13420TIP3    H240204   5.752   4.748   3.246
13421TIP3   OH240205   0.408   2.906   4.597
13421TIP3    H140206   0.500   2.914   4.624
13421TIP3    H240207   0.377   2.996   4.591
13422TIP3   OH240208   1.118   3.393   3.650
13422TIP3    H140209   1.177   3.440   3.708
13422TIP3    H240210   1.033   3.397   3.694
13423TIP3   OH240211   6.304   1.580   5.135
13423TIP3    H140212   6.356   1.565   5.214
13423TIP3    H240213   6.217   1.547   5.157
13424TIP3   OH240214   2.822   2.913   3.084
13424TIP3    H140215   2.887   2.871   3.027
13424TIP3    H240216   2.839   2.876   3.171
13425TIP3   OH240217   0.468   7.385   1.343
13425TIP3    H140218   0.405   7.456   1.335
13425TIP3    H240219   0.415   7.307   1.360
13426TIP3   OH240220   1.739   2.321   5.646
13426TIP3    H140221   1.688   2.329   5.726
13426TIP3    H240222   1.828   2.346   5.671
13427TIP3   OH240223   2.512   6.795   0.274
13427TIP3    H140224   2.526   6.803   0.180
13427TIP3    H240225   2.561   6.868   0.312
13428TIP3   OH240226   3.366   1.744   5.659
13428TIP3    H140227   3.437   1.704   5.709
13428TIP3    H240228   3.405   1.766   5.574
13429TIP3   OH240229   7.227   6.681   3.242
13429TIP3    H140230   7.172   6.614   3.283
13429TIP3    H240231   7.268   6.637   3.168
13430TIP3   OH240232   3.969   7.026   4.693
13430TIP3    H140233   4.009   7.001   4.776
13430TIP3    H240234   3.913   6.952   4.669
13431TIP3   OH240235   6.696   7.379   5.620
13431TIP3    H140236   6.735   7.465   5.606
13431TIP3    H240237   6.650   7.359   5.538
13432TIP3   OH240238   8.109   2.635   3.267
13432TIP3    H140239   8.145   2.627   3.179
13432TIP3    H240240   8.160   2.572   3.319
13433TIP3   OH240241   7.876   3.919   4.464
13433TIP3    H140242   7.860   4.013   4.461
13433TIP3    H240243   7.964   3.911   4.503
13434TIP3   OH240244   7.686   1.581   2.742
13434TIP3    H140245   7.690   1.512   2.809
13434TIP3    H240246   7.596   1.579   2.710
13435TIP3   OH240247   3.707   7.561   0.131
13435TIP3    H140248   3.716   7.507   0.209
13435TIP3    H240249   3.623   7.536   0.093
13436TIP3   OH240250   2.110   2.659   3.185
13436TIP3    H140251   2.205   2.670   3.177
13436TIP3    H240252   2.097   2.564   3.189
13437TIP3   OH240253   4.832   6.831   2.447
13437TIP3    H140254   4.738   6.844   2.460
13437TIP3    H240255   4.873   6.910   2.484
13438TIP3   OH240256   6.268   6.371   5.412
13438TIP3    H140257   6.270   6.427   5.489
13438TIP3    H240258   6.360   6.356   5.390
13439TIP3   OH240259   2.793   4.630   3.003
13439TIP3    H140260   2.755   4.718   2.995
13439TIP3    H240261   2.741   4.587   3.070
13440TIP3   OH240262   7.404   7.844   2.220
13440TIP3    H140263   7.319   7.828   2.179
13440TIP3    H240264   7.407   7.786   2.296
13441TIP3   OH240265   4.076   4.064   3.965
13441TIP3    H140266   4.047   3.981   4.002
13441TIP3    H240267   4.005   4.125   3.985
13442TIP3   OH240268   6.321   4.891   1.335
13442TIP3    H140269   6.296   4.806   1.298
13442TIP3    H240270   6.330   4.949   1.258
13443TIP3   OH240271   4.588   2.746   4.699
13443TIP3    H140272   4.600   2.652   4.693
13443TIP3    H240273   4.518   2.766   4.637
13444TIP3   OH240274   0.350   7.336   0.274
13444TIP3    H140275   0.305   7.398   0.330
13444TIP3    H240276   0.362   7.258   0.328
13445TIP3   OH240277   4.898   2.848   5.904
13445TIP3    H140278   4.862   2.760   5.913
13445TIP3    H240279   4.909   2.879   5.995
13446TIP3   OH240280   7.468   2.315   4.694
13446TIP3    H140281   7.431   2.260   4.763
13446TIP3    H240282   7.562   2.297   4.697
13447TIP3   OH240283   6.282   2.422   3.310
13447TIP3    H140284   6.254   2.475   3.235
13447TIP3    H240285   6.201   2.383   3.344
13448TIP3   OH240286   4.081   5.541   4.458
13448TIP3    H140287   3.987   5.526   4.454
13448TIP3    H240288   4.093   5.602   4.531
13449TIP3   OH240289   5.947   3.409   1.619
13449TIP3    H140290   6.041   3.423   1.634
13449TIP3    H240291   5.935   3.314   1.630
13450TIP3   OH240292   2.053   6.865   3.418
13450TIP3    H140293   2.027   6.926   3.488
13450TIP3    H240294   2.148   6.860   3.424
13451TIP3   OH240295   6.017   6.110   1.560
13451TIP3    H140296   6.041   6.201   1.549
13451TIP3    H240297   6.085   6.061   1.513
13452TIP3   OH240298   2.738   3.456   3.291
13452TIP3    H140299   2.684   3.457   3.371
13452TIP3    H240300   2.802   3.386   3.306
13453TIP3   OH240301   3.790   7.606   2.450
13453TIP3    H140302   3.757   7.658   2.523
13453TIP3    H240303   3.886   7.616   2.455
13454TIP3   OH240304   7.958   3.455   0.746
13454TIP3    H140305   7.893   3.438   0.678
13454TIP3    H240306   7.948   3.548   0.766
13455TIP3   OH240307   0.395   2.294   4.424
13455TIP3    H140308   0.459   2.228   4.398
13455TIP3    H240309   0.446   2.375   4.431
13456TIP3   OH240310   1.143   4.412   0.528
13456TIP3    H140311   1.061   4.379   0.565
13456TIP3    H240312   1.145   4.505   0.553
13457TIP3   OH240313   2.561   3.266   0.803
13457TIP3    H140314   2.524   3.220   0.727
13457TIP3    H240315   2.491   3.325   0.831
13458TIP3   OH240316   6.370   4.116   3.521
13458TIP3    H140317   6.281   4.142   3.546
13458TIP3    H240318   6.418   4.112   3.603
13459TIP3   OH240319   8.102   5.396   5.240
13459TIP3    H140320   8.191   5.391   5.207
13459TIP3    H240321   8.050   5.343   5.179
13460TIP3   OH240322   4.704   4.811   6.403
13460TIP3    H140323   4.746   4.728   6.423
13460TIP3    H240324   4.638   4.789   6.337
13461TIP3   OH240325   0.403   5.200   4.097
13461TIP3    H140326   0.466   5.129   4.082
13461TIP3    H240327   0.318   5.157   4.090
13462TIP3   OH240328   7.579   4.558   4.061
13462TIP3    H140329   7.531   4.476   4.076
13462TIP3    H240330   7.511   4.623   4.044
13463TIP3   OH240331   3.825   6.128   0.759
13463TIP3    H140332   3.905   6.137   0.812
13463TIP3    H240333   3.842   6.181   0.681
13464TIP3   OH240334   8.295   3.052   3.344
13464TIP3    H140335   8.254   3.035   3.430
13464TIP3    H240336   8.312   3.146   3.344
13465TIP3   OH240337   7.091   1.381   6.525
13465TIP3    H140338   7.182   1.395   6.551
13465TIP3    H240339   7.050   1.467   6.532
13466TIP3   OH240340   1.673   6.089   5.199
13466TIP3    H140341   1.711   6.006   5.171
13466TIP3    H240342   1.650   6.133   5.117
13467TIP3   OH240343   6.227   7.187   1.442
13467TIP3    H140344   6.272   7.160   1.362
13467TIP3    H240345   6.206   7.105   1.487
13468TIP3   OH240346   0.233   5.784   4.712
13468TIP3    H140347   0.284   5.801   4.633
13468TIP3    H240348   0.298   5.750   4.775
13469TIP3   OH240349   1.421   2.135   0.778
13469TIP3    H140350   1.393   2.168   0.864
13469TIP3    H240351   1.357   2.174   0.717
13470TIP3   OH240352   1.955   0.751   3.610
13470TIP3    H140353   1.969   0.758   3.705
13470TIP3    H240354   2.038   0.720   3.576
13471TIP3   OH240355   2.630   7.338   4.367
13471TIP3    H140356   2.603   7.420   4.326
13471TIP3    H240357   2.725   7.344   4.372
13472TIP3   OH240358   4.072   0.342   6.557
13472TIP3    H140359   4.107   0.409   6.498
13472TIP3    H240360   4.095   0.259   6.515
13473TIP3   OH240361   4.806   1.253   1.403
13473TIP3    H140362   4.822   1.334   1.453
13473TIP3    H240363   4.725   1.218   1.440
13474TIP3   OH240364   0.209   4.205   6.068
13474TIP3    H140365   0.134   4.191   6.125
13474TIP3    H240366   0.197   4.293   6.033
13475TIP3   OH240367   5.931   6.434   2.274
13475TIP3    H140368   5.895   6.386   2.200
13475TIP3    H240369   5.862   6.495   2.299
13476TIP3   OH240370   1.529   3.714   3.161
13476TIP3    H140371   1.438   3.714   3.190
13476TIP3    H240372   1.577   3.674   3.233
13477TIP3   OH240373   7.342   6.511   5.388
13477TIP3    H140374   7.354   6.606   5.379
13477TIP3    H240375   7.247   6.500   5.397
13478TIP3   OH240376   3.722   4.009   5.388
13478TIP3    H140377   3.692   4.028   5.477
13478TIP3    H240378   3.724   3.913   5.384
13479TIP3   OH240379   8.173   3.682   0.927
13479TIP3    H140380   8.191   3.707   0.836
13479TIP3    H240381   8.110   3.747   0.958
13480TIP3   OH240382   0.190   2.552   5.394
13480TIP3    H140383   0.226   2.548   5.305
13480TIP3    H240384   0.096   2.553   5.381
13481TIP3   OH240385   5.962   6.135   0.658
13481TIP3    H140386   6.042   6.114   0.611
13481TIP3    H240387   5.990   6.194   0.728
13482TIP3   OH240388   0.517   1.875   5.888
13482TIP3    H140389   0.458   1.936   5.843
13482TIP3    H240390   0.557   1.824   5.818
13483TIP3   OH240391   1.675   3.850   1.242
13483TIP3    H140392   1.726   3.882   1.168
13483TIP3    H240393   1.739   3.834   1.311
13484TIP3   OH240394   3.033   4.097   5.425
13484TIP3    H140395   3.008   4.144   5.346
13484TIP3    H240396   2.979   4.137   5.494
13485TIP3   OH240397   7.161   1.638   1.337
13485TIP3    H140398   7.184   1.714   1.283
13485TIP3    H240399   7.091   1.594   1.289
13486TIP3   OH240400   0.706   3.847   6.591
13486TIP3    H140401   0.776   3.876   6.650
13486TIP3    H240402   0.702   3.914   6.524
13487TIP3   OH240403   4.232   5.546   0.614
13487TIP3    H140404   4.266   5.504   0.535
13487TIP3    H240405   4.181   5.478   0.658
13488TIP3   OH240406   5.266   2.780   5.515
13488TIP3    H140407   5.329   2.779   5.587
13488TIP3    H240408   5.204   2.849   5.538
13489TIP3   OH240409   1.388   3.628   0.506
13489TIP3    H140410   1.413   3.716   0.532
13489TIP3    H240411   1.370   3.583   0.589
13490TIP3   OH240412   3.092   0.862   3.451
13490TIP3    H140413   3.040   0.924   3.502
13490TIP3    H240414   3.121   0.913   3.375
13491TIP3   OH240415   5.661   2.543   1.194
13491TIP3    H140416   5.607   2.622   1.198
13491TIP3    H240417   5.714   2.555   1.116
13492TIP3   OH240418   7.017   4.541   6.696
13492TIP3    H140419   6.966   4.606   6.648
13492TIP3    H240420   7.097   4.529   6.645
13493TIP3   OH240421   0.489   0.477   4.238
13493TIP3    H140422   0.493   0.381   4.238
13493TIP3    H240423   0.533   0.502   4.156
13494TIP3   OH240424   3.332   4.628   4.882
13494TIP3    H140425   3.282   4.604   4.960
13494TIP3    H240426   3.386   4.552   4.863
13495TIP3   OH240427   3.368   3.489   1.193
13495TIP3    H140428   3.337   3.426   1.129
13495TIP3    H240429   3.340   3.574   1.159
13496TIP3   OH240430   5.400   3.949   1.166
13496TIP3    H140431   5.401   4.036   1.127
13496TIP3    H240432   5.486   3.913   1.147
13497TIP3   OH240433   2.550   5.331   0.446
13497TIP3    H140434   2.562   5.422   0.475
13497TIP3    H240435   2.638   5.301   0.424
13498TIP3   OH240436   6.896   7.737   3.748
13498TIP3    H140437   6.931   7.793   3.679
13498TIP3    H240438   6.907   7.787   3.829
13499TIP3   OH240439   0.845   5.895   3.643
13499TIP3    H140440   0.906   5.927   3.577
13499TIP3    H240441   0.893   5.825   3.688
13500TIP3   OH240442   1.175   7.855   1.255
13500TIP3    H140443   1.169   7.783   1.318
13500TIP3    H240444   1.236   7.823   1.187
13501TIP3   OH240445   5.064   0.726   4.383
13501TIP3    H140446   5.124   0.751   4.454
13501TIP3    H240447   5.003   0.799   4.376
13502TIP3   OH240448   7.105   2.310   2.799
13502TIP3    H140449   7.165   2.236   2.789
13502TIP3    H240450   7.153   2.373   2.853
13503TIP3   OH240451   2.031   3.196   3.982
13503TIP3    H140452   2.111   3.247   3.972
13503TIP3    H240453   2.015   3.159   3.896
13504TIP3   OH240454   7.862   5.421   0.737
13504TIP3    H140455   7.793   5.485   0.753
13504TIP3    H240456   7.893   5.441   0.649
13505TIP3   OH240457   2.216   2.459   2.626
13505TIP3    H140458   2.276   2.476   2.554
13505TIP3    H240459   2.132   2.443   2.585
13506TIP3   OH240460   2.788   3.898   3.099
13506TIP3    H140461   2.830   3.863   3.178
13506TIP3    H240462   2.708   3.939   3.131
13507TIP3   OH240463   1.972   1.521   1.309
13507TIP3    H140464   2.037   1.460   1.345
13507TIP3    H240465   1.920   1.468   1.249
13508TIP3   OH240466   1.638   1.682   4.093
13508TIP3    H140467   1.661   1.590   4.109
13508TIP3    H240468   1.685   1.704   4.012
13509TIP3   OH240469   8.249   7.657   5.414
13509TIP3    H140470   8.211   7.570   5.402
13509TIP3    H240471   8.173   7.715   5.419
13510TIP3   OH240472   1.714   0.726   3.429
13510TIP3    H140473   1.711   0.638   3.466
13510TIP3    H240474   1.792   0.766   3.466
13511TIP3   OH240475   6.451   1.898   3.350
13511TIP3    H140476   6.385   1.833   3.374
13511TIP3    H240477   6.407   1.953   3.286
13512TIP3   OH240478   4.077   0.138   6.196
13512TIP3    H140479   4.116   0.054   6.168
13512TIP3    H240480   4.082   0.136   6.291
13513TIP3   OH240481   4.371   5.529   6.623
13513TIP3    H140482   4.445   5.583   6.651
13513TIP3    H240483   4.359   5.466   6.694
13514TIP3   OH240484   3.664   5.858   1.181
13514TIP3    H140485   3.621   5.778   1.150
13514TIP3    H240486   3.669   5.913   1.103
13515TIP3   OH240487   4.788   7.007   2.941
13515TIP3    H140488   4.727   6.942   2.976
13515TIP3    H240489   4.739   7.050   2.871
13516TIP3   OH240490   2.869   2.775   0.731
13516TIP3    H140491   2.901   2.787   0.820
13516TIP3    H240492   2.844   2.682   0.727
13517TIP3   OH240493   4.852   1.576   4.702
13517TIP3    H140494   4.836   1.524   4.624
13517TIP3    H240495   4.765   1.592   4.739
13518TIP3   OH240496   2.724   6.558   1.987
13518TIP3    H140497   2.631   6.554   1.965
13518TIP3    H240498   2.761   6.479   1.949
13519TIP3   OH240499   7.270   3.542   4.324
13519TIP3    H140500   7.283   3.594   4.244
13519TIP3    H240501   7.181   3.507   4.315
13520TIP3   OH240502   0.111   5.904   0.222
13520TIP3    H140503   0.062   5.875   0.299
13520TIP3    H240504   0.149   5.824   0.186
13521TIP3   OH240505   4.817   1.382   5.161
13521TIP3    H140506   4.726   1.411   5.163
13521TIP3    H240507   4.868   1.462   5.146
13522TIP3   OH240508   1.519   4.596   1.804
13522TIP3    H140509   1.483   4.510   1.781
13522TIP3    H240510   1.544   4.588   1.895
13523TIP3   OH240511   3.492   0.704   6.286
13523TIP3    H140512   3.407   0.659   6.287
13523TIP3    H240513   3.474   0.787   6.240
13524TIP3   OH240514   4.403   4.738   1.018
13524TIP3    H140515   4.435   4.750   0.929
13524TIP3    H240516   4.325   4.793   1.023
13525TIP3   OH240517   1.835   3.264   4.946
13525TIP3    H140518   1.832   3.188   5.005
13525TIP3    H240519   1.877   3.333   4.998
13526TIP3   OH240520   0.319   5.938   2.528
13526TIP3    H140521   0.373   6.009   2.562
13526TIP3    H240522   0.265   5.979   2.460
13527TIP3   OH240523   3.409   4.523   2.232
13527TIP3    H140524   3.349   4.477   2.290
13527TIP3    H240525   3.373   4.611   2.223
13528TIP3   OH240526   0.746   4.138   6.066
13528TIP3    H140527   0.692   4.060   6.055
13528TIP3    H240528   0.781   4.155   5.978
13529TIP3   OH240529   4.794   0.359   6.173
13529TIP3    H140530   4.787   0.300   6.249
13529TIP3    H240531   4.792   0.447   6.212
13530TIP3   OH240532   8.072   7.396   0.083
13530TIP3    H140533   7.981   7.399   0.111
13530TIP3    H240534   8.079   7.464   0.016
13531TIP3   OH240535   0.741   6.050   2.553
13531TIP3    H140536   0.782   6.102   2.484
13531TIP3    H240537   0.706   5.973   2.509
13532TIP3   OH240538   5.472   6.897   3.672
13532TIP3    H140539   5.553   6.860   3.635
13532TIP3    H240540   5.447   6.833   3.739
13533TIP3   OH240541   1.421   0.932   5.076
13533TIP3    H140542   1.336   0.950   5.117
13533TIP3    H240543   1.485   0.950   5.145
13534TIP3   OH240544   3.257   2.553   4.666
13534TIP3    H140545   3.190   2.489   4.643
13534TIP3    H240546   3.208   2.627   4.703
13535TIP3   OH240547   7.584   3.322   5.140
13535TIP3    H140548   7.673   3.356   5.152
13535TIP3    H240549   7.531   3.399   5.119
13536TIP3   OH240550   6.616   3.548   2.694
13536TIP3    H140551   6.624   3.543   2.599
13536TIP3    H240552   6.702   3.579   2.723
13537TIP3   OH240553   5.043   6.161   2.923
13537TIP3    H140554   5.109   6.227   2.943
13537TIP3    H240555   5.023   6.173   2.830
13538TIP3   OH240556   7.122   6.248   6.237
13538TIP3    H140557   7.105   6.283   6.149
13538TIP3    H240558   7.045   6.273   6.288
13539TIP3   OH240559  -0.035   6.356   1.233
13539TIP3    H140560   0.011   6.343   1.150
13539TIP3    H240561   0.026   6.407   1.286
13540TIP3   OH240562   5.372   4.425   0.643
13540TIP3    H140563   5.439   4.450   0.707
13540TIP3    H240564   5.416   4.361   0.586
13541TIP3   OH240565   3.254   2.633   1.719
13541TIP3    H140566   3.223   2.651   1.808
13541TIP3    H240567   3.238   2.715   1.672
13542TIP3   OH240568   2.817   1.751   3.363
13542TIP3    H140569   2.895   1.712   3.323
13542TIP3    H240570   2.833   1.845   3.360
13543TIP3   OH240571   5.692   7.088   3.915
13543TIP3    H140572   5.601   7.059   3.905
13543TIP3    H240573   5.686   7.176   3.952
13544TIP3   OH240574   2.608   2.841   2.938
13544TIP3    H140575   2.554   2.768   2.968
13544TIP3    H240576   2.690   2.832   2.987
13545TIP3   OH240577   3.357   0.948   4.150
13545TIP3    H140578   3.264   0.948   4.129
13545TIP3    H240579   3.375   1.036   4.182
13546TIP3   OH240580   6.915   3.910   5.496
13546TIP3    H140581   6.840   3.859   5.525
13546TIP3    H240582   6.988   3.848   5.496
13547TIP3   OH240583   4.929   0.016   1.265
13547TIP3    H140584   4.973   0.096   1.294
13547TIP3    H240585   4.859   0.003   1.329
13548TIP3   OH240586   2.346   7.627   1.301
13548TIP3    H140587   2.307   7.703   1.260
13548TIP3    H240588   2.274   7.587   1.351
13549TIP3   OH240589   7.069   7.506   5.220
13549TIP3    H140590   7.074   7.485   5.127
13549TIP3    H240591   6.978   7.529   5.235
13550TIP3   OH240592   0.524   5.738   5.705
13550TIP3    H140593   0.586   5.757   5.635
13550TIP3    H240594   0.439   5.759   5.668
13551TIP3   OH240595   3.109   2.440   5.807
13551TIP3    H140596   3.145   2.356   5.835
13551TIP3    H240597   3.032   2.453   5.863
13552TIP3   OH240598   8.040   5.909   5.126
13552TIP3    H140599   7.999   5.822   5.130
13552TIP3    H240600   8.033   5.935   5.034
13553TIP3   OH240601   2.422   0.121   6.289
13553TIP3    H140602   2.423   0.213   6.261
13553TIP3    H240603   2.484   0.078   6.231
13554TIP3   OH240604   3.475   0.865   2.159
13554TIP3    H140605   3.466   0.844   2.252
13554TIP3    H240606   3.569   0.876   2.146
13555TIP3   OH240607   7.588   7.162   1.515
13555TIP3    H140608   7.532   7.239   1.521
13555TIP3    H240609   7.544   7.096   1.569
13556TIP3   OH240610   3.632   2.892   6.771
13556TIP3    H140611   3.554   2.916   6.721
13556TIP3    H240612   3.645   2.965   6.831
13557TIP3   OH240613   2.647   3.769   5.098
13557TIP3    H140614   2.627   3.682   5.134
13557TIP3    H240615   2.711   3.752   5.029
13558TIP3   OH240616   0.416   7.131   6.075
13558TIP3    H140617   0.429   7.037   6.061
13558TIP3    H240618   0.417   7.141   6.170
13559TIP3   OH240619   7.467   2.166   2.225
13559TIP3    H140620   7.476   2.106   2.151
13559TIP3    H240621   7.397   2.128   2.278
13560TIP3   OH240622   6.501   3.450   1.533
13560TIP3    H140623   6.495   3.544   1.515
13560TIP3    H240624   6.540   3.413   1.454
13561TIP3   OH240625   3.196   1.142   2.895
13561TIP3    H140626   3.147   1.221   2.870
13561TIP3    H240627   3.241   1.116   2.814
13562TIP3   OH240628   1.362   6.384   3.473
13562TIP3    H140629   1.361   6.299   3.518
13562TIP3    H240630   1.384   6.446   3.542
13563TIP3   OH240631   8.101   1.923   4.575
13563TIP3    H140632   8.085   1.935   4.481
13563TIP3    H240633   8.099   2.012   4.611
13564TIP3   OH240634   3.536   5.893   3.301
13564TIP3    H140635   3.602   5.913   3.234
13564TIP3    H240636   3.460   5.946   3.276
13565TIP3   OH240637   3.572   6.421   2.852
13565TIP3    H140638   3.564   6.399   2.760
13565TIP3    H240639   3.637   6.491   2.855
13566TIP3   OH240640   0.507   4.898   4.939
13566TIP3    H140641   0.466   4.812   4.953
13566TIP3    H240642   0.434   4.960   4.943
13567TIP3   OH240643   8.194   0.766   3.695
13567TIP3    H140644   8.247   0.732   3.767
13567TIP3    H240645   8.125   0.817   3.738
13568TIP3   OH240646   5.913   4.366   2.136
13568TIP3    H140647   5.882   4.295   2.079
13568TIP3    H240648   5.904   4.330   2.224
13569TIP3   OH240649   6.749   6.510   5.628
13569TIP3    H140650   6.752   6.485   5.536
13569TIP3    H240651   6.744   6.606   5.627
13570TIP3   OH240652   1.678   3.626   3.397
13570TIP3    H140653   1.760   3.603   3.352
13570TIP3    H240654   1.707   3.666   3.479
13571TIP3   OH240655   1.703   3.828   6.436
13571TIP3    H140656   1.689   3.789   6.350
13571TIP3    H240657   1.773   3.776   6.475
13572TIP3   OH240658   0.682   6.514   2.154
13572TIP3    H140659   0.620   6.578   2.190
13572TIP3    H240660   0.702   6.457   2.228
13573TIP3   OH240661   0.814   7.059   0.341
13573TIP3    H140662   0.853   7.141   0.371
13573TIP3    H240663   0.751   7.085   0.275
13574TIP3   OH240664   1.503   2.025   4.160
13574TIP3    H140665   1.418   1.999   4.125
13574TIP3    H240666   1.484   2.048   4.251
13575TIP3   OH240667   0.815   7.590   3.626
13575TIP3    H140668   0.771   7.559   3.706
13575TIP3    H240669   0.872   7.661   3.657
13576TIP3   OH240670   7.023   0.402   2.911
13576TIP3    H140671   7.042   0.444   2.827
13576TIP3    H240672   6.988   0.472   2.966
13577TIP3   OH240673   2.052   3.433   3.734
13577TIP3    H140674   1.979   3.481   3.772
13577TIP3    H240675   2.017   3.396   3.653
13578TIP3   OH240676   3.867   2.026   4.488
13578TIP3    H140677   3.962   2.033   4.496
13578TIP3    H240678   3.851   2.031   4.393
13579TIP3   OH240679   3.509   2.086   1.753
13579TIP3    H140680   3.536   2.035   1.677
13579TIP3    H240681   3.509   2.177   1.722
13580TIP3   OH240682   0.056   1.711   6.362
13580TIP3    H140683   0.130   1.654   6.341
13580TIP3    H240684   0.091   1.774   6.426
13581TIP3   OH240685   2.377   7.177   6.261
13581TIP3    H140686   2.367   7.257   6.209
13581TIP3    H240687   2.297   7.127   6.243
13582TIP3   OH240688   4.779   1.781   0.664
13582TIP3    H140689   4.745   1.772   0.753
13582TIP3    H240690   4.874   1.774   0.673
13583TIP3   OH240691   6.688   6.585   2.261
13583TIP3    H140692   6.782   6.574   2.271
13583TIP3    H240693   6.658   6.616   2.346
13584TIP3   OH240694   3.149   5.667   0.538
13584TIP3    H140695   3.065   5.621   0.536
13584TIP3    H240696   3.214   5.597   0.530
13585TIP3   OH240697   1.803   4.741   2.215
13585TIP3    H140698   1.894   4.736   2.246
13585TIP3    H240699   1.760   4.797   2.279
13586TIP3   OH240700   7.196   7.082   4.623
13586TIP3    H140701   7.128   7.044   4.568
13586TIP3    H240702   7.270   7.096   4.564
13587TIP3   OH240703   5.063   4.604   0.306
13587TIP3    H140704   5.104   4.589   0.391
13587TIP3    H240705   4.996   4.671   0.322
13588TIP3   OH240706   4.248   1.426   4.865
13588TIP3    H140707   4.296   1.345   4.884
13588TIP3    H240708   4.184   1.401   4.798
13589TIP3   OH240709   7.991   0.058   1.413
13589TIP3    H140710   7.912   0.004   1.404
13589TIP3    H240711   8.062  -0.006   1.423
13590TIP3   OH240712   7.312   6.141   4.074
13590TIP3    H140713   7.291   6.048   4.067
13590TIP3    H240714   7.400   6.149   4.037
13591TIP3   OH240715   1.877   4.604   5.674
13591TIP3    H140716   1.884   4.581   5.581
13591TIP3    H240717   1.788   4.578   5.698
13592TIP3   OH240718   7.299   1.886   0.595
13592TIP3    H140719   7.346   1.879   0.679
13592TIP3    H240720   7.234   1.954   0.610
13593TIP3   OH240721   1.889   0.185   0.318
13593TIP3    H140722   1.932   0.143   0.393
13593TIP3    H240723   1.796   0.173   0.335
13594TIP3   OH240724   0.374   3.581   2.003
13594TIP3    H140725   0.308   3.512   2.007
13594TIP3    H240726   0.372   3.622   2.090
13595TIP3   OH240727   1.393   6.858   5.868
13595TIP3    H140728   1.445   6.931   5.835
13595TIP3    H240729   1.436   6.780   5.833
13596TIP3   OH240730   2.343   2.944   2.873
13596TIP3    H140731   2.322   2.944   2.779
13596TIP3    H240732   2.432   2.912   2.878
13597TIP3   OH240733   3.845   4.950   6.096
13597TIP3    H140734   3.762   4.940   6.143
13597TIP3    H240735   3.912   4.922   6.159
13598TIP3   OH240736   6.053   7.769   4.223
13598TIP3    H140737   6.137   7.737   4.257
13598TIP3    H240738   6.062   7.762   4.128
13599TIP3   OH240739   5.150   5.170   6.268
13599TIP3    H140740   5.220   5.233   6.286
13599TIP3    H240741   5.139   5.123   6.351
13600TIP3   OH240742   5.725   3.305   2.055
13600TIP3    H140743   5.812   3.326   2.019
13600TIP3    H240744   5.737   3.220   2.097
13601TIP3   OH240745   3.537   6.875   3.268
13601TIP3    H140746   3.576   6.787   3.264
13601TIP3    H240747   3.496   6.886   3.182
13602TIP3   OH240748   2.212   0.697   5.729
13602TIP3    H140749   2.183   0.669   5.642
13602TIP3    H240750   2.135   0.688   5.784
13603TIP3   OH240751   0.039   7.150   0.938
13603TIP3    H140752   0.031   7.086   1.009
13603TIP3    H240753  -0.051   7.167   0.911
13604TIP3   OH240754   7.236   2.590   5.047
13604TIP3    H140755   7.225   2.683   5.028
13604TIP3    H240756   7.199   2.545   4.971
13605TIP3   OH240757   2.141   1.181   2.280
13605TIP3    H140758   2.118   1.217   2.195
13605TIP3    H240759   2.133   1.086   2.269
13606TIP3   OH240760   4.315   7.776   3.854
13606TIP3    H140761   4.311   7.871   3.842
13606TIP3    H240762   4.337   7.765   3.947
13607TIP3   OH240763   7.139   5.878   0.498
13607TIP3    H140764   7.232   5.863   0.479
13607TIP3    H240765   7.131   5.857   0.591
13608TIP3   OH240766   1.451   1.918   6.377
13608TIP3    H140767   1.471   1.851   6.443
13608TIP3    H240768   1.445   2.000   6.426
13609TIP3   OH240769   8.212   5.806   0.814
13609TIP3    H140770   8.272   5.735   0.835
13609TIP3    H240771   8.263   5.886   0.827
13610TIP3   OH240772   7.317   3.353   3.901
13610TIP3    H140773   7.273   3.367   3.817
13610TIP3    H240774   7.296   3.430   3.953
13611TIP3   OH240775   8.202   2.313   5.202
13611TIP3    H140776   8.185   2.405   5.224
13611TIP3    H240777   8.177   2.306   5.110
13612TIP3   OH240778   3.329   6.769   5.607
13612TIP3    H140779   3.358   6.709   5.676
13612TIP3    H240780   3.272   6.715   5.552
13613TIP3   OH240781   3.716   3.825   3.861
13613TIP3    H140782   3.666   3.845   3.940
13613TIP3    H240783   3.807   3.841   3.885
13614TIP3   OH240784   6.576   4.884   0.419
13614TIP3    H140785   6.597   4.902   0.510
13614TIP3    H240786   6.522   4.958   0.391
13615TIP3   OH240787   5.970   1.662   3.282
13615TIP3    H140788   5.939   1.608   3.210
13615TIP3    H240789   6.024   1.604   3.335
13616TIP3   OH240790   4.573   0.040   1.861
13616TIP3    H140791   4.491  -0.009   1.851
13616TIP3    H240792   4.574   0.099   1.786
13617TIP3   OH240793   0.155   1.652   4.036
13617TIP3    H140794   0.174   1.740   4.068
13617TIP3    H240795   0.156   1.597   4.114
13618TIP3   OH240796   8.087   0.486   6.161
13618TIP3    H140797   8.153   0.513   6.225
13618TIP3    H240798   8.023   0.437   6.212
13619TIP3   OH240799   7.673   4.503   2.843
13619TIP3    H140800   7.739   4.469   2.782
13619TIP3    H240801   7.626   4.569   2.793
13620TIP3   OH240802   6.263   1.233   5.795
13620TIP3    H140803   6.216   1.161   5.753
13620TIP3    H240804   6.239   1.310   5.744
13621TIP3   OH240805   0.279   3.344   5.379
13621TIP3    H140806   0.313   3.433   5.389
13621TIP3    H240807   0.216   3.351   5.307
13622TIP3   OH240808   5.727   3.234   1.038
13622TIP3    H140809   5.715   3.232   1.133
13622TIP3    H240810   5.802   3.293   1.025
13623TIP3   OH240811   6.892   6.031   5.990
13623TIP3    H140812   6.827   6.096   5.965
13623TIP3    H240813   6.891   6.032   6.085
13624TIP3   OH240814   4.867   0.412   6.560
13624TIP3    H140815   4.863   0.331   6.509
13624TIP3    H240816   4.950   0.406   6.608
13625TIP3   OH240817   1.813   7.183   3.164
13625TIP3    H140818   1.747   7.201   3.097
13625TIP3    H240819   1.798   7.092   3.189
13626TIP3   OH240820   4.217   6.069   6.217
13626TIP3    H140821   4.274   6.009   6.168
13626TIP3    H240822   4.148   6.014   6.253
13627TIP3   OH240823   5.681   4.410   4.954
13627TIP3    H140824   5.669   4.366   4.870
13627TIP3    H240825   5.748   4.476   4.938
13628TIP3   OH240826   0.493   6.675   0.222
13628TIP3    H140827   0.581   6.707   0.239
13628TIP3    H240828   0.480   6.686   0.128
13629TIP3   OH240829   4.930   7.658   0.713
13629TIP3    H140830   4.968   7.640   0.627
13629TIP3    H240831   4.837   7.635   0.703
13630TIP3   OH240832   1.191   5.740   6.369
13630TIP3    H140833   1.139   5.671   6.327
13630TIP3    H240834   1.185   5.814   6.309
13631TIP3   OH240835   7.626   4.241   5.819
13631TIP3    H140836   7.601   4.324   5.779
13631TIP3    H240837   7.677   4.196   5.752
13632TIP3   OH240838   7.768   3.086   5.290
13632TIP3    H140839   7.818   3.119   5.215
13632TIP3    H240840   7.830   3.087   5.363
13633TIP3   OH240841   6.459   6.692   2.130
13633TIP3    H140842   6.529   6.652   2.182
13633TIP3    H240843   6.421   6.619   2.082
13634TIP3   OH240844   7.579   4.973   3.578
13634TIP3    H140845   7.568   5.039   3.646
13634TIP3    H240846   7.674   4.968   3.565
13635TIP3   OH240847   1.739   1.717   3.550
13635TIP3    H140848   1.645   1.718   3.533
13635TIP3    H240849   1.777   1.764   3.476
13636TIP3   OH240850   6.150   4.304   5.655
13636TIP3    H140851   6.113   4.392   5.655
13636TIP3    H240852   6.199   4.298   5.573
13637TIP3   OH240853   1.760   3.133   1.828
13637TIP3    H140854   1.711   3.087   1.896
13637TIP3    H240855   1.738   3.087   1.747
13638TIP3   OH240856   1.990   0.095   3.922
13638TIP3    H140857   1.929   0.159   3.885
13638TIP3    H240858   2.069   0.146   3.940
13639TIP3   OH240859   6.687   0.320   2.426
13639TIP3    H140860   6.735   0.244   2.460
13639TIP3    H240861   6.755   0.385   2.409
13640TIP3   OH240862   3.978   0.113   2.239
13640TIP3    H140863   4.024   0.056   2.177
13640TIP3    H240864   3.987   0.201   2.202
13641TIP3   OH240865   0.191   3.854   2.409
13641TIP3    H140866   0.172   3.947   2.402
13641TIP3    H240867   0.285   3.849   2.422
13642TIP3   OH240868   3.202   0.601   2.801
13642TIP3    H140869   3.168   0.689   2.789
13642TIP3    H240870   3.283   0.599   2.750
13643TIP3   OH240871   0.427   4.041   1.255
13643TIP3    H140872   0.441   4.126   1.295
13643TIP3    H240873   0.467   4.047   1.169
13644TIP3   OH240874   6.253   2.921   5.885
13644TIP3    H140875   6.324   2.901   5.825
13644TIP3    H240876   6.216   2.836   5.908
13645TIP3   OH240877   7.848   5.115   0.839
13645TIP3    H140878   7.798   5.196   0.845
13645TIP3    H240879   7.796   5.058   0.782
13646TIP3   OH240880   4.732   0.452   0.678
13646TIP3    H140881   4.796   0.399   0.725
13646TIP3    H240882   4.651   0.442   0.728
13647TIP3   OH240883   1.774   6.662   6.479
13647TIP3    H140884   1.767   6.577   6.521
13647TIP3    H240885   1.687   6.701   6.488
13648TIP3   OH240886   4.963   2.797   6.552
13648TIP3    H140887   5.011   2.720   6.584
13648TIP3    H240888   4.910   2.763   6.480
13649TIP3   OH240889   6.931   6.019   0.416
13649TIP3    H140890   7.018   5.986   0.438
13649TIP3    H240891   6.906   5.971   0.338
13650TIP3   OH240892   2.223   0.071   1.717
13650TIP3    H140893   2.167   0.098   1.790
13650TIP3    H240894   2.304   0.041   1.758
13651TIP3   OH240895   2.926   4.620   4.781
13651TIP3    H140896   2.972   4.704   4.782
13651TIP3    H240897   2.833   4.643   4.784
13652TIP3   OH240898   8.029   0.714   5.342
13652TIP3    H140899   7.975   0.760   5.278
13652TIP3    H240900   8.009   0.756   5.425
13653TIP3   OH240901   6.228   5.941   2.689
13653TIP3    H140902   6.193   5.899   2.611
13653TIP3    H240903   6.228   5.873   2.756
13654TIP3   OH240904   3.148   1.646   2.375
13654TIP3    H140905   3.141   1.568   2.430
13654TIP3    H240906   3.058   1.673   2.359
13655TIP3   OH240907   0.393   0.565   6.731
13655TIP3    H140908   0.488   0.562   6.737
13655TIP3    H240909   0.367   0.634   6.792
13656TIP3   OH240910   0.286   6.571   5.873
13656TIP3    H140911   0.345   6.616   5.812
13656TIP3    H240912   0.300   6.478   5.855
13657TIP3   OH240913   6.037   5.514   5.779
13657TIP3    H140914   6.121   5.489   5.741
13657TIP3    H240915   5.976   5.511   5.706
13658TIP3   OH240916   4.551   2.963   3.473
13658TIP3    H140917   4.493   2.887   3.476
13658TIP3    H240918   4.615   2.946   3.542
13659TIP3   OH240919   2.107   0.894   4.959
13659TIP3    H140920   2.129   0.867   4.870
13659TIP3    H240921   2.178   0.860   5.013
13660TIP3   OH240922   4.955   2.453   1.841
13660TIP3    H140923   4.956   2.369   1.886
13660TIP3    H240924   4.872   2.452   1.793
13661TIP3   OH240925   0.963   0.243   3.218
13661TIP3    H140926   0.946   0.162   3.171
13661TIP3    H240927   0.947   0.222   3.309
13662TIP3   OH240928   5.326   4.526   5.931
13662TIP3    H140929   5.386   4.540   5.858
13662TIP3    H240930   5.375   4.559   6.007
13663TIP3   OH240931   7.248   0.304   3.734
13663TIP3    H140932   7.251   0.232   3.671
13663TIP3    H240933   7.157   0.333   3.733
13664TIP3   OH240934   7.784   0.455   0.674
13664TIP3    H140935   7.785   0.500   0.758
13664TIP3    H240936   7.703   0.403   0.675
13665TIP3   OH240937   2.917   1.824   3.713
13665TIP3    H140938   2.984   1.820   3.645
13665TIP3    H240939   2.839   1.787   3.672
13666TIP3   OH240940   4.507   4.356   0.063
13666TIP3    H140941   4.528   4.267   0.091
13666TIP3    H240942   4.563   4.371  -0.013
13667TIP3   OH240943   2.078   6.308   6.107
13667TIP3    H140944   2.084   6.224   6.153
13667TIP3    H240945   2.036   6.366   6.170
13668TIP3   OH240946   4.956   5.807   5.540
13668TIP3    H140947   5.002   5.886   5.568
13668TIP3    H240948   4.959   5.750   5.617
13669TIP3   OH240949   0.282   1.826   1.823
13669TIP3    H140950   0.349   1.825   1.754
13669TIP3    H240951   0.214   1.883   1.789
13670TIP3   OH240952   1.478   0.025   3.972
13670TIP3    H140953   1.544  -0.020   4.024
13670TIP3    H240954   1.519   0.106   3.945
13671TIP3   OH240955   4.956   0.629   6.264
13671TIP3    H140956   5.031   0.569   6.273
13671TIP3    H240957   4.984   0.710   6.307
13672TIP3   OH240958   4.086   4.457   0.926
13672TIP3    H140959   4.167   4.507   0.937
13672TIP3    H240960   4.115   4.370   0.897
13673TIP3   OH240961   5.354   1.535   1.033
13673TIP3    H140962   5.336   1.515   0.941
13673TIP3    H240963   5.361   1.449   1.075
13674TIP3   OH240964   2.027   5.036   4.805
13674TIP3    H140965   2.015   4.950   4.764
13674TIP3    H240966   1.944   5.054   4.849
13675TIP3   OH240967   1.138   1.266   0.666
13675TIP3    H140968   1.045   1.277   0.645
13675TIP3    H240969   1.165   1.189   0.615
13676TIP3   OH240970   0.715   6.826   3.440
13676TIP3    H140971   0.795   6.815   3.492
13676TIP3    H240972   0.744   6.814   3.349
13677TIP3   OH240973   6.869   2.584   5.637
13677TIP3    H140974   6.891   2.537   5.717
13677TIP3    H240975   6.774   2.592   5.638
13678TIP3   OH240976   0.336   1.318   6.220
13678TIP3    H140977   0.263   1.302   6.279
13678TIP3    H240978   0.356   1.232   6.183
13679TIP3   OH240979   6.929   5.551   5.912
13679TIP3    H140980   6.887   5.618   5.966
13679TIP3    H240981   6.886   5.469   5.938
13680TIP3   OH240982   4.342   2.705   5.976
13680TIP3    H140983   4.273   2.751   5.929
13680TIP3    H240984   4.423   2.727   5.930
13681TIP3   OH240985   5.749   5.989   6.508
13681TIP3    H140986   5.751   6.040   6.427
13681TIP3    H240987   5.839   5.956   6.518
13682TIP3   OH240988   2.272   1.138   3.255
13682TIP3    H140989   2.208   1.066   3.256
13682TIP3    H240990   2.220   1.216   3.236
13683TIP3   OH240991   6.999   2.129   4.862
13683TIP3    H140992   6.911   2.161   4.881
13683TIP3    H240993   7.006   2.048   4.913
13684TIP3   OH240994   5.169   0.719   0.274
13684TIP3    H140995   5.186   0.811   0.293
13684TIP3    H240996   5.190   0.710   0.181
13685TIP3   OH240997   4.277   0.772   2.017
13685TIP3    H140998   4.324   0.847   2.054
13685TIP3    H240999   4.211   0.812   1.960
13686TIP3   OH241000   0.715   1.580   1.453
13686TIP3    H141001   0.731   1.534   1.370
13686TIP3    H241002   0.644   1.640   1.434
13687TIP3   OH241003   1.270   2.553   1.759
13687TIP3    H141004   1.294   2.460   1.759
13687TIP3    H241005   1.179   2.553   1.730
13688TIP3   OH241006   2.617   4.797   3.523
13688TIP3    H141007   2.624   4.817   3.617
13688TIP3    H241008   2.630   4.881   3.480
13689TIP3   OH241009   0.654   6.405   0.423
13689TIP3    H141010   0.645   6.356   0.341
13689TIP3    H241011   0.645   6.339   0.491
13690TIP3   OH241012   8.090   4.008   1.714
13690TIP3    H141013   8.095   3.912   1.706
13690TIP3    H241014   8.054   4.023   1.801
13691TIP3   OH241015   4.654   6.396   0.438
13691TIP3    H141016   4.641   6.413   0.345
13691TIP3    H241017   4.610   6.469   0.482
13692TIP3   OH241018   6.867   2.541   0.186
13692TIP3    H141019   6.913   2.464   0.220
13692TIP3    H241020   6.776   2.530   0.214
13693TIP3   OH241021   6.801   4.192   4.294
13693TIP3    H141022   6.831   4.209   4.383
13693TIP3    H241023   6.863   4.239   4.239
13694TIP3   OH241024   1.730   1.367   6.431
13694TIP3    H141025   1.771   1.431   6.488
13694TIP3    H241026   1.636   1.382   6.440
13695TIP3   OH241027   5.366   1.274   0.614
13695TIP3    H141028   5.281   1.265   0.571
13695TIP3    H241029   5.381   1.189   0.655
13696TIP3   OH241030   3.639   0.950   2.694
13696TIP3    H141031   3.547   0.973   2.708
13696TIP3    H241032   3.675   0.940   2.782
13697TIP3   OH241033   4.239   3.818   0.333
13697TIP3    H141034   4.214   3.851   0.420
13697TIP3    H241035   4.210   3.727   0.334
13698TIP3   OH241036   4.033   7.192   6.669
13698TIP3    H141037   4.085   7.257   6.716
13698TIP3    H241038   3.961   7.172   6.728
13699TIP3   OH241039   1.160   0.074   4.460
13699TIP3    H141040   1.216   0.103   4.388
13699TIP3    H241041   1.140   0.153   4.509
13700TIP3   OH241042   7.237   4.213   2.296
13700TIP3    H141043   7.201   4.240   2.211
13700TIP3    H241044   7.170   4.156   2.333
13701TIP3   OH241045   3.006   1.368   4.573
13701TIP3    H141046   3.007   1.287   4.624
13701TIP3    H241047   2.936   1.354   4.508
13702TIP3   OH241048   2.657   3.585   0.216
13702TIP3    H141049   2.590   3.652   0.204
13702TIP3    H241050   2.717   3.622   0.281
13703TIP3   OH241051   3.610   2.476   6.352
13703TIP3    H141052   3.567   2.403   6.396
13703TIP3    H241053   3.550   2.550   6.364
13704TIP3   OH241054   2.679   3.472   2.750
13704TIP3    H141055   2.642   3.438   2.832
13704TIP3    H241056   2.772   3.450   2.755
13705TIP3   OH241057   7.945   3.228   4.986
13705TIP3    H141058   7.903   3.142   4.990
13705TIP3    H241059   7.941   3.252   4.893
13706TIP3   OH241060   6.796   7.393   1.141
13706TIP3    H141061   6.863   7.419   1.078
13706TIP3    H241062   6.714   7.399   1.093
13707TIP3   OH241063   3.469   7.266   4.944
13707TIP3    H141064   3.489   7.225   5.028
13707TIP3    H241065   3.418   7.344   4.967
13708TIP3   OH241066   3.526   6.191   6.502
13708TIP3    H141067   3.607   6.147   6.526
13708TIP3    H241068   3.480   6.206   6.585
13709TIP3   OH241069   1.087   4.049   6.629
13709TIP3    H141070   1.036   4.000   6.693
13709TIP3    H241071   1.056   4.139   6.637
13710TIP3   OH241072   4.248   4.462   0.089
13710TIP3    H141073   4.334   4.425   0.070
13710TIP3    H241074   4.242   4.462   0.185
13711TIP3   OH241075   2.494   0.817   6.236
13711TIP3    H141076   2.507   0.911   6.246
13711TIP3    H241077   2.571   0.777   6.277
13712TIP3   OH241078   6.955   5.169   3.074
13712TIP3    H141079   6.935   5.095   3.132
13712TIP3    H241080   6.879   5.174   3.016
13713TIP3   OH241081   5.714   3.529   0.097
13713TIP3    H141082   5.674   3.574   0.024
13713TIP3    H241083   5.794   3.579   0.115
13714TIP3   OH241084   3.666   6.884   2.468
13714TIP3    H141085   3.599   6.869   2.534
13714TIP3    H241086   3.622   6.868   2.384
13715TIP3   OH241087   6.636   4.062   1.898
13715TIP3    H141088   6.619   4.152   1.927
13715TIP3    H241089   6.653   4.069   1.805
13716TIP3   OH241090   2.457   3.990   6.020
13716TIP3    H141091   2.516   3.992   5.945
13716TIP3    H241092   2.402   4.067   6.009
13717TIP3   OH241093   4.037   2.806   6.374
13717TIP3    H141094   3.982   2.812   6.453
13717TIP3    H241095   3.987   2.751   6.314
13718TIP3   OH241096   3.419   2.586   2.679
13718TIP3    H141097   3.470   2.623   2.606
13718TIP3    H241098   3.456   2.499   2.691
13719TIP3   OH241099   0.513   3.723   1.129
13719TIP3    H141100   0.562   3.670   1.066
13719TIP3    H241101   0.471   3.659   1.186
13720TIP3   OH241102   5.462   1.171   1.415
13720TIP3    H141103   5.541   1.193   1.466
13720TIP3    H241104   5.390   1.203   1.469
13721TIP3   OH241105   1.744   4.813   3.908
13721TIP3    H141106   1.756   4.802   3.814
13721TIP3    H241107   1.810   4.877   3.934
13722TIP3   OH241108   5.768   6.444   3.696
13722TIP3    H141109   5.853   6.461   3.737
13722TIP3    H241110   5.707   6.436   3.769
13723TIP3   OH241111   0.315   1.739   6.099
13723TIP3    H141112   0.294   1.675   6.168
13723TIP3    H241113   0.260   1.814   6.119
13724TIP3   OH241114   1.809   3.391   6.211
13724TIP3    H141115   1.815   3.298   6.189
13724TIP3    H241116   1.886   3.408   6.265
13725TIP3   OH241117   0.579   6.477   4.415
13725TIP3    H141118   0.516   6.548   4.429
13725TIP3    H241119   0.602   6.484   4.322
13726TIP3   OH241120   3.246   1.278   3.942
13726TIP3    H141121   3.269   1.318   3.858
13726TIP3    H241122   3.175   1.334   3.976
13727TIP3   OH241123   2.053   5.693   2.839
13727TIP3    H141124   2.141   5.730   2.848
13727TIP3    H241125   2.043   5.679   2.745
13728TIP3   OH241126   8.248   4.665   3.115
13728TIP3    H141127   8.321   4.606   3.095
13728TIP3    H241128   8.180   4.639   3.053
13729TIP3   OH241129   3.931   4.846   3.537
13729TIP3    H141130   3.882   4.791   3.599
13729TIP3    H241131   4.022   4.823   3.553
13730TIP3   OH241132   1.628   2.556   2.562
13730TIP3    H141133   1.712   2.528   2.599
13730TIP3    H241134   1.617   2.503   2.483
13731TIP3   OH241135   6.313   5.734   6.096
13731TIP3    H141136   6.255   5.658   6.093
13731TIP3    H241137   6.258   5.806   6.065
13732TIP3   OH241138   4.319   4.101   3.571
13732TIP3    H141139   4.387   4.052   3.617
13732TIP3    H241140   4.356   4.187   3.557
13733TIP3   OH241141   3.948   6.247   1.382
13733TIP3    H141142   3.885   6.291   1.439
13733TIP3    H241143   3.896   6.214   1.308
13734TIP3   OH241144   3.693   1.603   4.687
13734TIP3    H141145   3.689   1.698   4.700
13734TIP3    H241146   3.769   1.589   4.631
13735TIP3   OH241147   1.458   3.072   1.892
13735TIP3    H141148   1.477   3.053   1.984
13735TIP3    H241149   1.388   3.010   1.869
13736TIP3   OH241150   0.567   3.697   0.225
13736TIP3    H141151   0.524   3.658   0.148
13736TIP3    H241152   0.634   3.754   0.188
13737TIP3   OH241153   6.625   1.347   5.554
13737TIP3    H141154   6.595   1.410   5.620
13737TIP3    H241155   6.707   1.312   5.590
13738TIP3   OH241156   7.836   0.885   2.294
13738TIP3    H141157   7.932   0.887   2.287
13738TIP3    H241158   7.812   0.975   2.317
13739TIP3   OH241159   1.536   5.291   5.495
13739TIP3    H141160   1.617   5.264   5.453
13739TIP3    H241161   1.563   5.352   5.564
13740TIP3   OH241162   3.963   4.185   1.128
13740TIP3    H141163   4.053   4.157   1.107
13740TIP3    H241164   3.953   4.163   1.221
13741TIP3   OH241165   6.172   3.712   5.663
13741TIP3    H141166   6.183   3.807   5.654
13741TIP3    H241167   6.091   3.693   5.615
13742TIP3   OH241168   0.702   0.933   5.971
13742TIP3    H141169   0.736   0.982   5.896
13742TIP3    H241170   0.760   0.957   6.044
13743TIP3   OH241171   0.325   1.398   2.523
13743TIP3    H141172   0.398   1.453   2.553
13743TIP3    H241173   0.357   1.308   2.535
13744TIP3   OH241174   8.032   3.197   5.248
13744TIP3    H141175   8.123   3.226   5.253
13744TIP3    H241176   8.007   3.213   5.157
13745TIP3   OH241177   2.815   3.352   0.782
13745TIP3    H141178   2.852   3.384   0.864
13745TIP3    H241179   2.728   3.322   0.805
13746TIP3   OH241180   3.315   3.919   0.603
13746TIP3    H141181   3.369   3.988   0.564
13746TIP3    H241182   3.318   3.936   0.697
13747TIP3   OH241183   5.436   5.833   6.067
13747TIP3    H141184   5.384   5.870   5.996
13747TIP3    H241185   5.509   5.789   6.023
13748TIP3   OH241186   2.547   5.383   4.006
13748TIP3    H141187   2.509   5.469   3.987
13748TIP3    H241188   2.626   5.402   4.057
13749TIP3   OH241189   2.352   3.129   3.316
13749TIP3    H141190   2.347   3.112   3.222
13749TIP3    H241191   2.437   3.094   3.342
13750TIP3   OH241192   4.209   5.398   4.804
13750TIP3    H141193   4.240   5.436   4.886
13750TIP3    H241194   4.114   5.393   4.814
13751TIP3   OH241195   7.043   7.536   3.900
13751TIP3    H141196   7.028   7.492   3.983
13751TIP3    H241197   7.112   7.600   3.918
13752TIP3   OH241198   7.623   2.320   0.158
13752TIP3    H141199   7.616   2.225   0.147
13752TIP3    H241200   7.535   2.347   0.186
13753TIP3   OH241201   1.913   1.589   5.278
13753TIP3    H141202   1.923   1.661   5.340
13753TIP3    H241203   1.852   1.622   5.211
13754TIP3   OH241204   8.167   2.160   4.294
13754TIP3    H141205   8.215   2.231   4.253
13754TIP3    H241206   8.123   2.200   4.369
13755TIP3   OH241207   2.644   5.715   1.828
13755TIP3    H141208   2.613   5.802   1.851
13755TIP3    H241209   2.591   5.656   1.882
13756TIP3   OH241210   5.375   4.632   4.920
13756TIP3    H141211   5.458   4.680   4.930
13756TIP3    H241212   5.399   4.540   4.930
13757TIP3   OH241213   3.890   6.239   0.988
13757TIP3    H141214   3.829   6.221   1.060
13757TIP3    H241215   3.905   6.334   0.994
13758TIP3   OH241216   3.411   1.236   4.172
13758TIP3    H141217   3.361   1.287   4.236
13758TIP3    H241218   3.367   1.253   4.089
13759TIP3   OH241219   4.844   5.225   3.406
13759TIP3    H141220   4.842   5.216   3.501
13759TIP3    H241221   4.752   5.230   3.380
13760TIP3   OH241222   6.704   5.451   4.856
13760TIP3    H141223   6.712   5.439   4.951
13760TIP3    H241224   6.672   5.366   4.825
13761TIP3   OH241225   0.349   0.366   6.532
13761TIP3    H141226   0.376   0.414   6.610
13761TIP3    H241227   0.414   0.390   6.465
13762TIP3   OH241228   5.233   3.183   3.342
13762TIP3    H141229   5.140   3.179   3.322
13762TIP3    H241230   5.276   3.189   3.257
13763TIP3   OH241231   7.765   2.252   4.693
13763TIP3    H141232   7.753   2.213   4.607
13763TIP3    H241233   7.813   2.186   4.743
13764TIP3   OH241234   2.016   7.420   4.587
13764TIP3    H141235   2.049   7.509   4.600
13764TIP3    H241236   1.965   7.402   4.667
13765TIP3   OH241237   0.772   2.326   1.129
13765TIP3    H141238   0.752   2.232   1.135
13765TIP3    H241239   0.700   2.362   1.077
13766TIP3   OH241240   0.005   4.344   0.727
13766TIP3    H141241   0.023   4.298   0.809
13766TIP3    H241242   0.090   4.378   0.699
13767TIP3   OH241243   0.977   2.790   6.530
13767TIP3    H141244   0.935   2.741   6.458
13767TIP3    H241245   1.025   2.723   6.579
13768TIP3   OH241246   4.967   3.914   1.677
13768TIP3    H141247   5.006   3.913   1.590
13768TIP3    H241248   5.036   3.882   1.735
13769TIP3   OH241249   7.448   5.175   5.966
13769TIP3    H141250   7.522   5.193   5.908
13769TIP3    H241251   7.436   5.080   5.961
13770TIP3   OH241252   2.758   5.351   5.626
13770TIP3    H141253   2.742   5.264   5.589
13770TIP3    H241254   2.742   5.341   5.720
13771TIP3   OH241255  -0.012   3.677   2.360
13771TIP3    H141256   0.007   3.593   2.318
13771TIP3    H241257   0.074   3.714   2.379
13772TIP3   OH241258   3.168   5.839   0.293
13772TIP3    H141259   3.157   5.776   0.364
13772TIP3    H241260   3.080   5.849   0.256
13773TIP3   OH241261   7.141   5.568   6.389
13773TIP3    H141262   7.095   5.486   6.369
13773TIP3    H241263   7.214   5.541   6.444
13774TIP3   OH241264   6.036   7.347   6.074
13774TIP3    H141265   6.026   7.291   5.997
13774TIP3    H241266   6.122   7.387   6.063
13775TIP3   OH241267   2.117   0.873   0.551
13775TIP3    H141268   2.031   0.915   0.560
13775TIP3    H241269   2.132   0.869   0.456
13776TIP3   OH241270   7.529   7.457   0.258
13776TIP3    H141271   7.573   7.479   0.176
13776TIP3    H241272   7.586   7.493   0.326
13777TIP3   OH241273   3.351   6.258   1.052
13777TIP3    H141274   3.397   6.272   0.968
13777TIP3    H241275   3.273   6.313   1.046
13778TIP3   OH241276   1.296   1.047   6.146
13778TIP3    H141277   1.268   1.009   6.230
13778TIP3    H241278   1.261   1.136   6.147
13779TIP3   OH241279   6.467   2.183   3.246
13779TIP3    H141280   6.519   2.216   3.173
13779TIP3    H241281   6.394   2.245   3.254
13780TIP3   OH241282   3.358   1.261   3.426
13780TIP3    H141283   3.398   1.256   3.513
13780TIP3    H241284   3.410   1.201   3.372
13781TIP3   OH241285   6.165   7.577   2.716
13781TIP3    H141286   6.204   7.587   2.629
13781TIP3    H241287   6.200   7.494   2.748
13782TIP3   OH241288   6.917   4.629   4.205
13782TIP3    H141289   6.903   4.597   4.294
13782TIP3    H241290   6.874   4.715   4.204
13783TIP3   OH241291   8.239   7.606   4.294
13783TIP3    H141292   8.266   7.652   4.374
13783TIP3    H241293   8.319   7.563   4.264
13784TIP3   OH241294   1.071   2.906   0.706
13784TIP3    H141295   1.076   2.995   0.672
13784TIP3    H241296   0.979   2.881   0.697
13785TIP3   OH241297   5.481   7.128   2.058
13785TIP3    H141298   5.566   7.096   2.088
13785TIP3    H241299   5.501   7.189   1.986
13786TIP3   OH241300   7.577   6.005   0.967
13786TIP3    H141301   7.488   5.975   0.949
13786TIP3    H241302   7.571   6.100   0.962
13787TIP3   OH241303   3.400   7.553   3.730
13787TIP3    H141304   3.362   7.578   3.646
13787TIP3    H241305   3.395   7.632   3.784
13788TIP3   OH241306   6.927   2.198   3.242
13788TIP3    H141307   6.929   2.132   3.312
13788TIP3    H241308   6.868   2.266   3.276
13789TIP3   OH241309   4.741   4.070   1.948
13789TIP3    H141310   4.787   4.083   2.031
13789TIP3    H241311   4.756   4.151   1.899
13790TIP3   OH241312   3.519   6.271   3.327
13790TIP3    H141313   3.567   6.346   3.292
13790TIP3    H241314   3.517   6.208   3.255
13791TIP3   OH241315   2.269   5.541   0.335
13791TIP3    H141316   2.317   5.494   0.267
13791TIP3    H241317   2.297   5.500   0.417
13792TIP3   OH241318   3.831   5.717   0.227
13792TIP3    H141319   3.858   5.799   0.270
13792TIP3    H241320   3.745   5.736   0.190
13793TIP3   OH241321   3.918   1.455   4.155
13793TIP3    H141322   3.855   1.410   4.099
13793TIP3    H241323   3.997   1.463   4.102
13794TIP3   OH241324   1.128   7.363   0.382
13794TIP3    H141325   1.064   7.335   0.447
13794TIP3    H241326   1.180   7.285   0.364
13795TIP3   OH241327   4.570   6.489   4.855
13795TIP3    H141328   4.558   6.471   4.948
13795TIP3    H241329   4.503   6.436   4.811
13796TIP3   OH241330   1.172   1.145   2.858
13796TIP3    H141331   1.183   1.059   2.900
13796TIP3    H241332   1.082   1.170   2.879
13797TIP3   OH241333   1.955   6.996   4.174
13797TIP3    H141334   2.020   7.052   4.217
13797TIP3    H241335   1.877   7.051   4.166
13798TIP3   OH241336   8.075   2.454   0.568
13798TIP3    H141337   8.164   2.490   0.565
13798TIP3    H241338   8.072   2.402   0.648
13799TIP3   OH241339   4.549   2.875   1.772
13799TIP3    H141340   4.498   2.883   1.853
13799TIP3    H241341   4.497   2.816   1.717
13800TIP3   OH241342   4.678   0.912   4.724
13800TIP3    H141343   4.678   0.952   4.811
13800TIP3    H241344   4.648   0.822   4.739
13801TIP3   OH241345   7.407   0.053   4.171
13801TIP3    H141346   7.409   0.000   4.251
13801TIP3    H241347   7.500   0.064   4.147
13802TIP3   OH241348   8.126   2.708   3.974
13802TIP3    H141349   8.143   2.660   4.054
13802TIP3    H241350   8.184   2.668   3.909
13803TIP3   OH241351   0.189   5.080   0.644
13803TIP3    H141352   0.209   5.103   0.553
13803TIP3    H241353   0.162   4.988   0.640
13804TIP3   OH241354   5.531   4.865   5.218
13804TIP3    H141355   5.559   4.852   5.127
13804TIP3    H241356   5.555   4.782   5.262
13805TIP3   OH241357   1.048   2.771   5.031
13805TIP3    H141358   1.117   2.838   5.032
13805TIP3    H241359   1.092   2.692   5.001
13806TIP3   OH241360   7.179   0.222   5.418
13806TIP3    H141361   7.266   0.246   5.384
13806TIP3    H241362   7.186   0.237   5.512
13807TIP3   OH241363   0.840   1.792   3.816
13807TIP3    H141364   0.902   1.786   3.743
13807TIP3    H241365   0.895   1.795   3.894
13808TIP3   OH241366   6.136   4.132   5.365
13808TIP3    H141367   6.173   4.220   5.355
13808TIP3    H241368   6.057   4.146   5.416
13809TIP3   OH241369   3.164   6.990   0.157
13809TIP3    H141370   3.112   7.053   0.208
13809TIP3    H241371   3.131   6.905   0.184
13810TIP3   OH241372   4.928   1.202   3.180
13810TIP3    H141373   4.860   1.269   3.175
13810TIP3    H241374   5.002   1.247   3.222
13811TIP3   OH241375   6.063   5.165   2.708
13811TIP3    H141376   6.107   5.097   2.656
13811TIP3    H241377   5.978   5.177   2.666
13812TIP3   OH241378   2.497   7.337   1.962
13812TIP3    H141379   2.437   7.395   1.915
13812TIP3    H241380   2.584   7.359   1.928
13813TIP3   OH241381   3.012   4.629   1.109
13813TIP3    H141382   2.942   4.637   1.175
13813TIP3    H241383   3.002   4.706   1.054
13814TIP3   OH241384   5.606   1.928   5.021
13814TIP3    H141385   5.651   1.954   4.941
13814TIP3    H241386   5.575   1.839   5.004
13815TIP3   OH241387   3.186   6.279   4.158
13815TIP3    H141388   3.226   6.341   4.097
13815TIP3    H241389   3.135   6.333   4.218
13816TIP3   OH241390   2.290   6.862   0.082
13816TIP3    H141391   2.333   6.890   0.163
13816TIP3    H241392   2.330   6.916   0.014
13817TIP3   OH241393   1.632   3.840   2.745
13817TIP3    H141394   1.658   3.760   2.699
13817TIP3    H241395   1.674   3.834   2.830
13818TIP3   OH241396   2.417   0.036   2.924
13818TIP3    H141397   2.477   0.088   2.978
13818TIP3    H241398   2.345   0.096   2.906
13819TIP3   OH241399   4.933   2.052   4.115
13819TIP3    H141400   4.997   1.997   4.161
13819TIP3    H241401   4.947   2.032   4.022
13820TIP3   OH241402   4.686   7.045   4.786
13820TIP3    H141403   4.644   7.037   4.700
13820TIP3    H241404   4.622   7.091   4.840
13821TIP3   OH241405   4.640   6.592   0.202
13821TIP3    H141406   4.573   6.554   0.145
13821TIP3    H241407   4.707   6.625   0.142
13822TIP3   OH241408   1.507   6.938   3.664
13822TIP3    H141409   1.505   7.021   3.713
13822TIP3    H241410   1.600   6.920   3.651
13823TIP3   OH241411   1.398   7.592   5.257
13823TIP3    H141412   1.343   7.626   5.187
13823TIP3    H241413   1.400   7.662   5.323
13824TIP3   OH241414   3.840   0.581   0.999
13824TIP3    H141415   3.868   0.490   1.001
13824TIP3    H241416   3.914   0.630   1.035
13825TIP3   OH241417   2.964   0.538   5.838
13825TIP3    H141418   2.993   0.593   5.766
13825TIP3    H241419   2.900   0.591   5.885
13826TIP3   OH241420   7.740   4.553   3.820
13826TIP3    H141421   7.740   4.467   3.779
13826TIP3    H241422   7.690   4.541   3.901
13827TIP3   OH241423   5.702   2.332   3.225
13827TIP3    H141424   5.724   2.239   3.228
13827TIP3    H241425   5.606   2.334   3.223
13828TIP3   OH241426   6.117   1.188   0.385
13828TIP3    H141427   6.170   1.109   0.380
13828TIP3    H241428   6.162   1.250   0.327
13829TIP3   OH241429   4.777   2.763   2.345
13829TIP3    H141430   4.767   2.795   2.255
13829TIP3    H241431   4.818   2.835   2.392
13830TIP3   OH241432   0.644   5.116   2.342
13830TIP3    H141433   0.555   5.089   2.316
13830TIP3    H241434   0.648   5.209   2.320
13831TIP3   OH241435   4.558   0.086   3.100
13831TIP3    H141436   4.477   0.109   3.054
13831TIP3    H241437   4.573   0.159   3.160
13832TIP3   OH241438   1.031   3.650   1.542
13832TIP3    H141439   1.034   3.575   1.483
13832TIP3    H241440   1.069   3.722   1.492
13833TIP3   OH241441   2.921   5.246   3.383
13833TIP3    H141442   2.854   5.309   3.355
13833TIP3    H241443   2.887   5.161   3.356
13834TIP3   OH241444   6.642   2.052   3.818
13834TIP3    H141445   6.622   1.984   3.882
13834TIP3    H241446   6.627   2.010   3.733
13835TIP3   OH241447   7.606   2.160   3.963
13835TIP3    H141448   7.551   2.167   3.884
13835TIP3    H241449   7.582   2.237   4.015
13836TIP3   OH241450   5.914   3.316   0.295
13836TIP3    H141451   5.829   3.309   0.253
13836TIP3    H241452   5.924   3.408   0.317
13837TIP3   OH241453   6.784   2.055   6.599
13837TIP3    H141454   6.879   2.063   6.598
13837TIP3    H241455   6.757   2.065   6.508
13838TIP3   OH241456   6.296   2.201   2.277
13838TIP3    H141457   6.370   2.261   2.280
13838TIP3    H241458   6.225   2.249   2.321
13839TIP3   OH241459   5.758   1.661   4.896
13839TIP3    H141460   5.667   1.687   4.906
13839TIP3    H241461   5.755   1.567   4.878
13840TIP3   OH241462   7.408   6.353   6.551
13840TIP3    H141463   7.331   6.406   6.529
13840TIP3    H241464   7.372   6.276   6.594
13841TIP3   OH241465   4.864   0.612   4.646
13841TIP3    H141466   4.935   0.556   4.613
13841TIP3    H241467   4.908   0.694   4.670
13842TIP3   OH241468   5.491   1.387   6.215
13842TIP3    H141469   5.505   1.481   6.226
13842TIP3    H241470   5.474   1.354   6.303
13843TIP3   OH241471   7.556   6.008   1.232
13843TIP3    H141472   7.552   6.012   1.136
13843TIP3    H241473   7.493   6.075   1.262
13844TIP3   OH241474   4.483   3.204   6.617
13844TIP3    H141475   4.522   3.278   6.665
13844TIP3    H241476   4.389   3.214   6.632
13845TIP3   OH241477   0.663   4.779   3.915
13845TIP3    H141478   0.623   4.697   3.942
13845TIP3    H241479   0.757   4.759   3.909
13846TIP3   OH241480   0.381   4.829   0.588
13846TIP3    H141481   0.386   4.793   0.499
13846TIP3    H241482   0.288   4.824   0.611
13847TIP3   OH241483   8.166   4.230   3.616
13847TIP3    H141484   8.182   4.319   3.586
13847TIP3    H241485   8.244   4.207   3.667
13848TIP3   OH241486   3.532   1.148   1.554
13848TIP3    H141487   3.576   1.086   1.496
13848TIP3    H241488   3.441   1.119   1.555
13849TIP3   OH241489   4.005   2.420   1.255
13849TIP3    H141490   3.912   2.423   1.277
13849TIP3    H241491   4.008   2.446   1.163
13850TIP3   OH241492   6.986   5.590   4.631
13850TIP3    H141493   6.972   5.551   4.717
13850TIP3    H241494   6.928   5.542   4.573
13851TIP3   OH241495   6.972   7.353   4.647
13851TIP3    H141496   7.019   7.309   4.576
13851TIP3    H241497   6.984   7.296   4.723
13852TIP3   OH241498   5.230   6.137   1.018
13852TIP3    H141499   5.281   6.212   0.988
13852TIP3    H241500   5.251   6.067   0.956
13853TIP3   OH241501   4.211   7.433   3.321
13853TIP3    H141502   4.141   7.491   3.292
13853TIP3    H241503   4.191   7.415   3.413
13854TIP3   OH241504   7.324   1.598   6.169
13854TIP3    H141505   7.325   1.561   6.080
13854TIP3    H241506   7.289   1.527   6.223
13855TIP3   OH241507   6.221  -0.004   2.454
13855TIP3    H141508   6.158   0.039   2.513
13855TIP3    H241509   6.225   0.054   2.378
13856TIP3   OH241510   5.249   6.091   1.287
13856TIP3    H141511   5.189   6.029   1.328
13856TIP3    H241512   5.222   6.094   1.195
13857TIP3   OH241513   5.696   1.283   1.008
13857TIP3    H141514   5.751   1.215   1.048
13857TIP3    H241515   5.759   1.347   0.975
13858TIP3   OH241516   3.363   0.502   2.571
13858TIP3    H141517   3.322   0.555   2.503
13858TIP3    H241518   3.453   0.536   2.577
13859TIP3   OH241519   2.479   4.398   4.322
13859TIP3    H141520   2.529   4.425   4.399
13859TIP3    H241521   2.543   4.394   4.251
13860TIP3   OH241522   8.262   6.012   3.822
13860TIP3    H141523   8.211   5.937   3.790
13860TIP3    H241524   8.308   6.044   3.745
13861TIP3   OH241525   7.087   5.414   1.980
13861TIP3    H141526   7.087   5.506   2.007
13861TIP3    H241527   7.142   5.370   2.045
13862TIP3   OH241528   2.764   1.248   5.393
13862TIP3    H141529   2.845   1.237   5.443
13862TIP3    H241530   2.790   1.232   5.302
13863TIP3   OH241531   5.347   2.075   3.988
13863TIP3    H141532   5.412   2.078   3.918
13863TIP3    H241533   5.286   2.146   3.966
13864TIP3   OH241534   1.260   0.411   4.426
13864TIP3    H141535   1.223   0.374   4.346
13864TIP3    H241536   1.280   0.335   4.481
13865TIP3   OH241537   5.886   6.934   6.654
13865TIP3    H141538   5.981   6.943   6.645
13865TIP3    H241539   5.873   6.842   6.675
13866TIP3   OH241540   3.337   5.841   4.508
13866TIP3    H141541   3.289   5.922   4.527
13866TIP3    H241542   3.399   5.867   4.440
13867TIP3   OH241543   6.786   5.766   6.028
13867TIP3    H141544   6.754   5.801   6.112
13867TIP3    H241545   6.819   5.842   5.981
13868TIP3   OH241546   0.820   0.924   2.329
13868TIP3    H141547   0.900   0.902   2.281
13868TIP3    H241548   0.817   1.020   2.326
13869TIP3   OH241549   7.821   3.055   2.724
13869TIP3    H141550   7.852   3.027   2.810
13869TIP3    H241551   7.901   3.072   2.674
13870TIP3   OH241552   4.260   4.269   1.178
13870TIP3    H141553   4.340   4.321   1.166
13870TIP3    H241554   4.200   4.328   1.225
13871TIP3   OH241555   2.661   0.881   4.012
13871TIP3    H141556   2.739   0.936   4.015
13871TIP3    H241557   2.594   0.936   3.971
13872TIP3   OH241558   4.773   3.530   2.920
13872TIP3    H141559   4.710   3.480   2.973
13872TIP3    H241560   4.854   3.528   2.971
13873TIP3   OH241561   2.356   3.730   4.221
13873TIP3    H141562   2.273   3.694   4.255
13873TIP3    H241563   2.423   3.694   4.279
13874TIP3   OH241564   7.046   5.897   4.331
13874TIP3    H141565   7.063   5.838   4.257
13874TIP3    H241566   7.012   5.977   4.290
13875TIP3   OH241567   0.736   4.279   3.410
13875TIP3    H141568   0.795   4.231   3.352
13875TIP3    H241569   0.793   4.317   3.477
13876TIP3   OH241570   0.084   6.926   4.292
13876TIP3    H141571   0.028   6.848   4.291
13876TIP3    H241572   0.155   6.902   4.353
13877TIP3   OH241573   3.682   7.426   1.248
13877TIP3    H141574   3.697   7.494   1.313
13877TIP3    H241575   3.597   7.388   1.273
13878TIP3   OH241576   1.004   2.468   4.295
13878TIP3    H141577   0.999   2.556   4.257
13878TIP3    H241578   0.937   2.469   4.364
13879TIP3   OH241579   4.959   6.097   3.662
13879TIP3    H141580   4.940   6.027   3.599
13879TIP3    H241581   5.054   6.094   3.673
13880TIP3   OH241582   0.986   4.400   4.112
13880TIP3    H141583   1.023   4.328   4.163
13880TIP3    H241584   0.989   4.368   4.021
13881TIP3   OH241585   4.782   3.522   4.195
13881TIP3    H141586   4.764   3.586   4.263
13881TIP3    H241587   4.696   3.493   4.164
13882TIP3   OH241588   1.069   7.114   0.057
13882TIP3    H141589   1.101   7.035   0.100
13882TIP3    H241590   1.028   7.084  -0.023
13883TIP3   OH241591   1.939   6.515   1.176
13883TIP3    H141592   1.900   6.602   1.169
13883TIP3    H241593   1.919   6.486   1.265
13884TIP3   OH241594   4.554   2.415   3.953
13884TIP3    H141595   4.624   2.433   3.890
13884TIP3    H241596   4.478   2.463   3.919
13885TIP3   OH241597   6.731   7.035   5.365
13885TIP3    H141598   6.672   7.083   5.306
13885TIP3    H241599   6.711   7.071   5.452
13886TIP3   OH241600   0.042   2.104   2.841
13886TIP3    H141601  -0.006   2.180   2.875
13886TIP3    H241602   0.125   2.141   2.810
13887TIP3   OH241603   4.759   7.673   2.127
13887TIP3    H141604   4.704   7.641   2.199
13887TIP3    H241605   4.745   7.610   2.056
13888TIP3   OH241606   0.665   2.618   1.201
13888TIP3    H141607   0.640   2.537   1.158
13888TIP3    H241608   0.595   2.634   1.265
13889TIP3   OH241609   1.504   6.463   4.985
13889TIP3    H141610   1.505   6.523   5.059
13889TIP3    H241611   1.575   6.493   4.928
13890TIP3   OH241612   2.592   5.771   3.082
13890TIP3    H141613   2.624   5.855   3.115
13890TIP3    H241614   2.669   5.714   3.085
13891TIP3   OH241615   2.765   2.885   2.555
13891TIP3    H141616   2.716   2.821   2.606
13891TIP3    H241617   2.828   2.833   2.505
13892TIP3   OH241618   6.354   3.238   1.647
13892TIP3    H141619   6.387   3.286   1.571
13892TIP3    H241620   6.431   3.224   1.702
13893TIP3   OH241621   1.698   7.345   0.947
13893TIP3    H141622   1.603   7.343   0.960
13893TIP3    H241623   1.715   7.429   0.905
13894TIP3   OH241624   5.411   1.196   5.893
13894TIP3    H141625   5.435   1.147   5.814
13894TIP3    H241626   5.466   1.159   5.962
13895TIP3   OH241627   1.913   7.604   4.398
13895TIP3    H141628   1.953   7.538   4.455
13895TIP3    H241629   1.873   7.667   4.458
13896TIP3   OH241630   5.943   7.276   5.166
13896TIP3    H141631   5.898   7.206   5.119
13896TIP3    H241632   5.929   7.354   5.113
13897TIP3   OH241633   8.208   4.077   4.726
13897TIP3    H141634   8.158   4.150   4.688
13897TIP3    H241635   8.294   4.083   4.684
13898TIP3   OH241636   6.286   6.053   3.520
13898TIP3    H141637   6.293   6.007   3.604
13898TIP3    H241638   6.330   5.996   3.458
13899TIP3   OH241639   4.185   3.911   4.743
13899TIP3    H141640   4.158   3.979   4.805
13899TIP3    H241641   4.226   3.959   4.671
13900TIP3   OH241642   4.920   5.194   2.068
13900TIP3    H141643   5.003   5.148   2.061
13900TIP3    H241644   4.913   5.245   1.988
13901TIP3   OH241645   1.658   1.444   5.978
13901TIP3    H141646   1.602   1.439   5.900
13901TIP3    H241647   1.668   1.353   6.006
13902TIP3   OH241648   7.974   5.617   2.534
13902TIP3    H141649   8.042   5.682   2.553
13902TIP3    H241650   7.947   5.584   2.620
13903TIP3   OH241651   0.001   3.059   2.860
13903TIP3    H141652   0.025   2.978   2.905
13903TIP3    H241653   0.008   3.038   2.767
13904TIP3   OH241654   3.312   0.642   1.718
13904TIP3    H141655   3.401   0.631   1.685
13904TIP3    H241656   3.318   0.625   1.812
13905TIP3   OH241657   2.218   0.804   4.716
13905TIP3    H141658   2.234   0.839   4.628
13905TIP3    H241659   2.225   0.709   4.705
13906TIP3   OH241660   5.245   3.651   1.479
13906TIP3    H141661   5.169   3.603   1.512
13906TIP3    H241662   5.220   3.679   1.392
13907TIP3   OH241663   1.399   0.818   2.711
13907TIP3    H141664   1.386   0.723   2.703
13907TIP3    H241665   1.320   0.849   2.755
13908TIP3   OH241666   2.062   3.663   5.766
13908TIP3    H141667   2.009   3.659   5.846
13908TIP3    H241668   2.124   3.591   5.776
13909TIP3   OH241669   2.792   2.736   3.557
13909TIP3    H141670   2.814   2.647   3.531
13909TIP3    H241671   2.876   2.778   3.575
13910TIP3   OH241672   1.222   6.869   3.967
13910TIP3    H141673   1.149   6.927   3.948
13910TIP3    H241674   1.190   6.782   3.942
13911TIP3   OH241675   0.229   7.637   3.055
13911TIP3    H141676   0.319   7.654   3.084
13911TIP3    H241677   0.183   7.613   3.136
13912TIP3   OH241678   1.434   3.331   4.264
13912TIP3    H141679   1.343   3.341   4.237
13912TIP3    H241680   1.434   3.254   4.321
13913TIP3   OH241681   0.685   1.144   0.073
13913TIP3    H141682   0.769   1.163   0.031
13913TIP3    H241683   0.660   1.058   0.040
13914TIP3   OH241684   2.755   5.393   3.196
13914TIP3    H141685   2.768   5.484   3.221
13914TIP3    H241686   2.682   5.395   3.134
13915TIP3   OH241687   1.244   0.966   3.067
13915TIP3    H141688   1.209   0.896   3.121
13915TIP3    H241689   1.335   0.940   3.049
13916TIP3   OH241690   6.830   5.836   4.498
13916TIP3    H141691   6.917   5.861   4.467
13916TIP3    H241692   6.835   5.843   4.593
13917TIP3   OH241693   2.740   0.704   0.849
13917TIP3    H141694   2.695   0.788   0.843
13917TIP3    H241695   2.670   0.638   0.847
13918TIP3   OH241696   5.898   1.286   2.336
13918TIP3    H141697   5.956   1.359   2.358
13918TIP3    H241698   5.937   1.210   2.380
13919TIP3   OH241699   1.159   6.523   6.170
13919TIP3    H141700   1.108   6.465   6.228
13919TIP3    H241701   1.239   6.540   6.218
13920TIP3   OH241702   7.505   3.277   0.032
13920TIP3    H141703   7.574   3.233   0.081
13920TIP3    H241704   7.544   3.361   0.007
13921TIP3   OH241705   4.060   5.626   2.664
13921TIP3    H141706   4.110   5.667   2.735
13921TIP3    H241707   4.013   5.699   2.624
13922TIP3   OH241708   2.356   0.396   1.864
13922TIP3    H141709   2.423   0.457   1.897
13922TIP3    H241710   2.330   0.346   1.940
13923TIP3   OH241711   1.506   0.929   0.078
13923TIP3    H141712   1.521   0.993   0.008
13923TIP3    H241713   1.557   0.853   0.051
13924TIP3   OH241714   0.306   0.631   5.605
13924TIP3    H141715   0.249   0.661   5.534
13924TIP3    H241716   0.288   0.537   5.613
13925TIP3   OH241717   7.010   3.342   5.927
13925TIP3    H141718   7.047   3.415   5.976
13925TIP3    H241719   7.083   3.280   5.918
13926TIP3   OH241720   7.453   4.300   6.350
13926TIP3    H141721   7.471   4.265   6.438
13926TIP3    H241722   7.416   4.225   6.303
13927TIP3   OH241723   4.528   5.157   2.056
13927TIP3    H141724   4.561   5.213   1.986
13927TIP3    H241725   4.477   5.090   2.011
13928TIP3   OH241726   5.841   5.236   3.813
13928TIP3    H141727   5.810   5.220   3.903
13928TIP3    H241728   5.815   5.326   3.795
13929TIP3   OH241729   2.909   3.794   2.056
13929TIP3    H141730   2.926   3.883   2.025
13929TIP3    H241731   2.948   3.737   1.990
13930TIP3   OH241732   6.788   3.970   2.955
13930TIP3    H141733   6.734   3.898   2.924
13930TIP3    H241734   6.725   4.033   2.992
13931TIP3   OH241735   0.612   7.577   2.910
13931TIP3    H141736   0.672   7.616   2.847
13931TIP3    H241737   0.531   7.563   2.861
13932TIP3   OH241738   3.674   7.251   2.304
13932TIP3    H141739   3.631   7.333   2.325
13932TIP3    H241740   3.602   7.188   2.293
13933TIP3   OH241741   5.489   6.351   6.474
13933TIP3    H141742   5.497   6.307   6.558
13933TIP3    H241743   5.498   6.281   6.409
13934TIP3   OH241744   0.558   5.094   2.987
13934TIP3    H141745   0.649   5.119   2.971
13934TIP3    H241746   0.558   4.999   2.981
13935TIP3   OH241747   0.917   7.287   6.061
13935TIP3    H141748   0.902   7.195   6.082
13935TIP3    H241749   0.946   7.327   6.143
13936TIP3   OH241750   2.717   7.399   3.319
13936TIP3    H141751   2.711   7.409   3.224
13936TIP3    H241752   2.811   7.403   3.337
13937TIP3   OH241753   1.011   0.344   1.390
13937TIP3    H141754   0.953   0.288   1.440
13937TIP3    H241755   1.015   0.304   1.303
13938TIP3   OH241756   5.714   3.848   6.753
13938TIP3    H141757   5.631   3.890   6.729
13938TIP3    H241758   5.688   3.767   6.796
13939TIP3   OH241759   3.011   7.759   5.308
13939TIP3    H141760   2.987   7.676   5.349
13939TIP3    H241761   2.978   7.826   5.369
13940TIP3   OH241762   2.041   6.570   2.413
13940TIP3    H141763   2.021   6.663   2.421
13940TIP3    H241764   1.989   6.528   2.482
13941TIP3   OH241765   1.215   5.795   3.961
13941TIP3    H141766   1.272   5.727   3.996
13941TIP3    H241767   1.139   5.795   4.020
13942TIP3   OH241768   5.793   5.012   4.734
13942TIP3    H141769   5.878   5.054   4.750
13942TIP3    H241770   5.731   5.063   4.786
13943TIP3   OH241771   7.332   1.428   0.268
13943TIP3    H141772   7.420   1.465   0.279
13943TIP3    H241773   7.297   1.422   0.357
13944TIP3   OH241774   2.878   5.037   2.081
13944TIP3    H141775   2.866   4.957   2.132
13944TIP3    H241776   2.791   5.076   2.075
13945TIP3   OH241777   1.410   3.317   0.890
13945TIP3    H141778   1.386   3.240   0.838
13945TIP3    H241779   1.471   3.283   0.956
13946TIP3   OH241780   0.873   5.069   3.790
13946TIP3    H141781   0.817   5.147   3.800
13946TIP3    H241782   0.907   5.054   3.878
13947TIP3   OH241783   0.359   1.626   6.349
13947TIP3    H141784   0.397   1.554   6.400
13947TIP3    H241785   0.377   1.704   6.403
13948TIP3   OH241786   1.997   4.784   6.526
13948TIP3    H141787   1.908   4.800   6.559
13948TIP3    H241788   2.051   4.850   6.570
13949TIP3   OH241789   5.056   5.044   5.793
13949TIP3    H141790   5.100   4.959   5.795
13949TIP3    H241791   5.039   5.064   5.886
13950TIP3   OH241792   7.035   5.754   3.653
13950TIP3    H141793   7.033   5.802   3.570
13950TIP3    H241794   6.949   5.712   3.658
13951TIP3   OH241795   6.526   7.684   1.708
13951TIP3    H141796   6.574   7.641   1.779
13951TIP3    H241797   6.524   7.619   1.638
13952TIP3   OH241798   1.539   3.595   0.182
13952TIP3    H141799   1.596   3.536   0.231
13952TIP3    H241800   1.581   3.681   0.189
13953TIP3   OH241801   3.417   4.372   3.882
13953TIP3    H141802   3.385   4.367   3.972
13953TIP3    H241803   3.416   4.281   3.851
13954TIP3   OH241804   6.313   1.297   6.263
13954TIP3    H141805   6.286   1.234   6.195
13954TIP3    H241806   6.256   1.276   6.337
13955TIP3   OH241807   2.102   1.314   1.442
13955TIP3    H141808   2.124   1.359   1.523
13955TIP3    H241809   2.024   1.263   1.463
13956TIP3   OH241810   3.972   4.773   2.624
13956TIP3    H141811   4.017   4.857   2.615
13956TIP3    H241812   4.034   4.708   2.591
13957TIP3   OH241813   3.036   0.284   0.058
13957TIP3    H141814   3.081   0.216   0.008
13957TIP3    H241815   3.055   0.263   0.149
13958TIP3   OH241816   7.206   3.319   4.769
13958TIP3    H141817   7.235   3.258   4.701
13958TIP3    H241818   7.256   3.399   4.752
13959TIP3   OH241819   4.242   3.269   2.023
13959TIP3    H141820   4.197   3.186   2.033
13959TIP3    H241821   4.238   3.309   2.110
13960TIP3   OH241822   0.375   5.953   5.544
13960TIP3    H141823   0.321   6.017   5.497
13960TIP3    H241824   0.315   5.911   5.605
13961TIP3   OH241825   0.819   4.461   0.756
13961TIP3    H141826   0.871   4.381   0.762
13961TIP3    H241827   0.758   4.456   0.830
13962TIP3   OH241828   0.530   1.696   5.646
13962TIP3    H141829   0.617   1.688   5.685
13962TIP3    H241830   0.490   1.611   5.660
13963TIP3   OH241831   0.949   5.682   4.905
13963TIP3    H141832   1.017   5.681   4.838
13963TIP3    H241833   0.871   5.651   4.859
13964TIP3   OH241834   1.952   6.949   0.076
13964TIP3    H141835   2.019   6.950   0.145
13964TIP3    H241836   1.873   6.919   0.121
13965TIP3   OH241837   6.382   3.655   2.803
13965TIP3    H141838   6.450   3.596   2.770
13965TIP3    H241839   6.331   3.678   2.725
13966TIP3   OH241840   4.314   3.373   5.638
13966TIP3    H141841   4.361   3.310   5.692
13966TIP3    H241842   4.328   3.344   5.548
13967TIP3   OH241843   6.940   7.313   3.746
13967TIP3    H141844   6.937   7.271   3.832
13967TIP3    H241845   6.904   7.247   3.686
13968TIP3   OH241846   2.931   3.873   5.630
13968TIP3    H141847   3.003   3.906   5.684
13968TIP3    H241848   2.881   3.951   5.607
13969TIP3   OH241849   4.011   5.884   2.508
13969TIP3    H141850   4.051   5.927   2.583
13969TIP3    H241851   3.923   5.919   2.504
13970TIP3   OH241852   8.001   2.975   2.896
13970TIP3    H141853   8.057   2.991   2.972
13970TIP3    H241854   8.055   2.999   2.821
13971TIP3   OH241855   0.331   1.643   2.858
13971TIP3    H141856   0.286   1.716   2.816
13971TIP3    H241857   0.273   1.617   2.930
13972TIP3   OH241858   4.829   0.542   2.676
13972TIP3    H141859   4.894   0.591   2.726
13972TIP3    H241860   4.786   0.486   2.741
13973TIP3   OH241861   7.645   5.378   0.514
13973TIP3    H141862   7.562   5.342   0.482
13973TIP3    H241863   7.624   5.412   0.601
13974TIP3   OH241864   8.188   4.295   0.149
13974TIP3    H141865   8.211   4.321   0.239
13974TIP3    H241866   8.125   4.360   0.120
13975TIP3   OH241867   4.693   5.317   4.363
13975TIP3    H141868   4.666   5.408   4.373
13975TIP3    H241869   4.613   5.269   4.342
13976TIP3   OH241870   7.645   4.116   0.079
13976TIP3    H141871   7.671   4.155  -0.005
13976TIP3    H241872   7.726   4.081   0.116
13977TIP3   OH241873   7.179   0.883   0.541
13977TIP3    H141874   7.163   0.790   0.551
13977TIP3    H241875   7.217   0.892   0.453
13978TIP3   OH241876   6.893   4.334   1.229
13978TIP3    H141877   6.882   4.262   1.168
13978TIP3    H241878   6.827   4.398   1.204
13979TIP3   OH241879   7.463   2.598   1.283
13979TIP3    H141880   7.518   2.559   1.214
13979TIP3    H241881   7.511   2.676   1.309
13980TIP3   OH241882   3.825   0.991   4.621
13980TIP3    H141883   3.740   1.002   4.663
13980TIP3    H241884   3.873   1.071   4.641
13981TIP3   OH241885   3.660   4.562   3.869
13981TIP3    H141886   3.583   4.514   3.901
13981TIP3    H241887   3.694   4.508   3.798
13982TIP3   OH241888   7.981   4.111   3.434
13982TIP3    H141889   7.981   4.132   3.341
13982TIP3    H241890   8.057   4.157   3.469
13983TIP3   OH241891   5.936   7.365   1.619
13983TIP3    H141892   5.860   7.340   1.568
13983TIP3    H241893   5.925   7.320   1.703
13984TIP3   OH241894   0.735   2.518   6.207
13984TIP3    H141895   0.767   2.604   6.235
13984TIP3    H241896   0.756   2.513   6.114
13985TIP3   OH241897   0.917   5.526   4.218
13985TIP3    H141898   0.912   5.576   4.299
13985TIP3    H241899   0.999   5.477   4.226
13986TIP3   OH241900   1.111   3.405   4.468
13986TIP3    H141901   1.106   3.405   4.372
13986TIP3    H241902   1.062   3.483   4.494
13987TIP3   OH241903   0.412   1.565   4.520
13987TIP3    H141904   0.376   1.479   4.545
13987TIP3    H241905   0.395   1.621   4.595
13988TIP3   OH241906   2.728   6.685   1.411
13988TIP3    H141907   2.658   6.741   1.378
13988TIP3    H241908   2.722   6.606   1.358
13989TIP3   OH241909   1.660   6.581   2.057
13989TIP3    H141910   1.674   6.557   2.149
13989TIP3    H241911   1.674   6.500   2.008
13990TIP3   OH241912   6.934   4.851   2.306
13990TIP3    H141913   6.995   4.811   2.246
13990TIP3    H241914   6.856   4.795   2.303
13991TIP3   OH241915   4.645   6.557   6.466
13991TIP3    H141916   4.593   6.561   6.546
13991TIP3    H241917   4.602   6.491   6.412
13992TIP3   OH241918   7.091   2.486   1.165
13992TIP3    H141919   7.016   2.429   1.185
13992TIP3    H241920   7.080   2.561   1.223
13993TIP3   OH241921   1.235   5.014   3.973
13993TIP3    H141922   1.294   5.028   4.046
13993TIP3    H241923   1.156   5.064   3.996
13994TIP3   OH241924   1.474   0.600   4.367
13994TIP3    H141925   1.442   0.562   4.449
13994TIP3    H241926   1.522   0.529   4.325
13995TIP3   OH241927   2.133   7.430   0.476
13995TIP3    H141928   2.079   7.454   0.551
13995TIP3    H241929   2.115   7.337   0.462
13996TIP3   OH241930   5.961   1.647   2.707
13996TIP3    H141931   5.995   1.576   2.760
13996TIP3    H241932   5.877   1.614   2.675
13997TIP3   OH241933   1.586   1.756   3.084
13997TIP3    H141934   1.541   1.691   3.138
13997TIP3    H241935   1.516   1.812   3.050
13998TIP3   OH241936   0.087   0.663   5.179
13998TIP3    H141937   0.038   0.613   5.245
13998TIP3    H241938   0.052   0.752   5.185
13999TIP3   OH241939   1.708   5.580   5.445
13999TIP3    H141940   1.632   5.552   5.496
13999TIP3    H241941   1.672   5.609   5.362
14000TIP3   OH241942   5.906   3.969   6.581
14000TIP3    H141943   5.840   3.921   6.632
14000TIP3    H241944   5.856   4.012   6.512
14001TIP3   OH241945   7.157   0.896   1.630
14001TIP3    H141946   7.085   0.933   1.681
14001TIP3    H241947   7.235   0.939   1.666
14002TIP3   OH241948   5.434   6.365   6.121
14002TIP3    H141949   5.379   6.377   6.044
14002TIP3    H241950   5.508   6.424   6.107
14003TIP3   OH241951   5.176   7.372   6.727
14003TIP3    H141952   5.178   7.313   6.802
14003TIP3    H241953   5.123   7.326   6.662
14004TIP3   OH241954   4.283   6.772   2.677
14004TIP3    H141955   4.311   6.698   2.623
14004TIP3    H241956   4.364   6.812   2.707
14005TIP3   OH241957   2.405   6.904   3.865
14005TIP3    H141958   2.339   6.938   3.804
14005TIP3    H241959   2.469   6.975   3.872
14006TIP3   OH241960   1.553   2.622   3.349
14006TIP3    H141961   1.562   2.594   3.440
14006TIP3    H241962   1.639   2.604   3.310
14007TIP3   OH241963   5.725   0.289   3.380
14007TIP3    H141964   5.648   0.252   3.336
14007TIP3    H241965   5.691   0.361   3.432
14008TIP3   OH241966   0.940   6.876   4.296
14008TIP3    H141967   0.910   6.812   4.361
14008TIP3    H241968   1.003   6.827   4.242
14009TIP3   OH241969   3.628   7.709   5.752
14009TIP3    H141970   3.610   7.745   5.838
14009TIP3    H241971   3.660   7.620   5.769
14010TIP3   OH241972   2.023   7.629   3.793
14010TIP3    H141973   2.003   7.540   3.765
14010TIP3    H241974   1.938   7.670   3.807
14011TIP3   OH241975   4.989   4.359   3.053
14011TIP3    H141976   4.905   4.346   3.098
14011TIP3    H241977   4.974   4.435   2.996
14012TIP3   OH241978   6.222   1.535   1.836
14012TIP3    H141979   6.181   1.612   1.877
14012TIP3    H241980   6.316   1.553   1.839
14013TIP3   OH241981   1.967   3.186   0.521
14013TIP3    H141982   2.003   3.110   0.568
14013TIP3    H241983   1.874   3.167   0.514
14014TIP3   OH241984   3.658   0.440   3.899
14014TIP3    H141985   3.605   0.465   3.824
14014TIP3    H241986   3.604   0.376   3.947
14015TIP3   OH241987   1.793   0.616   1.282
14015TIP3    H141988   1.753   0.666   1.211
14015TIP3    H241989   1.872   0.579   1.244
14016TIP3   OH241990   3.226   0.246   1.368
14016TIP3    H141991   3.189   0.303   1.300
14016TIP3    H241992   3.235   0.302   1.444
14017TIP3   OH241993   2.747   3.150   4.705
14017TIP3    H141994   2.686   3.167   4.634
14017TIP3    H241995   2.769   3.057   4.696
14018TIP3   OH241996   4.359   2.499   2.521
14018TIP3    H141997   4.308   2.445   2.461
14018TIP3    H241998   4.421   2.546   2.464
14019TIP3   OH241999   3.717   3.333   5.636
14019TIP3    H142000   3.795   3.280   5.650
14019TIP3    H242001   3.700   3.373   5.721
14020TIP3   OH242002   3.558   2.272   0.029
14020TIP3    H142003   3.603   2.297   0.110
14020TIP3    H242004   3.503   2.347   0.008
14021TIP3   OH242005   1.707   4.341   0.932
14021TIP3    H142006   1.645   4.367   0.864
14021TIP3    H242007   1.658   4.352   1.014
14022TIP3   OH242008   0.160   0.783   5.424
14022TIP3    H142009   0.098   0.820   5.360
14022TIP3    H242010   0.244   0.785   5.380
14023TIP3   OH242011   3.911   4.342   4.762
14023TIP3    H142012   3.818   4.327   4.750
14023TIP3    H242013   3.953   4.299   4.687
14024TIP3   OH242014   3.622   3.409   1.767
14024TIP3    H142015   3.587   3.454   1.690
14024TIP3    H242016   3.577   3.324   1.768
14025TIP3   OH242017   3.176   1.976   1.325
14025TIP3    H142018   3.151   2.065   1.353
14025TIP3    H242019   3.093   1.937   1.296
14026TIP3   OH242020   6.407   7.508   3.686
14026TIP3    H142021   6.396   7.466   3.772
14026TIP3    H242022   6.468   7.580   3.702
14027TIP3   OH242023   3.042   5.180   6.740
14027TIP3    H142024   3.004   5.142   6.661
14027TIP3    H242025   2.992   5.260   6.755
14028TIP3   OH242026   4.987   4.738   4.628
14028TIP3    H142027   4.912   4.692   4.591
14028TIP3    H242028   4.973   4.830   4.604
14029TIP3   OH242029   7.197   5.427   3.897
14029TIP3    H142030   7.149   5.402   3.976
14029TIP3    H242031   7.265   5.359   3.888
14030TIP3   OH242032   0.338   0.034   2.811
14030TIP3    H142033   0.257   0.078   2.784
14030TIP3    H242034   0.398   0.047   2.737
14031TIP3   OH242035   7.987   7.782   3.206
14031TIP3    H142036   7.945   7.849   3.260
14031TIP3    H242037   8.078   7.809   3.200
14032TIP3   OH242038   1.460   5.946   6.285
14032TIP3    H142039   1.416   5.891   6.221
14032TIP3    H242040   1.396   6.013   6.308
14033TIP3   OH242041   8.210   3.574   1.736
14033TIP3    H142042   8.287   3.600   1.787
14033TIP3    H242043   8.202   3.480   1.751
14034TIP3   OH242044   8.122   7.564   6.598
14034TIP3    H142045   8.133   7.548   6.692
14034TIP3    H242046   8.094   7.656   6.593
14035TIP3   OH242047   5.269   6.447   3.638
14035TIP3    H142048   5.240   6.494   3.560
14035TIP3    H242049   5.189   6.413   3.677
14036TIP3   OH242050   7.962   1.161   1.938
14036TIP3    H142051   7.915   1.227   1.988
14036TIP3    H242052   8.034   1.208   1.897
14037TIP3   OH242053   4.318   4.095   1.860
14037TIP3    H142054   4.242   4.145   1.832
14037TIP3    H242055   4.370   4.082   1.780
14038TIP3   OH242056   1.370   5.554   6.001
14038TIP3    H142057   1.458   5.581   6.026
14038TIP3    H242058   1.327   5.636   5.974
14039TIP3   OH242059   7.697   0.949   5.659
14039TIP3    H142060   7.652   1.009   5.720
14039TIP3    H242061   7.635   0.937   5.588
14040TIP3   OH242062   8.009   0.532   3.408
14040TIP3    H142063   7.918   0.507   3.397
14040TIP3    H242064   8.007   0.628   3.417
14041TIP3   OH242065   1.536   2.138   5.096
14041TIP3    H142066   1.561   2.065   5.152
14041TIP3    H242067   1.526   2.212   5.156
14042TIP3   OH242068   3.852   4.480   5.981
14042TIP3    H142069   3.887   4.461   6.068
14042TIP3    H242070   3.779   4.419   5.970
14043TIP3   OH242071   5.010   5.621   2.452
14043TIP3    H142072   4.956   5.550   2.417
14043TIP3    H242073   5.097   5.582   2.464
14044TIP3   OH242074   3.650   7.458   6.307
14044TIP3    H142075   3.709   7.464   6.382
14044TIP3    H242076   3.624   7.366   6.304
14045TIP3   OH242077   4.893   7.801   4.959
14045TIP3    H142078   4.912   7.741   5.031
14045TIP3    H242079   4.974   7.802   4.907
14046TIP3   OH242080   6.518   2.930   3.517
14046TIP3    H142081   6.504   2.885   3.601
14046TIP3    H242082   6.560   2.864   3.462
14047TIP3   OH242083   5.067   3.231   2.979
14047TIP3    H142084   4.995   3.202   3.034
14047TIP3    H242085   5.131   3.160   2.985
14048TIP3   OH242086   7.388   5.758   1.759
14048TIP3    H142087   7.369   5.688   1.696
14048TIP3    H242088   7.302   5.795   1.780
14049TIP3   OH242089   8.262   3.027   4.731
14049TIP3    H142090   8.178   2.988   4.705
14049TIP3    H242091   8.275   3.098   4.669
14050TIP3   OH242092   7.729   3.632   1.315
14050TIP3    H142093   7.737   3.711   1.261
14050TIP3    H242094   7.770   3.655   1.398
14051TIP3   OH242095   3.993   2.225   5.624
14051TIP3    H142096   4.071   2.274   5.596
14051TIP3    H242097   3.999   2.142   5.577
14052TIP3   OH242098   0.016   4.550   4.809
14052TIP3    H142099  -0.052   4.608   4.775
14052TIP3    H242100   0.081   4.544   4.739
14053TIP3   OH242101   2.695   1.027   2.209
14053TIP3    H142102   2.695   1.122   2.198
14053TIP3    H242103   2.721   1.013   2.300
14054TIP3   OH242104   1.885   2.251   3.871
14054TIP3    H142105   1.888   2.311   3.797
14054TIP3    H242106   1.975   2.251   3.905
14055TIP3   OH242107   3.482   2.076   5.625
14055TIP3    H142108   3.543   2.145   5.600
14055TIP3    H242109   3.412   2.082   5.560
14056TIP3   OH242110   4.642   3.130   5.528
14056TIP3    H142111   4.722   3.119   5.476
14056TIP3    H242112   4.668   3.110   5.617
14057TIP3   OH242113   0.638   0.470   2.388
14057TIP3    H142114   0.671   0.546   2.340
14057TIP3    H242115   0.625   0.403   2.321
14058TIP3   OH242116   0.363   1.780   5.277
14058TIP3    H142117   0.340   1.803   5.367
14058TIP3    H242118   0.322   1.848   5.224
14059TIP3   OH242119   8.131   7.069   5.979
14059TIP3    H142120   8.190   7.019   6.036
14059TIP3    H242121   8.078   7.121   6.039
14060TIP3   OH242122   6.347   7.051   0.133
14060TIP3    H142123   6.433   7.051   0.176
14060TIP3    H242124   6.368   7.064   0.040
14061TIP3   OH242125   6.061   0.015   0.609
14061TIP3    H142126   6.073  -0.062   0.664
14061TIP3    H242127   6.138   0.069   0.626
14062TIP3   OH242128   2.583   4.847   1.627
14062TIP3    H142129   2.604   4.936   1.654
14062TIP3    H242130   2.615   4.792   1.698
14063TIP3   OH242131   5.454   3.855   5.197
14063TIP3    H142132   5.522   3.806   5.151
14063TIP3    H242133   5.470   3.836   5.289
14064TIP3   OH242134   4.599   3.393   3.103
14064TIP3    H142135   4.615   3.352   3.188
14064TIP3    H242136   4.527   3.341   3.065
14065TIP3   OH242137   3.624   1.529   3.175
14065TIP3    H142138   3.684   1.513   3.102
14065TIP3    H242139   3.664   1.485   3.250
14066TIP3   OH242140   4.084   2.916   5.113
14066TIP3    H142141   4.078   2.955   5.201
14066TIP3    H242142   4.038   2.833   5.121
14067TIP3   OH242143   8.274   0.341   5.842
14067TIP3    H142144   8.311   0.334   5.930
14067TIP3    H242145   8.271   0.251   5.809
14068TIP3   OH242146   2.358   6.489   5.395
14068TIP3    H142147   2.382   6.552   5.463
14068TIP3    H242148   2.412   6.513   5.320
14069TIP3   OH242149   3.658   6.051   4.097
14069TIP3    H142150   3.611   6.130   4.071
14069TIP3    H242151   3.670   6.003   4.015
14070TIP3   OH242152   2.121   7.328   4.084
14070TIP3    H142153   2.181   7.319   4.158
14070TIP3    H242154   2.164   7.281   4.013
14071TIP3   OH242155   3.168   6.653   3.238
14071TIP3    H142156   3.237   6.623   3.298
14071TIP3    H242157   3.125   6.725   3.285
14072TIP3   OH242158   4.430   6.007   3.051
14072TIP3    H142159   4.444   6.037   2.961
14072TIP3    H242160   4.340   6.032   3.071
14073TIP3   OH242161   5.663   3.902   2.476
14073TIP3    H142162   5.667   3.852   2.395
14073TIP3    H242163   5.580   3.949   2.471
14074TIP3   OH242164   6.828   6.852   5.190
14074TIP3    H142165   6.821   6.918   5.259
14074TIP3    H242166   6.915   6.864   5.154
14075TIP3   OH242167   2.359   6.354   3.928
14075TIP3    H142168   2.367   6.351   3.832
14075TIP3    H242169   2.435   6.404   3.957
14076TIP3   OH242170   4.720   4.284   0.749
14076TIP3    H142171   4.750   4.309   0.662
14076TIP3    H242172   4.750   4.356   0.806
14077TIP3   OH242173   7.791   7.249   3.531
14077TIP3    H142174   7.748   7.333   3.511
14077TIP3    H242175   7.840   7.228   3.451
14078TIP3   OH242176   8.036   3.268   1.486
14078TIP3    H142177   8.055   3.177   1.460
14078TIP3    H242178   7.968   3.296   1.425
14079TIP3   OH242179   4.632   1.842   5.034
14079TIP3    H142180   4.595   1.905   5.097
14079TIP3    H242181   4.703   1.890   4.992
14080TIP3   OH242182   2.479   1.186   0.897
14080TIP3    H142183   2.415   1.162   0.964
14080TIP3    H242184   2.563   1.185   0.942
14081TIP3   OH242185   5.145   2.405   2.090
14081TIP3    H142186   5.097   2.347   2.030
14081TIP3    H242187   5.102   2.391   2.175
14082TIP3   OH242188   4.727   1.009   4.044
14082TIP3    H142189   4.653   0.953   4.020
14082TIP3    H242190   4.804   0.961   4.014
14083TIP3   OH242191   4.056   4.338   5.598
14083TIP3    H142192   3.975   4.383   5.574
14083TIP3    H242193   4.067   4.357   5.692
14084TIP3   OH242194   0.316   1.326   1.827
14084TIP3    H142195   0.267   1.245   1.812
14084TIP3    H242196   0.265   1.374   1.892
14085TIP3   OH242197   2.708   5.451   6.196
14085TIP3    H142198   2.641   5.385   6.211
14085TIP3    H242199   2.782   5.403   6.158
14086TIP3   OH242200   0.876   6.512   2.877
14086TIP3    H142201   0.901   6.473   2.793
14086TIP3    H242202   0.958   6.522   2.925
14087TIP3   OH242203   2.349   0.705   2.413
14087TIP3    H142204   2.412   0.642   2.379
14087TIP3    H242205   2.268   0.655   2.424
14088TIP3   OH242206   3.532   0.567   0.214
14088TIP3    H142207   3.461   0.624   0.184
14088TIP3    H242208   3.578   0.542   0.133
14089TIP3   OH242209   5.714   7.048   5.850
14089TIP3    H142210   5.660   6.969   5.839
14089TIP3    H242211   5.673   7.096   5.922
14090TIP3   OH242212   1.689   3.656   4.673
14090TIP3    H142213   1.642   3.573   4.668
14090TIP3    H242214   1.679   3.684   4.764
14091TIP3   OH242215   2.797   6.685   6.326
14091TIP3    H142216   2.822   6.707   6.236
14091TIP3    H242217   2.702   6.697   6.328
14092TIP3   OH242218   8.022   0.588   2.346
14092TIP3    H142219   8.011   0.668   2.398
14092TIP3    H242220   8.009   0.517   2.409
14093TIP3   OH242221   7.170   7.497   2.134
14093TIP3    H142222   7.127   7.445   2.066
14093TIP3    H242223   7.263   7.480   2.121
14094TIP3   OH242224   6.343   3.340   5.864
14094TIP3    H142225   6.274   3.396   5.900
14094TIP3    H242226   6.298   3.258   5.843
14095TIP3   OH242227   1.365   0.676   3.999
14095TIP3    H142228   1.425   0.604   4.017
14095TIP3    H242229   1.390   0.707   3.912
14096TIP3   OH242230   2.118   6.138   0.527
14096TIP3    H142231   2.208   6.161   0.501
14096TIP3    H242232   2.110   6.045   0.507
14097TIP3   OH242233   3.958   5.656   1.759
14097TIP3    H142234   3.895   5.619   1.821
14097TIP3    H242235   4.025   5.696   1.815
14098TIP3   OH242236   1.767   3.350   3.109
14098TIP3    H142237   1.820   3.274   3.083
14098TIP3    H242238   1.784   3.415   3.041
14099TIP3   OH242239   7.341   7.633   0.563
14099TIP3    H142240   7.267   7.573   0.552
14099TIP3    H242241   7.407   7.581   0.609
14100TIP3   OH242242   0.441   1.486   0.409
14100TIP3    H142243   0.350   1.475   0.384
14100TIP3    H242244   0.451   1.434   0.489
14101TIP3   OH242245   6.956   0.597   0.585
14101TIP3    H142246   6.935   0.581   0.493
14101TIP3    H242247   7.051   0.607   0.587
14102TIP3   OH242248   7.950   7.622   0.729
14102TIP3    H142249   7.858   7.600   0.741
14102TIP3    H242250   7.996   7.541   0.751
14103TIP3   OH242251   5.366   7.206   0.937
14103TIP3    H142252   5.329   7.142   0.998
14103TIP3    H242253   5.450   7.168   0.910
14104TIP3   OH242254   1.719   4.866   4.522
14104TIP3    H142255   1.713   4.957   4.550
14104TIP3    H242256   1.630   4.831   4.533
14105TIP3   OH242257   1.102   6.265   0.345
14105TIP3    H142258   1.062   6.260   0.432
14105TIP3    H242259   1.152   6.346   0.345
14106TIP3   OH242260   3.407   1.829   1.331
14106TIP3    H142261   3.460   1.901   1.296
14106TIP3    H242262   3.320   1.866   1.345
14107TIP3   OH242263   3.405   0.070   3.431
14107TIP3    H142264   3.316   0.105   3.428
14107TIP3    H242265   3.445   0.098   3.349
14108TIP3   OH242266   0.255   6.350   5.497
14108TIP3    H142267   0.335   6.320   5.454
14108TIP3    H242268   0.184   6.316   5.442
14109TIP3   OH242269   2.480   5.302   4.328
14109TIP3    H142270   2.440   5.383   4.296
14109TIP3    H242271   2.530   5.269   4.254
14110TIP3   OH242272   4.876   1.350   6.756
14110TIP3    H142273   4.913   1.266   6.726
14110TIP3    H242274   4.821   1.327   6.830
14111TIP3   OH242275   6.086   1.960   0.298
14111TIP3    H142276   6.051   1.996   0.216
14111TIP3    H242277   6.043   2.011   0.367
14112TIP3   OH242278   3.809   1.724   5.754
14112TIP3    H142279   3.741   1.756   5.695
14112TIP3    H242280   3.863   1.667   5.699
14113TIP3   OH242281   7.120   3.967   0.650
14113TIP3    H142282   7.134   4.034   0.583
14113TIP3    H242283   7.041   3.921   0.621
14114TIP3   OH242284   4.787   7.789   6.392
14114TIP3    H142285   4.847   7.723   6.426
14114TIP3    H242286   4.737   7.818   6.468
14115TIP3   OH242287   0.091   2.073   1.028
14115TIP3    H142288   0.135   2.000   1.072
14115TIP3    H242289   0.024   2.031   0.973
14116TIP3   OH242290   4.455   3.782   1.293
14116TIP3    H142291   4.411   3.755   1.374
14116TIP3    H242292   4.548   3.786   1.317
14117TIP3   OH242293   6.863   1.515   5.870
14117TIP3    H142294   6.806   1.502   5.946
14117TIP3    H242295   6.824   1.459   5.802
14118TIP3   OH242296   4.037   5.371   5.145
14118TIP3    H142297   3.969   5.334   5.088
14118TIP3    H242298   4.069   5.296   5.196
14119TIP3   OH242299   3.540   2.421   5.699
14119TIP3    H142300   3.631   2.411   5.672
14119TIP3    H242301   3.526   2.350   5.761
14120TIP3   OH242302   1.046   6.262   4.073
14120TIP3    H142303   1.086   6.297   4.153
14120TIP3    H242304   0.967   6.218   4.103
14121TIP3   OH242305   6.374   6.364   1.765
14121TIP3    H142306   6.365   6.400   1.854
14121TIP3    H242307   6.458   6.317   1.767
14122TIP3   OH242308   7.777   7.292   0.667
14122TIP3    H142309   7.760   7.385   0.683
14122TIP3    H242310   7.693   7.250   0.683
14123TIP3   OH242311   0.691   2.897   6.065
14123TIP3    H142312   0.758   2.950   6.022
14123TIP3    H242313   0.610   2.920   6.021
14124TIP3   OH242314   7.573   3.449   1.924
14124TIP3    H142315   7.500   3.505   1.952
14124TIP3    H242316   7.532   3.383   1.868
14125TIP3   OH242317   3.046   1.123   2.322
14125TIP3    H142318   2.991   1.154   2.394
14125TIP3    H242319   3.040   1.191   2.256
14126TIP3   OH242320   3.148   5.950   6.288
14126TIP3    H142321   3.188   5.949   6.375
14126TIP3    H242322   3.054   5.949   6.306
14127TIP3   OH242323   3.122   3.958   5.192
14127TIP3    H142324   3.116   3.862   5.189
14127TIP3    H242325   3.082   3.983   5.275
14128TIP3   OH242326   1.623   3.671   2.223
14128TIP3    H142327   1.579   3.586   2.228
14128TIP3    H242328   1.593   3.708   2.140
14129TIP3   OH242329   2.652   4.897   1.360
14129TIP3    H142330   2.615   4.983   1.342
14129TIP3    H242331   2.637   4.885   1.454
14130TIP3   OH242332   2.895   1.689   2.783
14130TIP3    H142333   2.918   1.604   2.745
14130TIP3    H242334   2.799   1.688   2.786
14131TIP3   OH242335   8.205   1.250   1.162
14131TIP3    H142336   8.146   1.225   1.090
14131TIP3    H242337   8.186   1.342   1.178
14132TIP3   OH242338   3.869   7.484   1.053
14132TIP3    H142339   3.945   7.461   1.107
14132TIP3    H242340   3.796   7.488   1.114
14133TIP3   OH242341   7.006   2.949   3.521
14133TIP3    H142342   7.078   2.946   3.458
14133TIP3    H242343   7.036   2.893   3.593
14134TIP3   OH242344   5.937   6.207   2.608
14134TIP3    H142345   5.902   6.131   2.561
14134TIP3    H242346   5.860   6.247   2.648
14135TIP3   OH242347   3.934   2.906   3.624
14135TIP3    H142348   3.878   2.983   3.610
14135TIP3    H242349   3.997   2.910   3.553
14136TIP3   OH242350   1.910   4.722   2.888
14136TIP3    H142351   1.875   4.761   2.808
14136TIP3    H242352   1.890   4.628   2.879
14137TIP3   OH242353   7.878   3.476   4.192
14137TIP3    H142354   7.803   3.416   4.190
14137TIP3    H242355   7.857   3.538   4.262
14138TIP3   OH242356   4.109   6.976   0.199
14138TIP3    H142357   4.153   6.906   0.152
14138TIP3    H242358   4.171   7.003   0.266
14139TIP3   OH242359   2.413   0.726   1.250
14139TIP3    H142360   2.356   0.685   1.314
14139TIP3    H242361   2.357   0.792   1.207
14140TIP3   OH242362   2.741   7.567   5.920
14140TIP3    H142363   2.790   7.645   5.892
14140TIP3    H242364   2.679   7.551   5.849
14141TIP3   OH242365   5.740   5.351   3.449
14141TIP3    H142366   5.771   5.272   3.494
14141TIP3    H242367   5.653   5.368   3.486
14142TIP3   OH242368   1.442   4.885   2.625
14142TIP3    H142369   1.502   4.810   2.619
14142TIP3    H242370   1.458   4.922   2.712
14143TIP3   OH242371   3.105   6.933   0.677
14143TIP3    H142372   3.090   7.026   0.696
14143TIP3    H242373   3.035   6.887   0.723
14144TIP3   OH242374   2.415   2.852   0.068
14144TIP3    H142375   2.412   2.947   0.069
14144TIP3    H242376   2.341   2.825   0.014
14145TIP3   OH242377   5.260   6.850   0.962
14145TIP3    H142378   5.333   6.848   0.900
14145TIP3    H242379   5.184   6.820   0.911
14146TIP3   OH242380   0.533   6.386   3.868
14146TIP3    H142381   0.537   6.451   3.798
14146TIP3    H242382   0.612   6.334   3.859
14147TIP3   OH242383   8.303   1.140   3.008
14147TIP3    H142384   8.319   1.226   3.046
14147TIP3    H242385   8.229   1.105   3.059
14148TIP3   OH242386   7.640   4.095   0.689
14148TIP3    H142387   7.650   4.081   0.595
14148TIP3    H242388   7.550   4.068   0.708
14149TIP3   OH242389   2.132   2.758   1.466
14149TIP3    H142390   2.132   2.806   1.549
14149TIP3    H242391   2.221   2.723   1.459
14150TIP3   OH242392   7.438   4.959   4.209
14150TIP3    H142393   7.476   5.008   4.281
14150TIP3    H242394   7.345   4.983   4.210
14151TIP3   OH242395   2.063   4.745   5.843
14151TIP3    H142396   2.053   4.676   5.777
14151TIP3    H242397   2.011   4.818   5.809
14152TIP3   OH242398   6.273   5.195   2.877
14152TIP3    H142399   6.202   5.197   2.812
14152TIP3    H242400   6.309   5.106   2.870
14153TIP3   OH242401   1.812   5.785   1.711
14153TIP3    H142402   1.785   5.696   1.731
14153TIP3    H242403   1.907   5.786   1.727
14154TIP3   OH242404   0.582   6.033   5.333
14154TIP3    H142405   0.609   5.942   5.323
14154TIP3    H242406   0.490   6.034   5.305
14155TIP3   OH242407   4.709   3.114   1.756
14155TIP3    H142408   4.627   3.069   1.776
14155TIP3    H242409   4.705   3.130   1.661
14156TIP3   OH242410   4.125   6.785   0.903
14156TIP3    H142411   4.121   6.691   0.885
14156TIP3    H242412   4.136   6.791   0.997
14157TIP3   OH242413   4.325   4.280   6.489
14157TIP3    H142414   4.243   4.249   6.451
14157TIP3    H242415   4.316   4.375   6.490
14158TIP3   OH242416   5.517   5.318   5.649
14158TIP3    H142417   5.442   5.360   5.607
14158TIP3    H242418   5.558   5.266   5.580
14159TIP3   OH242419   0.049   7.187   3.315
14159TIP3    H142420   0.007   7.259   3.362
14159TIP3    H242421   0.088   7.133   3.384
14160TIP3   OH242422   7.448   3.612   1.322
14160TIP3    H142423   7.399   3.536   1.353
14160TIP3    H242424   7.538   3.580   1.313
14161TIP3   OH242425   5.016   5.413   4.363
14161TIP3    H142426   4.944   5.351   4.378
14161TIP3    H242427   4.992   5.491   4.412
14162TIP3   OH242428   4.480   2.521   3.506
14162TIP3    H142429   4.574   2.531   3.519
14162TIP3    H242430   4.461   2.431   3.531
14163TIP3   OH242431   1.111   5.337   4.813
14163TIP3    H142432   1.119   5.319   4.907
14163TIP3    H242433   1.042   5.277   4.784
14164TIP3   OH242434   2.612   4.486   5.808
14164TIP3    H142435   2.518   4.483   5.827
14164TIP3    H242436   2.654   4.468   5.891
14165TIP3   OH242437   4.477   4.285   4.544
14165TIP3    H142438   4.479   4.301   4.638
14165TIP3    H242439   4.408   4.342   4.511
14166TIP3   OH242440   3.030   1.909   1.916
14166TIP3    H142441   2.956   1.882   1.862
14166TIP3    H242442   3.058   1.992   1.879
14167TIP3   OH242443   8.129   6.506   2.935
14167TIP3    H142444   8.124   6.527   2.842
14167TIP3    H242445   8.216   6.535   2.962
14168TIP3   OH242446   1.079   7.192   2.257
14168TIP3    H142447   1.064   7.170   2.165
14168TIP3    H242448   1.114   7.112   2.296
14169TIP3   OH242449   1.462   7.241   0.469
14169TIP3    H142450   1.467   7.336   0.458
14169TIP3    H242451   1.396   7.212   0.406
14170TIP3   OH242452   4.681   1.673   4.078
14170TIP3    H142453   4.759   1.619   4.069
14170TIP3    H242454   4.635   1.664   3.994
14171TIP3   OH242455   2.233   2.651   1.779
14171TIP3    H142456   2.196   2.735   1.752
14171TIP3    H242457   2.232   2.597   1.700
14172TIP3   OH242458   3.071   5.344   0.115
14172TIP3    H142459   3.104   5.417   0.166
14172TIP3    H242460   3.006   5.383   0.056
14173TIP3   OH242461   4.457   0.823   4.006
14173TIP3    H142462   4.518   0.784   4.068
14173TIP3    H242463   4.397   0.752   3.983
14174TIP3   OH242464   5.855   5.595   3.384
14174TIP3    H142465   5.945   5.579   3.413
14174TIP3    H242466   5.812   5.510   3.392
14175TIP3   OH242467   0.305   7.790   4.719
14175TIP3    H142468   0.336   7.877   4.745
14175TIP3    H242469   0.209   7.796   4.727
14176TIP3   OH242470   3.920   1.785   1.297
14176TIP3    H142471   4.001   1.756   1.255
14176TIP3    H242472   3.863   1.810   1.224
14177TIP3   OH242473   2.202   5.483   5.187
14177TIP3    H142474   2.193   5.506   5.094
14177TIP3    H242475   2.112   5.481   5.219
14178TIP3   OH242476   2.519   6.090   4.501
14178TIP3    H142477   2.570   6.133   4.569
14178TIP3    H242478   2.436   6.136   4.500
14179TIP3   OH242479   4.342   4.552   1.924
14179TIP3    H142480   4.311   4.639   1.952
14179TIP3    H242481   4.261   4.503   1.906
14180TIP3   OH242482   2.631   1.110   0.283
14180TIP3    H142483   2.680   1.030   0.266
14180TIP3    H242484   2.556   1.106   0.223
14181TIP3   OH242485   5.686   0.178   1.287
14181TIP3    H142486   5.635   0.102   1.315
14181TIP3    H242487   5.678   0.241   1.358
14182TIP3   OH242488   6.179   5.281   0.162
14182TIP3    H142489   6.182   5.284   0.257
14182TIP3    H242490   6.117   5.211   0.142
14183TIP3   OH242491   4.666   3.311   0.555
14183TIP3    H142492   4.681   3.221   0.525
14183TIP3    H242493   4.686   3.308   0.649
14184TIP3   OH242494   3.837   0.148   1.995
14184TIP3    H142495   3.791   0.149   1.911
14184TIP3    H242496   3.770   0.125   2.059
14185TIP3   OH242497   2.981   4.271   6.041
14185TIP3    H142498   2.924   4.202   6.009
14185TIP3    H242499   2.942   4.298   6.124
14186TIP3   OH242500   1.835   3.396   1.859
14186TIP3    H142501   1.801   3.310   1.837
14186TIP3    H242502   1.883   3.383   1.941
14187TIP3   OH242503   2.735   1.751   5.565
14187TIP3    H142504   2.700   1.839   5.551
14187TIP3    H242505   2.702   1.700   5.492
14188TIP3   OH242506   2.437   7.330   4.006
14188TIP3    H142507   2.410   7.317   4.097
14188TIP3    H242508   2.528   7.302   4.004
14189TIP3   OH242509   3.209   7.332   3.383
14189TIP3    H142510   3.275   7.400   3.367
14189TIP3    H242511   3.233   7.295   3.468
14190TIP3   OH242512   5.558   3.784   3.224
14190TIP3    H142513   5.569   3.854   3.287
14190TIP3    H242514   5.514   3.825   3.149
14191TIP3   OH242515   7.316   1.451   3.616
14191TIP3    H142516   7.374   1.498   3.556
14191TIP3    H242517   7.373   1.391   3.663
14192TIP3   OH242518   7.810   6.219   5.497
14192TIP3    H142519   7.826   6.286   5.563
14192TIP3    H242520   7.785   6.267   5.418
14193TIP3   OH242521   4.836   0.308   0.961
14193TIP3    H142522   4.800   0.392   0.989
14193TIP3    H242523   4.787   0.243   1.012
14194TIP3   OH242524   4.463   2.538   2.838
14194TIP3    H142525   4.454   2.552   2.743
14194TIP3    H242526   4.556   2.553   2.856
14195TIP3   OH242527   6.154   4.718   4.143
14195TIP3    H142528   6.184   4.643   4.091
14195TIP3    H242529   6.188   4.702   4.231
14196TIP3   OH242530   3.810   3.304   2.704
14196TIP3    H142531   3.814   3.360   2.781
14196TIP3    H242532   3.890   3.251   2.708
14197TIP3   OH242533   1.895   7.029   5.104
14197TIP3    H142534   1.821   6.969   5.105
14197TIP3    H242535   1.864   7.104   5.052
14198TIP3   OH242536   4.665   5.282   1.842
14198TIP3    H142537   4.650   5.233   1.762
14198TIP3    H242538   4.756   5.311   1.836
14199TIP3   OH242539   2.513   3.818   4.622
14199TIP3    H142540   2.553   3.773   4.696
14199TIP3    H242541   2.419   3.819   4.642
14200TIP3   OH242542   6.879   5.762   2.478
14200TIP3    H142543   6.973   5.756   2.465
14200TIP3    H242544   6.867   5.759   2.573
14201TIP3   OH242545   2.004   0.125   3.118
14201TIP3    H142546   2.045   0.127   3.032
14201TIP3    H242547   2.053   0.059   3.167
14202TIP3   OH242548   3.652   6.716   3.736
14202TIP3    H142549   3.639   6.792   3.678
14202TIP3    H242550   3.672   6.755   3.821
14203TIP3   OH242551   3.346   5.675   1.944
14203TIP3    H142552   3.288   5.742   1.979
14203TIP3    H242553   3.326   5.596   1.995
14204TIP3   OH242554   5.790   4.448   2.537
14204TIP3    H142555   5.815   4.432   2.628
14204TIP3    H242556   5.785   4.360   2.498
14205TIP3   OH242557   7.446   2.896   0.379
14205TIP3    H142558   7.469   2.836   0.308
14205TIP3    H242559   7.531   2.919   0.419
14206TIP3   OH242560   2.735   6.033   3.152
14206TIP3    H142561   2.783   6.114   3.171
14206TIP3    H242562   2.651   6.045   3.197
14207TIP3   OH242563   4.152   3.847   2.907
14207TIP3    H142564   4.231   3.796   2.926
14207TIP3    H242565   4.185   3.934   2.884
14208TIP3   OH242566   4.772   4.034   3.331
14208TIP3    H142567   4.842   4.068   3.388
14208TIP3    H242568   4.745   3.952   3.372
14209TIP3   OH242569   0.536   2.378   1.803
14209TIP3    H142570   0.490   2.365   1.886
14209TIP3    H242571   0.600   2.447   1.822
14210TIP3   OH242572   2.380   0.160   5.915
14210TIP3    H142573   2.437   0.101   5.964
14210TIP3    H242574   2.397   0.246   5.953
14211TIP3   OH242575   7.957   3.772   6.125
14211TIP3    H142576   7.896   3.840   6.094
14211TIP3    H242577   7.900   3.697   6.145
14212TIP3   OH242578   0.004   7.265   5.148
14212TIP3    H142579   0.076   7.303   5.099
14212TIP3    H242580  -0.069   7.264   5.086
14213TIP3   OH242581   3.428   4.801   6.731
14213TIP3    H142582   3.438   4.780   6.638
14213TIP3    H242583   3.437   4.716   6.775
14214TIP3   OH242584   0.770   0.722   3.231
14214TIP3    H142585   0.823   0.643   3.218
14214TIP3    H242586   0.745   0.749   3.142
14215TIP3   OH242587   1.043   1.187   3.693
14215TIP3    H142588   1.069   1.221   3.608
14215TIP3    H242589   1.084   1.245   3.757
14216TIP3   OH242590   5.668   0.070   3.650
14216TIP3    H142591   5.713   0.114   3.578
14216TIP3    H242592   5.609   0.137   3.687
14217TIP3   OH242593   4.063   0.897   0.774
14217TIP3    H142594   4.099   0.903   0.685
14217TIP3    H242595   3.968   0.905   0.761
14218TIP3   OH242596   2.237   2.209   4.543
14218TIP3    H142597   2.171   2.272   4.515
14218TIP3    H242598   2.313   2.262   4.567
14219TIP3   OH242599   3.517   4.492   2.753
14219TIP3    H142600   3.445   4.519   2.810
14219TIP3    H242601   3.560   4.421   2.800
14220TIP3   OH242602   4.805   1.923   0.451
14220TIP3    H142603   4.900   1.937   0.448
14220TIP3    H242604   4.790   1.881   0.536
14221TIP3   OH242605   8.160   3.398   3.007
14221TIP3    H142606   8.073   3.369   3.035
14221TIP3    H242607   8.145   3.439   2.922
14222TIP3   OH242608   3.327   7.265   4.082
14222TIP3    H142609   3.411   7.274   4.036
14222TIP3    H242610   3.265   7.314   4.028
14223TIP3   OH242611   6.160   1.169   1.713
14223TIP3    H142612   6.220   1.119   1.657
14223TIP3    H242613   6.216   1.211   1.777
14224TIP3   OH242614   3.299   3.243   2.024
14224TIP3    H142615   3.309   3.203   2.110
14224TIP3    H242616   3.376   3.215   1.975
14225TIP3   OH242617   5.259   7.158   1.611
14225TIP3    H142618   5.222   7.090   1.554
14225TIP3    H242619   5.354   7.154   1.594
14226TIP3   OH242620   2.163   7.292   1.295
14226TIP3    H142621   2.128   7.316   1.210
14226TIP3    H242622   2.132   7.360   1.354
14227TIP3   OH242623   2.327   2.667   3.478
14227TIP3    H142624   2.348   2.711   3.396
14227TIP3    H242625   2.404   2.683   3.534
14228TIP3   OH242626   6.831   6.456   4.485
14228TIP3    H142627   6.788   6.539   4.507
14228TIP3    H242628   6.923   6.470   4.506
14229TIP3   OH242629   7.517   4.829   0.793
14229TIP3    H142630   7.423   4.830   0.810
14229TIP3    H242631   7.542   4.737   0.804
14230TIP3   OH242632   2.237   3.385   2.901
14230TIP3    H142633   2.168   3.441   2.938
14230TIP3    H242634   2.201   3.296   2.907
14231TIP3   OH242635   6.501   2.736   1.158
14231TIP3    H142636   6.536   2.726   1.246
14231TIP3    H242637   6.571   2.708   1.100
14232TIP3   OH242638   0.512   6.281   5.478
14232TIP3    H142639   0.515   6.186   5.487
14232TIP3    H242640   0.556   6.314   5.557
14233TIP3   OH242641   3.494   5.680   3.472
14233TIP3    H142642   3.402   5.670   3.448
14233TIP3    H242643   3.531   5.733   3.402
14234TIP3   OH242644   0.113   0.787   1.272
14234TIP3    H142645   0.193   0.773   1.221
14234TIP3    H242646   0.112   0.882   1.289
14235TIP3   OH242647   5.554   5.219   6.519
14235TIP3    H142648   5.547   5.282   6.591
14235TIP3    H242649   5.523   5.136   6.557
14236TIP3   OH242650   0.348   2.607   3.074
14236TIP3    H142651   0.391   2.546   3.014
14236TIP3    H242652   0.287   2.552   3.124
14237TIP3   OH242653   0.611   7.366   3.586
14237TIP3    H142654   0.678   7.435   3.593
14237TIP3    H242655   0.590   7.362   3.493
14238TIP3   OH242656   7.201   2.809   0.466
14238TIP3    H142657   7.154   2.809   0.383
14238TIP3    H242658   7.284   2.852   0.447
14239TIP3   OH242659   4.151   7.340   0.548
14239TIP3    H142660   4.065   7.376   0.571
14239TIP3    H242661   4.203   7.416   0.524
14240TIP3   OH242662   5.710   4.214   6.514
14240TIP3    H142663   5.701   4.302   6.551
14240TIP3    H242664   5.644   4.162   6.561
14241TIP3   OH242665   1.446   6.404   5.555
14241TIP3    H142666   1.354   6.401   5.532
14241TIP3    H242667   1.474   6.493   5.534
14242TIP3   OH242668   7.348   3.807   6.694
14242TIP3    H142669   7.268   3.825   6.742
14242TIP3    H242670   7.367   3.715   6.712
14243TIP3   OH242671   5.616   4.610   3.514
14243TIP3    H142672   5.637   4.540   3.575
14243TIP3    H242673   5.533   4.646   3.546
14244TIP3   OH242674   0.742   4.908   1.122
14244TIP3    H142675   0.655   4.913   1.162
14244TIP3    H242676   0.797   4.868   1.189
14245TIP3   OH242677   5.533   6.633   6.414
14245TIP3    H142678   5.490   6.661   6.495
14245TIP3    H242679   5.518   6.539   6.410
14246TIP3   OH242680   4.716   3.955   1.690
14246TIP3    H142681   4.810   3.940   1.687
14246TIP3    H242682   4.702   4.004   1.772
14247TIP3   OH242683   5.546   2.128   3.784
14247TIP3    H142684   5.613   2.061   3.770
14247TIP3    H242685   5.547   2.180   3.704
14248TIP3   OH242686   7.267   0.941   5.931
14248TIP3    H142687   7.332   0.871   5.940
14248TIP3    H242688   7.186   0.896   5.909
14249TIP3   OH242689   4.401   5.691   1.394
14249TIP3    H142690   4.310   5.667   1.379
14249TIP3    H242691   4.400   5.787   1.404
14250TIP3   OH242692   1.006   0.763   2.195
14250TIP3    H142693   0.987   0.762   2.101
14250TIP3    H242694   0.967   0.682   2.228
14251TIP3   OH242695   0.558   2.709   3.670
14251TIP3    H142696   0.573   2.801   3.651
14251TIP3    H242697   0.614   2.689   3.745
14252TIP3   OH242698   3.794   5.782   4.147
14252TIP3    H142699   3.713   5.831   4.135
14252TIP3    H242700   3.805   5.733   4.065
14253TIP3   OH242701   6.473   0.943   4.958
14253TIP3    H142702   6.533   0.993   4.903
14253TIP3    H242703   6.404   0.913   4.898
14254TIP3   OH242704   4.644   2.307   5.535
14254TIP3    H142705   4.679   2.308   5.446
14254TIP3    H242706   4.573   2.243   5.532
14255TIP3   OH242707   3.418   2.162   3.524
14255TIP3    H142708   3.457   2.103   3.459
14255TIP3    H242709   3.475   2.156   3.600
14256TIP3   OH242710   1.097   6.542   6.618
14256TIP3    H142711   1.182   6.520   6.657
14256TIP3    H242712   1.114   6.622   6.569
14257TIP3   OH242713   2.560   6.449   1.584
14257TIP3    H142714   2.533   6.413   1.500
14257TIP3    H242715   2.655   6.441   1.585
14258TIP3   OH242716   5.787   1.363   3.858
14258TIP3    H142717   5.804   1.453   3.884
14258TIP3    H242718   5.696   1.347   3.883
14259TIP3   OH242719   7.907   3.398   3.159
14259TIP3    H142720   7.874   3.487   3.147
14259TIP3    H242721   7.983   3.408   3.216
14260TIP3   OH242722   0.947   3.025   6.385
14260TIP3    H142723   0.951   2.957   6.452
14260TIP3    H242724   0.950   3.107   6.433
14261TIP3   OH242725   1.739   5.406   1.642
14261TIP3    H142726   1.827   5.442   1.629
14261TIP3    H242727   1.722   5.417   1.735
14262TIP3   OH242728   6.608   1.059   1.830
14262TIP3    H142729   6.526   1.064   1.880
14262TIP3    H242730   6.607   1.137   1.775
14263TIP3   OH242731   1.526   0.434   6.337
14263TIP3    H142732   1.622   0.426   6.342
14263TIP3    H242733   1.502   0.383   6.260
14264TIP3   OH242734   6.875   5.219   2.149
14264TIP3    H142735   6.909   5.154   2.087
14264TIP3    H242736   6.837   5.287   2.094
14265TIP3   OH242737   0.134   7.674   5.126
14265TIP3    H142738   0.156   7.582   5.117
14265TIP3    H242739   0.075   7.692   5.053
14266TIP3   OH242740  -0.010   4.361   5.430
14266TIP3    H142741   0.066   4.418   5.442
14266TIP3    H242742   0.008   4.286   5.487
14267TIP3   OH242743   6.413   0.322   0.161
14267TIP3    H142744   6.367   0.239   0.177
14267TIP3    H242745   6.370   0.385   0.219
14268TIP3   OH242746   0.602   3.390   3.169
14268TIP3    H142747   0.560   3.326   3.226
14268TIP3    H242748   0.595   3.352   3.081
14269TIP3   OH242749   2.529   7.073   2.020
14269TIP3    H142750   2.531   7.016   1.943
14269TIP3    H242751   2.501   7.158   1.986
14270TIP3   OH242752   3.496   3.778   0.431
14270TIP3    H142753   3.439   3.833   0.484
14270TIP3    H242754   3.505   3.696   0.480
14271TIP3   OH242755   1.005   6.649   0.991
14271TIP3    H142756   1.094   6.616   0.996
14271TIP3    H242757   0.953   6.590   1.046
14272TIP3   OH242758   7.198   2.952   3.069
14272TIP3    H142759   7.234   3.034   3.101
14272TIP3    H242760   7.144   2.919   3.141
14273TIP3   OH242761   7.765   2.702   0.875
14273TIP3    H142762   7.830   2.730   0.810
14273TIP3    H242763   7.682   2.734   0.841
14274TIP3   OH242764   7.399   2.132   5.705
14274TIP3    H142765   7.318   2.080   5.697
14274TIP3    H242766   7.376   2.216   5.666
14275TIP3   OH242767   4.165   2.465   0.689
14275TIP3    H142768   4.123   2.551   0.691
14275TIP3    H242769   4.160   2.438   0.597
14276TIP3   OH242770   2.340   5.939   6.428
14276TIP3    H142771   2.300   6.009   6.479
14276TIP3    H242772   2.432   5.964   6.421
14277TIP3   OH242773   1.558   0.501   3.322
14277TIP3    H142774   1.465   0.490   3.340
14277TIP3    H242775   1.562   0.521   3.228
14278TIP3   OH242776   5.153   3.321   3.851
14278TIP3    H142777   5.116   3.343   3.765
14278TIP3    H242778   5.125   3.392   3.908
14279TIP3   OH242779   5.397   4.126   0.841
14279TIP3    H142780   5.438   4.199   0.794
14279TIP3    H242781   5.375   4.063   0.774
14280TIP3   OH242782   6.037   5.027   6.479
14280TIP3    H142783   6.116   5.043   6.426
14280TIP3    H242784   6.064   4.963   6.544
14281TIP3   OH242785   3.932   6.453   3.095
14281TIP3    H142786   3.858   6.406   3.056
14281TIP3    H242787   3.931   6.427   3.187
14282TIP3   OH242788   3.920   1.160   0.455
14282TIP3    H142789   3.927   1.197   0.367
14282TIP3    H242790   4.011   1.144   0.482
14283TIP3   OH242791   5.803   1.378   1.788
14283TIP3    H142792   5.854   1.384   1.869
14283TIP3    H242793   5.796   1.469   1.758
14284TIP3   OH242794   1.555   5.377   2.719
14284TIP3    H142795   1.644   5.394   2.688
14284TIP3    H242796   1.566   5.359   2.813
14285TIP3   OH242797   0.506   6.724   4.017
14285TIP3    H142798   0.545   6.637   4.006
14285TIP3    H242799   0.505   6.760   3.928
14286TIP3   OH242800   1.696   0.586   4.601
14286TIP3    H142801   1.632   0.648   4.563
14286TIP3    H242802   1.765   0.642   4.637
14287TIP3   OH242803   2.020   7.579   1.021
14287TIP3    H142804   1.970   7.582   1.102
14287TIP3    H242805   2.024   7.486   0.998
14288TIP3   OH242806   4.296   2.790   5.665
14288TIP3    H142807   4.371   2.818   5.612
14288TIP3    H242808   4.275   2.867   5.719
14289TIP3   OH242809   0.608   0.691   5.275
14289TIP3    H142810   0.643   0.709   5.188
14289TIP3    H242811   0.566   0.606   5.268
14290TIP3   OH242812   2.422   6.905   4.340
14290TIP3    H142813   2.338   6.898   4.387
14290TIP3    H242814   2.411   6.850   4.263
14291TIP3   OH242815   3.957   0.404   1.300
14291TIP3    H142816   3.878   0.409   1.246
14291TIP3    H242817   4.029   0.416   1.237
14292TIP3   OH242818   7.588   6.113   4.801
14292TIP3    H142819   7.635   6.046   4.850
14292TIP3    H242820   7.499   6.079   4.794
14293TIP3   OH242821   7.830   3.835   5.454
14293TIP3    H142822   7.804   3.745   5.471
14293TIP3    H242823   7.864   3.834   5.364
14294TIP3   OH242824   6.147   2.743   6.251
14294TIP3    H142825   6.134   2.772   6.342
14294TIP3    H242826   6.075   2.785   6.203
14295TIP3   OH242827   2.295   6.162   6.583
14295TIP3    H142828   2.250   6.219   6.645
14295TIP3    H242829   2.386   6.191   6.586
14296TIP3   OH242830   2.775   4.396   1.647
14296TIP3    H142831   2.805   4.455   1.716
14296TIP3    H242832   2.692   4.360   1.680
14297TIP3   OH242833   6.821   4.839   1.870
14297TIP3    H142834   6.877   4.764   1.890
14297TIP3    H242835   6.877   4.916   1.887
14298TIP3   OH242836   1.198   3.942   3.979
14298TIP3    H142837   1.129   3.956   3.913
14298TIP3    H242838   1.151   3.934   4.062
14299TIP3   OH242839   1.293   0.814   5.708
14299TIP3    H142840   1.339   0.835   5.627
14299TIP3    H242841   1.328   0.729   5.735
14300TIP3   OH242842   0.545   7.473   4.364
14300TIP3    H142843   0.476   7.528   4.402
14300TIP3    H242844   0.509   7.444   4.280
14301TIP3   OH242845   2.316   4.717   6.693
14301TIP3    H142846   2.293   4.624   6.697
14301TIP3    H242847   2.318   4.737   6.599
14302TIP3   OH242848   6.113   3.289   6.642
14302TIP3    H142849   6.066   3.239   6.576
14302TIP3    H242850   6.045   3.313   6.706
14303TIP3   OH242851   7.721   7.280   2.208
14303TIP3    H142852   7.780   7.348   2.240
14303TIP3    H242853   7.718   7.293   2.114
14304TIP3   OH242854   6.125   1.302   1.236
14304TIP3    H142855   6.030   1.296   1.225
14304TIP3    H242856   6.158   1.218   1.203
14305TIP3   OH242857   4.702   3.977   6.563
14305TIP3    H142858   4.739   4.054   6.606
14305TIP3    H242859   4.632   3.948   6.621
14306TIP3   OH242860   1.833   5.530   4.856
14306TIP3    H142861   1.928   5.521   4.855
14306TIP3    H242862   1.815   5.604   4.797
14307TIP3   OH242863   5.033   6.917   6.332
14307TIP3    H142864   5.115   6.868   6.335
14307TIP3    H242865   4.965   6.851   6.347
14308TIP3   OH242866   1.651   5.909   6.485
14308TIP3    H142867   1.587   5.944   6.423
14308TIP3    H242868   1.661   5.978   6.550
14309TIP3   OH242869   5.022   5.900   0.160
14309TIP3    H142870   5.050   5.912   0.069
14309TIP3    H242871   4.969   5.820   0.159
14310TIP3   OH242872   4.171   6.878   4.262
14310TIP3    H142873   4.214   6.914   4.340
14310TIP3    H242874   4.211   6.792   4.250
14311TIP3   OH242875   0.277   6.400   4.468
14311TIP3    H142876   0.344   6.374   4.531
14311TIP3    H242877   0.319   6.391   4.382
14312TIP3   OH242878   4.407   2.598   1.030
14312TIP3    H142879   4.422   2.639   0.945
14312TIP3    H242880   4.396   2.505   1.010
14313TIP3   OH242881   0.063   1.288   3.505
14313TIP3    H142882   0.060   1.234   3.584
14313TIP3    H242883   0.150   1.328   3.507
14314TIP3   OH242884   3.604   1.895   4.617
14314TIP3    H142885   3.661   1.947   4.560
14314TIP3    H242886   3.644   1.902   4.704
14315TIP3   OH242887   4.472   6.770   3.360
14315TIP3    H142888   4.448   6.825   3.286
14315TIP3    H242889   4.395   6.715   3.375
14316TIP3   OH242890   1.501   6.031   5.988
14316TIP3    H142891   1.540   5.994   5.909
14316TIP3    H242892   1.517   6.125   5.982
14317TIP3   OH242893   3.462   5.413   6.691
14317TIP3    H142894   3.553   5.429   6.715
14317TIP3    H242895   3.416   5.403   6.774
14318TIP3   OH242896   7.559   7.676   2.880
14318TIP3    H142897   7.565   7.766   2.848
14318TIP3    H242898   7.636   7.665   2.936
14319TIP3   OH242899   4.905   5.007   0.077
14319TIP3    H142900   4.908   5.096   0.042
14319TIP3    H242901   4.822   5.003   0.124
14320TIP3   OH242902   5.564   7.550   1.814
14320TIP3    H142903   5.524   7.635   1.800
14320TIP3    H242904   5.586   7.519   1.726
14321TIP3   OH242905   5.963   2.442   3.269
14321TIP3    H142906   5.974   2.536   3.259
14321TIP3    H242907   5.880   2.423   3.226
14322TIP3   OH242908   0.146   2.531   3.326
14322TIP3    H142909   0.201   2.517   3.404
14322TIP3    H242910   0.137   2.627   3.321
14323TIP3   OH242911   7.742   3.918   0.453
14323TIP3    H142912   7.831   3.919   0.488
14323TIP3    H242913   7.741   3.843   0.393
14324TIP3   OH242914   7.747   0.567   1.856
14324TIP3    H142915   7.655   0.586   1.876
14324TIP3    H242916   7.797   0.623   1.915
14325TIP3   OH242917   7.386   3.746   3.712
14325TIP3    H142918   7.382   3.652   3.699
14325TIP3    H242919   7.472   3.771   3.678
14326TIP3   OH242920   6.840   5.136   5.427
14326TIP3    H142921   6.910   5.138   5.491
14326TIP3    H242922   6.770   5.187   5.467
14327TIP3   OH242923   0.104   2.236   6.260
14327TIP3    H142924   0.172   2.194   6.207
14327TIP3    H242925   0.079   2.313   6.211
14328TIP3   OH242926   5.573   6.876   6.712
14328TIP3    H142927   5.631   6.856   6.784
14328TIP3    H242928   5.520   6.797   6.701
14329TIP3   OH242929   0.229   7.618   2.383
14329TIP3    H142930   0.146   7.661   2.363
14329TIP3    H242931   0.296   7.681   2.356
14330TIP3   OH242932   0.233   2.446   6.595
14330TIP3    H142933   0.209   2.468   6.685
14330TIP3    H242934   0.197   2.518   6.543
14331TIP3   OH242935   7.139   7.772   2.125
14331TIP3    H142936   7.070   7.769   2.059
14331TIP3    H242937   7.143   7.682   2.159
14332TIP3   OH242938   3.588   5.864   5.643
14332TIP3    H142939   3.664   5.807   5.628
14332TIP3    H242940   3.567   5.850   5.736
14333TIP3   OH242941   6.354   2.263   2.916
14333TIP3    H142942   6.443   2.298   2.925
14333TIP3    H242943   6.360   2.175   2.953
14334TIP3   OH242944   7.589   1.042   2.024
14334TIP3    H142945   7.632   1.049   2.109
14334TIP3    H242946   7.660   1.029   1.961
14335TIP3   OH242947   6.976   6.204   3.282
14335TIP3    H142948   6.887   6.200   3.318
14335TIP3    H242949   6.970   6.157   3.198
14336TIP3   OH242950   1.668   1.818   1.729
14336TIP3    H142951   1.692   1.866   1.650
14336TIP3    H242952   1.711   1.865   1.800
14337TIP3   OH242953   6.380   7.438   3.948
14337TIP3    H142954   6.291   7.431   3.982
14337TIP3    H242955   6.433   7.458   4.025
14338TIP3   OH242956   5.118   2.257   5.523
14338TIP3    H142957   5.045   2.283   5.579
14338TIP3    H242958   5.076   2.211   5.450
14339TIP3   OH242959   0.100   7.150   4.014
14339TIP3    H142960   0.133   7.224   4.064
14339TIP3    H242961   0.112   7.176   3.922
14340TIP3   OH242962   2.434   5.052   0.195
14340TIP3    H142963   2.505   4.998   0.231
14340TIP3    H242964   2.474   5.097   0.120
14341TIP3   OH242965   3.523   4.929   2.480
14341TIP3    H142966   3.430   4.955   2.476
14341TIP3    H242967   3.556   4.973   2.558
14342TIP3   OH242968   7.326   0.222   6.603
14342TIP3    H142969   7.273   0.302   6.601
14342TIP3    H242970   7.416   0.254   6.599
14343TIP3   OH242971   0.223   0.651   0.584
14343TIP3    H142972   0.190   0.582   0.527
14343TIP3    H242973   0.237   0.726   0.525
14344TIP3   OH242974   0.081   1.151   5.800
14344TIP3    H142975   0.122   1.111   5.723
14344TIP3    H242976   0.136   1.226   5.821
14345TIP3   OH242977   5.142   7.087   4.729
14345TIP3    H142978   5.062   7.115   4.774
14345TIP3    H242979   5.213   7.132   4.775
14346TIP3   OH242980   6.922   6.340   2.390
14346TIP3    H142981   7.014   6.342   2.414
14346TIP3    H242982   6.909   6.418   2.336
14347TIP3   OH242983   7.685   6.329   3.106
14347TIP3    H142984   7.717   6.252   3.058
14347TIP3    H242985   7.765   6.379   3.127
14348TIP3   OH242986   3.079   1.149   2.032
14348TIP3    H142987   3.152   1.198   2.068
14348TIP3    H242988   3.043   1.206   1.964
14349TIP3   OH242989   7.264   0.935   0.238
14349TIP3    H142990   7.355   0.964   0.230
14349TIP3    H242991   7.262   0.852   0.192
14350TIP3   OH242992   4.271   2.070   2.515
14350TIP3    H142993   4.341   2.047   2.454
14350TIP3    H242994   4.203   2.109   2.459
14351TIP3   OH242995   5.983   1.822   4.926
14351TIP3    H142996   5.911   1.760   4.931
14351TIP3    H242997   5.944   1.906   4.952
14352TIP3   OH242998   3.670   2.495   6.073
14352TIP3    H142999   3.678   2.487   6.168
14352TIP3    H243000   3.682   2.406   6.041
14353TIP3   OH243001   3.870   2.129   3.838
14353TIP3    H143002   3.934   2.066   3.804
14353TIP3    H243003   3.919   2.183   3.900
14354TIP3   OH243004   4.926   4.388   5.067
14354TIP3    H143005   4.836   4.396   5.037
14354TIP3    H243006   4.965   4.473   5.050
14355TIP3   OH243007   3.609   4.099   1.560
14355TIP3    H143008   3.614   4.034   1.630
14355TIP3    H243009   3.543   4.063   1.499
14356TIP3   OH243010   0.503   0.036   2.592
14356TIP3    H143011   0.456   0.015   2.512
14356TIP3    H243012   0.593   0.052   2.564
14357TIP3   OH243013   0.632   0.373   1.063
14357TIP3    H143014   0.578   0.323   1.124
14357TIP3    H243015   0.720   0.372   1.102
14358TIP3   OH243016   1.239   0.106   1.692
14358TIP3    H143017   1.145   0.095   1.677
14358TIP3    H243018   1.281   0.051   1.626
14359TIP3   OH243019   2.436   2.251   5.523
14359TIP3    H143020   2.441   2.330   5.469
14359TIP3    H243021   2.513   2.256   5.581
14360TIP3   OH243022   4.915   1.724   5.474
14360TIP3    H143023   4.871   1.680   5.548
14360TIP3    H243024   4.860   1.704   5.399
14361TIP3   OH243025   0.232   7.392   2.225
14361TIP3    H143026   0.207   7.484   2.224
14361TIP3    H243027   0.172   7.351   2.287
14362TIP3   OH243028   7.296   2.540   2.584
14362TIP3    H143029   7.210   2.573   2.559
14362TIP3    H243030   7.340   2.523   2.501
14363TIP3   OH243031   0.672   5.389   4.644
14363TIP3    H143032   0.729   5.342   4.584
14363TIP3    H243033   0.631   5.320   4.697
14364TIP3   OH243034   6.777   6.791   6.011
14364TIP3    H143035   6.712   6.723   5.994
14364TIP3    H243036   6.861   6.751   5.987
14365TIP3   OH243037   8.065   3.361   2.647
14365TIP3    H143038   8.057   3.284   2.590
14365TIP3    H243039   8.157   3.362   2.673
14366TIP3   OH243040   1.691   3.868   3.018
14366TIP3    H143041   1.631   3.818   3.073
14366TIP3    H243042   1.765   3.888   3.075
14367TIP3   OH243043   0.742   7.543   6.408
14367TIP3    H143044   0.737   7.502   6.494
14367TIP3    H243045   0.672   7.609   6.410
14368TIP3   OH243046   5.129   5.238   3.675
14368TIP3    H143047   5.200   5.184   3.710
14368TIP3    H243048   5.170   5.323   3.660
14369TIP3   OH243049   2.363   5.097   5.569
14369TIP3    H143050   2.411   5.058   5.495
14369TIP3    H243051   2.400   5.184   5.579
14370TIP3   OH243052   2.638   7.642   2.205
14370TIP3    H143053   2.572   7.711   2.217
14370TIP3    H243054   2.679   7.633   2.291
14371TIP3   OH243055   4.568   3.192   4.157
14371TIP3    H143056   4.530   3.179   4.244
14371TIP3    H243057   4.630   3.119   4.147
14372TIP3   OH243058   5.305   7.412   3.782
14372TIP3    H143059   5.235   7.380   3.839
14372TIP3    H243060   5.305   7.507   3.794
14373TIP3   OH243061   4.022   4.217   4.542
14373TIP3    H143062   4.090   4.216   4.475
14373TIP3    H243063   3.949   4.169   4.504
14374TIP3   OH243064   1.166   1.201   4.559
14374TIP3    H143065   1.210   1.119   4.535
14374TIP3    H243066   1.078   1.193   4.522
14375TIP3   OH243067   6.701   2.726   0.947
14375TIP3    H143068   6.764   2.797   0.946
14375TIP3    H243069   6.750   2.650   0.916
14376TIP3   OH243070   5.452   0.658   0.500
14376TIP3    H143071   5.509   0.661   0.577
14376TIP3    H243072   5.490   0.723   0.441
14377TIP3   OH243073   5.476   6.929   3.043
14377TIP3    H143074   5.497   6.906   2.953
14377TIP3    H243075   5.410   6.864   3.070
14378TIP3   OH243076   7.322   5.931   1.029
14378TIP3    H143077   7.360   5.854   1.070
14378TIP3    H243078   7.233   5.935   1.064
14379TIP3   OH243079   5.593   5.358   0.916
14379TIP3    H143080   5.683   5.328   0.908
14379TIP3    H243081   5.588   5.435   0.860
14380TIP3   OH243082   4.403   6.951   1.348
14380TIP3    H143083   4.460   6.874   1.347
14380TIP3    H243084   4.340   6.934   1.417
14381TIP3   OH243085   2.184   3.636   2.246
14381TIP3    H143086   2.191   3.543   2.230
14381TIP3    H243087   2.096   3.660   2.216
14382TIP3   OH243088   4.598   4.527   5.942
14382TIP3    H143089   4.571   4.611   5.905
14382TIP3    H243090   4.614   4.472   5.866
14383TIP3   OH243091   4.044   0.667   6.438
14383TIP3    H143092   4.117   0.605   6.437
14383TIP3    H243093   4.007   0.662   6.350
14384TIP3   OH243094   3.622   7.085   0.678
14384TIP3    H143095   3.635   7.176   0.704
14384TIP3    H243096   3.590   7.042   0.757
14385TIP3   OH243097   6.345   2.733   5.236
14385TIP3    H143098   6.382   2.814   5.200
14385TIP3    H243099   6.388   2.723   5.321
14386TIP3   OH243100   6.646   0.259   0.539
14386TIP3    H143101   6.629   0.345   0.499
14386TIP3    H243102   6.698   0.279   0.617
14387TIP3   OH243103   4.703   1.483   4.483
14387TIP3    H143104   4.653   1.466   4.404
14387TIP3    H243105   4.643   1.463   4.555
14388TIP3   OH243106   5.258   0.844   0.062
14388TIP3    H143107   5.233   0.926   0.105
14388TIP3    H243108   5.351   0.855   0.042
14389TIP3   OH243109   1.089   6.407   4.803
14389TIP3    H143110   1.053   6.388   4.890
14389TIP3    H243111   1.162   6.465   4.820
14390TIP3   OH243112   7.959   0.011   5.138
14390TIP3    H143113   8.008   0.076   5.087
14390TIP3    H243114   7.888   0.061   5.178
14391TIP3   OH243115   3.624   5.731   6.027
14391TIP3    H143116   3.561   5.764   6.091
14391TIP3    H243117   3.571   5.690   5.959
14392TIP3   OH243118   0.832   3.465   6.272
14392TIP3    H143119   0.895   3.404   6.311
14392TIP3    H243120   0.850   3.461   6.178
14393TIP3   OH243121   6.599   4.518   3.798
14393TIP3    H143122   6.634   4.465   3.869
14393TIP3    H243123   6.514   4.479   3.778
14394TIP3   OH243124   4.591   3.856   2.131
14394TIP3    H143125   4.601   3.862   2.036
14394TIP3    H243126   4.604   3.946   2.162
14395TIP3   OH243127   4.146   5.035   5.933
14395TIP3    H143128   4.071   5.067   5.882
14395TIP3    H243129   4.171   4.953   5.891
14396TIP3   OH243130   1.114   4.276   0.094
14396TIP3    H143131   1.030   4.286   0.049
14396TIP3    H243132   1.101   4.202   0.153
14397TIP3   OH243133   4.172   7.737   1.878
14397TIP3    H143134   4.088   7.706   1.911
14397TIP3    H243135   4.208   7.662   1.831
14398TIP3   OH243136   8.097   5.819   0.032
14398TIP3    H143137   8.192   5.825   0.034
14398TIP3    H243138   8.075   5.762   0.106
14399TIP3   OH243139   0.201   6.109   1.222
14399TIP3    H143140   0.235   6.035   1.271
14399TIP3    H243141   0.127   6.140   1.274
14400TIP3   OH243142   7.494   4.284   2.246
14400TIP3    H143143   7.406   4.248   2.255
14400TIP3    H243144   7.549   4.224   2.297
14401TIP3   OH243145   3.907   0.517   0.256
14401TIP3    H143146   3.919   0.534   0.162
14401TIP3    H243147   3.992   0.482   0.284
14402TIP3   OH243148   2.633   6.850   6.696
14402TIP3    H143149   2.678   6.782   6.645
14402TIP3    H243150   2.591   6.905   6.630
14403TIP3   OH243151   1.025   3.600   6.022
14403TIP3    H143152   1.030   3.602   5.926
14403TIP3    H243153   1.084   3.669   6.051
14404TIP3   OH243154   6.742   2.925   5.993
14404TIP3    H143155   6.655   2.955   5.968
14404TIP3    H243156   6.726   2.856   6.057
14405TIP3   OH243157   5.859   2.198   4.022
14405TIP3    H143158   5.825   2.220   3.935
14405TIP3    H243159   5.951   2.224   4.019
14406TIP3   OH243160   1.130   0.219   4.992
14406TIP3    H143161   1.182   0.158   5.045
14406TIP3    H243162   1.195   0.276   4.951
14407TIP3   OH243163   1.664   4.027   4.990
14407TIP3    H143164   1.690   3.976   4.914
14407TIP3    H243165   1.744   4.035   5.042
14408TIP3   OH243166   3.695   6.193   1.676
14408TIP3    H143167   3.746   6.196   1.757
14408TIP3    H243168   3.714   6.276   1.633
14409TIP3   OH243169   5.327   6.611   2.294
14409TIP3    H143170   5.262   6.647   2.235
14409TIP3    H243171   5.294   6.523   2.316
14410TIP3   OH243172   5.361   7.497   6.558
14410TIP3    H143173   5.305   7.460   6.627
14410TIP3    H243174   5.395   7.421   6.511
14411TIP3   OH243175   8.254   1.290   4.883
14411TIP3    H143176   8.296   1.216   4.927
14411TIP3    H243177   8.169   1.297   4.926
14412TIP3   OH243178   0.024   6.431   5.073
14412TIP3    H143179   0.019   6.336   5.071
14412TIP3    H243180   0.115   6.450   5.096
14413TIP3   OH243181   2.830   6.189   0.664
14413TIP3    H143182   2.894   6.220   0.728
14413TIP3    H243183   2.828   6.094   0.675
14414TIP3   OH243184   1.120   5.980   6.179
14414TIP3    H143185   1.167   6.059   6.203
14414TIP3    H243186   1.039   6.012   6.139
14415TIP3   OH243187   1.624   4.598   5.734
14415TIP3    H143188   1.603   4.690   5.716
14415TIP3    H243189   1.615   4.589   5.829
14416TIP3   OH243190   6.401   5.114   3.321
14416TIP3    H143191   6.326   5.080   3.272
14416TIP3    H243192   6.473   5.111   3.258
14417TIP3   OH243193   1.619   5.723   5.894
14417TIP3    H143194   1.681   5.758   5.957
14417TIP3    H243195   1.623   5.784   5.820
14418TIP3   OH243196   5.739   1.984   5.255
14418TIP3    H143197   5.704   1.956   5.171
14418TIP3    H243198   5.726   1.909   5.313
14419TIP3   OH243199   3.191   2.399   4.383
14419TIP3    H143200   3.247   2.389   4.306
14419TIP3    H243201   3.189   2.494   4.398
14420TIP3   OH243202   1.745   3.743   3.641
14420TIP3    H143203   1.734   3.801   3.717
14420TIP3    H243204   1.839   3.725   3.638
14421TIP3   OH243205   0.779   1.355   6.138
14421TIP3    H143206   0.814   1.341   6.226
14421TIP3    H243207   0.704   1.414   6.151
14422TIP3   OH243208   7.871   1.410   2.454
14422TIP3    H143209   7.943   1.350   2.472
14422TIP3    H243210   7.814   1.404   2.531
14423TIP3   OH243211   1.246   0.513   2.149
14423TIP3    H143212   1.152   0.497   2.137
14423TIP3    H243213   1.250   0.579   2.219
14424TIP3   OH243214   6.350   5.464   2.824
14424TIP3    H143215   6.363   5.459   2.729
14424TIP3    H243216   6.316   5.378   2.849
14425TIP3   OH243217   5.856   5.952   3.045
14425TIP3    H143218   5.894   6.032   3.083
14425TIP3    H243219   5.814   5.908   3.118
14426TIP3   OH243220   6.846   4.716   5.860
14426TIP3    H143221   6.880   4.636   5.819
14426TIP3    H243222   6.916   4.780   5.849
14427TIP3   OH243223   1.506   5.537   5.730
14427TIP3    H143224   1.474   5.463   5.781
14427TIP3    H243225   1.551   5.593   5.793
14428TIP3   OH243226   1.516   7.807   4.995
14428TIP3    H143227   1.445   7.794   4.931
14428TIP3    H243228   1.478   7.864   5.061
14429TIP3   OH243229   2.433   1.733   0.406
14429TIP3    H143230   2.494   1.660   0.392
14429TIP3    H243231   2.425   1.740   0.501
14430TIP3   OH243232   0.774   4.471   3.833
14430TIP3    H143233   0.834   4.542   3.808
14430TIP3    H243234   0.831   4.398   3.855
14431TIP3   OH243235   7.701   0.348   6.037
14431TIP3    H143236   7.634   0.308   5.982
14431TIP3    H243237   7.783   0.315   6.002
14432TIP3   OH243238   2.203   1.852   2.086
14432TIP3    H143239   2.284   1.802   2.075
14432TIP3    H243240   2.138   1.787   2.114
14433TIP3   OH243241   1.701   6.456   6.628
14433TIP3    H143242   1.687   6.428   6.718
14433TIP3    H243243   1.642   6.402   6.576
14434TIP3   OH243244   1.478   2.456   2.308
14434TIP3    H143245   1.394   2.499   2.292
14434TIP3    H243246   1.456   2.363   2.318
14435TIP3   OH243247   6.363   1.199   1.913
14435TIP3    H143248   6.295   1.161   1.968
14435TIP3    H243249   6.423   1.241   1.975
14436TIP3   OH243250   8.136   4.303   4.570
14436TIP3    H143251   8.136   4.345   4.484
14436TIP3    H243252   8.211   4.342   4.615
14437TIP3   OH243253   5.463   0.197   2.795
14437TIP3    H143254   5.374   0.168   2.814
14437TIP3    H243255   5.515   0.168   2.870
14438TIP3   OH243256   6.376   1.314   4.323
14438TIP3    H143257   6.400   1.407   4.325
14438TIP3    H243258   6.283   1.313   4.346
14439TIP3   OH243259   3.704   0.144   5.985
14439TIP3    H143260   3.770   0.212   5.974
14439TIP3    H243261   3.621   0.188   5.967
14440TIP3   OH243262   5.861   2.767   0.328
14440TIP3    H143263   5.889   2.714   0.403
14440TIP3    H243264   5.881   2.857   0.355
14441TIP3   OH243265   4.161   5.207   5.296
14441TIP3    H143266   4.250   5.225   5.264
14441TIP3    H243267   4.167   5.120   5.336
14442TIP3   OH243268   1.259   5.975   1.141
14442TIP3    H143269   1.336   5.919   1.149
14442TIP3    H243270   1.287   6.046   1.083
14443TIP3   OH243271   4.551   4.121   6.040
14443TIP3    H143272   4.456   4.125   6.049
14443TIP3    H243273   4.582   4.097   6.127
14444TIP3   OH243274   4.426   1.041   0.680
14444TIP3    H143275   4.477   0.978   0.628
14444TIP3    H243276   4.447   1.126   0.641
14445TIP3   OH243277   7.755   7.701   2.000
14445TIP3    H143278   7.727   7.623   2.049
14445TIP3    H243279   7.841   7.722   2.037
14446TIP3   OH243280   1.287   4.744   3.994
14446TIP3    H143281   1.285   4.840   3.990
14446TIP3    H243282   1.378   4.723   4.013
14447TIP3   OH243283   6.551   1.397   5.079
14447TIP3    H143284   6.634   1.378   5.036
14447TIP3    H243285   6.555   1.491   5.099
14448TIP3   OH243286   4.881   1.973   4.435
14448TIP3    H143287   4.974   1.993   4.451
14448TIP3    H243288   4.844   2.056   4.404
14449TIP3   OH243289   7.789   2.710   1.784
14449TIP3    H143290   7.868   2.705   1.730
14449TIP3    H243291   7.805   2.783   1.843
14450TIP3   OH243292   0.351   5.058   2.014
14450TIP3    H143293   0.266   5.068   1.970
14450TIP3    H243294   0.388   5.146   2.017
14451TIP3   OH243295   0.658   4.347   2.586
14451TIP3    H143296   0.674   4.414   2.520
14451TIP3    H243297   0.711   4.374   2.661
14452TIP3   OH243298   4.016   2.548   4.080
14452TIP3    H143299   3.950   2.478   4.082
14452TIP3    H243300   4.009   2.585   3.992
14453TIP3   OH243301   0.404   1.481   1.616
14453TIP3    H143302   0.439   1.416   1.555
14453TIP3    H243303   0.380   1.431   1.694
14454TIP3   OH243304   3.295   3.418   3.794
14454TIP3    H143305   3.330   3.387   3.710
14454TIP3    H243306   3.266   3.507   3.776
14455TIP3   OH243307   0.529   4.968   5.455
14455TIP3    H143308   0.538   4.983   5.361
14455TIP3    H243309   0.454   4.910   5.464
14456TIP3   OH243310   0.385   1.411   2.206
14456TIP3    H143311   0.458   1.467   2.234
14456TIP3    H243312   0.354   1.370   2.287
14457TIP3   OH243313   5.952   3.018   5.716
14457TIP3    H143314   5.942   2.942   5.659
14457TIP3    H243315   5.936   3.093   5.659
14458TIP3   OH243316   0.661   3.640   1.523
14458TIP3    H143317   0.571   3.656   1.554
14458TIP3    H243318   0.679   3.711   1.462
14459TIP3   OH243319   4.870   1.020   2.677
14459TIP3    H143320   4.881   1.068   2.759
14459TIP3    H243321   4.834   0.936   2.703
14460TIP3   OH243322   4.251   6.619   6.670
14460TIP3    H143323   4.182   6.556   6.693
14460TIP3    H243324   4.274   6.598   6.580
14461TIP3   OH243325   4.044   0.119   1.522
14461TIP3    H143326   4.050   0.024   1.530
14461TIP3    H243327   4.014   0.134   1.433
14462TIP3   OH243328   0.596   5.820   1.726
14462TIP3    H143329   0.585   5.855   1.814
14462TIP3    H243330   0.566   5.891   1.668
14463TIP3   OH243331   6.460   1.811   5.834
14463TIP3    H143332   6.550   1.837   5.816
14463TIP3    H243333   6.450   1.822   5.929
14464TIP3   OH243334   3.027   6.235   2.371
14464TIP3    H143335   3.097   6.171   2.384
14464TIP3    H243336   3.052   6.282   2.291
14465TIP3   OH243337   6.507   4.576   1.955
14465TIP3    H143338   6.519   4.629   1.876
14465TIP3    H243339   6.444   4.624   2.008
14466TIP3   OH243340   7.618   0.154   3.419
14466TIP3    H143341   7.680   0.166   3.346
14466TIP3    H243342   7.592   0.242   3.444
14467TIP3   OH243343   2.467   5.311   6.268
14467TIP3    H143344   2.411   5.290   6.194
14467TIP3    H243345   2.408   5.347   6.334
14468TIP3   OH243346   1.403   4.043   5.772
14468TIP3    H143347   1.399   4.139   5.778
14468TIP3    H243348   1.324   4.019   5.724
14469TIP3   OH243349   4.456   5.201   0.628
14469TIP3    H143350   4.398   5.130   0.655
14469TIP3    H243351   4.412   5.240   0.553
14470TIP3   OH243352   3.791   5.993   2.258
14470TIP3    H143353   3.739   6.006   2.178
14470TIP3    H243354   3.854   5.925   2.234
14471TIP3   OH243355   5.086   1.769   3.933
14471TIP3    H143356   5.085   1.745   4.025
14471TIP3    H243357   5.036   1.851   3.928
14472TIP3   OH243358   6.647   1.097   2.962
14472TIP3    H143359   6.632   1.149   2.883
14472TIP3    H243360   6.658   1.162   3.031
14473TIP3   OH243361   1.146   1.369   1.295
14473TIP3    H143362   1.082   1.420   1.346
14473TIP3    H243363   1.093   1.325   1.228
14474TIP3   OH243364   3.445   6.207   4.976
14474TIP3    H143365   3.488   6.279   4.929
14474TIP3    H243366   3.518   6.153   5.008
14475TIP3   OH243367   4.239   4.671   4.243
14475TIP3    H143368   4.165   4.679   4.303
14475TIP3    H243369   4.210   4.715   4.163
14476TIP3   OH243370   4.155   6.898   2.047
14476TIP3    H143371   4.191   6.960   1.983
14476TIP3    H243372   4.210   6.909   2.125
14477TIP3   OH243373   6.579   4.247   4.946
14477TIP3    H143374   6.665   4.213   4.921
14477TIP3    H243375   6.540   4.276   4.864
14478TIP3   OH243376   2.612   7.447   5.275
14478TIP3    H143377   2.567   7.516   5.227
14478TIP3    H243378   2.546   7.416   5.338
14479TIP3   OH243379   1.234   0.215   3.417
14479TIP3    H143380   1.169   0.192   3.351
14479TIP3    H243381   1.312   0.167   3.392
14480TIP3   OH243382   7.741   6.871   0.542
14480TIP3    H143383   7.784   6.787   0.527
14480TIP3    H243384   7.684   6.856   0.618
14481TIP3   OH243385   3.103   6.431   4.881
14481TIP3    H143386   3.127   6.352   4.832
14481TIP3    H243387   3.054   6.484   4.819
14482TIP3   OH243388   6.579   5.073   6.003
14482TIP3    H143389   6.528   5.141   5.960
14482TIP3    H243390   6.637   5.039   5.935
14483TIP3   OH243391   1.439   1.063   0.592
14483TIP3    H143392   1.486   1.041   0.511
14483TIP3    H243393   1.347   1.057   0.568
14484TIP3   OH243394   4.592   0.789   2.171
14484TIP3    H143395   4.506   0.831   2.177
14484TIP3    H243396   4.622   0.808   2.083
14485TIP3   OH243397   0.286   4.059   5.679
14485TIP3    H143398   0.374   4.037   5.710
14485TIP3    H243399   0.289   4.153   5.664
14486TIP3   OH243400   4.507   5.249   4.701
14486TIP3    H143401   4.570   5.189   4.741
14486TIP3    H243402   4.434   5.251   4.763
14487TIP3   OH243403   0.926   2.008   2.228
14487TIP3    H143404   0.835   2.025   2.204
14487TIP3    H243405   0.922   1.933   2.287
14488TIP3   OH243406   6.817   2.802   0.131
14488TIP3    H143407   6.811   2.716   0.174
14488TIP3    H243408   6.753   2.856   0.177
14489TIP3   OH243409   5.814   4.879   6.358
14489TIP3    H143410   5.747   4.925   6.307
14489TIP3    H243411   5.870   4.949   6.392
14490TIP3   OH243412   7.899   7.475   2.270
14490TIP3    H143413   7.907   7.562   2.231
14490TIP3    H243414   7.988   7.439   2.269
14491TIP3   OH243415   1.525   7.732   4.412
14491TIP3    H143416   1.474   7.690   4.344
14491TIP3    H243417   1.531   7.824   4.385
14492TIP3   OH243418   3.794   0.415   3.416
14492TIP3    H143419   3.883   0.389   3.392
14492TIP3    H243420   3.805   0.487   3.477
14493TIP3   OH243421   6.247   1.993   3.187
14493TIP3    H143422   6.179   2.059   3.177
14493TIP3    H243423   6.319   2.024   3.131
14494TIP3   OH243424   5.376   3.475   5.319
14494TIP3    H143425   5.305   3.426   5.278
14494TIP3    H243426   5.370   3.452   5.412
14495TIP3   OH243427   0.014   0.915   2.070
14495TIP3    H143428   0.007   0.836   2.016
14495TIP3    H243429   0.108   0.924   2.087
14496TIP3   OH243430   4.683   2.633   5.103
14496TIP3    H143431   4.714   2.720   5.130
14496TIP3    H243432   4.714   2.574   5.173
14497TIP3   OH243433   7.800   6.494   2.710
14497TIP3    H143434   7.839   6.411   2.738
14497TIP3    H243435   7.707   6.483   2.725
14498TIP3   OH243436   4.072   7.283   6.419
14498TIP3    H143437   4.144   7.239   6.375
14498TIP3    H243438   4.061   7.236   6.501
14499TIP3   OH243439   0.510   2.358   2.989
14499TIP3    H143440   0.595   2.331   3.024
14499TIP3    H243441   0.446   2.318   3.048
14500TIP3   OH243442   6.231   2.050   6.253
14500TIP3    H143443   6.143   2.014   6.244
14500TIP3    H243444   6.241   2.109   6.178
14501TIP3   OH243445   3.479   2.614   4.385
14501TIP3    H143446   3.558   2.648   4.427
14501TIP3    H243447   3.476   2.522   4.409
14502TIP3   OH243448   2.201   5.311   4.004
14502TIP3    H143449   2.107   5.296   4.015
14502TIP3    H243450   2.231   5.339   4.090
14503TIP3   OH243451   6.671   1.434   1.836
14503TIP3    H143452   6.767   1.433   1.837
14503TIP3    H243453   6.647   1.373   1.766
14504TIP3   OH243454   7.765   3.081   1.802
14504TIP3    H143455   7.777   3.150   1.867
14504TIP3    H243456   7.686   3.035   1.832
14505TIP3   OH243457   4.524   2.369   6.309
14505TIP3    H143458   4.456   2.392   6.245
14505TIP3    H243459   4.594   2.329   6.256
14506TIP3   OH243460   3.653   5.197   4.791
14506TIP3    H143461   3.735   5.191   4.742
14506TIP3    H243462   3.679   5.229   4.878
14507TIP3   OH243463   0.008   5.279   1.767
14507TIP3    H143464   0.020   5.358   1.819
14507TIP3    H243465   0.040   5.303   1.680
14508TIP3   OH243466   6.068   2.879   3.430
14508TIP3    H143467   6.092   2.920   3.513
14508TIP3    H243468   5.993   2.930   3.398
14509TIP3   OH243469   6.085   4.031   3.202
14509TIP3    H143470   6.174   4.068   3.208
14509TIP3    H243471   6.077   3.977   3.281
14510TIP3   OH243472   0.611   3.817   2.808
14510TIP3    H143473   0.692   3.779   2.774
14510TIP3    H243474   0.606   3.786   2.899
14511TIP3   OH243475   7.399   0.603   4.187
14511TIP3    H143476   7.375   0.695   4.178
14511TIP3    H243477   7.348   0.558   4.119
14512TIP3   OH243478   1.057   5.447   4.513
14512TIP3    H143479   1.011   5.389   4.573
14512TIP3    H243480   0.992   5.514   4.490
14513TIP3   OH243481   1.126   6.580   1.728
14513TIP3    H143482   1.115   6.635   1.806
14513TIP3    H243483   1.037   6.558   1.701
14514TIP3   OH243484   1.346   2.356   2.556
14514TIP3    H143485   1.298   2.351   2.473
14514TIP3    H243486   1.423   2.302   2.541
14515TIP3   OH243487   2.435   4.587   5.467
14515TIP3    H143488   2.389   4.577   5.383
14515TIP3    H243489   2.510   4.527   5.460
14516TIP3   OH243490   2.119   5.413   5.481
14516TIP3    H143491   2.054   5.451   5.422
14516TIP3    H243492   2.204   5.439   5.443
14517TIP3   OH243493   1.594   4.338   1.185
14517TIP3    H143494   1.649   4.275   1.232
14517TIP3    H243495   1.517   4.348   1.240
14518TIP3   OH243496   0.858   7.721   1.937
14518TIP3    H143497   0.888   7.728   1.847
14518TIP3    H243498   0.902   7.642   1.971
14519TIP3   OH243499   6.829   7.578   1.820
14519TIP3    H143500   6.870   7.526   1.889
14519TIP3    H243501   6.763   7.631   1.865
14520TIP3   OH243502   5.391   3.831   2.744
14520TIP3    H143503   5.379   3.915   2.701
14520TIP3    H243504   5.388   3.851   2.837
14521TIP3   OH243505   5.549   0.605   4.656
14521TIP3    H143506   5.479   0.666   4.634
14521TIP3    H243507   5.504   0.520   4.662
14522TIP3   OH243508   0.072   2.447   0.559
14522TIP3    H143509   0.045   2.448   0.467
14522TIP3    H243510   0.148   2.389   0.561
14523TIP3   OH243511   0.543   4.291   2.211
14523TIP3    H143512   0.493   4.219   2.173
14523TIP3    H243513   0.479   4.340   2.263
14524TIP3   OH243514   7.923   2.029   1.493
14524TIP3    H143515   7.947   2.119   1.516
14524TIP3    H243516   7.907   2.031   1.399
14525TIP3   OH243517   4.831   4.981   0.707
14525TIP3    H143518   4.808   5.073   0.703
14525TIP3    H243519   4.749   4.934   0.692
14526TIP3   OH243520   1.323   6.983   2.779
14526TIP3    H143521   1.232   7.010   2.795
14526TIP3    H243522   1.366   7.060   2.743
14527TIP3   OH243523   0.759   0.092   2.440
14527TIP3    H143524   0.824   0.154   2.474
14527TIP3    H243525   0.744   0.120   2.350
14528TIP3   OH243526   1.989   3.742   4.645
14528TIP3    H143527   1.967   3.658   4.687
14528TIP3    H243528   1.942   3.740   4.562
14529TIP3   OH243529   4.371   0.865   5.601
14529TIP3    H143530   4.424   0.942   5.578
14529TIP3    H243531   4.400   0.797   5.541
14530TIP3   OH243532   1.249   1.660   2.873
14530TIP3    H143533   1.307   1.599   2.920
14530TIP3    H243534   1.306   1.701   2.808
14531TIP3   OH243535   6.008   4.709   0.272
14531TIP3    H143536   5.915   4.723   0.253
14531TIP3    H243537   6.046   4.797   0.274
14532TIP3   OH243538   4.007   5.781   4.578
14532TIP3    H143539   3.976   5.859   4.623
14532TIP3    H243540   4.007   5.805   4.485
14533TIP3   OH243541   6.425   3.821   4.551
14533TIP3    H143542   6.333   3.838   4.569
14533TIP3    H243543   6.455   3.899   4.503
14534TIP3   OH243544   0.818   0.103   4.336
14534TIP3    H143545   0.758   0.135   4.268
14534TIP3    H243546   0.818   0.007   4.324
14535TIP3   OH243547   7.591   6.347   6.318
14535TIP3    H143548   7.551   6.316   6.400
14535TIP3    H243549   7.652   6.415   6.346
14536TIP3   OH243550   3.117   7.404   4.255
14536TIP3    H143551   3.179   7.459   4.303
14536TIP3    H243552   3.172   7.340   4.210
14537TIP3   OH243553   6.315   4.853   1.837
14537TIP3    H143554   6.318   4.808   1.922
14537TIP3    H243555   6.359   4.936   1.854
14538TIP3   OH243556   1.852   7.027   5.400
14538TIP3    H143557   1.901   6.967   5.343
14538TIP3    H243558   1.763   6.992   5.401
14539TIP3   OH243559   2.887   4.160   4.350
14539TIP3    H143560   2.933   4.131   4.430
14539TIP3    H243561   2.856   4.078   4.310
14540TIP3   OH243562   6.813   6.455   6.102
14540TIP3    H143563   6.881   6.493   6.047
14540TIP3    H243564   6.825   6.495   6.188
14541TIP3   OH243565   1.293   0.463   3.337
14541TIP3    H143566   1.215   0.511   3.363
14541TIP3    H243567   1.285   0.378   3.382
14542TIP3   OH243568   0.362   2.045   0.734
14542TIP3    H143569   0.355   2.111   0.803
14542TIP3    H243570   0.397   1.967   0.779
14543TIP3   OH243571   0.438   0.054   4.937
14543TIP3    H143572   0.402   0.016   4.857
14543TIP3    H243573   0.375   0.122   4.962
14544TIP3   OH243574   3.273   6.683   2.603
14544TIP3    H143575   3.193   6.727   2.576
14544TIP3    H243576   3.335   6.753   2.623
14545TIP3   OH243577   7.608   6.703   2.364
14545TIP3    H143578   7.591   6.730   2.455
14545TIP3    H243579   7.525   6.663   2.336
14546TIP3   OH243580   5.592   5.491   3.079
14546TIP3    H143581   5.560   5.566   3.029
14546TIP3    H243582   5.566   5.510   3.170
14547TIP3   OH243583   6.560   0.733   5.633
14547TIP3    H143584   6.559   0.722   5.538
14547TIP3    H243585   6.468   0.724   5.659
14548TIP3   OH243586   2.160   1.018   3.836
14548TIP3    H143587   2.157   1.053   3.925
14548TIP3    H243588   2.082   0.964   3.828
14549TIP3   OH243589   8.068   5.122   1.807
14549TIP3    H143590   8.098   5.043   1.762
14549TIP3    H243591   8.146   5.178   1.810
14550TIP3   OH243592   8.149   3.210   3.890
14550TIP3    H143593   8.054   3.206   3.878
14550TIP3    H243594   8.161   3.222   3.984
14551TIP3   OH243595   6.679   5.958   5.298
14551TIP3    H143596   6.712   5.890   5.240
14551TIP3    H243597   6.752   6.018   5.309
14552TIP3   OH243598   1.500   4.753   5.501
14552TIP3    H143599   1.570   4.818   5.508
14552TIP3    H243600   1.445   4.769   5.577
14553TIP3   OH243601   2.933   1.166   6.765
14553TIP3    H143602   2.939   1.249   6.719
14553TIP3    H243603   2.840   1.156   6.785
14554TIP3   OH243604   6.348   1.571   4.239
14554TIP3    H143605   6.305   1.544   4.158
14554TIP3    H243606   6.277   1.599   4.296
14555TIP3   OH243607   4.568   6.243   4.192
14555TIP3    H143608   4.631   6.186   4.237
14555TIP3    H243609   4.611   6.265   4.110
14556TIP3   OH243610   4.416   7.452   0.150
14556TIP3    H143611   4.458   7.441   0.235
14556TIP3    H243612   4.384   7.542   0.151
14557TIP3   OH243613   6.361   3.204   3.765
14557TIP3    H143614   6.348   3.231   3.856
14557TIP3    H243615   6.456   3.196   3.755
14558TIP3   OH243616   2.847   3.548   3.047
14558TIP3    H143617   2.818   3.507   3.128
14558TIP3    H243618   2.800   3.631   3.043
14559TIP3   OH243619   4.064   4.402   1.321
14559TIP3    H143620   4.018   4.417   1.403
14559TIP3    H243621   3.998   4.418   1.253
14560TIP3   OH243622   3.059   4.262   1.981
14560TIP3    H143623   3.074   4.172   2.012
14560TIP3    H243624   2.964   4.274   1.987
14561TIP3   OH243625   6.956   1.508   5.535
14561TIP3    H143626   6.876   1.547   5.569
14561TIP3    H243627   6.933   1.478   5.447
14562TIP3   OH243628   8.009   5.336   2.449
14562TIP3    H143629   7.993   5.413   2.395
14562TIP3    H243630   7.964   5.264   2.404
14563TIP3   OH243631   4.221   1.260   1.972
14563TIP3    H143632   4.130   1.289   1.964
14563TIP3    H243633   4.267   1.334   2.009
14564TIP3   OH243634   6.586   6.403   3.894
14564TIP3    H143635   6.600   6.496   3.874
14564TIP3    H243636   6.645   6.357   3.835
14565TIP3   OH243637   6.122   0.009   0.970
14565TIP3    H143638   6.032   0.041   0.981
14565TIP3    H243639   6.126  -0.020   0.879
14566TIP3   OH243640   0.849   5.801   2.162
14566TIP3    H143641   0.863   5.895   2.176
14566TIP3    H243642   0.878   5.786   2.072
14567TIP3   OH243643   5.065   7.185   2.942
14567TIP3    H143644   5.016   7.124   2.886
14567TIP3    H243645   5.022   7.178   3.027
14568TIP3   OH243646   3.717   0.547   1.607
14568TIP3    H143647   3.648   0.488   1.577
14568TIP3    H243648   3.672   0.616   1.655
14569TIP3   OH243649   0.514   6.053   4.553
14569TIP3    H143650   0.587   6.107   4.582
14569TIP3    H243651   0.512   6.065   4.458
14570TIP3   OH243652   3.106   0.422   3.041
14570TIP3    H143653   3.112   0.374   2.958
14570TIP3    H243654   3.099   0.514   3.014
14571TIP3   OH243655   4.998   0.767   3.729
14571TIP3    H143656   5.072   0.795   3.676
14571TIP3    H243657   4.986   0.675   3.706
14572TIP3   OH243658   7.385   0.664   3.473
14572TIP3    H143659   7.292   0.687   3.470
14572TIP3    H243660   7.386   0.570   3.489
14573TIP3   OH243661   3.420   5.527   2.426
14573TIP3    H143662   3.465   5.609   2.449
14573TIP3    H243663   3.450   5.465   2.493
14574TIP3   OH243664   6.799   5.015   3.310
14574TIP3    H143665   6.824   4.930   3.272
14574TIP3    H243666   6.747   5.057   3.242
14575TIP3   OH243667   2.563   0.128   3.860
14575TIP3    H143668   2.572   0.064   3.932
14575TIP3    H243669   2.491   0.184   3.888
14576TIP3   OH243670   7.530   0.053   3.147
14576TIP3    H143671   7.588   0.018   3.215
14576TIP3    H243672   7.493  -0.025   3.105
14577TIP3   OH243673   1.461   3.469   5.643
14577TIP3    H143674   1.452   3.384   5.685
14577TIP3    H243675   1.504   3.524   5.709
14578TIP3   OH243676   2.872   2.496   3.274
14578TIP3    H143677   2.828   2.479   3.357
14578TIP3    H243678   2.931   2.421   3.262
14579TIP3   OH243679   5.622   6.006   0.077
14579TIP3    H143680   5.533   5.971   0.089
14579TIP3    H243681   5.609   6.082   0.021
14580TIP3   OH243682   7.312   6.291   3.381
14580TIP3    H143683   7.400   6.259   3.364
14580TIP3    H243684   7.258   6.251   3.313
14581TIP3   OH243685   5.190   5.047   1.812
14581TIP3    H143686   5.138   4.970   1.790
14581TIP3    H243687   5.280   5.014   1.813
14582TIP3   OH243688   1.591   6.345   1.348
14582TIP3    H143689   1.657   6.277   1.332
14582TIP3    H243690   1.568   6.334   1.441
14583TIP3   OH243691   1.691   2.659   0.318
14583TIP3    H143692   1.771   2.661   0.371
14583TIP3    H243693   1.676   2.566   0.301
14584TIP3   OH243694   2.462   2.708   6.051
14584TIP3    H143695   2.424   2.624   6.073
14584TIP3    H243696   2.551   2.687   6.022
14585TIP3   OH243697   2.051   3.592   6.073
14585TIP3    H143698   2.051   3.578   6.168
14585TIP3    H243699   2.089   3.512   6.037
14586TIP3   OH243700   5.925   6.830   1.923
14586TIP3    H143701   6.001   6.826   1.865
14586TIP3    H243702   5.947   6.771   1.995
14587TIP3   OH243703   0.435   3.067   2.403
14587TIP3    H143704   0.396   3.153   2.386
14587TIP3    H243705   0.361   3.013   2.432
14588TIP3   OH243706   6.136   7.635   1.050
14588TIP3    H143707   6.144   7.726   1.023
14588TIP3    H243708   6.043   7.615   1.040
14589TIP3   OH243709   0.121   6.744   0.192
14589TIP3    H143710   0.161   6.799   0.259
14589TIP3    H243711   0.195   6.702   0.148
14590TIP3   OH243712   0.848   7.515   1.073
14590TIP3    H143713   0.806   7.523   1.159
14590TIP3    H243714   0.817   7.431   1.039
14591TIP3   OH243715   1.117   3.660   2.634
14591TIP3    H143716   1.209   3.687   2.641
14591TIP3    H243717   1.091   3.689   2.547
14592TIP3   OH243718   6.547   5.942   2.260
14592TIP3    H143719   6.512   5.854   2.265
14592TIP3    H243720   6.602   5.951   2.338
14593TIP3   OH243721   3.851   6.571   6.153
14593TIP3    H143722   3.900   6.624   6.217
14593TIP3    H243723   3.880   6.603   6.068
14594TIP3   OH243724   7.654   0.202   2.971
14594TIP3    H143725   7.748   0.183   2.967
14594TIP3    H243726   7.621   0.143   3.039
14595TIP3   OH243727   3.398   2.537   1.155
14595TIP3    H143728   3.428   2.507   1.241
14595TIP3    H243729   3.450   2.615   1.137
14596TIP3   OH243730   5.485   5.297   5.070
14596TIP3    H143731   5.392   5.295   5.047
14596TIP3    H243732   5.491   5.246   5.151
14597TIP3   OH243733   1.114   7.704   4.237
14597TIP3    H143734   1.190   7.662   4.196
14597TIP3    H243735   1.039   7.666   4.192
14598TIP3   OH243736   6.588   0.847   0.773
14598TIP3    H143737   6.616   0.756   0.785
14598TIP3    H243738   6.662   0.900   0.802
14599TIP3   OH243739   0.837   5.234   0.502
14599TIP3    H143740   0.920   5.271   0.471
14599TIP3    H243741   0.770   5.276   0.449
14600TIP3   OH243742   4.916   7.542   6.524
14600TIP3    H143743   4.860   7.476   6.483
14600TIP3    H243744   4.993   7.548   6.468
14601TIP3   OH243745   1.625   6.995   4.440
14601TIP3    H143746   1.553   6.931   4.439
14601TIP3    H243747   1.681   6.969   4.367
14602TIP3   OH243748   7.617   3.624   4.739
14602TIP3    H143749   7.595   3.532   4.726
14602TIP3    H243750   7.601   3.640   4.832
14603TIP3   OH243751   2.990   2.434   1.373
14603TIP3    H143752   2.946   2.502   1.422
14603TIP3    H243753   2.924   2.401   1.312
14604TIP3   OH243754   6.930   2.481   3.608
14604TIP3    H143755   6.889   2.418   3.667
14604TIP3    H243756   6.857   2.533   3.574
14605TIP3   OH243757   1.423   5.337   0.148
14605TIP3    H143758   1.513   5.303   0.147
14605TIP3    H243759   1.399   5.343   0.055
14606TIP3   OH243760   6.855   0.643   5.762
14606TIP3    H143761   6.776   0.696   5.754
14606TIP3    H243762   6.865   0.603   5.675
14607TIP3   OH243763   7.307   7.628   0.281
14607TIP3    H143764   7.294   7.635   0.376
14607TIP3    H243765   7.375   7.560   0.272
14608TIP3   OH243766   8.258   4.271   3.901
14608TIP3    H143767   8.234   4.234   3.986
14608TIP3    H243768   8.282   4.196   3.848
14609TIP3   OH243769   5.756   7.634   2.707
14609TIP3    H143770   5.801   7.712   2.740
14609TIP3    H243771   5.670   7.637   2.748
14610TIP3   OH243772   7.287   3.710   0.025
14610TIP3    H143773   7.269   3.756   0.107
14610TIP3    H243774   7.383   3.705   0.022
14611TIP3   OH243775   0.282   2.990   5.596
14611TIP3    H143776   0.325   3.012   5.679
14611TIP3    H243777   0.353   2.991   5.531
14612TIP3   OH243778   0.447   5.085   0.286
14612TIP3    H143779   0.379   5.145   0.257
14612TIP3    H243780   0.510   5.083   0.214
14613TIP3   OH243781   7.579   1.847   5.945
14613TIP3    H143782   7.643   1.782   5.918
14613TIP3    H243783   7.631   1.923   5.972
14614TIP3   OH243784   0.334   2.033   1.445
14614TIP3    H143785   0.263   1.997   1.498
14614TIP3    H243786   0.316   2.127   1.443
14615TIP3   OH243787   0.969   4.343   1.612
14615TIP3    H143788   0.966   4.429   1.571
14615TIP3    H243789   0.902   4.292   1.567
14616TIP3   OH243790   7.453   2.832   2.560
14616TIP3    H143791   7.384   2.849   2.625
14616TIP3    H243792   7.507   2.911   2.561
14617TIP3   OH243793   2.502   4.190   3.965
14617TIP3    H143794   2.462   4.276   3.952
14617TIP3    H243795   2.569   4.185   3.897
14618TIP3   OH243796   6.711   6.798   5.601
14618TIP3    H143797   6.631   6.806   5.653
14618TIP3    H243798   6.745   6.888   5.595
14619TIP3   OH243799   5.672   2.074   3.321
14619TIP3    H143800   5.766   2.059   3.333
14619TIP3    H243801   5.635   1.986   3.313
14620TIP3   OH243802   1.140   7.619   0.272
14620TIP3    H143803   1.097   7.535   0.259
14620TIP3    H243804   1.111   7.648   0.359
14621TIP3   OH243805   5.031   4.666   6.680
14621TIP3    H143806   5.034   4.590   6.622
14621TIP3    H243807   4.947   4.659   6.725
14622TIP3   OH243808   3.660   7.751   1.129
14622TIP3    H143809   3.660   7.721   1.220
14622TIP3    H243810   3.570   7.737   1.099
14623TIP3   OH243811   6.538   2.150   5.431
14623TIP3    H143812   6.504   2.115   5.349
14623TIP3    H243813   6.606   2.213   5.404
14624TIP3   OH243814   6.834   5.801   4.784
14624TIP3    H143815   6.793   5.853   4.853
14624TIP3    H243816   6.915   5.768   4.824
14625TIP3   OH243817   6.250   0.649   5.458
14625TIP3    H143818   6.330   0.676   5.413
14625TIP3    H243819   6.239   0.714   5.527
14626TIP3   OH243820   3.503   6.295   5.433
14626TIP3    H143821   3.573   6.229   5.434
14626TIP3    H243822   3.422   6.244   5.436
14627TIP3   OH243823   8.110   3.918   5.523
14627TIP3    H143824   8.054   3.990   5.491
14627TIP3    H243825   8.048   3.851   5.552
14628TIP3   OH243826   4.817   0.289   2.264
14628TIP3    H143827   4.811   0.217   2.201
14628TIP3    H243828   4.781   0.364   2.217
14629TIP3   OH243829   2.188   2.897   1.725
14629TIP3    H143830   2.274   2.934   1.745
14629TIP3    H243831   2.125   2.963   1.756
14630TIP3   OH243832   4.065   4.374   4.251
14630TIP3    H143833   4.028   4.461   4.260
14630TIP3    H243834   4.060   4.355   4.157
14631TIP3   OH243835   3.010   5.007   3.764
14631TIP3    H143836   3.101   5.013   3.793
14631TIP3    H243837   2.962   4.976   3.841
14632TIP3   OH243838   4.134   7.846   5.707
14632TIP3    H143839   4.119   7.752   5.697
14632TIP3    H243840   4.203   7.853   5.772
14633TIP3   OH243841   5.939   7.649   6.036
14633TIP3    H143842   5.918   7.557   6.055
14633TIP3    H243843   5.854   7.691   6.028
14634TIP3   OH243844   7.533   7.807   5.382
14634TIP3    H143845   7.581   7.795   5.463
14634TIP3    H243846   7.547   7.726   5.333
14635TIP3   OH243847   3.350   1.843   3.671
14635TIP3    H143848   3.317   1.847   3.761
14635TIP3    H243849   3.441   1.871   3.678
14636TIP3   OH243850   0.751   1.303   3.189
14636TIP3    H143851   0.687   1.341   3.129
14636TIP3    H243852   0.699   1.249   3.248
14637TIP3   OH243853   7.026   5.522   4.291
14637TIP3    H143854   7.037   5.448   4.232
14637TIP3    H243855   7.111   5.532   4.333
14638TIP3   OH243856   3.223   1.465   2.912
14638TIP3    H143857   3.277   1.459   2.990
14638TIP3    H243858   3.133   1.471   2.944
14639TIP3   OH243859   2.869   7.131   1.382
14639TIP3    H143860   2.912   7.045   1.382
14639TIP3    H243861   2.786   7.116   1.428
14640TIP3   OH243862   2.341   0.077   1.338
14640TIP3    H143863   2.392   0.109   1.412
14640TIP3    H243864   2.342  -0.018   1.345
14641TIP3   OH243865   6.971   7.326   3.045
14641TIP3    H143866   6.976   7.230   3.044
14641TIP3    H243867   7.062   7.355   3.049
14642TIP3   OH243868   5.640   2.954   4.720
14642TIP3    H143869   5.661   2.954   4.814
14642TIP3    H243870   5.552   2.990   4.715
14643TIP3   OH243871   6.919   0.480   0.337
14643TIP3    H143872   6.938   0.386   0.348
14643TIP3    H243873   6.924   0.495   0.243
14644TIP3   OH243874   5.094   5.698   3.786
14644TIP3    H143875   5.031   5.718   3.855
14644TIP3    H243876   5.124   5.783   3.755
14645TIP3   OH243877   0.872   7.017   0.990
14645TIP3    H143878   0.940   7.043   0.927
14645TIP3    H243879   0.843   6.931   0.959
14646TIP3   OH243880   7.367   1.428   6.577
14646TIP3    H143881   7.412   1.347   6.599
14646TIP3    H243882   7.436   1.495   6.580
14647TIP3   OH243883   2.689   2.671   4.562
14647TIP3    H143884   2.666   2.669   4.655
14647TIP3    H243885   2.733   2.755   4.550
14648TIP3   OH243886   4.320   5.301   6.729
14648TIP3    H143887   4.239   5.278   6.685
14648TIP3    H243888   4.314   5.258   6.815
14649TIP3   OH243889   7.222   0.876   5.409
14649TIP3    H143890   7.171   0.795   5.403
14649TIP3    H243891   7.257   0.888   5.321
14650TIP3   OH243892   5.743   6.565   1.956
14650TIP3    H143893   5.800   6.494   1.986
14650TIP3    H243894   5.762   6.573   1.863
14651TIP3   OH243895   4.061   7.639   2.526
14651TIP3    H143896   4.079   7.562   2.581
14651TIP3    H243897   4.138   7.649   2.471
14652TIP3   OH243898   3.473   4.459   5.694
14652TIP3    H143899   3.508   4.544   5.720
14652TIP3    H243900   3.422   4.477   5.615
14653TIP3   OH243901   3.722   3.578   0.718
14653TIP3    H143902   3.750   3.500   0.766
14653TIP3    H243903   3.648   3.612   0.769
14654TIP3   OH243904   6.780   6.134   2.272
14654TIP3    H143905   6.697   6.183   2.268
14654TIP3    H243906   6.836   6.187   2.329
14655TIP3   OH243907   2.014   1.434   3.981
14655TIP3    H143908   2.042   1.398   3.897
14655TIP3    H243909   1.985   1.523   3.961
14656TIP3   OH243910   4.088   0.921   4.281
14656TIP3    H143911   4.146   0.976   4.228
14656TIP3    H243912   4.144   0.886   4.350
14657TIP3   OH243913   1.296   3.550   3.786
14657TIP3    H143914   1.309   3.640   3.757
14657TIP3    H243915   1.283   3.556   3.880
14658TIP3   OH243916   4.584   5.641   6.750
14658TIP3    H143917   4.617   5.642   6.840
14658TIP3    H243918   4.658   5.610   6.698
14659TIP3   OH243919   3.995   6.160   0.269
14659TIP3    H143920   3.950   6.079   0.294
14659TIP3    H243921   4.006   6.207   0.351
14660TIP3   OH243922   1.264   1.281   3.122
14660TIP3    H143923   1.222   1.199   3.098
14660TIP3    H243924   1.339   1.255   3.176
14661TIP3   OH243925   2.881   2.046   1.618
14661TIP3    H143926   2.953   2.109   1.624
14661TIP3    H243927   2.823   2.082   1.551
14662TIP3   OH243928   4.571   7.740   2.408
14662TIP3    H143929   4.581   7.828   2.371
14662TIP3    H243930   4.594   7.750   2.500
14663TIP3   OH243931   7.025   5.090   2.375
14663TIP3    H143932   6.995   5.005   2.343
14663TIP3    H243933   6.982   5.153   2.318
14664TIP3   OH243934   6.543   3.991   0.562
14664TIP3    H143935   6.625   3.959   0.524
14664TIP3    H243936   6.525   3.931   0.635
14665TIP3   OH243937   0.569   0.273   2.745
14665TIP3    H143938   0.572   0.189   2.791
14665TIP3    H243939   0.537   0.252   2.658
14666TIP3   OH243940   0.856   4.983   5.409
14666TIP3    H143941   0.777   4.929   5.402
14666TIP3    H243942   0.845   5.029   5.493
14667TIP3   OH243943   5.731   1.080   4.036
14667TIP3    H143944   5.719   1.162   3.988
14667TIP3    H243945   5.647   1.036   4.030
14668TIP3   OH243946   4.772   5.737   5.340
14668TIP3    H143947   4.702   5.802   5.344
14668TIP3    H243948   4.822   5.751   5.421
14669TIP3   OH243949   6.925   0.934   6.390
14669TIP3    H143950   6.934   1.004   6.455
14669TIP3    H243951   6.834   0.941   6.360
14670TIP3   OH243952   0.509   3.035   6.475
14670TIP3    H143953   0.460   3.017   6.395
14670TIP3    H243954   0.502   2.954   6.526
14671TIP3   OH243955   6.797   0.630   3.855
14671TIP3    H143956   6.713   0.618   3.811
14671TIP3    H243957   6.782   0.601   3.945
14672TIP3   OH243958   0.982   3.747   3.979
14672TIP3    H143959   0.994   3.783   3.891
14672TIP3    H243960   0.894   3.774   4.005
14673TIP3   OH243961   0.487   7.719   2.271
14673TIP3    H143962   0.511   7.710   2.179
14673TIP3    H243963   0.522   7.641   2.313
14674TIP3   OH243964   4.883   5.660   3.980
14674TIP3    H143965   4.956   5.627   4.033
14674TIP3    H243966   4.807   5.653   4.036
14675TIP3   OH243967   2.337   3.446   6.195
14675TIP3    H143968   2.346   3.518   6.131
14675TIP3    H243969   2.282   3.482   6.264
14676TIP3   OH243970   6.761   5.350   6.009
14676TIP3    H143971   6.669   5.371   5.996
14676TIP3    H243972   6.775   5.269   5.960
14677TIP3   OH243973   6.241   7.033   5.385
14677TIP3    H143974   6.224   7.023   5.479
14677TIP3    H243975   6.234   6.944   5.350
14678TIP3   OH243976   5.893   2.005   4.213
14678TIP3    H143977   5.946   1.926   4.201
14678TIP3    H243978   5.907   2.056   4.133
14679TIP3   OH243979   3.210   2.179   0.654
14679TIP3    H143980   3.194   2.208   0.564
14679TIP3    H243981   3.196   2.084   0.651
14680TIP3   OH243982   6.206   3.539   1.646
14680TIP3    H143983   6.224   3.630   1.667
14680TIP3    H243984   6.291   3.495   1.650
14681TIP3   OH243985   6.737   1.720   3.716
14681TIP3    H143986   6.692   1.777   3.652
14681TIP3    H243987   6.672   1.707   3.785
14682TIP3   OH243988   8.106   2.128   3.262
14682TIP3    H143989   8.068   2.177   3.334
14682TIP3    H243990   8.150   2.054   3.303
14683TIP3   OH243991   1.841   2.493   1.113
14683TIP3    H143992   1.797   2.574   1.138
14683TIP3    H243993   1.780   2.423   1.138
14684TIP3   OH243994   1.818   6.975   4.684
14684TIP3    H143995   1.780   6.951   4.600
14684TIP3    H243996   1.754   6.945   4.749
14685TIP3   OH243997   7.207   6.990   3.834
14685TIP3    H143998   7.255   6.909   3.851
14685TIP3    H243999   7.134   6.963   3.779
14686TIP3   OH244000   2.678   3.181   4.986
14686TIP3    H144001   2.595   3.211   4.948
14686TIP3    H244002   2.732   3.158   4.911
14687TIP3   OH244003   2.084   5.506   5.951
14687TIP3    H144004   2.143   5.557   6.006
14687TIP3    H244005   2.110   5.527   5.862
14688TIP3   OH244006   3.900   3.341   0.789
14688TIP3    H144007   3.937   3.392   0.861
14688TIP3    H244008   3.947   3.371   0.712
14689TIP3   OH244009   7.664   7.591   0.464
14689TIP3    H144010   7.573   7.602   0.493
14689TIP3    H244011   7.714   7.578   0.545
14690TIP3   OH244012   6.545   3.972   5.116
14690TIP3    H144013   6.466   3.963   5.170
14690TIP3    H244014   6.549   4.066   5.096
14691TIP3   OH244015   1.362   0.276   0.338
14691TIP3    H144016   1.268   0.283   0.320
14691TIP3    H244017   1.401   0.350   0.290
14692TIP3   OH244018   7.086   5.038   6.501
14692TIP3    H144019   7.143   4.971   6.540
14692TIP3    H244020   7.042   4.993   6.429
14693TIP3   OH244021   0.261   6.090   4.668
14693TIP3    H144022   0.343   6.106   4.620
14693TIP3    H244023   0.198   6.066   4.601
14694TIP3   OH244024   3.989   2.409   6.145
14694TIP3    H144025   3.998   2.327   6.193
14694TIP3    H244026   3.988   2.382   6.053
14695TIP3   OH244027   2.674   0.163   6.442
14695TIP3    H144028   2.583   0.164   6.413
14695TIP3    H244029   2.723   0.128   6.366
14696TIP3   OH244030   3.593   1.017   6.392
14696TIP3    H144031   3.670   0.959   6.392
14696TIP3    H244032   3.534   0.979   6.457
14697TIP3   OH244033   5.435   4.075   2.422
14697TIP3    H144034   5.354   4.040   2.385
14697TIP3    H244035   5.440   4.165   2.387
14698TIP3   OH244036   5.687   4.650   5.340
14698TIP3    H144037   5.770   4.604   5.330
14698TIP3    H244038   5.621   4.584   5.321
14699TIP3   OH244039   4.821   3.056   2.368
14699TIP3    H144040   4.881   3.031   2.437
14699TIP3    H244041   4.827   3.151   2.363
14700TIP3   OH244042   2.841   0.512   0.035
14700TIP3    H144043   2.825   0.602   0.064
14700TIP3    H244044   2.923   0.486   0.077
14701TIP3   OH244045   2.066   4.261   3.042
14701TIP3    H144046   2.053   4.349   3.076
14701TIP3    H244047   2.032   4.203   3.111
14702TIP3   OH244048   6.007   2.088   3.706
14702TIP3    H144049   6.037   2.152   3.641
14702TIP3    H244050   5.942   2.136   3.758
14703TIP3   OH244051   1.052   6.136   6.517
14703TIP3    H144052   0.965   6.133   6.557
14703TIP3    H244053   1.103   6.070   6.564
14704TIP3   OH244054   4.226   6.603   4.246
14704TIP3    H144055   4.318   6.602   4.218
14704TIP3    H244056   4.203   6.511   4.255
14705TIP3   OH244057   7.894   6.754   1.392
14705TIP3    H144058   7.911   6.801   1.474
14705TIP3    H244059   7.890   6.823   1.326
14706TIP3   OH244060   1.248   3.653   4.030
14706TIP3    H144061   1.181   3.594   4.063
14706TIP3    H244062   1.202   3.734   4.009
14707TIP3   OH244063   5.332   3.898   4.156
14707TIP3    H144064   5.299   3.974   4.204
14707TIP3    H244065   5.422   3.921   4.132
14708TIP3   OH244066   7.972   2.221   5.997
14708TIP3    H144067   8.036   2.159   6.031
14708TIP3    H244068   7.911   2.167   5.947
14709TIP3   OH244069   2.910   6.496   0.428
14709TIP3    H144070   2.986   6.548   0.454
14709TIP3    H244071   2.835   6.553   0.446
14710TIP3   OH244072   2.293   6.732   6.444
14710TIP3    H144073   2.255   6.699   6.526
14710TIP3    H244074   2.219   6.769   6.396
14711TIP3   OH244075   3.524   7.134   1.105
14711TIP3    H144076   3.616   7.138   1.078
14711TIP3    H244077   3.505   7.040   1.108
14712TIP3   OH244078   7.664   4.232   3.849
14712TIP3    H144079   7.753   4.206   3.825
14712TIP3    H244080   7.615   4.229   3.767
14713TIP3   OH244081   4.199   6.535   0.780
14713TIP3    H144082   4.204   6.453   0.830
14713TIP3    H244083   4.276   6.584   0.807
14714TIP3   OH244084   6.886   1.158   1.588
14714TIP3    H144085   6.916   1.099   1.658
14714TIP3    H244086   6.838   1.101   1.528
14715TIP3   OH244087   4.528   6.455   5.959
14715TIP3    H144088   4.463   6.385   5.957
14715TIP3    H244089   4.477   6.535   5.949
14716TIP3   OH244090   3.600   6.470   5.620
14716TIP3    H144091   3.692   6.442   5.621
14716TIP3    H244092   3.559   6.412   5.556
14717TIP3   OH244093   0.043   5.303   1.046
14717TIP3    H144094   0.025   5.353   1.126
14717TIP3    H244095  -0.039   5.308   0.996
14718TIP3   OH244096   3.853   4.974   0.333
14718TIP3    H144097   3.925   5.026   0.298
14718TIP3    H244098   3.848   5.000   0.425
14719TIP3   OH244099   3.632   7.513   0.688
14719TIP3    H144100   3.661   7.445   0.748
14719TIP3    H244101   3.578   7.468   0.623
14720TIP3   OH244102   7.395   7.590   1.683
14720TIP3    H144103   7.333   7.648   1.727
14720TIP3    H244104   7.467   7.647   1.657
14721TIP3   OH244105   3.020   5.677   2.510
14721TIP3    H144106   2.961   5.684   2.585
14721TIP3    H244107   2.962   5.665   2.435
14722TIP3   OH244108   0.106   4.764   5.737
14722TIP3    H144109   0.091   4.853   5.769
14722TIP3    H244110   0.174   4.774   5.671
14723TIP3   OH244111   6.444   2.270   1.949
14723TIP3    H144112   6.468   2.214   1.876
14723TIP3    H244113   6.506   2.248   2.019
14724TIP3   OH244114   1.262   5.932   0.829
14724TIP3    H144115   1.293   5.934   0.739
14724TIP3    H244116   1.314   5.998   0.874
14725TIP3   OH244117   1.476   3.358   5.025
14725TIP3    H144118   1.489   3.288   4.961
14725TIP3    H244119   1.539   3.339   5.095
14726TIP3   OH244120   3.475   1.552   4.523
14726TIP3    H144121   3.444   1.643   4.518
14726TIP3    H244122   3.543   1.554   4.590
14727TIP3   OH244123   8.095  -0.027   5.838
14727TIP3    H144124   8.168  -0.021   5.776
14727TIP3    H244125   8.067   0.063   5.852
14728TIP3   OH244126   3.351   5.109   2.952
14728TIP3    H144127   3.303   5.050   2.894
14728TIP3    H244128   3.289   5.128   3.023
14729TIP3   OH244129   1.717   7.723   5.261
14729TIP3    H144130   1.626   7.697   5.276
14729TIP3    H244131   1.731   7.798   5.320
14730TIP3   OH244132   7.043   3.458   4.186
14730TIP3    H144133   6.983   3.394   4.224
14730TIP3    H244134   7.036   3.444   4.091
14731TIP3   OH244135   0.179  -0.030   5.949
14731TIP3    H144136   0.217   0.005   5.869
14731TIP3    H244137   0.150   0.048   5.997
14732TIP3   OH244138   5.923   5.265   6.411
14732TIP3    H144139   5.970   5.185   6.433
14732TIP3    H244140   5.880   5.291   6.492
14733TIP3   OH244141   5.053   4.471   6.487
14733TIP3    H144142   5.065   4.495   6.394
14733TIP3    H244143   5.093   4.385   6.495
14734TIP3   OH244144   2.730   6.317   3.735
14734TIP3    H144145   2.716   6.308   3.641
14734TIP3    H244146   2.770   6.404   3.745
14735TIP3   OH244147   3.715   2.042   5.334
14735TIP3    H144148   3.792   1.987   5.316
14735TIP3    H244149   3.646   2.004   5.280
14736TIP3   OH244150   8.276   6.509   0.568
14736TIP3    H144151   8.321   6.475   0.490
14736TIP3    H244152   8.185   6.483   0.555
14737TIP3   OH244153   0.444   7.523   6.352
14737TIP3    H144154   0.467   7.517   6.259
14737TIP3    H244155   0.381   7.452   6.365
14738TIP3   OH244156   0.934   2.862   1.077
14738TIP3    H144157   0.849   2.852   1.034
14738TIP3    H244158   0.912   2.888   1.166
14739TIP3   OH244159   7.738   1.342   6.561
14739TIP3    H144160   7.720   1.360   6.469
14739TIP3    H244161   7.672   1.277   6.587
14740TIP3   OH244162   6.433   1.068   1.301
14740TIP3    H144163   6.487   1.136   1.261
14740TIP3    H244164   6.485   0.988   1.291
14741TIP3   OH244165   3.211   5.594   5.733
14741TIP3    H144166   3.128   5.563   5.769
14741TIP3    H244167   3.236   5.528   5.669
14742TIP3   OH244168   2.312   6.045   1.119
14742TIP3    H144169   2.283   6.013   1.033
14742TIP3    H244170   2.232   6.077   1.161
14743TIP3   OH244171   6.321   0.932   6.261
14743TIP3    H144172   6.286   0.981   6.186
14743TIP3    H244173   6.381   0.868   6.222
14744TIP3   OH244174   6.204   6.107   4.544
14744TIP3    H144175   6.186   6.016   4.566
14744TIP3    H244176   6.119   6.143   4.519
14745TIP3   OH244177   2.166   0.565   1.685
14745TIP3    H144178   2.170   0.470   1.674
14745TIP3    H244179   2.190   0.579   1.777
14746TIP3   OH244180   2.185   4.633   1.340
14746TIP3    H144181   2.253   4.619   1.407
14746TIP3    H244182   2.219   4.588   1.263
14747TIP3   OH244183   6.887   4.946   6.358
14747TIP3    H144184   6.823   5.007   6.320
14747TIP3    H244185   6.860   4.860   6.327
14748TIP3   OH244186   4.182   1.212   5.857
14748TIP3    H144187   4.121   1.181   5.790
14748TIP3    H244188   4.161   1.161   5.935
14749TIP3   OH244189   5.717   6.774   3.169
14749TIP3    H144190   5.674   6.793   3.253
14749TIP3    H244191   5.672   6.831   3.106
14750TIP3   OH244192   0.855   6.401   6.652
14750TIP3    H144193   0.930   6.459   6.644
14750TIP3    H244194   0.881   6.337   6.718
14751TIP3   OH244195   0.770   2.624   4.699
14751TIP3    H144196   0.864   2.608   4.713
14751TIP3    H244197   0.727   2.569   4.764
14752TIP3   OH244198   2.562   6.066   3.509
14752TIP3    H144199   2.559   6.140   3.448
14752TIP3    H244200   2.476   6.065   3.551
14753TIP3   OH244201   3.084   2.690   3.247
14753TIP3    H144202   3.137   2.631   3.193
14753TIP3    H244203   2.998   2.648   3.251
14754TIP3   OH244204   6.918   1.137   4.813
14754TIP3    H144205   6.826   1.113   4.805
14754TIP3    H244206   6.921   1.198   4.887
14755TIP3   OH244207   1.679   6.302   4.059
14755TIP3    H144208   1.771   6.279   4.061
14755TIP3    H244209   1.652   6.301   4.152
14756TIP3   OH244210   7.072   5.841   5.851
14756TIP3    H144211   7.006   5.773   5.842
14756TIP3    H244212   7.116   5.820   5.934
14757TIP3   OH244213   2.561   7.525   6.539
14757TIP3    H144214   2.545   7.611   6.501
14757TIP3    H244215   2.583   7.469   6.465
14758TIP3   OH244216   5.169   2.232   1.323
14758TIP3    H144217   5.222   2.302   1.361
14758TIP3    H244218   5.079   2.262   1.330
14759TIP3   OH244219   4.473   1.180   5.803
14759TIP3    H144220   4.378   1.192   5.793
14759TIP3    H244221   4.511   1.245   5.743
14760TIP3   OH244222   1.648   0.870   2.501
14760TIP3    H144223   1.738   0.838   2.503
14760TIP3    H244224   1.607   0.834   2.580
14761TIP3   OH244225   1.415   2.656   0.391
14761TIP3    H144226   1.495   2.680   0.344
14761TIP3    H244227   1.348   2.653   0.323
14762TIP3   OH244228   0.200   1.827   2.133
14762TIP3    H144229   0.165   1.757   2.079
14762TIP3    H244230   0.153   1.906   2.105
14763TIP3   OH244231   6.411   4.742   0.226
14763TIP3    H144232   6.443   4.762   0.314
14763TIP3    H244233   6.345   4.809   0.208
14764TIP3   OH244234   1.758   7.758   1.513
14764TIP3    H144235   1.696   7.800   1.453
14764TIP3    H244236   1.703   7.706   1.572
14765TIP3   OH244237   6.661   2.124   0.471
14765TIP3    H144238   6.636   2.049   0.525
14765TIP3    H244239   6.616   2.198   0.510
14766TIP3   OH244240   1.226   3.700   2.193
14766TIP3    H144241   1.271   3.745   2.265
14766TIP3    H244242   1.139   3.740   2.190
14767TIP3   OH244243   1.419   5.937   3.258
14767TIP3    H144244   1.358   5.868   3.231
14767TIP3    H244245   1.393   6.013   3.206
14768TIP3   OH244246   2.961   2.946   1.800
14768TIP3    H144247   2.936   2.966   1.890
14768TIP3    H244248   2.878   2.934   1.754
14769TIP3   OH244249   7.460   6.047   6.027
14769TIP3    H144250   7.411   6.000   5.959
14769TIP3    H244251   7.392   6.090   6.079
14770TIP3   OH244252   7.750   1.635   6.166
14770TIP3    H144253   7.768   1.550   6.125
14770TIP3    H244254   7.831   1.684   6.154
14771TIP3   OH244255   3.642   5.987   5.080
14771TIP3    H144256   3.726   6.021   5.110
14771TIP3    H244257   3.618   5.922   5.146
14772TIP3   OH244258   4.450   6.683   0.498
14772TIP3    H144259   4.455   6.679   0.593
14772TIP3    H244260   4.502   6.759   0.474
14773TIP3   OH244261   4.562   7.019   4.532
14773TIP3    H144262   4.583   6.930   4.505
14773TIP3    H244263   4.623   7.075   4.484
14774TIP3   OH244264   7.829   6.747   6.727
14774TIP3    H144265   7.772   6.820   6.750
14774TIP3    H244266   7.779   6.669   6.753
14775TIP3   OH244267   7.203   0.647   1.144
14775TIP3    H144268   7.286   0.627   1.188
14775TIP3    H244269   7.157   0.705   1.205
14776TIP3   OH244270   4.073   2.617   0.068
14776TIP3    H144271   4.076   2.524   0.089
14776TIP3    H244272   4.160   2.650   0.090
14777TIP3   OH244273   7.471   4.525   0.832
14777TIP3    H144274   7.546   4.465   0.827
14777TIP3    H244275   7.426   4.514   0.748
14778TIP3   OH244276   3.937   0.671   2.315
14778TIP3    H144277   3.886   0.746   2.345
14778TIP3    H244278   3.939   0.611   2.389
14779TIP3   OH244279   0.852   1.406   0.935
14779TIP3    H144280   0.931   1.353   0.940
14779TIP3    H244281   0.786   1.349   0.895
14780TIP3   OH244282   6.892   7.099   3.936
14780TIP3    H144283   6.881   7.100   4.031
14780TIP3    H244284   6.804   7.080   3.902
14781TIP3   OH244285   7.756   0.250   2.139
14781TIP3    H144286   7.735   0.169   2.094
14781TIP3    H244287   7.819   0.225   2.207
14782TIP3   OH244288   4.315   2.040   4.787
14782TIP3    H144289   4.300   2.135   4.791
14782TIP3    H244290   4.314   2.012   4.878
14783TIP3   OH244291   2.530   3.825   0.297
14783TIP3    H144292   2.605   3.879   0.321
14783TIP3    H244293   2.458   3.887   0.286
14784TIP3   OH244294   4.863   4.146   1.322
14784TIP3    H144295   4.771   4.127   1.337
14784TIP3    H244296   4.869   4.163   1.228
14785TIP3   OH244297   6.240   1.397   3.776
14785TIP3    H144298   6.324   1.352   3.770
14785TIP3    H244299   6.242   1.441   3.861
14786TIP3   OH244300   6.106   2.342   2.395
14786TIP3    H144301   6.178   2.393   2.431
14786TIP3    H244302   6.040   2.340   2.465
14787TIP3   OH244303   0.551   3.276   0.954
14787TIP3    H144304   0.495   3.261   0.878
14787TIP3    H244305   0.493   3.261   1.029
14788TIP3   OH244306   2.334   3.821   5.061
14788TIP3    H144307   2.415   3.783   5.096
14788TIP3    H244308   2.363   3.897   5.010
14789TIP3   OH244309   1.150   0.368   1.709
14789TIP3    H144310   1.085   0.299   1.726
14789TIP3    H244311   1.234   0.323   1.716
14790TIP3   OH244312   7.110   7.732   0.147
14790TIP3    H144313   7.165   7.690   0.213
14790TIP3    H244314   7.027   7.684   0.152
14791TIP3   OH244315   1.384   1.171   3.629
14791TIP3    H144316   1.354   1.080   3.625
14791TIP3    H244317   1.472   1.169   3.591
14792TIP3   OH244318  -0.037   3.777   0.679
14792TIP3    H144319   0.030   3.711   0.661
14792TIP3    H244320   0.012   3.858   0.694
14793TIP3   OH244321   0.755   2.400   6.444
14793TIP3    H144322   0.680   2.432   6.495
14793TIP3    H244323   0.753   2.453   6.364
14794TIP3   OH244324   1.575   4.703   0.528
14794TIP3    H144325   1.522   4.767   0.577
14794TIP3    H244326   1.529   4.694   0.444
14795TIP3   OH244327   6.792   5.663   2.218
14795TIP3    H144328   6.706   5.705   2.213
14795TIP3    H244329   6.825   5.686   2.305
14796TIP3   OH244330   1.904   0.657   1.713
14796TIP3    H144331   1.874   0.584   1.768
14796TIP3    H244332   1.999   0.645   1.708
14797TIP3   OH244333   4.596   4.230   6.444
14797TIP3    H144334   4.503   4.249   6.444
14797TIP3    H244335   4.622   4.233   6.536
14798TIP3   OH244336   6.298   1.251   4.641
14798TIP3    H144337   6.376   1.267   4.589
14798TIP3    H244338   6.230   1.230   4.577
14799TIP3   OH244339   3.821   2.405   4.440
14799TIP3    H144340   3.758   2.474   4.461
14799TIP3    H244341   3.825   2.352   4.519
14800TIP3   OH244342   2.580   4.030   4.472
14800TIP3    H144343   2.586   3.960   4.537
14800TIP3    H244344   2.614   3.990   4.391
14801TIP3   OH244345   1.286   2.233   0.519
14801TIP3    H144346   1.242   2.235   0.435
14801TIP3    H244347   1.340   2.154   0.516
14802TIP3   OH244348   5.993   3.674   1.505
14802TIP3    H144349   6.067   3.647   1.559
14802TIP3    H244350   6.007   3.768   1.492
14803TIP3   OH244351   1.286   7.543   1.296
14803TIP3    H144352   1.298   7.556   1.202
14803TIP3    H244353   1.243   7.458   1.304
14804TIP3   OH244354   1.554   5.935   5.729
14804TIP3    H144355   1.609   6.011   5.712
14804TIP3    H244356   1.523   5.908   5.642
14805TIP3   OH244357   2.427   2.795   0.472
14805TIP3    H144358   2.370   2.722   0.496
14805TIP3    H244359   2.368   2.868   0.455
14806TIP3   OH244360   7.557   7.040   0.739
14806TIP3    H144361   7.512   7.004   0.662
14806TIP3    H244362   7.489   7.046   0.806
14807TIP3   OH244363   3.928   5.775   3.883
14807TIP3    H144364   3.961   5.715   3.815
14807TIP3    H244365   3.994   5.772   3.952
14808TIP3   OH244366   6.094   6.647   5.290
14808TIP3    H144367   6.043   6.571   5.317
14808TIP3    H244368   6.058   6.671   5.205
14809TIP3   OH244369   5.854   6.769   3.874
14809TIP3    H144370   5.898   6.710   3.934
14809TIP3    H244371   5.818   6.712   3.806
14810TIP3   OH244372   7.143   3.794   1.666
14810TIP3    H144373   7.170   3.885   1.658
14810TIP3    H244374   7.216   3.744   1.629
14811TIP3   OH244375   3.991   0.337   4.287
14811TIP3    H144376   3.972   0.431   4.286
14811TIP3    H244377   3.932   0.301   4.353
14812TIP3   OH244378   3.581   3.881   4.097
14812TIP3    H144379   3.486   3.885   4.091
14812TIP3    H244380   3.607   3.970   4.120
14813TIP3   OH244381   6.858   3.262   1.170
14813TIP3    H144382   6.889   3.326   1.234
14813TIP3    H244383   6.794   3.309   1.117
14814TIP3   OH244384   1.795   7.491   2.158
14814TIP3    H144385   1.763   7.499   2.248
14814TIP3    H244386   1.725   7.528   2.104
14815TIP3   OH244387   1.641   6.563   2.354
14815TIP3    H144388   1.670   6.651   2.332
14815TIP3    H244389   1.557   6.575   2.397
14816TIP3   OH244390   6.583   1.745   4.206
14816TIP3    H144391   6.529   1.710   4.277
14816TIP3    H244392   6.600   1.836   4.230
14817TIP3   OH244393   1.323   7.562   4.165
14817TIP3    H144394   1.322   7.467   4.155
14817TIP3    H244395   1.375   7.594   4.091
14818TIP3   OH244396   4.144   2.892   4.197
14818TIP3    H144397   4.103   2.823   4.250
14818TIP3    H244398   4.216   2.847   4.153
14819TIP3   OH244399   3.973   0.704   3.900
14819TIP3    H144400   3.921   0.691   3.979
14819TIP3    H244401   3.916   0.753   3.841
14820TIP3   OH244402   5.531   7.694   6.700
14820TIP3    H144403   5.490   7.745   6.629
14820TIP3    H244404   5.460   7.674   6.760
14821TIP3   OH244405   2.514   5.087   4.132
14821TIP3    H144406   2.553   5.172   4.111
14821TIP3    H244407   2.589   5.032   4.155
14822TIP3   OH244408   2.934   6.949   3.160
14822TIP3    H144409   3.000   6.978   3.223
14822TIP3    H244410   2.984   6.905   3.091
14823TIP3   OH244411   0.969   5.785   1.912
14823TIP3    H144412   0.944   5.742   1.830
14823TIP3    H244413   0.971   5.878   1.891
14824TIP3   OH244414   1.556   0.467   4.002
14824TIP3    H144415   1.629   0.433   3.949
14824TIP3    H244416   1.581   0.446   4.092
14825TIP3   OH244417   0.300   7.599   4.506
14825TIP3    H144418   0.257   7.659   4.568
14825TIP3    H244419   0.233   7.582   4.440
14826TIP3   OH244420   7.064   1.233   3.467
14826TIP3    H144421   7.132   1.268   3.525
14826TIP3    H244422   7.048   1.145   3.499
14827TIP3   OH244423   5.942   3.135   1.615
14827TIP3    H144424   5.919   3.053   1.659
14827TIP3    H244425   6.002   3.109   1.546
14828TIP3   OH244426   3.186   1.177   4.350
14828TIP3    H144427   3.236   1.251   4.385
14828TIP3    H244428   3.121   1.217   4.292
14829TIP3   OH244429   3.510   1.009   1.869
14829TIP3    H144430   3.598   0.972   1.864
14829TIP3    H244431   3.452   0.935   1.852
14830TIP3   OH244432   5.823   5.715   4.092
14830TIP3    H144433   5.862   5.631   4.068
14830TIP3    H244434   5.854   5.731   4.182
   8.29716   7.82264   6.77460   0.00000   0.00000  -2.76572   0.00000  -2.76572  -3.91132
