* SET NIONTYPES = 1
* SET NPOSTOT = 46
* SET NNEGTOT = 42
* SET NIONTOT = 88
*  DATE:     6/13/26     11:56:13      CREATED BY USER: charmm-gui
*
        88  EXT
         1         1  SOD       SOD           -31.3480684427      -20.7159305426      -19.2091595955  IONS      1               1.0000000000
         2         2  SOD       SOD             9.6076878725       18.4180622344       19.5796289914  IONS      2               1.0000000000
         3         3  SOD       SOD           -31.2636021279       31.6515823319       -7.3436196648  IONS      3               1.0000000000
         4         4  SOD       SOD           -31.4558277373      -23.0503792845       -4.7272702970  IONS      4               1.0000000000
         5         5  SOD       SOD           -22.8694668660      -24.7182953504      -25.4101889663  IONS      5               1.0000000000
         6         6  SOD       SOD           -18.9621303334      -37.6307698785      -14.2922238779  IONS      6               1.0000000000
         7         7  SOD       SOD            11.5748392015      -15.0516876174       -3.9644422019  IONS      7               1.0000000000
         8         8  SOD       SOD            -6.0528577520        7.9818485632       37.4305399445  IONS      8               1.0000000000
         9         9  SOD       SOD            -4.6278224075       30.6573017030      -35.3393289931  IONS      9               1.0000000000
        10        10  SOD       SOD            10.0049027967      -15.9288346643      -23.8322705100  IONS      10              1.0000000000
        11        11  SOD       SOD            -8.5595695891       -1.8958019592      -30.0195245106  IONS      11              1.0000000000
        12        12  SOD       SOD             9.9984719840       23.0075711638       19.5252830449  IONS      12              1.0000000000
        13        13  SOD       SOD            -3.8405527406       41.9207470079       17.2517562496  IONS      13              1.0000000000
        14        14  SOD       SOD           -19.5684279913       -3.7345307456      -20.5116267744  IONS      14              1.0000000000
        15        15  SOD       SOD           -31.4433186141       20.9895640910        6.1007520324  IONS      15              1.0000000000
        16        16  SOD       SOD            13.8466559999       29.3814194287       -3.6032420691  IONS      16              1.0000000000
        17        17  SOD       SOD            24.6470663163      -22.1574158355       21.1360585775  IONS      17              1.0000000000
        18        18  SOD       SOD            14.3086911933      -32.3203619222        3.4899985913  IONS      18              1.0000000000
        19        19  SOD       SOD           -39.9348977663       18.3680676141       -3.2405561940  IONS      19              1.0000000000
        20        20  SOD       SOD             1.9023607780      -21.5467637929      -19.8536886979  IONS      20              1.0000000000
        21        21  SOD       SOD             0.4087068318       24.1556138121        6.7919908848  IONS      21              1.0000000000
        22        22  SOD       SOD           -35.7220413576      -23.7971320058        9.8711921436  IONS      22              1.0000000000
        23        23  SOD       SOD           -23.5685652714       -9.1519841833       28.5183202510  IONS      23              1.0000000000
        24        24  SOD       SOD            22.1094075574       24.3230022279        6.2328004000  IONS      24              1.0000000000
        25        25  SOD       SOD            -0.9880984708      -35.9488412870       15.6155654486  IONS      25              1.0000000000
        26        26  SOD       SOD            26.2687215466        3.4109086109        3.0496004364  IONS      26              1.0000000000
        27        27  SOD       SOD             0.9463036181      -17.1353487556        6.2552456819  IONS      27              1.0000000000
        28        28  SOD       SOD           -12.7234466004       -0.7264621047       -5.6650607940  IONS      28              1.0000000000
        29        29  SOD       SOD            34.5805862363      -18.1633746913       -3.9380961467  IONS      29              1.0000000000
        30        30  SOD       SOD            -9.1325516533       -4.2053652459       31.9469717304  IONS      30              1.0000000000
        31        31  SOD       SOD           -10.7918623039      -16.1180559357       -0.1597091358  IONS      31              1.0000000000
        32        32  SOD       SOD           -20.2690538057        5.2168839491       37.4608248778  IONS      32              1.0000000000
        33        33  SOD       SOD           -11.2717714349      -17.0536022678      -16.6674167863  IONS      33              1.0000000000
        34        34  SOD       SOD            21.1689188332       17.7907632695       21.1097291784  IONS      34              1.0000000000
        35        35  SOD       SOD            33.0548777031       16.0715447222      -30.9164118998  IONS      35              1.0000000000
        36        36  SOD       SOD           -26.8826661065       11.2524951954        1.0109445736  IONS      36              1.0000000000
        37        37  SOD       SOD            -7.9708908986      -24.2287531590       -5.8617122153  IONS      37              1.0000000000
        38        38  SOD       SOD            -7.0817624607       21.6838398628       41.3682732383  IONS      38              1.0000000000
        39        39  SOD       SOD             9.7570018428      -21.7074831281        5.5444147972  IONS      39              1.0000000000
        40        40  SOD       SOD             6.0292117951       -9.3991093750      -30.0073757878  IONS      40              1.0000000000
        41        41  SOD       SOD           -33.5848150207       22.0670590254      -24.4537109603  IONS      41              1.0000000000
        42        42  SOD       SOD            -2.8243036913      -19.8772585376      -44.5234899067  IONS      42              1.0000000000
        43        43  SOD       SOD           -19.5329793055        4.6349167135      -35.5940820504  IONS      43              1.0000000000
        44        44  SOD       SOD           -37.3269991010       30.3948979708      -14.2365654518  IONS      44              1.0000000000
        45        45  SOD       SOD            -9.1032516408      -44.1118540420      -14.4306994828  IONS      45              1.0000000000
        46        46  SOD       SOD            18.1009978608      -35.0886208219        9.7511166934  IONS      46              1.0000000000
        47        47  CLA       CLA           -31.4666628888       -8.7329829473      -23.6916098064  IONS      47             -1.0000000000
        48        48  CLA       CLA           -35.7517821200       29.9270833991       -4.3190521752  IONS      48             -1.0000000000
        49        49  CLA       CLA            -1.9069631742       39.8390727302       25.5618003516  IONS      49             -1.0000000000
        50        50  CLA       CLA           -42.5215791295        1.8879720253      -25.6041557970  IONS      50             -1.0000000000
        51        51  CLA       CLA            -5.9013409641       16.5689843725       39.7142175058  IONS      51             -1.0000000000
        52        52  CLA       CLA            11.1661058771       36.6395913445       21.3997646147  IONS      52             -1.0000000000
        53        53  CLA       CLA             7.2097871462      -15.5607043030        3.3446196297  IONS      53             -1.0000000000
        54        54  CLA       CLA           -16.6991483914       -9.6451650717       33.9440732208  IONS      54             -1.0000000000
        55        55  CLA       CLA            22.6750272668        9.1655906311       20.9913512648  IONS      55             -1.0000000000
        56        56  CLA       CLA            24.6972953689      -13.6084269320      -34.0238375944  IONS      56             -1.0000000000
        57        57  CLA       CLA            15.4928733643       19.0107121346       12.4647805847  IONS      57             -1.0000000000
        58        58  CLA       CLA           -10.8270079139      -22.5433104293        2.4999152107  IONS      58             -1.0000000000
        59        59  CLA       CLA           -17.4318998534      -33.6077406860        3.9626214268  IONS      59             -1.0000000000
        60        60  CLA       CLA           -30.1299684055      -22.4645177252       10.4470281796  IONS      60             -1.0000000000
        61        61  CLA       CLA            -5.2320200519       22.5492923546      -32.2265741214  IONS      61             -1.0000000000
        62        62  CLA       CLA             7.3338548721        3.7940425717      -24.7290499059  IONS      62             -1.0000000000
        63        63  CLA       CLA            -1.4683885860      -14.3996597377      -17.8290998553  IONS      63             -1.0000000000
        64        64  CLA       CLA             8.0517084025      -19.4514463676      -20.9365315513  IONS      64             -1.0000000000
        65        65  CLA       CLA            -0.5419723652      -40.4683170672       -9.4756788868  IONS      65             -1.0000000000
        66        66  CLA       CLA            12.6676366497       21.2171864562       22.8111414612  IONS      66             -1.0000000000
        67        67  CLA       CLA             7.0777478953        9.8515529729       11.5459508412  IONS      67             -1.0000000000
        68        68  CLA       CLA            -7.3610644922        3.2671411621      -33.6647227733  IONS      68             -1.0000000000
        69        69  CLA       CLA            11.9104818714      -29.7291203161       27.3397212038  IONS      69             -1.0000000000
        70        70  CLA       CLA           -32.9894047211       16.4406759889      -21.9833253293  IONS      70             -1.0000000000
        71        71  CLA       CLA           -23.8582870862       13.1522114253       34.7633421883  IONS      71             -1.0000000000
        72        72  CLA       CLA            17.8681397381       27.4070528728       -5.3396535467  IONS      72             -1.0000000000
        73        73  CLA       CLA           -18.7017279404      -40.2685012093       -7.7440429144  IONS      73             -1.0000000000
        74        74  CLA       CLA            -2.5274775489      -40.7968648536       15.2524849572  IONS      74             -1.0000000000
        75        75  CLA       CLA             1.2943196209      -12.4503343577        0.5882609912  IONS      75             -1.0000000000
        76        76  CLA       CLA           -31.0705504228       23.4723422412       30.3692181002  IONS      76             -1.0000000000
        77        77  CLA       CLA           -14.6525227008      -21.0623489006      -10.5807067272  IONS      77             -1.0000000000
        78        78  CLA       CLA            -9.7928285137       -2.7053458281      -10.3207054894  IONS      78             -1.0000000000
        79        79  CLA       CLA             4.3272822785      -29.1870377978      -21.7156446009  IONS      79             -1.0000000000
        80        80  CLA       CLA           -33.7322122462      -17.0124287836       -2.1251172983  IONS      80             -1.0000000000
        81        81  CLA       CLA            -5.3567501227      -14.4125493773       19.0788016918  IONS      81             -1.0000000000
        82        82  CLA       CLA           -38.3064314032       16.5710364101       -7.6843195572  IONS      82             -1.0000000000
        83        83  CLA       CLA            -7.8241583838      -13.5091103104      -25.9157099451  IONS      83             -1.0000000000
        84        84  CLA       CLA            14.3915728694       16.0607896385       -2.7990547729  IONS      84             -1.0000000000
        85        85  CLA       CLA             9.0403360849      -12.1485655171      -32.7869048875  IONS      85             -1.0000000000
        86        86  CLA       CLA            23.4944883603      -14.8376224350      -42.0647659172  IONS      86             -1.0000000000
        87        87  CLA       CLA            -2.7141620168      -29.9885166890      -36.4817984060  IONS      87             -1.0000000000
        88        88  CLA       CLA           -14.3524086138      -37.5532456557      -13.1045908842  IONS      88             -1.0000000000
