Title
19927
    1ASP      N    1   1.341   3.771   1.522  0.2154 -0.4638  0.3101
    1ASP    HT1    2   1.244   3.771   1.560  0.4867  0.4563  1.0630
    1ASP    HT2    3   1.395   3.808   1.603 -0.9884 -0.9784  1.3912
    1ASP    HT3    4   1.378   3.676   1.504  1.1970 -0.3209  1.4184
    1ASP     CA    5   1.356   3.879   1.412 -0.3461  0.3337 -0.3143
    1ASP     HA    6   1.357   3.983   1.441 -0.0436  0.4059 -0.5653
    1ASP     CB    7   1.487   3.850   1.334 -0.3959 -0.2285  0.0761
    1ASP    HB1    8   1.480   3.884   1.228  0.0654 -1.7800 -0.4832
    1ASP    HB2    9   1.511   3.742   1.323  0.2991 -0.2263  1.3857
    1ASP     CG   10   1.614   3.916   1.390 -0.7319  0.4142 -0.6295
    1ASP    OD1   11   1.716   3.926   1.322 -0.0917  0.6793 -0.1468
    1ASP    OD2   12   1.611   3.951   1.511 -0.3630 -0.7195 -0.5896
    1ASP      C   13   1.236   3.867   1.314  0.1087  0.0891 -0.7646
    1ASP      O   14   1.165   3.774   1.322 -0.2184 -0.6887 -0.0694
    2ALA      N   15   1.210   3.968   1.232  0.6748  0.7807  0.1278
    2ALA     HN   16   1.271   4.047   1.229 -0.6310  1.7886 -1.1145
    2ALA     CA   17   1.104   3.976   1.135  0.3060  0.6365 -0.0359
    2ALA     HA   18   1.017   3.943   1.189  1.5753 -2.8963  0.0740
    2ALA     CB   19   1.100   4.121   1.086 -0.1105  0.0175 -0.0157
    2ALA    HB1   20   1.019   4.138   1.012 -0.6427 -0.2777  0.4934
    2ALA    HB2   21   1.202   4.149   1.054  0.3200 -0.7712  0.6136
    2ALA    HB3   22   1.077   4.192   1.168 -2.9726  2.3073 -2.5912
    2ALA      C   23   1.116   3.887   1.013 -0.5618  0.4209  0.0483
    2ALA      O   24   1.223   3.840   0.985 -0.4945  0.6466  0.4949
    3ASP      N   25   1.003   3.854   0.946  0.0328 -0.1708  0.1981
    3ASP     HN   26   0.918   3.902   0.964  0.1119  0.5294 -1.2079
    3ASP     CA   27   0.989   3.775   0.832 -0.1015 -0.2356 -0.0277
    3ASP     HA   28   1.074   3.710   0.819  0.0084 -0.2544  0.7443
    3ASP     CB   29   0.862   3.695   0.847 -0.0612 -0.0995  0.2390
    3ASP    HB1   30   0.836   3.642   0.753 -1.7881  0.1720  0.5288
    3ASP    HB2   31   0.785   3.770   0.875 -0.1343 -0.1717  0.2313
    3ASP     CG   32   0.862   3.579   0.948 -0.2564  0.6925 -0.6367
    3ASP    OD1   33   0.761   3.502   0.944 -0.1466  0.1923  0.0834
    3ASP    OD2   34   0.955   3.562   1.033  0.4215  0.2068  0.9860
    3ASP      C   35   0.993   3.869   0.709  0.6274  0.0269 -0.2985
    3ASP      O   36   0.998   3.995   0.717  0.7470 -0.4833  0.2896
    4GLY      N   37   0.983   3.806   0.587  0.4683  0.0362 -1.1872
    4GLY     HN   38   0.980   3.707   0.583  1.9093 -0.0094 -1.7410
    4GLY     CA   39   0.980   3.874   0.457 -0.4199 -0.4338  0.8607
    4GLY    HA1   40   0.995   3.795   0.384 -0.8708 -1.8521  2.2303
    4GLY    HA2   41   1.049   3.956   0.453 -0.9916  0.0232 -2.1630
    4GLY      C   42   0.841   3.917   0.425 -0.0380 -0.3447 -0.2218
    4GLY      O   43   0.752   3.892   0.506 -0.3998 -0.3233  0.7489
    5PRO      N   44   0.814   3.974   0.308 -0.4975 -0.1916  0.0759
    5PRO     CD   45   0.905   3.995   0.197 -0.3747 -0.4802 -0.2537
    5PRO    HD1   46   0.921   3.897   0.147  0.0390  0.4363 -1.9985
    5PRO    HD2   47   1.005   4.030   0.231 -0.2159  0.5065 -1.6419
    5PRO     CA   48   0.692   4.062   0.293  0.5056  0.6731  0.3816
    5PRO     HA   49   0.643   4.085   0.386 -1.0799 -0.4834 -0.1218
    5PRO     CB   50   0.736   4.170   0.194  0.1371 -0.0259 -0.0223
    5PRO    HB1   51   0.793   4.244   0.253  0.1750  1.4588 -1.7918
    5PRO    HB2   52   0.654   4.222   0.139  0.6090  1.0114  0.2281
    5PRO     CG   53   0.840   4.096   0.109 -0.4893  0.3421  0.2068
    5PRO    HG1   54   0.778   4.055   0.027 -1.1123 -0.5738  1.1256
    5PRO    HG2   55   0.913   4.167   0.063 -1.1230  0.6909 -0.2832
    5PRO      C   56   0.590   3.969   0.226 -0.1709 -0.0272 -0.3782
    5PRO      O   57   0.505   4.030   0.161 -0.3872  0.4435  0.1578
    6GLY      N   58   0.590   3.837   0.257 -0.0443  0.1991 -0.0791
    6GLY     HN   59   0.667   3.801   0.308  0.8050  0.9318 -0.8140
    6GLY     CA   60   0.476   3.746   0.229 -0.1329  0.2471  0.7582
    6GLY    HA1   61   0.385   3.792   0.265  1.1999  1.3283  2.8826
    6GLY    HA2   62   0.499   3.649   0.271 -2.7737  0.0784  1.9857
    6GLY      C   63   0.450   3.733   0.086 -0.3872 -0.3661 -0.4514
    6GLY      O   64   0.539   3.726   0.008 -0.4095 -0.0288 -0.0308
    7ASP      N   65   0.325   3.723   0.042 -0.2934 -0.0695 -0.1336
    7ASP     HN   66   0.253   3.732   0.111  1.0858  0.8432  1.2469
    7ASP     CA   67   0.293   3.689  -0.096 -0.0077  0.7413 -0.4496
    7ASP     HA   68   0.348   3.603  -0.134 -1.4086  0.7320 -2.6028
    7ASP     CB   69   0.146   3.646  -0.127 -0.2614 -0.5057  0.4107
    7ASP    HB1   70   0.121   3.645  -0.235 -1.1308  1.1946  0.5587
    7ASP    HB2   71   0.082   3.729  -0.088  2.1294  3.0975 -2.5507
    7ASP     CG   72   0.098   3.515  -0.076 -0.0652 -0.0294  0.0073
    7ASP    OD1   73   0.157   3.463   0.024  0.4779 -0.0408 -0.3047
    7ASP    OD2   74  -0.005   3.461  -0.131  0.1408 -0.2251  0.1739
    7ASP      C   75   0.326   3.806  -0.197 -0.1744 -0.0736 -0.2727
    7ASP      O   76   0.298   3.923  -0.161  0.0458  0.5748 -0.2092
    8PRO      N   77   0.384   3.794  -0.320 -0.2683 -0.0128  0.3113
    8PRO     CD   78   0.476   3.686  -0.356  0.0644 -0.0662  0.0511
    8PRO    HD1   79   0.415   3.595  -0.374  1.2258 -1.2908  1.8811
    8PRO    HD2   80   0.536   3.663  -0.265 -1.1159  1.8674  1.3772
    8PRO     CA   81   0.403   3.906  -0.406 -0.3842  0.3896 -0.6308
    8PRO     HA   82   0.475   3.974  -0.362 -0.3965  1.1817 -1.7902
    8PRO     CB   83   0.462   3.835  -0.533 -0.1756  0.4830  0.2666
    8PRO    HB1   84   0.504   3.909  -0.604 -1.2555  0.9553  0.1069
    8PRO    HB2   85   0.384   3.779  -0.589  0.8789 -0.3261 -0.4336
    8PRO     CG   86   0.561   3.737  -0.474  0.3149  0.2836 -0.1211
    8PRO    HG1   87   0.597   3.661  -0.546  0.2990 -0.5757  0.7637
    8PRO    HG2   88   0.657   3.783  -0.443  1.9588 -0.8090 -3.1759
    8PRO      C   89   0.276   3.993  -0.443 -0.7189  0.0034  0.4289
    8PRO      O   90   0.171   3.932  -0.448  0.2999 -0.3303  0.4628
    9ASP      N   91   0.294   4.127  -0.462  0.5578  0.4303  0.0718
    9ASP     HN   92   0.380   4.174  -0.441  0.1132  1.8591 -1.1262
    9ASP     CA   93   0.190   4.219  -0.498 -0.2904  0.4832 -0.2851
    9ASP     HA   94   0.110   4.206  -0.426  1.2949 -1.3644  1.2713
    9ASP     CB   95   0.249   4.366  -0.474  1.6031  0.1532  0.3878
    9ASP    HB1   96   0.326   4.382  -0.552  1.0095 -1.8090 -0.6759
    9ASP    HB2   97   0.295   4.357  -0.372  0.9071 -1.3069  0.6007
    9ASP     CG   98   0.147   4.470  -0.492  0.2215  0.6073 -0.0218
    9ASP    OD1   99   0.028   4.446  -0.456  0.2149 -0.3206  0.1543
    9ASP    OD2  100   0.185   4.586  -0.526 -0.1489 -0.3627 -0.3852
    9ASP      C  101   0.119   4.183  -0.634  0.0281  0.2334 -0.4355
    9ASP      O  102   0.183   4.127  -0.718 -0.1072  0.3906  0.6988
   10ALA      N  103  -0.012   4.209  -0.655 -0.1218  0.1835 -0.7038
   10ALA     HN  104  -0.072   4.244  -0.584  0.2000  1.1188 -0.8788
   10ALA     CA  105  -0.075   4.193  -0.783 -0.2558  0.2389  0.0704
   10ALA     HA  106  -0.032   4.107  -0.832 -1.4740 -0.1627 -0.3228
   10ALA     CB  107  -0.236   4.167  -0.775 -0.5487 -0.1995  0.1634
   10ALA    HB1  108  -0.251   4.078  -0.711 -0.2124 -0.8943 -0.7108
   10ALA    HB2  109  -0.275   4.149  -0.877 -2.3418  0.9158  0.6143
   10ALA    HB3  110  -0.270   4.264  -0.733  0.9430 -0.8210  3.0661
   10ALA      C  111  -0.050   4.314  -0.871 -0.9002  0.3231 -0.1546
   10ALA      O  112  -0.070   4.426  -0.824  0.4524 -0.2815 -0.0269
   11GLY      N  113  -0.010   4.294  -0.991  0.2370 -0.1392 -0.9511
   11GLY     HN  114  -0.004   4.198  -1.020  1.1923 -0.0776 -0.9951
   11GLY     CA  115   0.018   4.394  -1.087 -0.6518  0.1447 -0.1002
   11GLY    HA1  116   0.053   4.486  -1.043 -1.6756  0.5724 -0.1527
   11GLY    HA2  117  -0.070   4.409  -1.148  0.0547  0.7067 -1.0098
   11GLY      C  118   0.132   4.359  -1.187 -0.0553  0.4999 -0.5232
   11GLY    OT1  119   0.172   4.239  -1.204 -0.1930  0.2761 -0.2621
   11GLY    OT2  120   0.182   4.451  -1.256  0.2756 -0.2973  0.4877
   12SOD    SOD  121   3.616   4.327   4.029 -0.4117 -0.1779  0.3937
   13SOD    SOD  122   3.686   5.440   0.679  0.3454 -0.6572  0.3852
   14SOD    SOD  123   0.938   5.884   2.241  0.4488  0.2707 -0.4546
   15SOD    SOD  124   2.607   5.893   5.159 -0.2944  0.2114  0.2255
   16SOD    SOD  125   1.554   3.134   3.158 -0.0022  0.3535 -0.2223
   17SOD    SOD  126   4.829   3.452   1.926  0.3374  0.5120  0.5954
   18SOD    SOD  127   4.214   3.812   4.475 -0.1546 -0.1158  0.2450
   19SOD    SOD  128   4.247   5.173   0.127  0.3357 -0.3657 -0.5264
   20SOD    SOD  129   4.823   1.701   4.740 -0.4894  0.2730 -0.1590
   21SOD    SOD  130   1.443   4.524   1.134  0.2726 -0.3448 -0.4311
   22SOD    SOD  131   3.792   5.152   3.690 -0.3051 -0.0757  0.0497
   23SOD    SOD  132   3.299   3.423   4.943  0.0717 -0.3534 -0.4221
   24SOD    SOD  133   0.006   1.660   2.080  0.4031 -0.2356  0.4717
   25SOD    SOD  134   0.511   1.470   3.385 -0.0634 -0.1981 -0.0531
   26SOD    SOD  135   1.919   1.253   1.294  0.2061 -0.0634  0.3515
   27SOD    SOD  136   1.838   2.543   1.088 -0.0946  0.3565 -0.0029
   28SOD    SOD  137   5.394   1.246   0.780  0.3228  0.2553  0.2304
   29SOD    SOD  138   1.111   2.383   0.282  0.3200 -1.0263 -0.2074
   30SOD    SOD  139   4.313   0.865   2.725  0.3016  0.5294  0.7313
   31SOD    SOD  140   0.305   5.315   4.852  0.1263  0.5150 -0.0839
   32SOD    SOD  141   2.657   3.010   3.985 -0.1773  0.1711  0.3058
   33SOD    SOD  142   5.644   2.855   4.485 -0.0657 -0.2772  0.6816
   34CLA    CLA  143   6.117   3.668   4.563  0.1365  0.4714  0.1594
   35CLA    CLA  144   2.583   1.948   4.034  0.1243 -0.6226 -0.0690
   36CLA    CLA  145   4.077   0.630   0.288  0.5853  0.0146 -0.2488
   37CLA    CLA  146   2.136   2.845   4.047  0.0760 -0.6136 -0.0861
   38CLA    CLA  147   2.997   1.032   4.641  0.0327 -0.0466  0.1114
   39CLA    CLA  148   6.156   0.872   1.624 -0.2151 -0.0503  0.4186
   40CLA    CLA  149   3.487   5.930   3.828 -0.2041 -0.1943 -0.2110
   41CLA    CLA  150   2.527   4.103   5.107 -0.3378  0.3275 -0.1451
   42CLA    CLA  151   5.056   2.178   4.641  0.3447 -0.2601  0.0894
   43CLA    CLA  152   4.174   0.001   2.165  0.0980  0.0085  0.3880
   44CLA    CLA  153   3.461   4.743   2.951 -0.2659  0.1762  0.3506
   45CLA    CLA  154   6.048   4.566   5.081 -0.0936  0.0053 -0.0970
   46CLA    CLA  155   0.851   1.170   3.068  0.3562 -0.4231 -0.5077
   47CLA    CLA  156   3.930   0.333   2.324  0.1011  0.1463 -0.1736
   48CLA    CLA  157   2.224   0.833   1.867  0.1910 -0.1038 -0.0908
   49CLA    CLA  158   3.595   4.046   4.212 -0.5029  0.2187  0.0928
   50CLA    CLA  159   1.180   2.672   3.570 -0.2416  0.2759 -0.3285
   51CLA    CLA  160   4.989   4.404   4.104  0.0611  0.2042 -0.3249
   52TIP3   OH2  161   1.689   3.674   0.238  0.7238 -0.0932  0.0564
   52TIP3    H1  162   1.691   3.678   0.142  2.6236  1.1608  0.0841
   52TIP3    H2  163   1.628   3.744   0.264  1.5892  0.8029 -0.2461
   53TIP3   OH2  164   6.045   5.387   3.286 -0.5733 -0.2375 -0.0344
   53TIP3    H1  165   6.041   5.332   3.208  0.0920 -0.0587 -0.1986
   53TIP3    H2  166   5.963   5.437   3.284 -0.0364  0.6846 -1.3136
   54TIP3   OH2  167   1.495   1.482   1.734  0.0308  0.5187  0.1361
   54TIP3    H1  168   1.446   1.472   1.816 -0.2588 -0.6152 -0.1554
   54TIP3    H2  169   1.583   1.504   1.762 -0.4181  1.6873  0.6962
   55TIP3   OH2  170   4.029   2.375   2.893  0.3184 -0.1820 -0.7517
   55TIP3    H1  171   4.121   2.351   2.888  0.2473 -0.9030  0.6222
   55TIP3    H2  172   3.985   2.317   2.831  0.5778 -1.2140  0.0025
   56TIP3   OH2  173   4.722   0.907   4.197  0.0702  0.1250 -0.1930
   56TIP3    H1  174   4.772   0.826   4.206 -0.0406 -0.3013 -2.7229
   56TIP3    H2  175   4.636   0.879   4.167 -0.2508  1.1347 -0.2537
   57TIP3   OH2  176   4.904   4.200   4.836  0.5950  0.1641 -0.1004
   57TIP3    H1  177   4.986   4.244   4.858  0.2345  0.3697  0.8623
   57TIP3    H2  178   4.866   4.253   4.766  0.2824  1.2374  0.8791
   58TIP3   OH2  179   2.058   0.548   3.191  0.7127  0.3997 -0.5486
   58TIP3    H1  180   1.996   0.477   3.207  1.6741 -0.2055  0.6132
   58TIP3    H2  181   2.017   0.625   3.229  0.6820 -0.0130  0.2811
   59TIP3   OH2  182   4.127   0.714   3.678 -0.2795 -0.2861  0.7791
   59TIP3    H1  183   4.122   0.705   3.774 -0.4371  0.2712  0.8294
   59TIP3    H2  184   4.189   0.785   3.664 -0.6833  0.0159  0.4864
   60TIP3   OH2  185   2.289   0.946   4.593  0.2397 -0.2405 -0.1142
   60TIP3    H1  186   2.351   1.005   4.551 -1.1353  0.7910 -0.8013
   60TIP3    H2  187   2.207   0.960   4.546 -0.7984 -0.7338  1.4543
   61TIP3   OH2  188   1.197   2.796   0.184 -0.0586 -0.4954 -0.2388
   61TIP3    H1  189   1.181   2.861   0.116  2.1716  0.7868  0.3466
   61TIP3    H2  190   1.261   2.736   0.146 -0.6645 -1.2583 -0.0952
   62TIP3   OH2  191   4.166   1.450   1.519 -0.4270  0.8477  0.2396
   62TIP3    H1  192   4.252   1.480   1.550 -0.4811 -0.4520  1.7854
   62TIP3    H2  193   4.116   1.530   1.507  0.6167  1.5754  0.5322
   63TIP3   OH2  194   2.160   0.367   0.739 -0.0674 -0.2266 -0.3533
   63TIP3    H1  195   2.140   0.450   0.695  1.7533  0.6685  0.4285
   63TIP3    H2  196   2.133   0.381   0.830  1.0466 -0.1573 -0.0255
   64TIP3   OH2  197   4.633   1.772   1.601 -0.4094  0.2210 -0.0861
   64TIP3    H1  198   4.615   1.697   1.544  0.6524  2.0880 -3.1440
   64TIP3    H2  199   4.601   1.847   1.551 -1.1448  1.8951  2.7178
   65TIP3   OH2  200   3.510   5.048   0.742 -0.0607 -0.8067 -0.6985
   65TIP3    H1  201   3.455   5.020   0.815  0.0656  0.4325 -0.0926
   65TIP3    H2  202   3.490   4.986   0.672 -1.6579 -0.8667 -0.2452
   66TIP3   OH2  203   0.192   1.885   5.070 -0.0915 -0.2565 -0.2022
   66TIP3    H1  204   0.200   1.923   5.158 -0.5040  0.7925 -0.6010
   66TIP3    H2  205   0.114   1.830   5.075 -0.6591  0.5383 -0.1557
   67TIP3   OH2  206   3.100   0.608   4.049 -0.0136 -0.1029 -0.3257
   67TIP3    H1  207   3.060   0.550   4.113 -0.1120 -0.1160 -0.3993
   67TIP3    H2  208   3.048   0.688   4.052  0.5752  0.2671  0.3128
   68TIP3   OH2  209   1.436   1.261   1.244  0.3617 -0.1118 -0.6753
   68TIP3    H1  210   1.374   1.242   1.174  0.0420 -1.7509  0.0009
   68TIP3    H2  211   1.500   1.190   1.239  0.6054  0.0163  0.3828
   69TIP3   OH2  212   3.617   1.704   2.936 -0.3272  0.7514 -0.5786
   69TIP3    H1  213   3.672   1.781   2.922  0.2931  0.7314  1.4704
   69TIP3    H2  214   3.669   1.631   2.902  1.0888  0.7072  1.4775
   70TIP3   OH2  215   3.246   2.010   4.924  0.4048  0.2172 -0.5495
   70TIP3    H1  216   3.248   1.958   5.004 -0.0161 -0.1200 -0.7538
   70TIP3    H2  217   3.179   2.077   4.940  1.1142  0.8501 -0.1962
   71TIP3   OH2  218   5.148   5.333   3.540  0.2060  0.4680  0.0298
   71TIP3    H1  219   5.147   5.399   3.471  1.4717 -1.2916 -1.7887
   71TIP3    H2  220   5.219   5.361   3.599  1.0581  0.5221 -0.9901
   72TIP3   OH2  221   4.454   0.773   0.612 -0.1512 -0.3330  0.3507
   72TIP3    H1  222   4.511   0.703   0.643  0.7190  0.2363  0.0814
   72TIP3    H2  223   4.510   0.850   0.610 -1.1291  0.4195  0.8112
   73TIP3   OH2  224   2.799   2.101   3.178 -0.0692 -0.1813 -0.3318
   73TIP3    H1  225   2.777   2.072   3.089 -0.1024 -1.4753  0.0808
   73TIP3    H2  226   2.721   2.149   3.207  0.5551  1.7355 -1.5740
   74TIP3   OH2  227   1.951   3.135   1.144 -0.1147  0.1481 -0.3144
   74TIP3    H1  228   1.857   3.140   1.162 -0.0609 -1.1413  0.4655
   74TIP3    H2  229   1.965   3.198   1.074 -0.9344  2.9557  1.8612
   75TIP3   OH2  230   2.395   3.946   0.232  0.0900  0.5657 -0.4969
   75TIP3    H1  231   2.358   3.926   0.318  1.2716 -1.8457 -0.4762
   75TIP3    H2  232   2.322   3.937   0.172 -0.4058  0.7035  0.0705
   76TIP3   OH2  233   2.396   3.399   2.091  0.4522 -0.3074 -0.4266
   76TIP3    H1  234   2.314   3.449   2.092  1.2063  1.0057  1.0926
   76TIP3    H2  235   2.396   3.354   2.007 -1.1387  0.8394 -1.0843
   77TIP3   OH2  236   0.314   5.926   3.842 -1.0114  0.0527  0.0637
   77TIP3    H1  237   0.266   6.009   3.842  1.4895  1.6405 -2.0716
   77TIP3    H2  238   0.405   5.950   3.859  0.0719 -2.0014 -2.1688
   78TIP3   OH2  239   5.294   4.368   4.924 -0.0681  0.1633 -0.4289
   78TIP3    H1  240   5.209   4.336   4.955  0.4054 -1.3231 -0.5538
   78TIP3    H2  241   5.355   4.348   4.995  0.2066  1.1602 -0.3670
   79TIP3   OH2  242   0.563   1.512   1.801 -0.5111  0.1373  0.4657
   79TIP3    H1  243   0.578   1.495   1.708  0.9073 -1.2086  0.8920
   79TIP3    H2  244   0.485   1.567   1.804 -0.7051  0.0155 -1.4994
   80TIP3   OH2  245   2.115   5.618   0.950 -0.8342 -0.1071  0.1068
   80TIP3    H1  246   2.170   5.670   0.892  0.0660 -1.7556 -0.5784
   80TIP3    H2  247   2.147   5.638   1.038  0.4220 -0.5050 -0.2386
   81TIP3   OH2  248   2.749   2.552   1.582 -0.0698  0.0076  0.3192
   81TIP3    H1  249   2.662   2.516   1.564 -0.2975  0.1114  1.1788
   81TIP3    H2  250   2.809   2.491   1.539 -0.5669  0.1319 -0.5997
   82TIP3   OH2  251   6.365   4.352   2.573 -0.2734 -0.2349  0.1873
   82TIP3    H1  252   6.310   4.328   2.499 -0.6167 -0.2041  0.4311
   82TIP3    H2  253   6.343   4.443   2.590  0.0385 -0.1469  0.1265
   83TIP3   OH2  254   3.464   0.503   1.812  0.1972  0.2696 -0.2003
   83TIP3    H1  255   3.446   0.473   1.723  1.2814  1.7462 -0.9595
   83TIP3    H2  256   3.557   0.484   1.825 -0.0687 -0.3921  0.8213
   84TIP3   OH2  257   5.940   1.598   1.914  0.2319 -0.0758 -0.1239
   84TIP3    H1  258   5.885   1.605   1.992 -0.2660 -0.1281 -0.4640
   84TIP3    H2  259   5.962   1.505   1.909 -1.2896 -0.4333 -1.0692
   85TIP3   OH2  260   1.618   4.835   2.821  0.3705 -0.2501  0.0647
   85TIP3    H1  261   1.708   4.857   2.794 -0.1549  0.3796 -1.2921
   85TIP3    H2  262   1.582   4.788   2.746 -1.6655  2.9332 -1.1626
   86TIP3   OH2  263   1.466   5.024   2.208 -0.6217  0.3533  0.4574
   86TIP3    H1  264   1.450   4.956   2.273 -1.0951  0.7276  0.7448
   86TIP3    H2  265   1.553   5.005   2.174 -1.4307 -1.4261 -0.7538
   87TIP3   OH2  266   2.275   2.543   1.201  0.1128  0.5309  0.0111
   87TIP3    H1  267   2.296   2.463   1.152 -0.8987  0.8175 -0.9155
   87TIP3    H2  268   2.357   2.592   1.203  1.8351 -1.9633  3.5634
   88TIP3   OH2  269   2.250   2.141   1.703 -0.1635  0.2797 -0.2740
   88TIP3    H1  270   2.289   2.053   1.699 -1.5414 -0.3737 -0.2504
   88TIP3    H2  271   2.166   2.131   1.657 -0.8665  1.2828  0.7397
   89TIP3   OH2  272   1.407   3.741   5.105  0.0581  0.6566 -0.2319
   89TIP3    H1  273   1.417   3.720   5.012  0.8151  0.5111 -0.1219
   89TIP3    H2  274   1.324   3.789   5.109  0.6921  1.9223 -1.2115
   90TIP3   OH2  275   2.763   5.901   1.475  0.2845 -0.0286 -0.3085
   90TIP3    H1  276   2.819   5.904   1.398 -0.3189 -0.7234 -0.7833
   90TIP3    H2  277   2.685   5.950   1.451  0.8913  1.4097  0.5445
   91TIP3   OH2  278   3.077   2.599   3.356  0.8072  0.3018 -0.3173
   91TIP3    H1  279   3.135   2.527   3.330  0.7295 -0.1299  0.6532
   91TIP3    H2  280   3.044   2.573   3.442  0.6810  1.4435 -0.0059
   92TIP3   OH2  281   5.937   0.559   1.375 -0.0907  0.2097  1.1129
   92TIP3    H1  282   5.942   0.476   1.423 -0.0585  0.0507  0.8360
   92TIP3    H2  283   6.024   0.568   1.335 -0.6877 -0.5724 -0.4306
   93TIP3   OH2  284   3.395   2.809   2.210  0.2140 -0.1249  0.1886
   93TIP3    H1  285   3.378   2.767   2.125 -0.0798 -0.0392  0.2061
   93TIP3    H2  286   3.330   2.772   2.269  0.5472 -0.3358  0.4279
   94TIP3   OH2  287   0.814   4.296   1.342 -0.0819 -0.0943  0.0178
   94TIP3    H1  288   0.757   4.238   1.292  0.6966 -0.7581 -0.1261
   94TIP3    H2  289   0.784   4.288   1.432  0.5195 -1.3660  0.1269
   95TIP3   OH2  290   2.101   3.965   2.962 -0.3694  0.1228 -0.4750
   95TIP3    H1  291   2.049   3.892   2.996  2.4364 -1.1968  1.3139
   95TIP3    H2  292   2.139   4.005   3.040  2.2662  0.1942 -1.7101
   96TIP3   OH2  293   4.281   4.551   1.657 -0.3647  0.1112  0.0367
   96TIP3    H1  294   4.304   4.526   1.567  0.2465  0.2499  0.1524
   96TIP3    H2  295   4.213   4.618   1.646 -0.1536  0.2734 -0.3268
   97TIP3   OH2  296   5.487   4.765   0.221  0.3312 -0.2419 -0.4227
   97TIP3    H1  297   5.495   4.845   0.273 -0.5122  0.4793 -1.3522
   97TIP3    H2  298   5.465   4.697   0.284  0.2845  0.4182  0.2878
   98TIP3   OH2  299   6.125   3.329   0.464  0.4209  0.2034 -0.0261
   98TIP3    H1  300   6.096   3.413   0.500 -0.5494  0.3459 -1.0847
   98TIP3    H2  301   6.048   3.294   0.419  1.3174 -0.4117 -1.1378
   99TIP3   OH2  302   5.404   4.631   4.415 -0.0605  0.0491 -0.0964
   99TIP3    H1  303   5.323   4.602   4.372  0.0124  0.0251 -0.2155
   99TIP3    H2  304   5.455   4.551   4.427 -1.5351 -0.5488  3.1604
  100TIP3   OH2  305   2.680   2.670   4.226 -0.0577 -0.0676  0.1472
  100TIP3    H1  306   2.729   2.634   4.300  0.4126 -0.8126 -0.5112
  100TIP3    H2  307   2.594   2.630   4.233 -1.3488  2.7742  2.4853
  101TIP3   OH2  308   4.718   2.099   1.480 -0.1721 -0.9162  0.1188
  101TIP3    H1  309   4.719   2.016   1.433  0.9251 -0.9845  0.2403
  101TIP3    H2  310   4.810   2.124   1.487 -0.5269  0.6753 -0.5376
  102TIP3   OH2  311   5.097   0.604   4.845  0.7124 -0.0378 -0.3002
  102TIP3    H1  312   5.070   0.614   4.936  0.6914 -0.2391 -0.2849
  102TIP3    H2  313   5.120   0.693   4.817 -0.5257  0.2502 -0.4942
  103TIP3   OH2  314   2.558   2.864   5.047 -0.0554  0.3683 -0.3385
  103TIP3    H1  315   2.592   2.788   5.095  2.7064  2.0103  0.4972
  103TIP3    H2  316   2.544   2.831   4.958  0.1655 -1.3569  0.2279
  104TIP3   OH2  317   5.639   2.916   0.495 -0.4691  0.0040 -0.6907
  104TIP3    H1  318   5.625   2.856   0.569  0.2876 -0.4382 -0.8909
  104TIP3    H2  319   5.688   2.990   0.533  1.5133 -1.0441 -1.0512
  105TIP3   OH2  320   5.431   2.846   2.486 -0.6066  0.1446  0.2182
  105TIP3    H1  321   5.492   2.806   2.547  0.7138  0.4523 -0.8657
  105TIP3    H2  322   5.346   2.810   2.510  0.0938 -0.8361  1.3000
  106TIP3   OH2  323   3.434   3.699   4.591 -0.1526  0.0918  0.0817
  106TIP3    H1  324   3.514   3.650   4.573 -0.5684 -0.9537  0.9570
  106TIP3    H2  325   3.391   3.707   4.505 -0.6839 -2.2356  0.0651
  107TIP3   OH2  326   6.066   4.697   0.649  0.7578 -0.3486  0.0662
  107TIP3    H1  327   6.152   4.668   0.618  0.6472 -0.6349  0.0258
  107TIP3    H2  328   6.004   4.640   0.605  0.5047  0.2396 -0.3586
  108TIP3   OH2  329   3.304   1.818   5.134  0.4019 -0.2897 -0.7523
  108TIP3    H1  330   3.392   1.838   5.103  0.0903  0.0764 -1.4142
  108TIP3    H2  331   3.309   1.826   5.229  0.7433  1.1106 -0.8816
  109TIP3   OH2  332   4.588   1.516   3.607 -0.3279 -0.0669 -0.5991
  109TIP3    H1  333   4.675   1.481   3.623  0.1091  0.2590 -2.0564
  109TIP3    H2  334   4.593   1.608   3.636 -0.6599 -0.4340  0.6944
  110TIP3   OH2  335   3.272   5.870   1.003  0.1833  0.0535  0.3046
  110TIP3    H1  336   3.238   5.903   1.086 -1.0092 -3.0390  1.1747
  110TIP3    H2  337   3.357   5.833   1.025  0.5241  0.5256 -0.1903
  111TIP3   OH2  338   1.318   5.241   4.118  0.9294 -0.3275  0.0952
  111TIP3    H1  339   1.314   5.330   4.152 -1.3459 -0.3849  0.1351
  111TIP3    H2  340   1.322   5.186   4.196 -0.5534 -0.3241  0.2044
  112TIP3   OH2  341   5.255   1.998   2.833  0.6447 -0.3729 -0.5715
  112TIP3    H1  342   5.327   2.041   2.881  0.0151  0.6263 -0.4826
  112TIP3    H2  343   5.199   2.071   2.806 -1.3165 -1.2221  0.9430
  113TIP3   OH2  344   1.845   4.084   3.210 -0.5584 -0.1327  0.0797
  113TIP3    H1  345   1.887   4.097   3.294 -0.9889 -0.8824  0.4170
  113TIP3    H2  346   1.889   4.007   3.173  0.0252  0.5289 -0.6435
  114TIP3   OH2  347   2.524   1.386   4.073  0.5369 -0.3292 -0.0951
  114TIP3    H1  348   2.566   1.362   4.156 -0.2502  0.1685  0.4588
  114TIP3    H2  349   2.512   1.481   4.079 -2.2325 -0.6537  0.5290
  115TIP3   OH2  350   2.604   2.661   2.456  0.0835 -0.1286 -0.3295
  115TIP3    H1  351   2.592   2.737   2.512 -1.0920  0.4606 -1.3214
  115TIP3    H2  352   2.640   2.696   2.374 -1.0033 -0.5258 -1.0049
  116TIP3   OH2  353   5.982   5.058   0.132 -0.7429 -0.2158  0.2323
  116TIP3    H1  354   6.049   5.018   0.076 -1.2203 -0.8485  0.0901
  116TIP3    H2  355   6.007   5.150   0.139  0.1045 -0.4329  0.1379
  117TIP3   OH2  356   2.396   4.012   2.502 -0.3718 -0.1359  0.8416
  117TIP3    H1  357   2.357   4.035   2.418  2.5829  1.4736 -0.2293
  117TIP3    H2  358   2.323   4.014   2.564 -1.8867  3.6360 -0.7727
  118TIP3   OH2  359   1.469   2.462   2.203  0.6949  0.0430 -0.3747
  118TIP3    H1  360   1.425   2.540   2.171  1.3502 -0.2385 -2.0551
  118TIP3    H2  361   1.519   2.492   2.279 -0.1648  0.9338 -0.1315
  119TIP3   OH2  362   3.847   2.946   4.452 -0.4415  0.2300 -0.5669
  119TIP3    H1  363   3.787   2.937   4.526  1.9938 -4.5675  1.2667
  119TIP3    H2  364   3.791   2.945   4.375 -2.8422 -1.0247  1.0845
  120TIP3   OH2  365   4.808   4.198   2.538 -0.6014  0.5745 -0.8174
  120TIP3    H1  366   4.761   4.115   2.546 -1.8994  1.0168 -2.9850
  120TIP3    H2  367   4.870   4.198   2.611 -0.3897 -2.3987 -0.8721
  121TIP3   OH2  368   4.500   2.562   3.017  0.0252  0.6942 -0.2459
  121TIP3    H1  369   4.584   2.529   2.986 -1.1763 -1.3485 -1.5650
  121TIP3    H2  370   4.521   2.644   3.062  3.2521 -1.7502  3.2501
  122TIP3   OH2  371   1.395   2.272   0.050  0.0660  0.4891  0.4267
  122TIP3    H1  372   1.472   2.223   0.024  0.0416  0.6763 -0.0090
  122TIP3    H2  373   1.372   2.324  -0.027 -1.8975 -1.3289 -0.3065
  123TIP3   OH2  374   4.347   5.879   4.419  0.5665 -0.5076 -0.2670
  123TIP3    H1  375   4.310   5.818   4.354 -0.4266 -0.0342 -0.1614
  123TIP3    H2  376   4.271   5.928   4.451  1.4367  1.3599 -0.9478
  124TIP3   OH2  377   0.618   3.453   5.058  0.4564  0.3572  0.4662
  124TIP3    H1  378   0.680   3.447   5.131  0.0848  0.4200  0.7957
  124TIP3    H2  379   0.672   3.470   4.981  0.9128 -0.3836  0.6139
  125TIP3   OH2  380   3.585   1.603   4.985 -0.0169 -0.0511  0.2708
  125TIP3    H1  381   3.547   1.687   5.008  0.6499 -0.0430  1.4568
  125TIP3    H2  382   3.540   1.540   5.042 -0.3415 -0.4740 -0.4335
  126TIP3   OH2  383   2.425   3.213   3.354 -0.3975 -0.7775 -0.0219
  126TIP3    H1  384   2.498   3.270   3.377 -0.0465 -1.4136  0.4450
  126TIP3    H2  385   2.356   3.274   3.326 -0.4864 -0.0351  1.7161
  127TIP3   OH2  386   5.635   5.053   1.881 -0.3190 -0.1748 -0.2212
  127TIP3    H1  387   5.587   5.130   1.849  2.9903  1.6525 -1.2185
  127TIP3    H2  388   5.644   5.067   1.975 -0.8630 -0.0531 -0.1822
  128TIP3   OH2  389   4.762   4.096   1.239  0.2533  0.2906 -0.0717
  128TIP3    H1  390   4.686   4.154   1.243 -1.1971 -1.6010  1.2688
  128TIP3    H2  391   4.825   4.135   1.300 -1.4703 -0.4910  2.3508
  129TIP3   OH2  392   2.686   3.951   0.552 -0.2805 -0.3923  0.1300
  129TIP3    H1  393   2.746   3.893   0.600 -0.6111 -0.5929  0.3100
  129TIP3    H2  394   2.627   3.891   0.506 -1.7451 -0.2389  1.7152
  130TIP3   OH2  395   2.349   5.981   2.316  0.3821  0.4491 -0.1624
  130TIP3    H1  396   2.255   5.976   2.296 -0.4160  1.0874  2.9513
  130TIP3    H2  397   2.381   5.892   2.299 -0.9351  0.0237 -0.6142
  131TIP3   OH2  398   4.746   3.037   4.166  0.0461  0.6624  0.6761
  131TIP3    H1  399   4.808   3.110   4.170  0.6187  0.2890 -0.8376
  131TIP3    H2  400   4.775   2.977   4.234 -0.3340  1.7523  1.8375
  132TIP3   OH2  401   1.081   2.053   2.183  0.3973  0.2847 -0.1654
  132TIP3    H1  402   1.056   1.993   2.253  0.2200  0.2318 -0.2748
  132TIP3    H2  403   1.172   2.076   2.203  0.4537  0.0105 -0.1027
  133TIP3   OH2  404   3.574   1.826   2.207  0.0599  0.1547  0.3070
  133TIP3    H1  405   3.486   1.792   2.193 -0.3639  1.6254 -0.8651
  133TIP3    H2  406   3.570   1.867   2.293 -0.8530  1.4616 -0.3229
  134TIP3   OH2  407   3.340   4.257   3.030  0.3688 -0.2352 -1.0380
  134TIP3    H1  408   3.312   4.348   3.041 -0.5282 -0.5932 -0.2470
  134TIP3    H2  409   3.271   4.217   2.978 -2.1660 -1.7866  3.0679
  135TIP3   OH2  410   3.122   0.778   3.362 -0.1120 -1.0490 -0.0328
  135TIP3    H1  411   3.088   0.861   3.394  0.4980 -0.8786  0.1845
  135TIP3    H2  412   3.213   0.775   3.393 -0.2584 -1.9974  0.3512
  136TIP3   OH2  413   1.283   5.281   1.105  0.3565 -0.0992 -0.7018
  136TIP3    H1  414   1.235   5.267   1.024  0.9690 -4.5901 -0.5330
  136TIP3    H2  415   1.375   5.281   1.079  0.5579 -1.5799 -0.0947
  137TIP3   OH2  416   4.440   4.702   3.932  0.5392 -0.0108  0.1587
  137TIP3    H1  417   4.499   4.760   3.980 -0.3264  0.3332  0.8272
  137TIP3    H2  418   4.479   4.615   3.940  1.5292  0.3739 -0.3432
  138TIP3   OH2  419   6.190   5.676   1.178  0.5308 -0.2521 -0.2662
  138TIP3    H1  420   6.244   5.747   1.143 -0.5180  0.7326  0.0676
  138TIP3    H2  421   6.186   5.693   1.272 -1.9407  0.8592 -0.5027
  139TIP3   OH2  422   0.233   3.904   1.178 -0.1794 -0.4106 -0.0827
  139TIP3    H1  423   0.205   3.929   1.266  0.8020 -0.3436  0.2271
  139TIP3    H2  424   0.309   3.960   1.160  1.6432 -2.6274  0.3389
  140TIP3   OH2  425   0.426   3.516   4.170  0.8244  0.4175  0.0489
  140TIP3    H1  426   0.381   3.582   4.224 -1.2591 -0.2676 -0.7655
  140TIP3    H2  427   0.411   3.545   4.080  1.2632 -0.3210 -0.2639
  141TIP3   OH2  428   2.655   5.399   4.706 -0.2667 -0.0373  0.4192
  141TIP3    H1  429   2.586   5.338   4.734 -2.4192  1.4598 -1.2248
  141TIP3    H2  430   2.658   5.465   4.774  0.0753 -0.4808  0.8419
  142TIP3   OH2  431   3.364   3.280   5.138  0.8484  0.0588  0.4261
  142TIP3    H1  432   3.387   3.278   5.231  1.2473  2.7257  0.4721
  142TIP3    H2  433   3.441   3.245   5.093  0.1851 -2.4098  1.0878
  143TIP3   OH2  434   5.684   1.281   2.351  0.5168 -0.1161 -0.1803
  143TIP3    H1  435   5.643   1.233   2.422 -0.6095  0.6146 -0.3196
  143TIP3    H2  436   5.767   1.312   2.388  0.2623 -0.3416  0.5901
  144TIP3   OH2  437   3.433   4.974   5.210 -0.6516  0.2381  0.5303
  144TIP3    H1  438   3.518   4.947   5.174 -1.1122  0.0414 -0.4173
  144TIP3    H2  439   3.390   5.021   5.139 -1.8133 -0.6501  0.6195
  145TIP3   OH2  440   5.903   5.781   2.573  0.1766 -0.5521  0.6248
  145TIP3    H1  441   5.862   5.867   2.576  1.6185  0.2406 -0.9420
  145TIP3    H2  442   5.829   5.720   2.565 -0.9446  0.3691  2.9440
  146TIP3   OH2  443   5.149   3.611   4.425  0.5457 -0.6287  0.5159
  146TIP3    H1  444   5.213   3.543   4.406  1.8907  0.7624 -0.0854
  146TIP3    H2  445   5.195   3.693   4.410 -1.1167  0.4355  0.9410
  147TIP3   OH2  446   5.669   1.781   5.169 -0.3750  0.4768  0.6231
  147TIP3    H1  447   5.574   1.775   5.157 -0.1879  1.7907 -2.3674
  147TIP3    H2  448   5.695   1.854   5.114  2.4377  0.0266  1.2284
  148TIP3   OH2  449   4.163   4.873   5.003  0.1380  0.0483  0.3388
  148TIP3    H1  450   4.239   4.820   4.979 -1.1143 -1.5171 -0.3382
  148TIP3    H2  451   4.186   4.910   5.089  1.7293 -0.2096  0.0492
  149TIP3   OH2  452   5.197   1.221   3.335 -0.1670  0.6336 -0.1767
  149TIP3    H1  453   5.133   1.201   3.267 -0.7197 -0.7136  0.6858
  149TIP3    H2  454   5.262   1.151   3.328 -0.2801  0.4223  0.7045
  150TIP3   OH2  455   2.804   0.154   4.000  0.1890 -0.8609  0.1364
  150TIP3    H1  456   2.894   0.129   3.977 -0.4205 -2.6258 -0.4773
  150TIP3    H2  457   2.792   0.119   4.088  0.4381  0.3783  0.6933
  151TIP3   OH2  458   2.326   4.810   1.589  0.0750  0.1553  0.4350
  151TIP3    H1  459   2.352   4.723   1.620  0.3572  0.3150  0.6640
  151TIP3    H2  460   2.409   4.858   1.581  0.0584 -0.0297 -1.0515
  152TIP3   OH2  461   1.587   1.323   5.055 -0.0603  0.5852  0.4340
  152TIP3    H1  462   1.522   1.393   5.058 -2.1697 -1.2366  0.4183
  152TIP3    H2  463   1.536   1.243   5.070  2.4288 -0.8466  2.0245
  153TIP3   OH2  464   2.080   4.037   2.434 -0.2551  0.0245 -0.1481
  153TIP3    H1  465   2.043   3.949   2.446  0.2852 -0.1626  0.2327
  153TIP3    H2  466   2.114   4.060   2.521  2.1771 -0.6043 -0.8325
  154TIP3   OH2  467   4.129   5.678   2.125 -0.2554 -0.8409 -0.7262
  154TIP3    H1  468   4.071   5.684   2.201  0.5099 -2.0776 -0.0168
  154TIP3    H2  469   4.071   5.660   2.051 -1.0667  0.8882 -0.5539
  155TIP3   OH2  470   4.374   3.306   2.083  0.2503 -0.2053 -0.2979
  155TIP3    H1  471   4.343   3.303   2.174 -0.4690  3.0688 -0.3206
  155TIP3    H2  472   4.457   3.355   2.088 -0.6254  1.4900 -1.5198
  156TIP3   OH2  473   5.943   0.456   5.039  0.0229  0.4296  0.4583
  156TIP3    H1  474   5.948   0.546   5.071  1.3170  0.8794 -0.9122
  156TIP3    H2  475   5.983   0.459   4.952 -0.1992 -1.4189  0.2515
  157TIP3   OH2  476   1.025   0.327   4.431  0.2033  0.3689  0.3832
  157TIP3    H1  477   0.998   0.418   4.442 -0.6958  0.0971  0.5184
  157TIP3    H2  478   0.954   0.276   4.468  0.5079 -0.4029 -0.0610
  158TIP3   OH2  479   5.553   4.030   4.948 -0.4477 -0.4576  0.4398
  158TIP3    H1  480   5.633   3.981   4.927 -0.5310 -0.1885 -0.5342
  158TIP3    H2  481   5.535   4.081   4.870 -0.2547  1.3027  1.4884
  159TIP3   OH2  482   0.587   1.613   4.168  0.2251 -0.3654 -0.3794
  159TIP3    H1  483   0.522   1.660   4.116  0.4401 -0.5840 -0.8566
  159TIP3    H2  484   0.539   1.585   4.247  0.6841  2.6629  1.0865
  160TIP3   OH2  485   5.021   0.959   1.164  0.1768  0.4222  0.0808
  160TIP3    H1  486   4.979   1.014   1.099  0.4690  0.8323  0.2337
  160TIP3    H2  487   5.053   0.883   1.115 -0.2086  0.3970 -0.1325
  161TIP3   OH2  488   0.671   5.162   1.277 -0.4035 -0.1286 -0.4671
  161TIP3    H1  489   0.762   5.143   1.254 -0.1720  1.9273 -1.4392
  161TIP3    H2  490   0.640   5.217   1.205 -1.5682  1.4976  1.2123
  162TIP3   OH2  491   3.665   4.906   5.076  0.4462  0.1699 -0.1638
  162TIP3    H1  492   3.618   4.939   4.999 -1.5588 -1.8114  0.1240
  162TIP3    H2  493   3.700   4.822   5.050 -1.2145 -1.0675  1.3334
  163TIP3   OH2  494   2.975   3.635   3.168  0.8176 -0.0681  0.3562
  163TIP3    H1  495   3.034   3.610   3.240  0.4961 -1.1566  0.2699
  163TIP3    H2  496   3.018   3.599   3.089  1.8603  2.2723 -0.2204
  164TIP3   OH2  497   2.013   1.790   4.779 -0.2958  0.2450 -0.4019
  164TIP3    H1  498   2.094   1.743   4.760 -0.6049 -0.0572 -0.9914
  164TIP3    H2  499   2.041   1.878   4.804  0.3854 -0.5955  2.0355
  165TIP3   OH2  500   5.170   4.510   3.874  0.7490  0.3638 -0.2743
  165TIP3    H1  501   5.244   4.560   3.909 -0.2577  2.0047 -0.3818
  165TIP3    H2  502   5.106   4.510   3.945  0.5805 -0.5131 -0.4078
  166TIP3   OH2  503   5.128   0.827   2.513  0.2046 -0.3232 -0.4124
  166TIP3    H1  504   5.044   0.849   2.474  0.4147 -0.0345 -0.7099
  166TIP3    H2  505   5.129   0.731   2.516 -1.6331 -0.3744  2.8651
  167TIP3   OH2  506   0.631   1.305   4.285  0.8461 -0.9417  0.2500
  167TIP3    H1  507   0.581   1.268   4.358 -0.3648 -0.5261 -0.3422
  167TIP3    H2  508   0.700   1.357   4.326 -0.9102  0.8002  1.1661
  168TIP3   OH2  509   2.808   0.101   1.355  0.3598 -0.1694 -0.3469
  168TIP3    H1  510   2.843   0.050   1.282  0.3681 -0.9900  0.2126
  168TIP3    H2  511   2.825   0.046   1.432  1.1027  1.0350  0.3799
  169TIP3   OH2  512   4.567   0.300   1.863 -0.0835  0.5846 -0.2381
  169TIP3    H1  513   4.481   0.261   1.880 -0.4203  0.8490 -1.2569
  169TIP3    H2  514   4.621   0.270   1.936 -0.7528 -0.4888 -0.1467
  170TIP3   OH2  515   5.475   3.667   0.330 -0.0026 -0.2556 -0.2759
  170TIP3    H1  516   5.563   3.655   0.367  1.1769  0.6239 -2.6008
  170TIP3    H2  517   5.439   3.579   0.326  0.8277 -0.6515  0.5902
  171TIP3   OH2  518   2.768   2.656   4.692 -0.3273 -0.0407  0.3440
  171TIP3    H1  519   2.856   2.668   4.729  0.5198  0.6322 -1.7499
  171TIP3    H2  520   2.783   2.641   4.599 -2.4848  0.7924 -0.1916
  172TIP3   OH2  521   1.434   2.120   2.860  0.3673  0.0974 -0.1847
  172TIP3    H1  522   1.437   2.212   2.887 -0.4086  0.0135  0.2008
  172TIP3    H2  523   1.343   2.105   2.836  0.4750 -0.6022 -0.1737
  173TIP3   OH2  524   1.993   2.574   0.513 -0.7278  0.1786  0.0924
  173TIP3    H1  525   2.046   2.634   0.565  0.8220  0.6853 -1.9058
  173TIP3    H2  526   1.932   2.630   0.466  0.1027  0.1357 -1.0797
  174TIP3   OH2  527   0.169   5.501   0.360 -0.0263  0.3003 -0.0853
  174TIP3    H1  528   0.190   5.408   0.364 -2.2937 -0.4133 -2.0780
  174TIP3    H2  529   0.120   5.519   0.440  1.6110  0.2142  0.9996
  175TIP3   OH2  530   5.652   1.770   1.992 -0.2401  0.4942  0.4873
  175TIP3    H1  531   5.679   1.697   2.048 -0.9089 -0.0531  0.1089
  175TIP3    H2  532   5.568   1.742   1.956  0.1735  0.8515 -0.7769
  176TIP3   OH2  533   5.731   0.547   2.425  0.3197 -0.2797  0.5062
  176TIP3    H1  534   5.719   0.634   2.464  0.4661 -1.0859  2.4767
  176TIP3    H2  535   5.782   0.563   2.346  0.5349  1.4105  0.9435
  177TIP3   OH2  536   4.764   0.697   1.649  0.3268  0.2771  0.3767
  177TIP3    H1  537   4.820   0.638   1.700  0.6335 -1.1265 -1.5068
  177TIP3    H2  538   4.676   0.682   1.684  0.4474 -1.0711  0.1492
  178TIP3   OH2  539   2.244   5.356   1.352  0.0240 -0.2001  0.3802
  178TIP3    H1  540   2.315   5.420   1.352 -0.3599  0.2866  2.1297
  178TIP3    H2  541   2.229   5.336   1.260  0.9307  1.3657 -0.1359
  179TIP3   OH2  542   4.636   0.252   1.597 -0.2817 -0.0513  0.3322
  179TIP3    H1  543   4.562   0.302   1.563 -0.2009 -0.4452 -0.4406
  179TIP3    H2  544   4.631   0.263   1.692  0.5522  2.5716  0.1259
  180TIP3   OH2  545   5.710   5.435   2.004 -0.0311  0.1445 -0.0185
  180TIP3    H1  546   5.804   5.450   2.014  0.0905 -0.5687 -0.0300
  180TIP3    H2  547   5.671   5.523   2.000  0.5153  0.4451  1.0503
  181TIP3   OH2  548   5.840   0.377   4.652 -0.6409 -0.0834  0.6028
  181TIP3    H1  549   5.891   0.298   4.636 -0.4236 -0.6598  3.6097
  181TIP3    H2  550   5.889   0.425   4.718 -1.7223  1.6619  0.2128
  182TIP3   OH2  551   2.606   1.958   1.674  0.1710  0.1356 -0.3963
  182TIP3    H1  552   2.594   2.053   1.676 -2.2978  0.0879 -3.8940
  182TIP3    H2  553   2.527   1.923   1.714  0.8074 -0.5275  0.3332
  183TIP3   OH2  554   0.472   5.797   4.695  0.2324  0.2278 -0.0140
  183TIP3    H1  555   0.526   5.798   4.773  0.7983  0.3411 -0.4045
  183TIP3    H2  556   0.467   5.888   4.667 -0.8103  0.3339  0.4554
  184TIP3   OH2  557   2.191   3.992   0.024  0.4285 -0.2047 -0.2938
  184TIP3    H1  558   2.111   3.940   0.034  1.1634 -0.9664  2.6483
  184TIP3    H2  559   2.245   3.941  -0.036 -0.0289 -1.3614  0.2429
  185TIP3   OH2  560   0.666   5.349   1.073 -0.2847  0.6225 -0.2898
  185TIP3    H1  561   0.704   5.347   0.985  0.3685 -0.8457 -0.0103
  185TIP3    H2  562   0.694   5.433   1.108  1.5728  0.2108 -0.6277
  186TIP3   OH2  563   3.685   2.792   0.482 -0.2199  0.2820  0.1505
  186TIP3    H1  564   3.773   2.827   0.492  0.1757 -0.4145 -0.7600
  186TIP3    H2  565   3.641   2.854   0.424  0.5132 -0.7069 -1.5479
  187TIP3   OH2  566   1.455   0.962   4.655 -0.4222  0.0162  0.0514
  187TIP3    H1  567   1.402   0.937   4.578 -2.2007 -0.6381  1.4158
  187TIP3    H2  568   1.507   0.884   4.673  2.2962  1.1388 -2.1795
  188TIP3   OH2  569   1.633   5.588   1.015  0.4328  0.1141  0.6152
  188TIP3    H1  570   1.646   5.502   1.054  0.0173  0.0490  0.6234
  188TIP3    H2  571   1.636   5.572   0.921  0.7729  0.1605  0.6186
  189TIP3   OH2  572   0.785   2.292   4.832  0.4619  0.0472  0.0331
  189TIP3    H1  573   0.697   2.329   4.825  0.6174  0.3798 -0.1561
  189TIP3    H2  574   0.780   2.211   4.780  0.7669  0.9954 -1.5458
  190TIP3   OH2  575   6.106   0.658   4.335 -0.4246  0.3146  0.9419
  190TIP3    H1  576   6.012   0.645   4.318 -0.3946  0.6707  0.5132
  190TIP3    H2  577   6.120   0.752   4.323 -0.2917  0.5020  2.3761
  191TIP3   OH2  578   4.185   5.914   1.926 -0.1361  0.1540  0.3470
  191TIP3    H1  579   4.166   5.984   1.989  0.3370  0.6574 -0.0587
  191TIP3    H2  580   4.271   5.936   1.891  1.4207 -2.2002  2.3183
  192TIP3   OH2  581   2.453   2.484   4.176 -0.5864 -0.0374 -0.5374
  192TIP3    H1  582   2.508   2.408   4.160 -3.2361 -2.2318 -0.0139
  192TIP3    H2  583   2.421   2.509   4.089  0.8815  1.0309 -0.8006
  193TIP3   OH2  584   2.021   3.030   2.850 -0.1689  0.1371 -0.0122
  193TIP3    H1  585   2.105   2.998   2.883 -1.4956 -0.4594  3.1028
  193TIP3    H2  586   1.990   3.089   2.918 -2.5393 -0.1262 -0.7956
  194TIP3   OH2  587   2.892   5.356   1.090 -0.0136 -0.1369  0.2455
  194TIP3    H1  588   2.886   5.410   1.011  1.6165 -1.9328 -1.1665
  194TIP3    H2  589   2.801   5.332   1.109 -0.3419 -0.8312 -1.9368
  195TIP3   OH2  590   0.935   3.061   0.469  0.1514 -0.1321  0.1777
  195TIP3    H1  591   0.855   3.090   0.513  0.7202  0.4951  0.8266
  195TIP3    H2  592   0.987   3.141   0.460  1.4996 -0.8338  1.4705
  196TIP3   OH2  593   1.420   1.473   1.979 -0.2244  0.3131 -0.2220
  196TIP3    H1  594   1.354   1.537   2.008 -1.1915 -0.7895  0.1000
  196TIP3    H2  595   1.488   1.478   2.046  0.4966  2.1072 -1.0225
  197TIP3   OH2  596   0.319   1.873   4.485  0.4378 -0.0571  0.3771
  197TIP3    H1  597   0.232   1.910   4.502  0.1696 -1.3049  1.8820
  197TIP3    H2  598   0.320   1.790   4.532  2.3538 -0.2222  0.1272
  198TIP3   OH2  599   5.868   0.255   1.553 -0.1136 -0.2167  0.3369
  198TIP3    H1  600   5.774   0.243   1.539  0.0073 -0.6582 -0.1051
  198TIP3    H2  601   5.874   0.295   1.639 -0.7407  0.3564  0.1256
  199TIP3   OH2  602   4.373   5.728   2.785 -0.5168  0.0208 -0.3610
  199TIP3    H1  603   4.322   5.776   2.719  0.4614  0.7187 -0.6392
  199TIP3    H2  604   4.463   5.758   2.771 -0.1314 -0.6782  0.5611
  200TIP3   OH2  605   5.033   5.117   2.551  0.0014 -0.3169  0.0967
  200TIP3    H1  606   5.065   5.073   2.473 -2.4178 -1.4315 -0.3796
  200TIP3    H2  607   4.969   5.181   2.518  1.6965  1.9440  0.9569
  201TIP3   OH2  608   5.851   3.331   4.065  0.1128 -0.5471 -0.2553
  201TIP3    H1  609   5.821   3.241   4.073  2.1547 -1.1268  1.7789
  201TIP3    H2  610   5.837   3.353   3.972 -2.1252 -2.2617 -0.4055
  202TIP3   OH2  611   0.175   0.236   2.118 -0.2466  0.3668  0.0673
  202TIP3    H1  612   0.244   0.278   2.169 -0.3060  1.3561 -0.6273
  202TIP3    H2  613   0.212   0.229   2.030  0.0763 -1.8449  0.3338
  203TIP3   OH2  614   2.152   5.114   4.741  0.0433  0.0550  0.3750
  203TIP3    H1  615   2.227   5.065   4.707  1.5631  2.2486  0.4027
  203TIP3    H2  616   2.159   5.105   4.836 -0.6736 -1.0221  0.3453
  204TIP3   OH2  617   5.836   1.285   1.397  0.3895  0.7768 -0.4998
  204TIP3    H1  618   5.769   1.244   1.343  0.5496  0.6821 -0.6294
  204TIP3    H2  619   5.914   1.231   1.382  0.8097  1.5740 -1.2677
  205TIP3   OH2  620   3.462   3.564   3.454  0.1386 -0.4144  0.1422
  205TIP3    H1  621   3.553   3.550   3.481 -0.2454 -1.3171  1.0500
  205TIP3    H2  622   3.414   3.489   3.490 -1.5217  1.6027  2.5099
  206TIP3   OH2  623   4.895   5.166   3.177  0.6765  0.2413 -0.5653
  206TIP3    H1  624   4.949   5.186   3.101  0.9472  2.3145  0.1021
  206TIP3    H2  625   4.852   5.083   3.155 -0.3108  1.4143 -3.5715
  207TIP3   OH2  626   2.650   2.243   4.137  0.0100  0.7845 -0.5059
  207TIP3    H1  627   2.612   2.241   4.224  2.1031  1.6176  0.4860
  207TIP3    H2  628   2.652   2.152   4.109 -1.0533  0.5559  0.1315
  208TIP3   OH2  629   3.742   1.499   3.878  0.3449  0.0946 -0.7144
  208TIP3    H1  630   3.750   1.415   3.924  0.5721 -0.0478 -1.0063
  208TIP3    H2  631   3.665   1.488   3.821  0.4754  0.0196 -0.8790
  209TIP3   OH2  632   4.902   3.717   3.023 -0.1855  1.4237  0.0630
  209TIP3    H1  633   4.872   3.748   3.109  0.4371  2.3120 -0.0216
  209TIP3    H2  634   4.949   3.792   2.986  3.0693 -0.1321  0.6240
  210TIP3   OH2  635   2.760   4.168   3.765  0.3238  0.0401  0.0676
  210TIP3    H1  636   2.847   4.167   3.804  0.1544  0.8694  0.4835
  210TIP3    H2  637   2.712   4.099   3.811  0.3509  0.5086  0.8067
  211TIP3   OH2  638   4.512   5.783   3.205 -0.4187  0.1201  0.4007
  211TIP3    H1  639   4.462   5.742   3.135  1.7829 -0.3293 -1.0340
  211TIP3    H2  640   4.534   5.711   3.264 -1.0749  0.2333  0.7834
  212TIP3   OH2  641   4.583   3.007   3.545  0.0107  0.2456  0.5281
  212TIP3    H1  642   4.555   3.094   3.517 -1.3969 -0.8621 -1.7669
  212TIP3    H2  643   4.648   2.980   3.479  0.9118 -0.2234  1.5669
  213TIP3   OH2  644   1.854   0.228   1.072  0.1223  0.6227 -0.0976
  213TIP3    H1  645   1.789   0.165   1.103 -1.0186  0.6577 -2.2035
  213TIP3    H2  646   1.892   0.265   1.151 -1.1815 -0.6768  1.1956
  214TIP3   OH2  647   3.157   3.791   1.222 -0.1984 -0.0736  0.1269
  214TIP3    H1  648   3.085   3.798   1.159  0.9178  1.1996 -1.0618
  214TIP3    H2  649   3.225   3.741   1.175  1.0569  1.7763 -0.1340
  215TIP3   OH2  650   6.181   2.249   1.147 -0.1742 -0.0309  0.2368
  215TIP3    H1  651   6.189   2.333   1.192  0.4454 -1.4302  2.9307
  215TIP3    H2  652   6.121   2.198   1.202  1.4938 -2.2366  0.1530
  216TIP3   OH2  653   5.822   0.642   4.292 -0.3328 -0.3208 -0.1813
  216TIP3    H1  654   5.769   0.562   4.285 -0.8524 -0.1490  1.4519
  216TIP3    H2  655   5.787   0.699   4.223 -0.3433 -1.2618 -0.9833
  217TIP3   OH2  656   5.028   2.391   3.667 -0.0273 -0.4507  0.9511
  217TIP3    H1  657   5.097   2.328   3.688 -1.4550 -1.6713  2.3729
  217TIP3    H2  658   4.953   2.336   3.644 -0.9802  0.7646  1.0538
  218TIP3   OH2  659   0.164   2.346   0.321 -0.2330  0.3351 -0.1935
  218TIP3    H1  660   0.234   2.307   0.268 -0.7764  0.6257 -1.1595
  218TIP3    H2  661   0.091   2.356   0.259 -1.0373  0.2836  0.7264
  219TIP3   OH2  662   2.535   3.659   2.331  0.0976 -0.1018  0.2017
  219TIP3    H1  663   2.445   3.658   2.298  0.0916  0.4328  0.1879
  219TIP3    H2  664   2.571   3.574   2.306  0.2410  0.4311 -1.6310
  220TIP3   OH2  665   5.143   1.874   1.673  0.2391  0.3480 -0.7850
  220TIP3    H1  666   5.072   1.871   1.736 -0.9314 -2.1953 -2.0982
  220TIP3    H2  667   5.204   1.806   1.701  0.5329  0.3176 -1.4774
  221TIP3   OH2  668   5.928   5.455   2.773 -0.0966  0.9312 -0.3941
  221TIP3    H1  669   5.949   5.430   2.863 -0.7676  2.7341  0.3169
  221TIP3    H2  670   5.942   5.550   2.770 -3.0226  1.4702 -1.2577
  222TIP3   OH2  671   4.487   1.554   0.811 -0.6955  0.0831  0.4071
  222TIP3    H1  672   4.569   1.519   0.844  0.5130  1.4563 -0.9806
  222TIP3    H2  673   4.459   1.617   0.877  0.6194  1.2962 -0.1459
  223TIP3   OH2  674   1.003   2.048   3.064 -0.4085  0.1327 -0.1321
  223TIP3    H1  675   1.028   1.991   3.137  1.6238 -0.4535 -1.1934
  223TIP3    H2  676   0.920   2.013   3.034 -0.7058 -0.3340  1.1528
  224TIP3   OH2  677   2.030   5.361   3.926 -0.2550  0.1389 -0.2521
  224TIP3    H1  678   2.045   5.268   3.941  1.2362  0.5634  1.3158
  224TIP3    H2  679   1.964   5.365   3.857 -1.7733 -2.0690  0.9638
  225TIP3   OH2  680   0.405   2.912   4.440  0.0355  0.4389  0.2641
  225TIP3    H1  681   0.398   2.957   4.356  0.8976  0.8311  0.3961
  225TIP3    H2  682   0.339   2.954   4.496  0.3230  1.0236  0.1594
  226TIP3   OH2  683   1.530   4.072   4.822  0.0071  0.0227 -0.3183
  226TIP3    H1  684   1.443   4.044   4.850 -0.4613  1.3511 -0.3600
  226TIP3    H2  685   1.572   4.104   4.902  0.0332  0.4180 -0.4852
  227TIP3   OH2  686   3.986   5.626   1.114  0.2154 -0.1917  0.1076
  227TIP3    H1  687   3.964   5.572   1.190 -0.4535  1.1819  0.9261
  227TIP3    H2  688   3.923   5.698   1.117  0.8312  0.4342 -1.1846
  228TIP3   OH2  689   4.042   0.854   4.704  0.0213 -0.5832  0.4035
  228TIP3    H1  690   4.058   0.772   4.751 -0.2435 -1.1225 -0.4293
  228TIP3    H2  691   4.079   0.840   4.617 -1.8573 -0.5882 -0.4312
  229TIP3   OH2  692   5.711   1.221   3.918  0.2940 -0.0925  0.2875
  229TIP3    H1  693   5.668   1.138   3.936  2.2107 -1.3377 -0.6099
  229TIP3    H2  694   5.771   1.235   3.991  0.2874  0.2996  0.2249
  230TIP3   OH2  695   1.408   3.172   4.870  0.2689  0.1433 -0.0527
  230TIP3    H1  696   1.337   3.116   4.837  1.0469 -0.2064 -1.2377
  230TIP3    H2  697   1.488   3.127   4.840  0.9429  1.2046  0.1243
  231TIP3   OH2  698   4.811   0.332   1.365  1.0767 -0.4251  0.1832
  231TIP3    H1  699   4.750   0.336   1.438 -0.3750  0.5317 -1.0231
  231TIP3    H2  700   4.823   0.238   1.348  2.9550 -0.7612  2.7899
  232TIP3   OH2  701   3.012   5.970   4.262 -0.0483  0.0105  0.1977
  232TIP3    H1  702   2.985   5.973   4.170 -0.7260 -0.2990  0.3829
  232TIP3    H2  703   2.998   5.879   4.288 -3.3490  0.7753  1.6290
  233TIP3   OH2  704   2.043   5.918   0.855  0.0578 -0.0617 -0.0478
  233TIP3    H1  705   2.006   6.000   0.890  0.6498 -0.4925  1.7247
  233TIP3    H2  706   2.116   5.899   0.914  0.3491 -1.5314 -0.8464
  234TIP3   OH2  707   1.984   4.068   4.939 -0.1997  0.0537 -0.1944
  234TIP3    H1  708   1.924   4.005   4.898 -0.3703 -1.3810  2.1248
  234TIP3    H2  709   1.943   4.153   4.922 -0.9242 -0.5799 -1.8311
  235TIP3   OH2  710   2.395   5.771   3.721  0.3238 -0.0516  0.3901
  235TIP3    H1  711   2.322   5.787   3.780  0.1640 -3.5451  1.3180
  235TIP3    H2  712   2.460   5.725   3.775  2.4913  1.3354 -0.8703
  236TIP3   OH2  713   3.076   1.028   4.317  0.2277 -0.4924 -0.5312
  236TIP3    H1  714   3.061   1.040   4.411  0.3842  3.2769 -0.8246
  236TIP3    H2  715   2.989   1.012   4.281 -0.7099  2.9006 -0.1542
  237TIP3   OH2  716   2.153   4.591   4.251 -0.0040 -0.0999 -0.6069
  237TIP3    H1  717   2.170   4.598   4.157 -1.7075  0.1311 -0.9203
  237TIP3    H2  718   2.060   4.609   4.261  0.3584  1.0128  1.2709
  238TIP3   OH2  719   0.528   0.086   1.217 -0.4514 -0.3167 -0.4250
  238TIP3    H1  720   0.474   0.009   1.237 -0.2048 -0.8276 -1.6189
  238TIP3    H2  721   0.617   0.059   1.240  0.0047 -1.2996 -2.9540
  239TIP3   OH2  722   1.538   0.293   2.943  0.3684 -0.1396  0.3635
  239TIP3    H1  723   1.553   0.233   2.870 -0.2373 -1.0029  0.9338
  239TIP3    H2  724   1.571   0.377   2.912 -0.7203 -0.2739 -1.2524
  240TIP3   OH2  725   0.380   1.713   2.000  0.6283  0.6113 -0.1733
  240TIP3    H1  726   0.285   1.725   2.001  0.6762  1.2287  1.8691
  240TIP3    H2  727   0.410   1.764   1.926 -0.5257  1.4388 -0.1057
  241TIP3   OH2  728   6.293   1.051   1.805 -0.8146  0.3036  0.1619
  241TIP3    H1  729   6.250   1.135   1.786 -0.5144  0.3950 -0.1329
  241TIP3    H2  730   6.236   0.985   1.765 -1.2660  0.3289  0.7483
  242TIP3   OH2  731   1.015   0.644   2.168 -0.5325 -0.1067  0.6334
  242TIP3    H1  732   1.035   0.568   2.224  0.1158  1.0500  2.0389
  242TIP3    H2  733   0.957   0.698   2.221 -0.5500  0.6573 -0.1493
  243TIP3   OH2  734   2.965   4.828   1.023 -0.3615 -0.2326  0.0207
  243TIP3    H1  735   2.879   4.793   1.000 -1.4320  2.5724 -0.6630
  243TIP3    H2  736   2.947   4.889   1.095  0.9622  0.6602 -0.3679
  244TIP3   OH2  737   5.139   2.261   4.924  0.0259  0.1538  0.5842
  244TIP3    H1  738   5.199   2.188   4.940  0.1073  0.3575  1.2593
  244TIP3    H2  739   5.093   2.238   4.843 -0.0365 -0.7080  0.8531
  245TIP3   OH2  740   1.366   2.767   0.772  0.6663 -0.5633 -0.5895
  245TIP3    H1  741   1.319   2.811   0.702  1.0006  1.4721  0.3992
  245TIP3    H2  742   1.454   2.806   0.771  1.2700 -1.8340 -0.2139
  246TIP3   OH2  743   2.525   1.653   4.112 -0.0513 -0.1133  0.3073
  246TIP3    H1  744   2.508   1.736   4.068  0.3096 -1.2421 -2.1207
  246TIP3    H2  745   2.606   1.667   4.160 -0.1224  1.0020  0.1282
  247TIP3   OH2  746   1.924   3.451   2.122 -0.0298  0.3590  0.2375
  247TIP3    H1  747   1.855   3.397   2.161 -0.9892 -0.2580 -2.1560
  247TIP3    H2  748   1.877   3.511   2.063  1.1721  2.6955  1.4963
  248TIP3   OH2  749   4.291   4.310   3.886  0.1361  0.0545 -0.5294
  248TIP3    H1  750   4.337   4.268   3.813 -1.2293  0.1834 -1.4951
  248TIP3    H2  751   4.209   4.340   3.848 -0.2795  0.7897  0.9040
  249TIP3   OH2  752   5.623   2.714   4.288  0.2251 -0.5060 -0.0862
  249TIP3    H1  753   5.680   2.680   4.220  1.7422 -2.0226  1.8272
  249TIP3    H2  754   5.540   2.667   4.276  0.5418 -0.9103 -0.7400
  250TIP3   OH2  755   3.458   0.158   1.774  0.2274  0.0962 -0.2528
  250TIP3    H1  756   3.365   0.176   1.785  0.1585 -1.1941  1.7071
  250TIP3    H2  757   3.467   0.133   1.682 -1.7292 -1.7113 -0.0074
  251TIP3   OH2  758   3.239   0.219   0.975 -0.1858  0.5851  0.2529
  251TIP3    H1  759   3.317   0.268   0.948 -0.3014  0.1632 -0.9105
  251TIP3    H2  760   3.273   0.140   1.017  0.0222  0.3137 -0.4197
  252TIP3   OH2  761   3.663   5.343   2.428  0.0727  0.4082  0.0231
  252TIP3    H1  762   3.589   5.283   2.424 -0.5491  1.1741 -0.1759
  252TIP3    H2  763   3.668   5.382   2.340  0.2662  0.8758  0.2343
  253TIP3   OH2  764   4.920   3.511   2.118 -0.7997  0.6335  0.0764
  253TIP3    H1  765   4.868   3.502   2.198 -0.9649 -0.5477 -0.1418
  253TIP3    H2  766   4.952   3.601   2.120  0.4850  0.1939  2.2499
  254TIP3   OH2  767   3.483   5.529   4.389 -0.3612 -0.3776 -0.2007
  254TIP3    H1  768   3.469   5.435   4.384 -2.5609 -0.0451 -2.9590
  254TIP3    H2  769   3.572   5.542   4.357  0.2385 -1.5490  0.9441
  255TIP3   OH2  770   1.295   5.353   2.024 -0.2246  0.2516  1.1532
  255TIP3    H1  771   1.228   5.418   2.047 -0.4745 -0.3993  2.3231
  255TIP3    H2  772   1.353   5.349   2.100  0.5456  0.0399  0.5713
  256TIP3   OH2  773   3.203   4.647   0.929  0.3560  0.5172 -0.3727
  256TIP3    H1  774   3.153   4.714   0.976  2.1864  2.5610 -1.1046
  256TIP3    H2  775   3.217   4.578   0.993 -0.2696  1.5573  0.9521
  257TIP3   OH2  776   1.466   2.464   4.850  0.3075  0.0318 -0.0780
  257TIP3    H1  777   1.383   2.497   4.815  0.4191  0.5894  0.1805
  257TIP3    H2  778   1.470   2.373   4.819  0.7939  0.7191 -2.2077
  258TIP3   OH2  779   3.902   3.602   0.737 -0.3803  0.5988  0.2270
  258TIP3    H1  780   3.912   3.516   0.778 -1.1821  0.9474  1.2134
  258TIP3    H2  781   3.891   3.662   0.810 -1.4249  1.3092 -0.4789
  259TIP3   OH2  782   5.739   4.815   1.809  0.8878  0.3388  0.1081
  259TIP3    H1  783   5.819   4.865   1.792  1.6900 -0.9323 -0.0082
  259TIP3    H2  784   5.690   4.869   1.871  1.8254  1.1567  0.1657
  260TIP3   OH2  785   0.102   5.132   1.535 -0.0325 -0.1575  0.9843
  260TIP3    H1  786   0.155   5.209   1.514 -1.4134  0.1844 -1.5913
  260TIP3    H2  787   0.012   5.162   1.529 -0.5835 -1.6853  1.2452
  261TIP3   OH2  788   1.175   2.985   1.523  0.0868 -0.1439  0.0590
  261TIP3    H1  789   1.099   2.998   1.467  1.4007  2.1330 -1.3521
  261TIP3    H2  790   1.242   2.950   1.464  0.9761  0.6468  0.5734
  262TIP3   OH2  791   0.240   4.013   1.637 -0.1775 -0.0485 -0.0592
  262TIP3    H1  792   0.270   4.092   1.682  1.3170 -1.3838  1.3806
  262TIP3    H2  793   0.309   3.994   1.573 -0.9540  0.2540 -1.0250
  263TIP3   OH2  794   5.883   1.332   3.193 -0.2252  0.5295  0.2520
  263TIP3    H1  795   5.796   1.329   3.234 -0.2065  1.5055  0.3813
  263TIP3    H2  796   5.930   1.258   3.231 -0.3261  1.1961  1.7077
  264TIP3   OH2  797   0.160   3.346   2.579 -0.4803  0.2969 -0.8460
  264TIP3    H1  798   0.106   3.281   2.535 -1.2040  1.7935 -2.3047
  264TIP3    H2  799   0.099   3.396   2.633  0.1925 -0.6701  0.8928
  265TIP3   OH2  800   6.109   4.866   1.343 -0.3774  0.0079  0.1884
  265TIP3    H1  801   6.030   4.817   1.367 -1.4937  1.8300  0.4504
  265TIP3    H2  802   6.145   4.818   1.269 -2.3373 -0.2982 -0.6311
  266TIP3   OH2  803   4.594   5.052   3.464  0.3599  0.0380 -0.6891
  266TIP3    H1  804   4.582   5.000   3.544 -0.5473 -1.8456 -1.9488
  266TIP3    H2  805   4.651   5.123   3.490  0.4232 -0.7258  1.5421
  267TIP3   OH2  806   0.832   4.243   5.023 -0.4634 -0.1199 -0.3495
  267TIP3    H1  807   0.782   4.324   5.012 -3.0893 -1.5381  0.0993
  267TIP3    H2  808   0.878   4.232   4.940  2.0035  2.9801  0.4083
  268TIP3   OH2  809   2.002   1.462   3.232 -0.2759  0.4975 -0.7983
  268TIP3    H1  810   2.097   1.460   3.228 -0.2721  1.1874 -1.2469
  268TIP3    H2  811   1.981   1.540   3.283 -0.5987  0.0633 -0.2547
  269TIP3   OH2  812   0.541   2.432   4.816 -0.1156 -0.6971  0.4194
  269TIP3    H1  813   0.552   2.478   4.733 -1.0154 -2.8671 -0.9744
  269TIP3    H2  814   0.452   2.455   4.844  0.4907  0.7346  1.3012
  270TIP3   OH2  815   2.941   4.546   3.327  0.0439 -0.0469 -0.3520
  270TIP3    H1  816   2.973   4.482   3.263  0.9607 -1.4847  1.4791
  270TIP3    H2  817   2.924   4.625   3.275 -0.1339 -1.4265 -2.5086
  271TIP3   OH2  818   4.998   1.212   2.224  0.4139 -0.6299 -0.5692
  271TIP3    H1  819   5.091   1.233   2.231  0.4136 -0.2886 -1.4568
  271TIP3    H2  820   4.985   1.194   2.131 -0.2298 -1.5519 -0.3091
  272TIP3   OH2  821   3.806   5.423   1.032 -0.4432  0.4921 -0.0820
  272TIP3    H1  822   3.723   5.420   0.983 -0.1765  1.3311 -0.6134
  272TIP3    H2  823   3.793   5.490   1.098 -0.3481  0.2921  0.1409
  273TIP3   OH2  824   4.147   1.297   0.676  0.4751  0.9180  0.0303
  273TIP3    H1  825   4.086   1.328   0.744  1.3576 -0.5394  1.5757
  273TIP3    H2  826   4.165   1.206   0.700  0.4661  0.1933 -2.4752
  274TIP3   OH2  827   4.256   3.830   3.784  0.2300 -0.2618  0.2235
  274TIP3    H1  828   4.257   3.772   3.860  0.3590  1.0867  1.2865
  274TIP3    H2  829   4.204   3.783   3.719 -0.7426 -1.0175  1.5037
  275TIP3   OH2  830   2.541   1.264   1.209  0.3386 -0.0835 -0.0266
  275TIP3    H1  831   2.549   1.170   1.226 -0.1229 -0.1416 -0.1329
  275TIP3    H2  832   2.632   1.295   1.207  0.4750 -0.3771  0.8558
  276TIP3   OH2  833   4.637   3.479   3.885  0.2941 -0.0106 -0.2721
  276TIP3    H1  834   4.677   3.559   3.919  1.7819 -0.1960 -1.4681
  276TIP3    H2  835   4.659   3.479   3.792 -0.4040 -1.3990 -0.4585
  277TIP3   OH2  836   5.343   5.026   1.467 -0.3146  0.2395  0.4341
  277TIP3    H1  837   5.428   5.006   1.507 -0.6888 -0.5785  0.8383
  277TIP3    H2  838   5.340   4.972   1.388  0.0499  1.1977 -0.2646
  278TIP3   OH2  839   4.634   4.427   3.685 -0.2147 -0.2850 -0.4960
  278TIP3    H1  840   4.706   4.488   3.668 -0.5424 -0.2900 -1.9808
  278TIP3    H2  841   4.566   4.481   3.725  0.7811 -0.3859  1.4870
  279TIP3   OH2  842   2.837   4.915   2.050 -0.2421 -0.0835 -0.3420
  279TIP3    H1  843   2.745   4.894   2.066 -0.5241 -0.4407 -2.1633
  279TIP3    H2  844   2.885   4.835   2.074 -0.5291 -0.2813 -0.4253
  280TIP3   OH2  845   5.750   4.660   0.915 -0.0736 -0.0071 -0.6484
  280TIP3    H1  846   5.754   4.731   0.851 -1.0225  0.6653  0.0010
  280TIP3    H2  847   5.800   4.589   0.876  0.0405  0.6708 -1.7717
  281TIP3   OH2  848   2.898   1.111   4.098 -0.5307  0.0189 -0.2036
  281TIP3    H1  849   2.829   1.147   4.154 -0.9242  0.5446 -1.0204
  281TIP3    H2  850   2.898   1.167   4.020 -0.0487 -0.7609 -0.7738
  282TIP3   OH2  851   2.971   5.242   2.613  0.4421 -0.8613  0.2208
  282TIP3    H1  852   2.924   5.184   2.552  0.3153 -0.8882  0.3446
  282TIP3    H2  853   2.919   5.239   2.693 -0.5340  0.7574 -0.2922
  283TIP3   OH2  854   2.735   5.586   3.528  0.1871 -0.1498  0.5451
  283TIP3    H1  855   2.801   5.543   3.473  1.4705 -0.0932  1.9858
  283TIP3    H2  856   2.659   5.528   3.524  0.4603 -0.4456 -0.7816
  284TIP3   OH2  857   2.686   4.186   3.274 -0.2079  0.5977 -0.0221
  284TIP3    H1  858   2.714   4.210   3.186 -0.4037 -0.0545 -0.2720
  284TIP3    H2  859   2.766   4.181   3.325 -0.0094  0.1753 -0.3696
  285TIP3   OH2  860   3.575   3.351   2.339 -0.4792 -0.2452  0.3420
  285TIP3    H1  861   3.551   3.274   2.392 -1.5089  0.6619  1.2665
  285TIP3    H2  862   3.492   3.396   2.325 -0.1783 -0.2547 -1.8047
  286TIP3   OH2  863   4.543   2.040   4.100 -0.1266  0.1183  0.0341
  286TIP3    H1  864   4.565   1.984   4.027  1.9237  1.5242 -0.5123
  286TIP3    H2  865   4.468   1.997   4.142  0.1013 -1.9072 -1.5000
  287TIP3   OH2  866   0.498   0.843   4.604  0.2827  0.0823 -0.5517
  287TIP3    H1  867   0.444   0.911   4.645 -0.7102 -2.1207  2.1473
  287TIP3    H2  868   0.458   0.828   4.519  0.7140  2.9704 -1.3683
  288TIP3   OH2  869   5.586   1.030   2.280  0.3554 -0.5158 -0.1178
  288TIP3    H1  870   5.589   1.114   2.326 -2.0008 -1.8670  2.8861
  288TIP3    H2  871   5.517   1.041   2.215  0.5958  0.1058 -0.2744
  289TIP3   OH2  872   3.267   4.617   2.755 -0.3729 -0.0304  0.3442
  289TIP3    H1  873   3.307   4.639   2.671  0.6774 -1.0821  0.5510
  289TIP3    H2  874   3.320   4.662   2.820  0.3478 -1.2002  0.5983
  290TIP3   OH2  875   2.488   5.083   3.123 -0.2325 -0.1033  0.3113
  290TIP3    H1  876   2.462   5.113   3.036 -0.1687 -0.8728  0.0198
  290TIP3    H2  877   2.584   5.082   3.120 -0.1491  1.7117  1.0353
  291TIP3   OH2  878   5.268   4.019   2.939 -0.0881  0.3698 -0.2954
  291TIP3    H1  879   5.323   3.944   2.958 -3.1008 -1.7180  0.9599
  291TIP3    H2  880   5.250   4.059   3.024 -2.4755 -0.5749 -0.2829
  292TIP3   OH2  881   5.682   0.626   2.898  0.0941  0.0238 -0.1406
  292TIP3    H1  882   5.724   0.689   2.958  0.0047  0.5345 -0.6067
  292TIP3    H2  883   5.733   0.546   2.909 -0.3697 -0.1203  1.1581
  293TIP3   OH2  884   1.404   5.463   4.523 -0.3637 -0.5813 -0.1962
  293TIP3    H1  885   1.341   5.411   4.572  0.8075 -0.9497  0.9583
  293TIP3    H2  886   1.356   5.542   4.498 -0.8792 -0.1891  1.9119
  294TIP3   OH2  887   5.729   4.271   2.911  0.2788  0.0566 -0.0360
  294TIP3    H1  888   5.824   4.278   2.899  0.4505  0.2116  1.2783
  294TIP3    H2  889   5.694   4.343   2.858  1.0617  1.4677  1.2759
  295TIP3   OH2  890   4.468   2.191   3.298  0.3032  0.1458 -0.1764
  295TIP3    H1  891   4.398   2.240   3.256  0.3167  0.8526  0.6049
  295TIP3    H2  892   4.547   2.241   3.279  0.2758  0.6179  0.8921
  296TIP3   OH2  893   3.698   2.987   0.746 -0.3338 -1.0117 -0.0367
  296TIP3    H1  894   3.671   3.074   0.717  1.0160 -1.0121 -1.4047
  296TIP3    H2  895   3.786   3.000   0.781 -0.2968 -1.7620  0.1686
  297TIP3   OH2  896   2.281   5.290   3.619  0.5652 -0.2568 -0.4383
  297TIP3    H1  897   2.298   5.311   3.527  0.2709  2.5297  0.0808
  297TIP3    H2  898   2.211   5.350   3.645  0.0127 -1.5972  1.3947
  298TIP3   OH2  899   1.242   3.688   0.262 -0.7059  0.1652 -0.3237
  298TIP3    H1  900   1.168   3.663   0.208 -1.3430  1.0726  0.1000
  298TIP3    H2  901   1.238   3.784   0.266  1.2750  0.3528 -1.3794
  299TIP3   OH2  902   5.932   1.622   3.308 -0.2677 -0.9615  0.3606
  299TIP3    H1  903   5.949   1.582   3.223  0.2168 -2.4544  1.1077
  299TIP3    H2  904   5.975   1.707   3.304 -0.5199 -0.8792 -0.9891
  300TIP3   OH2  905   4.662   1.655   4.595  0.3475 -0.0238  0.0180
  300TIP3    H1  906   4.577   1.636   4.635 -0.4081  1.7614 -0.6112
  300TIP3    H2  907   4.671   1.589   4.526 -0.9185  0.2241 -0.4229
  301TIP3   OH2  908   0.335   3.684   3.962 -0.3706  0.8060 -0.1989
  301TIP3    H1  909   0.404   3.748   3.982 -0.3409  0.7363 -0.0807
  301TIP3    H2  910   0.334   3.680   3.866  0.5012  0.0410 -0.1931
  302TIP3   OH2  911   1.846   1.019   2.680 -0.4882 -0.3181 -0.4062
  302TIP3    H1  912   1.827   1.056   2.767  2.3416 -0.0327  0.1810
  302TIP3    H2  913   1.820   0.927   2.688  2.1414 -1.0001  1.7340
  303TIP3   OH2  914   1.103   5.928   1.489 -0.2408 -0.2806 -0.4760
  303TIP3    H1  915   1.140   5.862   1.430 -0.0742 -0.5875 -0.0288
  303TIP3    H2  916   1.013   5.938   1.459  0.0390  0.0723 -1.2257
  304TIP3   OH2  917   1.788   1.449   2.319  0.6641  0.2814  0.1090
  304TIP3    H1  918   1.700   1.423   2.345  1.1478 -1.1739  0.3534
  304TIP3    H2  919   1.798   1.538   2.356 -0.1170 -0.1600  1.4700
  305TIP3   OH2  920   6.199   3.763   2.365 -0.0607  0.0781 -0.3387
  305TIP3    H1  921   6.225   3.851   2.340 -0.2743  0.2573  0.0626
  305TIP3    H2  922   6.122   3.745   2.312  1.3464 -0.8133 -2.2332
  306TIP3   OH2  923   2.220   5.897   1.068 -0.3288  0.0275  0.0401
  306TIP3    H1  924   2.207   5.823   1.128 -0.0204  0.3105  0.4613
  306TIP3    H2  925   2.198   5.974   1.121  0.9196  0.3584  0.1073
  307TIP3   OH2  926   2.535   1.869   0.032  0.3171  0.0152  0.0546
  307TIP3    H1  927   2.521   1.787  -0.016 -3.3171  0.5994 -0.1634
  307TIP3    H2  928   2.540   1.843   0.124 -3.0216 -0.4628  0.2279
  308TIP3   OH2  929   5.733   5.344   3.450  0.2012 -0.4036  0.1836
  308TIP3    H1  930   5.638   5.355   3.453  0.2087 -0.6841  1.8567
  308TIP3    H2  931   5.764   5.372   3.536  1.5093 -1.5499  0.1253
  309TIP3   OH2  932   6.239   5.464   3.818  0.3190  0.3130 -0.2118
  309TIP3    H1  933   6.313   5.483   3.759  0.8167  2.5347  1.0207
  309TIP3    H2  934   6.279   5.453   3.904 -0.6494 -0.1075  0.1970
  310TIP3   OH2  935   2.891   0.858   0.365  0.4812 -0.6445  0.0649
  310TIP3    H1  936   2.971   0.839   0.316 -0.1540 -0.5174 -1.0634
  310TIP3    H2  937   2.825   0.801   0.326 -0.2486  0.0995  0.1742
  311TIP3   OH2  938   4.677   3.713   3.631  0.2670  0.3789  0.0195
  311TIP3    H1  939   4.730   3.675   3.561  0.1636 -1.0370  0.6749
  311TIP3    H2  940   4.587   3.702   3.603  0.2529  1.3849 -0.3865
  312TIP3   OH2  941   1.560   3.596   1.524 -0.2173 -0.1473 -0.4717
  312TIP3    H1  942   1.648   3.613   1.558 -0.6312 -0.0483  0.6048
  312TIP3    H2  943   1.551   3.501   1.527 -0.4610 -0.1093  0.2877
  313TIP3   OH2  944   5.171   3.405   3.187  0.3039 -0.5365  0.4366
  313TIP3    H1  945   5.245   3.465   3.196  0.1480 -0.1120 -0.8815
  313TIP3    H2  946   5.195   3.329   3.239  2.0424 -0.7511 -0.6009
  314TIP3   OH2  947   4.166   5.108   4.614 -0.3638  0.2721  0.2199
  314TIP3    H1  948   4.075   5.139   4.620  0.0005  1.4237  0.0033
  314TIP3    H2  949   4.198   5.143   4.531  1.0064  1.9187  1.3741
  315TIP3   OH2  950   5.683   2.169   2.308  0.2247  0.3858  0.0793
  315TIP3    H1  951   5.775   2.190   2.324  0.4402  0.7750 -1.4717
  315TIP3    H2  952   5.683   2.131   2.220 -1.4342  3.0311 -1.1514
  316TIP3   OH2  953   2.501   1.339   3.482 -0.4362  0.2519  0.4384
  316TIP3    H1  954   2.496   1.302   3.394 -0.7028  0.0553  0.5344
  316TIP3    H2  955   2.466   1.270   3.539  0.3029  0.1405  0.7690
  317TIP3   OH2  956   0.472   1.086   2.826  0.2703 -0.1701 -0.4356
  317TIP3    H1  957   0.507   1.078   2.737 -2.8291  0.1417 -1.8369
  317TIP3    H2  958   0.379   1.064   2.817  0.0373 -1.1429  2.9685
  318TIP3   OH2  959   3.673   4.606   0.237  0.0866  0.3307  0.4465
  318TIP3    H1  960   3.733   4.588   0.309 -0.3536  0.6677  0.9005
  318TIP3    H2  961   3.622   4.525   0.227 -1.2508  0.9469  1.8741
  319TIP3   OH2  962   0.602   4.383   1.598  0.5258  0.1518 -0.0802
  319TIP3    H1  963   0.633   4.472   1.581  0.4106  0.2739  0.3369
  319TIP3    H2  964   0.573   4.385   1.689 -1.2640  0.2056 -0.6191
  320TIP3   OH2  965   5.958   5.034   4.381 -0.0703  0.6436  0.4347
  320TIP3    H1  966   6.001   4.983   4.449  1.2916  1.2271  0.0469
  320TIP3    H2  967   5.989   5.124   4.394  2.2763  0.3940 -2.4079
  321TIP3   OH2  968   0.252   3.414   3.539 -0.4417  0.1246 -0.0278
  321TIP3    H1  969   0.253   3.327   3.581  0.4442  0.3282  0.4012
  321TIP3    H2  970   0.318   3.408   3.470  0.6586  0.8692  0.9144
  322TIP3   OH2  971   2.580   3.414   3.428 -0.0314 -0.0009  0.4181
  322TIP3    H1  972   2.632   3.487   3.397  4.1798 -2.0645  1.8988
  322TIP3    H2  973   2.526   3.450   3.498  1.0566  1.8607  0.3372
  323TIP3   OH2  974   3.375   1.161   0.990  0.1847  0.3525 -0.1798
  323TIP3    H1  975   3.288   1.122   0.998  0.6294 -1.1170 -1.7660
  323TIP3    H2  976   3.359   1.255   0.989 -1.6328  0.1087 -2.2276
  324TIP3   OH2  977   5.603   5.095   0.821 -0.0095  0.3827 -0.0025
  324TIP3    H1  978   5.524   5.139   0.787  0.4382  0.6645 -0.7068
  324TIP3    H2  979   5.675   5.132   0.769  0.1754 -2.9353 -2.5016
  325TIP3   OH2  980   3.517   4.820   2.491  0.2253 -0.4626 -0.2923
  325TIP3    H1  981   3.596   4.828   2.543  0.0624  0.0482 -0.1145
  325TIP3    H2  982   3.489   4.730   2.503  0.2864 -0.3995  0.3723
  326TIP3   OH2  983   4.046   2.603   0.148  0.5938 -0.4355  1.1368
  326TIP3    H1  984   4.108   2.610   0.221  0.0036  1.6412  1.5027
  326TIP3    H2  985   4.083   2.659   0.080 -1.0902  1.3136  1.5687
  327TIP3   OH2  986   1.179   1.072   0.686 -0.0993 -0.0510  0.7854
  327TIP3    H1  987   1.195   1.166   0.698  0.3332  0.0722 -0.6592
  327TIP3    H2  988   1.124   1.048   0.762  0.4173  1.1854  1.5887
  328TIP3   OH2  989   1.286   3.059   4.644 -0.0421 -0.4100 -0.6669
  328TIP3    H1  990   1.235   3.122   4.593  0.6364  1.3562  0.7524
  328TIP3    H2  991   1.375   3.067   4.611 -0.4161 -3.0435 -2.7065
  329TIP3   OH2  992   1.946   5.337   1.362 -0.5837  0.2347  0.1590
  329TIP3    H1  993   1.927   5.315   1.453  1.9440 -0.5582  0.5625
  329TIP3    H2  994   2.034   5.373   1.364 -0.6517  0.6280 -1.9491
  330TIP3   OH2  995   3.436   4.251   3.304  0.2547 -0.0492  0.1333
  330TIP3    H1  996   3.382   4.247   3.225  0.0380  0.3462  0.2554
  330TIP3    H2  997   3.424   4.341   3.336 -0.0775 -0.3577  0.9033
  331TIP3   OH2  998   2.424   1.345   1.859  0.1048  0.1536  0.1035
  331TIP3    H1  999   2.495   1.375   1.916 -0.2029 -1.1669  1.2558
  331TIP3    H2 1000   2.402   1.258   1.893 -1.3244  0.0841 -0.9229
  332TIP3   OH2 1001   4.802   2.813   1.330 -0.1505 -0.9764 -0.1752
  332TIP3    H1 1002   4.818   2.718   1.331  3.1300 -0.5828  1.8489
  332TIP3    H2 1003   4.837   2.842   1.246 -0.3113 -1.4631 -0.4120
  333TIP3   OH2 1004   2.947   3.077   0.260 -0.3449  0.3811  0.1163
  333TIP3    H1 1005   3.024   3.130   0.281  0.4879 -0.0141 -1.7094
  333TIP3    H2 1006   2.872   3.135   0.276  0.3053  0.7783  1.8852
  334TIP3   OH2 1007   0.960   5.664   3.259  0.0174  0.1197 -0.0143
  334TIP3    H1 1008   1.049   5.690   3.237 -0.8665  1.2554 -2.5735
  334TIP3    H2 1009   0.954   5.572   3.232  0.2949  0.1617 -0.2201
  335TIP3   OH2 1010   3.964   3.320   0.770  0.5771  0.0031 -0.3044
  335TIP3    H1 1011   3.989   3.309   0.862  0.6661 -2.1025 -0.5251
  335TIP3    H2 1012   3.870   3.299   0.768  0.7995 -1.0493 -0.8179
  336TIP3   OH2 1013   4.324   5.849   1.629 -0.1974 -0.1686  0.2531
  336TIP3    H1 1014   4.285   5.927   1.588  0.1220  0.0184  0.2999
  336TIP3    H2 1015   4.365   5.882   1.709 -2.7751 -0.8597  1.9978
  337TIP3   OH2 1016   1.232   0.754   4.774 -0.2357 -0.6194  0.1336
  337TIP3    H1 1017   1.204   0.680   4.720 -0.6474 -0.7187  0.4748
  337TIP3    H2 1018   1.150   0.795   4.803 -0.0618  1.3559 -1.8756
  338TIP3   OH2 1019   2.425   4.533   4.198  0.1134  0.2383  0.0622
  338TIP3    H1 1020   2.336   4.525   4.234 -0.1230 -1.3211 -0.7479
  338TIP3    H2 1021   2.481   4.490   4.262  0.4059  1.7500  0.8661
  339TIP3   OH2 1022   4.878   1.453   0.190  0.0395  0.0486 -0.1809
  339TIP3    H1 1023   4.829   1.486   0.114  0.1361  1.0637  0.1850
  339TIP3    H2 1024   4.914   1.532   0.231  1.0127 -0.5937  0.2207
  340TIP3   OH2 1025   4.005   2.065   4.267 -0.1164  0.5796 -0.3904
  340TIP3    H1 1026   3.977   2.155   4.285  0.1352  0.9003 -1.5009
  340TIP3    H2 1027   4.059   2.073   4.189  0.3479 -0.4771 -0.1918
  341TIP3   OH2 1028   2.546   5.593   0.101 -0.3923 -0.2425 -0.1930
  341TIP3    H1 1029   2.587   5.661   0.047  0.4249 -1.5482 -1.2958
  341TIP3    H2 1030   2.617   5.560   0.156 -1.0080  0.4220  1.0575
  342TIP3   OH2 1031   3.055   5.625   1.084  0.3398 -0.4285  0.6130
  342TIP3    H1 1032   2.963   5.642   1.064  0.2859 -0.1893  1.0543
  342TIP3    H2 1033   3.093   5.600   1.000  0.4760  2.0367 -0.1477
  343TIP3   OH2 1034   0.797   1.510   3.995  0.0245  0.0837  0.2091
  343TIP3    H1 1035   0.726   1.545   4.050 -0.1958 -1.3628  0.9040
  343TIP3    H2 1036   0.753   1.479   3.916 -0.2429 -1.3393  0.8827
  344TIP3   OH2 1037   5.197   1.764   0.078  0.4251 -0.1557 -0.6306
  344TIP3    H1 1038   5.132   1.744   0.145 -0.2029 -0.8127 -1.4169
  344TIP3    H2 1039   5.199   1.686   0.022  2.1065 -0.2836 -0.4632
  345TIP3   OH2 1040   5.823  -0.005   0.387  0.1374 -0.3922 -0.4682
  345TIP3    H1 1041   5.885  -0.031   0.318 -2.4153 -1.7660 -2.4156
  345TIP3    H2 1042   5.831   0.090   0.390  1.4522 -0.4271 -1.5362
  346TIP3   OH2 1043   1.237   1.333   0.735 -0.0884  0.6846  0.1779
  346TIP3    H1 1044   1.299   1.335   0.662  1.5524 -0.4120  1.4548
  346TIP3    H2 1045   1.223   1.425   0.757  0.9484  0.9618 -0.2676
  347TIP3   OH2 1046   0.265   2.288   2.327 -0.2120 -0.2371  0.1242
  347TIP3    H1 1047   0.326   2.337   2.272  0.4540 -1.5994 -0.4064
  347TIP3    H2 1048   0.180   2.301   2.285  0.0912 -0.2377 -0.4977
  348TIP3   OH2 1049   0.604   3.991   1.845  0.4130 -0.1505 -0.4262
  348TIP3    H1 1050   0.519   3.945   1.847  0.5741 -0.4986 -1.3229
  348TIP3    H2 1051   0.588   4.071   1.895 -1.3974  1.3707 -3.1608
  349TIP3   OH2 1052   2.350   5.136   1.132  0.4015  0.5125 -0.4531
  349TIP3    H1 1053   2.295   5.061   1.154 -1.8756  2.1601 -0.1509
  349TIP3    H2 1054   2.422   5.133   1.194 -0.8172 -0.2390  0.9648
  350TIP3   OH2 1055   4.301   3.600   1.468  0.2485  0.2288  0.0820
  350TIP3    H1 1056   4.381   3.583   1.518  0.5808  0.8735 -0.2159
  350TIP3    H2 1057   4.331   3.650   1.392 -0.2344 -0.7492 -0.7800
  351TIP3   OH2 1058   3.094   3.054   3.202  0.0133 -0.3701  0.0765
  351TIP3    H1 1059   3.080   2.960   3.189  1.3830 -0.3679 -1.8325
  351TIP3    H2 1060   3.188   3.062   3.217  0.0516  0.7433 -0.6265
  352TIP3   OH2 1061   0.201   0.665   3.862 -0.1159 -0.1150 -0.0592
  352TIP3    H1 1062   0.159   0.579   3.852  1.0722 -0.5129 -2.5054
  352TIP3    H2 1063   0.225   0.669   3.954  0.4132 -2.7670  0.0018
  353TIP3   OH2 1064   0.061   0.470   2.878  0.0890 -0.3350  0.1843
  353TIP3    H1 1065   0.039   0.380   2.902 -2.2068 -0.8643 -3.1477
  353TIP3    H2 1066   0.145   0.462   2.832 -0.3955 -0.9339 -0.6321
  354TIP3   OH2 1067   3.125   3.432   2.686 -0.0271 -0.0621 -0.5730
  354TIP3    H1 1068   3.140   3.353   2.739 -1.0522  0.0610 -0.0570
  354TIP3    H2 1069   3.100   3.398   2.600 -0.1920 -0.3072 -0.4331
  355TIP3   OH2 1070   1.879   1.784   0.172  0.5391 -0.9503  0.5709
  355TIP3    H1 1071   1.845   1.699   0.141 -0.2109 -0.5026  0.1266
  355TIP3    H2 1072   1.970   1.767   0.193  1.0062 -1.3980 -1.5265
  356TIP3   OH2 1073   1.108   4.087   1.846  0.3955  0.2333  0.4413
  356TIP3    H1 1074   1.029   4.094   1.792  0.7680  1.1292 -0.0061
  356TIP3    H2 1075   1.083   4.123   1.931  1.0167  3.0933 -0.4823
  357TIP3   OH2 1076   6.319   5.769   5.157 -0.1615 -0.1108  0.3558
  357TIP3    H1 1077   6.266   5.772   5.077  0.9976  1.9985 -0.4187
  357TIP3    H2 1078   6.328   5.860   5.183  1.3444 -0.5832  1.6446
  358TIP3   OH2 1079   4.215   3.639   0.746 -0.1788  0.0130 -0.2683
  358TIP3    H1 1080   4.169   3.723   0.755 -0.2241 -0.0496  0.0806
  358TIP3    H2 1081   4.161   3.576   0.794 -0.7179 -0.4405 -1.4312
  359TIP3   OH2 1082   0.736   1.420   2.121 -0.2792 -0.3923  0.1074
  359TIP3    H1 1083   0.829   1.407   2.136 -0.3022 -1.0892 -0.3310
  359TIP3    H2 1084   0.731   1.492   2.058 -0.1206  1.1531  1.7778
  360TIP3   OH2 1085   4.725   3.769   2.320 -0.2423 -0.0625  0.0956
  360TIP3    H1 1086   4.740   3.690   2.373 -1.1702  0.5752  1.3514
  360TIP3    H2 1087   4.633   3.791   2.335  0.2466  1.8093  0.5488
  361TIP3   OH2 1088   4.872   4.510   1.265 -0.6978  0.7959 -0.1526
  361TIP3    H1 1089   4.825   4.531   1.184 -2.6213  1.6812  1.1172
  361TIP3    H2 1090   4.902   4.594   1.298 -1.9540  0.7682  1.1802
  362TIP3   OH2 1091   0.129   1.150   1.109 -1.0473 -0.0371 -0.3809
  362TIP3    H1 1092   0.118   1.077   1.170 -1.6170  1.6143  1.6091
  362TIP3    H2 1093   0.223   1.149   1.088 -1.3662 -2.6722 -2.2910
  363TIP3   OH2 1094   0.447   4.179   4.243 -0.4691  0.0665 -0.3984
  363TIP3    H1 1095   0.360   4.216   4.260 -1.0465 -1.1647 -0.5017
  363TIP3    H2 1096   0.496   4.193   4.323 -0.9178  0.3642 -0.1716
  364TIP3   OH2 1097   1.706   2.636   4.569 -0.3492  0.0843  0.1629
  364TIP3    H1 1098   1.625   2.688   4.570  0.2729  1.1099 -0.5085
  364TIP3    H2 1099   1.772   2.694   4.608  0.4392 -0.0526 -0.9287
  365TIP3   OH2 1100   3.529   2.954   1.228  0.1029 -0.1573  0.1268
  365TIP3    H1 1101   3.552   3.023   1.166  1.5905 -0.0764  0.7078
  365TIP3    H2 1102   3.475   2.893   1.179  0.8079  0.1765 -1.0938
  366TIP3   OH2 1103   5.653   0.364   3.160  0.3383  0.6586 -1.1032
  366TIP3    H1 1104   5.701   0.310   3.223 -3.2150  0.1636  1.4721
  366TIP3    H2 1105   5.665   0.319   3.077  1.6238 -1.2201  0.0172
  367TIP3   OH2 1106   2.826   5.067   0.329 -0.3466 -0.3326  0.0613
  367TIP3    H1 1107   2.740   5.094   0.296 -0.0439  0.2164 -0.3012
  367TIP3    H2 1108   2.857   5.142   0.380  0.4324 -0.0417 -0.8086
  368TIP3   OH2 1109   5.353   0.501   4.764  0.7833  0.2274  0.5584
  368TIP3    H1 1110   5.321   0.584   4.729 -0.9166 -1.3354 -1.9628
  368TIP3    H2 1111   5.318   0.496   4.853 -1.7182  0.9033 -0.3247
  369TIP3   OH2 1112   3.024   1.330   0.829  0.2269  0.1912 -0.5679
  369TIP3    H1 1113   3.055   1.341   0.919  1.2803  2.6438 -1.1610
  369TIP3    H2 1114   3.102   1.342   0.775 -0.9517  2.2801 -1.9378
  370TIP3   OH2 1115   0.791   0.151   2.097 -0.3839 -0.8229 -0.1184
  370TIP3    H1 1116   0.725   0.086   2.122 -2.3221  1.1188  0.0702
  370TIP3    H2 1117   0.783   0.157   2.002  0.8344 -1.8707 -0.3118
  371TIP3   OH2 1118   4.894   2.843   2.730 -0.1303  0.6829 -0.0774
  371TIP3    H1 1119   4.963   2.880   2.784 -0.8819  0.7208  0.8743
  371TIP3    H2 1120   4.939   2.814   2.650  0.6585  2.5991 -0.3901
  372TIP3   OH2 1121   0.856   0.612   0.098  0.0932 -0.4638 -0.1588
  372TIP3    H1 1122   0.858   0.609   0.194 -1.8307  2.2735  0.0747
  372TIP3    H2 1123   0.780   0.560   0.074  0.3103 -0.7704 -0.1936
  373TIP3   OH2 1124   5.016   3.257   5.121  0.1080 -0.0802  0.4224
  373TIP3    H1 1125   5.005   3.168   5.087  1.4008  0.6346 -2.0974
  373TIP3    H2 1126   5.069   3.246   5.200 -0.3136 -1.5777  0.5367
  374TIP3   OH2 1127   5.433   1.172   0.563 -0.2708  0.5322  0.3556
  374TIP3    H1 1128   5.402   1.175   0.473  1.5669  1.1513 -0.3064
  374TIP3    H2 1129   5.519   1.131   0.558 -1.2652 -1.9978  2.2331
  375TIP3   OH2 1130   0.863   1.903   2.374  0.1326  0.5684 -0.0233
  375TIP3    H1 1131   0.880   1.929   2.465  0.5087  1.7787 -0.4231
  375TIP3    H2 1132   0.767   1.899   2.368  0.0952  0.8419  0.3378
  376TIP3   OH2 1133   1.606   1.915   1.828 -0.5674  0.1009  0.1361
  376TIP3    H1 1134   1.691   1.877   1.850 -0.5844  0.9146  1.7299
  376TIP3    H2 1135   1.564   1.849   1.773  1.4655  0.1122 -1.5145
  377TIP3   OH2 1136   4.301   4.640   0.106 -0.2051 -0.2277 -0.4515
  377TIP3    H1 1137   4.374   4.659   0.048  0.0534 -0.1668 -0.1077
  377TIP3    H2 1138   4.301   4.544   0.116  0.6610 -0.1358  0.6130
  378TIP3   OH2 1139   5.283   1.071   4.546 -0.2926  0.1469 -0.3296
  378TIP3    H1 1140   5.362   1.053   4.496 -0.5939 -3.2523  0.1684
  378TIP3    H2 1141   5.303   1.151   4.595  2.3953  0.0207 -1.0792
  379TIP3   OH2 1142   0.666   0.819   2.614  0.1063 -0.4123 -0.4299
  379TIP3    H1 1143   0.635   0.909   2.613 -0.8871 -0.7233  0.3379
  379TIP3    H2 1144   0.663   0.793   2.706 -2.2718 -2.0683 -0.8656
  380TIP3   OH2 1145   3.840   1.393   0.406  0.2646 -0.2197 -0.0840
  380TIP3    H1 1146   3.770   1.328   0.393 -0.6495  1.2307 -3.3766
  380TIP3    H2 1147   3.921   1.341   0.407 -0.5810 -1.6007 -0.4714
  381TIP3   OH2 1148   4.660   0.083   2.882  0.0639 -0.0275 -0.0988
  381TIP3    H1 1149   4.571   0.059   2.854 -0.0807 -0.2655  0.5572
  381TIP3    H2 1150   4.655   0.087   2.978  0.6890  0.2537 -0.0739
  382TIP3   OH2 1151   4.008   0.818   3.146 -0.0154  0.1091  0.6026
  382TIP3    H1 1152   3.967   0.891   3.191  0.1430  0.0119  0.9105
  382TIP3    H2 1153   4.017   0.847   3.056  0.0957  0.4911  0.7334
  383TIP3   OH2 1154   3.155   4.752   3.571  0.0815 -0.6926 -0.6294
  383TIP3    H1 1155   3.162   4.848   3.572 -0.1093 -0.6666  1.0997
  383TIP3    H2 1156   3.061   4.735   3.581  0.2491 -1.0402  0.4791
  384TIP3   OH2 1157   3.453   1.183   0.571  0.1348 -0.4883  0.1191
  384TIP3    H1 1158   3.484   1.133   0.646 -2.2265 -2.3121 -0.0015
  384TIP3    H2 1159   3.465   1.124   0.497  2.3645  1.2538 -1.0382
  385TIP3   OH2 1160   6.181   1.169   1.537  0.4058 -0.2829 -0.5610
  385TIP3    H1 1161   6.180   1.079   1.569  1.0571 -0.1251 -0.0753
  385TIP3    H2 1162   6.178   1.222   1.616  0.8041  0.1223 -0.8152
  386TIP3   OH2 1163   2.293   5.453   4.017  0.4264 -0.3306 -0.2022
  386TIP3    H1 1164   2.201   5.446   3.991  0.6351  1.1041 -1.4509
  386TIP3    H2 1165   2.328   5.365   4.005 -0.9276 -1.0839  1.0001
  387TIP3   OH2 1166   0.940   3.016   4.457 -0.1025  0.1154 -0.0007
  387TIP3    H1 1167   0.881   2.983   4.389 -0.7640 -1.3705  1.2256
  387TIP3    H2 1168   1.020   2.963   4.447  0.9031  1.7684 -1.3227
  388TIP3   OH2 1169   0.651   3.516   3.954  0.2812 -0.2526  0.3498
  388TIP3    H1 1170   0.666   3.611   3.953  0.9964 -0.3368  1.0527
  388TIP3    H2 1171   0.618   3.499   4.042  2.3758 -0.9287  1.0749
  389TIP3   OH2 1172   3.327   4.587   3.873  0.4351  0.3808 -0.0307
  389TIP3    H1 1173   3.367   4.579   3.787  1.8572 -1.8497  0.7258
  389TIP3    H2 1174   3.233   4.578   3.858  0.4316  2.4344 -1.5391
  390TIP3   OH2 1175   2.445   4.390   3.924 -0.0785 -0.1208 -0.4812
  390TIP3    H1 1176   2.434   4.463   3.984  1.0586 -0.9791  0.8220
  390TIP3    H2 1177   2.499   4.426   3.853  0.5144  0.3031  0.1725
  391TIP3   OH2 1178   1.637   1.014   2.372 -0.2845 -0.3932 -0.0660
  391TIP3    H1 1179   1.636   0.924   2.407 -3.3325 -0.6591 -0.5783
  391TIP3    H2 1180   1.699   1.010   2.299 -0.0535 -1.9865  0.1661
  392TIP3   OH2 1181   2.661   1.334   4.951  0.1969 -0.0495  0.0492
  392TIP3    H1 1182   2.571   1.304   4.950 -0.1758  1.0288  0.2757
  392TIP3    H2 1183   2.700   1.297   4.872 -0.6471  0.0873 -0.4421
  393TIP3   OH2 1184   0.566   5.624   0.769  0.3957  0.3380 -0.2493
  393TIP3    H1 1185   0.528   5.551   0.817 -0.8201  1.3138  0.3528
  393TIP3    H2 1186   0.655   5.633   0.804  0.0111  0.1365  0.8078
  394TIP3   OH2 1187   3.100   3.756   4.048 -0.0443 -0.2186  0.5842
  394TIP3    H1 1188   3.086   3.767   3.954 -0.3920  1.9543  0.8345
  394TIP3    H2 1189   3.191   3.782   4.061 -0.7251  2.1623  1.1339
  395TIP3   OH2 1190   5.798   2.663   4.054 -0.7671 -0.1665  0.5822
  395TIP3    H1 1191   5.870   2.664   4.116 -0.8611 -0.2242  0.6927
  395TIP3    H2 1192   5.798   2.575   4.017  1.6666  0.8835 -2.3040
  396TIP3   OH2 1193   0.299   2.272   0.057  0.5750  0.7099  0.0576
  396TIP3    H1 1194   0.366   2.320   0.106 -0.7596  1.2342  1.4441
  396TIP3    H2 1195   0.286   2.325  -0.022  0.1859  1.8521  0.8568
  397TIP3   OH2 1196   2.972   5.623   0.707  0.3348  0.3247 -0.2797
  397TIP3    H1 1197   2.951   5.656   0.619  1.3734  0.5064 -0.4742
  397TIP3    H2 1198   3.019   5.695   0.749  2.0145 -0.6273 -0.4588
  398TIP3   OH2 1199   3.879   3.467   1.594 -0.3421 -0.0711  0.3304
  398TIP3    H1 1200   3.949   3.533   1.592 -1.3351  1.0353  0.6838
  398TIP3    H2 1201   3.925   3.384   1.601  0.9333  0.7590  3.3094
  399TIP3   OH2 1202   2.173   4.243   2.303 -0.0324 -0.5471 -0.0273
  399TIP3    H1 1203   2.119   4.249   2.225 -0.0904 -1.2340 -0.0469
  399TIP3    H2 1204   2.142   4.165   2.349  1.2031 -1.2020 -0.2507
  400TIP3   OH2 1205   1.353   5.005   1.729 -0.2753 -0.4494  0.0186
  400TIP3    H1 1206   1.374   5.037   1.641  1.5148  0.6334  0.7923
  400TIP3    H2 1207   1.430   4.957   1.757 -0.1854  0.4898  1.5495
  401TIP3   OH2 1208   2.164   5.702   2.134 -0.1044  0.1790 -1.1039
  401TIP3    H1 1209   2.144   5.795   2.139  1.6087  0.5478  2.2950
  401TIP3    H2 1210   2.207   5.683   2.218  1.3405 -3.2612 -2.4555
  402TIP3   OH2 1211   6.082   1.149   3.339 -0.3442  0.0001 -0.3582
  402TIP3    H1 1212   6.106   1.171   3.249  0.5448  0.8044  0.0685
  402TIP3    H2 1213   6.158   1.171   3.391 -1.6855  1.9018  0.9323
  403TIP3   OH2 1214   3.536   0.561   0.527 -0.2297 -0.4575  0.2735
  403TIP3    H1 1215   3.556   0.557   0.433  0.2831  0.8580  0.3080
  403TIP3    H2 1216   3.486   0.481   0.544 -1.5706 -0.0469 -1.4224
  404TIP3   OH2 1217   2.427   0.839   3.484 -0.2359  0.1159  0.2916
  404TIP3    H1 1218   2.342   0.815   3.521 -0.5536  0.5730 -0.1227
  404TIP3    H2 1219   2.454   0.916   3.534 -0.2366  0.1908  0.1768
  405TIP3   OH2 1220   5.125   0.755   0.187 -0.3051 -0.6581 -0.1584
  405TIP3    H1 1221   5.098   0.841   0.155 -0.6509  0.6663  3.3177
  405TIP3    H2 1222   5.045   0.715   0.220  0.2409 -1.2841  0.4424
  406TIP3   OH2 1223   1.296   0.432   2.128  0.0335  0.3165 -0.7297
  406TIP3    H1 1224   1.236   0.422   2.053  1.6675 -0.9233 -1.9474
  406TIP3    H2 1225   1.274   0.358   2.185 -0.3244  0.4928 -0.6370
  407TIP3   OH2 1226   0.414   2.866   2.125 -0.0309 -0.2231 -0.7099
  407TIP3    H1 1227   0.395   2.952   2.088  1.2290 -0.1440 -1.2259
  407TIP3    H2 1228   0.478   2.828   2.064 -0.8348 -1.6639 -0.6716
  408TIP3   OH2 1229   0.885   5.872   0.021 -0.4351 -0.2247 -0.0039
  408TIP3    H1 1230   0.852   5.864   0.111  0.6801  0.9971  0.5510
  408TIP3    H2 1231   0.821   5.929  -0.022  0.1841  1.0350  0.6833
  409TIP3   OH2 1232   2.260   3.029   1.794  0.5875  0.0536 -0.2266
  409TIP3    H1 1233   2.244   2.937   1.776 -0.5137  0.4032 -1.1365
  409TIP3    H2 1234   2.273   3.033   1.889 -0.9811 -0.8193  0.0545
  410TIP3   OH2 1235   2.749   2.353   1.191 -0.3949 -0.7935 -0.1624
  410TIP3    H1 1236   2.663   2.389   1.213 -0.1939  0.9934 -1.9488
  410TIP3    H2 1237   2.789   2.332   1.275 -1.5292  0.9466  0.8777
  411TIP3   OH2 1238   1.436   4.153   4.087 -0.3570 -0.0862 -0.3257
  411TIP3    H1 1239   1.417   4.062   4.112 -1.3505  0.0383 -0.5725
  411TIP3    H2 1240   1.421   4.203   4.167 -1.3852  0.0419 -0.5795
  412TIP3   OH2 1241   5.956   0.647   3.184  0.6399 -0.2182  0.1518
  412TIP3    H1 1242   6.031   0.702   3.208  0.2292  0.1601  0.6039
  412TIP3    H2 1243   5.976   0.561   3.221  1.6940 -0.6453 -1.3102
  413TIP3   OH2 1244   4.349   2.635   4.948 -0.0392 -0.5900 -0.2064
  413TIP3    H1 1245   4.399   2.716   4.937  1.0932 -1.5140 -2.6293
  413TIP3    H2 1246   4.414   2.571   4.979 -0.6500 -0.8854  0.4901
  414TIP3   OH2 1247   5.508   0.245   4.901  0.0127  0.1588 -0.4599
  414TIP3    H1 1248   5.566   0.187   4.852  0.2453 -0.6267  0.7060
  414TIP3    H2 1249   5.566   0.313   4.935 -0.1661  0.7662 -1.3267
  415TIP3   OH2 1250   3.873   1.340   0.098  0.6312  0.0141 -0.1285
  415TIP3    H1 1251   3.906   1.416   0.050 -0.5516 -1.0428 -2.7762
  415TIP3    H2 1252   3.795   1.373   0.144  0.2116  0.4427 -1.1282
  416TIP3   OH2 1253   1.276   1.638   2.186  0.0653  0.2637  0.5413
  416TIP3    H1 1254   1.265   1.616   2.279 -1.5843  2.2433  0.8716
  416TIP3    H2 1255   1.193   1.676   2.161  1.3673  2.2288 -1.0467
  417TIP3   OH2 1256   2.821   4.575   4.449  0.4048  0.0549  0.1927
  417TIP3    H1 1257   2.833   4.629   4.371 -2.4414 -1.1264 -1.2305
  417TIP3    H2 1258   2.774   4.631   4.511  0.5006  0.2493  0.0887
  418TIP3   OH2 1259   3.096   1.716   3.052  0.3489  0.1928 -0.3602
  418TIP3    H1 1260   3.079   1.626   3.025  1.0690  0.8387 -3.2155
  418TIP3    H2 1261   3.173   1.709   3.109  0.4115 -0.9705 -0.5558
  419TIP3   OH2 1262   2.629   0.605   1.780  0.0737  0.1379  0.8964
  419TIP3    H1 1263   2.592   0.683   1.737 -0.6044 -0.6867 -0.0920
  419TIP3    H2 1264   2.648   0.633   1.869 -2.2096  0.8813  1.2340
  420TIP3   OH2 1265   0.127   0.476   4.709 -0.2173  0.5754 -0.2880
  420TIP3    H1 1266   0.149   0.383   4.708 -1.0515  0.3746 -0.5566
  420TIP3    H2 1267   0.159   0.507   4.794 -0.0408  0.0182 -0.1474
  421TIP3   OH2 1268   1.930   4.520   0.465  0.1406 -0.2930 -0.2449
  421TIP3    H1 1269   1.989   4.585   0.427  0.5479  0.0652  0.9361
  421TIP3    H2 1270   1.980   4.482   0.538 -1.5153  1.0101  1.7021
  422TIP3   OH2 1271   0.215   5.983   0.437  0.4263 -0.2582 -0.5785
  422TIP3    H1 1272   0.195   5.938   0.519 -0.0526 -1.3396 -1.2749
  422TIP3    H2 1273   0.207   5.916   0.370  0.2170  0.7465 -1.5850
  423TIP3   OH2 1274   5.990   1.598   4.714 -0.1081  0.1826  0.3945
  423TIP3    H1 1275   6.071   1.632   4.752 -0.2312  0.3126  0.5405
  423TIP3    H2 1276   5.932   1.586   4.789  0.0454 -0.6546  0.3916
  424TIP3   OH2 1277   6.190   5.534   2.484  0.3351  0.1777  0.3326
  424TIP3    H1 1278   6.198   5.574   2.570  1.3211  0.7406  0.0056
  424TIP3    H2 1279   6.240   5.593   2.426  0.1690 -0.4930 -0.5151
  425TIP3   OH2 1280   6.133   3.505   3.850 -0.4277 -0.0338 -0.5550
  425TIP3    H1 1281   6.220   3.468   3.836  0.2780  1.6573 -0.8009
  425TIP3    H2 1282   6.073   3.436   3.820  0.8815  0.2071 -4.1219
  426TIP3   OH2 1283   1.482   3.392   1.260  0.1742  0.6724  0.0125
  426TIP3    H1 1284   1.427   3.360   1.331  1.9874 -1.3820  0.5920
  426TIP3    H2 1285   1.515   3.476   1.292 -2.7573  2.1678 -0.5127
  427TIP3   OH2 1286   3.796   1.623   2.259 -0.4096  0.1325  0.3359
  427TIP3    H1 1287   3.758   1.709   2.243 -2.2720 -0.5457  0.9263
  427TIP3    H2 1288   3.816   1.590   2.172  2.6008  2.0529  0.1424
  428TIP3   OH2 1289   0.912   4.461   1.857 -0.2854 -0.1911 -0.1527
  428TIP3    H1 1290   0.969   4.455   1.933 -0.5980  1.0286  0.1993
  428TIP3    H2 1291   0.837   4.512   1.887 -0.9044 -0.5818 -0.9918
  429TIP3   OH2 1292   2.232   2.160   3.690 -0.5917 -0.4515  0.2358
  429TIP3    H1 1293   2.185   2.224   3.744 -3.1640 -0.3002 -1.9798
  429TIP3    H2 1294   2.178   2.081   3.695 -0.1539 -0.8458 -1.0175
  430TIP3   OH2 1295   3.025   3.543   4.192  0.2950  0.6516 -0.1362
  430TIP3    H1 1296   2.975   3.524   4.113 -0.6811  0.4486  0.5097
  430TIP3    H2 1297   3.068   3.626   4.174 -0.6354  1.0568 -0.5557
  431TIP3   OH2 1298   0.509   0.237   3.594 -0.1518  0.3533 -0.4888
  431TIP3    H1 1299   0.559   0.222   3.674 -0.0206 -0.8152 -0.7720
  431TIP3    H2 1300   0.477   0.327   3.602  0.5589  0.5321  0.4813
  432TIP3   OH2 1301   6.309   3.047   1.284 -0.0214  0.2198 -0.0248
  432TIP3    H1 1302   6.267   3.132   1.298  0.4436  0.4586 -0.0666
  432TIP3    H2 1303   6.346   3.052   1.196 -0.8015 -0.3779 -0.4066
  433TIP3   OH2 1304   4.630   5.233   3.125 -0.0082 -0.6432  0.1215
  433TIP3    H1 1305   4.640   5.141   3.148 -0.5380 -0.6879  0.1726
  433TIP3    H2 1306   4.720   5.267   3.127 -0.0572 -0.2060  4.0479
  434TIP3   OH2 1307   0.434   3.814   2.762 -0.1372  0.7857 -0.1170
  434TIP3    H1 1308   0.349   3.846   2.730 -0.7093  0.3278  0.8952
  434TIP3    H2 1309   0.436   3.723   2.735 -0.0441  0.7519  0.0071
  435TIP3   OH2 1310   4.113   4.671   3.214 -0.7442 -1.0065  0.3123
  435TIP3    H1 1311   4.079   4.725   3.143  0.6459 -1.4187 -0.7280
  435TIP3    H2 1312   4.075   4.584   3.199 -0.6796 -1.0209  0.2262
  436TIP3   OH2 1313   1.326   2.632   2.843 -0.5328 -0.0494  0.7891
  436TIP3    H1 1314   1.399   2.677   2.885  0.3622 -1.0017  0.3171
  436TIP3    H2 1315   1.248   2.665   2.888  0.1036  1.6146  0.7361
  437TIP3   OH2 1316   5.082   5.764   1.604  0.1842 -0.8985  0.4600
  437TIP3    H1 1317   5.004   5.764   1.660 -1.4947 -1.2021 -1.7559
  437TIP3    H2 1318   5.111   5.673   1.603 -1.2007 -1.3608 -0.9647
  438TIP3   OH2 1319   3.742   3.493   2.147  0.4869  0.3329 -0.2597
  438TIP3    H1 1320   3.819   3.459   2.101  0.8335  0.4302  0.2439
  438TIP3    H2 1321   3.691   3.414   2.168  1.4893  0.0471  1.2655
  439TIP3   OH2 1322   3.549   0.025   2.490 -0.5446  0.6694  0.5116
  439TIP3    H1 1323   3.496   0.102   2.473 -1.8011  0.1381  1.7848
  439TIP3    H2 1324   3.508  -0.045   2.439 -0.3800  0.5010  0.6075
  440TIP3   OH2 1325   0.382   0.357   2.251  0.2445 -0.2283  0.3468
  440TIP3    H1 1326   0.457   0.411   2.229  1.5625 -1.1252  2.3263
  440TIP3    H2 1327   0.406   0.315   2.333 -2.2787 -0.8669  0.8545
  441TIP3   OH2 1328   2.800   3.793   4.895 -0.5849 -0.2821  0.6321
  441TIP3    H1 1329   2.765   3.799   4.984 -1.0590  1.6128  0.3790
  441TIP3    H2 1330   2.723   3.776   4.841 -0.3296 -1.2047  0.5412
  442TIP3   OH2 1331   3.421   3.288   3.162 -0.4818 -0.2042 -0.3016
  442TIP3    H1 1332   3.419   3.261   3.071 -0.0277  1.2377 -0.7595
  442TIP3    H2 1333   3.486   3.230   3.203  1.0016  0.6142 -1.4162
  443TIP3   OH2 1334   6.263   4.316   4.596  0.4072 -0.4480  0.8073
  443TIP3    H1 1335   6.306   4.280   4.673  0.7328 -1.5135  0.1465
  443TIP3    H2 1336   6.294   4.262   4.524  0.4869  0.8329 -0.1498
  444TIP3   OH2 1337   1.196   5.570   5.156 -0.6805 -0.1765  0.0307
  444TIP3    H1 1338   1.283   5.606   5.169 -0.3217 -0.8111 -0.5435
  444TIP3    H2 1339   1.137   5.632   5.200 -0.1824  1.5562 -1.6109
  445TIP3   OH2 1340   0.325   3.823   4.257 -0.1191 -0.4054  0.2352
  445TIP3    H1 1341   0.305   3.869   4.175  1.6500 -2.7398 -1.6572
  445TIP3    H2 1342   0.245   3.775   4.277  0.0433 -1.4023 -1.3231
  446TIP3   OH2 1343   0.279   2.639   3.800  0.0037  0.3544  0.6319
  446TIP3    H1 1344   0.315   2.580   3.734 -0.5999 -0.1751  0.7624
  446TIP3    H2 1345   0.226   2.701   3.751  0.7191  0.8572  0.4837
  447TIP3   OH2 1346   4.321   5.462   4.697 -0.4003  0.1157 -0.1121
  447TIP3    H1 1347   4.251   5.445   4.634  0.2120  2.0051 -1.4079
  447TIP3    H2 1348   4.366   5.540   4.663  2.9284 -1.5090  0.1232
  448TIP3   OH2 1349   3.777   2.948   1.681  0.2437  0.3312  0.0851
  448TIP3    H1 1350   3.706   2.983   1.734 -0.3164 -0.1350 -0.3347
  448TIP3    H2 1351   3.745   2.955   1.591  0.9392  0.5813 -0.1479
  449TIP3   OH2 1352   3.094   2.665   4.365  0.4006 -0.3672  0.0029
  449TIP3    H1 1353   3.131   2.632   4.446  2.0570 -1.6279 -1.2198
  449TIP3    H2 1354   3.127   2.755   4.358  1.2113 -0.6491  0.1516
  450TIP3   OH2 1355   4.623   1.964   2.574 -0.2448 -0.3507 -0.4116
  450TIP3    H1 1356   4.693   1.933   2.631  0.4619  3.3134  1.0223
  450TIP3    H2 1357   4.639   2.058   2.565 -3.7881  0.3022 -1.7852
  451TIP3   OH2 1358   2.688   3.666   3.458 -0.0352  0.1341 -0.1556
  451TIP3    H1 1359   2.656   3.718   3.533 -0.5369 -0.7221  0.2361
  451TIP3    H2 1360   2.777   3.699   3.443 -0.1728  0.7918  0.3759
  452TIP3   OH2 1361   1.631   3.515   0.471 -0.1288  0.2944  0.1799
  452TIP3    H1 1362   1.541   3.540   0.491 -0.7677 -1.1796 -0.6779
  452TIP3    H2 1363   1.656   3.571   0.397 -0.0301  1.2696  0.9294
  453TIP3   OH2 1364   3.798   4.518   0.565 -0.4393 -0.0930  0.2863
  453TIP3    H1 1365   3.807   4.444   0.504  0.6881  0.2730 -0.0134
  453TIP3    H2 1366   3.886   4.556   0.569 -1.4831  2.7717 -1.5179
  454TIP3   OH2 1367   5.976   4.928   0.811 -0.3318 -0.3015  0.3308
  454TIP3    H1 1368   5.909   4.907   0.746  0.5288 -1.4713 -0.2176
  454TIP3    H2 1369   6.024   5.001   0.772 -0.2245 -0.5741 -0.0572
  455TIP3   OH2 1370   3.115   3.957   1.474  0.0807  0.4324 -0.3366
  455TIP3    H1 1371   3.141   3.940   1.384 -1.8481 -1.8956 -0.5373
  455TIP3    H2 1372   3.033   3.910   1.485  0.1971  0.7444  2.6246
  456TIP3   OH2 1373   3.289   4.886   3.860  0.0119 -0.4664  0.4925
  456TIP3    H1 1374   3.249   4.803   3.885 -0.6994 -0.1901  0.3187
  456TIP3    H2 1375   3.225   4.953   3.886  0.8150  0.0726  1.1291
  457TIP3   OH2 1376   1.411   1.918   3.774 -0.1937 -0.5503  0.2387
  457TIP3    H1 1377   1.346   1.854   3.744  0.0472  0.4649 -2.7534
  457TIP3    H2 1378   1.465   1.936   3.698  2.1782  0.4199  2.0096
  458TIP3   OH2 1379   2.045   1.861   0.805 -0.2821  0.3458  0.5378
  458TIP3    H1 1380   2.126   1.911   0.796 -0.3947  0.3358 -0.8261
  458TIP3    H2 1381   1.983   1.906   0.747 -0.6552 -0.7998  0.0111
  459TIP3   OH2 1382   2.062   1.811   3.743  0.2359 -0.1423 -0.3910
  459TIP3    H1 1383   2.041   1.719   3.762  2.5083 -0.3627  1.5912
  459TIP3    H2 1384   2.156   1.818   3.761  0.1937  2.5156 -0.8025
  460TIP3   OH2 1385   4.244   0.683   3.255 -0.6568 -0.2758  0.0197
  460TIP3    H1 1386   4.278   0.773   3.255 -1.0799 -0.0555 -2.3630
  460TIP3    H2 1387   4.152   0.693   3.231 -1.4997 -1.1794  2.5367
  461TIP3   OH2 1388   4.741   2.449   2.923 -0.2515  0.0801  0.3386
  461TIP3    H1 1389   4.728   2.364   2.880 -0.1270 -0.2173  0.8803
  461TIP3    H2 1390   4.824   2.481   2.888  0.9712 -1.1571  1.9345
  462TIP3   OH2 1391   6.266   4.232   2.855 -0.6027  0.5098 -0.0520
  462TIP3    H1 1392   6.317   4.272   2.785 -2.0358  1.8745 -0.3577
  462TIP3    H2 1393   6.318   4.156   2.881  0.2530  0.2805 -2.1980
  463TIP3   OH2 1394   1.371   2.644   0.036  0.6181  0.5261  0.1140
  463TIP3    H1 1395   1.295   2.586   0.032  1.7186 -0.9100 -1.4915
  463TIP3    H2 1396   1.439   2.590   0.077  1.5419  0.8157 -1.0102
  464TIP3   OH2 1397   6.092   5.951   3.192 -0.5233 -0.0751  0.3534
  464TIP3    H1 1398   6.069   5.906   3.273 -1.9752 -1.0640 -0.5679
  464TIP3    H2 1399   6.079   5.886   3.124  0.7766  0.7055 -0.6961
  465TIP3   OH2 1400   3.346   0.895   4.293 -0.5620 -0.2156 -0.1266
  465TIP3    H1 1401   3.257   0.914   4.322 -0.2922  1.2555 -0.2028
  465TIP3    H2 1402   3.397   0.891   4.374 -0.8981 -2.5145  0.0520
  466TIP3   OH2 1403   2.332   0.271   2.107 -0.2114 -0.7527 -0.0930
  466TIP3    H1 1404   2.366   0.352   2.068 -0.2616 -0.9185 -0.4891
  466TIP3    H2 1405   2.409   0.215   2.117 -0.5073 -1.6488 -2.2443
  467TIP3   OH2 1406   2.947   4.066   0.717 -0.2433  0.1542  0.5540
  467TIP3    H1 1407   2.975   3.977   0.736  1.3615  0.5629  0.2044
  467TIP3    H2 1408   2.869   4.079   0.771 -0.9164 -1.6787  0.0885
  468TIP3   OH2 1409   1.098   4.168   3.923 -0.2179  0.1683 -0.6580
  468TIP3    H1 1410   1.120   4.236   3.987  0.7543  0.5901 -1.4230
  468TIP3    H2 1411   1.170   4.105   3.929  0.0803  0.4037 -1.5899
  469TIP3   OH2 1412   5.963   1.851   0.222  0.5142  0.0191  0.2227
  469TIP3    H1 1413   5.877   1.819   0.252  1.0142 -1.7408 -0.1003
  469TIP3    H2 1414   6.023   1.827   0.292  0.9822 -0.1717 -0.2356
  470TIP3   OH2 1415   1.754   0.517   4.536 -0.1976 -0.7126 -0.0833
  470TIP3    H1 1416   1.805   0.477   4.606  0.2814  0.5838  0.3370
  470TIP3    H2 1417   1.820   0.553   4.476 -0.5706  0.8472  0.3904
  471TIP3   OH2 1418   2.798   2.513   3.037  0.2881 -0.0619  0.3775
  471TIP3    H1 1419   2.860   2.448   3.069  0.1461 -0.3807  0.0233
  471TIP3    H2 1420   2.852   2.587   3.010  0.5578 -0.4980 -0.3093
  472TIP3   OH2 1421   6.285   1.961   1.692 -0.5053 -0.2710 -0.3953
  472TIP3    H1 1422   6.359   2.017   1.717 -0.5555 -0.9661  1.4494
  472TIP3    H2 1423   6.228   1.962   1.768 -1.4125 -1.3873 -1.0328
  473TIP3   OH2 1424   1.116   2.625   5.085 -0.2906 -0.0948 -0.2399
  473TIP3    H1 1425   1.198   2.576   5.078 -0.4885 -0.6707  1.2076
  473TIP3    H2 1426   1.049   2.562   5.058 -0.2745  0.4271 -1.5888
  474TIP3   OH2 1427   0.464   0.622   1.173  0.0400  0.5383 -0.0267
  474TIP3    H1 1428   0.383   0.640   1.221 -0.7321  1.3211 -1.5561
  474TIP3    H2 1429   0.459   0.678   1.096  1.7295  0.0815 -0.5052
  475TIP3   OH2 1430   2.511   0.355   1.080  0.3875  0.1328  0.7817
  475TIP3    H1 1431   2.505   0.270   1.125 -0.0247  0.1720  0.7990
  475TIP3    H2 1432   2.532   0.418   1.149  0.9795  0.0059  0.7264
  476TIP3   OH2 1433   5.104   4.085   2.129 -0.0936 -0.6527  0.1555
  476TIP3    H1 1434   5.173   4.020   2.117  2.8476  2.0100  1.2883
  476TIP3    H2 1435   5.104   4.103   2.223 -1.1604  0.6374 -0.0712
  477TIP3   OH2 1436   3.621   4.278   1.903 -0.5823  0.5842  0.1061
  477TIP3    H1 1437   3.561   4.204   1.908 -0.1857  0.2206 -0.3408
  477TIP3    H2 1438   3.705   4.244   1.935 -0.7013  1.1942  1.1032
  478TIP3   OH2 1439   4.569   0.414   3.467 -0.4511  0.4410 -0.2795
  478TIP3    H1 1440   4.541   0.407   3.558  1.4316 -0.4431  0.2828
  478TIP3    H2 1441   4.646   0.357   3.462 -0.1049  1.0318 -2.2568
  479TIP3   OH2 1442   2.992   1.258   5.052 -0.4450  0.1649  0.0309
  479TIP3    H1 1443   2.927   1.272   5.121 -0.2754  1.6652 -0.0733
  479TIP3    H2 1444   2.994   1.341   5.004  0.0873 -0.5538 -1.2284
  480TIP3   OH2 1445   0.478   5.598   4.516 -0.1908  0.2608  0.9237
  480TIP3    H1 1446   0.459   5.676   4.569 -1.0008  1.8818 -1.5868
  480TIP3    H2 1447   0.572   5.605   4.497 -0.4918  1.3349 -0.2804
  481TIP3   OH2 1448   5.850   5.443   1.246  0.3603  0.4422 -0.0511
  481TIP3    H1 1449   5.835   5.397   1.164 -0.3839  0.7769 -0.1123
  481TIP3    H2 1450   5.928   5.403   1.283 -0.6405 -1.3444  0.2319
  482TIP3   OH2 1451   3.872   0.749   3.841  0.6116 -0.2062 -0.2360
  482TIP3    H1 1452   3.856   0.663   3.801  0.3803 -1.2505  1.9958
  482TIP3    H2 1453   3.804   0.805   3.803 -0.8705 -1.6600  0.1592
  483TIP3   OH2 1454   5.419   5.174   3.586  0.0907  0.7261  0.1829
  483TIP3    H1 1455   5.509   5.152   3.608  0.1359  0.9604  0.2300
  483TIP3    H2 1456   5.373   5.173   3.670 -0.8514 -3.4118 -0.1649
  484TIP3   OH2 1457   0.826   1.018   0.933  0.6932  0.1447 -0.4717
  484TIP3    H1 1458   0.897   1.082   0.930  0.9236 -0.0102  1.0641
  484TIP3    H2 1459   0.856   0.947   0.876  2.2267 -0.3462  0.8854
  485TIP3   OH2 1460   1.519   5.201   1.871 -0.5240 -0.1699  0.0782
  485TIP3    H1 1461   1.441   5.257   1.868 -1.1855 -1.0751 -0.1532
  485TIP3    H2 1462   1.488   5.119   1.909  0.4047 -0.4164  0.3159
  486TIP3   OH2 1463   0.112   3.779   0.221 -0.5225  0.2335  0.6022
  486TIP3    H1 1464   0.023   3.783   0.255 -0.9490  0.9688 -0.5512
  486TIP3    H2 1465   0.122   3.859   0.168  0.9189  0.3144  0.9451
  487TIP3   OH2 1466   5.676   0.011   3.353  0.3991 -0.6637 -0.0260
  487TIP3    H1 1467   5.731   0.086   3.329 -0.2373 -0.3222 -0.4426
  487TIP3    H2 1468   5.631   0.038   3.432  0.0001 -0.5122 -0.3000
  488TIP3   OH2 1469   5.097   0.756   1.815  0.1030 -0.1321  0.1536
  488TIP3    H1 1470   5.022   0.701   1.837  0.4731 -0.5102  0.4741
  488TIP3    H2 1471   5.139   0.775   1.899  0.3144  0.1609 -0.0128
  489TIP3   OH2 1472   0.969   2.853   5.182  0.0993  0.5403 -0.1890
  489TIP3    H1 1473   0.959   2.928   5.124  2.1630  0.8158 -0.2565
  489TIP3    H2 1474   1.022   2.791   5.132 -1.5382 -0.9991 -0.1222
  490TIP3   OH2 1475   3.406   4.120   2.555 -0.3501 -0.0114  0.7880
  490TIP3    H1 1476   3.311   4.126   2.561 -0.5910  0.4732 -1.9417
  490TIP3    H2 1477   3.427   4.156   2.468  2.2871 -0.4599  1.1390
  491TIP3   OH2 1478   3.932   3.662   2.993  0.2990  0.0150  0.2362
  491TIP3    H1 1479   3.843   3.680   2.960  0.3370 -1.8890 -1.0400
  491TIP3    H2 1480   3.919   3.633   3.083 -0.2558  0.7281  0.3998
  492TIP3   OH2 1481   4.805   2.182   3.389 -0.1605  0.4272 -0.0948
  492TIP3    H1 1482   4.776   2.204   3.478  0.0109  0.0828  0.0488
  492TIP3    H2 1483   4.776   2.255   3.336  1.9611  1.8903  0.6531
  493TIP3   OH2 1484   2.610   0.036   1.669 -0.2107 -0.0412  0.0061
  493TIP3    H1 1485   2.602   0.108   1.732 -1.2611 -2.4494  2.8519
  493TIP3    H2 1486   2.702   0.011   1.672  0.0987  0.8949 -0.7838
  494TIP3   OH2 1487   5.660   3.266   4.440  0.1763 -0.1320 -0.1220
  494TIP3    H1 1488   5.637   3.316   4.361 -0.2056 -0.5858 -0.3032
  494TIP3    H2 1489   5.732   3.209   4.413 -0.4399 -0.8215 -0.3561
  495TIP3   OH2 1490   2.250   1.671   4.732  0.1547 -0.1336  0.2125
  495TIP3    H1 1491   2.284   1.691   4.645  1.1999 -0.8313  0.4407
  495TIP3    H2 1492   2.323   1.688   4.791 -0.9135  1.5990  1.1415
  496TIP3   OH2 1493   4.945   5.287   4.703 -0.0938 -0.1538 -0.0889
  496TIP3    H1 1494   5.033   5.302   4.667 -0.0531  2.1002  0.7910
  496TIP3    H2 1495   4.889   5.280   4.626  0.6588 -0.2978 -0.6422
  497TIP3   OH2 1496   2.487   4.349   1.264 -0.1230 -0.0764  0.2949
  497TIP3    H1 1497   2.398   4.353   1.300 -0.0342  0.7128  0.4551
  497TIP3    H2 1498   2.499   4.435   1.223 -0.2266 -0.9409 -1.6600
  498TIP3   OH2 1499   4.702   1.960   1.807  0.4271  0.1769  0.2304
  498TIP3    H1 1500   4.685   1.971   1.713  1.1847 -0.3897  0.0192
  498TIP3    H2 1501   4.615   1.949   1.845 -0.0789  2.4862 -0.0957
  499TIP3   OH2 1502   1.604   1.194   2.570  0.4187 -0.3420  0.1904
  499TIP3    H1 1503   1.592   1.134   2.496 -0.9806  0.3306 -0.1671
  499TIP3    H2 1504   1.698   1.193   2.587  0.6078 -1.4448 -0.8115
  500TIP3   OH2 1505   0.911   4.715   1.253  0.1477  0.2569  0.2573
  500TIP3    H1 1506   0.982   4.653   1.241  1.0742  1.1915  0.7357
  500TIP3    H2 1507   0.898   4.754   1.167 -1.0408 -1.1853 -0.2576
  501TIP3   OH2 1508   3.635   3.264   3.383  0.2927  0.4404  0.1270
  501TIP3    H1 1509   3.571   3.333   3.402  0.8462  0.8561  0.5217
  501TIP3    H2 1510   3.674   3.290   3.299  1.3089  1.2460  0.8151
  502TIP3   OH2 1511   3.966   0.784   2.854 -0.0745 -0.2825  0.2076
  502TIP3    H1 1512   3.893   0.731   2.820 -2.2394  3.0626 -0.8957
  502TIP3    H2 1513   4.038   0.767   2.793 -1.6034  0.1367 -1.8325
  503TIP3   OH2 1514   3.663   4.968   2.924 -0.3810  0.0378  0.0564
  503TIP3    H1 1515   3.590   4.907   2.923 -0.0842 -0.3568  1.0414
  503TIP3    H2 1516   3.632   5.043   2.976  0.1000 -0.3931  0.9863
  504TIP3   OH2 1517   3.444   2.289   1.005 -0.6765  0.6560  0.1205
  504TIP3    H1 1518   3.468   2.263   1.094 -0.7023 -2.0467 -0.5579
  504TIP3    H2 1519   3.410   2.378   1.014 -0.3349  0.5966  2.7408
  505TIP3   OH2 1520   3.947   0.149   3.600 -0.0994 -0.0580  0.0749
  505TIP3    H1 1521   4.035   0.185   3.609  0.4646 -1.4287  0.1635
  505TIP3    H2 1522   3.925   0.115   3.687 -0.1436 -1.0029 -0.3041
  506TIP3   OH2 1523   2.773   3.968   1.138 -0.2562 -0.2782  0.9163
  506TIP3    H1 1524   2.692   4.019   1.144 -0.5670 -0.6608  0.0739
  506TIP3    H2 1525   2.841   4.029   1.166 -0.5447  0.8111 -0.6251
  507TIP3   OH2 1526   4.877   0.916   0.794 -0.5792 -0.2852  0.4608
  507TIP3    H1 1527   4.941   0.874   0.736 -1.3248 -1.6499  0.5901
  507TIP3    H2 1528   4.868   0.855   0.867 -1.5216  0.2180  0.7741
  508TIP3   OH2 1529   1.862   3.576   1.570 -0.1760  0.2759  0.5010
  508TIP3    H1 1530   1.808   3.519   1.515 -0.9625  0.7098  0.8058
  508TIP3    H2 1531   1.927   3.518   1.609  0.6884  0.0232 -1.2359
  509TIP3   OH2 1532   2.460   5.794   1.169 -0.5484  0.3338  0.3881
  509TIP3    H1 1533   2.410   5.832   1.096 -0.9866  0.5799  0.8076
  509TIP3    H2 1534   2.460   5.700   1.151  0.9880  0.5454 -0.9367
  510TIP3   OH2 1535   5.731   1.885   4.900 -0.1645 -0.1057  0.1043
  510TIP3    H1 1536   5.798   1.932   4.949 -0.1149 -0.1876  0.1153
  510TIP3    H2 1537   5.767   1.878   4.812 -0.4507  0.4428 -0.0620
  511TIP3   OH2 1538   0.776   1.572   4.961  0.2943 -0.0026 -0.3236
  511TIP3    H1 1539   0.829   1.635   4.912  0.8595  0.7917  1.2691
  511TIP3    H2 1540   0.754   1.616   5.043 -1.6951 -0.8342 -0.3359
  512TIP3   OH2 1541   1.717   2.320   4.214 -0.6243  0.0685  0.3394
  512TIP3    H1 1542   1.661   2.243   4.219 -1.0770  0.4337  1.0758
  512TIP3    H2 1543   1.682   2.380   4.280 -1.2779  1.5690 -1.2819
  513TIP3   OH2 1544   1.450   3.452   3.733 -0.5136  0.1383  0.4459
  513TIP3    H1 1545   1.512   3.403   3.787  0.2272  0.4982 -0.0771
  513TIP3    H2 1546   1.383   3.481   3.795 -0.6803 -1.0571  0.8571
  514TIP3   OH2 1547   5.218   5.853   2.373 -0.3263  0.0439 -0.6777
  514TIP3    H1 1548   5.158   5.780   2.358  0.3872 -0.5013 -0.9605
  514TIP3    H2 1549   5.207   5.875   2.465 -4.0690  2.7774 -1.5026
  515TIP3   OH2 1550   4.176   4.021   4.549  0.4097  0.0811 -0.2776
  515TIP3    H1 1551   4.155   3.995   4.639 -2.5030 -0.1808 -0.9314
  515TIP3    H2 1552   4.184   4.116   4.553 -0.3859  0.1387  0.1558
  516TIP3   OH2 1553   1.303   5.018   3.494  0.1249 -0.1989 -0.4288
  516TIP3    H1 1554   1.394   4.993   3.515 -0.3910 -0.7966  1.2793
  516TIP3    H2 1555   1.277   5.076   3.565  0.1043  2.4730 -2.4827
  517TIP3   OH2 1556   3.096   3.310   4.922  0.0176  0.7346 -0.0070
  517TIP3    H1 1557   3.013   3.358   4.914 -1.0140 -0.9157  0.2502
  517TIP3    H2 1558   3.088   3.239   4.859  1.6565  1.0462 -0.6207
  518TIP3   OH2 1559   3.370   2.301   2.320  0.0156  0.4265  0.7422
  518TIP3    H1 1560   3.443   2.272   2.376  0.5532 -0.1177 -0.2144
  518TIP3    H2 1561   3.381   2.251   2.239 -1.3336  0.4677  0.5186
  519TIP3   OH2 1562   1.712   1.918   0.726  0.1617  0.5694  0.1053
  519TIP3    H1 1563   1.788   1.939   0.671  0.1268 -1.0439 -0.6398
  519TIP3    H2 1564   1.637   1.935   0.669  0.1318 -1.3033 -0.4814
  520TIP3   OH2 1565   5.693   5.759   3.290 -0.4797 -0.6168 -0.8770
  520TIP3    H1 1566   5.597   5.753   3.291 -0.5082 -0.3997  0.5495
  520TIP3    H2 1567   5.711   5.840   3.243 -1.1126  0.3064  0.3923
  521TIP3   OH2 1568   6.244   5.162   4.833 -0.0381 -0.6015 -0.3593
  521TIP3    H1 1569   6.154   5.175   4.804  0.1442  2.0913  0.0917
  521TIP3    H2 1570   6.250   5.207   4.917  1.7375 -0.7099 -0.3798
  522TIP3   OH2 1571   6.190   0.100   3.842  0.5356  0.0423 -0.0838
  522TIP3    H1 1572   6.100   0.095   3.875  1.0498 -0.7117  1.3199
  522TIP3    H2 1573   6.181   0.131   3.752 -1.1204  0.0017  0.0287
  523TIP3   OH2 1574   2.073   4.598   0.938 -0.0375  0.0120 -0.1638
  523TIP3    H1 1575   2.008   4.662   0.907  0.5144  0.5932 -0.1374
  523TIP3    H2 1576   2.065   4.601   1.033  0.8632  0.9999 -0.0931
  524TIP3   OH2 1577   1.637   5.794   0.642  0.0333  0.0033  0.5872
  524TIP3    H1 1578   1.728   5.764   0.642 -0.4037 -1.3985  0.3688
  524TIP3    H2 1579   1.587   5.719   0.608 -1.4104  0.0688  2.4057
  525TIP3   OH2 1580   5.457   0.253   4.414  0.6516  0.2492 -0.0734
  525TIP3    H1 1581   5.415   0.188   4.357 -0.1545  0.3820  0.3607
  525TIP3    H2 1582   5.400   0.258   4.491  0.7284  1.4375 -0.0824
  526TIP3   OH2 1583   5.688   0.077   4.763 -0.5686  0.3307 -0.1344
  526TIP3    H1 1584   5.721  -0.013   4.774 -0.7683  0.2744  0.0031
  526TIP3    H2 1585   5.703   0.097   4.670  3.2959  1.6521  0.5871
  527TIP3   OH2 1586   4.581   4.384   2.660 -0.2543 -0.1898 -0.1517
  527TIP3    H1 1587   4.615   4.342   2.581 -0.6128 -1.4602  0.3535
  527TIP3    H2 1588   4.539   4.464   2.628  2.2727  0.9298 -0.8978
  528TIP3   OH2 1589   1.239   4.194   0.490 -0.0622 -0.4066  0.4355
  528TIP3    H1 1590   1.149   4.220   0.471  0.5099  0.2154 -1.7750
  528TIP3    H2 1591   1.291   4.272   0.470  1.0303 -0.9608  1.0196
  529TIP3   OH2 1592   6.063   0.122   1.731  0.5817  0.2450  0.1582
  529TIP3    H1 1593   5.999   0.138   1.800  0.0103 -1.4395  0.0815
  529TIP3    H2 1594   6.088   0.209   1.701 -1.4647  0.9772  0.3754
  530TIP3   OH2 1595   4.424   0.514   2.417 -0.0620 -0.2139  0.2494
  530TIP3    H1 1596   4.382   0.584   2.367 -0.7745 -0.7181  0.1208
  530TIP3    H2 1597   4.362   0.441   2.412  1.1758 -1.2262 -0.5430
  531TIP3   OH2 1598   5.149   3.032   2.649 -0.3191 -0.5569  0.7012
  531TIP3    H1 1599   5.234   3.033   2.693  0.1022  2.3910  0.0331
  531TIP3    H2 1600   5.145   2.946   2.607  1.3765 -1.5875  2.4418
  532TIP3   OH2 1601   5.532   1.291   4.848  0.6891 -0.3509  0.1260
  532TIP3    H1 1602   5.593   1.225   4.882  0.6827  0.0558  0.9594
  532TIP3    H2 1603   5.513   1.346   4.924 -0.6022 -0.3845 -0.1616
  533TIP3   OH2 1604   4.140   4.982   2.204 -0.1876 -0.3418 -0.6241
  533TIP3    H1 1605   4.064   5.022   2.164 -0.8114 -0.3700  0.4821
  533TIP3    H2 1606   4.150   4.898   2.159  0.3661  0.4806 -2.0817
  534TIP3   OH2 1607   6.044   4.532   1.477 -0.0227 -0.7161  0.1645
  534TIP3    H1 1608   5.986   4.607   1.486  0.0384 -0.7144  0.5462
  534TIP3    H2 1609   5.986   4.461   1.448 -0.4077 -0.9608  1.4459
  535TIP3   OH2 1610   1.084   5.878   1.755 -0.2420  0.5130  0.1631
  535TIP3    H1 1611   1.089   5.964   1.796 -2.7227  1.0965 -0.6438
  535TIP3    H2 1612   1.088   5.895   1.661 -0.2470 -0.3232 -0.0005
  536TIP3   OH2 1613   2.987   3.800   2.355 -0.0198  0.3332  0.7367
  536TIP3    H1 1614   3.000   3.722   2.408  0.5548 -0.7986 -0.9823
  536TIP3    H2 1615   2.912   3.780   2.299  0.4498  0.7791 -0.0849
  537TIP3   OH2 1616   4.478   1.313   1.944 -0.5296  0.1431 -0.8689
  537TIP3    H1 1617   4.498   1.405   1.925 -0.1276  0.6473  1.6746
  537TIP3    H2 1618   4.548   1.264   1.901  1.5698  1.3477  0.9916
  538TIP3   OH2 1619   5.434   2.012   0.440 -0.3994 -0.6155  0.3072
  538TIP3    H1 1620   5.492   1.939   0.417  1.1661  0.2444  1.3584
  538TIP3    H2 1621   5.440   2.019   0.535 -2.2984 -0.5068  0.4628
  539TIP3   OH2 1622   2.557   0.490   4.283  0.2775 -0.3235 -0.3481
  539TIP3    H1 1623   2.500   0.566   4.272  0.6896  0.2719  1.3582
  539TIP3    H2 1624   2.556   0.447   4.197 -1.4532  0.5472 -0.8166
  540TIP3   OH2 1625   3.347   1.424   4.302  0.3338  0.1164  0.2674
  540TIP3    H1 1626   3.431   1.424   4.348 -0.2841  0.3921  1.4437
  540TIP3    H2 1627   3.332   1.332   4.278  1.2608  0.1634 -0.5219
  541TIP3   OH2 1628   3.651   2.195   5.003 -0.6839  0.1773  0.1784
  541TIP3    H1 1629   3.685   2.276   4.966  0.7372  0.6493  2.3647
  541TIP3    H2 1630   3.710   2.174   5.075 -1.4390 -2.4354  0.1458
  542TIP3   OH2 1631   2.154   2.383   0.621 -0.4767 -0.0744 -1.0166
  542TIP3    H1 1632   2.102   2.443   0.567  0.3440  0.4412 -1.2371
  542TIP3    H2 1633   2.244   2.395   0.591  0.0236  0.3779  0.6131
  543TIP3   OH2 1634   4.721   1.923   0.702 -0.1846  0.1139 -0.0769
  543TIP3    H1 1635   4.658   1.995   0.699  0.6245  0.8143 -2.3731
  543TIP3    H2 1636   4.674   1.850   0.661  0.5040  0.7313 -2.1068
  544TIP3   OH2 1637   4.197   4.379   0.167 -0.3501  0.8671  0.1277
  544TIP3    H1 1638   4.107   4.383   0.136 -1.1852 -1.5321  1.9562
  544TIP3    H2 1639   4.235   4.305   0.120 -0.7560 -0.9366  2.4295
  545TIP3   OH2 1640   3.213   3.116   2.494 -0.4227  0.6138  0.1833
  545TIP3    H1 1641   3.176   3.196   2.458 -3.1394  0.8293  2.9769
  545TIP3    H2 1642   3.138   3.057   2.503  1.0411 -1.2919  0.5693
  546TIP3   OH2 1643   2.422   0.073   3.569  0.1733 -0.0698  0.7117
  546TIP3    H1 1644   2.379   0.112   3.644 -0.1181  1.9502 -0.4254
  546TIP3    H2 1645   2.513   0.064   3.595  0.4406  2.2418  0.7827
  547TIP3   OH2 1646   4.382   5.419   0.427  0.0738 -0.0123 -0.0574
  547TIP3    H1 1647   4.369   5.483   0.497 -2.5809 -0.2653 -0.2245
  547TIP3    H2 1648   4.426   5.346   0.470 -0.3312  0.3703  1.0538
  548TIP3   OH2 1649   0.081   1.725   1.596  0.0257  0.4556 -0.8032
  548TIP3    H1 1650   0.045   1.710   1.508 -0.6295 -2.0073 -0.1745
  548TIP3    H2 1651   0.021   1.787   1.636  0.4336  1.7600 -2.1063
  549TIP3   OH2 1652   0.727   4.032   0.938 -0.1284 -0.6226  0.5950
  549TIP3    H1 1653   0.708   4.123   0.914  1.2196 -0.7295 -1.1266
  549TIP3    H2 1654   0.678   3.980   0.873 -1.3141 -1.1791  1.8872
  550TIP3   OH2 1655   5.764   4.942   4.920  0.1904  0.1191  0.1663
  550TIP3    H1 1656   5.684   4.890   4.917 -0.6980  1.3681  1.2093
  550TIP3    H2 1657   5.808   4.914   5.000 -0.8062  1.6400  1.2928
  551TIP3   OH2 1658   5.080   2.269   1.923 -1.2053 -0.1305  0.1452
  551TIP3    H1 1659   5.074   2.199   1.988  0.0025  0.4050  0.8724
  551TIP3    H2 1660   5.133   2.336   1.966  0.7272 -0.2893 -1.8579
  552TIP3   OH2 1661   5.809   5.192   4.582 -0.1217 -0.5357  0.2227
  552TIP3    H1 1662   5.727   5.215   4.624  0.3513 -0.2469  1.0051
  552TIP3    H2 1663   5.809   5.096   4.579 -0.0498 -0.5679  1.1106
  553TIP3   OH2 1664   5.823   4.830   3.114  0.0249 -0.1995  0.2641
  553TIP3    H1 1665   5.730   4.825   3.136 -0.3248  0.6149 -0.9309
  553TIP3    H2 1666   5.834   4.768   3.042  0.5090 -0.6414  0.7164
  554TIP3   OH2 1667   1.574   2.494   0.161  0.5346  0.2425  0.1816
  554TIP3    H1 1668   1.574   2.403   0.133 -1.0709  0.1016  0.5408
  554TIP3    H2 1669   1.654   2.532   0.122  0.3279 -0.8683 -1.3983
  555TIP3   OH2 1670   0.762   3.454   2.076  0.2657 -0.3631  0.0555
  555TIP3    H1 1671   0.787   3.509   2.002  0.8307 -0.5866  0.0733
  555TIP3    H2 1672   0.675   3.486   2.102  0.2092 -0.0667 -0.4884
  556TIP3   OH2 1673   4.289   0.598   1.059  0.4891 -0.0047  0.0014
  556TIP3    H1 1674   4.268   0.681   1.102  1.2831 -0.0806  0.5674
  556TIP3    H2 1675   4.230   0.535   1.101  0.6667  0.0786  0.3892
  557TIP3   OH2 1676   2.480   3.176   2.941  0.0409  0.7057  0.2312
  557TIP3    H1 1677   2.429   3.257   2.943 -0.4525  0.4267 -0.5661
  557TIP3    H2 1678   2.559   3.198   2.892  0.1844  0.8561  0.5277
  558TIP3   OH2 1679   3.911   0.180   1.665  0.2818 -0.0285  0.8882
  558TIP3    H1 1680   4.003   0.199   1.646  0.9409 -2.1603  1.7377
  558TIP3    H2 1681   3.913   0.116   1.736 -1.8916  0.3942  1.4112
  559TIP3   OH2 1682   5.346   0.252   4.683 -0.6375  0.4522  0.4736
  559TIP3    H1 1683   5.325   0.345   4.687  0.8398  0.8345  0.0403
  559TIP3    H2 1684   5.384   0.232   4.769 -1.4308  0.1080  0.7543
  560TIP3   OH2 1685   0.741   3.646   2.645 -0.1268 -0.0889  0.1020
  560TIP3    H1 1686   0.741   3.693   2.728  4.2436  0.8751 -0.2041
  560TIP3    H2 1687   0.758   3.713   2.579  0.4529 -1.3388 -1.0714
  561TIP3   OH2 1688   1.158   1.895   0.224  0.2418 -0.0053  1.1681
  561TIP3    H1 1689   1.210   1.912   0.145 -1.0379 -1.7767 -0.1538
  561TIP3    H2 1690   1.195   1.953   0.290 -0.4776  3.8395 -1.4497
  562TIP3   OH2 1691   3.289   0.834   0.912  0.1170 -0.5838  0.1492
  562TIP3    H1 1692   3.210   0.829   0.966  0.2194  0.1885  0.3849
  562TIP3    H2 1693   3.268   0.899   0.845  0.3490 -0.8042 -0.1406
  563TIP3   OH2 1694   3.868   0.197   3.067  0.4741 -0.2788  0.1648
  563TIP3    H1 1695   3.890   0.265   3.004 -1.1473 -0.7617 -0.9786
  563TIP3    H2 1696   3.863   0.242   3.151  0.1976  0.8575 -0.4460
  564TIP3   OH2 1697   1.831   1.339   5.158  0.7041  0.7871  0.1549
  564TIP3    H1 1698   1.883   1.266   5.124  1.7951  0.1603  2.8954
  564TIP3    H2 1699   1.749   1.336   5.109  0.2550 -3.0036  0.8826
  565TIP3   OH2 1700   0.573   2.092   0.600 -0.2348 -0.5073 -0.3000
  565TIP3    H1 1701   0.481   2.089   0.627  0.2672 -1.0377  1.4376
  565TIP3    H2 1702   0.573   2.052   0.512 -1.8131  0.6029 -0.8461
  566TIP3   OH2 1703   4.545   4.361   0.474  0.0670  0.4430 -0.4102
  566TIP3    H1 1704   4.500   4.329   0.552 -1.8491  1.8678 -0.8530
  566TIP3    H2 1705   4.552   4.456   0.488  3.0188  0.2988 -0.3870
  567TIP3   OH2 1706   6.292   2.588   3.160  0.4860 -0.2520  0.3418
  567TIP3    H1 1707   6.265   2.651   3.094  0.6901 -0.1201  0.3831
  567TIP3    H2 1708   6.361   2.537   3.117 -0.6719 -1.4218 -0.2089
  568TIP3   OH2 1709   3.429   4.861   0.544  0.3469  0.2924 -0.2865
  568TIP3    H1 1710   3.334   4.854   0.536  0.2661  1.6186 -0.6610
  568TIP3    H2 1711   3.457   4.774   0.573 -0.8712 -0.4144 -1.1227
  569TIP3   OH2 1712   3.438   0.285   0.616  0.2110  0.0036 -0.4603
  569TIP3    H1 1713   3.428   0.323   0.704 -1.1190  0.1795 -0.6798
  569TIP3    H2 1714   3.485   0.203   0.631 -0.1502 -0.0471  0.4317
  570TIP3   OH2 1715   2.429   5.713   2.288  0.6666 -0.1931 -0.1373
  570TIP3    H1 1716   2.505   5.682   2.238 -0.1412 -0.2830 -1.3666
  570TIP3    H2 1717   2.459   5.717   2.378  1.6659 -1.7678 -0.3579
  571TIP3   OH2 1718   5.434   1.529   0.372  0.3437  0.0669  0.2713
  571TIP3    H1 1719   5.454   1.604   0.316  0.1128  0.3580  0.5730
  571TIP3    H2 1720   5.339   1.519   0.364  0.5674 -1.3021 -1.1526
  572TIP3   OH2 1721   2.543   0.732   4.682 -0.4394 -0.2958 -0.3609
  572TIP3    H1 1722   2.514   0.809   4.731 -0.0330 -0.8546  0.8005
  572TIP3    H2 1723   2.639   0.731   4.693 -0.5083 -1.3871  0.3186
  573TIP3   OH2 1724   4.369   0.311   4.877 -0.0053  0.7449 -0.5173
  573TIP3    H1 1725   4.306   0.364   4.926 -0.2910  0.8577 -1.0012
  573TIP3    H2 1726   4.344   0.221   4.896 -0.2930  0.7891 -0.6790
  574TIP3   OH2 1727   2.873   3.888   4.349 -0.7301 -0.0058  0.0017
  574TIP3    H1 1728   2.935   3.875   4.421  0.6430  2.0507 -0.6981
  574TIP3    H2 1729   2.793   3.846   4.378  0.3089 -0.7773  1.9631
  575TIP3   OH2 1730   6.037   2.089   3.928  0.3713  0.2808  0.1680
  575TIP3    H1 1731   6.061   2.161   3.869  0.1031  0.4120  0.2200
  575TIP3    H2 1732   6.017   2.016   3.869 -1.8165  0.9701 -0.0068
  576TIP3   OH2 1733   1.875   3.780   3.429 -0.2336 -0.3756 -0.0662
  576TIP3    H1 1734   1.790   3.800   3.468 -1.3892 -1.0516 -2.0798
  576TIP3    H2 1735   1.902   3.699   3.471 -0.6454 -0.2282  0.4959
  577TIP3   OH2 1736   2.110   3.605   2.771 -0.2447  0.4268  0.6101
  577TIP3    H1 1737   2.154   3.660   2.707 -0.1733  1.5843  1.6257
  577TIP3    H2 1738   2.127   3.515   2.742  1.5206  0.8831  0.1584
  578TIP3   OH2 1739   0.895   5.744   2.690 -0.8589 -0.1119  0.1391
  578TIP3    H1 1740   0.851   5.660   2.678  1.5422 -1.9395  2.8988
  578TIP3    H2 1741   0.842   5.790   2.755 -0.7153 -0.6874  0.6720
  579TIP3   OH2 1742   5.854   1.918   2.878 -0.4860 -0.4635  0.0904
  579TIP3    H1 1743   5.917   1.883   2.941 -1.3343 -0.0536  1.2025
  579TIP3    H2 1744   5.835   2.006   2.909 -3.1492 -1.2728  1.0272
  580TIP3   OH2 1745   5.515   1.588   2.761 -0.1327 -0.1364 -0.2736
  580TIP3    H1 1746   5.449   1.519   2.751  1.0485 -1.5400  1.0008
  580TIP3    H2 1747   5.466   1.670   2.753 -1.8659 -1.1204 -0.2523
  581TIP3   OH2 1748   0.456   2.383   2.126  0.2376  0.0978 -0.4828
  581TIP3    H1 1749   0.550   2.369   2.138  0.1652  1.0982  1.9729
  581TIP3    H2 1750   0.448   2.478   2.116 -0.4073 -0.1294 -2.6284
  582TIP3   OH2 1751   2.081   0.574   2.001  0.9252 -0.3370  0.4503
  582TIP3    H1 1752   2.058   0.532   1.918 -0.6916 -1.2901  1.3266
  582TIP3    H2 1753   2.136   0.648   1.976 -0.4190  0.0562 -1.5688
  583TIP3   OH2 1754   1.190   5.210   3.690  0.6928 -0.1461  0.1182
  583TIP3    H1 1755   1.130   5.265   3.639  0.0040 -0.8477  0.1488
  583TIP3    H2 1756   1.246   5.272   3.737  0.3787  0.5195 -0.3679
  584TIP3   OH2 1757   4.798   0.437   2.150  0.0562 -0.1664 -0.2241
  584TIP3    H1 1758   4.833   0.449   2.238 -0.7806 -1.4871  0.3194
  584TIP3    H2 1759   4.713   0.482   2.152  0.7226  1.2005 -0.8893
  585TIP3   OH2 1760   2.440   2.971   3.244 -0.3587 -0.0308  0.5498
  585TIP3    H1 1761   2.442   3.065   3.258 -1.2850 -0.1418  1.6064
  585TIP3    H2 1762   2.452   2.960   3.150 -0.5792  1.1577  0.3740
  586TIP3   OH2 1763   0.132   1.251   1.427 -0.7150 -0.0794  0.4982
  586TIP3    H1 1764   0.116   1.184   1.360 -0.9076 -0.2457  0.7074
  586TIP3    H2 1765   0.195   1.210   1.486 -0.3318  0.1734  0.2623
  587TIP3   OH2 1766   0.218   5.354   3.752  0.2204 -0.1970  0.1508
  587TIP3    H1 1767   0.179   5.286   3.697 -1.2389  1.3559 -0.8396
  587TIP3    H2 1768   0.246   5.308   3.831 -1.5986 -1.8016 -0.0686
  588TIP3   OH2 1769   5.597   4.748   2.475  0.0739  0.6204  0.0618
  588TIP3    H1 1770   5.538   4.710   2.410 -0.4231 -0.0452  0.8860
  588TIP3    H2 1771   5.683   4.711   2.452 -0.4824 -1.6014  1.2098
  589TIP3   OH2 1772   1.455   3.236   4.201  0.4886 -0.1210  0.0023
  589TIP3    H1 1773   1.381   3.182   4.173 -0.0892  1.1895 -1.1164
  589TIP3    H2 1774   1.514   3.175   4.245 -1.5272 -1.0941  1.5041
  590TIP3   OH2 1775   3.003   4.123   3.898 -0.6426  0.1159 -0.2634
  590TIP3    H1 1776   3.092   4.129   3.932  0.3511  0.7473 -2.6980
  590TIP3    H2 1777   2.962   4.053   3.948  1.8262 -1.4516 -0.2640
  591TIP3   OH2 1778   4.824   1.468   4.823 -0.2326 -0.6427  0.5600
  591TIP3    H1 1779   4.770   1.453   4.901 -1.8624 -0.0438 -0.4140
  591TIP3    H2 1780   4.803   1.394   4.765 -1.4783  0.5433 -0.5734
  592TIP3   OH2 1781   2.506   2.447   1.485  0.0294  0.2043  0.1630
  592TIP3    H1 1782   2.521   2.496   1.404  2.1989  0.3258  0.5569
  592TIP3    H2 1783   2.425   2.399   1.470 -1.4315  2.7722 -0.7886
  593TIP3   OH2 1784   4.750   2.352   3.608 -0.1157  0.3598  0.4351
  593TIP3    H1 1785   4.746   2.299   3.687  1.5626  0.3460  0.5439
  593TIP3    H2 1786   4.693   2.427   3.627 -1.7031 -0.8518  0.6642
  594TIP3   OH2 1787   2.654   2.037   2.937 -0.3058 -0.4556  0.2092
  594TIP3    H1 1788   2.695   1.951   2.928 -1.3305 -0.8631 -0.8542
  594TIP3    H2 1789   2.681   2.085   2.858 -1.5693 -0.6235 -0.3516
  595TIP3   OH2 1790   2.455   2.299   5.098 -0.7138  0.1386  0.1909
  595TIP3    H1 1791   2.471   2.381   5.051  0.3163  0.5170  1.1338
  595TIP3    H2 1792   2.360   2.295   5.109 -0.8092  0.9967 -0.2260
  596TIP3   OH2 1793   0.033   4.226   0.912 -0.8564 -0.3032  0.6572
  596TIP3    H1 1794  -0.042   4.167   0.911  0.0145 -1.4546  0.2980
  596TIP3    H2 1795   0.030   4.271   0.828 -2.3611  1.3152  1.5185
  597TIP3   OH2 1796   0.594   3.955   2.946  0.1573  0.5673  0.1856
  597TIP3    H1 1797   0.549   3.939   3.029  0.6282 -0.7201  0.2105
  597TIP3    H2 1798   0.535   3.918   2.880 -1.2650  3.4431 -0.3535
  598TIP3   OH2 1799   4.220   3.086   1.128  0.3436  0.2097  0.3756
  598TIP3    H1 1800   4.127   3.083   1.148  0.3866 -0.2718  0.5151
  598TIP3    H2 1801   4.262   3.096   1.213  0.4084  0.7674  0.2840
  599TIP3   OH2 1802   4.896   5.868   2.385 -0.0797  0.2745  0.2513
  599TIP3    H1 1803   4.857   5.901   2.305  1.5337  1.5736 -0.0636
  599TIP3    H2 1804   4.870   5.776   2.389 -0.9204  0.4225 -1.2855
  600TIP3   OH2 1805   0.326   5.069   4.185  0.2351 -0.2952  0.3084
  600TIP3    H1 1806   0.377   5.004   4.233 -1.1494 -0.4313  1.6698
  600TIP3    H2 1807   0.285   5.020   4.114  1.9580 -0.1730 -0.8479
  601TIP3   OH2 1808   2.717   5.600   4.865  0.1850 -0.0865  0.0743
  601TIP3    H1 1809   2.793   5.606   4.922 -1.3100 -1.1015  2.3156
  601TIP3    H2 1810   2.729   5.670   4.801  2.0457  0.9950  1.5102
  602TIP3   OH2 1811   0.284   3.152   0.202 -0.6499 -0.0924 -0.3084
  602TIP3    H1 1812   0.323   3.091   0.265  0.2381  0.8719  0.1097
  602TIP3    H2 1813   0.219   3.200   0.253 -0.5949  0.0437 -0.3674
  603TIP3   OH2 1814   5.798   3.245   3.071  0.5461  0.4019  0.0070
  603TIP3    H1 1815   5.733   3.280   3.133  0.1451 -1.7545  0.8988
  603TIP3    H2 1816   5.878   3.292   3.091 -0.3373  1.9938 -0.0286
  604TIP3   OH2 1817   5.298   0.487   2.404 -0.2674 -0.5551 -0.2777
  604TIP3    H1 1818   5.352   0.534   2.468 -0.9758  0.4105 -0.3737
  604TIP3    H2 1819   5.208   0.500   2.435 -0.7649  1.1746 -2.2260
  605TIP3   OH2 1820   1.069   3.190   4.991  0.2246  0.5464  0.2032
  605TIP3    H1 1821   0.977   3.169   4.977  1.0544 -2.5263 -1.4524
  605TIP3    H2 1822   1.088   3.262   4.931 -0.8900  0.6366 -0.0446
  606TIP3   OH2 1823   3.830   5.080   0.818 -0.0910 -0.2343  0.6744
  606TIP3    H1 1824   3.747   5.056   0.857  0.7988 -3.0505  1.0649
  606TIP3    H2 1825   3.863   4.999   0.779  1.4417  1.2891 -1.5012
  607TIP3   OH2 1826   3.490   3.132   2.481  0.5842 -0.2478 -0.3946
  607TIP3    H1 1827   3.395   3.129   2.468  0.0762  1.3052  2.1343
  607TIP3    H2 1828   3.508   3.059   2.540  0.3656  1.2336  1.6162
  608TIP3   OH2 1829   3.065   1.213   2.927 -0.3437 -0.1581  0.3663
  608TIP3    H1 1830   3.077   1.118   2.929  1.7845  0.0524  0.0369
  608TIP3    H2 1831   3.076   1.240   3.017  1.8382  0.0122  0.0928
  609TIP3   OH2 1832   1.428   0.068   0.082 -0.8887 -0.1568  0.0924
  609TIP3    H1 1833   1.477   0.017   0.147  0.2683 -0.9234 -1.3478
  609TIP3    H2 1834   1.343   0.083   0.124 -0.3017 -0.9418  1.6418
  610TIP3   OH2 1835   0.751   5.519   4.936  0.1180 -0.1296 -0.2394
  610TIP3    H1 1836   0.709   5.604   4.929 -0.3780 -0.0233  2.5401
  610TIP3    H2 1837   0.710   5.479   5.013  3.2285 -1.1108  1.0819
  611TIP3   OH2 1838   5.416   1.704   4.835  0.6753 -0.9785 -0.0554
  611TIP3    H1 1839   5.370   1.639   4.780 -0.6593  0.0464 -0.2195
  611TIP3    H2 1840   5.395   1.788   4.794  1.3579 -0.3471  0.8637
  612TIP3   OH2 1841   5.010   3.778   2.147 -0.1745 -0.1125  0.0267
  612TIP3    H1 1842   5.012   3.840   2.219  0.1955  0.9724 -0.8952
  612TIP3    H2 1843   5.099   3.742   2.144 -0.4899 -1.0058  0.8024
  613TIP3   OH2 1844   0.457   2.092   2.289 -0.3270  0.1012 -0.3810
  613TIP3    H1 1845   0.549   2.101   2.311  0.3913  1.2211 -3.3838
  613TIP3    H2 1846   0.415   2.167   2.332 -0.3948 -1.5932  2.8622
  614TIP3   OH2 1847   2.069   2.683   3.185  0.2868  0.6758 -0.0859
  614TIP3    H1 1848   2.079   2.638   3.269 -0.5326  1.2808  0.3504
  614TIP3    H2 1849   2.129   2.637   3.126 -1.5592 -1.9369 -0.0590
  615TIP3   OH2 1850   0.258   1.943   0.533  0.2793 -0.2544  0.2782
  615TIP3    H1 1851   0.199   2.018   0.523 -0.2640 -0.7353 -0.2141
  615TIP3    H2 1852   0.316   1.949   0.457 -1.3520 -1.7030 -1.1771
  616TIP3   OH2 1853   2.820   5.427   3.007 -0.1879  0.4975  0.2396
  616TIP3    H1 1854   2.768   5.467   3.077 -0.2910  1.3885 -0.3344
  616TIP3    H2 1855   2.898   5.482   3.002 -0.8687  1.3792 -1.3613
  617TIP3   OH2 1856   0.429   5.418   0.915  0.2398 -0.2379 -0.2351
  617TIP3    H1 1857   0.498   5.360   0.946  0.8094  0.3212 -0.4322
  617TIP3    H2 1858   0.376   5.364   0.856  0.4284 -0.7066  0.0259
  618TIP3   OH2 1859   0.048   2.743   0.517  0.0059 -0.0147  0.7972
  618TIP3    H1 1860   0.015   2.739   0.427  0.2074  1.5549  0.6277
  618TIP3    H2 1861  -0.023   2.707   0.570  0.1393 -1.5658 -0.0340
  619TIP3   OH2 1862   0.652   4.630   1.340  0.1501 -0.4022 -0.7262
  619TIP3    H1 1863   0.724   4.686   1.310 -0.6186  1.1416  0.1625
  619TIP3    H2 1864   0.695   4.560   1.390  1.0592  0.3844 -0.3617
  620TIP3   OH2 1865   2.883   1.365   0.191  0.1840 -0.3343  0.4064
  620TIP3    H1 1866   2.971   1.345   0.224  0.8660 -1.6909 -1.9512
  620TIP3    H2 1867   2.829   1.292   0.221  0.3893 -0.6382  0.0491
  621TIP3   OH2 1868   0.178   3.517   0.943 -0.2989 -0.4237 -0.5376
  621TIP3    H1 1869   0.127   3.494   1.021  0.6442 -1.5965 -0.2265
  621TIP3    H2 1870   0.254   3.563   0.977 -0.5627  0.2782 -0.8915
  622TIP3   OH2 1871   4.084   1.946   5.168  0.6139  0.4306 -0.1604
  622TIP3    H1 1872   4.167   1.903   5.186  0.4838  0.6587  1.0278
  622TIP3    H2 1873   4.096   1.986   5.081  1.1236 -0.9987 -0.7713
  623TIP3   OH2 1874   2.323   0.893   4.865  0.1007  0.5961 -0.1633
  623TIP3    H1 1875   2.402   0.947   4.865 -0.2414  1.0985  0.0647
  623TIP3    H2 1876   2.278   0.916   4.784  0.5323 -0.2042 -0.6393
  624TIP3   OH2 1877   2.774   0.900   3.262  0.1478 -0.3027 -0.3461
  624TIP3    H1 1878   2.678   0.908   3.262  0.3162  4.1901  0.5958
  624TIP3    H2 1879   2.793   0.841   3.334 -1.8981  0.6669  1.0843
  625TIP3   OH2 1880   1.027   2.103   3.366 -0.4828 -0.0492 -0.2132
  625TIP3    H1 1881   1.000   2.104   3.458 -0.0697 -3.0923  0.0360
  625TIP3    H2 1882   0.949   2.131   3.318 -1.4238 -0.5952  0.9414
  626TIP3   OH2 1883   0.616   3.778   2.210 -0.5975  0.6113  0.2184
  626TIP3    H1 1884   0.678   3.784   2.137  2.0488  0.0623  2.3142
  626TIP3    H2 1885   0.590   3.686   2.212 -0.7085  0.6360 -0.0403
  627TIP3   OH2 1886   1.213   2.773   1.071 -0.2382  0.2566  0.2342
  627TIP3    H1 1887   1.169   2.850   1.109 -0.1210  0.6344 -0.3846
  627TIP3    H2 1888   1.235   2.800   0.982 -2.1170 -1.2355 -0.7457
  628TIP3   OH2 1889   1.542   2.405   0.641  0.8705  0.0180 -0.3813
  628TIP3    H1 1890   1.633   2.381   0.659  1.2455 -1.1705 -3.2994
  628TIP3    H2 1891   1.546   2.454   0.559 -0.7443  3.9528  1.6252
  629TIP3   OH2 1892   2.353   0.255   3.364 -0.2405 -0.0488  0.5682
  629TIP3    H1 1893   2.319   0.174   3.401 -0.6202 -0.0057  0.3166
  629TIP3    H2 1894   2.433   0.273   3.415 -1.2714  0.5510  2.0638
  630TIP3   OH2 1895   1.854   2.076   4.757 -0.1935 -0.3064  0.2746
  630TIP3    H1 1896   1.862   2.040   4.845  0.7529 -1.8383 -0.3871
  630TIP3    H2 1897   1.766   2.051   4.729 -0.4930  0.1771  0.7803
  631TIP3   OH2 1898   5.442   1.958   3.690 -0.3061 -0.3401  0.8531
  631TIP3    H1 1899   5.489   1.897   3.634 -1.8538 -0.7226 -0.0986
  631TIP3    H2 1900   5.483   2.043   3.674 -0.4801 -0.5071 -0.6238
  632TIP3   OH2 1901   1.614   2.399   3.960 -0.2368 -0.3593  0.6093
  632TIP3    H1 1902   1.666   2.376   4.038 -0.1583 -0.6621  0.4660
  632TIP3    H2 1903   1.545   2.457   3.994  0.5277  0.5186  0.7238
  633TIP3   OH2 1904   3.955   3.925   4.987  0.2865  0.1668 -0.0472
  633TIP3    H1 1905   3.883   3.981   5.016  0.5899  1.0733 -1.0053
  633TIP3    H2 1906   3.950   3.848   5.045 -1.1028  0.4615  0.2593
  634TIP3   OH2 1907   5.847   3.965   3.028  0.4845 -0.4510 -0.6487
  634TIP3    H1 1908   5.808   4.050   3.049  0.3224 -0.4072 -1.1162
  634TIP3    H2 1909   5.931   3.987   2.987  0.2334 -0.5006 -1.1977
  635TIP3   OH2 1910   0.896   1.651   1.713  0.4239 -0.8094 -0.7622
  635TIP3    H1 1911   0.858   1.575   1.756 -1.6368  0.2264 -0.6208
  635TIP3    H2 1912   0.842   1.663   1.635  1.1137  0.1390 -1.1118
  636TIP3   OH2 1913   0.241   3.088   2.297 -0.2470  0.4531 -0.2285
  636TIP3    H1 1914   0.193   3.006   2.284 -0.2131  0.4156 -0.1166
  636TIP3    H2 1915   0.172   3.155   2.304 -0.2625  0.4932 -0.7258
  637TIP3   OH2 1916   2.741   0.463   1.466  0.2328  0.2074 -0.4587
  637TIP3    H1 1917   2.779   0.456   1.553 -0.1999 -2.0706 -0.3930
  637TIP3    H2 1918   2.706   0.552   1.462  0.3984  0.4116  1.6186
  638TIP3   OH2 1919   4.405   1.403   0.601 -0.6939  0.5623 -0.9086
  638TIP3    H1 1920   4.316   1.366   0.607 -1.8275  2.9007 -2.0539
  638TIP3    H2 1921   4.411   1.464   0.674  0.9041 -1.2153  0.5498
  639TIP3   OH2 1922   4.809   1.211   4.674 -0.1004 -0.3061  0.7261
  639TIP3    H1 1923   4.891   1.166   4.692 -0.1806 -0.0659  1.7647
  639TIP3    H2 1924   4.788   1.189   4.583  0.8001 -0.8514  0.6453
  640TIP3   OH2 1925   5.907   4.431   4.160 -0.4171 -0.2522 -0.0429
  640TIP3    H1 1926   5.814   4.422   4.137 -0.3595 -0.3563 -0.2340
  640TIP3    H2 1927   5.907   4.491   4.234 -0.7422 -1.3233  0.8434
  641TIP3   OH2 1928   2.438   2.774   1.110 -0.1306  0.2707 -0.0014
  641TIP3    H1 1929   2.478   2.761   1.024 -1.2602 -0.8768 -0.3904
  641TIP3    H2 1930   2.380   2.850   1.098  0.5608  0.8249  0.0819
  642TIP3   OH2 1931   3.742   2.005   3.829  0.5658  0.2403  0.2674
  642TIP3    H1 1932   3.794   1.992   3.908 -1.5820 -2.2868  1.4158
  642TIP3    H2 1933   3.706   1.918   3.808  0.7290  0.8713 -3.3113
  643TIP3   OH2 1934   0.668   1.832   4.021  0.6187 -0.1458  0.1790
  643TIP3    H1 1935   0.714   1.758   4.060  0.0584 -1.1619 -1.0121
  643TIP3    H2 1936   0.606   1.860   4.088 -0.9873 -2.4432 -0.2214
  644TIP3   OH2 1937   3.489   4.798   0.240  0.0107 -0.5286  0.3594
  644TIP3    H1 1938   3.556   4.730   0.233  1.5213  0.8221  0.9659
  644TIP3    H2 1939   3.462   4.796   0.332  0.2430 -0.1564  0.4381
  645TIP3   OH2 1940   3.280   2.436   3.271 -0.2945  0.4029  0.2964
  645TIP3    H1 1941   3.342   2.491   3.318 -0.2751  1.6388 -1.0858
  645TIP3    H2 1942   3.308   2.347   3.290  0.3515  0.8723  1.7145
  646TIP3   OH2 1943   0.374   3.876   4.632  0.0947 -0.2865 -0.1569
  646TIP3    H1 1944   0.298   3.929   4.609  0.7102  0.4573 -0.5480
  646TIP3    H2 1945   0.373   3.871   4.728 -0.2043  0.0806 -0.1428
  647TIP3   OH2 1946   4.215   5.211   3.152 -0.7310 -0.1286  0.0897
  647TIP3    H1 1947   4.158   5.136   3.139  1.2281 -1.4981 -1.2759
  647TIP3    H2 1948   4.251   5.229   3.065  1.4811  0.1472  0.9987
  648TIP3   OH2 1949   0.619   4.932   0.093  0.4837  0.2211 -0.0879
  648TIP3    H1 1950   0.708   4.965   0.082  0.8843 -1.0558 -0.8265
  648TIP3    H2 1951   0.627   4.863   0.158  0.2067 -0.4964 -0.7937
  649TIP3   OH2 1952   3.034   3.529   0.340  0.4525  0.7454  0.6927
  649TIP3    H1 1953   3.006   3.618   0.362  0.4128  1.4864 -2.0362
  649TIP3    H2 1954   2.963   3.493   0.287  0.3652 -1.0496  1.9135
  650TIP3   OH2 1955  -0.010   5.180   0.865  0.0501 -0.1390 -0.5932
  650TIP3    H1 1956   0.050   5.160   0.938 -3.0154  0.5181  2.3509
  650TIP3    H2 1957  -0.002   5.275   0.853 -0.7714  0.0532  0.2462
  651TIP3   OH2 1958   3.493   2.585   1.696 -0.0888  0.1477  0.5134
  651TIP3    H1 1959   3.556   2.601   1.626 -0.4770  1.0591  0.3596
  651TIP3    H2 1960   3.505   2.493   1.718  2.4365  0.6386  1.5990
  652TIP3   OH2 1961   4.792   5.392   2.168 -0.2536  0.0006 -0.0423
  652TIP3    H1 1962   4.722   5.386   2.104  0.0490  0.5147 -0.4343
  652TIP3    H2 1963   4.872   5.379   2.117 -0.1057 -2.6629  0.6963
  653TIP3   OH2 1964   3.884   5.047   4.917  0.1734 -0.2300  0.2802
  653TIP3    H1 1965   3.942   4.971   4.927 -1.1059 -1.4414 -1.1210
  653TIP3    H2 1966   3.829   5.046   4.995  0.8991 -0.0486  0.8099
  654TIP3   OH2 1967   1.438   5.303   2.677 -0.1607  0.3805  0.0987
  654TIP3    H1 1968   1.470   5.295   2.588 -0.7735  1.9847 -0.2969
  654TIP3    H2 1969   1.403   5.217   2.698 -0.5516  0.1469 -1.4240
  655TIP3   OH2 1970   1.688   4.256   3.047 -0.1910  0.3192  0.0747
  655TIP3    H1 1971   1.735   4.190   3.098 -0.7815  1.0101  1.5908
  655TIP3    H2 1972   1.743   4.271   2.970  0.4668 -1.1564  0.2285
  656TIP3   OH2 1973   3.013   2.165   3.817 -0.2875 -0.4592  0.5556
  656TIP3    H1 1974   2.924   2.143   3.789 -0.0216 -1.9673  0.7838
  656TIP3    H2 1975   3.042   2.233   3.756 -1.1455 -0.8628 -0.3273
  657TIP3   OH2 1976   1.896   2.225   3.759 -0.2873 -0.3712 -0.1905
  657TIP3    H1 1977   1.836   2.288   3.799  0.1762 -0.2163  0.2680
  657TIP3    H2 1978   1.926   2.170   3.831  1.4401  0.6325 -0.0982
  658TIP3   OH2 1979   6.277   5.851   4.871 -0.8438  0.0462 -0.8612
  658TIP3    H1 1980   6.270   5.894   4.786  1.2647  0.7842 -0.7200
  658TIP3    H2 1981   6.362   5.806   4.868 -1.7619 -1.8564  0.0299
  659TIP3   OH2 1982   4.099   1.284   0.423  0.2973 -0.0157  0.2085
  659TIP3    H1 1983   4.175   1.231   0.399  0.6452  1.0304 -1.1432
  659TIP3    H2 1984   4.111   1.305   0.515 -0.0473 -2.5652  0.9012
  660TIP3   OH2 1985   5.628   2.570   1.263  0.2472 -0.1844  0.2934
  660TIP3    H1 1986   5.706   2.521   1.289  0.6757  0.0886 -0.4366
  660TIP3    H2 1987   5.617   2.549   1.170  0.3146  0.9282  0.0233
  661TIP3   OH2 1988   0.957   5.461   3.014  0.4327 -0.0916 -0.9455
  661TIP3    H1 1989   1.051   5.446   3.026  0.2288 -0.8442 -0.1264
  661TIP3    H2 1990   0.951   5.550   2.979  1.3168  1.1834  1.8435
  662TIP3   OH2 1991   2.338   5.011   0.324  0.3690 -0.0402  0.1313
  662TIP3    H1 1992   2.381   5.033   0.407 -0.4643 -0.4138  0.6805
  662TIP3    H2 1993   2.331   5.095   0.278  0.0008  0.3409  0.8579
  663TIP3   OH2 1994   3.324   5.282   0.614  0.3556 -0.3827  0.3210
  663TIP3    H1 1995   3.385   5.317   0.679 -0.4444  0.2232  0.7702
  663TIP3    H2 1996   3.288   5.360   0.571  1.4708 -0.7795 -1.4429
  664TIP3   OH2 1997   0.301   4.815   3.301  0.1186  0.0707 -0.7483
  664TIP3    H1 1998   0.353   4.743   3.336 -0.5833  0.1325  0.4550
  664TIP3    H2 1999   0.220   4.773   3.270  0.7613 -0.0014 -2.4593
  665TIP3   OH2 2000   4.266   2.697   1.476  0.4912 -0.2302 -0.2457
  665TIP3    H1 2001   4.276   2.681   1.382  0.7606 -0.1012 -0.2385
  665TIP3    H2 2002   4.353   2.720   1.506  0.5252 -0.9045  0.1665
  666TIP3   OH2 2003   3.857   3.123   2.593  0.2927  0.0837  0.2400
  666TIP3    H1 2004   3.943   3.125   2.634  0.8564 -2.3151 -0.6622
  666TIP3    H2 2005   3.806   3.189   2.640  2.3777  1.0176  1.3056
  667TIP3   OH2 2006   6.181   4.975   2.071 -0.3077  0.1126  0.3443
  667TIP3    H1 2007   6.094   4.974   2.112 -0.5302  0.3480 -0.1182
  667TIP3    H2 2008   6.170   4.925   1.990 -0.4690  1.6262 -0.6128
  668TIP3   OH2 2009   5.012   5.111   2.192  0.2742  0.9121 -0.0790
  668TIP3    H1 2010   5.010   5.117   2.096  2.2271 -0.5016 -0.2791
  668TIP3    H2 2011   5.084   5.169   2.218  2.9732 -2.2229  0.0225
  669TIP3   OH2 2012   0.947   1.316   0.945  0.4726  0.2987 -0.3267
  669TIP3    H1 2013   0.912   1.372   1.015 -0.0946 -0.3122 -0.1140
  669TIP3    H2 2014   1.021   1.366   0.910  0.0957  1.0984 -0.0150
  670TIP3   OH2 2015   0.889   5.228   4.214  0.0191 -0.3211  0.6253
  670TIP3    H1 2016   0.883   5.255   4.123 -0.0837  1.3366  1.0958
  670TIP3    H2 2017   0.804   5.253   4.252  0.5089  0.1368  1.4416
  671TIP3   OH2 2018   3.766   0.539   3.683 -0.3264  0.3577 -0.0606
  671TIP3    H1 2019   3.705   0.582   3.624 -1.1560 -1.7805 -0.8183
  671TIP3    H2 2020   3.848   0.534   3.634 -0.4435  0.3420 -0.2515
  672TIP3   OH2 2021   5.553   3.124   4.651  0.4633  0.5735  0.3121
  672TIP3    H1 2022   5.562   3.188   4.581  0.0349 -0.1583 -0.4253
  672TIP3    H2 2023   5.634   3.074   4.649 -0.0049 -0.1969 -0.4471
  673TIP3   OH2 2024   3.287   1.187   2.531 -0.0342 -0.2294  0.2420
  673TIP3    H1 2025   3.212   1.150   2.578 -0.2464  0.7573  0.7044
  673TIP3    H2 2026   3.333   1.111   2.496 -1.8532 -0.8304 -1.0055
  674TIP3   OH2 2027   5.165   1.188   1.169 -0.2620  0.4210 -0.1505
  674TIP3    H1 2028   5.120   1.105   1.157  0.0117  0.2537 -0.0272
  674TIP3    H2 2029   5.197   1.185   1.259 -0.1765  0.6229 -0.1741
  675TIP3   OH2 2030   3.200   0.867   2.391 -0.1699 -0.5068  0.1574
  675TIP3    H1 2031   3.274   0.927   2.396 -0.2839 -0.2950 -0.6375
  675TIP3    H2 2032   3.170   0.873   2.300 -1.7607  0.1277  0.6898
  676TIP3   OH2 2033   1.258   1.266   1.037 -0.4281  0.1110  0.3770
  676TIP3    H1 2034   1.249   1.271   0.942  0.0755 -2.3151  0.1230
  676TIP3    H2 2035   1.216   1.183   1.061  0.1666  0.2801  2.1629
  677TIP3   OH2 2036   3.643   3.769   2.886 -0.6028 -0.1737 -0.2954
  677TIP3    H1 2037   3.577   3.824   2.929  0.6847  0.2861  1.2010
  677TIP3    H2 2038   3.674   3.821   2.812 -0.7923  0.2790 -0.0584
  678TIP3   OH2 2039   5.969   3.214   4.471 -0.5959  0.3473 -0.4497
  678TIP3    H1 2040   5.943   3.250   4.556  0.0573 -0.8905  0.3128
  678TIP3    H2 2041   6.035   3.276   4.438 -0.6741  0.7094  0.0645
  679TIP3   OH2 2042   6.106   3.455   2.622 -0.5953 -0.0464 -1.1283
  679TIP3    H1 2043   6.041   3.455   2.692 -2.2041  0.8423 -2.5769
  679TIP3    H2 2044   6.189   3.473   2.667 -1.4245 -0.5300  0.6679
  680TIP3   OH2 2045   2.741   4.242   0.486 -0.2191  0.0942 -0.4721
  680TIP3    H1 2046   2.812   4.263   0.424  0.8064  0.0419  0.6466
  680TIP3    H2 2047   2.765   4.157   0.522 -1.1649 -0.1879 -0.4995
  681TIP3   OH2 2048   3.506   3.535   0.829  0.1135  0.3030 -0.3361
  681TIP3    H1 2049   3.482   3.588   0.904  0.3163 -0.3344  0.1874
  681TIP3    H2 2050   3.522   3.599   0.759  2.1586  1.0955  0.7666
  682TIP3   OH2 2051   5.043   5.798   3.236  0.1853  0.0902  0.1351
  682TIP3    H1 2052   5.138   5.788   3.226  0.0677 -1.3255  0.2536
  682TIP3    H2 2053   5.033   5.866   3.302  1.1430 -0.5374  0.9591
  683TIP3   OH2 2054   5.915   0.253   4.215  0.1815  0.4268  0.7161
  683TIP3    H1 2055   5.840   0.237   4.272 -1.3751  0.3790 -1.2239
  683TIP3    H2 2056   5.881   0.308   4.145  2.0023  0.5028 -0.1736
  684TIP3   OH2 2057   5.119   2.883   1.485  0.5329 -0.3595 -0.3115
  684TIP3    H1 2058   5.139   2.861   1.394  1.1076  0.8775 -0.5083
  684TIP3    H2 2059   5.036   2.837   1.504  0.0450 -0.0722 -1.6736
  685TIP3   OH2 2060   0.442   0.495   3.535  0.1161 -0.0642  0.1443
  685TIP3    H1 2061   0.535   0.514   3.528 -0.2002  1.7810  0.2600
  685TIP3    H2 2062   0.399   0.568   3.489 -1.2335 -2.0335 -1.8932
  686TIP3   OH2 2063   1.669   4.658   0.333 -0.3507 -0.6775 -0.1742
  686TIP3    H1 2064   1.719   4.631   0.410  0.3221 -1.4251 -0.8590
  686TIP3    H2 2065   1.695   4.597   0.264  0.3954  1.0507 -1.4997
  687TIP3   OH2 2066   4.947   0.725   1.407  0.4094  0.2648 -0.2299
  687TIP3    H1 2067   5.008   0.793   1.435  0.4242 -0.6724  2.2292
  687TIP3    H2 2068   4.883   0.719   1.478 -0.0492 -1.7424 -0.7426
  688TIP3   OH2 2069   5.134   5.099   4.435  0.5466 -0.3514  0.7657
  688TIP3    H1 2070   5.162   5.163   4.501  0.2291 -1.2353  1.7664
  688TIP3    H2 2071   5.216   5.074   4.391  0.4521  2.4277 -1.2600
  689TIP3   OH2 2072   5.872   4.363   1.354 -0.6386 -0.2761  0.2568
  689TIP3    H1 2073   5.878   4.334   1.263 -0.4305 -2.4376  0.8998
  689TIP3    H2 2074   5.806   4.433   1.353  0.3261  0.6955 -1.7286
  690TIP3   OH2 2075   0.735   4.548   4.572  0.1043 -0.4873  0.0541
  690TIP3    H1 2076   0.796   4.485   4.534 -0.1786 -1.3533  0.9963
  690TIP3    H2 2077   0.789   4.626   4.588  0.9148 -1.1420  0.6274
  691TIP3   OH2 2078   2.254   5.303   1.863 -0.5244  0.3671 -0.3847
  691TIP3    H1 2079   2.231   5.297   1.770  0.9615 -0.1672 -0.7409
  691TIP3    H2 2080   2.247   5.214   1.896  1.1862  0.1403 -0.5658
  692TIP3   OH2 2081   4.819   5.468   3.012  0.1343  0.3988 -0.6599
  692TIP3    H1 2082   4.889   5.417   2.971  0.8203  0.2455  0.6648
  692TIP3    H2 2083   4.770   5.505   2.938  1.8573  0.8664 -1.6185
  693TIP3   OH2 2084   2.218   0.458   0.331 -0.3107  0.0044  0.0383
  693TIP3    H1 2085   2.306   0.437   0.299  0.0588 -0.0682  1.0652
  693TIP3    H2 2086   2.187   0.376   0.370 -1.1661 -0.1974 -1.0181
  694TIP3   OH2 2087   3.451   1.748   0.863 -0.0198 -0.4188  0.5085
  694TIP3    H1 2088   3.384   1.811   0.890  0.3892  0.3564 -0.2443
  694TIP3    H2 2089   3.435   1.671   0.917 -0.6868  0.2423  1.2709
  695TIP3   OH2 2090   6.332   5.092   3.916  0.3893 -0.3980 -0.1220
  695TIP3    H1 2091   6.287   5.137   3.844  1.3696  0.3039 -0.3102
  695TIP3    H2 2092   6.412   5.057   3.875  0.3513 -1.0639  0.3558
  696TIP3   OH2 2093   2.333   1.576   2.056  0.1540  0.0649  0.0382
  696TIP3    H1 2094   2.277   1.550   1.983 -2.0566 -0.9753  1.9627
  696TIP3    H2 2095   2.334   1.672   2.053 -1.1704  0.0878 -0.4872
  697TIP3   OH2 2096   5.758   5.736   0.819 -0.0692  0.0859  0.3863
  697TIP3    H1 2097   5.669   5.720   0.851  0.2840  0.0431  1.4084
  697TIP3    H2 2098   5.813   5.733   0.898  0.8335  0.1707 -0.2145
  698TIP3   OH2 2099   5.928   5.409   5.020 -0.1197 -0.0124  0.1668
  698TIP3    H1 2100   5.933   5.373   4.931 -0.7857  2.3755 -0.9172
  698TIP3    H2 2101   5.835   5.405   5.042  0.0861 -0.9455  0.9676
  699TIP3   OH2 2102   2.639   5.837   3.920  0.0872 -0.0446 -0.5673
  699TIP3    H1 2103   2.623   5.873   4.008  1.4736  0.2530 -0.4199
  699TIP3    H2 2104   2.606   5.747   3.926  2.8419 -1.0613  1.2528
  700TIP3   OH2 2105   2.108   2.569   2.223 -0.1815  0.6673  0.2185
  700TIP3    H1 2106   2.140   2.611   2.302 -1.5290 -2.0042  2.3962
  700TIP3    H2 2107   2.015   2.589   2.221 -0.4232 -0.3709  0.1207
  701TIP3   OH2 2108   2.080   4.632   1.238  0.2643  0.2681  0.1342
  701TIP3    H1 2109   2.155   4.603   1.291  1.6182  0.7062 -1.4444
  701TIP3    H2 2110   2.024   4.680   1.299  1.2666 -0.0694  1.3620
  702TIP3   OH2 2111   2.882   1.602   1.103  0.2144  0.4909  0.5575
  702TIP3    H1 2112   2.906   1.690   1.075  0.2487  1.0305  2.2077
  702TIP3    H2 2113   2.964   1.552   1.097  0.8801  1.2960  2.2436
  703TIP3   OH2 2114   5.772   1.140   4.297  0.1604 -0.0203 -0.0255
  703TIP3    H1 2115   5.830   1.182   4.233  0.8185  2.2789  1.9321
  703TIP3    H2 2116   5.813   1.056   4.315  0.1011 -0.6219 -2.3348
  704TIP3   OH2 2117   4.429   1.929   0.175 -0.4720 -0.4613  0.2884
  704TIP3    H1 2118   4.343   1.903   0.142 -0.4465 -0.8534  0.5287
  704TIP3    H2 2119   4.411   1.965   0.262 -0.4722  0.0785  0.0714
  705TIP3   OH2 2120   1.247   2.563   4.711 -0.0357  0.0052  0.3351
  705TIP3    H1 2121   1.161   2.535   4.679  0.0908  0.8940 -0.8658
  705TIP3    H2 2122   1.245   2.658   4.705  2.0425  0.0122 -2.6568
  706TIP3   OH2 2123   0.604   1.694   2.740  0.4776  0.1191  0.4474
  706TIP3    H1 2124   0.627   1.604   2.719 -0.0893 -0.3574  1.7350
  706TIP3    H2 2125   0.620   1.743   2.659  0.3105 -1.2230 -0.4260
  707TIP3   OH2 2126   3.208   2.750   2.416  0.7622  0.3698 -0.7615
  707TIP3    H1 2127   3.188   2.688   2.487 -1.4066  2.6186  0.7926
  707TIP3    H2 2128   3.255   2.822   2.460 -1.9160  2.5197 -1.0900
  708TIP3   OH2 2129   1.401   1.569   0.781 -0.2509 -0.3459 -0.0432
  708TIP3    H1 2130   1.428   1.494   0.834 -1.8208  0.0877  1.4878
  708TIP3    H2 2131   1.427   1.645   0.833 -0.7892  0.1111 -0.4321
  709TIP3   OH2 2132   1.114   0.067   5.075 -0.3279  0.2425 -0.3391
  709TIP3    H1 2133   1.183   0.110   5.124 -1.1404  0.2152  0.8694
  709TIP3    H2 2134   1.132   0.089   4.983  0.6375  1.1362  0.0514
  710TIP3   OH2 2135   0.095   4.876   2.932  0.9743 -0.4501 -0.4841
  710TIP3    H1 2136   0.184   4.867   2.898  1.7217  0.1122  1.1986
  710TIP3    H2 2137   0.107   4.883   3.027 -0.9032 -0.7685 -0.1954
  711TIP3   OH2 2138   5.915   3.035   1.411 -0.6565  0.0469 -0.1111
  711TIP3    H1 2139   5.822   3.028   1.432 -0.0504 -0.3086  2.9573
  711TIP3    H2 2140   5.933   2.960   1.354 -2.1093 -0.1659 -0.3378
  712TIP3   OH2 2141   3.650   4.465   4.224  0.4607  0.9434  0.4047
  712TIP3    H1 2142   3.666   4.451   4.317  1.6439 -0.7000  0.0166
  712TIP3    H2 2143   3.642   4.560   4.214 -1.2405  1.0725  2.3750
  713TIP3   OH2 2144   5.332   4.721   3.802 -0.9726 -0.0655  0.2532
  713TIP3    H1 2145   5.252   4.743   3.755 -1.9432 -0.5977  1.5720
  713TIP3    H2 2146   5.392   4.792   3.781 -2.5261  1.5501  0.9444
  714TIP3   OH2 2147   5.407   0.151   3.158 -0.4308  0.0391 -0.5660
  714TIP3    H1 2148   5.401   0.135   3.064  0.1386  2.5759 -1.0972
  714TIP3    H2 2149   5.501   0.163   3.174 -0.7623  3.0560 -0.3874
  715TIP3   OH2 2150   0.465   5.440   0.300 -0.3361 -0.4625 -0.1465
  715TIP3    H1 2151   0.487   5.466   0.390  0.1139 -0.2306 -0.3197
  715TIP3    H2 2152   0.392   5.380   0.310  0.7370 -1.7127  0.5114
  716TIP3   OH2 2153   5.095   4.513   5.175  0.0637 -0.5671  0.2907
  716TIP3    H1 2154   5.025   4.493   5.238  0.6406 -1.7444  0.5743
  716TIP3    H2 2155   5.109   4.432   5.128  1.1736 -0.3111  0.1607
  717TIP3   OH2 2156   3.522   2.871   2.604  0.1110  0.4142  0.3998
  717TIP3    H1 2157   3.608   2.857   2.644  0.2069  1.6649  0.6978
  717TIP3    H2 2158   3.531   2.838   2.515  0.8584  0.3968  0.4763
  718TIP3   OH2 2159   2.106   1.529   1.573  0.5499  0.2166  0.1786
  718TIP3    H1 2160   2.107   1.460   1.507 -1.8439 -0.7551  1.0434
  718TIP3    H2 2161   2.064   1.603   1.530 -0.6140 -0.2723  0.4345
  719TIP3   OH2 2162   5.321   1.317   4.677 -0.4455 -0.1161 -0.1821
  719TIP3    H1 2163   5.406   1.293   4.715  0.8544  1.9774 -1.5756
  719TIP3    H2 2164   5.260   1.310   4.750  1.3472  0.6001  1.4886
  720TIP3   OH2 2165   3.158   5.253   1.675  0.5038 -0.3682  0.7079
  720TIP3    H1 2166   3.203   5.324   1.721  0.2016  0.4588 -0.2330
  720TIP3    H2 2167   3.159   5.180   1.737 -0.3160  0.8489  2.2218
  721TIP3   OH2 2168   5.898   0.898   3.842  0.4100  0.2820  0.0696
  721TIP3    H1 2169   5.906   0.833   3.772 -0.4811  0.2619 -0.0211
  721TIP3    H2 2170   5.822   0.950   3.819 -1.0329 -0.8620  1.9270
  722TIP3   OH2 2171   1.193   4.607   3.650 -0.4277 -0.3230 -0.2548
  722TIP3    H1 2172   1.160   4.694   3.626 -0.5820 -0.0000  1.0050
  722TIP3    H2 2173   1.114   4.554   3.661 -0.3983 -0.2792  0.1787
  723TIP3   OH2 2174   2.883   2.829   0.355  0.0626  0.1112 -0.0640
  723TIP3    H1 2175   2.887   2.776   0.276 -0.3694  0.3688 -0.2610
  723TIP3    H2 2176   2.898   2.919   0.325 -0.5546  0.2648  0.0845
  724TIP3   OH2 2177   1.655   0.818   3.902  0.6472  0.1745 -0.7094
  724TIP3    H1 2178   1.582   0.779   3.950  0.1480  0.3034 -1.3487
  724TIP3    H2 2179   1.702   0.870   3.968  0.0453  0.2559 -0.3341
  725TIP3   OH2 2180   2.735   5.003   1.551 -0.5515  0.0406 -0.3562
  725TIP3    H1 2181   2.744   5.075   1.613 -1.6648  0.2212 -0.3836
  725TIP3    H2 2182   2.825   4.975   1.532 -0.1836  0.3423  0.9019
  726TIP3   OH2 2183   5.618   5.090   3.130  0.5210  0.7339 -0.3495
  726TIP3    H1 2184   5.682   5.114   3.063 -0.5980  1.8357 -1.0575
  726TIP3    H2 2185   5.536   5.078   3.082 -0.2185  1.1966  0.7511
  727TIP3   OH2 2186   2.926   2.852   4.892 -0.2835  0.1797  0.0412
  727TIP3    H1 2187   2.919   2.794   4.968  2.8353  1.0530  1.1186
  727TIP3    H2 2188   3.003   2.820   4.844  0.1858  2.0753 -0.5391
  728TIP3   OH2 2189   3.267   4.537   3.092 -0.7513  0.4187  0.0350
  728TIP3    H1 2190   3.300   4.613   3.045 -0.1554  0.1902  0.0667
  728TIP3    H2 2191   3.173   4.535   3.074 -0.6761  0.8489 -0.4049
  729TIP3   OH2 2192   4.313   1.789   1.687  0.2937 -0.0350  0.2665
  729TIP3    H1 2193   4.404   1.788   1.657  0.1541  1.5940 -0.3110
  729TIP3    H2 2194   4.266   1.838   1.619 -1.1017 -1.1501  0.3661
  730TIP3   OH2 2195   5.609   0.245   1.469 -0.1067 -0.5920  0.1052
  730TIP3    H1 2196   5.531   0.292   1.499  0.5329 -0.1770  1.1645
  730TIP3    H2 2197   5.606   0.253   1.373 -1.3925 -0.6505  0.1277
  731TIP3   OH2 2198   2.590   2.788   3.921 -0.5055 -0.7227  0.1471
  731TIP3    H1 2199   2.527   2.792   3.848  0.4196 -0.7447 -0.6679
  731TIP3    H2 2200   2.561   2.713   3.973 -0.7436 -1.1729 -0.6137
  732TIP3   OH2 2201   2.956   2.972   1.433  0.4060  0.1203  0.0549
  732TIP3    H1 2202   3.045   2.982   1.469  0.7553 -4.0242  0.8696
  732TIP3    H2 2203   2.911   2.917   1.497 -2.2123  0.6719 -1.2132
  733TIP3   OH2 2204   0.422   3.644   0.957 -0.1605  0.8368  0.0650
  733TIP3    H1 2205   0.515   3.665   0.966  0.5619 -1.5698 -0.8056
  733TIP3    H2 2206   0.400   3.673   0.869 -0.3234  1.6604  0.3719
  734TIP3   OH2 2207   4.411   3.608   3.566  0.1801  0.2134 -0.6267
  734TIP3    H1 2208   4.405   3.600   3.661 -1.6213  0.8388 -0.6536
  734TIP3    H2 2209   4.359   3.535   3.532  2.2744 -1.0951 -1.2131
  735TIP3   OH2 2210   5.379   2.134   4.372  0.4693 -0.1663 -0.0021
  735TIP3    H1 2211   5.308   2.196   4.355 -0.0354 -0.5987  0.5048
  735TIP3    H2 2212   5.451   2.165   4.318  0.1848  0.7962  0.1607
  736TIP3   OH2 2213   4.185   2.094   4.922 -0.2212 -0.1492  0.2205
  736TIP3    H1 2214   4.257   2.092   4.859 -1.2551 -0.6352 -0.9959
  736TIP3    H2 2215   4.194   2.178   4.966 -0.4967  1.0245 -1.8518
  737TIP3   OH2 2216   3.061   1.987   3.173 -0.0347  0.0254  0.4115
  737TIP3    H1 2217   2.967   2.005   3.169 -0.1209 -0.6945 -2.2506
  737TIP3    H2 2218   3.069   1.896   3.145  1.2990 -0.8980  3.3478
  738TIP3   OH2 2219   3.975   4.694   2.650  0.4756 -1.0433 -0.1327
  738TIP3    H1 2220   3.949   4.662   2.563  0.0943  1.0118 -0.8416
  738TIP3    H2 2221   3.898   4.677   2.705  0.0399 -0.7789 -0.6438
  739TIP3   OH2 2222   3.566   2.737   3.570 -0.4859 -0.4035 -0.0943
  739TIP3    H1 2223   3.589   2.754   3.478 -0.8454  1.0421  0.0609
  739TIP3    H2 2224   3.562   2.824   3.610  3.3771 -1.0580  2.2424
  740TIP3   OH2 2225   0.100   4.774   0.047  0.7809 -0.7219  0.2075
  740TIP3    H1 2226   0.182   4.799   0.090  0.5471 -2.9203  2.1697
  740TIP3    H2 2227   0.128   4.720  -0.027  1.1516 -1.7034  1.0370
  741TIP3   OH2 2228   4.526   3.769   4.611  0.2450 -0.1035  0.1331
  741TIP3    H1 2229   4.600   3.794   4.667  0.9582  1.0212 -1.2176
  741TIP3    H2 2230   4.485   3.696   4.656  1.8584 -0.4028  1.2201
  742TIP3   OH2 2231   2.893   1.898   1.977 -0.2673 -0.1605  0.2689
  742TIP3    H1 2232   2.969   1.930   2.025  0.2356  0.9100 -1.1924
  742TIP3    H2 2233   2.859   1.974   1.931 -1.3134 -0.9511 -0.3306
  743TIP3   OH2 2234   3.841   5.291   3.142 -0.0224 -0.2364 -0.2281
  743TIP3    H1 2235   3.808   5.245   3.220  0.1897 -0.6015 -0.3517
  743TIP3    H2 2236   3.906   5.352   3.176  0.5259 -0.8398 -0.1840
  744TIP3   OH2 2237   2.036   1.143   3.082  0.5746  0.2512  0.0862
  744TIP3    H1 2238   2.095   1.195   3.027  0.2151  0.1378 -0.4148
  744TIP3    H2 2239   1.951   1.149   3.038  0.1903  0.4838  0.8472
  745TIP3   OH2 2240   1.456   0.481   0.082 -0.4205 -0.3103 -0.8141
  745TIP3    H1 2241   1.462   0.576   0.096 -1.0571  0.0075 -2.4808
  745TIP3    H2 2242   1.472   0.443   0.168 -0.9317  1.3468  0.0499
  746TIP3   OH2 2243   1.762   4.040   2.800  0.2287  0.1333  0.3404
  746TIP3    H1 2244   1.840   3.989   2.824  0.1433 -0.3263 -0.3222
  746TIP3    H2 2245   1.796   4.127   2.778  0.9615 -0.7793 -2.5657
  747TIP3   OH2 2246   5.052   0.567   2.502 -0.6347 -0.7842  0.3832
  747TIP3    H1 2247   5.037   0.542   2.593  0.0116 -1.8190  0.2168
  747TIP3    H2 2248   4.965   0.591   2.469 -0.7848  0.1526  1.4165
  748TIP3   OH2 2249   1.307   1.833   2.669 -0.4189  0.4673  0.0004
  748TIP3    H1 2250   1.301   1.829   2.765  1.5691 -0.8032  0.1175
  748TIP3    H2 2251   1.399   1.853   2.651 -0.1219 -1.8761 -1.6273
  749TIP3   OH2 2252   3.796   5.601   3.557  0.1393 -0.0161  0.3816
  749TIP3    H1 2253   3.735   5.588   3.630 -0.6868  0.4497 -0.2000
  749TIP3    H2 2254   3.811   5.512   3.523 -1.1002 -0.0575 -0.1350
  750TIP3   OH2 2255   3.280   0.927   4.610  0.4094  0.2167  0.1361
  750TIP3    H1 2256   3.292   0.948   4.703 -0.2907  0.1826  0.2362
  750TIP3    H2 2257   3.186   0.937   4.595  0.4671 -0.1415 -0.4825
  751TIP3   OH2 2258   4.826   1.806   2.354  0.0796  0.6602 -0.1248
  751TIP3    H1 2259   4.807   1.897   2.333 -0.5760  0.7299  0.7143
  751TIP3    H2 2260   4.914   1.807   2.391 -0.7126  1.2944  1.8857
  752TIP3   OH2 2261   4.648   1.216   1.769  0.0850  0.5297 -0.2346
  752TIP3    H1 2262   4.723   1.161   1.793 -1.2052 -0.5110  1.6464
  752TIP3    H2 2263   4.575   1.155   1.760 -0.9322  1.7070 -0.2700
  753TIP3   OH2 2264   3.124   2.579   1.250  0.7079 -0.4672  0.1338
  753TIP3    H1 2265   3.186   2.651   1.263  0.4894 -0.5005  1.4996
  753TIP3    H2 2266   3.149   2.541   1.166  1.2808  0.7553 -0.2777
  754TIP3   OH2 2267   2.796   0.084   0.652  0.0400 -0.0600 -0.0542
  754TIP3    H1 2268   2.702   0.066   0.654  0.0523 -0.2553 -0.9498
  754TIP3    H2 2269   2.807   0.161   0.707 -0.6934  0.1779 -0.2335
  755TIP3   OH2 2270   2.214   4.993   1.406  0.2526 -0.5864 -0.0691
  755TIP3    H1 2271   2.302   5.025   1.386  0.3501 -0.4481  0.5715
  755TIP3    H2 2272   2.225   4.941   1.486 -0.4488  0.4413  0.7176
  756TIP3   OH2 2273   3.150   0.950   0.708 -0.7838  0.3021 -0.1103
  756TIP3    H1 2274   3.127   0.960   0.615 -1.3532  3.0115  0.2439
  756TIP3    H2 2275   3.072   0.977   0.756 -0.3032 -0.5024  1.1781
  757TIP3   OH2 2276   1.645   5.320   1.608 -0.1525 -0.0277 -0.6142
  757TIP3    H1 2277   1.582   5.344   1.539 -1.3412 -0.0481  0.4314
  757TIP3    H2 2278   1.597   5.334   1.690  1.2045 -0.1013  0.2115
  758TIP3   OH2 2279   2.984   3.615   4.806  0.1283 -0.0368  0.0468
  758TIP3    H1 2280   2.942   3.531   4.823 -0.4731  0.0782 -0.8174
  758TIP3    H2 2281   2.922   3.680   4.838 -0.8006  0.1652 -1.9862
  759TIP3   OH2 2282   0.663   2.030   5.038 -0.1696 -0.4162 -0.1809
  759TIP3    H1 2283   0.616   2.108   5.067  0.7731  0.2045 -0.2772
  759TIP3    H2 2284   0.643   1.963   5.103  0.2176  0.3486  0.7454
  760TIP3   OH2 2285   0.220   3.813   3.032  0.1390 -0.3298 -0.0746
  760TIP3    H1 2286   0.309   3.830   3.064  1.4947 -0.3930 -3.4191
  760TIP3    H2 2287   0.208   3.719   3.046 -0.0358 -0.0593  1.7535
  761TIP3   OH2 2288   4.354   4.903   0.699 -0.2106 -0.3528 -0.1063
  761TIP3    H1 2289   4.298   4.851   0.641  0.1843  0.4528 -1.2515
  761TIP3    H2 2290   4.322   4.883   0.787 -2.6184  0.3900 -0.7267
  762TIP3   OH2 2291   2.273   5.367   0.779  0.6169  0.1538 -0.0057
  762TIP3    H1 2292   2.347   5.422   0.752  1.6381  0.2043  2.5451
  762TIP3    H2 2293   2.202   5.428   0.794  1.0397  0.5241  0.5483
  763TIP3   OH2 2294   3.376   5.346   1.094  0.2003  0.0113 -0.0145
  763TIP3    H1 2295   3.392   5.405   1.168 -1.1729 -0.1553  0.4416
  763TIP3    H2 2296   3.281   5.337   1.091  0.2797 -0.5165 -1.4026
  764TIP3   OH2 2297   0.555   3.537   4.607  0.3912 -0.0284 -0.2585
  764TIP3    H1 2298   0.541   3.607   4.544  0.5967 -0.3973 -0.7236
  764TIP3    H2 2299   0.520   3.571   4.689 -0.0288  0.3955 -0.6056
  765TIP3   OH2 2300   6.188   4.268   1.923  0.4392 -0.1010  0.1820
  765TIP3    H1 2301   6.139   4.296   1.846  0.1109  1.4825  0.9266
  765TIP3    H2 2302   6.138   4.302   1.997  0.3556 -2.2202  1.1607
  766TIP3   OH2 2303   3.415   0.130   3.762 -0.4589  0.3874 -0.1554
  766TIP3    H1 2304   3.509   0.116   3.764 -0.6311 -1.1062 -0.9149
  766TIP3    H2 2305   3.392   0.152   3.852  0.5951  0.6081  0.0660
  767TIP3   OH2 2306   3.855   1.709   0.233 -0.2473 -0.3109 -0.0714
  767TIP3    H1 2307   3.914   1.653   0.283 -1.1956  0.7005  2.2815
  767TIP3    H2 2308   3.882   1.696   0.142 -0.0462 -4.1059  0.3685
  768TIP3   OH2 2309   6.036   4.313   1.096  0.3544  0.3470 -0.2519
  768TIP3    H1 2310   5.986   4.237   1.127  0.5414  0.2911 -0.0896
  768TIP3    H2 2311   6.127   4.289   1.109  0.4158  0.5790 -0.2534
  769TIP3   OH2 2312   4.686   2.348   3.195  0.4252 -0.2398 -0.7483
  769TIP3    H1 2313   4.667   2.427   3.246 -1.7630 -0.5654 -0.9510
  769TIP3    H2 2314   4.692   2.378   3.105  1.9737 -0.0007 -0.5915
  770TIP3   OH2 2315   5.972   5.211   4.806  0.2390  0.4227 -0.6101
  770TIP3    H1 2316   5.962   5.126   4.849  1.7988  1.7697  2.6747
  770TIP3    H2 2317   5.912   5.207   4.731 -1.9558 -2.4518  1.1211
  771TIP3   OH2 2318   0.407   2.858   1.590 -0.1843  0.7873  0.2153
  771TIP3    H1 2319   0.334   2.915   1.616 -0.0548  0.8054  0.5466
  771TIP3    H2 2320   0.409   2.863   1.495 -1.1093  0.1808  0.1488
  772TIP3   OH2 2321   1.812   4.277   0.390  0.2829  0.1454  0.1138
  772TIP3    H1 2322   1.848   4.344   0.332  0.0452 -1.0723 -1.5202
  772TIP3    H2 2323   1.885   4.254   0.447  1.0704  0.1642 -0.8510
  773TIP3   OH2 2324   6.300   1.623   3.710  0.0304 -0.3706  0.2363
  773TIP3    H1 2325   6.258   1.678   3.776 -0.3677 -1.1892  0.6837
  773TIP3    H2 2326   6.371   1.578   3.757 -0.0861 -0.7597  0.0482
  774TIP3   OH2 2327   2.333   3.141   4.987  0.1790  0.3813 -0.5535
  774TIP3    H1 2328   2.355   3.055   5.023 -3.5079  0.6909  3.2648
  774TIP3    H2 2329   2.243   3.130   4.954  0.4639  2.2853 -2.1410
  775TIP3   OH2 2330   3.583   4.158   0.546  0.3776  0.5257  0.6541
  775TIP3    H1 2331   3.669   4.116   0.537  0.7222  1.5049 -1.1299
  775TIP3    H2 2332   3.522   4.098   0.503  0.4466  0.6243  0.4179
  776TIP3   OH2 2333   0.419   4.509   4.244  0.4437  0.0296  0.3127
  776TIP3    H1 2334   0.462   4.592   4.266 -1.1150  0.7537  0.7800
  776TIP3    H2 2335   0.333   4.535   4.212 -0.6120 -1.4772  1.8322
  777TIP3   OH2 2336   5.081   2.382   2.301  0.7094 -0.1355 -0.0597
  777TIP3    H1 2337   5.148   2.318   2.277  1.1141  0.7668 -1.4196
  777TIP3    H2 2338   5.030   2.338   2.370  2.3726 -1.0238  0.6539
  778TIP3   OH2 2339   4.561   1.721   3.036 -0.2033  0.2995  0.7813
  778TIP3    H1 2340   4.601   1.723   3.123  0.3584  0.1228  0.5306
  778TIP3    H2 2341   4.630   1.752   2.977 -1.1511  2.1998  0.5987
  779TIP3   OH2 2342   5.982   5.916   1.581 -0.2261  0.0128 -0.4026
  779TIP3    H1 2343   6.065   5.910   1.629  0.0489  0.6082 -0.7851
  779TIP3    H2 2344   5.962   6.010   1.581 -1.4005 -0.2177  0.5069
  780TIP3   OH2 2345   4.900   1.709   2.829 -0.6995  0.0037  0.0628
  780TIP3    H1 2346   4.813   1.670   2.816 -0.1851 -0.9833 -0.5314
  780TIP3    H2 2347   4.918   1.699   2.922 -0.5751 -1.2128 -0.0796
  781TIP3   OH2 2348   2.349   3.598   1.025 -0.5271  0.1611  0.4537
  781TIP3    H1 2349   2.260   3.575   0.999  0.1570 -0.2328 -1.8176
  781TIP3    H2 2350   2.354   3.693   1.012 -0.5114  0.1230  0.1684
  782TIP3   OH2 2351   0.474   1.255   1.474  0.0099  0.2020 -0.7425
  782TIP3    H1 2352   0.418   1.278   1.401  2.1581 -0.7461 -2.8123
  782TIP3    H2 2353   0.487   1.160   1.466  1.8536  0.3741 -0.3544
  783TIP3   OH2 2354   1.152   2.207   4.443  0.2473  0.5268  0.1091
  783TIP3    H1 2355   1.171   2.277   4.380 -0.5311 -0.0967 -0.8578
  783TIP3    H2 2356   1.061   2.181   4.423  1.2127 -2.3115 -1.1355
  784TIP3   OH2 2357   3.333   2.353   0.488 -0.0919  0.2726 -0.0919
  784TIP3    H1 2358   3.317   2.295   0.562 -2.5669 -1.6457 -1.9563
  784TIP3    H2 2359   3.427   2.345   0.471  0.2668 -0.3458  1.8943
  785TIP3   OH2 2360   5.140   3.676   4.753 -0.6410  0.0767  0.4995
  785TIP3    H1 2361   5.106   3.750   4.803 -2.4853 -0.5130  0.1881
  785TIP3    H2 2362   5.180   3.619   4.819 -0.1188  0.8606  0.8658
  786TIP3   OH2 2363   0.504   1.244   1.894  0.2195 -0.2627 -0.5480
  786TIP3    H1 2364   0.556   1.324   1.895 -1.2061  0.7346  1.4589
  786TIP3    H2 2365   0.519   1.204   1.980 -1.3837 -0.5355 -0.3594
  787TIP3   OH2 2366   1.094   4.886   1.418  0.8216 -0.0871  0.8841
  787TIP3    H1 2367   1.073   4.913   1.507 -0.8514 -0.5215  0.6526
  787TIP3    H2 2368   1.029   4.819   1.397  0.0564  1.2360 -1.2742
  788TIP3   OH2 2369   2.717   4.159   4.595 -0.5383 -0.2621  0.3973
  788TIP3    H1 2370   2.802   4.188   4.628 -0.0263 -1.4474  0.1685
  788TIP3    H2 2371   2.716   4.188   4.504 -1.1810  1.3872  0.8933
  789TIP3   OH2 2372   2.631   3.495   2.738 -0.0800  0.1515 -0.4471
  789TIP3    H1 2373   2.690   3.563   2.706 -1.7655  1.4797 -0.9481
  789TIP3    H2 2374   2.594   3.532   2.819 -1.0533 -0.1187 -0.7473
  790TIP3   OH2 2375   0.305   4.964   2.072 -0.0173 -0.6121  0.1582
  790TIP3    H1 2376   0.265   5.050   2.079  0.2060 -0.3504 -1.4997
  790TIP3    H2 2377   0.239   4.904   2.108 -0.4077  0.1817  0.7811
  791TIP3   OH2 2378   1.745   3.362   1.853  0.0249 -0.5629  0.2214
  791TIP3    H1 2379   1.834   3.328   1.845  0.0076 -0.1708 -2.3502
  791TIP3    H2 2380   1.755   3.456   1.866 -0.0240 -0.8466  2.8013
  792TIP3   OH2 2381   1.750   2.380   1.526  0.1026  0.2520  0.4876
  792TIP3    H1 2382   1.781   2.306   1.577  1.6352  0.6017  0.1112
  792TIP3    H2 2383   1.687   2.424   1.583  0.2549 -0.5166  1.2613
  793TIP3   OH2 2384   5.990   2.854   4.685 -0.1547 -0.1281 -0.3428
  793TIP3    H1 2385   6.065   2.908   4.660 -0.9225  1.0236 -0.2193
  793TIP3    H2 2386   6.029   2.784   4.738  0.6806  1.4287  1.2468
  794TIP3   OH2 2387   5.619   4.453   4.160 -0.6665 -0.3171  0.6743
  794TIP3    H1 2388   5.574   4.500   4.090 -0.1777 -0.0529  0.5352
  794TIP3    H2 2389   5.615   4.361   4.134  3.1417  0.0331 -1.8855
  795TIP3   OH2 2390  -0.038   1.203   3.491  0.7065  0.1462  0.3395
  795TIP3    H1 2391   0.027   1.135   3.472  1.2506  0.7461  0.0320
  795TIP3    H2 2392   0.014   1.281   3.509  0.1035  0.3477  1.2558
  796TIP3   OH2 2393   5.323   0.198   1.230  0.8195 -0.7097 -0.0015
  796TIP3    H1 2394   5.415   0.220   1.216  0.9083 -0.4484  0.9110
  796TIP3    H2 2395   5.324   0.112   1.271  0.6186 -1.0235 -0.6465
  797TIP3   OH2 2396   5.988   3.718   2.192 -0.5932 -0.1777 -0.3859
  797TIP3    H1 2397   5.955   3.695   2.104 -0.1475  0.1969 -0.6510
  797TIP3    H2 2398   5.938   3.796   2.216 -0.3921 -0.0126 -0.5005
  798TIP3   OH2 2399   5.033   4.462   2.204  0.0328  0.1495  0.1373
  798TIP3    H1 2400   5.001   4.372   2.212  2.0727 -0.6172  0.2222
  798TIP3    H2 2401   5.112   4.464   2.258  1.1402  1.4141 -1.4460
  799TIP3   OH2 2402   5.475   4.376   1.695  0.5193 -0.0733  0.7829
  799TIP3    H1 2403   5.528   4.453   1.674  0.4252 -0.0924  0.4576
  799TIP3    H2 2404   5.399   4.410   1.742  0.1320  0.1198  0.0362
  800TIP3   OH2 2405   3.456   2.073   3.098  0.1409 -0.1074 -0.2068
  800TIP3    H1 2406   3.381   2.042   3.150 -2.0157  1.5173 -2.1374
  800TIP3    H2 2407   3.462   2.012   3.025 -0.4453  0.7087 -0.9602
  801TIP3   OH2 2408   0.083   1.448   2.359 -0.3204  0.1666  0.4729
  801TIP3    H1 2409   0.131   1.419   2.437 -0.3592  1.7407  1.1224
  801TIP3    H2 2410   0.140   1.513   2.319 -0.1734 -0.8269 -1.0176
  802TIP3   OH2 2411   4.413   1.120   0.416  0.1166  0.2642 -1.2029
  802TIP3    H1 2412   4.407   1.090   0.507  0.1197  1.6941 -0.6993
  802TIP3    H2 2413   4.503   1.152   0.409  0.4473 -0.7960 -2.0449
  803TIP3   OH2 2414   2.903   5.948   0.189 -0.1159  0.2981 -0.2633
  803TIP3    H1 2415   2.950   5.899   0.122 -1.1387  0.2630 -0.9609
  803TIP3    H2 2416   2.973   5.992   0.239  0.7954 -1.5278  0.1519
  804TIP3   OH2 2417   3.368   2.263   4.937 -0.3353  0.3908 -0.0157
  804TIP3    H1 2418   3.453   2.277   4.977  0.1924 -0.1721 -0.9176
  804TIP3    H2 2419   3.370   2.173   4.905 -2.1392 -0.4657  2.0198
  805TIP3   OH2 2420   3.304   5.587   4.742  0.0460  0.0113  0.0123
  805TIP3    H1 2421   3.333   5.507   4.697  0.2123 -0.2339  0.5388
  805TIP3    H2 2422   3.211   5.595   4.719 -0.5831 -1.5781  1.6860
  806TIP3   OH2 2423   3.692   1.197   3.480 -0.2963 -0.6623 -0.3188
  806TIP3    H1 2424   3.691   1.173   3.572  0.7504 -0.2362 -0.1829
  806TIP3    H2 2425   3.773   1.157   3.446  0.0509  0.3447 -0.7127
  807TIP3   OH2 2426   0.039   1.713   3.474 -0.0569  0.8020  0.7318
  807TIP3    H1 2427  -0.005   1.694   3.556 -0.2889  1.4599  0.7624
  807TIP3    H2 2428  -0.001   1.652   3.411  0.2323  0.1899  1.1288
  808TIP3   OH2 2429   6.257   4.309   2.328  0.4464  0.5018  0.5783
  808TIP3    H1 2430   6.174   4.283   2.291  0.5538 -1.4206  1.5742
  808TIP3    H2 2431   6.310   4.337   2.253  0.0295 -1.4344 -0.4902
  809TIP3   OH2 2432   1.322   4.798   4.078 -0.0779  0.5731 -0.5324
  809TIP3    H1 2433   1.404   4.799   4.029 -1.2663 -0.1309 -2.6858
  809TIP3    H2 2434   1.272   4.726   4.038 -2.4478  2.1407 -0.5680
  810TIP3   OH2 2435   5.187   4.640   3.040 -0.9166 -0.1392  0.4079
  810TIP3    H1 2436   5.216   4.716   3.091  2.1507 -0.8346 -0.1041
  810TIP3    H2 2437   5.127   4.677   2.974 -0.6798  1.5875  1.1074
  811TIP3   OH2 2438   2.797   0.575   2.046  0.2341  0.7323  0.3445
  811TIP3    H1 2439   2.829   0.579   2.136 -1.5260  1.7284  0.9659
  811TIP3    H2 2440   2.804   0.665   2.014 -0.3489  0.6367 -0.0710
  812TIP3   OH2 2441   0.127   3.790   4.892 -0.5563 -0.1863 -0.3745
  812TIP3    H1 2442   0.066   3.839   4.948 -0.0279  1.6059 -1.2708
  812TIP3    H2 2443   0.199   3.766   4.950 -1.5011 -1.1945  0.4065
  813TIP3   OH2 2444   4.058   1.619   4.708 -0.0859 -0.1167  0.1429
  813TIP3    H1 2445   4.071   1.672   4.629  0.3941  0.8545  0.8575
  813TIP3    H2 2446   4.138   1.568   4.716  0.2221  0.4048  0.4537
  814TIP3   OH2 2447   4.284   4.493   0.414  0.3337 -0.2564  0.2321
  814TIP3    H1 2448   4.377   4.516   0.404  0.0632  0.1099 -1.9025
  814TIP3    H2 2449   4.258   4.460   0.328 -2.4911  3.4096 -0.6026
  815TIP3   OH2 2450   0.294   3.664   2.285  0.6467 -0.1798  0.2299
  815TIP3    H1 2451   0.346   3.636   2.210  0.2962  1.1221 -0.5290
  815TIP3    H2 2452   0.296   3.589   2.345  1.3300 -1.0659 -0.8610
  816TIP3   OH2 2453   0.764   1.702   3.552 -0.0974 -0.1044  0.1542
  816TIP3    H1 2454   0.812   1.740   3.626  2.1672 -0.4828 -1.0345
  816TIP3    H2 2455   0.765   1.608   3.569 -3.6393  0.0067  1.8848
  817TIP3   OH2 2456   4.964   1.258   4.997 -0.0225 -0.3923  0.3556
  817TIP3    H1 2457   4.932   1.325   4.937 -0.5755 -1.2688 -0.3585
  817TIP3    H2 2458   4.893   1.194   5.002  0.1778 -0.5420  1.6483
  818TIP3   OH2 2459   4.291   1.038   0.678  0.1451  0.7314  0.3164
  818TIP3    H1 2460   4.330   1.015   0.762  3.0131 -0.1122 -1.1285
  818TIP3    H2 2461   4.246   0.958   0.650  2.1249 -0.1840 -0.4313
  819TIP3   OH2 2462   0.611   2.059   3.602 -0.1114  0.3309 -0.6094
  819TIP3    H1 2463   0.607   2.059   3.506 -1.0344  0.5186 -0.5868
  819TIP3    H2 2464   0.677   1.994   3.623  0.2502  0.4371 -1.3803
  820TIP3   OH2 2465   5.883   4.061   1.996 -0.6912 -0.1502  0.0760
  820TIP3    H1 2466   5.791   4.035   1.991 -0.7667 -0.2164  1.3816
  820TIP3    H2 2467   5.920   4.036   1.911 -1.5066 -1.6169  0.1210
  821TIP3   OH2 2468   5.596   2.133   4.538  0.2940 -0.3802  0.4506
  821TIP3    H1 2469   5.513   2.177   4.520  1.1946  2.0932  1.8137
  821TIP3    H2 2470   5.620   2.092   4.455 -1.5964  0.0080 -0.3407
  822TIP3   OH2 2471   2.725   2.751   2.733 -0.0205 -0.3772  0.8234
  822TIP3    H1 2472   2.666   2.697   2.784 -0.3973 -1.0384 -0.2798
  822TIP3    H2 2473   2.667   2.808   2.682  0.3631  0.8227  1.6871
  823TIP3   OH2 2474   4.736   0.950   1.496 -0.0891 -0.3275 -0.3105
  823TIP3    H1 2475   4.741   0.920   1.406 -0.7830  1.4629 -1.0081
  823TIP3    H2 2476   4.757   0.873   1.549 -1.6108 -1.9552 -1.9256
  824TIP3   OH2 2477   1.590   0.112   1.298  0.2831  0.0616  1.2864
  824TIP3    H1 2478   1.529   0.177   1.263  1.2673  0.6132  0.5508
  824TIP3    H2 2479   1.651   0.161   1.352 -0.6866 -0.6760  3.1203
  825TIP3   OH2 2480   2.649   3.296   1.523 -0.1428 -0.7784  0.2907
  825TIP3    H1 2481   2.574   3.262   1.474  0.3257  0.6054 -1.4744
  825TIP3    H2 2482   2.704   3.338   1.457  0.9449  0.4394  1.9026
  826TIP3   OH2 2483   3.654   3.617   1.179 -0.2272  0.1388  0.0171
  826TIP3    H1 2484   3.686   3.557   1.247 -0.5220 -0.4143 -0.3242
  826TIP3    H2 2485   3.678   3.704   1.211  1.2309 -0.2231 -0.0224
  827TIP3   OH2 2486   3.127   0.909   2.138 -0.0985 -0.1512  0.2080
  827TIP3    H1 2487   3.168   0.993   2.122  1.3855 -0.7420  0.7786
  827TIP3    H2 2488   3.150   0.856   2.061  0.4336 -0.5598  0.6432
  828TIP3   OH2 2489   6.017   0.369   2.277  0.4309  0.1787 -0.1070
  828TIP3    H1 2490   6.094   0.368   2.220  1.0496 -0.9026  0.7167
  828TIP3    H2 2491   5.986   0.460   2.273  0.2804  0.0753 -2.3640
  829TIP3   OH2 2492   5.400   5.369   4.813 -0.2170 -0.0896 -0.1654
  829TIP3    H1 2493   5.417   5.443   4.754 -2.4990 -0.0262 -0.8341
  829TIP3    H2 2494   5.378   5.411   4.897  2.1411 -0.1637  0.5741
  830TIP3   OH2 2495   2.550   2.104   3.758 -0.2944  0.1448  0.0072
  830TIP3    H1 2496   2.574   2.094   3.850 -1.8094 -1.0854  0.2902
  830TIP3    H2 2497   2.466   2.150   3.760 -1.4776 -1.8730 -0.6065
  831TIP3   OH2 2498   0.474   3.089   0.806 -0.4586  0.1694  0.0162
  831TIP3    H1 2499   0.519   3.010   0.835  0.2275 -0.6307 -2.9462
  831TIP3    H2 2500   0.514   3.160   0.857  1.6881 -0.9318 -0.0514
  832TIP3   OH2 2501   4.030   3.209   1.648 -0.6271 -0.6286  0.0446
  832TIP3    H1 2502   4.073   3.252   1.574  1.8950  0.3065  1.9095
  832TIP3    H2 2503   3.975   3.142   1.608 -1.9125  1.8843 -2.8157
  833TIP3   OH2 2504   2.734   4.977   4.177 -0.6356  0.0824  0.0188
  833TIP3    H1 2505   2.737   5.049   4.114 -3.7049 -0.5218 -0.9987
  833TIP3    H2 2506   2.727   5.020   4.262 -0.2200  0.9517 -0.3710
  834TIP3   OH2 2507   1.480   1.108   2.163 -0.0376 -0.2361 -0.2130
  834TIP3    H1 2508   1.509   1.043   2.226 -0.0126  0.1054  0.1309
  834TIP3    H2 2509   1.545   1.106   2.094  0.1817 -0.2873 -0.0046
  835TIP3   OH2 2510   1.196   3.099   3.823  0.1242  0.4185  0.3380
  835TIP3    H1 2511   1.219   3.192   3.826  1.3424  0.1524 -0.1012
  835TIP3    H2 2512   1.155   3.087   3.737 -0.8558  0.7149  0.7533
  836TIP3   OH2 2513   6.229   3.647   0.894  0.6316  0.3197  0.1649
  836TIP3    H1 2514   6.269   3.716   0.841  0.5050  1.2499  1.2446
  836TIP3    H2 2515   6.253   3.668   0.984 -1.0063  0.0460  0.7118
  837TIP3   OH2 2516   0.338   3.919   2.034 -0.3886  0.2369  0.2804
  837TIP3    H1 2517   0.338   3.876   2.119  0.6764 -0.5125 -0.0686
  837TIP3    H2 2518   0.251   3.958   2.026 -1.5912 -2.2416  0.4252
  838TIP3   OH2 2519   1.849   5.492   1.598  0.6719 -0.3433  0.0590
  838TIP3    H1 2520   1.776   5.431   1.595 -0.1977  0.6186  1.0107
  838TIP3    H2 2521   1.888   5.480   1.685  1.2455 -0.3994 -0.2003
  839TIP3   OH2 2522   3.133   1.601   5.162 -0.2240  0.1155  0.4079
  839TIP3    H1 2523   3.204   1.665   5.166 -0.9990  1.0674 -0.3657
  839TIP3    H2 2524   3.126   1.578   5.069  3.1057 -4.7576  1.0203
  840TIP3   OH2 2525   6.048   2.044   3.628  0.6333  0.5853  0.1507
  840TIP3    H1 2526   6.047   2.040   3.532 -2.8044  1.6881 -0.0144
  840TIP3    H2 2527   6.091   2.127   3.648  1.4373  0.3134 -0.4247
  841TIP3   OH2 2528   1.003   5.900   2.495  0.5453  0.3573  0.1193
  841TIP3    H1 2529   1.078   5.845   2.470  0.4839  0.1305  0.4306
  841TIP3    H2 2530   0.957   5.848   2.561  0.0881  0.4765 -0.1054
  842TIP3   OH2 2531   2.060   5.800   3.680  0.8021  0.0845  0.4252
  842TIP3    H1 2532   2.042   5.732   3.746  0.8097 -1.9693 -1.5644
  842TIP3    H2 2533   2.116   5.862   3.725  0.1898 -0.8254  2.5836
  843TIP3   OH2 2534   4.581   2.620   2.401 -0.0192 -0.1684  0.0389
  843TIP3    H1 2535   4.573   2.627   2.497 -0.1979 -0.8038  0.0730
  843TIP3    H2 2536   4.634   2.695   2.376  1.4257 -0.8892  0.8167
  844TIP3   OH2 2537   0.180   5.602   1.542 -0.2353 -0.0320 -0.2076
  844TIP3    H1 2538   0.259   5.649   1.568 -0.1600 -0.3189  0.0809
  844TIP3    H2 2539   0.204   5.509   1.545 -0.2082 -0.0782 -1.3394
  845TIP3   OH2 2540   0.519   3.438   3.415  0.3398  0.5689 -0.1884
  845TIP3    H1 2541   0.582   3.493   3.462 -0.6441  1.3879  0.1925
  845TIP3    H2 2542   0.573   3.367   3.378  1.1109 -0.3773  2.5062
  846TIP3   OH2 2543   0.419   1.378   1.195  0.6136  0.3180  0.1255
  846TIP3    H1 2544   0.482   1.319   1.152 -1.0550 -1.2569 -0.3194
  846TIP3    H2 2545   0.352   1.394   1.128  0.9653  2.7464  0.2628
  847TIP3   OH2 2546   0.193   5.189   3.387  0.2420  0.0051  0.4669
  847TIP3    H1 2547   0.166   5.225   3.472  0.0650 -2.5880  1.6008
  847TIP3    H2 2548   0.289   5.188   3.391  0.3134  1.5301 -0.1517
  848TIP3   OH2 2549   2.089   1.323   1.121 -0.1654  0.2713 -0.1686
  848TIP3    H1 2550   2.163   1.383   1.114  1.8304 -2.1821 -2.1296
  848TIP3    H2 2551   2.046   1.328   1.035  0.0108 -0.9899 -0.3516
  849TIP3   OH2 2552   5.047   3.937   2.493 -0.3684  0.8211 -0.4502
  849TIP3    H1 2553   5.051   3.982   2.577  3.9417 -0.8839  0.5216
  849TIP3    H2 2554   4.990   3.861   2.508  1.1527 -0.0341  1.3541
  850TIP3   OH2 2555   3.096   2.871   0.560  0.7812  0.0417 -0.3718
  850TIP3    H1 2556   3.054   2.840   0.480 -1.6634  1.9829  0.0335
  850TIP3    H2 2557   3.024   2.877   0.624  1.0319  5.2771 -0.1274
  851TIP3   OH2 2558   3.539   1.962   5.136 -0.2874  0.0957  0.2594
  851TIP3    H1 2559   3.551   2.052   5.105  0.0528  0.5866  1.7577
  851TIP3    H2 2560   3.624   1.920   5.121 -0.5694 -0.1287 -0.8321
  852TIP3   OH2 2561   5.368   0.587   4.100  0.0903  0.1774 -0.3377
  852TIP3    H1 2562   5.455   0.598   4.061  0.3635 -0.3146  0.1234
  852TIP3    H2 2563   5.349   0.494   4.090 -0.0088  0.1226  0.3388
  853TIP3   OH2 2564   1.859   3.537   4.095 -0.0181  0.0173 -0.3251
  853TIP3    H1 2565   1.806   3.471   4.139 -0.3728 -0.2435 -1.1218
  853TIP3    H2 2566   1.821   3.544   4.007  1.7031 -0.7328 -1.1755
  854TIP3   OH2 2567   3.646   1.209   4.297 -0.0821  0.5957 -0.4129
  854TIP3    H1 2568   3.598   1.208   4.380  1.7253 -1.2246  0.6684
  854TIP3    H2 2569   3.719   1.268   4.312  0.6965 -0.3520 -0.4304
  855TIP3   OH2 2570   0.111   5.924   3.211 -0.9586  0.5883 -0.8416
  855TIP3    H1 2571   0.169   5.976   3.156 -0.4847  0.9525 -0.0131
  855TIP3    H2 2572   0.052   5.988   3.252 -1.9849  0.2233 -1.6976
  856TIP3   OH2 2573   1.152   2.412   3.146  0.0613 -0.2452  0.2973
  856TIP3    H1 2574   1.201   2.371   3.218  0.3643  0.6274  0.6002
  856TIP3    H2 2575   1.199   2.386   3.067  0.0401 -0.7756  0.4571
  857TIP3   OH2 2576   2.512   0.802   1.009 -0.2583 -0.4708  0.2598
  857TIP3    H1 2577   2.591   0.802   0.956 -0.3771 -1.5174  0.0578
  857TIP3    H2 2578   2.441   0.787   0.946 -0.5976  0.1673  0.4767
  858TIP3   OH2 2579   4.570   4.098   4.600 -0.9098 -0.6132  0.0962
  858TIP3    H1 2580   4.553   4.123   4.691 -1.7667 -0.7030 -0.0316
  858TIP3    H2 2581   4.543   4.007   4.594 -0.6057 -0.6860 -0.1836
  859TIP3   OH2 2582   2.303   2.648   1.632 -0.1106 -0.0117 -0.1985
  859TIP3    H1 2583   2.393   2.625   1.655 -0.7357 -1.5848  0.7757
  859TIP3    H2 2584   2.270   2.571   1.586 -1.1503  0.3243 -0.0290
  860TIP3   OH2 2585   5.234   3.797   4.204 -0.1617  0.3604  0.1633
  860TIP3    H1 2586   5.317   3.835   4.176  0.5260 -1.3312 -0.2615
  860TIP3    H2 2587   5.188   3.775   4.123 -1.7789  2.6987  0.3655
  861TIP3   OH2 2588   2.856   3.155   4.306  0.1079  0.7035 -0.5992
  861TIP3    H1 2589   2.919   3.216   4.344  0.2732 -0.6966  1.5457
  861TIP3    H2 2590   2.774   3.204   4.304  1.0470  2.3510 -2.8889
  862TIP3   OH2 2591   4.396   5.671   2.016  0.0990 -0.8093 -0.2406
  862TIP3    H1 2592   4.400   5.722   1.934  0.7064 -0.2933  0.0990
  862TIP3    H2 2593   4.308   5.688   2.050  0.9618  1.8149  0.9634
  863TIP3   OH2 2594   5.850   4.608   3.860 -0.4612 -0.2834 -0.8380
  863TIP3    H1 2595   5.887   4.685   3.817 -0.3248 -0.0489 -0.3101
  863TIP3    H2 2596   5.837   4.635   3.951  1.0542 -1.3544 -0.2599
  864TIP3   OH2 2597   2.398   3.387   0.569 -0.8475 -0.0178 -0.0221
  864TIP3    H1 2598   2.465   3.339   0.520 -1.2829  0.2438 -0.8990
  864TIP3    H2 2599   2.448   3.447   0.625 -0.3392 -0.3107 -0.1524
  865TIP3   OH2 2600   2.003   3.128   4.053 -0.5833  0.3829  0.1229
  865TIP3    H1 2601   2.015   3.033   4.054 -0.0595  0.4445  1.5975
  865TIP3    H2 2602   2.041   3.156   3.970  0.7650 -0.5295  0.3969
  866TIP3   OH2 2603   4.367   5.642   3.519 -0.1169  0.0785 -0.3085
  866TIP3    H1 2604   4.407   5.621   3.603 -1.8525  0.1666  0.5819
  866TIP3    H2 2605   4.432   5.615   3.454  1.6679  0.8970  1.0512
  867TIP3   OH2 2606   2.302   2.978   2.865  0.4795  0.1272 -0.1419
  867TIP3    H1 2607   2.363   3.050   2.880  0.2675  0.5219 -1.0479
  867TIP3    H2 2608   2.343   2.901   2.905  0.0032  1.0240  2.2361
  868TIP3   OH2 2609   5.382   1.543   2.424  0.2257 -0.4244 -0.3391
  868TIP3    H1 2610   5.436   1.618   2.450 -1.3632 -0.0510  2.1343
  868TIP3    H2 2611   5.293   1.577   2.423 -0.3363 -1.8380 -1.1067
  869TIP3   OH2 2612   4.803   3.385   2.960  0.0458  0.2612  0.2639
  869TIP3    H1 2613   4.766   3.469   2.930 -0.3926  0.8933  2.3822
  869TIP3    H2 2614   4.752   3.319   2.915 -1.5591  1.1493  0.6934
  870TIP3   OH2 2615   4.541   0.232   1.164  0.2184  0.0756 -0.3003
  870TIP3    H1 2616   4.452   0.235   1.129  0.1535  0.1331 -0.1326
  870TIP3    H2 2617   4.567   0.324   1.173 -0.8605  0.2002  2.5465
  871TIP3   OH2 2618   2.302   3.345   3.846  0.1760  0.3831  0.3608
  871TIP3    H1 2619   2.346   3.261   3.834  0.0693  0.0392  2.0386
  871TIP3    H2 2620   2.345   3.383   3.923 -0.3518  1.4820  0.1340
  872TIP3   OH2 2621   0.121   5.390   1.970 -0.7298  0.6613 -0.5930
  872TIP3    H1 2622   0.032   5.356   1.972 -0.9937  1.3146  2.3079
  872TIP3    H2 2623   0.166   5.347   2.042  1.3015  0.5014 -1.8546
  873TIP3   OH2 2624   5.283   4.809   0.469  0.2999  0.1190  0.2831
  873TIP3    H1 2625   5.368   4.785   0.507  0.6187 -0.8843 -0.9846
  873TIP3    H2 2626   5.239   4.725   0.455 -0.8127  0.6209  0.6951
  874TIP3   OH2 2627   0.671   2.311   1.607 -0.4838 -0.1255 -0.3764
  874TIP3    H1 2628   0.665   2.360   1.525 -0.4342 -1.6765 -1.3457
  874TIP3    H2 2629   0.726   2.366   1.664 -0.0038  0.6934 -1.5919
  875TIP3   OH2 2630   5.225   1.878   3.922  0.3190 -0.1646  0.1930
  875TIP3    H1 2631   5.227   1.953   3.982 -0.3476  1.1033 -1.2960
  875TIP3    H2 2632   5.291   1.899   3.856  0.6042 -1.2317  0.1339
  876TIP3   OH2 2633   4.726   3.819   0.692 -0.4251  0.1402 -0.0922
  876TIP3    H1 2634   4.713   3.729   0.720 -1.6676  0.0688 -0.7954
  876TIP3    H2 2635   4.641   3.861   0.709  0.0153  1.0732 -0.1386
  877TIP3   OH2 2636   2.605   4.006   0.088 -0.2125  0.3383  0.3179
  877TIP3    H1 2637   2.532   3.999   0.150 -0.5333 -0.6552 -0.1445
  877TIP3    H2 2638   2.684   3.997   0.142 -0.4950 -2.0816  0.4677
  878TIP3   OH2 2639   3.723   5.238   1.286  0.6522 -0.2005  0.0955
  878TIP3    H1 2640   3.798   5.283   1.324  1.7251 -0.7984 -1.2011
  878TIP3    H2 2641   3.736   5.246   1.191 -1.6464  0.8264 -0.1813
  879TIP3   OH2 2642   5.782   5.818   4.264 -0.2383 -0.2164 -0.3390
  879TIP3    H1 2643   5.710   5.770   4.305 -0.8759  0.1570 -0.9802
  879TIP3    H2 2644   5.854   5.811   4.326 -0.9469 -0.2798  0.5053
  880TIP3   OH2 2645   5.578   0.600   3.905  0.0904  0.4723 -0.1366
  880TIP3    H1 2646   5.597   0.659   3.832  0.9083  0.3400 -0.0384
  880TIP3    H2 2647   5.499   0.554   3.877  0.4610  0.3320 -1.0048
  881TIP3   OH2 2648   2.687   3.162   3.155  0.5055  0.2330  0.0866
  881TIP3    H1 2649   2.659   3.130   3.070 -1.0232  0.1055  0.6049
  881TIP3    H2 2650   2.682   3.257   3.149  0.5889  0.2288 -0.0322
  882TIP3   OH2 2651   0.390   5.376   4.624 -0.1663  0.4572 -0.2136
  882TIP3    H1 2652   0.431   5.451   4.582  0.1042  0.0200 -0.7343
  882TIP3    H2 2653   0.340   5.333   4.554 -3.8708  2.5151  0.8940
  883TIP3   OH2 2654   3.874   5.318   0.676 -0.3067  0.2480  0.6381
  883TIP3    H1 2655   3.849   5.232   0.711 -2.3352  0.7937  0.6287
  883TIP3    H2 2656   3.885   5.303   0.582  0.0912 -0.1381  0.7394
  884TIP3   OH2 2657   5.634   4.131   0.166 -0.0407  0.4851  0.0561
  884TIP3    H1 2658   5.638   4.217   0.123  0.6740  0.8958  0.9092
  884TIP3    H2 2659   5.614   4.070   0.095  0.4448  1.2306 -0.7467
  885TIP3   OH2 2660   5.540   1.372   3.530 -0.1060  0.0028 -0.6732
  885TIP3    H1 2661   5.600   1.445   3.519 -0.0280 -0.2164 -1.9353
  885TIP3    H2 2662   5.494   1.390   3.612  1.4022  0.3613  0.1335
  886TIP3   OH2 2663   1.161   1.197   3.492 -0.1334 -0.1598 -0.4628
  886TIP3    H1 2664   1.162   1.203   3.396 -2.5808 -0.1316 -0.5377
  886TIP3    H2 2665   1.224   1.264   3.520 -1.1477  1.5421 -2.0301
  887TIP3   OH2 2666   6.087   1.089   3.905 -0.1672  0.1792  0.5026
  887TIP3    H1 2667   6.151   1.063   3.840  2.4295 -2.0893  3.6334
  887TIP3    H2 2668   6.007   1.043   3.880  1.0489 -1.4685 -0.5403
  888TIP3   OH2 2669   4.935   0.277   0.387  0.1871 -0.4015  0.0363
  888TIP3    H1 2670   4.890   0.278   0.302  0.8256  0.3002 -0.3094
  888TIP3    H2 2671   5.028   0.288   0.364  0.2408  1.1628  0.8945
  889TIP3   OH2 2672   4.622   3.233   2.259  0.6108 -0.3222  0.0083
  889TIP3    H1 2673   4.534   3.247   2.294  0.5568  2.2334 -0.8966
  889TIP3    H2 2674   4.673   3.305   2.295  1.8565 -0.6744 -0.9782
  890TIP3   OH2 2675   1.240   5.348   4.740 -0.7601  0.9102 -0.0635
  890TIP3    H1 2676   1.230   5.374   4.832  0.1120  1.2598 -0.0545
  890TIP3    H2 2677   1.244   5.253   4.742 -0.8683  0.9115  0.2492
  891TIP3   OH2 2678   0.505   2.271   4.169  0.2072 -0.6077 -0.5433
  891TIP3    H1 2679   0.598   2.254   4.156  0.4771 -2.2007  2.5138
  891TIP3    H2 2680   0.464   2.185   4.167 -0.7851 -0.1969  0.4898
  892TIP3   OH2 2681   3.452   2.222   3.365  0.4205  0.7144  0.0310
  892TIP3    H1 2682   3.516   2.264   3.423 -0.3772  1.5955  0.2941
  892TIP3    H2 2683   3.505   2.173   3.303  1.3067 -1.0426  2.0279
  893TIP3   OH2 2684   0.952   0.508   1.419 -0.5965 -0.2010  0.3362
  893TIP3    H1 2685   0.971   0.601   1.429  0.6099 -0.4637  0.6221
  893TIP3    H2 2686   0.875   0.505   1.362  0.9265  0.8867 -1.8672
  894TIP3   OH2 2687   1.912   2.199   1.938  0.7539  0.2157  0.1199
  894TIP3    H1 2688   1.979   2.267   1.930  1.2412 -0.0527  1.6126
  894TIP3    H2 2689   1.855   2.213   1.863 -1.1577  4.4739  2.0272
  895TIP3   OH2 2690   5.932   0.108   4.558 -0.1901 -0.3067 -0.2569
  895TIP3    H1 2691   5.863   0.124   4.495  0.0768 -1.8935 -1.0014
  895TIP3    H2 2692   6.005   0.074   4.506  0.4114 -0.6314  0.7667
  896TIP3   OH2 2693   4.714   1.280   1.067  0.0294  0.0153  0.2197
  896TIP3    H1 2694   4.619   1.290   1.055  0.1563  0.5716 -0.3491
  896TIP3    H2 2695   4.732   1.325   1.150 -0.4723 -1.6878  1.2921
  897TIP3   OH2 2696   2.837   3.221   2.069 -0.0279 -0.1232  0.4424
  897TIP3    H1 2697   2.830   3.144   2.126  0.3598  0.4430  1.2690
  897TIP3    H2 2698   2.879   3.287   2.124  0.8153  0.2786 -0.6689
  898TIP3   OH2 2699   2.525   3.506   0.778 -0.2734  0.3497  0.0170
  898TIP3    H1 2700   2.495   3.502   0.869 -0.2378 -2.2334 -0.0095
  898TIP3    H2 2701   2.620   3.520   0.785  0.0310 -1.6137  0.5173
  899TIP3   OH2 2702   0.291   1.366   1.787 -0.0985 -0.4789  0.7476
  899TIP3    H1 2703   0.372   1.320   1.810 -0.2990 -0.2617  1.9614
  899TIP3    H2 2704   0.317   1.427   1.718  1.4341  1.5634  2.9932
  900TIP3   OH2 2705   1.491   0.459   0.366  0.1079  0.0727  0.2774
  900TIP3    H1 2706   1.547   0.528   0.401 -1.8030  1.6273  0.4584
  900TIP3    H2 2707   1.418   0.454   0.427 -0.4150 -1.2535 -0.4217
  901TIP3   OH2 2708   1.072   3.852   3.294 -0.3429  0.1797 -0.6213
  901TIP3    H1 2709   1.152   3.802   3.278 -0.6570 -0.6873  0.4204
  901TIP3    H2 2710   1.001   3.790   3.282 -0.8437  0.8099 -1.0113
  902TIP3   OH2 2711   2.878   0.714   3.482  0.1697 -0.2557  0.4098
  902TIP3    H1 2712   2.866   0.651   3.553  1.2298 -0.1578  0.6981
  902TIP3    H2 2713   2.972   0.710   3.463  0.3413  1.5145  0.7144
  903TIP3   OH2 2714   3.653   4.976   4.406  0.1202 -0.4906 -0.0688
  903TIP3    H1 2715   3.586   4.908   4.412 -0.9706  0.6461  1.4982
  903TIP3    H2 2716   3.735   4.928   4.394 -0.8008 -1.9873 -0.6504
  904TIP3   OH2 2717   1.997   2.938   4.562  0.4381 -0.2940  0.2813
  904TIP3    H1 2718   2.074   2.991   4.581 -0.5699  0.6690  1.8668
  904TIP3    H2 2719   1.996   2.872   4.631 -1.6339  1.4129  2.0113
  905TIP3   OH2 2720   0.682   0.101   0.949 -0.0445 -0.0031 -0.0392
  905TIP3    H1 2721   0.650   0.190   0.958 -0.6281 -0.2582  0.4669
  905TIP3    H2 2722   0.733   0.085   1.029  1.8102  0.5687 -1.0525
  906TIP3   OH2 2723   4.467   2.922   3.819 -0.0347 -0.1936  0.5453
  906TIP3    H1 2724   4.472   2.927   3.723 -2.0582 -1.6912  0.2758
  906TIP3    H2 2725   4.487   3.010   3.849 -0.9254  0.7382 -1.3862
  907TIP3   OH2 2726   1.393   3.293   5.115  0.3921 -0.3338 -0.6514
  907TIP3    H1 2727   1.377   3.216   5.169  0.5275 -0.0196 -0.1507
  907TIP3    H2 2728   1.391   3.261   5.025 -0.6775 -0.7268 -0.5056
  908TIP3   OH2 2729   4.051   4.423   3.203 -0.7469  0.5682  0.1193
  908TIP3    H1 2730   4.124   4.363   3.190 -0.5734  0.6236  0.8060
  908TIP3    H2 2731   3.981   4.387   3.148 -0.7357 -0.4230  0.7136
  909TIP3   OH2 2732   1.774   0.426   2.272  0.1362 -0.3632  0.1581
  909TIP3    H1 2733   1.854   0.464   2.309 -0.7409  1.2609  0.4939
  909TIP3    H2 2734   1.750   0.485   2.200 -1.2294 -0.3167  0.6199
  910TIP3   OH2 2735   1.060   2.933   2.618 -0.2941 -0.1023  0.1199
  910TIP3    H1 2736   1.077   2.989   2.693 -0.9999  1.0351 -0.5415
  910TIP3    H2 2737   0.972   2.898   2.635 -1.5579  2.1342 -1.2957
  911TIP3   OH2 2738   0.905   4.753   4.577  0.3640  0.1193  0.2544
  911TIP3    H1 2739   0.849   4.782   4.505  0.1995 -0.5627  0.1031
  911TIP3    H2 2740   0.958   4.830   4.598 -1.4453  1.1725  1.2128
  912TIP3   OH2 2741   4.306   0.676   2.839 -0.1222  0.0474 -0.5777
  912TIP3    H1 2742   4.232   0.616   2.848 -0.6704  0.8271  0.2664
  912TIP3    H2 2743   4.348   0.676   2.925  1.1269 -0.6895 -1.1526
  913TIP3   OH2 2744   2.756   1.252   0.827 -0.4144 -0.1640  0.2376
  913TIP3    H1 2745   2.842   1.285   0.802 -0.2226 -0.1965  0.8467
  913TIP3    H2 2746   2.719   1.320   0.882 -0.4546 -0.4892  0.6174
  914TIP3   OH2 2747   3.477   5.118   2.584  0.1800  0.0313  0.0779
  914TIP3    H1 2748   3.524   5.112   2.667 -1.3115 -0.8695  0.8992
  914TIP3    H2 2749   3.480   5.030   2.548  0.0752  0.2234 -0.4123
  915TIP3   OH2 2750   3.278   2.703   1.503  0.8839  0.5009  0.2175
  915TIP3    H1 2751   3.346   2.669   1.561 -0.2319 -1.1386  0.6414
  915TIP3    H2 2752   3.241   2.625   1.461 -0.8865  1.2943  0.2041
  916TIP3   OH2 2753   0.569   2.492   4.009 -0.1666 -0.0360 -0.1463
  916TIP3    H1 2754   0.570   2.412   4.061  3.8991  0.7638  1.3745
  916TIP3    H2 2755   0.587   2.463   3.919  2.9760 -0.8873  0.6444
  917TIP3   OH2 2756   4.622   2.006   3.010 -1.1263  0.9413  0.2983
  917TIP3    H1 2757   4.580   1.921   3.018 -0.4234  0.5925  0.4166
  917TIP3    H2 2758   4.698   2.001   3.069 -1.3107  1.7959  0.6329
  918TIP3   OH2 2759   2.075   0.941   0.625 -0.0486 -0.1372 -0.5861
  918TIP3    H1 2760   2.154   0.993   0.639 -0.0828 -0.4496  0.9557
  918TIP3    H2 2761   2.016   0.999   0.576  0.0878  1.1129  0.6797
  919TIP3   OH2 2762   1.278   5.689   4.434 -0.1566  0.0430  0.4099
  919TIP3    H1 2763   1.239   5.692   4.347 -0.5221  0.1846  0.5751
  919TIP3    H2 2764   1.318   5.775   4.446 -1.3617  0.5555  0.9434
  920TIP3   OH2 2765   5.906   0.745   3.622  0.0298 -0.1170 -0.2012
  920TIP3    H1 2766   5.920   0.837   3.596 -2.3279  0.0644 -1.0645
  920TIP3    H2 2767   5.994   0.709   3.630  1.0525  1.1866 -3.7044
  921TIP3   OH2 2768   4.564   2.023   2.291  0.7353 -0.2250 -0.1282
  921TIP3    H1 2769   4.556   1.994   2.382 -3.2101  3.1321  0.9317
  921TIP3    H2 2770   4.657   2.044   2.280  1.2148  0.2772  3.5389
  922TIP3   OH2 2771   5.970   2.175   0.217  0.1029  0.7779 -0.1641
  922TIP3    H1 2772   5.892   2.129   0.248  0.4307  0.3022 -0.0254
  922TIP3    H2 2773   6.041   2.110   0.226  0.1724  0.5197 -2.1327
  923TIP3   OH2 2774   2.483   5.532   2.975 -0.0355  0.9050  0.3902
  923TIP3    H1 2775   2.561   5.528   3.031  1.4128 -0.1746 -1.5736
  923TIP3    H2 2776   2.484   5.621   2.939  1.2111  0.4667 -0.7681
  924TIP3   OH2 2777   5.075   5.382   3.270  0.4147 -0.2811  0.1513
  924TIP3    H1 2778   4.993   5.336   3.253  0.8902 -0.3536 -2.3490
  924TIP3    H2 2779   5.077   5.451   3.203  2.1477  0.0511  0.5060
  925TIP3   OH2 2780   3.285   1.798   4.728  0.5866  0.3450  0.5248
  925TIP3    H1 2781   3.192   1.781   4.716  0.5609  0.5594  0.4280
  925TIP3    H2 2782   3.290   1.883   4.771  0.7596  0.6600 -0.1142
  926TIP3   OH2 2783   6.292   1.154   0.032 -0.1190  0.2248 -0.1634
  926TIP3    H1 2784   6.236   1.081   0.058 -0.1048 -0.1714 -1.2112
  926TIP3    H2 2785   6.297   1.148  -0.063 -1.5766  2.6425 -0.4731
  927TIP3   OH2 2786   5.307   0.231   2.232  0.2681 -0.2337  0.2205
  927TIP3    H1 2787   5.310   0.294   2.304 -0.1336 -1.2924  1.1876
  927TIP3    H2 2788   5.290   0.147   2.274  0.8058 -1.0011 -1.0438
  928TIP3   OH2 2789   1.469   4.957   3.802 -0.0053  0.0049 -0.2615
  928TIP3    H1 2790   1.382   4.980   3.834  0.0952  1.5184 -1.0159
  928TIP3    H2 2791   1.458   4.870   3.764 -0.8888 -0.3625  0.7757
  929TIP3   OH2 2792   0.110   4.588   1.428 -0.0133 -0.1921  0.6235
  929TIP3    H1 2793   0.200   4.559   1.419  0.4159  0.9716  0.9309
  929TIP3    H2 2794   0.074   4.582   1.340  0.6677  0.2297  0.3027
  930TIP3   OH2 2795   2.685   5.594   3.171  0.2134 -0.0309 -0.1189
  930TIP3    H1 2796   2.655   5.646   3.246  0.7369 -0.3222  0.3057
  930TIP3    H2 2797   2.733   5.656   3.117  2.1540 -0.3354  1.1464
  931TIP3   OH2 2798   2.995   5.912   3.420 -0.1036 -0.1919  0.4327
  931TIP3    H1 2799   3.075   5.960   3.445 -0.8047  2.0076 -1.1698
  931TIP3    H2 2800   3.023   5.852   3.351  0.1994  0.6251 -0.1759
  932TIP3   OH2 2801   0.307   5.281   0.658 -0.1060  0.2553 -0.2561
  932TIP3    H1 2802   0.224   5.298   0.703  0.4308  0.6409  0.6142
  932TIP3    H2 2803   0.281   5.251   0.571 -1.1448  1.0265 -0.2289
  933TIP3   OH2 2804   1.191   0.828   0.061 -0.3131 -0.1306  0.0644
  933TIP3    H1 2805   1.181   0.886  -0.014 -0.1279  0.2797  0.3514
  933TIP3    H2 2806   1.150   0.876   0.133  1.5311  0.5297  0.7391
  934TIP3   OH2 2807   5.233   4.234   0.430 -0.3240 -0.3344  0.2125
  934TIP3    H1 2808   5.316   4.258   0.390 -0.3013  1.5716  1.2842
  934TIP3    H2 2809   5.258   4.190   0.512 -0.3495  0.2398  0.5354
  935TIP3   OH2 2810   3.692   4.864   1.723  0.3498  0.0716  0.2708
  935TIP3    H1 2811   3.623   4.799   1.718  1.0571 -0.8468  1.7710
  935TIP3    H2 2812   3.648   4.944   1.752 -0.1586 -0.3797  0.7629
  936TIP3   OH2 2813   3.344   4.849   3.388 -0.1789 -0.0966  0.4279
  936TIP3    H1 2814   3.314   4.858   3.297  1.8191  0.0703 -0.2715
  936TIP3    H2 2815   3.309   4.765   3.417  0.0859 -0.6996 -0.9062
  937TIP3   OH2 2816   2.959   1.482   3.771 -0.1008  0.3479  0.2181
  937TIP3    H1 2817   2.946   1.536   3.849  0.8104  1.9479 -0.6940
  937TIP3    H2 2818   2.880   1.497   3.718  1.7521  4.1944 -1.9075
  938TIP3   OH2 2819   5.085   5.483   0.634  0.0427  0.5607  0.4080
  938TIP3    H1 2820   4.990   5.478   0.642 -0.1637  1.2188 -1.1162
  938TIP3    H2 2821   5.111   5.550   0.697 -0.4435  0.0313  1.1773
  939TIP3   OH2 2822   2.726   1.551   3.254  0.2066 -0.4033  0.1610
  939TIP3    H1 2823   2.795   1.488   3.235 -0.1611 -2.0338  3.4034
  939TIP3    H2 2824   2.771   1.628   3.288  0.5997  0.8557 -2.9006
  940TIP3   OH2 2825   4.733   1.581   1.766  0.9377 -0.1139 -0.8055
  940TIP3    H1 2826   4.697   1.585   1.855  3.3798  0.6743  0.2565
  940TIP3    H2 2827   4.706   1.663   1.726  1.1193  0.2417 -0.2171
  941TIP3   OH2 2828   1.437   4.166   1.255 -0.0445 -0.3268 -0.0918
  941TIP3    H1 2829   1.479   4.218   1.323 -1.4143  0.5254  0.1443
  941TIP3    H2 2830   1.497   4.170   1.181  0.6568  0.1870  0.4911
  942TIP3   OH2 2831   1.292   3.382   3.206  0.2808  0.4916 -0.2497
  942TIP3    H1 2832   1.220   3.360   3.147  0.3684  1.3329 -0.6781
  942TIP3    H2 2833   1.346   3.445   3.157  0.5784  0.8841  0.5619
  943TIP3   OH2 2834   1.067   1.602   2.881  0.5350 -0.3819  0.1488
  943TIP3    H1 2835   1.066   1.571   2.790  1.1829  2.7027 -1.0207
  943TIP3    H2 2836   0.979   1.583   2.913 -0.6048  0.8134 -2.0426
  944TIP3   OH2 2837   5.996   2.728   2.428  0.0183 -0.4418 -1.0312
  944TIP3    H1 2838   6.054   2.798   2.457 -0.2816 -1.1186  1.4352
  944TIP3    H2 2839   5.909   2.766   2.429 -0.1614 -0.8105  0.4361
  945TIP3   OH2 2840   2.891   1.359   1.426  0.3896 -0.8070 -0.0287
  945TIP3    H1 2841   2.984   1.351   1.447  0.4214 -2.2942 -0.6077
  945TIP3    H2 2842   2.848   1.371   1.511  1.2319  1.8513  0.1140
  946TIP3   OH2 2843   0.739   0.962   4.599  0.2863 -0.5485  0.3850
  946TIP3    H1 2844   0.656   0.914   4.600 -1.2951  2.0136  0.1656
  946TIP3    H2 2845   0.763   0.972   4.691 -0.9885  0.7834  0.6027
  947TIP3   OH2 2846   5.087   5.625   4.663  0.8309 -0.2401  0.0404
  947TIP3    H1 2847   5.182   5.638   4.670  1.1779 -1.2587 -1.9736
  947TIP3    H2 2848   5.075   5.585   4.577 -1.5164  0.4910 -0.0330
  948TIP3   OH2 2849   3.784   1.368   3.101  0.0618  0.2576 -0.7079
  948TIP3    H1 2850   3.754   1.411   3.181  0.7787 -0.8282  0.1788
  948TIP3    H2 2851   3.818   1.439   3.046  0.2183  0.9384  0.2559
  949TIP3   OH2 2852   5.260   0.653   0.716 -0.0580  0.4977  0.8305
  949TIP3    H1 2853   5.209   0.703   0.653  0.0590 -0.2550  0.1236
  949TIP3    H2 2854   5.195   0.597   0.760 -0.0806  0.7316  1.0961
  950TIP3   OH2 2855   1.609   2.813   4.088  0.0308 -0.0095  0.4930
  950TIP3    H1 2856   1.671   2.800   4.017 -1.4486 -0.8097 -0.7081
  950TIP3    H2 2857   1.556   2.888   4.061 -0.3057 -0.0836  0.9255
  951TIP3   OH2 2858   2.676   2.100   0.292 -0.2987  0.1248  0.0548
  951TIP3    H1 2859   2.650   2.127   0.204  1.3006  1.3047 -0.1025
  951TIP3    H2 2860   2.752   2.042   0.278  1.4963  2.1891  0.6564
  952TIP3   OH2 2861   2.206   1.581   2.669  0.3644  0.3725  0.5051
  952TIP3    H1 2862   2.256   1.506   2.700  0.8441 -0.1996 -1.4955
  952TIP3    H2 2863   2.272   1.640   2.632 -0.0903  1.4129  1.3092
  953TIP3   OH2 2864   1.060   3.681   3.611  0.2282  0.1045 -0.0923
  953TIP3    H1 2865   1.010   3.762   3.604  2.9850  2.0657  1.0413
  953TIP3    H2 2866   1.103   3.672   3.526  0.2712  0.1050 -0.0709
  954TIP3   OH2 2867   3.146   0.313   2.767 -0.5009  0.2155 -0.5410
  954TIP3    H1 2868   3.119   0.402   2.743 -2.1617 -0.6062 -1.8847
  954TIP3    H2 2869   3.152   0.316   2.863 -1.4365  1.5361 -0.4859
  955TIP3   OH2 2870   1.336   2.701   2.408 -0.2129 -0.4432  0.3507
  955TIP3    H1 2871   1.331   2.745   2.493 -0.4958 -0.6446  0.4420
  955TIP3    H2 2872   1.357   2.610   2.430  1.7990 -0.0902  0.0946
  956TIP3   OH2 2873   4.468   1.771   2.460  0.0340  0.0160 -0.4214
  956TIP3    H1 2874   4.480   1.685   2.500  0.2585  0.0132 -0.4978
  956TIP3    H2 2875   4.514   1.831   2.518 -0.6396  0.1704 -0.0303
  957TIP3   OH2 2876   0.726   1.628   0.732 -0.0436  0.1590 -0.3206
  957TIP3    H1 2877   0.736   1.534   0.746  0.0783  0.5033  2.5923
  957TIP3    H2 2878   0.815   1.661   0.726 -0.0560  0.2268 -0.1346
  958TIP3   OH2 2879   3.201   3.104   3.522  0.4146 -0.0401  0.3755
  958TIP3    H1 2880   3.183   3.011   3.510 -1.0676  0.5055 -2.6433
  958TIP3    H2 2881   3.208   3.116   3.617 -1.8176 -2.7913  1.0133
  959TIP3   OH2 2882   0.741   1.854   4.368 -0.0382  0.0702 -0.1258
  959TIP3    H1 2883   0.834   1.836   4.384  0.3597  0.6465 -1.6736
  959TIP3    H2 2884   0.699   1.768   4.372  0.6522 -0.2740 -0.0778
  960TIP3   OH2 2885   5.107   3.212   3.419  0.0586  0.4437 -0.2181
  960TIP3    H1 2886   5.122   3.122   3.392  0.3681  0.3212  0.3454
  960TIP3    H2 2887   5.189   3.239   3.461 -0.3536  0.6612  0.4758
  961TIP3   OH2 2888   2.189   3.879   1.196  0.2132 -0.2122  0.1496
  961TIP3    H1 2889   2.116   3.905   1.252 -0.5439 -1.7403 -0.0597
  961TIP3    H2 2890   2.265   3.879   1.254  0.0773  1.3818  0.3761
  962TIP3   OH2 2891   2.755   3.531   4.624  0.1026 -0.0994  0.0234
  962TIP3    H1 2892   2.764   3.623   4.650  0.2490 -0.0794 -0.0977
  962TIP3    H2 2893   2.773   3.531   4.530 -0.4968 -0.1596 -0.0927
  963TIP3   OH2 2894   4.395   2.069   2.674 -0.3659 -0.9482 -0.5327
  963TIP3    H1 2895   4.334   2.099   2.607  1.7143 -0.4813 -2.3111
  963TIP3    H2 2896   4.461   2.019   2.626  1.1883 -0.6343  1.1674
  964TIP3   OH2 2897   0.211   5.959   0.966 -0.3197  0.3730 -0.5188
  964TIP3    H1 2898   0.278   6.027   0.975 -0.4503  0.4169  0.1690
  964TIP3    H2 2899   0.173   5.950   1.053 -1.4626  0.6070 -0.9653
  965TIP3   OH2 2900   4.739   4.640   3.498 -0.3539 -0.2267  0.1127
  965TIP3    H1 2901   4.766   4.638   3.590  1.3259  0.7706 -0.3086
  965TIP3    H2 2902   4.681   4.716   3.492 -0.7859 -0.5281  0.4118
  966TIP3   OH2 2903   6.051   2.237   3.016 -0.1202  0.3345  0.7085
  966TIP3    H1 2904   5.997   2.183   3.074 -1.0648  0.9341  0.4139
  966TIP3    H2 2905   6.119   2.272   3.073  1.2740 -2.0872  0.6894
  967TIP3   OH2 2906   0.090   3.795   3.669  0.3914  0.0643 -0.0614
  967TIP3    H1 2907  -0.003   3.776   3.658  0.5583 -2.6076  2.0994
  967TIP3    H2 2908   0.092   3.886   3.699 -1.4769  0.2662 -0.4226
  968TIP3   OH2 2909   5.941   2.555   1.829 -0.0724 -0.4273 -0.6383
  968TIP3    H1 2910   6.034   2.542   1.810 -0.2042 -2.0864 -0.2694
  968TIP3    H2 2911   5.914   2.626   1.771  1.6317  0.7312 -0.0915
  969TIP3   OH2 2912   0.454   1.244   3.448 -0.0870 -0.5700 -0.2279
  969TIP3    H1 2913   0.469   1.153   3.421  0.2783 -0.3707 -0.7219
  969TIP3    H2 2914   0.408   1.237   3.531 -1.5000 -1.2176 -1.0232
  970TIP3   OH2 2915   4.342   2.343   4.033  0.4700 -0.1526 -0.1776
  970TIP3    H1 2916   4.364   2.335   4.126  1.2174 -1.1340 -0.4276
  970TIP3    H2 2917   4.309   2.433   4.024  0.1124 -0.1363  1.0844
  971TIP3   OH2 2918   1.442   4.956   3.002 -0.7256 -0.2247 -0.0395
  971TIP3    H1 2919   1.432   4.907   3.084 -1.2638 -0.1347 -0.0494
  971TIP3    H2 2920   1.511   4.909   2.955 -2.0078 -1.6852 -0.5470
  972TIP3   OH2 2921   6.239   3.203   2.079 -0.1410  0.0114  0.2038
  972TIP3    H1 2922   6.196   3.287   2.060  0.2095  0.0700 -0.3289
  972TIP3    H2 2923   6.173   3.137   2.055 -0.1422  0.1145 -0.0768
  973TIP3   OH2 2924   3.723   1.583   2.519 -0.0420 -0.5182  0.1306
  973TIP3    H1 2925   3.638   1.542   2.504 -0.7439  0.0367  2.1869
  973TIP3    H2 2926   3.764   1.587   2.433 -2.3582 -0.2160 -1.0183
  974TIP3   OH2 2927   3.144   1.938   3.427  0.1829 -0.0813 -0.5604
  974TIP3    H1 2928   3.103   1.981   3.352 -0.0171  1.6437  0.5008
  974TIP3    H2 2929   3.235   1.925   3.400  0.2165  0.9194 -0.9554
  975TIP3   OH2 2930   3.208   5.007   2.699  0.3287 -0.4274 -0.1404
  975TIP3    H1 2931   3.187   5.099   2.680 -0.0045 -0.5549 -0.3966
  975TIP3    H2 2932   3.284   5.011   2.757  1.0767 -0.0129 -1.1192
  976TIP3   OH2 2933   1.487   4.300   3.669 -0.2111 -0.5020  0.1704
  976TIP3    H1 2934   1.403   4.338   3.644  0.0082 -1.7512 -2.9591
  976TIP3    H2 2935   1.540   4.306   3.590  2.4465 -0.4206  1.8430
  977TIP3   OH2 2936   4.071   4.177   0.521  0.1268  0.0422  0.2126
  977TIP3    H1 2937   4.147   4.119   0.519  1.9429  2.2835 -1.7098
  977TIP3    H2 2938   4.081   4.227   0.601  1.5424  1.3034 -0.7084
  978TIP3   OH2 2939   4.754   3.946   2.668  0.3018  0.5314  0.0012
  978TIP3    H1 2940   4.814   3.879   2.702  0.0145  1.0755  1.6423
  978TIP3    H2 2941   4.692   3.897   2.614  1.4530 -0.2047 -0.7024
  979TIP3   OH2 2942   1.948   3.348   2.954  0.6492  0.2842 -0.7947
  979TIP3    H1 2943   1.863   3.388   2.932  0.8503  1.0107 -0.2882
  979TIP3    H2 2944   1.926   3.280   3.018  0.5950  1.5101  0.5309
  980TIP3   OH2 2945   5.864   3.813   4.172 -0.0222  0.2070  0.4799
  980TIP3    H1 2946   5.899   3.761   4.244 -0.7970 -0.8571  0.1082
  980TIP3    H2 2947   5.915   3.785   4.096 -0.6893 -0.2846  0.2105
  981TIP3   OH2 2948   3.413   3.965   0.426  0.5229 -0.3355  0.0515
  981TIP3    H1 2949   3.320   3.983   0.412  0.9416  0.6532 -1.7540
  981TIP3    H2 2950   3.438   3.909   0.353  1.6575  0.6611 -0.3618
  982TIP3   OH2 2951   1.822   2.255   0.467 -0.1240 -0.5877  0.3918
  982TIP3    H1 2952   1.845   2.309   0.392  0.7156 -0.1793  0.9202
  982TIP3    H2 2953   1.833   2.313   0.543  1.0383 -1.5445  0.9935
  983TIP3   OH2 2954   5.645   2.823   1.824  0.3231 -0.5071  0.0159
  983TIP3    H1 2955   5.703   2.849   1.896 -0.6291  0.2777  0.5259
  983TIP3    H2 2956   5.630   2.729   1.838 -0.4722 -0.2150  1.3333
  984TIP3   OH2 2957   5.362   2.160   3.314  0.0521 -0.0487  0.8710
  984TIP3    H1 2958   5.277   2.169   3.356 -0.3397 -0.5741  0.2274
  984TIP3    H2 2959   5.389   2.249   3.294 -0.0619  0.1604  1.6214
  985TIP3   OH2 2960   2.143   3.172   0.077  0.1357 -0.0544  0.0159
  985TIP3    H1 2961   2.058   3.193   0.037 -0.0406  0.2195  0.5289
  985TIP3    H2 2962   2.160   3.082   0.050  0.0107  0.1160 -0.6616
  986TIP3   OH2 2963   2.633   2.912   1.327  0.4312 -0.4342  0.4398
  986TIP3    H1 2964   2.646   2.900   1.233  1.4643 -0.7082  0.6011
  986TIP3    H2 2965   2.713   2.877   1.367  0.0180 -0.3028  1.4200
  987TIP3   OH2 2966   2.704   3.152   0.114 -0.5757  0.6048  0.2412
  987TIP3    H1 2967   2.671   3.063   0.110 -1.3806  0.9217 -0.4885
  987TIP3    H2 2968   2.709   3.180   0.022 -1.7511  1.8111  0.5133
  988TIP3   OH2 2969   2.098   5.398   5.127  0.5869 -0.2888 -0.0240
  988TIP3    H1 2970   2.072   5.362   5.212  1.1400  0.9523  0.7169
  988TIP3    H2 2971   2.070   5.333   5.063 -2.8120  0.1553  0.8125
  989TIP3   OH2 2972   0.426   4.571   3.103 -0.0089 -0.1222  0.5608
  989TIP3    H1 2973   0.420   4.525   3.019 -0.8523 -0.7531  0.9522
  989TIP3    H2 2974   0.467   4.654   3.082 -0.0704 -0.3398 -0.4586
  990TIP3   OH2 2975   3.972   5.318   4.308  0.5396  0.1983 -0.3847
  990TIP3    H1 2976   4.056   5.310   4.262  0.6454 -2.0378  0.0469
  990TIP3    H2 2977   3.911   5.268   4.254  0.4609 -1.6843  1.3171
  991TIP3   OH2 2978   3.977   2.518   4.155 -0.1692 -0.3043 -0.1371
  991TIP3    H1 2979   4.026   2.567   4.221  0.0387 -1.5372  0.6621
  991TIP3    H2 2980   4.044   2.487   4.094  0.0938 -1.9236  0.9124
  992TIP3   OH2 2981   0.435   2.091   4.588 -0.3210 -0.3815 -0.0667
  992TIP3    H1 2982   0.397   2.025   4.529 -1.9892  1.4112 -1.1023
  992TIP3    H2 2983   0.464   2.041   4.664 -2.7307 -2.1860 -0.2196
  993TIP3   OH2 2984   3.568   2.037   1.865  0.3728  0.0829 -0.2576
  993TIP3    H1 2985   3.627   1.965   1.883 -1.1858 -1.2038 -0.0795
  993TIP3    H2 2986   3.508   2.004   1.798 -1.0638  0.7911  0.6260
  994TIP3   OH2 2987   3.995   4.492   0.834  0.2740  0.9468  0.2047
  994TIP3    H1 2988   4.034   4.405   0.823  0.0288  0.9515 -0.7641
  994TIP3    H2 2989   4.024   4.541   0.758 -2.3017  0.6928 -1.0436
  995TIP3   OH2 2990   5.847   2.401   2.934 -0.0899  0.2391  0.5158
  995TIP3    H1 2991   5.937   2.378   2.955 -0.6689 -1.3719  1.4174
  995TIP3    H2 2992   5.797   2.378   3.013 -1.4395  0.0247 -0.3562
  996TIP3   OH2 2993   2.772   4.843   2.598 -0.2467 -0.1623  0.2600
  996TIP3    H1 2994   2.776   4.913   2.534  0.9006  0.6041  1.1237
  996TIP3    H2 2995   2.863   4.816   2.610 -0.3105  0.2682  2.1076
  997TIP3   OH2 2996   6.321   1.789   3.003 -0.2694  0.5262 -0.5326
  997TIP3    H1 2997   6.346   1.743   3.083 -0.3128 -0.6075 -1.1532
  997TIP3    H2 2998   6.347   1.880   3.019 -0.7822  0.4348  0.9811
  998TIP3   OH2 2999   2.965   1.635   0.313 -0.4782 -0.0126  0.3585
  998TIP3    H1 3000   2.985   1.551   0.353  1.1150  0.8737  1.5357
  998TIP3    H2 3001   3.040   1.654   0.257 -0.7434  0.6808  0.2241
  999TIP3   OH2 3002   5.832   4.911   0.282 -0.1902 -0.0122 -0.0926
  999TIP3    H1 3003   5.879   4.958   0.213  2.4622 -2.3645 -0.0884
  999TIP3    H2 3004   5.877   4.936   0.363 -1.8378  1.0077  0.5558
 1000TIP3   OH2 3005   3.516   3.769   0.680 -0.0618  0.5857 -0.0422
 1000TIP3    H1 3006   3.590   3.806   0.632  0.1680  0.5466  0.2852
 1000TIP3    H2 3007   3.472   3.845   0.718  0.2975  0.5409  0.4673
 1001TIP3   OH2 3008   1.906   5.083   1.001  0.6543  0.5471 -0.4193
 1001TIP3    H1 3009   1.873   5.114   1.085  1.0377  0.4489 -0.2318
 1001TIP3    H2 3010   1.992   5.125   0.991  1.9401 -1.6636  0.5968
 1002TIP3   OH2 3011   2.027   3.432   1.745  0.2340  0.1314 -0.2597
 1002TIP3    H1 3012   2.040   3.355   1.691 -0.4188 -0.9110  1.0096
 1002TIP3    H2 3013   2.114   3.473   1.750  0.4899 -0.2543 -1.3095
 1003TIP3   OH2 3014   2.460   4.300   0.546  0.3580 -0.5619 -0.3062
 1003TIP3    H1 3015   2.407   4.271   0.471  1.0326  0.9978 -1.4337
 1003TIP3    H2 3016   2.550   4.296   0.514  0.5429  1.8375 -0.2425
 1004TIP3   OH2 3017   5.292   1.780   2.657  0.0905  0.1354 -0.1887
 1004TIP3    H1 3018   5.294   1.858   2.714  0.4028  0.6457 -0.8833
 1004TIP3    H2 3019   5.279   1.815   2.569  1.6564 -0.4910 -0.6970
 1005TIP3   OH2 3020   4.521   4.998   4.978 -0.0172  0.3369  0.6023
 1005TIP3    H1 3021   4.431   5.022   4.999  0.4859  2.0211  1.0021
 1005TIP3    H2 3022   4.570   5.010   5.059  0.6708  0.0522  0.2446
 1006TIP3   OH2 3023   2.708   0.298   3.230 -0.4570 -0.0217  0.7622
 1006TIP3    H1 3024   2.729   0.376   3.179 -1.3938  0.2765  0.8076
 1006TIP3    H2 3025   2.651   0.330   3.300 -0.9787 -0.7600  0.6843
 1007TIP3   OH2 3026   3.930   1.836   3.030 -0.5443  0.4029  0.4770
 1007TIP3    H1 3027   4.003   1.869   2.978  0.7725 -1.2502  1.1763
 1007TIP3    H2 3028   3.854   1.886   3.000  0.4664  0.6672 -1.8526
 1008TIP3   OH2 3029   1.002   1.568   1.333 -0.0595  0.1438 -0.0193
 1008TIP3    H1 3030   1.067   1.559   1.263  2.2604  2.2686  1.6930
 1008TIP3    H2 3031   1.042   1.527   1.409 -0.6762  1.5580  1.1178
 1009TIP3   OH2 3032   2.437   2.455   0.545  0.0777  0.4180  0.5332
 1009TIP3    H1 3033   2.395   2.513   0.481 -0.1587 -0.8685 -0.5035
 1009TIP3    H2 3034   2.500   2.511   0.590  0.4256  1.2934 -0.9883
 1010TIP3   OH2 3035   4.664   2.957   2.843  0.5357 -0.2197 -0.0839
 1010TIP3    H1 3036   4.636   3.021   2.777  1.7459 -0.1134 -0.5110
 1010TIP3    H2 3037   4.736   2.909   2.801  0.1730 -1.3382  0.5195
 1011TIP3   OH2 3038   2.965   1.492   0.577  0.2037 -0.4892  0.4951
 1011TIP3    H1 3039   2.980   1.582   0.607 -0.2540 -0.7317  1.4834
 1011TIP3    H2 3040   3.039   1.442   0.612  0.0047 -0.6560  0.6800
 1012TIP3   OH2 3041   2.549   5.127   0.890  0.4193 -0.2095 -0.0257
 1012TIP3    H1 3042   2.543   5.169   0.976 -0.1681 -0.1394 -0.0947
 1012TIP3    H2 3043   2.602   5.049   0.905  0.7034  0.0399  0.3046
 1013TIP3   OH2 3044   0.238   2.975   0.401 -0.4234  0.7559 -0.2176
 1013TIP3    H1 3045   0.159   3.014   0.439 -2.3776 -0.8415 -2.3408
 1013TIP3    H2 3046   0.269   2.914   0.468 -2.1441  0.0306 -0.0166
 1014TIP3   OH2 3047   1.755   5.003   3.855  0.5935 -0.2246  0.0523
 1014TIP3    H1 3048   1.666   5.007   3.819  0.4955 -0.1853  0.3017
 1014TIP3    H2 3049   1.771   4.910   3.869  0.2902 -0.1739  0.7638
 1015TIP3   OH2 3050   5.312   5.239   1.746  0.3567  0.0750 -0.0501
 1015TIP3    H1 3051   5.319   5.278   1.659  0.5905  0.6623  0.2219
 1015TIP3    H2 3052   5.394   5.264   1.789  0.4628 -0.6361  0.1696
 1016TIP3   OH2 3053   4.069   0.505   4.344  0.0398  0.1544  0.4270
 1016TIP3    H1 3054   4.030   0.592   4.333 -3.1947 -1.2281  0.0021
 1016TIP3    H2 3055   4.091   0.500   4.437 -1.9283  0.6306  0.9601
 1017TIP3   OH2 3056   0.202   2.469   4.017 -0.0440  0.1786 -0.1530
 1017TIP3    H1 3057   0.231   2.503   3.932  0.8057  1.8037  0.7406
 1017TIP3    H2 3058   0.148   2.393   3.995  0.1056  0.5889 -2.1454
 1018TIP3   OH2 3059   6.189   1.759   5.183  0.4503 -0.6120 -0.1697
 1018TIP3    H1 3060   6.107   1.801   5.208  1.1717 -0.0911  1.4353
 1018TIP3    H2 3061   6.163   1.674   5.147 -0.7440 -0.8505  1.1944
 1019TIP3   OH2 3062   4.195   5.437   2.492 -0.0899  0.1646  0.8390
 1019TIP3    H1 3063   4.250   5.411   2.418 -2.0830  0.7132 -0.9370
 1019TIP3    H2 3064   4.256   5.455   2.563  1.8002 -2.0711 -0.1202
 1020TIP3   OH2 3065   5.136   4.414   3.170  0.2140 -0.2994  0.3131
 1020TIP3    H1 3066   5.052   4.404   3.126  1.2536 -1.7382 -1.4787
 1020TIP3    H2 3067   5.175   4.492   3.131 -0.2963  0.4316  1.2226
 1021TIP3   OH2 3068   3.446   3.952   1.060 -0.4731 -0.1370  0.1258
 1021TIP3    H1 3069   3.365   3.994   1.091 -0.3939  0.4429 -0.4155
 1021TIP3    H2 3070   3.512   4.021   1.064  0.0923 -0.7092  0.9079
 1022TIP3   OH2 3071   5.525   5.741   3.673 -0.3529 -0.0258 -0.5425
 1022TIP3    H1 3072   5.545   5.834   3.661  1.4800 -0.5069 -1.7642
 1022TIP3    H2 3073   5.441   5.729   3.629  0.2092  0.7563 -1.9071
 1023TIP3   OH2 3074   5.574   4.183   3.139 -0.2052 -0.5496 -0.8934
 1023TIP3    H1 3075   5.588   4.220   3.051  0.4236  1.1141 -0.1347
 1023TIP3    H2 3076   5.541   4.257   3.191 -1.6661 -1.7811  0.0231
 1024TIP3   OH2 3077   2.339   1.882   1.802 -0.3831 -0.9481 -0.1682
 1024TIP3    H1 3078   2.250   1.860   1.829 -0.5554 -0.0421  0.0291
 1024TIP3    H2 3079   2.383   1.907   1.883  0.4929 -2.7550 -0.0312
 1025TIP3   OH2 3080   1.067   4.572   2.598 -0.7118 -0.1489  0.2380
 1025TIP3    H1 3081   1.117   4.525   2.664 -0.6671 -0.4928 -0.0328
 1025TIP3    H2 3082   1.131   4.628   2.554 -0.2784 -1.5130 -0.9501
 1026TIP3   OH2 3083   1.861   3.333   1.417  0.2223 -0.4834  0.0749
 1026TIP3    H1 3084   1.821   3.306   1.335  0.3304  1.1094 -0.5224
 1026TIP3    H2 3085   1.827   3.271   1.482 -2.1877  0.0130 -0.6417
 1027TIP3   OH2 3086   1.527   1.722   5.105  0.0876 -0.3715  0.2449
 1027TIP3    H1 3087   1.612   1.742   5.066  0.1821 -0.7318  0.2578
 1027TIP3    H2 3088   1.511   1.793   5.168  0.5319 -0.4804  0.4809
 1028TIP3   OH2 3089   4.376   1.763   4.860 -0.6164 -0.2166 -0.0650
 1028TIP3    H1 3090   4.353   1.849   4.825 -0.5942  0.4384  1.4655
 1028TIP3    H2 3091   4.374   1.705   4.784 -0.7259  1.1111 -1.1078
 1029TIP3   OH2 3092   1.149   0.522   0.246 -0.0235  0.0658 -0.5322
 1029TIP3    H1 3093   1.155   0.616   0.265  1.0720 -0.0590 -0.2123
 1029TIP3    H2 3094   1.194   0.512   0.162 -0.9498 -0.0511 -1.0317
 1030TIP3   OH2 3095   4.479   3.926   0.804  0.2965 -0.1208  0.1754
 1030TIP3    H1 3096   4.467   4.001   0.861  2.0278  0.6289 -0.3942
 1030TIP3    H2 3097   4.418   3.860   0.837  0.4716  0.6805  2.1917
 1031TIP3   OH2 3098   1.486   1.461   3.847 -0.2342 -0.4035  0.3768
 1031TIP3    H1 3099   1.500   1.391   3.783 -0.1196 -0.0627  0.0247
 1031TIP3    H2 3100   1.515   1.540   3.802  0.5615 -0.2628  1.1322
 1032TIP3   OH2 3101   4.484   3.617   3.299  0.2733 -0.2406  0.1249
 1032TIP3    H1 3102   4.436   3.608   3.381  2.1879  2.1017  1.6384
 1032TIP3    H2 3103   4.512   3.528   3.277 -0.3157 -0.9172  1.9948
 1033TIP3   OH2 3104   2.707   4.716   1.797 -0.4919  0.3443  0.4990
 1033TIP3    H1 3105   2.626   4.665   1.803 -0.4177  0.2496  0.7217
 1033TIP3    H2 3106   2.688   4.797   1.845 -0.7707  0.7415 -0.2745
 1034TIP3   OH2 3107   2.130   1.601   0.706  0.0247  0.0519 -0.2853
 1034TIP3    H1 3108   2.116   1.670   0.771 -0.0466 -0.5998  0.4071
 1034TIP3    H2 3109   2.155   1.648   0.626  1.5924  0.8125  0.6072
 1035TIP3   OH2 3110   0.069   3.942   2.055 -0.1439  0.3045 -0.2894
 1035TIP3    H1 3111   0.035   3.957   1.966 -1.8153  2.3196  0.5968
 1035TIP3    H2 3112   0.007   3.880   2.094 -0.9135  1.3660  0.2344
 1036TIP3   OH2 3113   0.610   2.298   2.716 -0.4534  0.0282 -0.4739
 1036TIP3    H1 3114   0.563   2.377   2.686 -1.0864 -0.5070 -0.9148
 1036TIP3    H2 3115   0.702   2.326   2.720 -0.8640  1.2939  1.0897
 1037TIP3   OH2 3116   1.376   3.964   0.554 -0.7679 -0.1497  0.0028
 1037TIP3    H1 3117   1.334   4.048   0.535 -0.4138 -0.0558 -0.3976
 1037TIP3    H2 3118   1.451   3.987   0.609 -0.5049 -0.1682 -0.3445
 1038TIP3   OH2 3119   2.187   5.371   1.605 -0.8075 -0.1889  0.4268
 1038TIP3    H1 3120   2.180   5.466   1.600 -0.6110 -0.1923  0.0714
 1038TIP3    H2 3121   2.223   5.344   1.520  1.6410 -0.3316  1.4329
 1039TIP3   OH2 3122   5.955   5.351   0.417 -0.2347 -0.5057 -0.2493
 1039TIP3    H1 3123   5.884   5.364   0.354 -1.3022  0.3602  1.0912
 1039TIP3    H2 3124   5.935   5.411   0.488  2.3258  0.3977 -0.2086
 1040TIP3   OH2 3125   3.021   5.844   2.086 -0.1402 -0.4516  0.0059
 1040TIP3    H1 3126   2.990   5.926   2.122  0.6614  0.1567 -0.6564
 1040TIP3    H2 3127   3.001   5.779   2.153  0.0057  0.4237  0.9065
 1041TIP3   OH2 3128   3.326   1.454   2.506  0.8667  0.2721  0.4598
 1041TIP3    H1 3129   3.391   1.442   2.437  0.4957  0.7456  0.0185
 1041TIP3    H2 3130   3.306   1.366   2.537 -0.5663 -0.1617 -1.5441
 1042TIP3   OH2 3131   6.053   4.802   4.806  0.1773  0.3823 -0.0448
 1042TIP3    H1 3132   6.012   4.747   4.740 -1.7713  1.0393  0.5664
 1042TIP3    H2 3133   6.056   4.748   4.885  0.8104  0.2296 -0.1660
 1043TIP3   OH2 3134   0.662   0.732   2.894  0.0302 -0.1097  0.3980
 1043TIP3    H1 3135   0.717   0.747   2.971  0.8630  0.0587 -0.2176
 1043TIP3    H2 3136   0.655   0.637   2.887 -0.6190 -0.1202  1.0692
 1044TIP3   OH2 3137   2.960   5.624   1.904  0.6238  0.4695  0.0338
 1044TIP3    H1 3138   2.952   5.714   1.937 -1.1292 -0.0424  1.1177
 1044TIP3    H2 3139   3.039   5.590   1.945  0.2648  0.9235  1.1393
 1045TIP3   OH2 3140   4.000   2.049   1.399 -0.1299  0.1015 -0.2075
 1045TIP3    H1 3141   4.090   2.025   1.420  0.3679 -0.1294 -2.3171
 1045TIP3    H2 3142   3.981   2.123   1.456  0.6839 -1.0482  1.6523
 1046TIP3   OH2 3143   5.989   2.086   1.284 -0.5079  0.2744  0.7086
 1046TIP3    H1 3144   5.898   2.100   1.312 -0.1599  3.2386  0.6766
 1046TIP3    H2 3145   6.033   2.053   1.363 -1.2908  0.3650  1.1947
 1047TIP3   OH2 3146   1.404   5.021   2.562 -0.3996 -0.0980 -0.2339
 1047TIP3    H1 3147   1.494   5.038   2.536 -0.4882 -1.4650 -1.6202
 1047TIP3    H2 3148   1.397   4.925   2.565 -1.3793 -0.0097  1.4986
 1048TIP3   OH2 3149   1.129   4.841   3.313 -0.0392  0.1126 -0.6958
 1048TIP3    H1 3150   1.185   4.892   3.370  0.6345 -1.6564  0.2993
 1048TIP3    H2 3151   1.042   4.848   3.352 -0.0083  0.7069 -0.7307
 1049TIP3   OH2 3152   5.735   0.070   0.748  0.1276 -0.0900 -0.0409
 1049TIP3    H1 3153   5.829   0.085   0.752  0.0650  0.2616  0.2614
 1049TIP3    H2 3154   5.702   0.142   0.693  0.0427 -0.2353 -0.1794
 1050TIP3   OH2 3155   1.779   4.479   1.470 -0.2342 -0.4053 -0.8736
 1050TIP3    H1 3156   1.821   4.497   1.554 -1.2170  1.5655 -0.7386
 1050TIP3    H2 3157   1.710   4.416   1.490 -0.4826  0.0812 -0.1733
 1051TIP3   OH2 3158   0.447   1.321   0.828 -0.1024  0.1251 -0.2342
 1051TIP3    H1 3159   0.525   1.308   0.881  1.3297 -0.5587 -2.3739
 1051TIP3    H2 3160   0.480   1.335   0.739 -2.3640  1.4693 -0.9599
 1052TIP3   OH2 3161   3.041   3.852   2.774 -0.6637 -0.1335 -0.3761
 1052TIP3    H1 3162   3.070   3.812   2.692  2.0542  0.9853 -0.0787
 1052TIP3    H2 3163   3.009   3.779   2.827  0.4342 -1.3222 -1.2891
 1053TIP3   OH2 3164   5.721   1.672   0.213  0.2082  0.5022 -0.1443
 1053TIP3    H1 3165   5.774   1.597   0.186 -0.4026  0.1919 -0.4845
 1053TIP3    H2 3166   5.682   1.705   0.132 -2.1224 -0.8093  0.3785
 1054TIP3   OH2 3167   3.508   2.037   0.454  0.7434  0.8881  0.0511
 1054TIP3    H1 3168   3.533   1.983   0.530  2.1401  1.1673 -0.1762
 1054TIP3    H2 3169   3.585   2.092   0.438  1.1224 -0.2341 -2.5171
 1055TIP3   OH2 3170   1.733   3.357   4.256  0.2445 -0.6927  0.2878
 1055TIP3    H1 3171   1.739   3.261   4.259  1.4063 -0.6544 -0.3906
 1055TIP3    H2 3172   1.731   3.383   4.349 -0.1597 -1.3752  0.4754
 1056TIP3   OH2 3173   0.129   2.308   0.752 -0.5004  0.3975  0.5977
 1056TIP3    H1 3174   0.046   2.261   0.741 -0.2441 -0.0958  0.7500
 1056TIP3    H2 3175   0.102   2.398   0.769 -1.0062  0.2611  0.5667
 1057TIP3   OH2 3176   5.844   5.119   3.312  0.3291 -0.1807 -0.3046
 1057TIP3    H1 3177   5.826   5.198   3.363  0.3581 -0.8933  0.8685
 1057TIP3    H2 3178   5.766   5.105   3.259 -0.6477 -0.5927  1.1717
 1058TIP3   OH2 3179   2.232   3.108   4.617 -0.1208  0.2485 -0.0627
 1058TIP3    H1 3180   2.328   3.107   4.610 -0.2259 -0.6801 -3.6225
 1058TIP3    H2 3181   2.207   3.197   4.594 -0.1110 -0.0542 -1.3434
 1059TIP3   OH2 3182   5.883   3.177   4.985 -0.1945 -0.3174  0.4487
 1059TIP3    H1 3183   5.968   3.156   5.022 -0.3226  0.1978  1.0408
 1059TIP3    H2 3184   5.843   3.091   4.968  1.2287 -0.6247 -1.7661
 1060TIP3   OH2 3185   4.284   2.696   3.213  0.2955  0.1709  0.4260
 1060TIP3    H1 3186   4.351   2.732   3.271  0.4325  1.0265 -0.2420
 1060TIP3    H2 3187   4.252   2.771   3.163 -0.0443 -0.4825 -0.3736
 1061TIP3   OH2 3188   4.497   4.072   2.046 -0.4547 -0.0502  0.4373
 1061TIP3    H1 3189   4.417   4.063   2.098  0.6186  1.2802  2.4444
 1061TIP3    H2 3190   4.564   4.027   2.097  0.1655 -0.9967 -1.1356
 1062TIP3   OH2 3191   1.807   2.611   2.199 -0.0241 -0.4576  0.1148
 1062TIP3    H1 3192   1.713   2.627   2.191  0.0500 -0.1715 -0.1907
 1062TIP3    H2 3193   1.816   2.566   2.284 -0.5903 -1.7952 -0.5026
 1063TIP3   OH2 3194   2.285   1.964   4.650 -0.4848  0.1910 -0.2872
 1063TIP3    H1 3195   2.317   1.953   4.739  0.0452 -0.0396 -0.5071
 1063TIP3    H2 3196   2.286   1.876   4.613  0.0941  0.4037 -0.7921
 1064TIP3   OH2 3197   3.290   0.665   4.549  0.0327  0.1831  0.0614
 1064TIP3    H1 3198   3.299   0.757   4.576  0.6982  0.5969 -1.4666
 1064TIP3    H2 3199   3.300   0.615   4.630 -0.5847  1.4577  0.9686
 1065TIP3   OH2 3200   0.347   0.049   4.480 -0.4736 -0.1216 -0.2310
 1065TIP3    H1 3201   0.413  -0.018   4.497  2.8388  2.3889 -2.0897
 1065TIP3    H2 3202   0.269  -0.001   4.453  0.9530 -3.2058  0.8167
 1066TIP3   OH2 3203   2.499   6.016   3.173 -0.0207 -0.3442  0.1145
 1066TIP3    H1 3204   2.462   5.930   3.154 -1.5859  0.4482 -0.5670
 1066TIP3    H2 3205   2.527   6.011   3.264 -2.2386 -0.8512  0.8088
 1067TIP3   OH2 3206   3.204   0.138   0.489 -0.1027 -0.0612  0.0375
 1067TIP3    H1 3207   3.291   0.167   0.516 -0.0337 -1.9165  2.0696
 1067TIP3    H2 3208   3.214   0.045   0.469 -1.3635  0.0039 -1.1262
 1068TIP3   OH2 3209   4.223   4.747   2.079  0.7995  0.8197  0.1178
 1068TIP3    H1 3210   4.295   4.765   2.140  0.6482 -0.1247  0.6004
 1068TIP3    H2 3211   4.257   4.681   2.019  0.5192  0.7795 -0.0019
 1069TIP3   OH2 3212   5.263   2.641   0.462 -0.1991 -0.0313 -0.3626
 1069TIP3    H1 3213   5.237   2.549   0.455  0.9030 -0.3484 -0.4382
 1069TIP3    H2 3214   5.220   2.684   0.387 -1.0656 -0.3910 -0.0821
 1070TIP3   OH2 3215   4.639   0.134   0.316  0.0913 -0.3393 -0.2194
 1070TIP3    H1 3216   4.581   0.207   0.337  0.9648 -0.1085  1.5604
 1070TIP3    H2 3217   4.583   0.056   0.322  0.1610 -0.3047  3.1276
 1071TIP3   OH2 3218   0.143   4.705   1.927 -0.5318  0.4786 -0.4639
 1071TIP3    H1 3219   0.099   4.734   2.007 -0.2639 -3.4292  1.3630
 1071TIP3    H2 3220   0.084   4.730   1.856 -2.4956  1.1158  1.2943
 1072TIP3   OH2 3221   3.455   0.089   2.061  0.4588 -0.3945  0.1983
 1072TIP3    H1 3222   3.539   0.046   2.077  1.9259  1.4854 -1.8376
 1072TIP3    H2 3223   3.451   0.101   1.967 -1.9259  0.0187  0.2744
 1073TIP3   OH2 3224   2.439   5.073   4.276  0.3012 -0.4941  0.0815
 1073TIP3    H1 3225   2.441   4.984   4.240  0.6213 -0.4386 -0.0402
 1073TIP3    H2 3226   2.457   5.130   4.201 -1.3888 -0.2207 -0.1570
 1074TIP3   OH2 3227   2.808   4.384   4.013 -0.0773 -0.2094 -0.6913
 1074TIP3    H1 3228   2.754   4.463   4.002  0.6689  0.1866 -1.7149
 1074TIP3    H2 3229   2.846   4.369   3.926  0.3699 -1.2779 -0.3263
 1075TIP3   OH2 3230   3.248   2.575   2.085  0.6178  0.3847  0.4572
 1075TIP3    H1 3231   3.273   2.491   2.045  0.1527  0.2785  0.3831
 1075TIP3    H2 3232   3.162   2.594   2.047 -0.4010 -0.3087  2.2989
 1076TIP3   OH2 3233   3.376   3.647   1.134  0.1454 -0.0925 -0.1693
 1076TIP3    H1 3234   3.327   3.565   1.122  1.4334 -0.9053 -0.0143
 1076TIP3    H2 3235   3.466   3.619   1.148  0.3321  1.2650  1.6644
 1077TIP3   OH2 3236   1.722   3.009   1.889  0.0479 -0.1499 -0.2394
 1077TIP3    H1 3237   1.778   2.978   1.961  1.9137 -0.0067 -1.5476
 1077TIP3    H2 3238   1.732   3.104   1.891 -2.3919  0.1652  1.1858
 1078TIP3   OH2 3239   1.696   3.571   3.882 -0.5697 -0.0500  0.6110
 1078TIP3    H1 3240   1.642   3.545   3.957 -1.1492  0.7671  0.4951
 1078TIP3    H2 3241   1.691   3.667   3.882 -1.4160 -0.0505 -1.0642
 1079TIP3   OH2 3242   3.905   0.692   1.048 -0.2214 -0.5251  0.1639
 1079TIP3    H1 3243   3.910   0.711   1.142 -1.8833  0.2951  0.1270
 1079TIP3    H2 3244   3.983   0.733   1.012  0.6078 -1.1292  1.2197
 1080TIP3   OH2 3245   5.802   0.924   0.787  0.1152 -0.1461 -0.0738
 1080TIP3    H1 3246   5.807   0.863   0.714 -0.7876  1.0786 -1.1938
 1080TIP3    H2 3247   5.739   0.884   0.847  0.3972 -0.8637 -0.2473
 1081TIP3   OH2 3248   0.661   0.200   3.838  0.4424  0.7816 -0.1247
 1081TIP3    H1 3249   0.592   0.234   3.897 -0.2869  0.8158 -0.9744
 1081TIP3    H2 3250   0.707   0.134   3.890  0.3794  1.4300  0.7765
 1082TIP3   OH2 3251   4.520   5.319   3.704 -0.5819 -0.2940 -0.3069
 1082TIP3    H1 3252   4.597   5.298   3.652  0.4638  1.7565  0.2940
 1082TIP3    H2 3253   4.445   5.294   3.650  0.4871 -1.4273 -1.2980
 1083TIP3   OH2 3254   5.477   4.494   0.516  0.1084  0.0855  0.2913
 1083TIP3    H1 3255   5.480   4.413   0.466 -0.2742  0.3290 -0.1324
 1083TIP3    H2 3256   5.564   4.501   0.555 -0.6109 -1.8063  2.4085
 1084TIP3   OH2 3257   3.060   4.021   2.161 -0.0753  0.6837 -0.5240
 1084TIP3    H1 3258   3.116   3.956   2.120 -2.1042  0.3596 -3.0160
 1084TIP3    H2 3259   3.042   3.986   2.248  1.2122 -0.6010 -0.7457
 1085TIP3   OH2 3260   1.918   2.751   4.736 -0.3688  0.1208 -0.0928
 1085TIP3    H1 3261   1.914   2.757   4.831  0.2608 -0.6064 -0.0102
 1085TIP3    H2 3262   1.960   2.667   4.719 -2.6303 -0.8884 -1.0547
 1086TIP3   OH2 3263   3.024   2.816   2.222  0.4503 -0.3698  0.3508
 1086TIP3    H1 3264   3.081   2.779   2.289  1.9171  0.7747 -0.1907
 1086TIP3    H2 3265   2.983   2.892   2.264 -0.5317 -1.0592  0.6690
 1087TIP3   OH2 3266   2.215   4.515   0.265  0.3904  0.1655  0.6049
 1087TIP3    H1 3267   2.309   4.502   0.280  0.7019  2.2829  0.7825
 1087TIP3    H2 3268   2.202   4.609   0.276 -1.7161 -0.0469  0.2807
 1088TIP3   OH2 3269   0.044   4.259   1.171  0.0897  0.8416 -0.0652
 1088TIP3    H1 3270   0.072   4.350   1.186  3.3456  0.3189 -2.0427
 1088TIP3    H2 3271   0.046   4.249   1.076  0.4182 -1.4670  0.1388
 1089TIP3   OH2 3272   1.361   4.655   4.540 -0.3625 -0.4316  0.2485
 1089TIP3    H1 3273   1.430   4.594   4.567 -1.6152 -0.8964  2.7626
 1089TIP3    H2 3274   1.393   4.694   4.459  2.0637 -1.8599  0.4251
 1090TIP3   OH2 3275   2.471   2.220   0.679 -0.2316  0.8433  0.3838
 1090TIP3    H1 3276   2.554   2.190   0.641 -1.4768 -0.4240 -1.5371
 1090TIP3    H2 3277   2.447   2.297   0.628 -0.0811  1.4006  1.1496
 1091TIP3   OH2 3278   0.607   1.122   0.667  0.4129 -0.2222  0.0161
 1091TIP3    H1 3279   0.520   1.136   0.629  0.7169  0.7560 -0.3671
 1091TIP3    H2 3280   0.663   1.101   0.593  1.0262  1.7825 -0.1562
 1092TIP3   OH2 3281   1.754   4.278   2.413  0.0598 -0.2688 -0.3480
 1092TIP3    H1 3282   1.665   4.273   2.447 -0.0593 -1.1256 -0.7757
 1092TIP3    H2 3283   1.788   4.361   2.448 -0.7214 -0.1855  0.2428
 1093TIP3   OH2 3284   5.195   3.013   3.869 -0.4383  0.3543  0.1644
 1093TIP3    H1 3285   5.138   3.090   3.860 -1.5768 -0.6579 -1.9746
 1093TIP3    H2 3286   5.137   2.939   3.854  1.2564 -0.7621 -1.2187
 1094TIP3   OH2 3287   3.630   2.193   3.670  0.2058 -0.0462  0.1458
 1094TIP3    H1 3288   3.670   2.117   3.712  1.4447  0.7318  0.4128
 1094TIP3    H2 3289   3.686   2.211   3.595 -2.0510 -1.5097 -2.0549
 1095TIP3   OH2 3290   1.613   4.814   1.385 -0.1864  1.1402  0.1575
 1095TIP3    H1 3291   1.536   4.762   1.407  0.8405 -0.0535  1.1469
 1095TIP3    H2 3292   1.585   4.905   1.394 -0.7684  0.7548  3.4282
 1096TIP3   OH2 3293   0.213   5.772   0.254 -0.1697  0.1721 -0.7172
 1096TIP3    H1 3294   0.202   5.688   0.299 -0.2071  1.0244  0.9285
 1096TIP3    H2 3295   0.302   5.768   0.219  0.6346  0.2714  1.2077
 1097TIP3   OH2 3296   5.608   1.037   1.889 -0.1020  0.8639 -0.5842
 1097TIP3    H1 3297   5.668   1.050   1.816  0.0759 -0.5466 -0.7026
 1097TIP3    H2 3298   5.541   0.978   1.856 -1.1226  1.7678 -0.1940
 1098TIP3   OH2 3299   5.547   0.220   2.415 -0.1402  0.3778 -0.0840
 1098TIP3    H1 3300   5.629   0.213   2.367  0.5159  0.7011  0.9533
 1098TIP3    H2 3301   5.482   0.245   2.349 -0.0569 -2.7739 -1.5297
 1099TIP3   OH2 3302   4.902   5.688   2.016  0.1890  1.0966  0.5124
 1099TIP3    H1 3303   4.830   5.628   2.036  0.7004  0.4181  0.3853
 1099TIP3    H2 3304   4.980   5.642   2.047  0.5733  1.7796  0.5611
 1100TIP3   OH2 3305   0.129   5.460   4.822  0.3449 -0.3024  0.3972
 1100TIP3    H1 3306   0.034   5.473   4.833  0.2982  1.4491 -1.5129
 1100TIP3    H2 3307   0.168   5.541   4.856  1.0211 -0.2353 -0.5252
 1101TIP3   OH2 3308   4.361   4.543   1.915 -0.7528 -0.3137 -0.5588
 1101TIP3    H1 3309   4.423   4.471   1.928  0.7067  0.9337 -0.4025
 1101TIP3    H2 3310   4.353   4.551   1.820 -1.6296 -1.2345 -0.5849
 1102TIP3   OH2 3311   1.083   0.047   4.527  0.2274  0.1138 -0.6024
 1102TIP3    H1 3312   1.095   0.093   4.610  1.3378  0.3990 -0.9018
 1102TIP3    H2 3313   1.162   0.068   4.477  0.0276 -0.8546 -1.3460
 1103TIP3   OH2 3314   3.225   1.496   3.753 -0.5611 -0.2177  0.0896
 1103TIP3    H1 3315   3.130   1.502   3.762 -0.5654 -0.3600  0.1379
 1103TIP3    H2 3316   3.254   1.455   3.835 -0.4371  0.0324  0.1725
 1104TIP3   OH2 3317   3.838   0.364   4.651 -0.0648 -0.5737 -0.0225
 1104TIP3    H1 3318   3.859   0.276   4.680 -1.3841 -0.8303  0.2519
 1104TIP3    H2 3319   3.843   0.361   4.556  2.3968 -0.2398  0.0386
 1105TIP3   OH2 3320   5.609  -0.006   2.219  0.0370 -0.0567  0.5156
 1105TIP3    H1 3321   5.685   0.046   2.245 -0.6538  1.6394 -0.6427
 1105TIP3    H2 3322   5.544   0.009   2.288  0.2541 -0.3360  0.7796
 1106TIP3   OH2 3323   6.054   1.535   1.290  0.1696 -0.2232 -0.0704
 1106TIP3    H1 3324   6.103   1.484   1.354  0.3041  0.3322  0.2796
 1106TIP3    H2 3325   6.096   1.515   1.206  0.1728 -0.7360  0.0485
 1107TIP3   OH2 3326   0.167   4.629   2.444 -0.1690 -0.1872 -0.4794
 1107TIP3    H1 3327   0.215   4.546   2.444  2.4744  1.2311  1.1030
 1107TIP3    H2 3328   0.102   4.619   2.514 -0.3648 -1.1498 -0.7834
 1108TIP3   OH2 3329   0.029   0.711   2.731 -0.0068  0.3394  0.9387
 1108TIP3    H1 3330   0.008   0.762   2.809  2.3115 -1.0357  2.5793
 1108TIP3    H2 3331   0.044   0.622   2.764  0.3650 -0.4372 -1.1816
 1109TIP3   OH2 3332   5.941   5.998   4.854  1.0111  0.0741 -0.6300
 1109TIP3    H1 3333   5.863   5.998   4.799  1.1237  4.0962 -1.0549
 1109TIP3    H2 3334   6.009   5.957   4.801 -0.0283 -0.5598 -1.4997
 1110TIP3   OH2 3335   0.721   4.598   0.554 -0.0000  0.1101 -0.2258
 1110TIP3    H1 3336   0.656   4.665   0.537 -0.6909 -1.1849 -3.5416
 1110TIP3    H2 3337   0.672   4.525   0.592  0.2052  0.4111  0.6289
 1111TIP3   OH2 3338   4.880   3.614   2.507  0.8114  0.2512 -0.3612
 1111TIP3    H1 3339   4.962   3.584   2.468  1.7865  1.6658  0.5124
 1111TIP3    H2 3340   4.907   3.665   2.584 -0.9900 -1.7145  1.7251
 1112TIP3   OH2 3341   4.360   4.172   4.370  0.0209  0.1083 -0.0540
 1112TIP3    H1 3342   4.408   4.119   4.434 -1.1138  0.2790  0.9614
 1112TIP3    H2 3343   4.392   4.141   4.285  1.4055 -0.2666  0.5686
 1113TIP3   OH2 3344   3.202   0.018   4.331 -0.0653 -0.9894 -0.4246
 1113TIP3    H1 3345   3.176   0.107   4.310 -0.5832 -0.7319  1.1845
 1113TIP3    H2 3346   3.264  -0.006   4.262 -0.7560  0.2030 -1.4995
 1114TIP3   OH2 3347   4.251   5.114   4.909  0.1021 -0.0605 -0.0094
 1114TIP3    H1 3348   4.193   5.041   4.929 -1.0238  1.0777  1.0422
 1114TIP3    H2 3349   4.222   5.144   4.822  0.2458 -0.5593 -0.2300
 1115TIP3   OH2 3350   6.040   3.972   4.440 -0.3819 -0.0634  0.6160
 1115TIP3    H1 3351   6.071   3.892   4.481 -1.3043 -0.4127  0.6513
 1115TIP3    H2 3352   6.109   4.037   4.458  1.4065 -1.3220 -1.2073
 1116TIP3   OH2 3353   3.231   4.457   1.760  0.1538 -0.0864  0.0629
 1116TIP3    H1 3354   3.140   4.481   1.743 -0.1460 -0.1456  1.4672
 1116TIP3    H2 3355   3.236   4.365   1.734  0.1367  0.2318 -1.1198
 1117TIP3   OH2 3356   0.676   1.656   2.013  0.1017 -0.7372  0.0260
 1117TIP3    H1 3357   0.626   1.600   1.954 -1.2860  0.2559  0.1861
 1117TIP3    H2 3358   0.609   1.702   2.064  1.2212 -0.0770  0.9562
 1118TIP3   OH2 3359   6.287   2.373   1.652  0.1391  0.1711 -0.9821
 1118TIP3    H1 3360   6.354   2.357   1.718 -0.6500 -1.9418 -0.6376
 1118TIP3    H2 3361   6.238   2.448   1.686 -1.0944 -1.6582  1.5715
 1119TIP3   OH2 3362   1.915   0.281   1.333  0.3626 -0.0431 -0.5677
 1119TIP3    H1 3363   1.870   0.365   1.340  1.3371  0.6291 -1.7935
 1119TIP3    H2 3364   1.955   0.267   1.419  0.7696  1.1070 -0.5551
 1120TIP3   OH2 3365   4.772   0.264   0.841  0.9409 -0.5351  0.1604
 1120TIP3    H1 3366   4.727   0.325   0.899 -0.3039 -0.6159 -0.6808
 1120TIP3    H2 3367   4.820   0.320   0.780  1.1746 -0.4353  0.4302
 1121TIP3   OH2 3368   4.436   3.460   2.569 -0.4560  0.3061 -0.3061
 1121TIP3    H1 3369   4.407   3.402   2.639 -0.7673  0.7190 -0.0813
 1121TIP3    H2 3370   4.355   3.501   2.538 -0.1227  1.5596  0.4049
 1122TIP3   OH2 3371   1.375   4.524   4.146 -0.8846  0.1587 -0.9189
 1122TIP3    H1 3372   1.435   4.486   4.082  0.6551 -0.0792  0.6042
 1122TIP3    H2 3373   1.331   4.448   4.185 -1.5048  0.2832 -1.3426
 1123TIP3   OH2 3374   0.822   2.052   1.146  0.2389 -0.4477  0.0117
 1123TIP3    H1 3375   0.906   2.006   1.159 -0.1440 -0.7570  1.7185
 1123TIP3    H2 3376   0.847   2.138   1.114  1.2368 -0.5013  0.5806
 1124TIP3   OH2 3377   0.048   2.579   0.811 -0.0770  0.1563 -0.1261
 1124TIP3    H1 3378   0.016   2.559   0.899  0.1430 -0.7065 -0.2394
 1124TIP3    H2 3379   0.132   2.622   0.825  0.9993 -1.8829  0.0638
 1125TIP3   OH2 3380   5.873   1.662   2.480 -0.2556  0.1458 -0.3483
 1125TIP3    H1 3381   5.857   1.668   2.574 -1.1550 -0.8802 -0.4195
 1125TIP3    H2 3382   5.932   1.735   2.461  0.2173  0.1656  1.0671
 1126TIP3   OH2 3383   3.330   0.994   3.095 -0.2628 -0.4178  0.6004
 1126TIP3    H1 3384   3.375   0.987   3.180  0.0842 -1.3660  0.3498
 1126TIP3    H2 3385   3.393   1.037   3.038  0.1458 -1.2642  0.3940
 1127TIP3   OH2 3386   1.005   1.441   4.648 -0.2706  0.0293 -0.7377
 1127TIP3    H1 3387   1.060   1.394   4.711 -0.8516 -0.0921 -0.3109
 1127TIP3    H2 3388   0.941   1.376   4.619 -2.6128  1.0835  1.6414
 1128TIP3   OH2 3389   2.580   2.570   2.007  0.2527 -0.4247  0.0179
 1128TIP3    H1 3390   2.596   2.499   2.070  2.0041 -0.2211 -0.1342
 1128TIP3    H2 3391   2.532   2.636   2.057  2.2708  0.0676  1.4470
 1129TIP3   OH2 3392   3.874   3.524   2.527 -0.0149  0.2084  0.6523
 1129TIP3    H1 3393   3.780   3.540   2.534  0.2929  1.3880  2.6940
 1129TIP3    H2 3394   3.881   3.448   2.468 -2.1909  0.3459  0.1317
 1130TIP3   OH2 3395   5.903   5.627   3.446 -0.1942  0.2552  0.0205
 1130TIP3    H1 3396   5.832   5.664   3.394  0.7804  2.1241 -0.0898
 1130TIP3    H2 3397   5.860   5.571   3.510 -1.8875  2.2504  0.7312
 1131TIP3   OH2 3398   3.022   1.650   1.431 -0.6289  0.5288 -0.0923
 1131TIP3    H1 3399   3.031   1.597   1.352 -0.2392  0.9147 -0.3101
 1131TIP3    H2 3400   3.061   1.597   1.501  1.1884  1.1678 -0.5872
 1132TIP3   OH2 3401   0.244   1.991   1.560  0.2680  0.0478 -0.5151
 1132TIP3    H1 3402   0.187   1.998   1.484 -0.9314 -0.4489  0.3035
 1132TIP3    H2 3403   0.331   2.015   1.528 -0.5304  1.6129 -1.6266
 1133TIP3   OH2 3404   3.795   5.015   0.256 -0.3859 -0.1259  0.2530
 1133TIP3    H1 3405   3.766   4.969   0.177  0.5481 -0.0395 -0.1534
 1133TIP3    H2 3406   3.716   5.059   0.288 -0.3888  1.5705 -1.8268
 1134TIP3   OH2 3407   1.585   2.915   1.521 -0.0947  0.1708  0.1117
 1134TIP3    H1 3408   1.548   2.830   1.542  0.0468 -0.2012 -1.0459
 1134TIP3    H2 3409   1.530   2.978   1.569 -1.6393 -0.4254 -0.7905
 1135TIP3   OH2 3410   0.953   3.288   1.072  0.5885 -0.4199 -0.1367
 1135TIP3    H1 3411   0.927   3.370   1.031  1.1387 -1.5140 -2.9462
 1135TIP3    H2 3412   1.042   3.303   1.102  1.5576 -0.5600 -2.7011
 1136TIP3   OH2 3413   5.364   3.210   3.497 -0.6582  0.3738  0.4004
 1136TIP3    H1 3414   5.396   3.153   3.427 -0.6454  0.8460  0.0159
 1136TIP3    H2 3415   5.437   3.215   3.559 -0.8384 -0.4297  0.7010
 1137TIP3   OH2 3416   4.735   3.601   1.177  0.1201 -0.2993  0.4017
 1137TIP3    H1 3417   4.695   3.654   1.107 -0.9909 -0.6422  0.7551
 1137TIP3    H2 3418   4.747   3.663   1.249  0.7316 -0.0759  0.1148
 1138TIP3   OH2 3419   1.589   0.230   3.658 -0.6291  0.5006 -0.2134
 1138TIP3    H1 3420   1.617   0.165   3.593  0.8451 -0.0448  0.9415
 1138TIP3    H2 3421   1.661   0.236   3.720 -2.3166  0.4229  1.8468
 1139TIP3   OH2 3422   5.993   4.857   4.173 -0.2893  0.3315  0.1286
 1139TIP3    H1 3423   6.007   4.905   4.092  1.7664 -1.6217 -0.8063
 1139TIP3    H2 3424   5.999   4.923   4.242 -0.2174  1.7714 -1.2061
 1140TIP3   OH2 3425   4.120   4.823   0.882  0.3586 -0.6242 -0.1857
 1140TIP3    H1 3426   4.160   4.891   0.935 -0.3871 -0.1826 -0.1742
 1140TIP3    H2 3427   4.153   4.741   0.919  0.8216 -0.2914  0.1572
 1141TIP3   OH2 3428   1.169   0.458   4.088 -0.1696 -0.3922  0.7199
 1141TIP3    H1 3429   1.096   0.512   4.058 -0.8356  0.0128  2.9365
 1141TIP3    H2 3430   1.135   0.368   4.085 -0.5390 -0.2681  1.0910
 1142TIP3   OH2 3431   4.662   2.711   2.009  0.2621  0.3462 -0.0151
 1142TIP3    H1 3432   4.685   2.620   2.029 -1.1928 -0.2737 -0.9689
 1142TIP3    H2 3433   4.585   2.704   1.953  0.2722  2.1771 -0.3126
 1143TIP3   OH2 3434   6.214   1.192   0.571  0.2041 -0.6107  0.1969
 1143TIP3    H1 3435   6.249   1.116   0.523 -1.9017 -0.3792 -1.9182
 1143TIP3    H2 3436   6.125   1.165   0.596 -0.7214  1.2118 -0.9297
 1144TIP3   OH2 3437   0.734   4.599   3.155  0.0908  0.6382 -0.9516
 1144TIP3    H1 3438   0.675   4.531   3.125  1.0392 -0.4613 -0.4041
 1144TIP3    H2 3439   0.810   4.593   3.096  1.1653 -0.3278  0.4522
 1145TIP3   OH2 3440   4.753   1.107   2.884  0.1257 -0.3103  0.2211
 1145TIP3    H1 3441   4.809   1.165   2.832  0.9128 -0.9481  0.3298
 1145TIP3    H2 3442   4.720   1.163   2.954 -0.8948  0.5499 -0.8818
 1146TIP3   OH2 3443   3.378   5.177   2.859 -0.6592  0.2921 -0.2059
 1146TIP3    H1 3444   3.449   5.195   2.920 -0.8863  0.0998  0.1211
 1146TIP3    H2 3445   3.335   5.262   2.846 -0.2595  0.4409 -0.5445
 1147TIP3   OH2 3446   2.675   0.660   0.322 -0.6006  0.2624 -0.0136
 1147TIP3    H1 3447   2.722   0.585   0.284 -0.3330  0.6069 -0.3770
 1147TIP3    H2 3448   2.694   0.656   0.415  2.2140  1.7824 -0.4088
 1148TIP3   OH2 3449   3.728   0.349   1.439  0.2649  0.4314 -0.6230
 1148TIP3    H1 3450   3.740   0.254   1.437  0.3894  0.4323 -0.1039
 1148TIP3    H2 3451   3.740   0.377   1.348  2.5739  0.2294 -0.4363
 1149TIP3   OH2 3452   1.068   2.370   3.828 -0.0147  0.2087  0.1369
 1149TIP3    H1 3453   1.019   2.397   3.906  0.2832 -0.7424  0.6702
 1149TIP3    H2 3454   1.160   2.378   3.854  0.0950 -1.4414  0.4012
 1150TIP3   OH2 3455   3.765   4.177   3.669  0.4505  0.0658  0.4457
 1150TIP3    H1 3456   3.706   4.159   3.742  0.0660 -1.6741 -0.2325
 1150TIP3    H2 3457   3.717   4.237   3.613 -0.5119 -0.9709  0.1322
 1151TIP3   OH2 3458   2.290   0.889   0.424  0.0420 -0.0534 -0.3683
 1151TIP3    H1 3459   2.297   0.974   0.466 -0.8607  0.0321 -0.3673
 1151TIP3    H2 3460   2.319   0.904   0.334 -0.7078  0.4067 -0.5417
 1152TIP3   OH2 3461   5.573   1.511   1.437 -0.5679 -0.0103  0.3328
 1152TIP3    H1 3462   5.518   1.589   1.434 -0.6845 -0.0907  0.4038
 1152TIP3    H2 3463   5.610   1.510   1.525  0.9927  1.0487 -0.2628
 1153TIP3   OH2 3464   3.753   5.781   2.113  0.0475 -0.3387  0.3399
 1153TIP3    H1 3465   3.668   5.776   2.156  0.3811  1.6737  1.3635
 1153TIP3    H2 3466   3.746   5.722   2.038 -2.5101  0.3160 -0.0401
 1154TIP3   OH2 3467   6.366   3.253   2.322 -0.1550 -0.0398 -0.2102
 1154TIP3    H1 3468   6.292   3.240   2.262 -1.5459  1.2536  1.1649
 1154TIP3    H2 3469   6.378   3.348   2.326 -0.6991 -0.0266  2.2344
 1155TIP3   OH2 3470   6.054   1.101   1.299 -0.1232  0.0452 -0.0592
 1155TIP3    H1 3471   5.997   1.026   1.317  0.2056 -0.4046 -0.8322
 1155TIP3    H2 3472   6.090   1.125   1.385 -0.2914 -0.6332  0.2079
 1156TIP3   OH2 3473   3.534   4.825   1.983  0.3148 -0.2087  0.3192
 1156TIP3    H1 3474   3.499   4.738   1.965  0.5580 -0.0544 -0.9947
 1156TIP3    H2 3475   3.503   4.846   2.071 -0.6684 -1.1680  0.2196
 1157TIP3   OH2 3476   3.398   4.522   3.324  0.1774 -0.5285 -0.7337
 1157TIP3    H1 3477   3.466   4.577   3.286 -0.5856 -0.1823 -1.6469
 1157TIP3    H2 3478   3.336   4.508   3.253 -0.2358 -1.6102 -0.1805
 1158TIP3   OH2 3479   5.308   2.375   0.919 -0.7464  0.4684 -0.2005
 1158TIP3    H1 3480   5.221   2.382   0.959 -0.4949 -0.3057  0.5240
 1158TIP3    H2 3481   5.292   2.339   0.832 -1.1047 -0.4745  0.2379
 1159TIP3   OH2 3482   4.772   5.287   4.464 -0.1507 -0.4729  0.0813
 1159TIP3    H1 3483   4.679   5.289   4.489 -0.0233  0.5326  0.5080
 1159TIP3    H2 3484   4.771   5.262   4.372 -0.8070 -1.0937  0.2472
 1160TIP3   OH2 3485   4.710   1.342   2.664 -0.5634  0.2538  0.0822
 1160TIP3    H1 3486   4.623   1.377   2.687 -0.3240  1.4830 -0.7635
 1160TIP3    H2 3487   4.747   1.408   2.606  1.2222  0.0572  0.9570
 1161TIP3   OH2 3488   4.023   5.341   3.333 -0.0207  0.0312  0.0488
 1161TIP3    H1 3489   4.058   5.423   3.367 -1.2797  0.9433 -0.7778
 1161TIP3    H2 3490   4.091   5.307   3.276  0.9361 -0.0596  1.1939
 1162TIP3   OH2 3491   2.437   2.739   2.177  0.2903 -0.4043 -0.6960
 1162TIP3    H1 3492   2.385   2.808   2.137  0.6787  1.3108  1.4941
 1162TIP3    H2 3493   2.388   2.714   2.255  1.4429 -0.6173 -0.0023
 1163TIP3   OH2 3494   5.493   5.120   5.084 -0.3730  0.1800 -0.6389
 1163TIP3    H1 3495   5.452   5.157   5.163  0.1041 -3.6062  1.6663
 1163TIP3    H2 3496   5.476   5.184   5.015 -1.5007  3.3982  2.3326
 1164TIP3   OH2 3497   6.231   5.381   3.509 -0.1590  0.0363 -0.2138
 1164TIP3    H1 3498   6.189   5.425   3.435  1.4345  1.5623 -0.2951
 1164TIP3    H2 3499   6.297   5.444   3.539  0.6363 -1.4044  1.1952
 1165TIP3   OH2 3500   4.105   3.893   2.306  0.0309  0.4541  0.7978
 1165TIP3    H1 3501   4.123   3.959   2.373 -0.2966 -0.9750  2.3786
 1165TIP3    H2 3502   4.011   3.877   2.312 -0.1473  0.8784 -0.5997
 1166TIP3   OH2 3503   5.710   5.303   1.016  0.3021 -0.3982  0.2187
 1166TIP3    H1 3504   5.670   5.249   1.084  2.3223 -1.5025  0.6138
 1166TIP3    H2 3505   5.673   5.269   0.934 -2.7898  1.4871  0.6703
 1167TIP3   OH2 3506   5.616   1.051   4.610 -0.2824 -0.1959  0.2308
 1167TIP3    H1 3507   5.661   0.975   4.572  0.9633  0.5526  0.1808
 1167TIP3    H2 3508   5.536   1.014   4.648  0.5082 -1.6054  0.6011
 1168TIP3   OH2 3509   2.272   0.984   3.112 -0.0890  0.7414 -0.2087
 1168TIP3    H1 3510   2.247   0.897   3.082 -0.7686  0.3162  1.4923
 1168TIP3    H2 3511   2.192   1.037   3.102  0.1551  1.0281 -0.6853
 1169TIP3   OH2 3512   5.441   5.895   4.806  0.1445  0.2991  0.0166
 1169TIP3    H1 3513   5.445   5.829   4.737  2.9671  0.3503  0.0077
 1169TIP3    H2 3514   5.409   5.974   4.762 -0.2716 -0.2610 -0.7056
 1170TIP3   OH2 3515   5.200   1.095   0.781  0.1579 -0.2398 -0.1347
 1170TIP3    H1 3516   5.196   1.016   0.834  0.0218  0.1686  0.4673
 1170TIP3    H2 3517   5.112   1.104   0.743  0.2760 -0.5696 -0.4969
 1171TIP3   OH2 3518   3.116   1.703   0.940 -0.8867  0.3267  0.2045
 1171TIP3    H1 3519   3.052   1.712   0.870  1.9079  0.9886 -2.4596
 1171TIP3    H2 3520   3.154   1.791   0.949  0.1891 -0.2068  1.1882
 1172TIP3   OH2 3521   2.360   1.344   4.934 -0.1027  0.1205  0.3536
 1172TIP3    H1 3522   2.374   1.351   4.839  2.2759 -0.5800  0.6031
 1172TIP3    H2 3523   2.272   1.305   4.942  0.3254 -1.4127 -1.6072
 1173TIP3   OH2 3524   3.719   4.450   0.924  0.1009 -0.0403 -0.2326
 1173TIP3    H1 3525   3.801   4.480   0.885  1.0415 -2.1513 -0.0186
 1173TIP3    H2 3526   3.664   4.426   0.850  0.2605 -0.0762 -0.3386
 1174TIP3   OH2 3527   5.047   1.995   3.172 -0.0091  0.2458 -0.4322
 1174TIP3    H1 3528   5.101   2.057   3.122 -0.8519  1.8003  0.4991
 1174TIP3    H2 3529   5.059   2.021   3.263 -0.2769 -1.0821  0.0026
 1175TIP3   OH2 3530   6.306   5.604   2.989  0.2055  0.1285 -0.1967
 1175TIP3    H1 3531   6.307   5.642   3.077 -0.5574 -0.8738  0.2585
 1175TIP3    H2 3532   6.371   5.655   2.941 -0.0782  1.3522  0.6626
 1176TIP3   OH2 3533   4.327   0.649   1.910 -0.0784 -0.3529 -0.0185
 1176TIP3    H1 3534   4.365   0.736   1.924 -0.2977 -0.1511 -0.6607
 1176TIP3    H2 3535   4.384   0.608   1.846 -0.1215 -0.5903  0.0953
 1177TIP3   OH2 3536   4.556   0.633   4.188  0.5530  0.0304 -0.1077
 1177TIP3    H1 3537   4.514   0.554   4.223  2.5084 -0.5515  1.0857
 1177TIP3    H2 3538   4.626   0.652   4.250  3.0239  0.0811 -2.6995
 1178TIP3   OH2 3539   3.454   4.795   3.646 -0.6417  0.1049 -0.5737
 1178TIP3    H1 3540   3.396   4.825   3.716 -0.9151  0.1431 -0.8172
 1178TIP3    H2 3541   3.415   4.828   3.565  0.0752  0.6858 -0.6886
 1179TIP3   OH2 3542   4.793   3.611   3.410  0.0334  0.2989  0.2443
 1179TIP3    H1 3543   4.823   3.688   3.362 -0.3977 -0.3817 -1.1641
 1179TIP3    H2 3544   4.809   3.538   3.351  1.7561 -0.9302  2.0885
 1180TIP3   OH2 3545   1.703   3.206   3.578 -0.2240 -0.5619  0.2094
 1180TIP3    H1 3546   1.787   3.195   3.623 -0.3746  2.2868  1.4425
 1180TIP3    H2 3547   1.641   3.226   3.648 -1.0141  1.4952 -0.9670
 1181TIP3   OH2 3548   2.950   2.198   0.264  0.1153  0.0996 -0.2314
 1181TIP3    H1 3549   2.856   2.206   0.283 -0.2206  1.6553 -2.1923
 1181TIP3    H2 3550   2.976   2.285   0.237  1.9265 -0.5454 -0.6802
 1182TIP3   OH2 3551   1.353   5.585   1.514 -0.0793  0.3903  0.0181
 1182TIP3    H1 3552   1.285   5.573   1.580 -0.4017  2.3012  0.1043
 1182TIP3    H2 3553   1.319   5.655   1.457  0.9298 -0.0468 -1.1668
 1183TIP3   OH2 3554   1.249   4.268   2.615 -0.3566  0.5757 -0.6339
 1183TIP3    H1 3555   1.219   4.339   2.673 -0.0974 -0.1396  0.4173
 1183TIP3    H2 3556   1.184   4.198   2.628  0.4916 -0.1323 -0.0883
 1184TIP3   OH2 3557   3.987   3.938   1.165  0.1810 -0.5488  0.1927
 1184TIP3    H1 3558   3.953   4.004   1.104 -1.0245 -0.8384  0.5153
 1184TIP3    H2 3559   3.910   3.910   1.214  0.8259 -1.6182  0.6182
 1185TIP3   OH2 3560   0.694   2.874   4.011  0.0098  0.2588  0.4137
 1185TIP3    H1 3561   0.643   2.831   3.942  0.4359 -2.4026  1.6427
 1185TIP3    H2 3562   0.766   2.916   3.964  1.6942 -3.5129 -0.7607
 1186TIP3   OH2 3563   1.393   2.224   5.056 -0.1248  0.1215  0.0661
 1186TIP3    H1 3564   1.338   2.147   5.071 -1.1427  1.1381  1.9083
 1186TIP3    H2 3565   1.429   2.211   4.969 -1.3132 -1.8018 -0.1929
 1187TIP3   OH2 3566   1.309   4.690   1.218 -0.5645 -0.5500 -0.6634
 1187TIP3    H1 3567   1.263   4.772   1.202 -1.4938 -0.8848  0.1556
 1187TIP3    H2 3568   1.323   4.688   1.313  1.6461 -0.2242 -0.9385
 1188TIP3   OH2 3569   3.774   5.001   2.506 -0.0460  0.2073 -0.3741
 1188TIP3    H1 3570   3.866   4.973   2.515 -0.0967  0.2581  0.3667
 1188TIP3    H2 3571   3.768   5.080   2.560 -0.9674 -0.8345  1.1447
 1189TIP3   OH2 3572   1.907   0.300   2.549  0.1840  0.0656 -0.1974
 1189TIP3    H1 3573   1.961   0.349   2.487 -1.5250  0.4530 -1.4521
 1189TIP3    H2 3574   1.901   0.357   2.626  1.9659 -0.2270  0.1990
 1190TIP3   OH2 3575   1.625   1.166   3.790  0.7352  0.4727 -0.2210
 1190TIP3    H1 3576   1.706   1.124   3.762  0.1715 -0.0493 -1.1107
 1190TIP3    H2 3577   1.558   1.100   3.776  0.0716  1.0939 -0.0296
 1191TIP3   OH2 3578   5.688   5.493   2.308  0.3364 -0.2139  0.1661
 1191TIP3    H1 3579   5.767   5.535   2.274  0.5734 -0.4769  0.3761
 1191TIP3    H2 3580   5.671   5.538   2.391  0.9871 -0.9615  0.7316
 1192TIP3   OH2 3581   2.422   4.358   4.824  0.4266 -0.1443 -0.0199
 1192TIP3    H1 3582   2.458   4.420   4.888  1.8067 -0.2131 -0.7007
 1192TIP3    H2 3583   2.365   4.301   4.876  0.7544  0.4064  0.9744
 1193TIP3   OH2 3584   1.626   3.503   5.129 -0.0544 -0.3875  0.1258
 1193TIP3    H1 3585   1.693   3.529   5.067  0.6841  0.6516  1.3223
 1193TIP3    H2 3586   1.563   3.454   5.077  1.0816 -0.4649 -1.2233
 1194TIP3   OH2 3587   6.210   5.137   1.772  0.0799  0.5297  0.3112
 1194TIP3    H1 3588   6.206   5.216   1.825  1.7050  1.4688 -0.8657
 1194TIP3    H2 3589   6.246   5.166   1.688 -1.0115 -1.1489 -0.7999
 1195TIP3   OH2 3590   3.927   5.777   0.572 -0.3474 -0.2246 -0.4542
 1195TIP3    H1 3591   3.840   5.743   0.590 -0.4587  0.3134  0.0400
 1195TIP3    H2 3592   3.969   5.708   0.520 -0.5934 -1.1061  0.4719
 1196TIP3   OH2 3593   6.019   3.183   2.297 -0.3151  0.0998  0.7644
 1196TIP3    H1 3594   6.038   3.275   2.277  1.9525 -0.0388  1.8873
 1196TIP3    H2 3595   5.978   3.149   2.217 -0.3435  1.8452 -0.0149
 1197TIP3   OH2 3596   3.754   4.660   4.819 -0.1438 -0.2865  0.3133
 1197TIP3    H1 3597   3.716   4.738   4.778 -0.7659  0.2597  1.8497
 1197TIP3    H2 3598   3.826   4.693   4.871  0.4382 -0.9321 -0.0695
 1198TIP3   OH2 3599   3.003   1.469   4.889 -0.0637  0.3030 -0.1575
 1198TIP3    H1 3600   2.930   1.435   4.838 -0.1418 -0.2280  0.2958
 1198TIP3    H2 3601   2.971   1.552   4.924 -0.6757 -0.1936  0.5084
 1199TIP3   OH2 3602   5.312   2.457   5.009 -0.1682 -0.5651  0.2890
 1199TIP3    H1 3603   5.250   2.506   5.062 -0.6381  2.5190 -2.7317
 1199TIP3    H2 3604   5.259   2.389   4.967 -1.1766  0.7238 -0.6487
 1200TIP3   OH2 3605   0.758   0.955   3.700  0.7764 -0.3566 -0.2955
 1200TIP3    H1 3606   0.828   1.013   3.670  1.3325 -0.2579  1.1119
 1200TIP3    H2 3607   0.797   0.905   3.772 -0.6714 -0.0915  0.7244
 1201TIP3   OH2 3608   3.835   3.900   2.377 -0.1320 -0.2969  0.3257
 1201TIP3    H1 3609   3.848   3.994   2.360  0.4674 -0.4010  0.1738
 1201TIP3    H2 3610   3.825   3.894   2.472 -1.2324  0.0374  0.2393
 1202TIP3   OH2 3611   4.824   0.637   4.283 -0.0613  0.1467  0.4154
 1202TIP3    H1 3612   4.844   0.609   4.194 -0.9572 -2.0400  0.8360
 1202TIP3    H2 3613   4.841   0.560   4.337  0.4592  1.4073  2.1675
 1203TIP3   OH2 3614   5.662   3.160   1.702  0.3629  0.0754 -0.2843
 1203TIP3    H1 3615   5.650   3.081   1.650 -0.0309  0.0306 -0.1264
 1203TIP3    H2 3616   5.669   3.231   1.638  0.9184 -0.1054 -0.4353
 1204TIP3   OH2 3617   2.153   5.153   2.151 -0.2928 -0.1466 -0.5460
 1204TIP3    H1 3618   2.094   5.087   2.188  2.5685 -2.0608  0.9570
 1204TIP3    H2 3619   2.114   5.176   2.067 -2.5658 -2.0753 -0.1234
 1205TIP3   OH2 3620   1.891   3.295   3.350 -0.7603 -0.3697  0.2761
 1205TIP3    H1 3621   1.807   3.267   3.386 -0.9390  1.7196  1.6205
 1205TIP3    H2 3622   1.957   3.262   3.411 -0.9548  1.6883  1.7085
 1206TIP3   OH2 3623   2.118   3.062   3.797  0.0715  0.2411 -0.0078
 1206TIP3    H1 3624   2.186   3.057   3.730  1.0769  2.7841  0.7263
 1206TIP3    H2 3625   2.134   2.985   3.852  0.9194 -0.4117 -1.1199
 1207TIP3   OH2 3626   4.522   5.312   4.562 -0.0573 -0.3641 -0.0671
 1207TIP3    H1 3627   4.430   5.327   4.584 -0.2920 -0.9528 -0.5962
 1207TIP3    H2 3628   4.557   5.265   4.637 -0.2419 -0.3269  0.0445
 1208TIP3   OH2 3629   4.053   1.565   2.437  0.2053 -0.4271 -0.4003
 1208TIP3    H1 3630   4.030   1.549   2.346 -0.3598  1.4716 -0.6393
 1208TIP3    H2 3631   3.999   1.504   2.487 -1.9005  0.7032 -1.1953
 1209TIP3   OH2 3632   1.245   3.505   1.446 -0.1777 -0.4390 -0.1969
 1209TIP3    H1 3633   1.222   3.487   1.355 -1.6174  1.4392 -0.2671
 1209TIP3    H2 3634   1.171   3.470   1.496 -0.0301 -0.2555  0.1508
 1210TIP3   OH2 3635   6.089   4.007   1.343  0.0959 -0.3915 -0.5225
 1210TIP3    H1 3636   6.146   4.084   1.341 -1.7399  1.0343 -2.8661
 1210TIP3    H2 3637   6.134   3.943   1.288 -0.0607  0.3713 -1.5691
 1211TIP3   OH2 3638   1.657   2.044   3.227  0.7115 -0.1477 -0.7147
 1211TIP3    H1 3639   1.623   1.991   3.155 -0.2041  0.7547 -0.9599
 1211TIP3    H2 3640   1.751   2.052   3.208  0.5928 -0.4404 -1.4585
 1212TIP3   OH2 3641   5.629   3.648   0.606 -0.3576  0.1540  0.4238
 1212TIP3    H1 3642   5.556   3.693   0.649  1.4386  1.0137  2.8509
 1212TIP3    H2 3643   5.674   3.602   0.677  2.2921  0.8683 -0.6478
 1213TIP3   OH2 3644   0.631   5.716   2.990 -0.3992 -0.0919 -0.8807
 1213TIP3    H1 3645   0.554   5.753   2.947  0.0183 -0.3221 -1.8582
 1213TIP3    H2 3646   0.601   5.632   3.025 -0.5927 -0.2061 -1.3070
 1214TIP3   OH2 3647   0.224   2.199   4.911  0.2326 -0.0379 -0.1434
 1214TIP3    H1 3648   0.131   2.212   4.930  0.8121  2.2575  1.4608
 1214TIP3    H2 3649   0.248   2.272   4.854  1.2935  0.0536  0.3921
 1215TIP3   OH2 3650   2.703   5.539   1.351 -0.9904 -0.4635  0.1531
 1215TIP3    H1 3651   2.740   5.451   1.346  0.2977 -0.0364  1.5066
 1215TIP3    H2 3652   2.779   5.598   1.347 -1.7831  0.5709 -0.1837
 1216TIP3   OH2 3653   5.628   4.573   1.993  0.3202  0.7234 -0.5585
 1216TIP3    H1 3654   5.621   4.482   1.964  0.9886  0.8770 -1.2176
 1216TIP3    H2 3655   5.722   4.589   1.999  0.2025  1.2634 -0.0817
 1217TIP3   OH2 3656   1.780   1.348   1.628  0.1175 -0.5050 -0.0583
 1217TIP3    H1 3657   1.699   1.325   1.581 -0.4592  0.0250  0.6377
 1217TIP3    H2 3658   1.837   1.385   1.561 -0.1305 -1.0858 -0.6003
 1218TIP3   OH2 3659  -0.011   3.491   2.752  0.2002  0.3793 -0.0213
 1218TIP3    H1 3660  -0.035   3.458   2.839 -0.2969 -0.5037 -0.4768
 1218TIP3    H2 3661   0.058   3.555   2.769 -0.7148  1.1246  1.1307
 1219TIP3   OH2 3662   2.531   0.119   0.617 -0.1311 -0.1538  0.6389
 1219TIP3    H1 3663   2.462   0.130   0.552 -0.1961  0.9973  0.8852
 1219TIP3    H2 3664   2.491   0.144   0.700  0.5786  0.5323  0.7866
 1220TIP3   OH2 3665   2.843   5.404   3.811  0.0170  0.4278 -0.2131
 1220TIP3    H1 3666   2.841   5.500   3.809 -0.4087  0.4153 -0.3699
 1220TIP3    H2 3667   2.935   5.382   3.795  0.1837  0.8166  0.1598
 1221TIP3   OH2 3668   2.782   1.607   2.068  0.2636 -0.7693 -0.3816
 1221TIP3    H1 3669   2.853   1.670   2.083 -0.5848  0.3627 -0.9273
 1221TIP3    H2 3670   2.736   1.642   1.991 -1.8037 -0.6286  0.8520
 1222TIP3   OH2 3671   3.466   4.063   3.702 -0.3520 -0.3750  0.2132
 1222TIP3    H1 3672   3.383   4.110   3.692  0.0353  0.5102  1.0441
 1222TIP3    H2 3673   3.493   4.043   3.612 -0.7202  0.6473 -0.1376
 1223TIP3   OH2 3674   0.365   2.187   3.608  0.3085  0.0616 -0.8899
 1223TIP3    H1 3675   0.443   2.141   3.640  0.1818  0.7350  0.4678
 1223TIP3    H2 3676   0.396   2.240   3.535  0.8612 -0.6512 -1.1801
 1224TIP3   OH2 3677   5.204   4.992   2.376  0.1378  0.0786 -0.8184
 1224TIP3    H1 3678   5.225   4.975   2.284  0.2862 -0.3203 -0.7127
 1224TIP3    H2 3679   5.218   4.908   2.419  0.8095  0.4518 -0.2972
 1225TIP3   OH2 3680   5.596   1.364   0.833 -0.3480  0.0503 -0.3482
 1225TIP3    H1 3681   5.569   1.448   0.870 -0.1399 -0.0374  0.0116
 1225TIP3    H2 3682   5.685   1.350   0.868 -0.1391 -0.0230 -0.9040
 1226TIP3   OH2 3683   5.210   3.512   0.208 -0.1155 -0.5746 -0.0868
 1226TIP3    H1 3684   5.258   3.436   0.177  1.8718  0.1941  0.9586
 1226TIP3    H2 3685   5.208   3.571   0.133 -0.1378 -0.9466 -0.3806
 1227TIP3   OH2 3686   0.117   5.464   4.346  0.1614 -0.3163 -0.3930
 1227TIP3    H1 3687   0.158   5.407   4.411 -0.5965  2.0479  2.3807
 1227TIP3    H2 3688   0.190   5.503   4.298  0.8903 -0.2004  0.7907
 1228TIP3   OH2 3689   0.304   5.671   3.912 -0.2367  0.3244 -0.3852
 1228TIP3    H1 3690   0.281   5.763   3.904  1.1062  0.8988  1.8113
 1228TIP3    H2 3691   0.397   5.670   3.934 -0.5412 -1.4747  1.0705
 1229TIP3   OH2 3692   3.647   5.327   3.598 -0.0688  0.0268  0.4474
 1229TIP3    H1 3693   3.649   5.408   3.649 -0.6703  1.2646 -1.3904
 1229TIP3    H2 3694   3.555   5.315   3.575  0.3679  0.4878 -1.7493
 1230TIP3   OH2 3695   0.084   1.347   0.154  0.2862  0.3929 -0.2012
 1230TIP3    H1 3696   0.164   1.350   0.101  0.0704 -0.6147 -0.6100
 1230TIP3    H2 3697   0.035   1.273   0.119 -0.5275  0.5920  0.4829
 1231TIP3   OH2 3698   3.268   1.978   0.954  0.2882 -0.6322 -0.3758
 1231TIP3    H1 3699   3.249   2.056   0.903  1.3696  0.3614  0.6674
 1231TIP3    H2 3700   3.326   2.009   1.024 -2.0202 -1.6728  2.1642
 1232TIP3   OH2 3701   4.861   0.964   3.908  0.2921 -0.5541  0.0880
 1232TIP3    H1 3702   4.848   1.052   3.944 -0.1524 -1.0816  1.2620
 1232TIP3    H2 3703   4.774   0.925   3.907  0.6039 -1.2857  0.4019
 1233TIP3   OH2 3704   3.997   2.984   1.845 -0.0868 -0.0202 -0.2317
 1233TIP3    H1 3705   3.928   2.988   1.779 -0.9759 -0.0161  0.6627
 1233TIP3    H2 3706   3.997   2.893   1.875 -0.3957  0.1974  0.4622
 1234TIP3   OH2 3707   4.097   4.600   0.588  0.3262  0.8723 -0.9698
 1234TIP3    H1 3708   4.143   4.525   0.551 -0.3677 -0.7932  1.3249
 1234TIP3    H2 3709   4.160   4.672   0.584  0.6405  0.5605 -4.2318
 1235TIP3   OH2 3710   5.577   3.611   2.597 -0.3973 -0.3367 -0.9693
 1235TIP3    H1 3711   5.643   3.621   2.528 -1.0269  0.7988 -1.4222
 1235TIP3    H2 3712   5.558   3.700   2.627 -1.5207 -0.6595 -0.6572
 1236TIP3   OH2 3713   0.484   0.709   0.187  0.6301 -0.3388  0.0010
 1236TIP3    H1 3714   0.443   0.792   0.210  1.0251  0.1399 -0.9676
 1236TIP3    H2 3715   0.515   0.673   0.270  0.4110  0.4572  0.4290
 1237TIP3   OH2 3716   5.237   4.464   1.808  0.2210 -0.5506 -0.4022
 1237TIP3    H1 3717   5.277   4.532   1.862 -0.1022 -0.4834 -0.2408
 1237TIP3    H2 3718   5.151   4.500   1.784  0.3691 -0.5702 -0.9828
 1238TIP3   OH2 3719   5.796   0.880   1.269  0.3844  0.0548  0.1947
 1238TIP3    H1 3720   5.758   0.799   1.302 -4.0689  2.3887  1.6728
 1238TIP3    H2 3721   5.830   0.924   1.348 -1.0312  1.2921  0.1613
 1239TIP3   OH2 3722   4.919   2.719   0.771 -0.5850 -0.1055 -0.6289
 1239TIP3    H1 3723   4.906   2.690   0.680  1.5918  0.9452 -1.3410
 1239TIP3    H2 3724   4.900   2.642   0.824 -2.7539 -0.5211 -1.8643
 1240TIP3   OH2 3725   0.388   5.301   4.007 -0.2351  0.5565  0.2378
 1240TIP3    H1 3726   0.368   5.257   4.089 -3.4970  1.5306  0.1233
 1240TIP3    H2 3727   0.465   5.355   4.026 -0.4120  0.1300  2.3826
 1241TIP3   OH2 3728   0.527   0.852   3.168 -0.0381  0.7627  0.1948
 1241TIP3    H1 3729   0.614   0.815   3.172  0.3282  1.4815 -0.5895
 1241TIP3    H2 3730   0.482   0.801   3.101 -0.0829  0.6619  0.3016
 1242TIP3   OH2 3731   4.594   0.885   3.860 -0.2835 -0.6887 -0.0237
 1242TIP3    H1 3732   4.610   0.791   3.848 -0.1553 -0.7729  0.7109
 1242TIP3    H2 3733   4.604   0.923   3.773 -1.0666 -1.4639 -0.4613
 1243TIP3   OH2 3734   5.191   2.940   3.377  0.3506 -0.1998  0.0844
 1243TIP3    H1 3735   5.107   2.904   3.406 -0.2324  0.2596 -0.9843
 1243TIP3    H2 3736   5.251   2.923   3.450 -0.3746 -1.5856  0.3937
 1244TIP3   OH2 3737   5.530   4.891   3.737 -0.2384  0.4072 -0.8530
 1244TIP3    H1 3738   5.609   4.925   3.696  1.1977 -0.1944  1.2533
 1244TIP3    H2 3739   5.535   4.920   3.828 -1.0901 -1.7791 -0.0255
 1245TIP3   OH2 3740   1.787   0.646   0.486 -0.1202 -0.1569 -0.2354
 1245TIP3    H1 3741   1.840   0.622   0.409 -0.4717 -0.4558 -0.3901
 1245TIP3    H2 3742   1.849   0.686   0.547  0.0561  0.6559 -0.9281
 1246TIP3   OH2 3743   5.307   3.242   0.566  0.1416 -0.1933  0.0726
 1246TIP3    H1 3744   5.314   3.214   0.475  1.1344  1.6947 -0.4670
 1246TIP3    H2 3745   5.308   3.160   0.616 -0.2157 -1.2470 -1.5838
 1247TIP3   OH2 3746   2.012   1.831   2.363  0.2917 -0.3694 -0.6609
 1247TIP3    H1 3747   2.042   1.839   2.272  1.4121  0.4088 -0.2433
 1247TIP3    H2 3748   1.939   1.893   2.370  0.6183  0.0437 -0.8669
 1248TIP3   OH2 3749   3.110   0.924   2.791  0.6139 -0.2777  0.0371
 1248TIP3    H1 3750   3.189   0.871   2.798  1.8432  1.6115  1.6722
 1248TIP3    H2 3751   3.085   0.943   2.882 -2.1433 -1.3446 -0.4079
 1249TIP3   OH2 3752   4.580   2.630   0.213 -0.1391 -0.0192  0.5406
 1249TIP3    H1 3753   4.560   2.600   0.124 -0.8503 -1.3551  1.1096
 1249TIP3    H2 3754   4.557   2.722   0.213 -1.2896 -0.2827 -0.3314
 1250TIP3   OH2 3755   6.085   3.408   0.827  0.2974  0.0879 -0.3946
 1250TIP3    H1 3756   6.092   3.495   0.867 -0.5322 -1.0364  2.4976
 1250TIP3    H2 3757   5.996   3.406   0.791 -0.2149 -0.0092  0.8282
 1251TIP3   OH2 3758   5.903   4.467   3.180  0.1671  0.4064 -0.6979
 1251TIP3    H1 3759   5.881   4.379   3.212  0.2753  0.3481 -0.7794
 1251TIP3    H2 3760   5.941   4.511   3.256  0.9471  0.0796 -0.8831
 1252TIP3   OH2 3761   4.891   1.260   3.961  0.0696  0.0859  0.0646
 1252TIP3    H1 3762   4.815   1.293   4.007 -0.0425  0.9199 -0.6902
 1252TIP3    H2 3763   4.887   1.301   3.874  1.6100  0.5148  0.1579
 1253TIP3   OH2 3764   2.147   0.206   5.043 -0.2496  0.3802 -0.0907
 1253TIP3    H1 3765   2.153   0.294   5.080  0.0888 -0.0793  1.0160
 1253TIP3    H2 3766   2.068   0.206   4.990 -1.0030  0.9574  1.0145
 1254TIP3   OH2 3767   3.228   2.788   5.021  0.0152 -0.0310 -0.5281
 1254TIP3    H1 3768   3.236   2.876   5.058  0.0071  0.3329 -1.3511
 1254TIP3    H2 3769   3.292   2.787   4.950  2.2295 -1.7369  1.3518
 1255TIP3   OH2 3770   4.476   2.509   0.464 -0.6924 -0.6266 -0.4239
 1255TIP3    H1 3771   4.518   2.541   0.384  3.0504 -3.1789  0.2571
 1255TIP3    H2 3772   4.499   2.574   0.530 -1.5342  0.1241 -0.8359
 1256TIP3   OH2 3773   2.513   3.155   3.779 -0.3995  0.4854 -0.0258
 1256TIP3    H1 3774   2.466   3.097   3.720  0.4443 -0.4066  0.1637
 1256TIP3    H2 3775   2.588   3.186   3.728  0.8000 -0.9373  0.7958
 1257TIP3   OH2 3776   0.179   2.577   0.043  0.1990 -0.0176 -0.3281
 1257TIP3    H1 3777   0.121   2.653   0.056  0.8738  0.4796 -0.1462
 1257TIP3    H2 3778   0.126   2.514  -0.006 -0.6811  0.1928  0.3384
 1258TIP3   OH2 3779   1.575   5.424   0.775 -0.2734 -0.0567 -0.5049
 1258TIP3    H1 3780   1.547   5.405   0.686 -0.0972 -1.9467 -0.2008
 1258TIP3    H2 3781   1.641   5.358   0.794 -0.0068  0.5696  0.8933
 1259TIP3   OH2 3782   1.215   1.637   3.233  0.3986 -0.1418  0.3818
 1259TIP3    H1 3783   1.191   1.729   3.223 -0.0665 -0.2464  0.5106
 1259TIP3    H2 3784   1.304   1.639   3.269  0.3424  0.2580  0.5051
 1260TIP3   OH2 3785   3.821   5.296   3.888 -0.4125  0.5652  0.1240
 1260TIP3    H1 3786   3.793   5.361   3.952  0.1293 -1.5161  2.6827
 1260TIP3    H2 3787   3.903   5.262   3.924 -0.1073 -0.7471 -1.6937
 1261TIP3   OH2 3788   3.433   1.939   4.525  0.2117  0.0594  0.1276
 1261TIP3    H1 3789   3.404   1.880   4.595 -0.8156  0.6638  0.2317
 1261TIP3    H2 3790   3.527   1.948   4.538  0.6338 -2.4138 -0.5404
 1262TIP3   OH2 3791   4.525   2.433   0.997 -0.2171  0.3449 -0.5461
 1262TIP3    H1 3792   4.534   2.337   0.992 -0.0466  0.3107  0.3251
 1262TIP3    H2 3793   4.436   2.450   0.965  0.1158 -0.0013 -1.7142
 1263TIP3   OH2 3794   0.124   4.523   0.931 -0.1203  0.2849  0.2852
 1263TIP3    H1 3795   0.168   4.598   0.892 -0.2957 -0.3796 -1.2765
 1263TIP3    H2 3796   0.101   4.467   0.857 -0.7333 -0.9198  1.3306
 1264TIP3   OH2 3797   3.602   5.248   0.551 -0.0814 -0.0682 -0.1743
 1264TIP3    H1 3798   3.609   5.213   0.462  0.3507  0.9138 -0.5454
 1264TIP3    H2 3799   3.540   5.190   0.595 -1.6951  0.4843 -1.6325
 1265TIP3   OH2 3800   5.457   0.495   1.859  0.0219  0.5125  0.2510
 1265TIP3    H1 3801   5.417   0.436   1.795  0.8709  0.9400 -0.6971
 1265TIP3    H2 3802   5.386   0.514   1.921 -0.2389 -1.5535  0.6439
 1266TIP3   OH2 3803   5.950   2.211   3.304  0.2349 -0.7369  0.3690
 1266TIP3    H1 3804   6.000   2.292   3.303  0.0799 -0.6431  0.2096
 1266TIP3    H2 3805   5.887   2.222   3.375 -0.2252 -0.4493 -0.0764
 1267TIP3   OH2 3806   4.840   3.956   4.032  0.2004 -0.3356 -0.7433
 1267TIP3    H1 3807   4.782   4.001   3.971 -2.0870 -1.4974  0.4742
 1267TIP3    H2 3808   4.875   4.025   4.088 -1.2852  0.2165 -0.4778
 1268TIP3   OH2 3809   2.808   3.407   2.446 -0.6464 -0.0837  0.2141
 1268TIP3    H1 3810   2.797   3.493   2.486  0.4179  0.3580 -0.3807
 1268TIP3    H2 3811   2.742   3.404   2.377 -1.1803 -0.0486  0.7232
 1269TIP3   OH2 3812   2.631   1.054   5.118  0.9136 -0.1683  0.1626
 1269TIP3    H1 3813   2.608   1.044   5.211 -1.6406  1.7464 -0.1485
 1269TIP3    H2 3814   2.674   1.140   5.114 -0.3198  0.4355 -0.5918
 1270TIP3   OH2 3815   1.353   2.501   5.120 -0.4087  0.4329 -0.2868
 1270TIP3    H1 3816   1.398   2.451   5.052 -1.1839 -2.0683  0.9089
 1270TIP3    H2 3817   1.335   2.437   5.189 -1.7660  2.3295  1.2412
 1271TIP3   OH2 3818   0.889   4.460   3.356  0.2704 -0.0829 -0.0059
 1271TIP3    H1 3819   0.869   4.473   3.263 -0.4207 -0.1916  0.1184
 1271TIP3    H2 3820   0.824   4.513   3.402  0.4324 -0.2513  0.4216
 1272TIP3   OH2 3821   4.618   3.209   0.857  0.6239 -0.4043  0.1690
 1272TIP3    H1 3822   4.679   3.275   0.823  1.0675 -1.3131 -0.8661
 1272TIP3    H2 3823   4.642   3.201   0.950  0.7883  0.6236  0.2344
 1273TIP3   OH2 3824   2.128   4.950   3.765  0.4801  0.8054  0.3571
 1273TIP3    H1 3825   2.223   4.962   3.775  0.6927 -0.4920  0.0901
 1273TIP3    H2 3826   2.090   4.997   3.839  1.4317  0.0144  1.3871
 1274TIP3   OH2 3827   5.890   4.414   0.886  0.3193  0.4330  0.0274
 1274TIP3    H1 3828   5.919   4.372   0.966  2.2141 -1.5263 -1.5726
 1274TIP3    H2 3829   5.966   4.464   0.855 -0.0390  0.3347 -1.0561
 1275TIP3   OH2 3830   0.784   4.139   0.630 -0.3249  0.2019  0.1583
 1275TIP3    H1 3831   0.723   4.066   0.633 -1.0653  0.7090 -1.4095
 1275TIP3    H2 3832   0.870   4.099   0.641 -0.8559 -0.5858  1.8492
 1276TIP3   OH2 3833   5.849   3.920   3.293 -0.1664  0.8094 -0.6407
 1276TIP3    H1 3834   5.942   3.929   3.312  0.1526 -2.9438  0.3799
 1276TIP3    H2 3835   5.845   3.915   3.197  0.6949  0.9587 -0.6925
 1277TIP3   OH2 3836   2.274   2.002   1.109  0.8653 -0.0879  0.0864
 1277TIP3    H1 3837   2.327   2.043   1.177  0.2468  0.7222  0.0960
 1277TIP3    H2 3838   2.187   2.042   1.119  0.5670 -0.5236 -0.6877
 1278TIP3   OH2 3839   0.079   5.284   2.726  0.0113 -0.1354  0.1618
 1278TIP3    H1 3840   0.025   5.206   2.733  1.0641 -0.9667 -0.7977
 1278TIP3    H2 3841   0.134   5.270   2.649  0.3920  1.4411  0.1031
 1279TIP3   OH2 3842   2.664   3.294   0.443 -0.7530  0.1669 -0.1632
 1279TIP3    H1 3843   2.751   3.330   0.464 -0.4346 -0.4903 -0.3391
 1279TIP3    H2 3844   2.654   3.309   0.349 -0.4926 -0.4548 -0.2963
 1280TIP3   OH2 3845   2.383   4.275   2.891  0.2772  0.0849  0.2960
 1280TIP3    H1 3846   2.291   4.280   2.917  0.0332 -3.3112  0.4975
 1280TIP3    H2 3847   2.383   4.290   2.797 -0.8940 -2.2924 -0.1441
 1281TIP3   OH2 3848   6.035   1.122   4.470  0.2965 -0.4113  0.4294
 1281TIP3    H1 3849   6.038   1.207   4.512 -3.0031 -0.8222  1.7381
 1281TIP3    H2 3850   6.045   1.059   4.541  0.2256 -1.1408 -0.1910
 1282TIP3   OH2 3851   6.108   3.980   2.952 -0.2449  0.3218  0.3083
 1282TIP3    H1 3852   6.158   3.902   2.978  0.7940  0.4783 -1.0589
 1282TIP3    H2 3853   6.116   3.982   2.856  0.9434  2.8629  0.3798
 1283TIP3   OH2 3854   1.925   4.294   1.831 -0.5051  0.5517  0.0446
 1283TIP3    H1 3855   1.943   4.235   1.758 -2.1357 -1.0972  0.9037
 1283TIP3    H2 3856   1.997   4.358   1.828  1.1197 -1.2217 -1.1630
 1284TIP3   OH2 3857   5.584   4.290   2.008  0.5421 -0.2854  0.1251
 1284TIP3    H1 3858   5.489   4.293   2.020  0.5483  1.6715 -0.0290
 1284TIP3    H2 3859   5.620   4.328   2.089  1.1349 -0.0017 -0.2610
 1285TIP3   OH2 3860   3.292   1.171   4.207  0.5259 -0.5151  0.0605
 1285TIP3    H1 3861   3.373   1.121   4.203  1.5044  1.0506 -2.0761
 1285TIP3    H2 3862   3.225   1.107   4.228  1.8469 -2.5452 -1.4658
 1286TIP3   OH2 3863   2.071   3.594   3.064  0.3957 -0.3403  0.3748
 1286TIP3    H1 3864   2.101   3.609   2.974  1.2928  1.3154  0.9005
 1286TIP3    H2 3865   1.997   3.534   3.055  0.6416 -0.4378 -1.4357
 1287TIP3   OH2 3866   4.725   5.782   4.595  0.2298 -0.0695  0.1001
 1287TIP3    H1 3867   4.679   5.770   4.678  0.7837 -1.6973  0.2201
 1287TIP3    H2 3868   4.684   5.719   4.535 -0.7141  1.6482 -1.1358
 1288TIP3   OH2 3869   3.058   3.313   4.498 -0.1858  0.1339  0.3753
 1288TIP3    H1 3870   3.149   3.286   4.499  0.1874  1.2059  2.4559
 1288TIP3    H2 3871   3.012   3.247   4.550 -0.8410 -0.9775 -1.5239
 1289TIP3   OH2 3872   5.024   4.704   2.833 -0.0961 -0.0246 -0.0064
 1289TIP3    H1 3873   4.930   4.695   2.821 -0.4259  1.1003  1.5171
 1289TIP3    H2 3874   5.061   4.627   2.789 -1.5343  0.5985 -2.4958
 1290TIP3   OH2 3875   1.689   3.420   4.529 -0.2936  0.0062  0.1639
 1290TIP3    H1 3876   1.701   3.341   4.582  0.3898 -1.8146 -2.5040
 1290TIP3    H2 3877   1.770   3.470   4.541 -1.3504  1.2725  3.1237
 1291TIP3   OH2 3878   5.691   0.791   5.137 -0.7416 -0.7627  0.3542
 1291TIP3    H1 3879   5.654   0.776   5.050 -0.9660  0.9148  0.1286
 1291TIP3    H2 3880   5.656   0.876   5.163  0.5761 -0.5198  1.4302
 1292TIP3   OH2 3881   1.323   0.896   4.417  0.0018 -0.2621 -0.1932
 1292TIP3    H1 3882   1.356   0.931   4.334 -2.6129  0.9910 -0.8174
 1292TIP3    H2 3883   1.293   0.808   4.395  0.4200 -0.3946 -0.2536
 1293TIP3   OH2 3884   5.698   2.066   1.308 -0.0915  0.1280  0.0091
 1293TIP3    H1 3885   5.711   2.025   1.394  0.0727 -0.2796 -0.2101
 1293TIP3    H2 3886   5.619   2.119   1.319 -0.0645  0.0872  0.4182
 1294TIP3   OH2 3887   5.903   4.493   2.053 -0.0508  0.2066  0.4771
 1294TIP3    H1 3888   5.935   4.420   2.105 -0.3301 -0.6921 -0.5824
 1294TIP3    H2 3889   5.961   4.566   2.076  0.3112 -0.3776  1.4452
 1295TIP3   OH2 3890   2.464   0.916   2.877 -0.4002  0.3785 -0.5385
 1295TIP3    H1 3891   2.435   0.829   2.906  0.4957 -0.4404 -1.9888
 1295TIP3    H2 3892   2.383   0.963   2.859 -1.0081 -1.6442 -3.8840
 1296TIP3   OH2 3893   0.933   3.171   3.028 -0.5773 -0.2847 -0.0065
 1296TIP3    H1 3894   0.880   3.136   3.098 -0.4398 -1.3296 -0.4045
 1296TIP3    H2 3895   0.974   3.250   3.065 -3.0910  1.1048  0.0107
 1297TIP3   OH2 3896   0.457   1.350   5.077  0.1997  0.0352 -0.2388
 1297TIP3    H1 3897   0.511   1.367   5.154 -0.7735  1.1135  0.2391
 1297TIP3    H2 3898   0.473   1.258   5.056  0.9731 -0.0995  0.8554
 1298TIP3   OH2 3899   1.140   0.310   2.592 -0.6300  0.4472  0.3055
 1298TIP3    H1 3900   1.045   0.299   2.584 -1.0834  3.2027  0.7402
 1298TIP3    H2 3901   1.163   0.267   2.675 -1.2798 -1.0640 -0.2581
 1299TIP3   OH2 3902   1.472   1.589   0.096  0.7642 -0.0372  0.4013
 1299TIP3    H1 3903   1.389   1.570   0.140  0.0084  0.8830 -0.5718
 1299TIP3    H2 3904   1.448   1.600   0.004  1.9543  0.3379  0.1236
 1300TIP3   OH2 3905   2.490   1.106   2.380  0.6180  0.0828  0.8269
 1300TIP3    H1 3906   2.551   1.054   2.432 -0.2582  1.5333  3.5215
 1300TIP3    H2 3907   2.538   1.185   2.357  0.0928  0.8353  2.2010
 1301TIP3   OH2 3908   6.203   2.034   0.118 -0.1297 -0.1404 -0.4758
 1301TIP3    H1 3909   6.156   1.963   0.074 -0.5300 -0.0552 -0.1917
 1301TIP3    H2 3910   6.272   1.989   0.167  0.6622 -0.1902 -1.6090
 1302TIP3   OH2 3911   3.660   0.128   4.383  0.5075  0.5752  0.0650
 1302TIP3    H1 3912   3.676   0.105   4.474  0.8353  0.3410 -0.0523
 1302TIP3    H2 3913   3.719   0.202   4.366  0.3597  0.6963  0.0785
 1303TIP3   OH2 3914   2.659   0.752   1.437 -0.8252 -0.0865  0.4533
 1303TIP3    H1 3915   2.604   0.796   1.502 -0.0938 -0.2906  1.2327
 1303TIP3    H2 3916   2.676   0.818   1.371  0.5880  0.9767  1.8094
 1304TIP3   OH2 3917   0.142   5.166   0.134  0.1808  0.1407  0.0927
 1304TIP3    H1 3918   0.058   5.172   0.088  0.1287  1.4042  0.3105
 1304TIP3    H2 3919   0.203   5.131   0.069  0.1029  1.8880 -0.9771
 1305TIP3   OH2 3920   0.712   2.301   2.118 -0.2845  0.1772  0.6599
 1305TIP3    H1 3921   0.762   2.363   2.066 -2.1108  0.1651 -1.2244
 1305TIP3    H2 3922   0.717   2.219   2.069 -2.7730  0.3857 -0.1092
 1306TIP3   OH2 3923   4.389   3.874   3.276  0.0239 -0.1876 -0.2335
 1306TIP3    H1 3924   4.403   3.787   3.312  0.3383 -0.8382 -1.8198
 1306TIP3    H2 3925   4.469   3.922   3.295 -0.5343  0.1148  1.5269
 1307TIP3   OH2 3926   3.432   2.515   1.318  0.4596 -0.2338 -0.1207
 1307TIP3    H1 3927   3.480   2.561   1.388 -1.9373  1.3100  0.6140
 1307TIP3    H2 3928   3.475   2.544   1.237  1.4962  0.1784  0.5470
 1308TIP3   OH2 3929   1.136   2.509   2.646  0.1857 -0.3123 -0.3180
 1308TIP3    H1 3930   1.144   2.489   2.553  0.9327  0.8639 -0.5313
 1308TIP3    H2 3931   1.196   2.583   2.660  0.2845 -0.6353  1.1479
 1309TIP3   OH2 3932   1.086   1.628   4.971 -0.2393 -0.4865  0.1328
 1309TIP3    H1 3933   1.072   1.537   4.995  1.5681 -0.6697  0.6294
 1309TIP3    H2 3934   1.107   1.672   5.053 -0.8150  0.3372 -0.1414
 1310TIP3   OH2 3935   4.620   0.320   5.001  0.0729 -0.5070 -0.3614
 1310TIP3    H1 3936   4.568   0.370   5.064 -0.0451 -0.0263 -0.8336
 1310TIP3    H2 3937   4.565   0.316   4.923  0.3689 -0.7784 -0.5551
 1311TIP3   OH2 3938   5.954   5.946   1.117  0.5703  0.4908  0.1627
 1311TIP3    H1 3939   5.932   5.854   1.134 -0.3255  1.0743  2.4847
 1311TIP3    H2 3940   5.929   5.992   1.197  2.5831  2.5238 -0.2710
 1312TIP3   OH2 3941   1.439   3.429   4.436 -0.6605 -0.1969  0.5421
 1312TIP3    H1 3942   1.529   3.429   4.469 -0.0156  0.0775 -1.1210
 1312TIP3    H2 3943   1.435   3.355   4.375 -1.3066  0.2972 -0.0359
 1313TIP3   OH2 3944   3.165   2.296   1.607  0.2078 -0.3945  0.3537
 1313TIP3    H1 3945   3.230   2.240   1.562  0.8443  0.3134  0.3812
 1313TIP3    H2 3946   3.191   2.294   1.699  0.9310  0.8452  0.2011
 1314TIP3   OH2 3947   0.020   5.659   2.298 -0.5548  0.0775 -0.1277
 1314TIP3    H1 3948   0.033   5.665   2.204  0.1291 -0.8466 -0.1062
 1314TIP3    H2 3949   0.078   5.726   2.335 -1.2138  0.8011 -0.3689
 1315TIP3   OH2 3950   5.861   4.590   2.917  0.7114  0.3178 -0.5705
 1315TIP3    H1 3951   5.867   4.550   3.004 -1.5695 -0.2180 -0.6144
 1315TIP3    H2 3952   5.942   4.562   2.873  1.5735  0.0198  1.1049
 1316TIP3   OH2 3953   1.668   5.686   2.809 -0.1646  0.2706 -0.2618
 1316TIP3    H1 3954   1.576   5.677   2.784 -0.9068  3.1389  1.0599
 1316TIP3    H2 3955   1.693   5.773   2.776  1.6736  0.1027  0.5854
 1317TIP3   OH2 3956   5.794   3.666   3.438 -0.1240  0.0246 -0.3967
 1317TIP3    H1 3957   5.729   3.616   3.389  0.2027 -0.2413 -0.5611
 1317TIP3    H2 3958   5.812   3.742   3.383 -0.9657  0.5752  0.0667
 1318TIP3   OH2 3959   4.700   5.581   1.179 -0.0131  0.1854  0.4402
 1318TIP3    H1 3960   4.664   5.664   1.148 -0.1394  0.2676  0.8010
 1318TIP3    H2 3961   4.792   5.583   1.153 -0.2741 -0.0408 -0.5132
 1319TIP3   OH2 3962   6.337   3.390   4.075  0.3696 -0.2956  0.1855
 1319TIP3    H1 3963   6.386   3.366   4.154  0.0651  0.7268  0.7056
 1319TIP3    H2 3964   6.250   3.353   4.089  0.7875 -1.5599 -0.4481
 1320TIP3   OH2 3965   4.170   5.849   3.460  0.3228  0.2412  0.4784
 1320TIP3    H1 3966   4.250   5.808   3.494  0.2761  0.1533  0.4826
 1320TIP3    H2 3967   4.102   5.824   3.523 -0.2101 -1.6856 -0.7592
 1321TIP3   OH2 3968   6.105   3.227   4.142 -0.4459  0.4504  0.1999
 1321TIP3    H1 3969   6.077   3.151   4.193  1.1455 -0.8166 -0.7428
 1321TIP3    H2 3970   6.059   3.219   4.059 -0.4760  0.6777  0.1937
 1322TIP3   OH2 3971   2.466   3.537   1.277  0.3657 -0.3723  0.5173
 1322TIP3    H1 3972   2.394   3.510   1.336 -0.0348 -0.4152  0.0164
 1322TIP3    H2 3973   2.422   3.556   1.194  0.7628  0.9553  0.6024
 1323TIP3   OH2 3974   5.189   3.375   3.740  0.0518 -0.2093 -0.0810
 1323TIP3    H1 3975   5.176   3.442   3.673  0.0109 -0.0903  0.0470
 1323TIP3    H2 3976   5.283   3.358   3.739  0.1382  0.2323  0.2582
 1324TIP3   OH2 3977   1.471   2.154   1.327  0.5056 -0.3157  0.0418
 1324TIP3    H1 3978   1.408   2.098   1.283 -1.4128  0.4312  1.6844
 1324TIP3    H2 3979   1.421   2.196   1.397  2.8321  0.3708  1.3934
 1325TIP3   OH2 3980   6.257   5.206   2.172  0.2800 -0.1238 -0.5065
 1325TIP3    H1 3981   6.246   5.117   2.138 -1.1272 -0.1107 -0.1784
 1325TIP3    H2 3982   6.255   5.195   2.267 -1.6083  0.3829 -0.4402
 1326TIP3   OH2 3983   2.962   0.004   3.609 -0.2879  0.6004  0.2783
 1326TIP3    H1 3984   2.994   0.064   3.541 -1.0810  0.3231 -0.3532
 1326TIP3    H2 3985   3.041  -0.022   3.656  0.5751 -0.6660 -1.7155
 1327TIP3   OH2 3986   2.451   2.076   2.555  0.5623  0.3192  0.1388
 1327TIP3    H1 3987   2.429   2.066   2.648  0.6648 -0.1930  0.1076
 1327TIP3    H2 3988   2.398   2.011   2.510  1.6092 -0.4755  0.0009
 1328TIP3   OH2 3989   6.078   0.182   1.385  0.3466 -0.1154  0.3301
 1328TIP3    H1 3990   6.099   0.265   1.342  1.5872  0.9673  2.8625
 1328TIP3    H2 3991   6.007   0.203   1.445 -1.4817 -1.6370 -1.1861
 1329TIP3   OH2 3992   1.701   3.038   3.342 -0.1695  0.0215  0.1466
 1329TIP3    H1 3993   1.646   2.959   3.341 -2.1105  1.2760 -1.5637
 1329TIP3    H2 3994   1.668   3.090   3.416 -1.6798  0.9675 -1.1381
 1330TIP3   OH2 3995   5.382   3.072   5.153 -0.4744  0.2436 -0.7227
 1330TIP3    H1 3996   5.297   3.029   5.154 -1.3142  1.8381 -0.9879
 1330TIP3    H2 3997   5.377   3.134   5.081  1.0613  0.1120 -0.9790
 1331TIP3   OH2 3998   4.675   3.419   2.471 -0.1614 -0.1678 -0.2362
 1331TIP3    H1 3999   4.610   3.449   2.534 -0.4945 -1.2899 -0.0324
 1331TIP3    H2 4000   4.750   3.477   2.485 -1.2372  1.4326 -0.7865
 1332TIP3   OH2 4001   1.763   0.900   4.375 -0.0062  0.0766  0.4367
 1332TIP3    H1 4002   1.673   0.915   4.344  0.0864  0.3430  0.2968
 1332TIP3    H2 4003   1.815   0.966   4.330  0.5447 -1.1719 -0.8091
 1333TIP3   OH2 4004   4.562   3.703   0.150 -0.9608 -0.1394  0.0341
 1333TIP3    H1 4005   4.492   3.768   0.144 -0.0213  0.9694  0.8916
 1333TIP3    H2 4006   4.566   3.680   0.243 -0.8245 -0.9331 -0.1571
 1334TIP3   OH2 4007   6.115   2.290   3.732  0.4320  0.1077 -0.3061
 1334TIP3    H1 4008   6.044   2.351   3.714  0.8836  0.1863 -2.0323
 1334TIP3    H2 4009   6.195   2.338   3.710  0.7337 -1.4362 -3.1002
 1335TIP3   OH2 4010   6.232   5.471   2.143  0.4662  0.1035 -0.0563
 1335TIP3    H1 4011   6.261   5.381   2.157  2.4688  0.6477 -0.4277
 1335TIP3    H2 4012   6.245   5.514   2.227 -1.9436 -0.2525  0.5819
 1336TIP3   OH2 4013   1.037   2.951   3.628 -0.3423  0.5482 -0.1774
 1336TIP3    H1 4014   1.020   2.965   3.535  2.1321 -0.9340 -0.9644
 1336TIP3    H2 4015   1.072   2.861   3.632 -2.4814 -0.2892  2.5213
 1337TIP3   OH2 4016   1.945   0.824   4.047 -0.1704 -0.1241  0.1731
 1337TIP3    H1 4017   1.882   0.762   4.084  0.4014 -1.4014 -0.9366
 1337TIP3    H2 4018   2.017   0.826   4.110  0.1362 -1.1633 -0.1328
 1338TIP3   OH2 4019   4.543   5.877   2.052 -0.3614 -0.2955  0.0024
 1338TIP3    H1 4020   4.501   5.795   2.077 -0.9851  0.2049  0.6353
 1338TIP3    H2 4021   4.507   5.942   2.112  2.0049  0.0087  1.2187
 1339TIP3   OH2 4022   0.209   0.998   1.568 -0.2245  0.6735 -0.1037
 1339TIP3    H1 4023   0.113   0.991   1.570 -0.1210 -0.7632  0.4828
 1339TIP3    H2 4024   0.240   0.909   1.580  1.2079  1.1370 -0.2122
 1340TIP3   OH2 4025   1.216   3.490   4.607 -0.3668 -1.0687 -0.3574
 1340TIP3    H1 4026   1.176   3.407   4.582 -0.3723 -0.4762 -2.5470
 1340TIP3    H2 4027   1.305   3.485   4.573 -0.0261 -0.5715  0.4310
 1341TIP3   OH2 4028   4.726   0.384   0.537  0.0621  0.5792  0.5683
 1341TIP3    H1 4029   4.657   0.368   0.473  0.1632  1.0688  0.3317
 1341TIP3    H2 4030   4.807   0.360   0.492  0.2313  1.8951  0.1473
 1342TIP3   OH2 4031   1.271   5.074   4.684 -0.2477 -0.3959  0.1984
 1342TIP3    H1 4032   1.325   5.068   4.605 -1.9815 -0.0985 -1.0787
 1342TIP3    H2 4033   1.294   4.997   4.735  1.1008 -0.4626 -0.4766
 1343TIP3   OH2 4034   0.385   5.746   0.931  0.3378 -0.5303 -0.0179
 1343TIP3    H1 4035   0.333   5.826   0.925  2.0003  0.5876 -0.2989
 1343TIP3    H2 4036   0.452   5.756   0.863  1.4325 -1.4954  0.8615
 1344TIP3   OH2 4037   1.765   0.090   0.862  0.1107 -0.3492  0.4231
 1344TIP3    H1 4038   1.842   0.136   0.896  0.8423 -0.5710 -0.8588
 1344TIP3    H2 4039   1.733   0.039   0.937  1.7555 -0.9447  0.7754
 1345TIP3   OH2 4040   6.266   2.750   1.394  0.0172 -0.1229 -0.3048
 1345TIP3    H1 4041   6.272   2.698   1.474 -0.0313  0.3021 -0.0176
 1345TIP3    H2 4042   6.356   2.757   1.363  0.1801  0.5419  0.2680
 1346TIP3   OH2 4043   4.006   4.390   2.374  0.2553  0.0220 -0.0191
 1346TIP3    H1 4044   3.924   4.421   2.411 -0.2373  0.0333 -1.0927
 1346TIP3    H2 4045   4.023   4.447   2.300  0.9840 -0.2900 -0.1073
 1347TIP3   OH2 4046   0.884   2.359   0.171  0.2405 -0.0583 -0.4078
 1347TIP3    H1 4047   0.855   2.270   0.191  0.0963 -0.1578 -1.0366
 1347TIP3    H2 4048   0.810   2.415   0.197  0.1378 -0.1691 -0.4588
 1348TIP3   OH2 4049   3.261   5.953   2.371 -0.3213  0.0250 -0.2971
 1348TIP3    H1 4050   3.238   5.987   2.458 -0.8756 -1.2614  0.0813
 1348TIP3    H2 4051   3.285   5.862   2.386  0.4197  0.0205 -1.3882
 1349TIP3   OH2 4052   4.174   2.658   1.903  0.7235  0.0233 -0.2504
 1349TIP3    H1 4053   4.158   2.594   1.972  2.7877  0.0707  0.3326
 1349TIP3    H2 4054   4.091   2.662   1.855 -0.0148 -1.7780  0.7537
 1350TIP3   OH2 4055   2.530   3.953   3.355 -0.0171 -0.7656  0.2978
 1350TIP3    H1 4056   2.625   3.960   3.368 -0.0343  0.5091 -0.1605
 1350TIP3    H2 4057   2.493   3.958   3.443  0.2275  1.0602  0.3191
 1351TIP3   OH2 4058   1.346   0.616   2.348  0.3651  0.7543 -0.0547
 1351TIP3    H1 4059   1.311   0.538   2.305  0.9906 -0.2871  1.2410
 1351TIP3    H2 4060   1.420   0.643   2.293  0.8786 -0.2910  0.0914
 1352TIP3   OH2 4061   3.427   5.674   2.959  0.4310 -1.0215 -0.1781
 1352TIP3    H1 4062   3.504   5.726   2.934 -0.5394 -0.1019 -1.3618
 1352TIP3    H2 4063   3.355   5.714   2.912 -0.8851 -1.5643  1.3007
 1353TIP3   OH2 4064   4.387   2.130   2.945 -0.1118 -0.1543  0.2292
 1353TIP3    H1 4065   4.393   2.133   2.849 -0.1286 -0.6640  0.2097
 1353TIP3    H2 4066   4.461   2.077   2.972  0.0527  0.2220  0.5206
 1354TIP3   OH2 4067   5.079   3.577   0.426 -0.1722  0.6047 -0.0563
 1354TIP3    H1 4068   5.146   3.567   0.359 -0.6612 -1.5060 -0.2872
 1354TIP3    H2 4069   5.015   3.636   0.386 -0.9135 -1.3120 -1.8854
 1355TIP3   OH2 4070   5.856   3.899   2.371 -0.4476  0.2962  0.5056
 1355TIP3    H1 4071   5.878   3.824   2.427 -1.1329 -0.3317 -0.0321
 1355TIP3    H2 4072   5.760   3.901   2.372 -0.4438  0.7901  0.0212
 1356TIP3   OH2 4073   3.413   1.660   2.687  0.2954 -0.4071 -0.0565
 1356TIP3    H1 4074   3.342   1.670   2.750 -0.0889 -2.3222 -0.1393
 1356TIP3    H2 4075   3.373   1.616   2.612  1.6940 -2.2913  0.2285
 1357TIP3   OH2 4076   0.682   0.945   5.085  0.3080  0.5673  0.0502
 1357TIP3    H1 4077   0.637   0.865   5.056  0.0174  0.7837 -0.1045
 1357TIP3    H2 4078   0.626   0.981   5.153  0.9598  0.0983  0.8503
 1358TIP3   OH2 4079   1.734   3.815   1.071  0.4007 -0.5114 -0.3327
 1358TIP3    H1 4080   1.717   3.863   1.152 -0.5191 -2.9983  1.0620
 1358TIP3    H2 4081   1.657   3.831   1.017  0.8263  0.8189 -0.5877
 1359TIP3   OH2 4082   3.394   5.775   2.064  0.0071  0.0405  0.2204
 1359TIP3    H1 4083   3.401   5.751   2.157  0.2173  0.0728  0.2136
 1359TIP3    H2 4084   3.397   5.870   2.064  1.6253  0.0267  0.0641
 1360TIP3   OH2 4085   2.125   4.951   0.081 -0.1703  0.1332 -0.3107
 1360TIP3    H1 4086   2.065   4.895   0.031 -1.5197 -0.0348  1.4292
 1360TIP3    H2 4087   2.095   5.040   0.064  0.0119  0.1470 -0.5763
 1361TIP3   OH2 4088   0.394   0.579   4.478 -0.1666  0.7291 -0.1271
 1361TIP3    H1 4089   0.461   0.641   4.450 -0.5673  0.0499 -2.8568
 1361TIP3    H2 4090   0.440   0.495   4.484 -0.4210  0.5676 -0.3831
 1362TIP3   OH2 4091   5.890   1.409   0.153  0.0146 -0.2178  0.1754
 1362TIP3    H1 4092   5.887   1.331   0.209 -1.2975  0.3022  0.8678
 1362TIP3    H2 4093   5.976   1.447   0.169  0.6166 -1.4336 -0.0532
 1363TIP3   OH2 4094   2.097   5.914   3.389  0.1362  0.8863  0.2179
 1363TIP3    H1 4095   2.015   5.928   3.343 -0.0913 -0.2410  0.2394
 1363TIP3    H2 4096   2.107   5.990   3.446 -0.9753  0.9601  0.3371
 1364TIP3   OH2 4097   3.042   4.447   3.628 -0.6709  0.0241  0.3327
 1364TIP3    H1 4098   3.036   4.480   3.718  2.1203  3.9704 -0.6850
 1364TIP3    H2 4099   3.005   4.516   3.574  0.5381 -0.8668 -1.7590
 1365TIP3   OH2 4100   2.665   4.984   4.760  0.1428 -0.5202 -0.0450
 1365TIP3    H1 4101   2.613   4.988   4.680  1.0892 -1.1288 -0.7124
 1365TIP3    H2 4102   2.744   4.935   4.735  1.9304  1.9341  0.4202
 1366TIP3   OH2 4103   5.882   5.202   1.609  0.1236 -0.3537  0.1434
 1366TIP3    H1 4104   5.802   5.253   1.598  0.3785  0.0842  0.3219
 1366TIP3    H2 4105   5.902   5.171   1.520 -0.2008 -0.4068  0.0863
 1367TIP3   OH2 4106   2.984   1.835   0.693 -0.9369  0.6056 -0.4206
 1367TIP3    H1 4107   3.022   1.896   0.630 -0.3309 -0.0618 -0.7099
 1367TIP3    H2 4108   2.910   1.795   0.646 -1.0800  0.8101 -0.3717
 1368TIP3   OH2 4109   1.476   2.602   0.392  0.6451  0.3673 -0.3295
 1368TIP3    H1 4110   1.539   2.668   0.422 -0.0329  0.9788 -0.2185
 1368TIP3    H2 4111   1.492   2.593   0.299  0.1336  1.3811 -0.5281
 1369TIP3   OH2 4112   1.239   5.024   3.950  0.0679 -0.4436 -0.2067
 1369TIP3    H1 4113   1.237   5.101   4.006  2.8570 -0.0704 -0.4890
 1369TIP3    H2 4114   1.229   4.950   4.010 -1.3519  0.0391  0.2024
 1370TIP3   OH2 4115   5.490   4.102   1.676 -0.4389 -0.0721  0.2282
 1370TIP3    H1 4116   5.530   4.188   1.667  1.8165 -1.0547  0.0811
 1370TIP3    H2 4117   5.401   4.119   1.706  0.6746  2.2264  2.5942
 1371TIP3   OH2 4118   1.747   0.856   1.174  0.0604  0.6388  0.0010
 1371TIP3    H1 4119   1.700   0.812   1.103 -0.7726 -0.5245  1.2371
 1371TIP3    H2 4120   1.716   0.813   1.254  2.1118  0.8744  0.9816
 1372TIP3   OH2 4121   0.244   0.846   1.902 -0.3578  0.0565 -0.5688
 1372TIP3    H1 4122   0.299   0.911   1.858  0.3418  0.5015  0.9040
 1372TIP3    H2 4123   0.159   0.890   1.913 -0.1790  0.3743 -0.4403
 1373TIP3   OH2 4124   5.157   1.982   0.489 -0.2961  0.5653 -0.5151
 1373TIP3    H1 4125   5.115   2.002   0.405  0.4191  0.2816 -0.9445
 1373TIP3    H2 4126   5.250   1.983   0.470 -0.1377  0.3138  0.2421
 1374TIP3   OH2 4127   1.024   5.647   4.567 -0.7054 -0.2548  0.5408
 1374TIP3    H1 4128   1.033   5.551   4.573 -0.8673 -0.3216 -0.2247
 1374TIP3    H2 4129   1.094   5.674   4.508 -1.6617 -0.0899 -0.5481
 1375TIP3   OH2 4130   3.010   0.114   2.217 -0.1525 -0.0144 -0.3673
 1375TIP3    H1 4131   2.927   0.161   2.222 -0.6631 -0.9682  0.5558
 1375TIP3    H2 4132   3.073   0.180   2.189 -1.7190  0.0970 -4.2955
 1376TIP3   OH2 4133   0.938   3.510   0.501 -0.0841 -0.2576 -0.5210
 1376TIP3    H1 4134   0.864   3.501   0.561 -0.0411 -0.2282 -0.4626
 1376TIP3    H2 4135   0.994   3.435   0.522 -0.6996 -0.9749 -1.4241
 1377TIP3   OH2 4136   5.154   1.217   4.045  0.1859 -0.1910 -0.2204
 1377TIP3    H1 4137   5.174   1.260   4.128  1.0455  1.5449 -1.2860
 1377TIP3    H2 4138   5.060   1.231   4.033  0.0501 -0.4800  0.4670
 1378TIP3   OH2 4139   6.126   5.129   0.694  0.3567  0.0597 -0.2909
 1378TIP3    H1 4140   6.201   5.128   0.754 -0.0620 -0.3960  0.2329
 1378TIP3    H2 4141   6.079   5.209   0.715 -0.8703 -1.0462  1.3643
 1379TIP3   OH2 4142   5.586   3.924   2.359  0.4429  0.0740 -0.2461
 1379TIP3    H1 4143   5.557   4.014   2.342  0.0078 -0.2451 -1.2254
 1379TIP3    H2 4144   5.525   3.892   2.426 -1.3400 -0.4707 -2.0353
 1380TIP3   OH2 4145   3.467   0.107   1.512  0.6025 -0.2974 -0.0979
 1380TIP3    H1 4146   3.528   0.051   1.463  0.9695 -0.6516  0.7316
 1380TIP3    H2 4147   3.381   0.070   1.495  0.6307  0.1132 -1.1661
 1381TIP3   OH2 4148   2.476   5.493   2.642 -0.3645 -0.5224 -0.0247
 1381TIP3    H1 4149   2.532   5.536   2.707 -1.1161 -1.0390  0.9950
 1381TIP3    H2 4150   2.535   5.436   2.594  0.3129  0.3023 -0.2006
 1382TIP3   OH2 4151   3.610   5.133   1.625  0.4153  0.0434  0.1591
 1382TIP3    H1 4152   3.557   5.157   1.549 -0.6900 -2.4330  0.0549
 1382TIP3    H2 4153   3.547   5.114   1.694  1.3382  0.5557  1.1811
 1383TIP3   OH2 4154   4.856   5.846   0.557 -0.3795 -0.2366 -0.4706
 1383TIP3    H1 4155   4.802   5.925   0.548 -0.1138 -0.0218 -0.2172
 1383TIP3    H2 4156   4.939   5.879   0.592 -0.3109 -0.6479 -0.2509
 1384TIP3   OH2 4157   3.716   1.205   2.408 -0.3724  0.3690  0.2676
 1384TIP3    H1 4158   3.668   1.133   2.367 -0.8778  0.9537 -0.1805
 1384TIP3    H2 4159   3.689   1.202   2.500 -1.4118  0.8002 -0.0155
 1385TIP3   OH2 4160   0.473   2.461   3.234  0.5828  1.1850 -0.0212
 1385TIP3    H1 4161   0.538   2.512   3.282 -0.3796  2.5320 -0.1183
 1385TIP3    H2 4162   0.503   2.463   3.143 -0.0459  2.5528 -0.2105
 1386TIP3   OH2 4163   2.722   4.906   0.090  0.0374 -0.1028 -0.4188
 1386TIP3    H1 4164   2.745   4.886   0.181 -2.9753 -1.2437  0.1848
 1386TIP3    H2 4165   2.669   4.985   0.095  0.6301  0.3716 -1.3200
 1387TIP3   OH2 4166   2.254   1.080   1.075  0.5085 -0.0317 -0.5328
 1387TIP3    H1 4167   2.200   1.152   1.108  1.1289  0.5608 -0.8063
 1387TIP3    H2 4168   2.323   1.122   1.025  0.2711 -0.8593 -1.6099
 1388TIP3   OH2 4169   4.264   5.679   4.271  0.7662  0.7794  0.2076
 1388TIP3    H1 4170   4.198   5.691   4.203  1.3776  2.5137 -0.1292
 1388TIP3    H2 4171   4.345   5.661   4.224  0.9789  0.8857  0.5315
 1389TIP3   OH2 4172   1.074   2.596   0.646  0.1974  0.2896  0.5486
 1389TIP3    H1 4173   1.068   2.689   0.627 -0.4212  0.5007  1.7023
 1389TIP3    H2 4174   1.166   2.575   0.631  0.9903  1.7181  2.8518
 1390TIP3   OH2 4175   4.648   5.154   4.745  1.1377 -0.6165 -0.0580
 1390TIP3    H1 4176   4.733   5.122   4.774  1.0294  0.4791  1.6624
 1390TIP3    H2 4177   4.586   5.123   4.812  1.0271  2.8875  1.7107
 1391TIP3   OH2 4178   5.883   2.198   4.131 -0.4569 -0.1988  0.1968
 1391TIP3    H1 4179   5.948   2.146   4.085 -1.1908 -1.5276  0.6118
 1391TIP3    H2 4180   5.929   2.228   4.210  0.5399  1.3946 -0.9177
 1392TIP3   OH2 4181   1.615   2.188   3.813 -0.3626  0.3225 -0.0437
 1392TIP3    H1 4182   1.557   2.200   3.737 -1.0307 -0.2934  0.3610
 1392TIP3    H2 4183   1.619   2.274   3.854  0.3749  0.7826 -1.0235
 1393TIP3   OH2 4184   4.548   4.543   4.808 -0.8213  0.0744  0.5904
 1393TIP3    H1 4185   4.496   4.593   4.745  0.6045 -0.2686 -0.9282
 1393TIP3    H2 4186   4.620   4.601   4.832 -0.4765 -0.3835  0.6781
 1394TIP3   OH2 4187   0.890   2.995   1.397 -0.5714 -0.6796  0.3736
 1394TIP3    H1 4188   0.843   3.030   1.321 -1.9957 -0.2668  1.4009
 1394TIP3    H2 4189   0.878   3.061   1.466 -0.9108 -1.8855  1.5070
 1395TIP3   OH2 4190   1.673   5.169   2.781  0.2640  0.2638 -0.5467
 1395TIP3    H1 4191   1.686   5.090   2.728 -0.2263 -0.2749  0.1293
 1395TIP3    H2 4192   1.610   5.221   2.731  1.6216  0.9003 -1.6911
 1396TIP3   OH2 4193   0.194   3.477   3.028  0.1274  0.4987  0.4943
 1396TIP3    H1 4194   0.195   3.506   3.119 -0.4287  0.5700  0.4840
 1396TIP3    H2 4195   0.103   3.449   3.013  0.3313  0.0341  0.1050
 1397TIP3   OH2 4196   3.665   1.265   0.965  0.0561  0.5119 -0.2408
 1397TIP3    H1 4197   3.717   1.208   1.022 -0.3967  2.2956  2.1262
 1397TIP3    H2 4198   3.579   1.223   0.960  0.1562  0.2431  0.2742
 1398TIP3   OH2 4199   6.009   0.156   1.018  0.0621  0.4047 -0.1218
 1398TIP3    H1 4200   5.921   0.183   1.046  1.0647  2.2300  1.5384
 1398TIP3    H2 4201   6.033   0.220   0.951  0.4887  0.5265  0.1422
 1399TIP3   OH2 4202   4.670   3.069   5.058 -0.1572 -0.3690 -0.1788
 1399TIP3    H1 4203   4.633   3.155   5.036 -1.0553 -0.4851  0.8173
 1399TIP3    H2 4204   4.673   3.068   5.154  1.0567 -0.9557 -0.2050
 1400TIP3   OH2 4205   1.508   1.782   0.987 -0.1172  0.0002  0.7909
 1400TIP3    H1 4206   1.487   1.773   1.080  0.3196  0.2816  0.9212
 1400TIP3    H2 4207   1.603   1.785   0.984 -0.1087 -0.5689  0.2761
 1401TIP3   OH2 4208   5.336   0.310   4.064 -0.6412 -0.1578 -0.6879
 1401TIP3    H1 4209   5.363   0.261   3.986 -1.3086  0.4822 -1.3359
 1401TIP3    H2 4210   5.353   0.250   4.137 -1.6827 -1.4644 -1.4760
 1402TIP3   OH2 4211   1.905   0.789   3.215  0.1136  0.0994 -0.1085
 1402TIP3    H1 4212   1.841   0.732   3.172  0.1411 -0.4359  0.5444
 1402TIP3    H2 4213   1.897   0.873   3.169  0.0531 -0.4230 -1.0565
 1403TIP3   OH2 4214   0.205   0.693   1.249  0.1636 -0.6259 -0.1802
 1403TIP3    H1 4215   0.172   0.652   1.168 -0.7417 -2.3571  1.0027
 1403TIP3    H2 4216   0.147   0.767   1.264  0.4913 -0.1370 -1.2400
 1404TIP3   OH2 4217   4.475   1.451   2.596 -0.0010 -0.1650 -0.3863
 1404TIP3    H1 4218   4.411   1.395   2.641  1.5302 -1.5558  0.1392
 1404TIP3    H2 4219   4.434   1.469   2.511 -0.9864 -1.2424 -0.1755
 1405TIP3   OH2 4220   3.620   3.764   2.310  0.2283  0.5089  0.2199
 1405TIP3    H1 4221   3.651   3.710   2.237  0.9909 -2.8317  2.7705
 1405TIP3    H2 4222   3.696   3.818   2.333  1.1986 -1.0174  0.7153
 1406TIP3   OH2 4223   3.649   5.196   1.930  0.0064  0.2332  0.6644
 1406TIP3    H1 4224   3.587   5.140   1.882  0.1122  0.2511  0.5068
 1406TIP3    H2 4225   3.654   5.156   2.017  0.0021  0.0581  0.5844
 1407TIP3   OH2 4226   4.452   1.341   1.068 -0.0606  0.6709  0.4018
 1407TIP3    H1 4227   4.382   1.304   1.015 -0.7422  0.9398  1.0984
 1407TIP3    H2 4228   4.413   1.353   1.154  0.5098  1.8628  0.5098
 1408TIP3   OH2 4229   0.748   3.293   4.326  0.0886  0.1678 -0.1327
 1408TIP3    H1 4230   0.685   3.269   4.394 -0.6860  0.0877 -0.8598
 1408TIP3    H2 4231   0.763   3.213   4.277  2.7154 -0.4835  1.5056
 1409TIP3   OH2 4232   6.172   3.735   4.263  0.5811 -0.1817  0.2836
 1409TIP3    H1 4233   6.118   3.667   4.222  0.1328  0.2542  0.1476
 1409TIP3    H2 4234   6.147   3.732   4.355 -0.8988  1.1299 -0.0422
 1410TIP3   OH2 4235   2.388   3.916   2.876 -0.0819 -0.5689  0.5428
 1410TIP3    H1 4236   2.425   3.961   2.952  0.3334 -0.8577  0.5163
 1410TIP3    H2 4237   2.322   3.858   2.913 -0.3068 -0.2658  0.6211
 1411TIP3   OH2 4238   4.434   3.789   2.004 -0.4428  0.0333 -0.0736
 1411TIP3    H1 4239   4.387   3.706   2.001  0.1911 -0.3131 -0.6597
 1411TIP3    H2 4240   4.433   3.814   2.096 -1.7003 -0.0027 -0.0522
 1412TIP3   OH2 4241   0.704   5.861   2.251 -0.4289  0.3552  0.2530
 1412TIP3    H1 4242   0.640   5.888   2.317 -1.0141  0.6063 -0.4022
 1412TIP3    H2 4243   0.652   5.841   2.174  0.3848  2.5194 -0.9737
 1413TIP3   OH2 4244   3.612   5.781   4.757  0.4027  0.7227 -0.1380
 1413TIP3    H1 4245   3.660   5.704   4.785  0.9518  0.5408 -1.5187
 1413TIP3    H2 4246   3.597   5.768   4.663  2.4988  3.2965 -0.9331
 1414TIP3   OH2 4247   3.467   2.584   2.863 -0.3798 -0.9010 -0.1622
 1414TIP3    H1 4248   3.457   2.494   2.834 -0.2758 -1.9074  2.6998
 1414TIP3    H2 4249   3.562   2.599   2.862 -0.4293 -0.4878 -1.3890
 1415TIP3   OH2 4250   5.836   4.684   2.307 -0.5257 -0.9234 -0.1963
 1415TIP3    H1 4251   5.874   4.598   2.288 -1.1144 -1.8858  2.5238
 1415TIP3    H2 4252   5.887   4.717   2.381 -1.6725  0.1043  0.1632
 1416TIP3   OH2 4253   2.525   0.834   1.727  0.3831 -0.9983  0.6957
 1416TIP3    H1 4254   2.487   0.911   1.684  1.1723  0.1396  1.9662
 1416TIP3    H2 4255   2.461   0.812   1.795  0.8471 -0.5572  1.2797
 1417TIP3   OH2 4256   2.058   3.058   2.204 -0.2193  0.2428  0.4110
 1417TIP3    H1 4257   2.004   2.984   2.177 -1.8169  1.2492  0.7104
 1417TIP3    H2 4258   2.079   3.103   2.121 -0.4567  0.2460  0.3509
 1418TIP3   OH2 4259   0.636   2.225   2.978  0.5354  0.3047  0.0173
 1418TIP3    H1 4260   0.638   2.237   2.883  1.0969 -3.2889 -0.5600
 1418TIP3    H2 4261   0.544   2.208   2.998  0.4263  1.0068  0.1557
 1419TIP3   OH2 4262   0.078   5.968   3.991  0.3588 -0.2699  0.2507
 1419TIP3    H1 4263   0.117   5.953   4.077  0.0747 -1.3744  0.2076
 1419TIP3    H2 4264   0.014   5.897   3.981 -0.5970  0.6382 -0.2997
 1420TIP3   OH2 4265   0.239   3.261   0.655 -0.1631  0.7039 -0.1909
 1420TIP3    H1 4266   0.298   3.245   0.729 -0.5184 -1.5751 -0.3234
 1420TIP3    H2 4267   0.155   3.283   0.696  0.1580  1.5801  0.0240
 1421TIP3   OH2 4268   0.253   4.829   1.050 -0.3131  0.5057  0.0120
 1421TIP3    H1 4269   0.286   4.893   1.114  0.1990 -0.4806  0.7593
 1421TIP3    H2 4270   0.213   4.761   1.104  1.0770 -0.8784 -0.6458
 1422TIP3   OH2 4271   0.219   4.358   4.410  0.4162 -0.0670 -0.0228
 1422TIP3    H1 4272   0.221   4.312   4.494  1.7575 -0.0652 -0.0462
 1422TIP3    H2 4273   0.307   4.394   4.399 -0.1645  1.2017 -0.7407
 1423TIP3   OH2 4274   6.009   0.766   2.429 -0.2459 -0.9867 -0.1998
 1423TIP3    H1 4275   5.964   0.726   2.504 -0.7892 -0.5383 -0.2832
 1423TIP3    H2 4276   5.970   0.724   2.353 -0.9762 -0.1485 -0.2973
 1424TIP3   OH2 4277   6.327   4.616   2.664 -0.1812 -0.1655 -0.9327
 1424TIP3    H1 4278   6.233   4.607   2.679  0.1378 -0.2248  1.3586
 1424TIP3    H2 4279   6.343   4.710   2.667 -0.1074 -0.1778 -0.9361
 1425TIP3   OH2 4280   6.083   2.401   0.821 -0.5438 -0.1352  0.4092
 1425TIP3    H1 4281   6.039   2.340   0.881 -1.2666  0.1384  0.1714
 1425TIP3    H2 4282   6.154   2.438   0.873 -1.9826  1.1291  1.5684
 1426TIP3   OH2 4283   2.578   2.062   5.123 -0.5876  0.1856  0.2740
 1426TIP3    H1 4284   2.655   2.081   5.069 -1.2724  0.4732 -0.6162
 1426TIP3    H2 4285   2.532   2.145   5.129 -0.4516  0.1882  1.4294
 1427TIP3   OH2 4286   0.083   4.968   0.359 -0.0569 -0.6723  0.2783
 1427TIP3    H1 4287   0.030   4.894   0.331 -1.3136  0.7791 -1.3629
 1427TIP3    H2 4288   0.051   5.042   0.308  2.0312  0.7617  0.8951
 1428TIP3   OH2 4289   4.875   4.645   5.040 -0.2261  0.9688  0.6266
 1428TIP3    H1 4290   4.897   4.725   4.993  2.2882 -1.6563 -3.3911
 1428TIP3    H2 4291   4.953   4.625   5.092  0.0428  0.1981 -0.0366
 1429TIP3   OH2 4292   1.044   4.473   1.370 -0.1281 -0.2098  0.6827
 1429TIP3    H1 4293   1.069   4.477   1.462  0.6514 -0.1009  0.4715
 1429TIP3    H2 4294   0.958   4.432   1.371 -0.5942  0.7254  1.5429
 1430TIP3   OH2 4295   1.281   1.081   4.820 -0.0778 -0.2894 -0.1586
 1430TIP3    H1 4296   1.332   1.037   4.752  0.4922 -3.3230  2.0343
 1430TIP3    H2 4297   1.207   1.023   4.837  0.3346 -0.1953  2.4346
 1431TIP3   OH2 4298   3.424   1.945   1.196  0.7421  0.3648  0.6357
 1431TIP3    H1 4299   3.503   1.899   1.225  0.1218 -0.0950  1.6704
 1431TIP3    H2 4300   3.354   1.910   1.252 -0.1369  0.9945 -0.0403
 1432TIP3   OH2 4301   5.132   5.508   1.669  0.6374 -0.2879 -0.1007
 1432TIP3    H1 4302   5.160   5.476   1.754 -3.4670 -0.6881  1.3482
 1432TIP3    H2 4303   5.054   5.456   1.649  0.9172  0.4194 -3.7250
 1433TIP3   OH2 4304   3.895   1.279   5.001 -0.3343  0.5381 -0.0415
 1433TIP3    H1 4305   3.902   1.374   5.007  0.1032  0.6526 -1.7298
 1433TIP3    H2 4306   3.928   1.258   4.914 -0.5956 -1.1526  0.2244
 1434TIP3   OH2 4307   0.453   1.069   4.793 -0.0031 -0.1805  0.2155
 1434TIP3    H1 4308   0.508   1.144   4.772  0.6493 -0.8784 -0.6704
 1434TIP3    H2 4309   0.423   1.085   4.882  1.7704  0.1588  0.7959
 1435TIP3   OH2 4310   0.047   3.904   4.620 -0.5107  0.0938  0.1277
 1435TIP3    H1 4311   0.091   3.848   4.685 -1.2698 -1.3402 -0.5579
 1435TIP3    H2 4312  -0.000   3.843   4.564 -3.3127  1.5379  0.7467
 1436TIP3   OH2 4313   2.644   4.480   3.456 -0.1113  0.4058  0.1223
 1436TIP3    H1 4314   2.736   4.486   3.429 -0.1627  1.2279  0.1040
 1436TIP3    H2 4315   2.600   4.549   3.406 -0.6857  0.2177  0.3611
 1437TIP3   OH2 4316   4.281   4.644   1.016 -0.0420 -0.3276  0.3722
 1437TIP3    H1 4317   4.346   4.622   0.949 -1.0693 -0.1643 -0.7125
 1437TIP3    H2 4318   4.314   4.603   1.096  0.7233 -1.3754 -0.4487
 1438TIP3   OH2 4319   2.158   5.831   0.568 -0.3186 -0.0167 -0.3938
 1438TIP3    H1 4320   2.191   5.824   0.657  0.8878  0.9817 -0.7258
 1438TIP3    H2 4321   2.149   5.741   0.538  0.2821 -0.3437  0.3750
 1439TIP3   OH2 4322   4.899   2.321   5.036  0.0984 -0.4546 -0.0191
 1439TIP3    H1 4323   4.993   2.330   5.019  0.2653 -0.2717  0.9409
 1439TIP3    H2 4324   4.890   2.339   5.130 -1.3387  3.1364 -0.6835
 1440TIP3   OH2 4325   4.155   2.862   0.949  0.1804 -0.4302  0.3565
 1440TIP3    H1 4326   4.233   2.808   0.938  1.0969  0.6446  1.2012
 1440TIP3    H2 4327   4.182   2.930   1.012 -1.4298 -0.0100  0.6453
 1441TIP3   OH2 4328   2.412   1.976   2.804  0.1132 -0.4122 -0.3776
 1441TIP3    H1 4329   2.388   1.897   2.854  0.0288 -0.0848  0.1058
 1441TIP3    H2 4330   2.487   2.012   2.852 -1.5763  1.3630  1.0756
 1442TIP3   OH2 4331   0.676   3.868   3.354 -0.2429 -0.0132 -0.4916
 1442TIP3    H1 4332   0.620   3.840   3.427  0.5668 -3.1592 -0.9163
 1442TIP3    H2 4333   0.731   3.937   3.391 -0.2488 -1.1037  1.7621
 1443TIP3   OH2 4334   2.299   2.260   4.801 -0.7151  0.4416 -0.2507
 1443TIP3    H1 4335   2.246   2.241   4.723  1.2536  0.7933 -1.7725
 1443TIP3    H2 4336   2.339   2.176   4.823 -0.5860  0.5288 -0.1553
 1444TIP3   OH2 4337   6.151   0.174   3.224  0.2383 -0.1098 -0.1688
 1444TIP3    H1 4338   6.150   0.082   3.198 -1.7948  0.3936 -2.2241
 1444TIP3    H2 4339   6.240   0.189   3.255  0.5517 -2.8139  0.5303
 1445TIP3   OH2 4340   3.369   2.709   0.009  0.2569  0.0335  1.0155
 1445TIP3    H1 4341   3.411   2.794   0.022  0.5696 -0.1214  1.0109
 1445TIP3    H2 4342   3.337   2.685   0.096  1.2479 -0.4168  1.2724
 1446TIP3   OH2 4343   4.623   2.583   4.229 -0.0389 -0.1002  0.2980
 1446TIP3    H1 4344   4.586   2.634   4.157 -1.6356 -0.3038  0.9223
 1446TIP3    H2 4345   4.717   2.581   4.212 -0.0159  2.3211 -0.2113
 1447TIP3   OH2 4346   2.147   0.185   1.905  0.5437  0.4257 -0.4577
 1447TIP3    H1 4347   2.217   0.223   1.959  1.2379  0.8460 -1.6162
 1447TIP3    H2 4348   2.193   0.134   1.839 -0.2392  0.8532 -1.3504
 1448TIP3   OH2 4349   4.646   2.274   1.261 -0.3800 -0.0512 -0.1406
 1448TIP3    H1 4350   4.667   2.228   1.343  0.1135 -0.0996 -0.2901
 1448TIP3    H2 4351   4.656   2.208   1.193  1.3388  0.4911 -0.4746
 1449TIP3   OH2 4352   0.576   4.273   0.915  0.6041 -0.0553 -0.0858
 1449TIP3    H1 4353   0.484   4.246   0.908  0.0079  1.5438  0.9611
 1449TIP3    H2 4354   0.573   4.355   0.965  2.6367 -0.1326  0.2441
 1450TIP3   OH2 4355   5.572   4.695   4.000 -0.1926 -0.2440  0.2477
 1450TIP3    H1 4356   5.485   4.691   3.961 -0.3943  0.1306  0.6514
 1450TIP3    H2 4357   5.597   4.787   3.994 -0.1501 -0.2166  0.8278
 1451TIP3   OH2 4358   0.199   3.527   0.284  0.1383  0.0765 -0.3286
 1451TIP3    H1 4359   0.179   3.619   0.304  0.2971  0.0564 -0.0767
 1451TIP3    H2 4360   0.167   3.515   0.194 -2.0663 -0.2621  0.4330
 1452TIP3   OH2 4361   5.503   2.632   5.133 -0.0194 -0.1825 -0.0729
 1452TIP3    H1 4362   5.499   2.728   5.138  0.9295 -0.1752  2.7726
 1452TIP3    H2 4363   5.427   2.607   5.081 -0.4903  2.1105 -0.5758
 1453TIP3   OH2 4364   5.086   4.688   2.049  0.0975 -0.4580 -0.3618
 1453TIP3    H1 4365   4.992   4.706   2.037 -0.0183 -0.3833  0.5805
 1453TIP3    H2 4366   5.088   4.604   2.095  0.4576 -0.1120  0.2739
 1454TIP3   OH2 4367   0.627   4.503   1.091  0.2486 -0.4031 -0.2877
 1454TIP3    H1 4368   0.641   4.560   1.166  0.4723 -0.2230 -0.4668
 1454TIP3    H2 4369   0.562   4.549   1.037 -0.6086 -0.9516  0.2384
 1455TIP3   OH2 4370   2.715   5.412   5.097 -0.1037  0.2089  0.7620
 1455TIP3    H1 4371   2.726   5.339   5.036  0.1836  0.1367  0.8952
 1455TIP3    H2 4372   2.625   5.441   5.085  0.4085  1.2839 -0.9228
 1456TIP3   OH2 4373   4.780   3.421   3.646  0.6528  0.0390 -0.4824
 1456TIP3    H1 4374   4.774   3.326   3.649  0.5535  0.0540 -0.2138
 1456TIP3    H2 4375   4.774   3.442   3.553  2.6747 -0.3396 -0.7532
 1457TIP3   OH2 4376   2.573   2.582   1.240 -0.1558 -0.5225  0.5037
 1457TIP3    H1 4377   2.666   2.602   1.254  0.0195 -1.5389  0.8347
 1457TIP3    H2 4378   2.536   2.664   1.207  1.0983 -0.4307 -0.7704
 1458TIP3   OH2 4379   1.756   1.722   4.855 -0.2224  0.3651 -0.5531
 1458TIP3    H1 4380   1.720   1.643   4.815 -1.0264  0.9008 -0.8964
 1458TIP3    H2 4381   1.839   1.736   4.809 -0.8149  0.5885 -1.5611
 1459TIP3   OH2 4382   5.563   1.502   4.314  0.0154  0.4394 -0.3989
 1459TIP3    H1 4383   5.649   1.460   4.319 -1.1133 -2.1614 -0.8623
 1459TIP3    H2 4384   5.531   1.478   4.227 -2.6836 -2.0343  1.1198
 1460TIP3   OH2 4385   0.710   4.238   2.479 -0.6043 -0.2465 -0.0181
 1460TIP3    H1 4386   0.705   4.211   2.570  1.9895  2.5500  1.1232
 1460TIP3    H2 4387   0.640   4.303   2.470  0.2263  0.7479  0.5387
 1461TIP3   OH2 4388   2.933   5.657   4.310 -0.2708  0.2335  0.0164
 1461TIP3    H1 4389   2.847   5.681   4.346 -0.5413  0.1958 -0.6040
 1461TIP3    H2 4390   2.994   5.673   4.382 -0.9492 -0.9416  0.8995
 1462TIP3   OH2 4391   5.962   4.044   0.868 -0.4383 -0.1628  0.6480
 1462TIP3    H1 4392   5.985   4.030   0.776 -2.8105  1.5835 -0.3027
 1462TIP3    H2 4393   6.046   4.056   0.912  0.7324 -0.4056 -1.3862
 1463TIP3   OH2 4394   0.535   5.952   0.411  0.2328  0.3950  0.0038
 1463TIP3    H1 4395   0.487   5.871   0.429  1.1784 -0.0341  0.6963
 1463TIP3    H2 4396   0.497   6.017   0.470 -1.5044  0.8726 -1.5449
 1464TIP3   OH2 4397   3.122   2.412   2.306 -0.4183  0.0236 -0.1907
 1464TIP3    H1 4398   3.177   2.473   2.256 -0.8617  0.9158  0.3715
 1464TIP3    H2 4399   3.180   2.339   2.328  0.1188  0.2289 -0.9084
 1465TIP3   OH2 4400   4.521   3.142   4.389  0.2489 -0.2426  0.4835
 1465TIP3    H1 4401   4.513   3.237   4.390  0.2873 -0.2150 -0.6145
 1465TIP3    H2 4402   4.584   3.124   4.319 -0.4920 -1.1186  0.0145
 1466TIP3   OH2 4403   2.991   0.550   5.087 -0.3699  0.2064 -1.0683
 1466TIP3    H1 4404   2.963   0.634   5.051 -1.0159  0.0413 -0.9494
 1466TIP3    H2 4405   3.022   0.500   5.012 -0.8225  0.2182 -1.2648
 1467TIP3   OH2 4406   3.592   5.902   4.277 -0.0699  0.0832 -0.2199
 1467TIP3    H1 4407   3.543   5.830   4.238 -2.2320  2.1341 -1.5643
 1467TIP3    H2 4408   3.659   5.923   4.212 -0.0190 -0.1162 -0.2324
 1468TIP3   OH2 4409   3.038   5.227   0.696 -0.5193  0.5761  0.5504
 1468TIP3    H1 4410   3.042   5.185   0.782 -0.4653 -2.2069 -0.7344
 1468TIP3    H2 4411   3.124   5.214   0.658 -0.3773  2.2439  0.2012
 1469TIP3   OH2 4412   4.717   2.252   4.379  0.3469 -0.2818 -0.3722
 1469TIP3    H1 4413   4.736   2.220   4.291  1.6378  1.2554 -0.7016
 1469TIP3    H2 4414   4.803   2.263   4.420 -0.2498 -1.7680  1.4261
 1470TIP3   OH2 4415   3.666   4.420   2.119 -0.3176  0.2858 -0.3338
 1470TIP3    H1 4416   3.700   4.510   2.122 -0.8415  0.4593  1.1659
 1470TIP3    H2 4417   3.676   4.394   2.027  2.2185  0.9347 -0.3206
 1471TIP3   OH2 4418   6.069   3.726   1.452  0.1783  0.5713  0.3164
 1471TIP3    H1 4419   6.140   3.789   1.447 -0.1812  0.8759 -2.7559
 1471TIP3    H2 4420   6.000   3.771   1.502  1.5464  0.7736  2.1406
 1472TIP3   OH2 4421   0.807   0.742   1.083 -0.3056 -0.0405 -0.1096
 1472TIP3    H1 4422   0.822   0.719   1.174  0.2819 -0.3704 -0.2787
 1472TIP3    H2 4423   0.817   0.837   1.080  1.3787 -0.1780 -0.1118
 1473TIP3   OH2 4424   5.677   2.551   1.901  0.3700 -0.0202  0.0048
 1473TIP3    H1 4425   5.630   2.470   1.920 -1.4361  1.2979  1.4730
 1473TIP3    H2 4426   5.740   2.526   1.833 -0.1670 -2.6126  0.3424
 1474TIP3   OH2 4427   0.181   4.304   3.098 -0.2957 -0.1692  0.9531
 1474TIP3    H1 4428   0.262   4.268   3.134  0.1960 -0.1868 -0.1307
 1474TIP3    H2 4429   0.210   4.369   3.033 -1.1666  1.3674  2.0498
 1475TIP3   OH2 4430   2.413   1.358   0.654 -0.3642 -0.4673  0.0592
 1475TIP3    H1 4431   2.363   1.403   0.586 -0.8271  1.1418  1.3745
 1475TIP3    H2 4432   2.348   1.338   0.722 -0.0270 -2.5852 -0.1987
 1476TIP3   OH2 4433   0.939   2.092   3.652 -0.0797 -0.0955  0.1281
 1476TIP3    H1 4434   0.892   2.012   3.679  0.5651 -0.8621 -0.9412
 1476TIP3    H2 4435   0.985   2.120   3.731 -0.3142 -0.7900  0.5267
 1477TIP3   OH2 4436   4.378   4.110   2.724 -0.0365 -0.5336 -0.1949
 1477TIP3    H1 4437   4.304   4.050   2.730 -0.5078  0.0937  0.4026
 1477TIP3    H2 4438   4.342   4.195   2.751  1.6579 -0.8084  3.3924
 1478TIP3   OH2 4439   1.236   5.634   1.015 -0.4546 -0.1832  0.3257
 1478TIP3    H1 4440   1.241   5.693   0.939  0.9693 -1.2151 -0.4461
 1478TIP3    H2 4441   1.310   5.660   1.070  1.6233 -2.5521 -1.1087
 1479TIP3   OH2 4442   1.942   3.253   2.364  0.0444 -0.1343 -1.1160
 1479TIP3    H1 4443   1.986   3.193   2.303 -0.2777 -1.6223  0.0379
 1479TIP3    H2 4444   1.857   3.212   2.381 -0.0312  0.4469  0.0111
 1480TIP3   OH2 4445   5.857   3.281   4.730 -0.3086  0.1405 -0.0951
 1480TIP3    H1 4446   5.904   3.360   4.754  0.5253 -0.2007 -0.5409
 1480TIP3    H2 4447   5.847   3.233   4.812 -0.9212  0.7542  0.1965
 1481TIP3   OH2 4448   5.070   6.000   2.559 -0.0283  0.0530  0.0239
 1481TIP3    H1 4449   5.010   5.939   2.517 -0.3929  0.8747 -0.6964
 1481TIP3    H2 4450   5.057   5.987   2.652 -0.7796 -0.3151 -0.1260
 1482TIP3   OH2 4451   5.239   2.559   2.833 -0.1030  0.4469  0.4981
 1482TIP3    H1 4452   5.296   2.567   2.757 -0.3229 -0.5411  0.2146
 1482TIP3    H2 4453   5.289   2.598   2.905  1.0422 -0.6271  0.3077
 1483TIP3   OH2 4454   2.204   0.391   2.783 -0.1400  0.4094  0.8517
 1483TIP3    H1 4455   2.261   0.316   2.765  0.6285  1.0551  0.5021
 1483TIP3    H2 4456   2.262   0.453   2.828 -0.3724  1.3656 -0.1279
 1484TIP3   OH2 4457   1.071   0.143   3.156 -0.4592 -0.4088  0.1246
 1484TIP3    H1 4458   0.977   0.156   3.163 -0.2108  1.0519  1.3345
 1484TIP3    H2 4459   1.091   0.157   3.064 -1.2424  0.6375  0.1055
 1485TIP3   OH2 4460   0.918   2.737   1.332  0.5219 -0.3612  0.5262
 1485TIP3    H1 4461   0.925   2.684   1.412  0.9530 -0.3774  0.4793
 1485TIP3    H2 4462   0.906   2.827   1.364 -0.2999 -0.4891  0.6064
 1486TIP3   OH2 4463   1.596   2.836   2.119  0.0551  0.2093 -0.4784
 1486TIP3    H1 4464   1.596   2.871   2.208  0.5416 -0.8059 -0.0715
 1486TIP3    H2 4465   1.581   2.913   2.064 -2.7960  0.5501  0.5702
 1487TIP3   OH2 4466   2.561   0.086   1.081 -0.2500  0.7545  0.8324
 1487TIP3    H1 4467   2.624   0.064   1.013 -2.6108 -0.0974 -1.2293
 1487TIP3    H2 4468   2.569   0.015   1.145 -0.9877 -0.8778 -0.8077
 1488TIP3   OH2 4469   5.094   3.230   0.770  0.0844  0.5568 -0.1171
 1488TIP3    H1 4470   5.181   3.226   0.731  0.1729  0.9222  0.0320
 1488TIP3    H2 4471   5.062   3.140   0.771  0.3952  0.4472 -0.3227
 1489TIP3   OH2 4472   3.532   0.026   0.645  0.3538 -0.4319  1.2924
 1489TIP3    H1 4473   3.616   0.033   0.690  0.2176 -0.0424  1.4901
 1489TIP3    H2 4474   3.555   0.006   0.554  0.6183 -2.0876  1.6807
 1490TIP3   OH2 4475   5.939   4.564   0.434 -0.2118 -0.0901  0.5589
 1490TIP3    H1 4476   5.916   4.595   0.347  0.4214 -1.1440 -0.0015
 1490TIP3    H2 4477   5.874   4.496   0.454  1.4359 -2.0435 -0.4218
 1491TIP3   OH2 4478   3.366   0.363   5.084  0.8379 -0.5367  0.9192
 1491TIP3    H1 4479   3.428   0.433   5.105  0.9233 -0.4100  0.2576
 1491TIP3    H2 4480   3.317   0.350   5.165 -0.1108  1.2561  0.6862
 1492TIP3   OH2 4481   0.954   3.538   5.184 -0.0422 -0.5114 -0.3378
 1492TIP3    H1 4482   0.951   3.615   5.242  1.5913 -0.3716 -0.3975
 1492TIP3    H2 4483   0.958   3.575   5.095 -0.1526 -0.6822 -0.4148
 1493TIP3   OH2 4484   3.640   0.940   0.192 -0.4589  0.1445  0.1111
 1493TIP3    H1 4485   3.697   0.957   0.117  1.6006  1.5703  1.8566
 1493TIP3    H2 4486   3.682   0.867   0.238 -1.4155 -0.3898  0.1560
 1494TIP3   OH2 4487   1.852   0.193   3.793  0.1569 -0.7296 -0.0871
 1494TIP3    H1 4488   1.900   0.185   3.711 -0.3025  0.7021 -0.5194
 1494TIP3    H2 4489   1.906   0.252   3.847  1.2267 -2.8178  1.2731
 1495TIP3   OH2 4490   0.624   4.830   3.277  0.0963  0.0607  0.3601
 1495TIP3    H1 4491   0.687   4.887   3.233  0.7573 -0.3972  0.6971
 1495TIP3    H2 4492   0.656   4.741   3.262  0.7713 -0.0939  2.3540
 1496TIP3   OH2 4493   5.492   5.355   3.941 -0.3721 -0.0232  0.3746
 1496TIP3    H1 4494   5.556   5.375   4.009 -0.3761 -1.6246  0.8938
 1496TIP3    H2 4495   5.541   5.308   3.874 -0.8282 -0.5285  0.3849
 1497TIP3   OH2 4496   6.100   4.022   3.386  0.9175 -0.5213 -0.4117
 1497TIP3    H1 4497   6.126   4.067   3.306  0.1049  0.1074 -0.3489
 1497TIP3    H2 4498   6.092   4.093   3.451  0.4778 -0.8685 -0.0782
 1498TIP3   OH2 4499   0.383   4.454   2.867  0.4671  0.1423  0.1998
 1498TIP3    H1 4500   0.428   4.504   2.799  0.9128 -1.5401 -0.7977
 1498TIP3    H2 4501   0.291   4.478   2.858  0.3453 -0.9065 -1.7976
 1499TIP3   OH2 4502   4.334   4.464   5.137  0.2490  0.1369  0.7409
 1499TIP3    H1 4503   4.370   4.394   5.082 -2.6118  0.5845 -2.0132
 1499TIP3    H2 4504   4.368   4.545   5.098 -0.8965  0.4239  0.2947
 1500TIP3   OH2 4505   6.260   2.001   3.301  0.1186  0.1913 -0.4842
 1500TIP3    H1 4506   6.272   2.032   3.391  1.2821  1.0808 -0.9152
 1500TIP3    H2 4507   6.341   1.955   3.281 -0.4841 -0.7521 -0.7985
 1501TIP3   OH2 4508   3.051   5.921   4.905 -0.2775 -0.1272  0.5347
 1501TIP3    H1 4509   3.143   5.904   4.884 -0.1758 -0.7704  1.4707
 1501TIP3    H2 4510   3.043   6.017   4.900  0.0703 -0.1505 -0.9962
 1502TIP3   OH2 4511   4.883   1.063   1.749  0.5319  0.7170 -0.6923
 1502TIP3    H1 4512   4.949   1.114   1.796  0.5577  0.4649 -0.4512
 1502TIP3    H2 4513   4.934   0.993   1.706  0.2471 -0.4753  0.8458
 1503TIP3   OH2 4514   0.907   2.319   1.077  0.1441  0.1455 -0.2396
 1503TIP3    H1 4515   0.848   2.395   1.078 -0.7478 -0.5269 -0.3160
 1503TIP3    H2 4516   0.962   2.332   0.999  1.7132  1.9472  1.0794
 1504TIP3   OH2 4517   2.010   0.916   0.924 -0.1331  0.3295  0.1825
 1504TIP3    H1 4518   2.040   1.007   0.916 -0.8923  0.4510 -1.6447
 1504TIP3    H2 4519   1.933   0.911   0.867 -0.5469 -1.2818  0.8364
 1505TIP3   OH2 4520   4.185   5.885   0.517  0.0441 -0.2062 -0.2442
 1505TIP3    H1 4521   4.143   5.910   0.434  0.6344 -0.9469 -0.7826
 1505TIP3    H2 4522   4.112   5.874   0.578 -0.5581 -1.2759 -1.1203
 1506TIP3   OH2 4523   2.018   3.779   1.971 -0.0305  0.1813  0.0529
 1506TIP3    H1 4524   1.961   3.855   1.965  2.3572  1.9681 -3.1835
 1506TIP3    H2 4525   2.084   3.803   2.036  0.5538  0.7934 -0.7552
 1507TIP3   OH2 4526   3.482   3.336   3.639  0.5413 -0.1479  0.6511
 1507TIP3    H1 4527   3.518   3.251   3.663  1.8432  0.3626  0.6188
 1507TIP3    H2 4528   3.411   3.317   3.578  2.1967 -1.1457 -1.0656
 1508TIP3   OH2 4529   4.593   2.917   0.264  0.5762  0.3765 -0.5659
 1508TIP3    H1 4530   4.644   2.970   0.203 -0.8440  2.1904 -0.2474
 1508TIP3    H2 4531   4.609   2.956   0.350 -1.4120  1.1031 -0.4812
 1509TIP3   OH2 4532   4.759   5.286   3.527  0.3420  0.6555 -0.2993
 1509TIP3    H1 4533   4.835   5.231   3.514  0.7925  1.0775  0.4767
 1509TIP3    H2 4534   4.743   5.326   3.442 -0.4821 -1.2425 -1.0999
 1510TIP3   OH2 4535   0.474   1.617   3.830 -0.1463  0.2428  0.2026
 1510TIP3    H1 4536   0.529   1.542   3.853 -1.4450 -1.0663 -0.8000
 1510TIP3    H2 4537   0.443   1.649   3.915  0.7618 -0.0702  0.6765
 1511TIP3   OH2 4538   1.787   3.950   4.787  0.1459  0.1955 -0.4914
 1511TIP3    H1 4539   1.717   4.015   4.783  0.6345  1.0922  2.6763
 1511TIP3    H2 4540   1.742   3.868   4.808 -0.0390  0.6707  1.0638
 1512TIP3   OH2 4541   5.275   1.148   0.030 -0.7420 -0.1338  0.1834
 1512TIP3    H1 4542   5.240   1.147  -0.059  1.3472 -1.6387 -0.7124
 1512TIP3    H2 4543   5.287   1.241   0.049  0.4746  0.2113 -1.9002
 1513TIP3   OH2 4544   5.474   3.370   3.907  0.3661 -0.3850 -0.0046
 1513TIP3    H1 4545   5.468   3.466   3.915 -1.4277 -0.4427 -0.2810
 1513TIP3    H2 4546   5.426   3.337   3.983 -1.5726 -1.0111 -1.4175
 1514TIP3   OH2 4547   6.012   1.322   4.643 -0.1644  0.4540 -0.2624
 1514TIP3    H1 4548   5.916   1.317   4.647 -0.1000 -0.1970  1.2562
 1514TIP3    H2 4549   6.031   1.415   4.657 -0.5613  0.4263  0.5717
 1515TIP3   OH2 4550   6.030   4.879   2.907 -0.0340 -0.0572  0.4115
 1515TIP3    H1 4551   5.935   4.887   2.898 -0.1162 -1.3515 -0.0767
 1515TIP3    H2 4552   6.042   4.806   2.968  0.6530  1.4544  2.1769
 1516TIP3   OH2 4553   3.899   4.568   0.092 -0.2577 -0.4588  0.4559
 1516TIP3    H1 4554   3.905   4.479   0.057 -1.9279  0.1119 -1.4631
 1516TIP3    H2 4555   3.815   4.570   0.138 -0.4894  0.2532  0.0223
 1517TIP3   OH2 4556   3.797   2.531   0.190 -0.4975  0.4326  0.2436
 1517TIP3    H1 4557   3.783   2.485   0.107  1.8215 -1.8917  1.0145
 1517TIP3    H2 4558   3.884   2.570   0.182 -1.1615  2.1432  0.8099
 1518TIP3   OH2 4559   2.743   2.223   2.764  0.4487  0.0192 -0.0997
 1518TIP3    H1 4560   2.678   2.289   2.788 -1.1464 -1.9670  1.2837
 1518TIP3    H2 4561   2.822   2.250   2.810  0.1074  1.4315 -0.2819
 1519TIP3   OH2 4562   6.277   3.083   0.525 -0.6852 -0.3845  0.4081
 1519TIP3    H1 4563   6.226   3.025   0.468  0.6260  0.3075 -1.5905
 1519TIP3    H2 4564   6.229   3.166   0.522  0.0663  0.0397 -0.8440
 1520TIP3   OH2 4565   4.013   5.419   3.610 -0.6167 -0.0522  0.1889
 1520TIP3    H1 4566   4.012   5.485   3.679  0.3894  0.2481 -0.0675
 1520TIP3    H2 4567   4.076   5.353   3.641  2.3228  1.6306 -1.7925
 1521TIP3   OH2 4568   4.369   0.966   2.516 -0.6566  0.0084  0.3879
 1521TIP3    H1 4569   4.453   1.009   2.537 -1.5489  0.9263  2.3843
 1521TIP3    H2 4570   4.317   1.035   2.475 -1.2767  0.2016  1.4572
 1522TIP3   OH2 4571   3.177   0.551   3.781 -0.1489 -0.4778  0.9450
 1522TIP3    H1 4572   3.166   0.556   3.876  1.4937 -1.9593  1.2723
 1522TIP3    H2 4573   3.103   0.498   3.750 -0.3270 -0.5490  1.4899
 1523TIP3   OH2 4574   0.326   2.974   4.078  0.3000  0.3371 -0.1537
 1523TIP3    H1 4575   0.335   2.882   4.098 -0.2672  0.0420 -1.1485
 1523TIP3    H2 4576   0.366   2.984   3.991  0.4409  1.0412 -0.0189
 1524TIP3   OH2 4577   5.071   0.194   4.414  0.1321  0.0037 -0.3584
 1524TIP3    H1 4578   5.085   0.106   4.377 -0.9802 -0.7718  0.9455
 1524TIP3    H2 4579   5.094   0.254   4.343 -1.8875 -1.3872 -2.3578
 1525TIP3   OH2 4580   3.617   0.306   3.637 -0.1209 -0.4523 -0.3191
 1525TIP3    H1 4581   3.550   0.375   3.642 -0.3603 -0.6403 -0.8667
 1525TIP3    H2 4582   3.699   0.351   3.655  0.0264  0.4686 -2.8459
 1526TIP3   OH2 4583   2.437   4.816   4.164  0.0289 -0.5546  0.1415
 1526TIP3    H1 4584   2.475   4.835   4.078 -1.3016 -0.5428 -0.4628
 1526TIP3    H2 4585   2.459   4.725   4.181 -1.3858 -1.1618 -1.1307
 1527TIP3   OH2 4586   5.746   0.699   0.323 -0.1839 -0.1453 -0.4317
 1527TIP3    H1 4587   5.701   0.622   0.290  0.2682 -0.6709  0.1642
 1527TIP3    H2 4588   5.677   0.752   0.363 -0.2073 -1.2904  1.1399
 1528TIP3   OH2 4589   1.270   5.520   0.211  0.4206  0.0043  0.2765
 1528TIP3    H1 4590   1.187   5.524   0.259  0.0202 -0.6561 -0.3462
 1528TIP3    H2 4591   1.253   5.567   0.130  0.5244 -0.5123 -0.0434
 1529TIP3   OH2 4592   3.692   5.573   1.244  0.2599 -0.5034  0.2313
 1529TIP3    H1 4593   3.608   5.538   1.274  0.1570 -0.1999  0.2932
 1529TIP3    H2 4594   3.726   5.622   1.318  0.4541 -0.5550  0.1771
 1530TIP3   OH2 4595   0.844   2.254   3.211  0.3016 -0.5809  0.4328
 1530TIP3    H1 4596   0.914   2.214   3.160  0.4677 -0.8646  0.8730
 1530TIP3    H2 4597   0.808   2.323   3.155  0.7722 -0.5989  0.1115
 1531TIP3   OH2 4598   5.112   1.357   2.754 -0.5595  0.0770 -0.2235
 1531TIP3    H1 4599   5.152   1.300   2.689  0.1765 -0.2515  0.5100
 1531TIP3    H2 4600   5.103   1.441   2.709  1.0410  0.1877 -0.3908
 1532TIP3   OH2 4601   5.563   3.688   1.482  0.2522 -0.1796 -0.3698
 1532TIP3    H1 4602   5.651   3.684   1.520  0.5233  1.6468 -0.7187
 1532TIP3    H2 4603   5.542   3.781   1.480 -1.4475 -0.5386 -0.8918
 1533TIP3   OH2 4604   0.178   1.450   4.081 -0.1609 -0.2349 -0.4068
 1533TIP3    H1 4605   0.167   1.360   4.114  0.8380  0.2623  1.4273
 1533TIP3    H2 4606   0.150   1.506   4.153  1.0931  0.9321 -0.7874
 1534TIP3   OH2 4607   2.468   4.127   4.685  0.6656  0.0271 -0.5667
 1534TIP3    H1 4608   2.470   4.208   4.737  0.2666 -0.1170 -0.3200
 1534TIP3    H2 4609   2.558   4.116   4.655  0.7303  0.5503 -0.5813
 1535TIP3   OH2 4610   5.671   1.639   0.921 -0.2440 -0.1937  0.4522
 1535TIP3    H1 4611   5.631   1.708   0.975  0.5064  1.0414 -0.5222
 1535TIP3    H2 4612   5.756   1.623   0.962  1.0440  1.9193 -1.2025
 1536TIP3   OH2 4613   1.432   3.396   1.007 -0.5943  0.0177  0.2143
 1536TIP3    H1 4614   1.486   3.391   1.085  0.0421 -0.0654 -0.2214
 1536TIP3    H2 4615   1.371   3.468   1.024 -0.8140 -0.3457  0.9953
 1537TIP3   OH2 4616   3.880   3.728   0.996  0.3111  0.2991 -0.9609
 1537TIP3    H1 4617   3.796   3.683   1.007  1.1319 -1.0688 -0.0146
 1537TIP3    H2 4618   3.919   3.727   1.083  1.1478  1.2960 -1.3029
 1538TIP3   OH2 4619   1.174   5.488   2.719 -0.7617 -0.0745 -0.3129
 1538TIP3    H1 4620   1.248   5.457   2.667 -0.2124  1.8757 -0.7722
 1538TIP3    H2 4621   1.168   5.425   2.791 -0.3102 -1.7166 -1.6426
 1539TIP3   OH2 4622   6.140   1.696   4.127  0.0591  0.0634 -0.1669
 1539TIP3    H1 4623   6.183   1.666   4.207 -1.0606  1.4628  1.0046
 1539TIP3    H2 4624   6.047   1.697   4.149 -0.3024  0.1699 -1.6067
 1540TIP3   OH2 4625   0.351   1.106   5.054 -0.5472  0.3373 -0.5917
 1540TIP3    H1 4626   0.309   1.178   5.101  0.9128  1.7739 -1.4076
 1540TIP3    H2 4627   0.394   1.054   5.122 -0.9276  0.7003 -0.0693
 1541TIP3   OH2 4628   4.444   3.855   2.267 -0.0023  0.3860 -0.8756
 1541TIP3    H1 4629   4.451   3.924   2.333  1.6527 -0.0122 -0.5712
 1541TIP3    H2 4630   4.382   3.792   2.304  0.5300  0.4064  0.0909
 1542TIP3   OH2 4631   5.532   1.409   5.119 -0.2627  0.3172 -0.1874
 1542TIP3    H1 4632   5.604   1.457   5.077  0.4936 -1.0518 -0.5006
 1542TIP3    H2 4633   5.473   1.478   5.150  1.2215  1.4964  0.1762
 1543TIP3   OH2 4634   3.774   0.736   0.325  0.0302 -0.2546  0.6826
 1543TIP3    H1 4635   3.863   0.700   0.319  0.9229  1.8067  0.7817
 1543TIP3    H2 4636   3.717   0.661   0.310  1.7941 -1.4844 -0.2212
 1544TIP3   OH2 4637   3.153   3.283   1.760 -0.1190  0.2103  0.0795
 1544TIP3    H1 4638   3.138   3.189   1.770  0.8185  0.0480  0.0842
 1544TIP3    H2 4639   3.163   3.295   1.666  2.2435 -0.1405  0.2113
 1545TIP3   OH2 4640   1.232   1.996   5.016 -0.5280  0.3621 -0.2787
 1545TIP3    H1 4641   1.140   1.970   5.022 -0.5592  0.6714  0.8609
 1545TIP3    H2 4642   1.242   2.025   4.926 -0.3666 -3.9015 -1.8800
 1546TIP3   OH2 4643   0.327   2.536   1.076  0.7718  0.0178  0.0479
 1546TIP3    H1 4644   0.298   2.445   1.072  0.5449  0.1135 -0.6878
 1546TIP3    H2 4645   0.346   2.558   0.985  0.7583  0.7306  0.2166
 1547TIP3   OH2 4646   5.001   5.354   1.985  0.0618 -0.2976 -0.4572
 1547TIP3    H1 4647   5.031   5.320   1.900 -1.9232  3.1247 -2.7577
 1547TIP3    H2 4648   5.079   5.395   2.022  0.9995 -1.9793 -0.4569
 1548TIP3   OH2 4649   6.333   4.110   4.774 -0.1201 -0.4116  0.3200
 1548TIP3    H1 4650   6.363   4.030   4.732  1.5918 -0.5954  1.8072
 1548TIP3    H2 4651   6.258   4.082   4.828 -0.0097 -0.8577  0.2465
 1549TIP3   OH2 4652   2.585   4.070   2.186 -0.1872 -0.1927  0.0070
 1549TIP3    H1 4653   2.494   4.053   2.159  0.5728 -3.0250 -1.1945
 1549TIP3    H2 4654   2.585   4.054   2.280 -0.7385 -1.4501 -0.1808
 1550TIP3   OH2 4655   0.486   5.231   3.439  0.1840  0.0368 -0.0725
 1550TIP3    H1 4656   0.556   5.238   3.505  0.2458  0.4683 -0.1759
 1550TIP3    H2 4657   0.467   5.322   3.416 -0.6690 -0.0638  0.2168
 1551TIP3   OH2 4658   2.362   0.191   2.694 -0.6193 -0.6959 -0.5985
 1551TIP3    H1 4659   2.457   0.194   2.680 -0.2939 -1.1379  1.2221
 1551TIP3    H2 4660   2.330   0.132   2.626  0.1449  0.7338 -2.2907
 1552TIP3   OH2 4661   3.602   3.500   2.875  0.1542  0.2966  0.1383
 1552TIP3    H1 4662   3.638   3.589   2.869 -0.7379  0.6022 -1.0086
 1552TIP3    H2 4663   3.507   3.512   2.869 -0.0942 -0.6158  1.6513
 1553TIP3   OH2 4664   4.375   2.307   1.301 -0.3442  0.3701 -0.3969
 1553TIP3    H1 4665   4.358   2.218   1.271 -1.7870  0.4053  0.2204
 1553TIP3    H2 4666   4.470   2.313   1.305 -0.1901 -0.7172 -1.6585
 1554TIP3   OH2 4667   4.073   2.192   3.332 -0.4821 -0.0846  0.4003
 1554TIP3    H1 4668   4.067   2.163   3.241  0.0224  0.2736  0.2533
 1554TIP3    H2 4669   4.069   2.287   3.328 -0.3333 -0.0626  0.7478
 1555TIP3   OH2 4670   5.753   2.505   5.126  0.3847 -0.0932 -0.2557
 1555TIP3    H1 4671   5.817   2.572   5.149 -0.7504  0.9853 -0.1065
 1555TIP3    H2 4672   5.669   2.543   5.152 -0.3852 -1.1687 -1.0918
 1556TIP3   OH2 4673   4.977   5.955   1.396  0.1358  0.1453  0.5242
 1556TIP3    H1 4674   5.008   5.940   1.485  0.1040  0.2315  0.5500
 1556TIP3    H2 4675   5.041   5.911   1.340 -0.1351 -0.3787  0.6122
 1557TIP3   OH2 4676   2.018   5.609   4.856 -0.6774  0.1530 -0.0700
 1557TIP3    H1 4677   2.039   5.686   4.802 -1.3211  0.1262 -0.3687
 1557TIP3    H2 4678   2.037   5.534   4.800  2.6124 -0.0631  1.1225
 1558TIP3   OH2 4679   6.238   2.846   1.910  0.1355 -0.6726  0.1935
 1558TIP3    H1 4680   6.234   2.936   1.877 -3.2706 -0.9487 -0.5114
 1558TIP3    H2 4681   6.222   2.855   2.004 -0.2705 -0.5036  0.1142
 1559TIP3   OH2 4682   1.840   1.443   2.995 -0.1441  0.1051 -0.6422
 1559TIP3    H1 4683   1.929   1.448   2.961  0.1863  0.7770  0.2949
 1559TIP3    H2 4684   1.850   1.444   3.090 -1.1864  1.0734 -0.5235
 1560TIP3   OH2 4685   4.078   1.613   1.151  0.0451 -1.0187 -0.4709
 1560TIP3    H1 4686   4.059   1.616   1.058 -2.7800 -0.8047  0.0396
 1560TIP3    H2 4687   4.041   1.529   1.181  0.8981 -1.0831  0.4788
 1561TIP3   OH2 4688   5.998   1.916   4.746 -0.1182  0.0019 -1.0912
 1561TIP3    H1 4689   6.031   1.898   4.658  4.2163  2.4494 -0.2932
 1561TIP3    H2 4690   6.053   1.863   4.803  0.0621  1.5294  0.2335
 1562TIP3   OH2 4691   3.525   4.502   1.165  0.3409  0.0914 -0.1340
 1562TIP3    H1 4692   3.589   4.542   1.223 -0.2097  0.2962  0.3424
 1562TIP3    H2 4693   3.573   4.486   1.084  1.3110 -0.8385  0.5899
 1563TIP3   OH2 4694   3.026   4.783   1.774  0.0586  0.0164  0.5538
 1563TIP3    H1 4695   3.074   4.727   1.714  2.0180  1.2014  0.9039
 1563TIP3    H2 4696   2.958   4.727   1.811  0.4708 -1.4447 -0.7953
 1564TIP3   OH2 4697   0.534   0.768   3.651 -0.2943 -0.3010 -0.5367
 1564TIP3    H1 4698   0.615   0.811   3.680 -1.0500  0.7323  0.1186
 1564TIP3    H2 4699   0.535   0.684   3.696 -0.3811  0.3960  0.8354
 1565TIP3   OH2 4700   3.884   5.861   1.677  0.4748  0.0712  0.0749
 1565TIP3    H1 4701   3.909   5.954   1.678  0.6104  0.0546 -1.2023
 1565TIP3    H2 4702   3.789   5.862   1.691  0.5209  0.3723  0.3937
 1566TIP3   OH2 4703   1.581   3.277   0.601  0.4380  0.1273  0.4997
 1566TIP3    H1 4704   1.502   3.234   0.567 -0.7406  1.3801  1.5403
 1566TIP3    H2 4705   1.580   3.365   0.562  2.1525 -0.2866 -0.6252
 1567TIP3   OH2 4706   6.004   3.970   1.761 -0.7445  0.0376  0.1191
 1567TIP3    H1 4707   6.099   3.976   1.753 -0.5993  1.0659  2.0256
 1567TIP3    H2 4708   5.971   4.027   1.692  0.0448  0.3083 -0.0481
 1568TIP3   OH2 4709   2.126   4.955   4.373  0.1232  0.2452  0.3365
 1568TIP3    H1 4710   2.186   5.025   4.345 -0.1186 -0.3457 -1.8552
 1568TIP3    H2 4711   2.039   4.991   4.357 -0.0683  0.1520  1.1117
 1569TIP3   OH2 4712   2.274   2.352   1.395  0.1670  0.1860 -0.0763
 1569TIP3    H1 4713   2.249   2.428   1.341  0.4076  1.1737  1.1688
 1569TIP3    H2 4714   2.192   2.305   1.409  0.1079 -0.1232 -1.3427
 1570TIP3   OH2 4715   3.930   1.985   4.858  0.6118 -0.1382 -0.3210
 1570TIP3    H1 4716   3.983   2.064   4.870 -0.1381  0.9439 -3.1125
 1570TIP3    H2 4717   3.987   1.913   4.885  2.3483  1.1881 -0.2680
 1571TIP3   OH2 4718   0.478   0.532   1.505  0.0351 -0.6983  0.0704
 1571TIP3    H1 4719   0.530   0.463   1.546 -1.5485 -1.1900  1.3705
 1571TIP3    H2 4720   0.455   0.497   1.419 -0.6952 -1.8085  0.6925
 1572TIP3   OH2 4721   4.127   1.922   3.855 -0.1509 -0.0339 -0.4156
 1572TIP3    H1 4722   4.043   1.929   3.900 -0.3528  0.1678 -0.8231
 1572TIP3    H2 4723   4.152   1.829   3.865 -2.3604 -1.1612 -3.6781
 1573TIP3   OH2 4724   5.838   3.583   1.119 -0.1108  0.0012 -0.3465
 1573TIP3    H1 4725   5.833   3.601   1.025 -2.2713  1.5327 -0.0154
 1573TIP3    H2 4726   5.849   3.669   1.159  1.5669 -0.7017  0.8104
 1574TIP3   OH2 4727   4.339   0.547   3.462  0.0347  0.1129 -0.5914
 1574TIP3    H1 4728   4.419   0.498   3.442  1.4563  2.5346 -1.1398
 1574TIP3    H2 4729   4.322   0.600   3.385 -1.4311  0.5690  0.0041
 1575TIP3   OH2 4730   1.354   2.138   3.150  0.3206 -0.6098 -0.4099
 1575TIP3    H1 4731   1.445   2.119   3.175  0.6213  0.7028 -0.4381
 1575TIP3    H2 4732   1.348   2.108   3.059  0.0912 -2.6023  0.1937
 1576TIP3   OH2 4733   2.901   1.358   1.956 -0.1362 -0.6890  0.2638
 1576TIP3    H1 4734   2.906   1.431   2.018  0.9957 -1.6789  1.3795
 1576TIP3    H2 4735   2.812   1.323   1.967 -0.6785  0.4698 -0.2588
 1577TIP3   OH2 4736   0.587   1.197   1.061 -0.2326  0.1500  0.0231
 1577TIP3    H1 4737   0.667   1.160   1.022  1.2383  1.3073  1.7761
 1577TIP3    H2 4738   0.542   1.121   1.099  0.9131 -0.3406  0.4631
 1578TIP3   OH2 4739   1.160   2.761   3.046  0.2999 -0.0173  0.2242
 1578TIP3    H1 4740   1.214   2.805   3.112  1.5304 -0.4888 -0.4456
 1578TIP3    H2 4741   1.147   2.673   3.081  0.8354 -0.2236 -0.0866
 1579TIP3   OH2 4742   4.976   2.481   4.675  0.2366  0.2257 -0.0207
 1579TIP3    H1 4743   5.008   2.391   4.684 -1.0385 -0.1805  0.8446
 1579TIP3    H2 4744   5.055   2.535   4.674  0.9807 -0.7665  1.4297
 1580TIP3   OH2 4745   4.785   0.315   2.800 -0.4368  0.5756 -0.4579
 1580TIP3    H1 4746   4.759   0.232   2.838  3.9951  0.7741  3.9418
 1580TIP3    H2 4747   4.732   0.380   2.847  1.2538  0.4876  1.7200
 1581TIP3   OH2 4748   2.072   0.761   1.173 -0.1902  0.1033  0.4285
 1581TIP3    H1 4749   2.047   0.797   1.088 -1.8842 -2.3424 -0.2256
 1581TIP3    H2 4750   2.147   0.705   1.155 -1.3155 -1.4211  0.2003
 1582TIP3   OH2 4751   4.921   0.683   0.921  0.1269 -0.3964  0.0312
 1582TIP3    H1 4752   5.012   0.659   0.904  0.4583 -0.3757  1.5871
 1582TIP3    H2 4753   4.879   0.602   0.948  0.2624 -0.0345  1.4452
 1583TIP3   OH2 4754   1.767   5.244   0.799  0.0819 -0.2504 -0.7357
 1583TIP3    H1 4755   1.823   5.260   0.723  1.3968  0.4845  0.3431
 1583TIP3    H2 4756   1.821   5.190   0.857 -0.7511 -0.4572 -0.1440
 1584TIP3   OH2 4757   5.050   5.568   4.949 -0.3197 -0.0888 -0.3388
 1584TIP3    H1 4758   5.065   5.551   4.856  0.0978  1.0887 -0.5069
 1584TIP3    H2 4759   5.128   5.616   4.977 -0.7308  0.1220  0.4615
 1585TIP3   OH2 4760   0.292   4.930   0.546 -0.5863  0.0235  0.3025
 1585TIP3    H1 4761   0.212   4.939   0.494  0.4752  1.7304 -1.1271
 1585TIP3    H2 4762   0.273   4.979   0.627 -0.8443  0.8418 -0.2393
 1586TIP3   OH2 4763   2.041   5.896   1.567 -0.1199 -0.1329 -0.2812
 1586TIP3    H1 4764   2.037   5.884   1.662  0.9929  2.8834  0.2546
 1586TIP3    H2 4765   2.109   5.962   1.554  0.7415 -1.4296 -3.3277
 1587TIP3   OH2 4766   0.029   5.716   1.783  0.0727  0.2673  0.3082
 1587TIP3    H1 4767  -0.041   5.656   1.760 -1.0377  1.1413  1.3070
 1587TIP3    H2 4768   0.103   5.688   1.728 -0.4658 -1.8160  0.5618
 1588TIP3   OH2 4769   3.743   0.654   2.741  0.1440  0.2432 -0.1523
 1588TIP3    H1 4770   3.729   0.571   2.695  1.6938  0.9259 -2.0101
 1588TIP3    H2 4771   3.704   0.720   2.683  2.1325  1.1289 -0.5744
 1589TIP3   OH2 4772   5.787   3.884   3.728  0.1720 -0.2097  0.0818
 1589TIP3    H1 4773   5.767   3.904   3.637 -0.9495  0.2410  0.4044
 1589TIP3    H2 4774   5.823   3.795   3.726  1.1203  0.1861 -0.9042
 1590TIP3   OH2 4775   0.449   4.541   5.184  0.1674  0.1613  0.0484
 1590TIP3    H1 4776   0.358   4.521   5.164  0.2844 -0.9022  0.5062
 1590TIP3    H2 4777   0.458   4.634   5.166 -1.3007  0.5338  1.0646
 1591TIP3   OH2 4778   2.526   5.305   1.531 -0.0060  0.4292 -0.4205
 1591TIP3    H1 4779   2.518   5.340   1.619  2.0759  0.1229 -0.0579
 1591TIP3    H2 4780   2.495   5.375   1.474  1.3439  1.7696  0.4282
 1592TIP3   OH2 4781   1.648   2.691   3.717 -0.3011  0.0372 -0.4401
 1592TIP3    H1 4782   1.623   2.742   3.640 -1.6049  0.1081  0.0154
 1592TIP3    H2 4783   1.689   2.754   3.776  1.1808 -0.1093 -1.2507
 1593TIP3   OH2 4784   2.817   0.562   3.696  0.6533  0.3479 -0.0071
 1593TIP3    H1 4785   2.747   0.579   3.759 -1.0666 -1.9310 -1.1798
 1593TIP3    H2 4786   2.867   0.490   3.734 -0.4411 -1.0903 -1.2031
 1594TIP3   OH2 4787   5.075   4.940   1.514  0.0907 -0.0077 -0.2593
 1594TIP3    H1 4788   5.163   4.963   1.485  0.9629 -1.5494  0.9932
 1594TIP3    H2 4789   5.089   4.888   1.593 -1.9502 -0.4202 -0.1207
 1595TIP3   OH2 4790   4.477   5.497   4.931 -0.1016 -0.1587  0.5441
 1595TIP3    H1 4791   4.423   5.467   4.858  0.6349 -1.6080  0.5563
 1595TIP3    H2 4792   4.566   5.474   4.906  0.3884  1.1155  1.0486
 1596TIP3   OH2 4793   2.454   3.591   4.006  0.2481 -0.1213  0.8404
 1596TIP3    H1 4794   2.449   3.682   3.974 -0.1360 -0.0129  1.1965
 1596TIP3    H2 4795   2.529   3.554   3.960  0.2902  0.3200  0.5402
 1597TIP3   OH2 4796   5.217   4.506   4.708 -0.1231  0.2860  0.1079
 1597TIP3    H1 4797   5.256   4.453   4.777 -1.9337 -0.3855  0.6648
 1597TIP3    H2 4798   5.210   4.593   4.745 -0.1857  0.1522  0.4093
 1598TIP3   OH2 4799   4.061   2.307   0.413  0.3394 -0.6575 -0.3363
 1598TIP3    H1 4800   4.011   2.388   0.423  0.7606 -0.3037 -0.9988
 1598TIP3    H2 4801   4.059   2.290   0.319  2.8650  0.2859 -0.6156
 1599TIP3   OH2 4802   2.540   3.168   1.273  0.4919  0.2192  0.0720
 1599TIP3    H1 4803   2.625   3.198   1.241  0.9345 -1.6534 -0.6463
 1599TIP3    H2 4804   2.556   3.079   1.304 -1.2496 -0.2973 -0.3675
 1600TIP3   OH2 4805   4.479   0.768   3.592 -0.1712  0.0141  0.2527
 1600TIP3    H1 4806   4.425   0.691   3.574 -0.5353  0.5195 -0.9351
 1600TIP3    H2 4807   4.421   0.826   3.642  0.1914 -0.5753  1.3870
 1601TIP3   OH2 4808   4.090   0.409   1.161  0.4570 -0.0350 -0.6112
 1601TIP3    H1 4809   4.067   0.379   1.248 -1.0113 -2.1146 -1.6278
 1601TIP3    H2 4810   4.169   0.359   1.139 -0.7966 -1.7580 -1.4923
 1602TIP3   OH2 4811   1.424   1.639   0.517  0.2419  0.0415  0.3524
 1602TIP3    H1 4812   1.497   1.678   0.468 -0.1488  2.1250  1.3259
 1602TIP3    H2 4813   1.451   1.644   0.609 -0.1648 -1.3592  0.5846
 1603TIP3   OH2 4814   6.279   0.408   2.194  1.5124  0.1816  0.4765
 1603TIP3    H1 4815   6.278   0.461   2.273 -1.1894  0.8318  0.0908
 1603TIP3    H2 4816   6.318   0.464   2.128  0.4042  1.0340  0.5192
 1604TIP3   OH2 4817   0.501   1.327   2.569  0.2950  0.2943 -0.1414
 1604TIP3    H1 4818   0.514   1.390   2.498  3.0560 -1.3532 -1.2886
 1604TIP3    H2 4819   0.561   1.355   2.638  0.9843 -0.5809 -0.3602
 1605TIP3   OH2 4820   6.330   3.531   4.940  0.4241  0.2310 -0.2124
 1605TIP3    H1 4821   6.293   3.531   5.029 -0.6840  1.8819 -0.6167
 1605TIP3    H2 4822   6.403   3.592   4.945  0.7791 -0.1887 -0.2799
 1606TIP3   OH2 4823   4.765   3.775   4.320 -0.0128  0.3247  0.3863
 1606TIP3    H1 4824   4.797   3.750   4.234 -1.2919  1.6481 -0.5334
 1606TIP3    H2 4825   4.832   3.745   4.381  0.1984 -2.0244 -0.9039
 1607TIP3   OH2 4826   4.570   2.091   1.050  0.4048 -0.3813 -0.0392
 1607TIP3    H1 4827   4.537   2.096   0.960  0.2192  1.7203  0.0974
 1607TIP3    H2 4828   4.658   2.053   1.042  0.5389  0.1440 -1.1459
 1608TIP3   OH2 4829   3.977   0.451   0.785 -0.4187  0.2720 -0.0681
 1608TIP3    H1 4830   4.000   0.510   0.713  0.1093  1.0853  0.7481
 1608TIP3    H2 4831   3.944   0.508   0.853 -2.1857 -0.6138 -0.1272
 1609TIP3   OH2 4832   3.906   2.232   2.659  0.7728 -0.3564 -0.4952
 1609TIP3    H1 4833   3.962   2.155   2.649  2.2180  0.4630  0.8572
 1609TIP3    H2 4834   3.951   2.301   2.611  0.8673  0.2665  0.4506
 1610TIP3   OH2 4835   5.949   0.003   0.145  0.1876 -0.0702  0.4316
 1610TIP3    H1 4836   5.978   0.089   0.114  0.6034 -1.0131 -2.0211
 1610TIP3    H2 4837   5.959  -0.054   0.069 -1.3358 -2.0165  1.6117
 1611TIP3   OH2 4838   1.445   3.561   0.134  0.4227 -0.4214  0.0328
 1611TIP3    H1 4839   1.422   3.613   0.211 -3.1437 -0.2581 -0.9513
 1611TIP3    H2 4840   1.468   3.625   0.067  3.0992 -0.5475  0.7323
 1612TIP3   OH2 4841   1.848   1.132   1.796 -0.6188  0.2303 -0.4648
 1612TIP3    H1 4842   1.920   1.120   1.734 -1.3521  0.5042 -1.4002
 1612TIP3    H2 4843   1.823   1.224   1.786 -0.5776  0.3462  0.4386
 1613TIP3   OH2 4844   1.457   0.675   0.701  0.2288 -0.1331  0.2331
 1613TIP3    H1 4845   1.524   0.613   0.674  0.7712  0.4014  0.3341
 1613TIP3    H2 4846   1.494   0.761   0.682 -0.3742  0.1775  0.4100
 1614TIP3   OH2 4847   5.473   3.837   0.123 -0.4746 -0.1001 -0.4562
 1614TIP3    H1 4848   5.450   3.927   0.145  1.6530  0.5982 -0.9266
 1614TIP3    H2 4849   5.488   3.795   0.208 -0.0522  0.3828 -0.2882
 1615TIP3   OH2 4850   3.501   2.565   2.521 -0.2055 -0.0657 -0.0790
 1615TIP3    H1 4851   3.477   2.602   2.437  0.2587  0.1245 -0.1255
 1615TIP3    H2 4852   3.423   2.577   2.575 -0.7813 -0.8822 -0.7044
 1616TIP3   OH2 4853   0.572   2.151   1.165  0.3994  0.5304 -0.1135
 1616TIP3    H1 4854   0.546   2.123   1.077  2.4084 -0.6712 -0.4141
 1616TIP3    H2 4855   0.658   2.110   1.177 -0.6162 -0.9266  3.1592
 1617TIP3   OH2 4856   0.570   2.936   5.037  0.5600 -0.4548 -0.1901
 1617TIP3    H1 4857   0.536   2.910   5.122  0.0264  0.6298 -0.0534
 1617TIP3    H2 4858   0.586   2.854   4.991 -0.1810 -1.0299  0.5523
 1618TIP3   OH2 4859   4.966   3.788   2.730 -0.6075 -0.2380  0.1944
 1618TIP3    H1 4860   4.965   3.724   2.802 -0.2636 -0.2183  0.2213
 1618TIP3    H2 4861   5.058   3.814   2.724 -0.7125  0.0914  0.0370
 1619TIP3   OH2 4862   5.743   1.416   2.714 -0.3128 -0.8244  0.4013
 1619TIP3    H1 4863   5.748   1.407   2.619  0.8141  2.8492 -0.0562
 1619TIP3    H2 4864   5.685   1.491   2.728  3.5276  2.1420  2.1806
 1620TIP3   OH2 4865   1.064   2.595   0.333 -0.4097 -0.0634 -0.0653
 1620TIP3    H1 4866   1.117   2.664   0.292  1.5406 -1.3150  0.2163
 1620TIP3    H2 4867   0.988   2.641   0.369 -0.9220  1.4428 -2.8177
 1621TIP3   OH2 4868   3.350   4.003   1.601 -0.2171  0.3511 -0.1209
 1621TIP3    H1 4869   3.278   3.994   1.538 -0.0861 -2.2889  0.0053
 1621TIP3    H2 4870   3.418   3.944   1.569 -0.2008 -1.2292  2.4867
 1622TIP3   OH2 4871   3.271   2.954   4.659 -0.2328 -0.0078  0.2270
 1622TIP3    H1 4872   3.332   2.963   4.733  0.5971 -1.7827 -0.1872
 1622TIP3    H2 4873   3.293   2.870   4.620 -1.1908  0.5353 -1.5888
 1623TIP3   OH2 4874   1.806   1.898   4.545  0.4298 -0.3298  0.1894
 1623TIP3    H1 4875   1.870   1.891   4.616  0.9504 -2.3044 -0.3935
 1623TIP3    H2 4876   1.853   1.944   4.475  0.7249 -0.4484  0.3047
 1624TIP3   OH2 4877   1.335   1.546   1.528 -0.3612  0.3201 -0.2235
 1624TIP3    H1 4878   1.381   1.518   1.606 -0.8274 -0.2592 -0.1483
 1624TIP3    H2 4879   1.262   1.485   1.520 -1.3854  1.4803 -0.0842
 1625TIP3   OH2 4880   0.738   1.036   1.569 -0.2865  0.0168  0.2684
 1625TIP3    H1 4881   0.779   0.999   1.647 -0.5831 -1.5329 -0.2699
 1625TIP3    H2 4882   0.645   1.040   1.591 -0.4901 -1.2218 -0.2671
 1626TIP3   OH2 4883   5.787   3.082   4.092 -0.2739  0.1139 -0.3720
 1626TIP3    H1 4884   5.719   3.037   4.142  0.2855  1.2041  1.4409
 1626TIP3    H2 4885   5.863   3.083   4.150  0.4296  1.3530 -1.2668
 1627TIP3   OH2 4886   3.005   0.380   4.859 -0.2808 -0.0930 -0.1593
 1627TIP3    H1 4887   3.093   0.344   4.846 -0.7934 -2.0485  1.3073
 1627TIP3    H2 4888   2.989   0.433   4.781  2.4473  0.9128 -0.1539
 1628TIP3   OH2 4889   3.824   2.714   2.155 -0.4874  0.2943 -0.3368
 1628TIP3    H1 4890   3.890   2.784   2.162 -2.1220  1.9615 -0.7239
 1628TIP3    H2 4891   3.856   2.658   2.084  1.0955  0.3590  0.2768
 1629TIP3   OH2 4892   5.373   5.644   1.357  0.4998  0.1401  0.1828
 1629TIP3    H1 4893   5.456   5.600   1.341  0.1276 -0.7512  0.6561
 1629TIP3    H2 4894   5.392   5.707   1.427  0.7561 -0.1293  0.3561
 1630TIP3   OH2 4895   5.429   4.808   2.678 -0.8062 -0.7111 -0.0121
 1630TIP3    H1 4896   5.498   4.797   2.614 -0.9270 -1.5910 -0.0084
 1630TIP3    H2 4897   5.428   4.902   2.697  1.0674 -0.8025  0.7511
 1631TIP3   OH2 4898   5.466   1.484   1.171  0.2035 -0.2213 -0.1942
 1631TIP3    H1 4899   5.484   1.560   1.115  0.9072 -0.2613 -0.0416
 1631TIP3    H2 4900   5.539   1.483   1.233 -0.5654 -0.1743  0.7328
 1632TIP3   OH2 4901   1.854   2.830   4.352  0.2205  0.1983  0.0868
 1632TIP3    H1 4902   1.886   2.873   4.432 -0.2695 -0.2329  0.5166
 1632TIP3    H2 4903   1.922   2.765   4.332  1.6108  1.9413 -1.2729
 1633TIP3   OH2 4904   3.759   5.524   0.462 -0.2585 -0.5227  0.3614
 1633TIP3    H1 4905   3.815   5.595   0.431  0.2648 -0.9054  0.4241
 1633TIP3    H2 4906   3.792   5.446   0.419 -0.2345 -0.8824  1.0087
 1634TIP3   OH2 4907   1.807   1.748   3.074  0.4321  0.2617  0.0982
 1634TIP3    H1 4908   1.723   1.780   3.043  0.1707  0.2977  0.8153
 1634TIP3    H2 4909   1.820   1.664   3.029  0.8167  1.0381 -1.2886
 1635TIP3   OH2 4910   3.885   4.126   4.311 -0.3554  0.5146 -0.0325
 1635TIP3    H1 4911   3.809   4.095   4.261 -0.1462 -1.0545  0.5713
 1635TIP3    H2 4912   3.847   4.169   4.388 -0.6707 -1.1091  0.7649
 1636TIP3   OH2 4913   4.622   5.293   0.174 -0.1580 -0.2716  0.2383
 1636TIP3    H1 4914   4.608   5.387   0.191  3.0405  0.0820  1.6443
 1636TIP3    H2 4915   4.631   5.287   0.079  1.1651  1.1788  0.2281
 1637TIP3   OH2 4916   1.351   4.750   1.479 -0.4182  0.0308  0.1780
 1637TIP3    H1 4917   1.390   4.708   1.555  1.1227 -0.8807 -1.0563
 1637TIP3    H2 4918   1.268   4.786   1.511  0.0415 -0.5841  2.1858
 1638TIP3   OH2 4919   2.875   0.103   4.514 -0.1199 -0.0315  0.2205
 1638TIP3    H1 4920   2.895   0.019   4.555  0.0761 -0.5369 -0.9049
 1638TIP3    H2 4921   2.950   0.159   4.536  0.5097 -0.6321 -0.3811
 1639TIP3   OH2 4922   5.274   2.063   4.140 -0.4280  0.5806 -0.0984
 1639TIP3    H1 4923   5.339   1.995   4.155 -0.6498  0.2888 -0.4498
 1639TIP3    H2 4924   5.206   2.046   4.205 -0.4794  0.4728 -0.1806
 1640TIP3   OH2 4925   3.043   1.010   3.465 -0.2608  0.2367 -0.2302
 1640TIP3    H1 4926   2.990   1.086   3.440 -0.3591  0.2512  0.0186
 1640TIP3    H2 4927   3.081   1.034   3.549 -1.3110 -0.4842  0.4784
 1641TIP3   OH2 4928   0.171   4.610   4.156 -0.1722 -0.2743  0.2441
 1641TIP3    H1 4929   0.091   4.586   4.109  0.9055 -1.4272 -1.0859
 1641TIP3    H2 4930   0.203   4.688   4.110  0.0867 -0.5190  0.0034
 1642TIP3   OH2 4931   1.363   1.625   4.895 -0.2388  0.7342  0.4443
 1642TIP3    H1 4932   1.423   1.647   4.967  0.9655  0.8118 -0.5426
 1642TIP3    H2 4933   1.282   1.600   4.938  0.1441  1.7061  1.7980
 1643TIP3   OH2 4934   4.700   1.756   1.070 -0.2023 -0.2036 -0.0110
 1643TIP3    H1 4935   4.717   1.719   0.983 -0.2343 -0.5960  0.1516
 1643TIP3    H2 4936   4.663   1.684   1.121  3.4781 -1.2283  1.5783
 1644TIP3   OH2 4937   3.255   2.288   1.259 -0.3906 -0.4380 -0.1025
 1644TIP3    H1 4938   3.193   2.262   1.191 -0.0101 -2.4833  0.2663
 1644TIP3    H2 4939   3.286   2.374   1.231 -0.6840 -0.9562 -2.2168
 1645TIP3   OH2 4940   1.975   3.111   0.407 -0.2585 -0.1547  0.7453
 1645TIP3    H1 4941   2.000   3.199   0.436  0.7322  0.0905 -0.7080
 1645TIP3    H2 4942   2.057   3.063   0.404 -0.8993 -1.4294  2.3361
 1646TIP3   OH2 4943   3.222   5.619   1.284 -0.0147  0.3121 -0.6729
 1646TIP3    H1 4944   3.164   5.575   1.347  0.6490 -0.6539 -0.7092
 1646TIP3    H2 4945   3.173   5.621   1.203 -0.7041  1.1655 -0.2533
 1647TIP3   OH2 4946   3.958   1.233   2.278 -0.1315 -0.2258  0.4026
 1647TIP3    H1 4947   3.966   1.156   2.221 -0.3152 -1.6635  2.2225
 1647TIP3    H2 4948   3.869   1.227   2.313  0.2139  0.2154  1.3794
 1648TIP3   OH2 4949   3.394   0.557   4.820  0.1682 -0.1082  0.3506
 1648TIP3    H1 4950   3.441   0.478   4.796 -0.0783  0.1997 -1.2476
 1648TIP3    H2 4951   3.342   0.532   4.896  1.6106 -0.9112  1.1194
 1649TIP3   OH2 4952   6.326   0.149   3.455  0.8647  0.5008  0.5065
 1649TIP3    H1 4953   6.339   0.056   3.474 -0.7462  0.4574  1.6010
 1649TIP3    H2 4954   6.235   0.166   3.478  1.4670  2.6554  1.6294
 1650TIP3   OH2 4955   6.300   1.466   4.646 -0.3248 -0.1944  0.2527
 1650TIP3    H1 4956   6.348   1.387   4.674 -1.0677 -1.1921 -1.1649
 1650TIP3    H2 4957   6.333   1.535   4.703  2.4650 -0.9178 -0.3100
 1651TIP3   OH2 4958   2.201   0.398   4.118 -0.2943 -0.0022 -0.3166
 1651TIP3    H1 4959   2.193   0.318   4.170  0.5135 -0.2525 -0.5641
 1651TIP3    H2 4960   2.229   0.465   4.181  1.0075 -0.3785 -0.4594
 1652TIP3   OH2 4961   5.899   2.447   3.697  0.2873  0.5375 -0.9070
 1652TIP3    H1 4962   5.849   2.526   3.675 -0.0074 -0.2363 -3.3556
 1652TIP3    H2 4963   5.868   2.423   3.784  0.7026  3.3019  0.1173
 1653TIP3   OH2 4964   1.183   0.209   4.231 -0.0081  0.0654 -0.1897
 1653TIP3    H1 4965   1.158   0.261   4.308  0.7952  0.2219 -0.0301
 1653TIP3    H2 4966   1.267   0.170   4.254  0.4597  0.4623 -1.1543
 1654TIP3   OH2 4967   4.644   3.093   1.116 -0.2978 -0.5160  0.1935
 1654TIP3    H1 4968   4.597   3.037   1.178 -0.0762 -0.3340  0.5266
 1654TIP3    H2 4969   4.664   3.172   1.166  0.1456 -0.4920 -0.0207
 1655TIP3   OH2 4970   1.341   2.901   3.965 -0.1408 -0.0537 -0.3732
 1655TIP3    H1 4971   1.414   2.963   3.959  0.3874 -0.7047 -0.8438
 1655TIP3    H2 4972   1.270   2.942   3.915 -0.0312  0.4969 -0.0757
 1656TIP3   OH2 4973   3.567   3.558   0.481  0.5169  0.0819  0.4601
 1656TIP3    H1 4974   3.659   3.547   0.503  0.4261 -0.8386  0.4482
 1656TIP3    H2 4975   3.540   3.637   0.529  1.6616  1.2460 -0.7462
 1657TIP3   OH2 4976   2.146   3.609   3.984  0.5594  0.0708  0.2803
 1657TIP3    H1 4977   2.172   3.584   4.073 -0.5665 -0.6818  0.4159
 1657TIP3    H2 4978   2.113   3.698   3.992  0.5096  0.0239  0.6096
 1658TIP3   OH2 4979   6.325   3.534   1.439  0.2447 -0.1744  0.0604
 1658TIP3    H1 4980   6.248   3.577   1.401  0.6677  0.5962  0.0468
 1658TIP3    H2 4981   6.293   3.494   1.520 -0.6298 -1.6848 -0.9711
 1659TIP3   OH2 4982   0.476   0.843   0.520 -0.1013 -0.4873  0.0523
 1659TIP3    H1 4983   0.517   0.759   0.499 -1.3497 -1.3911  1.1147
 1659TIP3    H2 4984   0.382   0.829   0.507 -0.3523  0.6890  0.4167
 1660TIP3   OH2 4985   3.772   4.680   2.139 -0.0581  0.2687  0.5669
 1660TIP3    H1 4986   3.770   4.756   2.198  1.6054  0.5571  0.3057
 1660TIP3    H2 4987   3.766   4.718   2.051  2.7524  0.3477  0.3191
 1661TIP3   OH2 4988   2.134   5.212   0.974  0.8388  0.2224  0.1650
 1661TIP3    H1 4989   2.160   5.272   0.904  3.0105  0.9115  1.4531
 1661TIP3    H2 4990   2.217   5.183   1.013 -0.2562 -0.1420  2.4016
 1662TIP3   OH2 4991   3.118   1.393   0.296 -0.3694  0.6292  0.0432
 1662TIP3    H1 4992   3.177   1.426   0.364 -0.8510  0.3742  0.6007
 1662TIP3    H2 4993   3.162   1.315   0.262  0.5162  1.5088 -0.9036
 1663TIP3   OH2 4994   2.806   1.785   2.956  0.4999  0.0277 -0.0049
 1663TIP3    H1 4995   2.874   1.737   3.004 -0.2625 -1.6155 -0.4745
 1663TIP3    H2 4996   2.793   1.733   2.876 -0.5685  0.8845 -0.4119
 1664TIP3   OH2 4997   5.347   0.274   0.644  0.5686  0.2022 -0.5129
 1664TIP3    H1 4998   5.348   0.183   0.674  0.8700  0.5515  0.5997
 1664TIP3    H2 4999   5.255   0.293   0.627  0.4108 -0.0892 -0.0169
 1665TIP3   OH2 5000   1.296   1.083   2.617 -0.4799 -0.4182  0.2016
 1665TIP3    H1 5001   1.383   1.072   2.580 -0.6655 -0.2142 -0.3137
 1665TIP3    H2 5002   1.240   1.028   2.562 -1.0310  1.1654 -0.9094
 1666TIP3   OH2 5003   3.090   3.354   2.417  0.2309 -0.4338 -0.0212
 1666TIP3    H1 5004   3.109   3.403   2.337 -0.2321  0.2088  0.2551
 1666TIP3    H2 5005   2.997   3.368   2.433  0.4893  0.1594  1.0980
 1667TIP3   OH2 5006   0.715   5.817   0.255  0.7206  0.1457 -0.7384
 1667TIP3    H1 5007   0.757   5.794   0.337 -0.4387 -0.6502 -0.3456
 1667TIP3    H2 5008   0.662   5.894   0.276 -0.5407 -0.7889 -0.4122
 1668TIP3   OH2 5009   1.469   2.772   4.639  0.1130 -0.1397  0.3327
 1668TIP3    H1 5010   1.420   2.832   4.583  1.8163  1.2786  0.2576
 1668TIP3    H2 5011   1.521   2.830   4.696  2.2919 -1.4760 -0.1688
 1669TIP3   OH2 5012   6.024   5.951   0.616  0.3362 -0.3350 -0.4254
 1669TIP3    H1 5013   6.094   5.988   0.562  1.1883  1.0855  1.5271
 1669TIP3    H2 5014   6.022   6.006   0.694 -1.8870 -1.3442  0.3252
 1670TIP3   OH2 5015   0.545   3.423   2.616 -0.2033  0.2894 -0.3677
 1670TIP3    H1 5016   0.610   3.493   2.628  1.0617 -0.9416  0.2085
 1670TIP3    H2 5017   0.503   3.415   2.701 -0.4786  0.4748 -0.4866
 1671TIP3   OH2 5018   5.930   0.972   2.869  0.4073  0.0146  0.0612
 1671TIP3    H1 5019   5.894   0.901   2.921 -0.2758 -0.8395 -1.4945
 1671TIP3    H2 5020   5.866   1.042   2.876  0.2340 -0.1595  0.2337
 1672TIP3   OH2 5021   6.249   2.158   2.134  0.3810  0.6026  0.3466
 1672TIP3    H1 5022   6.331   2.196   2.101  0.9073 -0.7221  0.0338
 1672TIP3    H2 5023   6.182   2.186   2.072  0.8777  0.4605 -0.2706
 1673TIP3   OH2 5024   6.177   3.731   3.695 -0.3597 -0.2879 -0.8608
 1673TIP3    H1 5025   6.195   3.658   3.755  0.3434 -1.2976 -2.2421
 1673TIP3    H2 5026   6.085   3.720   3.672 -0.9492  0.7404  0.7999
 1674TIP3   OH2 5027   3.331   5.443   2.814 -0.2296 -0.5176  0.1110
 1674TIP3    H1 5028   3.358   5.494   2.890 -2.6249 -0.8883  1.3345
 1674TIP3    H2 5029   3.367   5.490   2.739 -0.3210  1.6041  1.3134
 1675TIP3   OH2 5030   6.107   4.985   5.149 -0.6611 -0.5420  0.2052
 1675TIP3    H1 5031   6.044   4.929   5.103 -2.3975  2.3942 -1.3221
 1675TIP3    H2 5032   6.184   4.988   5.091 -0.1598 -2.0202  0.7626
 1676TIP3   OH2 5033   4.858   1.143   4.385 -0.2272  0.2438  0.3762
 1676TIP3    H1 5034   4.805   1.147   4.305  1.0530 -0.6733 -0.5723
 1676TIP3    H2 5035   4.879   1.050   4.394 -0.9661  0.2285  2.2321
 1677TIP3   OH2 5036   2.726   4.594   3.077  0.4017 -0.0919  0.0342
 1677TIP3    H1 5037   2.662   4.531   3.044  0.0320  0.1186  0.3549
 1677TIP3    H2 5038   2.758   4.638   2.998 -0.0077 -0.0400 -0.1032
 1678TIP3   OH2 5039   5.488   3.930   3.238 -0.3852 -0.0954 -0.0984
 1678TIP3    H1 5040   5.507   4.024   3.235 -0.4048 -0.1157 -1.2564
 1678TIP3    H2 5041   5.447   3.917   3.323  1.0185  0.6697  0.7368
 1679TIP3   OH2 5042   1.941   5.067   2.460 -0.1085 -0.3389  0.2577
 1679TIP3    H1 5043   1.936   5.158   2.491  0.9165 -0.6373  1.3623
 1679TIP3    H2 5044   1.856   5.052   2.418 -0.7585  0.7560  1.1064
 1680TIP3   OH2 5045   3.742   0.945   2.257 -0.9492 -0.1409 -0.2827
 1680TIP3    H1 5046   3.820   0.958   2.203 -0.5790  1.6086  0.5951
 1680TIP3    H2 5047   3.680   0.901   2.199  0.5363 -1.2628 -1.1154
 1681TIP3   OH2 5048   5.117   5.105   1.878 -0.4975  0.3262  0.0263
 1681TIP3    H1 5049   5.197   5.133   1.833  0.4807 -0.4666  1.1927
 1681TIP3    H2 5050   5.090   5.025   1.832  0.0401 -0.0407  0.3429
 1682TIP3   OH2 5051   2.597   5.401   2.199 -0.5767 -0.5573 -0.3592
 1682TIP3    H1 5052   2.679   5.355   2.182 -0.2454 -0.1747  0.1791
 1682TIP3    H2 5053   2.614   5.492   2.173 -0.7298 -0.4125  0.0383
 1683TIP3   OH2 5054   1.768   3.128   2.539 -0.0451 -0.4141 -0.2986
 1683TIP3    H1 5055   1.777   3.203   2.599 -0.3453  0.8566 -1.7870
 1683TIP3    H2 5056   1.695   3.077   2.575  0.2847 -0.1110  0.8429
 1684TIP3   OH2 5057   5.395   3.264   4.391 -0.8130 -0.2703 -0.0963
 1684TIP3    H1 5058   5.304   3.259   4.421 -1.7051  1.8106 -2.1724
 1684TIP3    H2 5059   5.416   3.357   4.394  1.2402 -0.6922  0.1803
 1685TIP3   OH2 5060   1.545   1.751   2.245  0.0726  0.1687  0.0797
 1685TIP3    H1 5061   1.586   1.704   2.318  2.2535 -3.2554 -3.0256
 1685TIP3    H2 5062   1.461   1.706   2.232  0.3350 -0.1997 -0.3712
 1686TIP3   OH2 5063   5.514   0.089   3.566 -0.1895 -0.0105 -0.0834
 1686TIP3    H1 5064   5.418   0.096   3.571 -0.0772  1.7910  0.0723
 1686TIP3    H2 5065   5.543   0.090   3.657 -0.0475 -1.4053 -0.0961
 1687TIP3   OH2 5066   2.945   5.684   1.433  0.1647  0.1688 -0.1269
 1687TIP3    H1 5067   2.997   5.749   1.481 -1.0024  0.7720  0.3647
 1687TIP3    H2 5068   2.904   5.632   1.502 -2.0703  1.4679 -0.3836
 1688TIP3   OH2 5069   5.349   0.751   1.138  0.0103  0.6328  0.1363
 1688TIP3    H1 5070   5.396   0.669   1.123 -1.3864 -0.6180  2.1468
 1688TIP3    H2 5071   5.358   0.767   1.232 -2.9800  0.6604  0.4962
 1689TIP3   OH2 5072   0.889   2.632   0.020 -0.4572  0.4943  0.3556
 1689TIP3    H1 5073   0.954   2.677   0.074  2.1984 -3.6820  1.0644
 1689TIP3    H2 5074   0.818   2.610   0.081  0.6679 -0.7025  1.2866
 1690TIP3   OH2 5075   2.227   3.667   2.445  0.0700  0.2040  0.2784
 1690TIP3    H1 5076   2.160   3.598   2.447  0.9212 -0.6424  0.8220
 1690TIP3    H2 5077   2.296   3.634   2.502  1.7848  0.1952 -1.6916
 1691TIP3   OH2 5078   2.933   0.426   2.465  0.4080  0.0453 -0.4536
 1691TIP3    H1 5079   2.922   0.521   2.464  0.0021  0.0009 -0.2265
 1691TIP3    H2 5080   2.943   0.402   2.373 -0.9232  0.1471 -0.6432
 1692TIP3   OH2 5081   5.201   0.182   1.973 -0.2915 -0.2581  0.3303
 1692TIP3    H1 5082   5.128   0.215   2.026  0.5851  1.6430  0.4484
 1692TIP3    H2 5083   5.278   0.200   2.026  0.4752  0.2864 -0.9252
 1693TIP3   OH2 5084   6.297   4.793   3.625  0.1646  0.6964  0.0027
 1693TIP3    H1 5085   6.250   4.800   3.542  1.1458  0.0149 -0.6349
 1693TIP3    H2 5086   6.378   4.842   3.610  1.2658 -1.0985 -0.1491
 1694TIP3   OH2 5087   5.908   2.451   0.181 -0.5433 -0.0502 -0.8705
 1694TIP3    H1 5088   5.932   2.360   0.199 -0.7536 -0.0367 -0.5264
 1694TIP3    H2 5089   5.859   2.479   0.258 -0.7326  0.2642 -1.1049
 1695TIP3   OH2 5090   1.329   0.559   1.113 -0.0569 -0.2009  0.4548
 1695TIP3    H1 5091   1.253   0.548   1.055 -0.0245  1.2088  0.0997
 1695TIP3    H2 5092   1.299   0.622   1.179  0.4525 -0.4943  0.9743
 1696TIP3   OH2 5093   1.569   1.240   4.690 -0.9505 -0.7446  0.7006
 1696TIP3    H1 5094   1.567   1.146   4.672  1.6538 -0.6342 -0.6777
 1696TIP3    H2 5095   1.505   1.277   4.630  1.2474 -1.2916 -2.2130
 1697TIP3   OH2 5096   2.546   5.382   3.522 -0.1003 -0.0676  0.3780
 1697TIP3    H1 5097   2.574   5.304   3.474  0.8781 -0.4563  1.5255
 1697TIP3    H2 5098   2.480   5.423   3.466 -0.3833 -1.5316 -0.3928
 1698TIP3   OH2 5099   5.687   4.832   0.690 -0.6179  0.8461  0.2379
 1698TIP3    H1 5100   5.652   4.822   0.601  1.6521  0.6937 -0.6997
 1698TIP3    H2 5101   5.665   4.922   0.714 -0.8926  1.0200 -0.6425
 1699TIP3   OH2 5102   1.785   4.674   4.705 -0.6046 -0.5733 -0.6050
 1699TIP3    H1 5103   1.843   4.660   4.780 -2.8871 -1.2517  1.1044
 1699TIP3    H2 5104   1.831   4.741   4.653  0.4533  0.9565  2.0637
 1700TIP3   OH2 5105   5.355   3.867   0.473  0.2987  0.2364  0.5498
 1700TIP3    H1 5106   5.303   3.902   0.400  0.1665  0.7343  0.8752
 1700TIP3    H2 5107   5.385   3.782   0.442  0.2582  0.4476 -0.0968
 1701TIP3   OH2 5108   0.279   5.220   0.360  0.2700 -0.0473 -0.7115
 1701TIP3    H1 5109   0.362   5.179   0.335  1.0892  0.5404  0.8844
 1701TIP3    H2 5110   0.220   5.201   0.287  2.1387  0.5627 -2.4952
 1702TIP3   OH2 5111   4.721   5.219   4.033  0.2951 -0.1325 -0.2950
 1702TIP3    H1 5112   4.743   5.279   3.961  1.2775  0.4190  0.4458
 1702TIP3    H2 5113   4.725   5.132   3.993 -2.6254  0.2812 -1.7795
 1703TIP3   OH2 5114   4.114   0.202   0.104 -0.0160  0.4372 -0.3666
 1703TIP3    H1 5115   4.073   0.234   0.184  0.5301 -1.2508  0.6557
 1703TIP3    H2 5116   4.205   0.231   0.111  0.7584 -2.0060  1.0908
 1704TIP3   OH2 5117   3.181   2.153   4.538  0.5790  0.6728  0.5227
 1704TIP3    H1 5118   3.180   2.114   4.450  0.1199 -1.4217  1.3954
 1704TIP3    H2 5119   3.269   2.135   4.571 -0.5514 -2.6437  2.1169
 1705TIP3   OH2 5120   0.813   4.570   2.738 -0.0859 -0.1415  0.5012
 1705TIP3    H1 5121   0.766   4.652   2.721  1.0732  1.0131  2.4916
 1705TIP3    H2 5122   0.879   4.566   2.669 -0.2489  0.5094  0.2977
 1706TIP3   OH2 5123   0.180   1.103   0.278  0.5770 -0.2302 -0.4561
 1706TIP3    H1 5124   0.098   1.060   0.303  0.7746 -0.3995 -0.0754
 1706TIP3    H2 5125   0.155   1.192   0.255  0.3828 -0.0414  0.4356
 1707TIP3   OH2 5126   1.656   5.297   0.140  0.7122 -0.1146 -0.6415
 1707TIP3    H1 5127   1.632   5.333   0.055 -2.0049 -1.4995 -0.5867
 1707TIP3    H2 5128   1.734   5.244   0.124  2.2566  2.2743 -1.5225
 1708TIP3   OH2 5129   3.170   2.358   3.666  0.5618 -0.0172  0.4365
 1708TIP3    H1 5130   3.111   2.433   3.671 -0.6537 -0.9324  0.2517
 1708TIP3    H2 5131   3.168   2.332   3.574  1.3592 -0.0029  0.4010
 1709TIP3   OH2 5132   5.538   1.070   0.811 -0.7169  0.0736 -0.1082
 1709TIP3    H1 5133   5.626   1.046   0.840 -0.3709  0.5230 -0.7520
 1709TIP3    H2 5134   5.495   0.987   0.792 -1.2388 -0.3147  2.3847
 1710TIP3   OH2 5135   5.884   0.436   2.841 -0.1413  0.4422 -0.1871
 1710TIP3    H1 5136   5.874   0.399   2.753 -2.5518 -1.2118  0.6674
 1710TIP3    H2 5137   5.954   0.385   2.881 -0.3869 -0.1540 -0.5079
 1711TIP3   OH2 5138   3.480   0.385   2.443  0.3109  0.4671  0.1843
 1711TIP3    H1 5139   3.424   0.457   2.475 -0.9899 -0.0151 -0.9064
 1711TIP3    H2 5140   3.422   0.309   2.443  1.0544 -0.1125 -0.7443
 1712TIP3   OH2 5141   0.880   4.951   1.937 -0.3051 -0.7053  0.3024
 1712TIP3    H1 5142   0.944   4.965   1.868 -0.6860 -1.2813 -0.1744
 1712TIP3    H2 5143   0.801   4.995   1.905  0.1904  1.1804  1.4770
 1713TIP3   OH2 5144   2.784   5.567   1.680 -0.2612  0.1554 -0.0861
 1713TIP3    H1 5145   2.781   5.478   1.644  0.8992  0.5622 -1.2912
 1713TIP3    H2 5146   2.860   5.567   1.738 -1.7358 -0.3035  1.9623
 1714TIP3   OH2 5147   3.718   4.533   3.959  0.4969  0.0170 -0.1990
 1714TIP3    H1 5148   3.716   4.521   3.864 -0.4489 -0.8778 -0.0864
 1714TIP3    H2 5149   3.803   4.572   3.977  1.1427 -0.8360 -1.3093
 1715TIP3   OH2 5150   4.940   3.268   2.286  0.1866  0.4167  0.2784
 1715TIP3    H1 5151   5.019   3.281   2.234  0.0316  0.1863 -0.0200
 1715TIP3    H2 5152   4.969   3.270   2.377 -0.0183  5.0782  0.5149
 1716TIP3   OH2 5153   1.328   1.285   4.530  0.0870 -0.2730  0.1111
 1716TIP3    H1 5154   1.375   1.263   4.449  1.0183 -0.0408  0.5752
 1716TIP3    H2 5155   1.297   1.375   4.516 -2.2561 -1.1926 -1.1102
 1717TIP3   OH2 5156   5.740   5.738   3.874 -0.0052 -0.5889 -0.5799
 1717TIP3    H1 5157   5.693   5.745   3.791 -0.2982 -2.5852 -0.6423
 1717TIP3    H2 5158   5.828   5.708   3.849  0.0338 -0.7978 -0.1948
 1718TIP3   OH2 5159   4.127   3.375   1.444 -0.2562  0.3636  0.6166
 1718TIP3    H1 5160   4.175   3.327   1.376 -2.0302  0.0240 -0.4553
 1718TIP3    H2 5161   4.186   3.446   1.468  0.5417  0.3643 -1.1409
 1719TIP3   OH2 5162   1.526   1.572   2.804  0.2616  0.3947  0.1320
 1719TIP3    H1 5163   1.502   1.552   2.895  0.1663  0.8396  0.2070
 1719TIP3    H2 5164   1.464   1.520   2.752  0.2312  0.2388  0.3197
 1720TIP3   OH2 5165   1.329   0.672   5.010 -0.4725 -0.1682  0.1782
 1720TIP3    H1 5166   1.302   0.688   4.919 -2.3735 -1.3650  0.4816
 1720TIP3    H2 5167   1.406   0.727   5.022 -1.7827  2.1594 -1.3157
 1721TIP3   OH2 5168   2.039   2.433   1.829 -0.5853 -0.2616  0.1937
 1721TIP3    H1 5169   2.073   2.441   1.739 -0.4273  0.0775  0.2810
 1721TIP3    H2 5170   2.115   2.450   1.884 -1.1184  1.6509  0.4046
 1722TIP3   OH2 5171   3.146   5.829   1.597  0.2371  0.7594  0.0843
 1722TIP3    H1 5172   3.161   5.853   1.689  1.1595  0.9866 -0.1180
 1722TIP3    H2 5173   3.216   5.766   1.577 -0.9924 -0.6537  0.0403
 1723TIP3   OH2 5174   1.615   4.209   1.534  0.1027 -0.2839  0.1731
 1723TIP3    H1 5175   1.616   4.114   1.525 -0.4943 -0.2224 -0.6160
 1723TIP3    H2 5176   1.526   4.230   1.563  0.5279 -0.0402  1.3780
 1724TIP3   OH2 5177   1.895   3.791   0.433 -0.1398 -0.2281 -0.4998
 1724TIP3    H1 5178   1.813   3.755   0.400 -0.5164  1.0272 -0.9875
 1724TIP3    H2 5179   1.948   3.714   0.455 -1.3030 -1.0575 -0.5066
 1725TIP3   OH2 5180   2.967   2.948   2.563 -0.5287  0.1600  0.1695
 1725TIP3    H1 5181   2.960   2.859   2.528 -0.2917 -0.0356  0.6089
 1725TIP3    H2 5182   2.990   2.935   2.655  0.5849  0.6876 -0.0258
 1726TIP3   OH2 5183   0.867   0.899   0.122  0.4701  0.3960  0.4216
 1726TIP3    H1 5184   0.864   0.807   0.096  1.9360 -0.4180  2.8214
 1726TIP3    H2 5185   0.800   0.907   0.190  0.8813  0.8967  0.7766
 1727TIP3   OH2 5186   0.138   5.917   0.699 -0.2662  0.0710  0.3383
 1727TIP3    H1 5187   0.194   5.843   0.678  0.9656  0.8694  0.7015
 1727TIP3    H2 5188   0.149   5.930   0.793 -1.5472 -0.1328  0.5328
 1728TIP3   OH2 5189   4.448   1.445   2.990 -0.3266  0.2955 -0.2478
 1728TIP3    H1 5190   4.527   1.421   3.038  0.4645  1.3195 -0.9905
 1728TIP3    H2 5191   4.386   1.472   3.059 -0.5729 -1.8442  0.4440
 1729TIP3   OH2 5192   1.940   0.669   1.611 -0.3589  0.0873 -0.1807
 1729TIP3    H1 5193   1.939   0.630   1.699  0.8301 -0.4648 -0.3874
 1729TIP3    H2 5194   1.868   0.626   1.565  0.1921 -1.0394 -0.0365
 1730TIP3   OH2 5195   0.593   0.593   0.450  0.6388  0.1494 -0.3060
 1730TIP3    H1 5196   0.609   0.504   0.480  0.6002 -0.3600 -1.7277
 1730TIP3    H2 5197   0.680   0.628   0.431  0.5367 -0.4016 -1.9260
 1731TIP3   OH2 5198   0.582   5.485   3.127 -0.1107 -0.1120 -0.2232
 1731TIP3    H1 5199   0.614   5.499   3.216 -2.9706 -1.3721  1.1433
 1731TIP3    H2 5200   0.591   5.390   3.113  0.3841  0.0858 -1.3287
 1732TIP3   OH2 5201   5.620   0.305   2.899  0.0357 -0.2005 -0.0363
 1732TIP3    H1 5202   5.639   0.364   2.826 -0.0114 -1.7265 -1.3245
 1732TIP3    H2 5203   5.696   0.246   2.904  0.7827  0.8214  2.1953
 1733TIP3   OH2 5204   5.682   5.408   5.175 -0.4570 -0.3466  0.5203
 1733TIP3    H1 5205   5.619   5.480   5.175 -0.2143 -0.1308  0.5139
 1733TIP3    H2 5206   5.647   5.345   5.113 -0.2353  0.1523 -0.1212
 1734TIP3   OH2 5207   0.563   2.757   3.775 -0.6995 -0.1624  0.0073
 1734TIP3    H1 5208   0.512   2.675   3.776 -0.1857 -0.4944 -0.5169
 1734TIP3    H2 5209   0.641   2.736   3.724  0.6923 -0.0896  1.9899
 1735TIP3   OH2 5210   6.191   0.486   2.673 -0.2175  0.4365  0.0121
 1735TIP3    H1 5211   6.195   0.515   2.764  0.8428  0.2854  0.0355
 1735TIP3    H2 5212   6.112   0.432   2.668  0.3674 -0.5776  1.1692
 1736TIP3   OH2 5213   2.558   2.355   4.627 -0.0328  0.3335 -0.1091
 1736TIP3    H1 5214   2.534   2.365   4.719 -0.3243  0.4479 -0.1975
 1736TIP3    H2 5215   2.501   2.416   4.580  1.1813  1.4384 -0.2229
 1737TIP3   OH2 5216   3.912   2.041   1.907  0.1133  0.7149 -0.0181
 1737TIP3    H1 5217   3.897   2.058   2.000  1.3842  0.2918  0.2891
 1737TIP3    H2 5218   3.887   1.949   1.896  0.1365  0.7124 -0.0506
 1738TIP3   OH2 5219   0.436   1.371   2.881 -0.2702 -0.1427  0.0400
 1738TIP3    H1 5220   0.518   1.374   2.930 -0.5939  0.3269  0.5599
 1738TIP3    H2 5221   0.426   1.278   2.858 -0.4994 -0.5145  1.5355
 1739TIP3   OH2 5222   3.333   5.149   4.997 -0.2011 -0.5594  0.7933
 1739TIP3    H1 5223   3.245   5.111   4.989 -0.4821  0.3015 -0.4974
 1739TIP3    H2 5224   3.321   5.241   4.974  1.2357 -0.6769 -0.5116
 1740TIP3   OH2 5225   3.461   1.293   1.795 -0.3261  0.0555  0.4761
 1740TIP3    H1 5226   3.380   1.336   1.766 -0.4721 -0.9785 -0.8040
 1740TIP3    H2 5227   3.461   1.210   1.747  1.4603 -0.0058  0.5218
 1741TIP3   OH2 5228   2.372   3.394   5.149 -0.3192 -0.0421 -0.2280
 1741TIP3    H1 5229   2.364   3.312   5.101  2.2032 -1.3639  1.3916
 1741TIP3    H2 5230   2.282   3.416   5.174 -1.3868 -0.7357 -3.0903
 1742TIP3   OH2 5231   0.459   4.760   2.242  0.2252 -0.3978 -0.5755
 1742TIP3    H1 5232   0.410   4.681   2.223  0.8719 -0.7149 -0.9503
 1742TIP3    H2 5233   0.488   4.792   2.157  0.2240  0.0775 -0.4042
 1743TIP3   OH2 5234   6.173   1.798   2.008 -0.5185  0.0807  0.4102
 1743TIP3    H1 5235   6.105   1.789   1.941 -0.5761  1.8646  0.1866
 1743TIP3    H2 5236   6.182   1.892   2.021  1.4174 -0.1337  0.9523
 1744TIP3   OH2 5237   2.295   2.117   4.018  0.2156  0.4235  0.3669
 1744TIP3    H1 5238   2.241   2.074   3.952 -0.1699  1.1071  0.2250
 1744TIP3    H2 5239   2.382   2.078   4.008 -0.2295 -0.6504  0.5633
 1745TIP3   OH2 5240   3.132   4.911   2.333 -0.2362 -0.0850 -0.1930
 1745TIP3    H1 5241   3.168   4.945   2.414 -0.2480 -0.7564  0.0970
 1745TIP3    H2 5242   3.122   4.817   2.348 -0.9661 -0.0982 -0.6935
 1746TIP3   OH2 5243   5.912   0.325   0.316  0.1217 -0.5989 -0.2394
 1746TIP3    H1 5244   5.992   0.361   0.278 -0.2709  0.9039  0.2908
 1746TIP3    H2 5245   5.844   0.387   0.291 -0.5305 -0.7889  1.0132
 1747TIP3   OH2 5246   5.216   3.175   1.980 -0.2479  0.2940  0.5194
 1747TIP3    H1 5247   5.255   3.094   2.013  2.0970  1.7338  1.4622
 1747TIP3    H2 5248   5.252   3.185   1.892  1.1891  1.3537  1.1949
 1748TIP3   OH2 5249   2.986   4.412   3.096 -0.6982 -0.6117 -0.3075
 1748TIP3    H1 5250   2.977   4.465   3.017  0.2162  0.2157  0.1369
 1748TIP3    H2 5251   2.953   4.326   3.070 -0.6574 -0.2828 -1.5133
 1749TIP3   OH2 5252   1.329   5.937   3.133  0.7611 -0.1674 -0.5836
 1749TIP3    H1 5253   1.315   5.845   3.156  1.4475 -0.0755  0.2546
 1749TIP3    H2 5254   1.254   5.983   3.172  2.0189  0.0142  1.7948
 1750TIP3   OH2 5255   1.106   1.518   4.002  0.5904 -0.4607 -0.1450
 1750TIP3    H1 5256   1.018   1.486   4.023  0.2673 -0.2988 -1.2230
 1750TIP3    H2 5257   1.129   1.574   4.076  0.0030 -0.9169  0.3935
 1751TIP3   OH2 5258   4.117   3.881   0.860  0.0708 -0.6094  0.9013
 1751TIP3    H1 5259   4.049   3.939   0.827  0.7865 -0.4771 -0.4031
 1751TIP3    H2 5260   4.094   3.867   0.952 -0.8293  0.6913  0.8992
 1752TIP3   OH2 5261   5.889   5.126   1.308  0.1392  0.0411  0.0324
 1752TIP3    H1 5262   5.844   5.045   1.332 -0.9521  0.5412 -0.2669
 1752TIP3    H2 5263   5.898   5.121   1.213  1.0019 -0.1916  0.1208
 1753TIP3   OH2 5264   5.186   4.031   4.395 -0.2652  0.8991  0.0123
 1753TIP3    H1 5265   5.207   3.949   4.350 -0.5929  0.3542  0.8177
 1753TIP3    H2 5266   5.125   4.005   4.464  1.8428  1.3171  2.1685
 1754TIP3   OH2 5267   4.508   0.587   4.489  0.0791  0.1988  0.3393
 1754TIP3    H1 5268   4.478   0.657   4.547 -1.0207 -0.8498  1.0707
 1754TIP3    H2 5269   4.507   0.508   4.543 -0.1872 -0.6604 -0.8872
 1755TIP3   OH2 5270   2.168   1.490   2.291 -0.1866  0.0817  0.1212
 1755TIP3    H1 5271   2.235   1.494   2.223  1.9552  1.2051  2.1779
 1755TIP3    H2 5272   2.208   1.441   2.362 -1.5438  0.7697  1.4165
 1756TIP3   OH2 5273   0.059   4.699   3.231  0.0669  0.7472 -0.2864
 1756TIP3    H1 5274   0.054   4.604   3.227 -0.7339  0.7639  0.2751
 1756TIP3    H2 5275  -0.023   4.726   3.271  1.1959  1.5460  1.5852
 1757TIP3   OH2 5276   4.144   1.386   3.452  0.0627  0.4096  0.2920
 1757TIP3    H1 5277   4.112   1.302   3.482 -0.1648  0.1739 -0.5989
 1757TIP3    H2 5278   4.226   1.399   3.501 -0.3629  0.0999  1.0951
 1758TIP3   OH2 5279   5.487   4.600   4.814  0.0958  1.1959 -0.1672
 1758TIP3    H1 5280   5.543   4.547   4.757  1.5281 -1.1201  3.0553
 1758TIP3    H2 5281   5.428   4.537   4.855  0.4409  2.3219  2.2668
 1759TIP3   OH2 5282   1.577   0.352   2.532  0.2625 -0.0405  0.0856
 1759TIP3    H1 5283   1.642   0.295   2.491  0.2601  0.7606 -1.0823
 1759TIP3    H2 5284   1.623   0.435   2.546 -0.5404  0.5979 -0.9357
 1760TIP3   OH2 5285   5.786   4.257   4.543  0.4402 -0.1029 -0.6390
 1760TIP3    H1 5286   5.781   4.162   4.550  1.8661 -0.3174 -2.0007
 1760TIP3    H2 5287   5.857   4.273   4.481 -0.9429  1.8081 -1.8306
 1761TIP3   OH2 5288   1.966   0.023   2.587 -0.0663 -0.0164 -0.4719
 1761TIP3    H1 5289   1.964   0.108   2.542  1.4092  0.4651  0.2723
 1761TIP3    H2 5290   1.969   0.046   2.680 -0.4606 -0.9149 -0.2332
 1762TIP3   OH2 5291   5.242   0.977   3.041 -0.3993 -0.1154  0.6784
 1762TIP3    H1 5292   5.185   0.991   2.966  0.7356  1.1249  0.0106
 1762TIP3    H2 5293   5.219   0.889   3.072 -0.9906 -0.6052 -1.0217
 1763TIP3   OH2 5294   2.373   5.053   3.762  0.4396  0.4225  0.0171
 1763TIP3    H1 5295   2.435   5.030   3.692  0.9039  2.2590 -0.2269
 1763TIP3    H2 5296   2.350   5.144   3.745 -0.2481  0.5976  1.6768
 1764TIP3   OH2 5297   4.963   2.075   0.706  0.0571  0.6680  0.3280
 1764TIP3    H1 5298   4.897   2.006   0.698 -0.5718  1.4743 -2.5277
 1764TIP3    H2 5299   5.037   2.044   0.653 -0.2252  2.1190 -0.9662
 1765TIP3   OH2 5300   3.247   4.258   3.686 -0.3907  0.0497 -0.4829
 1765TIP3    H1 5301   3.162   4.293   3.659 -0.0574  0.6941 -0.7181
 1765TIP3    H2 5302   3.307   4.332   3.679  0.4656 -0.7044 -1.6106
 1766TIP3   OH2 5303   3.757   3.542   3.516  0.2696 -0.0067 -0.1980
 1766TIP3    H1 5304   3.797   3.471   3.567 -1.1375  0.7523  2.1329
 1766TIP3    H2 5305   3.797   3.622   3.552  1.0972  0.4778 -2.0887
 1767TIP3   OH2 5306   3.154   4.319   1.307  0.1122 -0.1786 -0.2130
 1767TIP3    H1 5307   3.224   4.269   1.350 -2.1156 -2.9294  0.4892
 1767TIP3    H2 5308   3.102   4.354   1.379 -0.7142 -0.4061 -0.6856
 1768TIP3   OH2 5309   4.505   4.940   1.433  0.1005  0.2557  0.4684
 1768TIP3    H1 5310   4.566   4.985   1.374  1.1085  1.1143  2.0824
 1768TIP3    H2 5311   4.560   4.910   1.505 -1.3837  1.3004  2.1271
 1769TIP3   OH2 5312   1.220   3.583   1.056 -0.2271 -0.6080  0.1530
 1769TIP3    H1 5313   1.133   3.552   1.031  0.5896 -0.8653 -2.6434
 1769TIP3    H2 5314   1.214   3.678   1.050 -0.7104 -0.5128  1.6021
 1770TIP3   OH2 5315   3.170   3.246   0.263  0.2165  0.1901 -0.2540
 1770TIP3    H1 5316   3.244   3.205   0.218  1.3046 -0.9402  2.3594
 1770TIP3    H2 5317   3.210   3.317   0.314 -0.4932 -0.3151  1.0440
 1771TIP3   OH2 5318   2.125   4.881   0.557  0.1935 -0.5599  0.0974
 1771TIP3    H1 5319   2.185   4.830   0.611 -1.6126 -1.4794  1.3497
 1771TIP3    H2 5320   2.139   4.848   0.468  2.2388 -0.0059  0.1639
 1772TIP3   OH2 5321   6.158   4.648   4.407 -0.1640  0.7834 -0.1043
 1772TIP3    H1 5322   6.172   4.711   4.478 -0.2354 -0.9360  1.4949
 1772TIP3    H2 5323   6.080   4.599   4.434  0.2735 -0.4344 -0.9674
 1773TIP3   OH2 5324   3.959   5.939   1.209 -0.0156 -0.2803 -0.5663
 1773TIP3    H1 5325   3.960   5.987   1.126 -0.8399  0.3605 -0.2343
 1773TIP3    H2 5326   3.949   6.008   1.275 -0.7102 -0.8766 -0.0384
 1774TIP3   OH2 5327   0.589   3.616   1.688  0.1233 -0.4126  0.4901
 1774TIP3    H1 5328   0.573   3.602   1.594  1.1045 -1.2922  0.4426
 1774TIP3    H2 5329   0.519   3.676   1.715  0.1546  0.2959 -0.9167
 1775TIP3   OH2 5330   0.578   1.338   4.796  0.2847 -0.2398  0.0259
 1775TIP3    H1 5331   0.484   1.356   4.787  0.4347  0.0893 -1.1048
 1775TIP3    H2 5332   0.614   1.415   4.839  0.0222 -0.4000  0.5299
 1776TIP3   OH2 5333   6.105   1.917   4.481 -0.7283 -0.2571 -0.2278
 1776TIP3    H1 5334   6.153   1.988   4.523  1.0014 -1.8606  0.6089
 1776TIP3    H2 5335   6.088   1.950   4.392  1.0139  0.7718 -0.2294
 1777TIP3   OH2 5336   5.891   2.250   1.844 -0.2026 -0.4816 -0.0850
 1777TIP3    H1 5337   5.799   2.271   1.830  0.2040  1.1872 -0.4582
 1777TIP3    H2 5338   5.909   2.280   1.934  0.2182  0.2012 -0.3849
 1778TIP3   OH2 5339   2.264   1.076   3.869 -0.1185 -0.2054  0.4410
 1778TIP3    H1 5340   2.235   1.166   3.880 -1.6102 -0.8449  2.4598
 1778TIP3    H2 5341   2.331   1.064   3.937 -0.5742 -0.8321  0.7955
 1779TIP3   OH2 5342   4.838   3.261   3.403 -0.0604 -0.2820 -0.7387
 1779TIP3    H1 5343   4.839   3.335   3.341  0.4442 -0.1033 -0.5173
 1779TIP3    H2 5344   4.930   3.239   3.416  0.0540  1.3477  1.9352
 1780TIP3   OH2 5345   1.088   0.571   0.989  0.4750  0.4964  0.2558
 1780TIP3    H1 5346   1.013   0.627   0.967  0.4368  0.6591  0.7792
 1780TIP3    H2 5347   1.052   0.483   0.995  0.7392  0.2028 -1.7158
 1781TIP3   OH2 5348   4.830   2.907   2.072  0.3687  0.3138 -0.0619
 1781TIP3    H1 5349   4.859   2.944   1.989 -0.7125  0.9415 -0.1822
 1781TIP3    H2 5350   4.765   2.841   2.047  0.7236 -0.1510  0.2422
 1782TIP3   OH2 5351   3.018   5.037   1.251  0.6635  0.1543  0.2577
 1782TIP3    H1 5352   3.059   5.121   1.231  1.6878 -0.7259 -1.7164
 1782TIP3    H2 5353   3.054   5.013   1.337 -1.6798  2.8373  2.1614
 1783TIP3   OH2 5354   5.292   2.694   4.253 -0.0648 -0.1686  0.1278
 1783TIP3    H1 5355   5.338   2.641   4.317  0.2103  0.3887  0.4047
 1783TIP3    H2 5356   5.275   2.777   4.298  2.7941  1.4030 -1.4113
 1784TIP3   OH2 5357   1.242   1.652   3.800 -0.0426  0.4026 -0.3132
 1784TIP3    H1 5358   1.203   1.600   3.871  3.0600  0.6460  1.7162
 1784TIP3    H2 5359   1.239   1.593   3.724 -1.0881 -0.8485  0.6348
 1785TIP3   OH2 5360   2.489   3.646   0.091 -0.1716 -0.0893  0.0563
 1785TIP3    H1 5361   2.437   3.682   0.164 -1.5441 -1.0186 -0.4102
 1785TIP3    H2 5362   2.432   3.655   0.015  0.3890 -1.0673 -0.4970
 1786TIP3   OH2 5363   2.124   3.797   5.142 -0.0344 -0.2179  0.4748
 1786TIP3    H1 5364   2.115   3.887   5.176 -1.5743  0.5097 -1.6220
 1786TIP3    H2 5365   2.190   3.805   5.072 -0.3748 -0.6612  0.1043
 1787TIP3   OH2 5366   5.066   5.272   3.908  0.0638 -0.3404 -0.1204
 1787TIP3    H1 5367   4.981   5.300   3.875 -0.4671 -0.8093  0.8092
 1787TIP3    H2 5368   5.076   5.318   3.992  1.1384  0.4118 -0.6386
 1788TIP3   OH2 5369   4.968   5.751   4.353 -0.4220  0.5487  0.3273
 1788TIP3    H1 5370   4.877   5.769   4.332 -0.4219  3.0378  2.0684
 1788TIP3    H2 5371   4.969   5.661   4.384 -2.3460  0.6232  0.6886
 1789TIP3   OH2 5372   4.527   2.449   5.005  0.1588 -0.0513 -0.2233
 1789TIP3    H1 5373   4.498   2.364   5.039  0.2512  0.1880  0.4597
 1789TIP3    H2 5374   4.574   2.428   4.924 -0.2604 -0.6044 -0.3278
 1790TIP3   OH2 5375   5.089   5.678   2.651  0.0678  0.4054  0.6157
 1790TIP3    H1 5376   5.154   5.733   2.694  2.0632 -2.8662  2.1470
 1790TIP3    H2 5377   5.007   5.698   2.696  1.3738 -0.1177  3.4254
 1791TIP3   OH2 5378   2.694   5.443   4.222 -0.0716  0.1915 -0.2237
 1791TIP3    H1 5379   2.605   5.479   4.220 -0.4323 -0.6656 -1.7560
 1791TIP3    H2 5380   2.717   5.440   4.315 -0.9953  1.9330  0.1048
 1792TIP3   OH2 5381   5.433   0.018   0.771 -0.6295  0.0575 -0.9528
 1792TIP3    H1 5382   5.527   0.033   0.762 -0.6922  0.1818 -1.4503
 1792TIP3    H2 5383   5.422  -0.015   0.860 -0.3642  1.8690 -0.2193
 1793TIP3   OH2 5384   6.326   3.780   2.602 -0.2505  0.2487 -0.3276
 1793TIP3    H1 5385   6.286   3.776   2.515 -0.5591  1.1576 -0.2417
 1793TIP3    H2 5386   6.259   3.820   2.658 -0.3959 -1.1564  0.5430
 1794TIP3   OH2 5387   0.417   1.837   1.751  0.4030 -0.1679  0.2609
 1794TIP3    H1 5388   0.382   1.753   1.720  0.5324 -0.6805  1.4660
 1794TIP3    H2 5389   0.382   1.901   1.689  1.0507 -1.1960 -1.2590
 1795TIP3   OH2 5390   2.830   0.836   4.310 -0.0477 -0.9329 -0.0376
 1795TIP3    H1 5391   2.855   0.811   4.221 -1.2145 -1.1296 -0.3260
 1795TIP3    H2 5392   2.891   0.787   4.366  0.4169 -1.1455 -0.7125
 1796TIP3   OH2 5393   3.433   5.657   2.332 -0.5093 -0.2828  0.2832
 1796TIP3    H1 5394   3.468   5.677   2.419  1.7192  2.1394 -1.0174
 1796TIP3    H2 5395   3.468   5.571   2.311 -0.6373 -0.6663  1.5313
 1797TIP3   OH2 5396   2.420   2.644   3.207  0.0546 -0.7528 -0.2872
 1797TIP3    H1 5397   2.395   2.552   3.206  0.4889 -0.8860 -2.2496
 1797TIP3    H2 5398   2.497   2.647   3.263 -0.1415 -1.5206  0.0372
 1798TIP3   OH2 5399   0.507   0.669   2.399 -0.2850  0.0734 -0.0535
 1798TIP3    H1 5400   0.533   0.756   2.429  1.1127 -0.3655  0.0832
 1798TIP3    H2 5401   0.432   0.685   2.342 -1.1861  1.1942  1.3721
 1799TIP3   OH2 5402   0.246   0.357   1.070  0.1123  0.0811 -0.1591
 1799TIP3    H1 5403   0.187   0.422   1.031  0.2100  0.5857  0.5127
 1799TIP3    H2 5404   0.239   0.281   1.012 -1.0517  0.1919 -0.1966
 1800TIP3   OH2 5405   3.248   3.970   3.133 -0.6027 -0.1376  0.2402
 1800TIP3    H1 5406   3.295   3.965   3.050 -0.5622 -0.2157  0.2682
 1800TIP3    H2 5407   3.285   3.900   3.186  2.5832  2.5438  1.9511
 1801TIP3   OH2 5408   2.221   3.844   4.312  0.0532 -0.0156  0.3576
 1801TIP3    H1 5409   2.140   3.843   4.263 -0.2367  0.1370  0.8225
 1801TIP3    H2 5410   2.287   3.813   4.251 -1.1171 -5.5465  1.4045
 1802TIP3   OH2 5411   5.388   0.162   2.874 -0.6509 -0.1289 -0.3338
 1802TIP3    H1 5412   5.474   0.205   2.881  0.5723 -2.5538  0.8321
 1802TIP3    H2 5413   5.337   0.220   2.818  2.1378  0.8342 -2.1157
 1803TIP3   OH2 5414   5.373   1.380   1.584  0.0729  0.0906 -0.4642
 1803TIP3    H1 5415   5.453   1.341   1.620 -0.4468 -0.7202 -0.1423
 1803TIP3    H2 5416   5.404   1.441   1.517  0.9262 -1.2450 -1.3394
 1804TIP3   OH2 5417   1.130   3.844   5.169 -0.1545 -0.2859  0.5027
 1804TIP3    H1 5418   1.056   3.904   5.178 -0.1257  0.1345 -1.4823
 1804TIP3    H2 5419   1.090   3.758   5.158 -0.2366 -0.4660  2.0550
 1805TIP3   OH2 5420   1.114   3.645   3.883  0.0825  0.5977 -0.7008
 1805TIP3    H1 5421   1.100   3.658   3.790 -0.9741 -0.7613 -0.7673
 1805TIP3    H2 5422   1.179   3.574   3.888 -0.2479  0.3138 -0.4096
 1806TIP3   OH2 5423   3.913   2.550   4.727 -0.2653  0.4053  0.1835
 1806TIP3    H1 5424   3.890   2.574   4.637  2.3110 -3.0675 -1.6467
 1806TIP3    H2 5425   3.924   2.633   4.772 -1.5537  2.3046 -2.6840
 1807TIP3   OH2 5426   1.509   2.747   3.478  0.2537 -0.0248 -0.2211
 1807TIP3    H1 5427   1.445   2.778   3.543 -1.0527  1.0963 -1.9657
 1807TIP3    H2 5428   1.458   2.690   3.420  1.2682 -0.5270 -0.6316
 1808TIP3   OH2 5429   0.392   2.581   0.220  0.1278 -0.4495  0.6037
 1808TIP3    H1 5430   0.369   2.540   0.303  1.1991  0.2468  1.2476
 1808TIP3    H2 5431   0.315   2.565   0.164 -0.6542 -0.8095  1.7501
 1809TIP3   OH2 5432   4.645   1.367   4.078  0.3105  0.0556  0.5925
 1809TIP3    H1 5433   4.568   1.403   4.033  0.6413  0.5589  0.4268
 1809TIP3    H2 5434   4.608   1.302   4.138 -0.2131  0.0112  0.2333
 1810TIP3   OH2 5435   5.303   1.837   0.911  0.5392 -0.0555  0.4799
 1810TIP3    H1 5436   5.282   1.918   0.959  0.4394  0.2689 -0.1004
 1810TIP3    H2 5437   5.224   1.783   0.920 -0.6921  1.1865 -1.7553
 1811TIP3   OH2 5438   1.254   0.819   3.900  0.0530 -0.3395 -0.0967
 1811TIP3    H1 5439   1.208   0.816   3.984  0.4532  0.4261  0.1604
 1811TIP3    H2 5440   1.211   0.889   3.851  1.3903  0.9031  0.4379
 1812TIP3   OH2 5441   2.812   3.391   3.019 -0.1217 -0.0594  0.1714
 1812TIP3    H1 5442   2.735   3.414   3.071 -0.6381 -1.2457 -0.0410
 1812TIP3    H2 5443   2.776   3.369   2.933  0.7726  2.5867 -0.9865
 1813TIP3   OH2 5444   5.849   1.924   0.621  0.5117 -0.2114  0.3186
 1813TIP3    H1 5445   5.806   1.838   0.618  2.4239 -1.2341  0.4010
 1813TIP3    H2 5446   5.827   1.965   0.538  2.7376 -2.4693 -1.5443
 1814TIP3   OH2 5447   4.143   2.394   5.010  0.4227 -0.2987 -0.1432
 1814TIP3    H1 5448   4.121   2.370   4.920  0.5502 -0.2222 -0.1945
 1814TIP3    H2 5449   4.205   2.466   5.001 -0.9048  0.9016  0.0172
 1815TIP3   OH2 5450   0.878   3.349   3.965 -0.2435  0.3603  1.1575
 1815TIP3    H1 5451   0.906   3.351   3.873 -0.5972 -0.5398  1.0179
 1815TIP3    H2 5452   0.815   3.420   3.972 -1.4036 -0.5336  0.2835
 1816TIP3   OH2 5453   5.883   5.668   1.081  0.4869  0.6558 -0.1546
 1816TIP3    H1 5454   5.841   5.599   1.133  0.4298  0.7919 -0.0205
 1816TIP3    H2 5455   5.975   5.663   1.105  0.3102  1.3766  0.7139
 1817TIP3   OH2 5456   5.643   0.036   0.030  0.1039  0.4505  0.4925
 1817TIP3    H1 5457   5.725   0.048   0.077  0.5581 -0.9085  0.1100
 1817TIP3    H2 5458   5.613  -0.051   0.056 -0.8343  0.6285  0.0522
 1818TIP3   OH2 5459   0.668   3.659   0.577 -0.1764  0.8121  0.1938
 1818TIP3    H1 5460   0.573   3.676   0.576 -0.3752 -0.1757 -1.4323
 1818TIP3    H2 5461   0.708   3.745   0.564 -0.8147  1.2779  1.1217
 1819TIP3   OH2 5462   4.603   2.257   2.548  0.2432 -0.0523  0.4541
 1819TIP3    H1 5463   4.525   2.295   2.508  1.1509  0.2618 -1.0852
 1819TIP3    H2 5464   4.591   2.272   2.642 -0.6227  1.7668  0.0973
 1820TIP3   OH2 5465   0.923   1.420   3.660  0.3626  0.2232 -0.3095
 1820TIP3    H1 5466   0.918   1.362   3.736 -0.5174 -0.0753 -0.5879
 1820TIP3    H2 5467   1.007   1.464   3.669  0.7338 -0.5815  0.2828
 1821TIP3   OH2 5468   2.278   0.701   3.973 -0.4503 -0.6228 -0.0635
 1821TIP3    H1 5469   2.248   0.659   3.893 -0.4277 -1.7557  0.4941
 1821TIP3    H2 5470   2.203   0.750   4.005 -0.5099 -0.3023 -0.6729
 1822TIP3   OH2 5471   0.898   0.986   4.352  0.1400  0.0881  0.1391
 1822TIP3    H1 5472   0.967   1.046   4.381  1.0834 -1.7965  2.0965
 1822TIP3    H2 5473   0.850   0.965   4.432 -2.2640  0.7151 -1.0571
 1823TIP3   OH2 5474   3.594   4.145   4.645  0.1572 -0.0585 -0.3292
 1823TIP3    H1 5475   3.672   4.172   4.693  2.2742 -1.1418 -2.8968
 1823TIP3    H2 5476   3.568   4.062   4.685  0.6328  0.0338  0.1844
 1824TIP3   OH2 5477   4.114   1.428   2.775 -0.5482  1.6056 -0.2050
 1824TIP3    H1 5478   4.052   1.427   2.702 -0.4887  0.0339 -0.2586
 1824TIP3    H2 5479   4.061   1.445   2.852 -0.6498  2.9891 -0.5430
 1825TIP3   OH2 5480   6.315   0.244   0.214  0.5666 -0.0954 -0.4254
 1825TIP3    H1 5481   6.306   0.327   0.262  0.3019 -0.1978 -0.2958
 1825TIP3    H2 5482   6.410   0.234   0.201  0.5368  0.8472 -1.5374
 1826TIP3   OH2 5483   0.488   4.957   3.512 -0.3180 -0.0270 -0.0844
 1826TIP3    H1 5484   0.502   4.923   3.424  0.4041 -0.7921  0.3117
 1826TIP3    H2 5485   0.466   5.049   3.499  0.1037 -0.0524 -1.0403
 1827TIP3   OH2 5486   5.631   1.090   0.395 -0.1048  0.0442 -0.1289
 1827TIP3    H1 5487   5.648   1.048   0.311  0.5269 -0.4787  0.2478
 1827TIP3    H2 5488   5.672   1.177   0.387 -0.0432 -0.0048 -0.3536
 1828TIP3   OH2 5489   3.206   1.655   1.972  0.2498  0.6650  0.3596
 1828TIP3    H1 5490   3.135   1.705   1.932  0.4854  1.1292  0.5182
 1828TIP3    H2 5491   3.249   1.717   2.031 -0.5062 -0.1682  1.8539
 1829TIP3   OH2 5492   1.279   4.379   3.532  0.0351  0.2983  0.4535
 1829TIP3    H1 5493   1.201   4.347   3.488 -0.0971  0.3539  0.6498
 1829TIP3    H2 5494   1.258   4.468   3.557 -1.1901 -0.7572  3.6842
 1830TIP3   OH2 5495   1.749   3.170   4.698 -0.3437  0.2458  0.2222
 1830TIP3    H1 5496   1.826   3.159   4.642  0.2883  0.3429  1.0572
 1830TIP3    H2 5497   1.783   3.166   4.787 -1.1103  1.5566  0.6081
 1831TIP3   OH2 5498   6.077   5.752   0.842 -0.4439 -0.1344 -0.1174
 1831TIP3    H1 5499   6.153   5.800   0.875 -0.4298 -0.6451  0.6427
 1831TIP3    H2 5500   6.005   5.815   0.847 -0.6558 -0.4446  1.8768
 1832TIP3   OH2 5501   4.362   1.738   0.426 -0.0881 -0.5812 -0.1525
 1832TIP3    H1 5502   4.319   1.823   0.434 -0.9902 -0.7800 -2.3471
 1832TIP3    H2 5503   4.298   1.675   0.458 -0.6234 -0.6769 -1.3629
 1833TIP3   OH2 5504   4.940   0.395   4.722 -0.0714  0.0592  0.0398
 1833TIP3    H1 5505   4.982   0.473   4.759 -0.1764  0.1736 -0.0794
 1833TIP3    H2 5506   5.004   0.325   4.736  0.7084  0.4713 -1.2430
 1834TIP3   OH2 5507   0.683   3.567   3.623 -0.3246 -0.2612 -0.2297
 1834TIP3    H1 5508   0.760   3.518   3.651 -0.3843  0.1975  0.7637
 1834TIP3    H2 5509   0.629   3.574   3.701 -1.3752 -0.5514 -0.9075
 1835TIP3   OH2 5510   5.506   1.416   2.207 -0.2446  0.1291  0.0469
 1835TIP3    H1 5511   5.446   1.463   2.265 -0.2626 -0.5598  0.5971
 1835TIP3    H2 5512   5.561   1.365   2.266  0.7507  0.5741 -0.4585
 1836TIP3   OH2 5513   6.298   5.726   0.256 -0.2386 -0.4149 -0.4079
 1836TIP3    H1 5514   6.390   5.737   0.235  0.1003 -0.7895  0.8357
 1836TIP3    H2 5515   6.292   5.741   0.351 -1.7904  1.7471 -0.7476
 1837TIP3   OH2 5516   1.901   4.783   1.371 -0.3052 -0.2451 -0.1228
 1837TIP3    H1 5517   1.892   4.876   1.390  0.1735 -0.2196 -0.0145
 1837TIP3    H2 5518   1.814   4.747   1.388 -0.4133  0.1273  0.1402
 1838TIP3   OH2 5519   3.215   2.337   4.313  0.7343 -0.0476 -0.0798
 1838TIP3    H1 5520   3.275   2.265   4.291  1.4829  0.5858 -0.1303
 1838TIP3    H2 5521   3.162   2.349   4.234  1.4182  0.2451 -0.5023
 1839TIP3   OH2 5522   1.654   3.012   2.991 -0.1072 -0.0327 -0.6082
 1839TIP3    H1 5523   1.742   2.976   2.988  0.7186  1.9169 -2.0671
 1839TIP3    H2 5524   1.620   3.000   2.902 -1.4607 -1.0111 -0.0021
 1840TIP3   OH2 5525   0.893   0.099   2.838  0.4297 -0.2543 -0.4821
 1840TIP3    H1 5526   0.826   0.093   2.906  1.7708  1.1748  1.0543
 1840TIP3    H2 5527   0.924   0.189   2.843  1.6240 -0.5462 -1.9829
 1841TIP3   OH2 5528   5.134   4.957   2.774 -0.5969  0.3597 -0.1757
 1841TIP3    H1 5529   5.116   5.006   2.693 -0.1970  0.1089 -0.4199
 1841TIP3    H2 5530   5.097   4.870   2.759  0.4331 -0.0364 -0.5285
 1842TIP3   OH2 5531   1.657   2.077   0.951  0.1700 -0.1961 -0.3430
 1842TIP3    H1 5532   1.561   2.081   0.952  0.1923  0.9658 -0.7191
 1842TIP3    H2 5533   1.678   2.019   0.878 -0.2513  0.5789 -1.0956
 1843TIP3   OH2 5534   3.961   0.716   3.470 -0.2387  0.6556 -0.3083
 1843TIP3    H1 5535   4.007   0.723   3.554  1.0052 -0.4650 -0.8584
 1843TIP3    H2 5536   3.950   0.807   3.441 -1.8908  1.1587  1.6448
 1844TIP3   OH2 5537   0.395   3.365   4.773  0.7782 -0.5800  0.5748
 1844TIP3    H1 5538   0.487   3.342   4.757  1.0174 -0.2581  1.4444
 1844TIP3    H2 5539   0.397   3.460   4.787  0.4773 -0.7304  1.6973
 1845TIP3   OH2 5540   5.160   0.464   1.720  0.0844  0.2042  0.5268
 1845TIP3    H1 5541   5.152   0.559   1.716 -0.2428  0.1730  0.4205
 1845TIP3    H2 5542   5.070   0.432   1.718  0.1896 -0.1037  0.6957
 1846TIP3   OH2 5543   1.357   5.473   4.247  0.0275 -0.0986  0.6101
 1846TIP3    H1 5544   1.420   5.493   4.179 -0.7427 -1.2518 -0.4947
 1846TIP3    H2 5545   1.408   5.467   4.328  1.2696 -0.7282 -0.2114
 1847TIP3   OH2 5546   4.219   3.626   4.935 -0.9086  0.6760  0.0395
 1847TIP3    H1 5547   4.241   3.617   5.028  0.2372  1.3327 -0.1525
 1847TIP3    H2 5548   4.169   3.547   4.914  1.4604 -1.0420  0.4610
 1848TIP3   OH2 5549   3.742   2.560   2.761  0.8063 -0.5252  0.6915
 1848TIP3    H1 5550   3.829   2.535   2.791  1.7739  1.1238 -0.5708
 1848TIP3    H2 5551   3.743   2.544   2.667 -0.5021 -1.0788  0.7456
 1849TIP3   OH2 5552   4.630   5.700   0.412  0.0575  0.1720  0.4971
 1849TIP3    H1 5553   4.703   5.762   0.414  0.7945 -0.6903  1.2216
 1849TIP3    H2 5554   4.559   5.745   0.456  0.6613  0.4255  1.2339
 1850TIP3   OH2 5555   0.458   4.904   1.655  0.1058  0.2711  0.5231
 1850TIP3    H1 5556   0.490   4.986   1.618  1.1845 -0.0739  0.6596
 1850TIP3    H2 5557   0.390   4.931   1.717 -0.3034  0.9827 -0.2239
 1851TIP3   OH2 5558   4.506   0.692   2.625 -0.1430  0.0285 -0.7008
 1851TIP3    H1 5559   4.475   0.635   2.556 -0.0666 -1.2048  0.2463
 1851TIP3    H2 5560   4.548   0.633   2.688 -1.0476  0.9769  0.8558
 1852TIP3   OH2 5561   5.806   3.017   4.560  0.2226 -0.1963 -0.1596
 1852TIP3    H1 5562   5.865   3.089   4.537  1.0951 -1.3921 -1.8911
 1852TIP3    H2 5563   5.860   2.957   4.610 -0.1627 -0.2425  0.2059
 1853TIP3   OH2 5564   5.534   2.752   2.225  0.1980  0.0922  0.4383
 1853TIP3    H1 5565   5.462   2.801   2.265  1.5205  2.8595 -0.2846
 1853TIP3    H2 5566   5.503   2.730   2.138  0.5501  2.4023 -0.3482
 1854TIP3   OH2 5567   3.574   5.145   0.288  0.4558  0.1642  0.4718
 1854TIP3    H1 5568   3.609   5.191   0.212 -0.3173  0.1932  0.1307
 1854TIP3    H2 5569   3.495   5.102   0.257  0.7415 -0.7718  0.9748
 1855TIP3   OH2 5570   3.855   1.548   4.987 -0.0048 -0.4825  0.3690
 1855TIP3    H1 5571   3.761   1.555   4.975 -0.0554 -3.1953 -1.8491
 1855TIP3    H2 5572   3.893   1.583   4.906  0.8612 -0.0709  0.9344
 1856TIP3   OH2 5573   6.209   3.767   3.415  0.3248  0.1115  0.3660
 1856TIP3    H1 5574   6.162   3.850   3.419  2.3342  1.2454  2.1261
 1856TIP3    H2 5575   6.202   3.731   3.503  0.2116 -1.2128 -0.1545
 1857TIP3   OH2 5576   3.121   1.046   1.070 -0.6086 -0.6926  0.1224
 1857TIP3    H1 5577   3.071   0.974   1.109 -2.7974  1.2697  1.1730
 1857TIP3    H2 5578   3.067   1.077   0.997  0.3110 -0.1079 -0.3341
 1858TIP3   OH2 5579   3.782   3.398   4.445  0.3359  0.2089  0.0048
 1858TIP3    H1 5580   3.782   3.312   4.486  0.5763 -0.3718 -1.1538
 1858TIP3    H2 5581   3.853   3.446   4.487 -1.1551  0.6328  2.1783
 1859TIP3   OH2 5582   4.819   5.393   0.471  0.4659  0.1523 -0.2444
 1859TIP3    H1 5583   4.739   5.341   0.480  1.2535 -0.9347  0.9389
 1859TIP3    H2 5584   4.806   5.468   0.529  0.2177  0.0710 -0.1939
 1860TIP3   OH2 5585   0.778   2.332   3.540  0.6144  0.2353 -0.1348
 1860TIP3    H1 5586   0.872   2.346   3.526  0.8244 -1.5205 -0.7953
 1860TIP3    H2 5587   0.772   2.245   3.580 -0.6872  0.7385  0.8240
 1861TIP3   OH2 5588   5.911   5.004   1.065 -0.2481  0.1170  0.3464
 1861TIP3    H1 5589   5.927   4.959   0.982  1.0301 -1.3503  1.3281
 1861TIP3    H2 5590   5.849   4.948   1.111  1.3331 -0.6949  1.5748
 1862TIP3   OH2 5591   5.832   3.694   0.848 -0.2161 -0.5512 -0.6382
 1862TIP3    H1 5592   5.742   3.715   0.870  0.8639  0.5924  3.6195
 1862TIP3    H2 5593   5.869   3.777   0.817 -0.2297 -0.6457 -0.9126
 1863TIP3   OH2 5594   2.393   1.024   1.531 -0.1497  0.5307  0.1081
 1863TIP3    H1 5595   2.356   1.111   1.539 -1.4167  0.0735 -0.5213
 1863TIP3    H2 5596   2.358   0.990   1.448 -0.0262 -0.7285  0.5413
 1864TIP3   OH2 5597   0.501   5.128   2.821 -0.2203  0.5471  0.0559
 1864TIP3    H1 5598   0.430   5.192   2.814 -0.5800  0.1719  0.2227
 1864TIP3    H2 5599   0.526   5.130   2.913 -1.3811 -0.7553  0.4325
 1865TIP3   OH2 5600   0.143   4.558   4.699  0.6034  0.0744  0.0903
 1865TIP3    H1 5601   0.069   4.541   4.757  0.8177 -0.6069  0.1670
 1865TIP3    H2 5602   0.117   4.522   4.614  0.5013  0.6072 -0.1098
 1866TIP3   OH2 5603   6.113   3.113   3.417 -0.2025  0.0632 -0.2233
 1866TIP3    H1 5604   6.127   3.125   3.324  0.5594 -0.2379 -0.1523
 1866TIP3    H2 5605   6.147   3.193   3.457 -3.0747  1.4942 -0.3734
 1867TIP3   OH2 5606   5.276   4.304   4.337 -0.4884 -0.4983  0.2036
 1867TIP3    H1 5607   5.369   4.298   4.360 -0.2179  0.4897 -0.5763
 1867TIP3    H2 5608   5.249   4.213   4.325  0.1411 -0.8532  1.2943
 1868TIP3   OH2 5609   1.337   0.630   1.936 -0.4959 -0.3757 -0.2995
 1868TIP3    H1 5610   1.368   0.590   2.017 -0.0527  0.9400  0.2148
 1868TIP3    H2 5611   1.323   0.722   1.959  0.1628  0.1422 -1.8381
 1869TIP3   OH2 5612   3.775   5.736   1.462  0.4011 -0.5211 -0.4760
 1869TIP3    H1 5613   3.727   5.805   1.506  0.3105 -0.8437 -0.0645
 1869TIP3    H2 5614   3.860   5.732   1.507  0.9921  0.3179 -1.4559
 1870TIP3   OH2 5615   4.582   0.087   4.821 -0.2870 -0.1502  0.2748
 1870TIP3    H1 5616   4.672   0.108   4.796  0.6729 -0.0965  3.3633
 1870TIP3    H2 5617   4.559   0.151   4.888 -2.4866 -0.4470 -0.0990
 1871TIP3   OH2 5618   5.115   0.047   3.984  0.1121 -0.0818  0.6147
 1871TIP3    H1 5619   5.114   0.136   3.947  0.5943 -0.1759  0.3592
 1871TIP3    H2 5620   5.059  -0.004   3.925 -0.3304  0.0944  0.8788
 1872TIP3   OH2 5621   6.009   4.480   1.795 -0.5517  0.4627 -0.5265
 1872TIP3    H1 5622   5.949   4.451   1.726 -0.5809  0.3527 -0.4551
 1872TIP3    H2 5623   5.953   4.502   1.869 -0.4679 -0.2020 -0.2615
 1873TIP3   OH2 5624   0.245   4.097   0.240  0.1375  0.5304 -0.1759
 1873TIP3    H1 5625   0.184   4.069   0.173  0.6584 -0.0355 -0.4262
 1873TIP3    H2 5626   0.332   4.087   0.200  0.4637  0.0739  0.6143
 1874TIP3   OH2 5627   4.830   5.938   2.132  0.2591  0.9217  0.1596
 1874TIP3    H1 5628   4.747   5.969   2.095 -0.1227  1.0341  1.0861
 1874TIP3    H2 5629   4.851   5.860   2.081  0.1599  1.5182 -0.8208
 1875TIP3   OH2 5630   1.231   4.969   1.096  0.1855 -0.6253  0.5733
 1875TIP3    H1 5631   1.309   5.016   1.068 -0.1470 -0.2044  0.3402
 1875TIP3    H2 5632   1.233   4.887   1.047 -0.6295  0.2844 -1.0876
 1876TIP3   OH2 5633   2.911   2.617   3.997  0.3134 -0.3216 -0.4229
 1876TIP3    H1 5634   2.899   2.530   3.961  0.4925  0.4128 -2.3598
 1876TIP3    H2 5635   2.846   2.624   4.067  0.9084 -2.2965  0.3918
 1877TIP3   OH2 5636   5.697   5.865   1.369  0.4912 -0.5025  0.1202
 1877TIP3    H1 5637   5.779   5.913   1.365  0.2569 -0.1733 -1.3757
 1877TIP3    H2 5638   5.643   5.905   1.301 -1.7383  0.7701  2.4545
 1878TIP3   OH2 5639   0.030   0.455   3.571  0.0357  0.2493 -0.0374
 1878TIP3    H1 5640  -0.007   0.384   3.519  1.0197 -0.4110  0.1241
 1878TIP3    H2 5641   0.023   0.424   3.662  0.5031  0.3293  0.0308
 1879TIP3   OH2 5642   1.017   3.660   0.103 -0.0812  0.4146  0.0208
 1879TIP3    H1 5643   1.018   3.586   0.042  1.4391 -1.0452  1.7064
 1879TIP3    H2 5644   0.932   3.653   0.148 -1.1896  1.4717 -1.7912
 1880TIP3   OH2 5645   1.156   1.335   5.081 -0.1568 -0.2788  0.2462
 1880TIP3    H1 5646   1.192   1.271   5.142  0.6706  0.4987  0.5918
 1880TIP3    H2 5647   1.180   1.302   4.994 -1.3170 -1.3767  0.3072
 1881TIP3   OH2 5648   2.754   4.654   3.892 -0.0054 -0.5086 -0.2674
 1881TIP3    H1 5649   2.731   4.581   3.835 -1.7216  0.3022 -0.6811
 1881TIP3    H2 5650   2.800   4.716   3.836 -0.9795 -0.0709 -0.5995
 1882TIP3   OH2 5651   5.216   5.263   4.657 -0.0267  0.1960  0.4719
 1882TIP3    H1 5652   5.280   5.316   4.705  0.0377  0.3333  0.2376
 1882TIP3    H2 5653   5.227   5.175   4.692 -1.4397  0.6625  2.2327
 1883TIP3   OH2 5654   0.338   2.938   3.309  0.3281  0.1294 -0.4232
 1883TIP3    H1 5655   0.263   2.989   3.341  0.3726  1.2566 -2.0333
 1883TIP3    H2 5656   0.300   2.878   3.245  0.7950  0.7164 -1.2589
 1884TIP3   OH2 5657   6.025   0.561   0.186 -0.8332 -0.2126  0.4439
 1884TIP3    H1 5658   5.986   0.506   0.119  0.0658  0.4314 -0.6506
 1884TIP3    H2 5659   5.984   0.647   0.175  0.1454  0.2068 -0.0702
 1885TIP3   OH2 5660   4.745   4.398   0.926 -0.4684 -0.1103 -0.3099
 1885TIP3    H1 5661   4.782   4.331   0.983 -1.8745 -0.2918  0.4286
 1885TIP3    H2 5662   4.756   4.364   0.838  0.5670 -0.4253 -0.0706
 1886TIP3   OH2 5663   4.358   0.526   3.946 -0.2594  0.7568  0.0111
 1886TIP3    H1 5664   4.335   0.470   4.020  0.5868 -0.3317 -0.5152
 1886TIP3    H2 5665   4.299   0.601   3.953 -0.1494  0.7063  1.8037
 1887TIP3   OH2 5666   4.375   4.716   4.969  0.2231  0.4851 -0.1786
 1887TIP3    H1 5667   4.441   4.756   5.027 -0.5436 -0.3902  1.3700
 1887TIP3    H2 5668   4.423   4.654   4.916  0.9570  1.3412 -0.5432
 1888TIP3   OH2 5669   2.207   2.459   5.014 -0.1727  0.4478 -0.1481
 1888TIP3    H1 5670   2.291   2.495   4.987 -0.7478  1.1635 -1.0752
 1888TIP3    H2 5671   2.175   2.414   4.936 -0.2550 -0.5726  0.4715
 1889TIP3   OH2 5672   0.931   5.816   2.013 -0.8950  0.6069  0.4603
 1889TIP3    H1 5673   0.866   5.746   2.011  0.5598 -0.7955 -0.6029
 1889TIP3    H2 5674   0.926   5.856   1.926 -1.0300  1.1623  0.7216
 1890TIP3   OH2 5675   2.239   4.493   1.408 -0.4346  0.2774  0.3939
 1890TIP3    H1 5676   2.290   4.501   1.489  1.2894  1.2984 -0.7163
 1890TIP3    H2 5677   2.165   4.437   1.432 -0.1972  0.8425  2.7551
 1891TIP3   OH2 5678   3.261   5.791   0.396  0.5283  0.0638 -0.6278
 1891TIP3    H1 5679   3.276   5.846   0.472  1.5486 -1.5782  0.4263
 1891TIP3    H2 5680   3.186   5.831   0.352 -0.9594  0.3569  1.9629
 1892TIP3   OH2 5681   0.073   2.137   0.483 -0.4000 -0.1543 -0.0680
 1892TIP3    H1 5682  -0.003   2.165   0.535 -1.3709  0.9604 -1.9817
 1892TIP3    H2 5683   0.094   2.213   0.430  2.2017 -0.3969  0.5033
 1893TIP3   OH2 5684   6.306   0.651   5.129 -0.5224 -0.0511  0.1865
 1893TIP3    H1 5685   6.292   0.690   5.214 -0.5394  0.1403  0.0961
 1893TIP3    H2 5686   6.341   0.564   5.148  0.7561  0.4787  0.3755
 1894TIP3   OH2 5687   3.174   1.462   1.036 -0.2355  0.2132  0.0017
 1894TIP3    H1 5688   3.145   1.548   1.007  0.3519  1.7734  3.5097
 1894TIP3    H2 5689   3.267   1.459   1.014 -0.1442  0.7112  0.3112
 1895TIP3   OH2 5690   3.601   2.537   4.284  0.4528 -0.3187  0.2063
 1895TIP3    H1 5691   3.523   2.569   4.240  1.3259 -0.3049 -1.3937
 1895TIP3    H2 5692   3.607   2.445   4.259  0.9196 -0.3281  0.3357
 1896TIP3   OH2 5693   3.475   5.471   4.005 -0.5679 -0.0604  0.2492
 1896TIP3    H1 5694   3.465   5.566   4.004  1.4825  0.4421 -5.0716
 1896TIP3    H2 5695   3.562   5.456   4.043 -0.8774  0.1920  1.0595
 1897TIP3   OH2 5696   4.636   2.718   0.651 -0.1914  0.0366  0.7448
 1897TIP3    H1 5697   4.686   2.650   0.695  0.2251  1.1102  1.9915
 1897TIP3    H2 5698   4.676   2.800   0.680 -0.5996  0.8188 -0.8186
 1898TIP3   OH2 5699   4.191   4.337   2.775  0.1797  0.0278 -0.0089
 1898TIP3    H1 5700   4.187   4.349   2.680 -0.8410 -0.3635 -0.0268
 1898TIP3    H2 5701   4.166   4.422   2.811  1.5435  0.4862 -0.0572
 1899TIP3   OH2 5702   5.670   5.003   4.290 -0.3727 -0.2207 -0.1877
 1899TIP3    H1 5703   5.760   5.008   4.322 -0.0269 -1.6146 -0.8646
 1899TIP3    H2 5704   5.649   4.909   4.291 -1.0566 -0.1291 -2.0673
 1900TIP3   OH2 5705   2.438   5.029   2.770  0.8201  0.0183 -0.3475
 1900TIP3    H1 5706   2.425   5.040   2.676  0.5315  0.9396 -0.2064
 1900TIP3    H2 5707   2.461   5.116   2.802 -1.2534  0.2333  0.7830
 1901TIP3   OH2 5708   5.021   5.007   3.693  0.1192  0.7577  0.0163
 1901TIP3    H1 5709   5.094   5.048   3.739 -0.0789  0.8338  0.2638
 1901TIP3    H2 5710   5.003   5.065   3.619 -0.3031  1.2422  0.4859
 1902TIP3   OH2 5711   3.878   1.801   0.509  0.2281 -0.0499 -0.4159
 1902TIP3    H1 5712   3.792   1.806   0.467  0.0418  0.1022 -0.0257
 1902TIP3    H2 5713   3.932   1.863   0.460  0.0086  0.1409 -0.4197
 1903TIP3   OH2 5714   3.722   1.410   4.721  0.1252 -0.5133  0.0249
 1903TIP3    H1 5715   3.659   1.364   4.776 -0.4441 -0.2311 -0.3750
 1903TIP3    H2 5716   3.688   1.499   4.716  0.1270 -0.5564 -0.8473
 1904TIP3   OH2 5717   3.087   2.809   1.643  0.2595 -0.7163 -0.7531
 1904TIP3    H1 5718   3.148   2.776   1.577  0.9875 -1.4129  0.2451
 1904TIP3    H2 5719   3.015   2.746   1.643  0.1078 -0.5518 -1.0675
 1905TIP3   OH2 5720   4.314   4.029   0.483  0.3766 -0.1300 -0.3405
 1905TIP3    H1 5721   4.285   3.942   0.454  1.0288 -1.2312  2.0709
 1905TIP3    H2 5722   4.408   4.029   0.469  0.6572 -0.5606  1.3242
 1906TIP3   OH2 5723   6.245   4.464   1.666 -0.0480  0.5160  0.3908
 1906TIP3    H1 5724   6.226   4.508   1.583  2.0145  3.5352  1.3279
 1906TIP3    H2 5725   6.183   4.501   1.728 -0.7695 -0.8018  0.4877
 1907TIP3   OH2 5726   2.793   3.995   0.299  0.0805  0.5429  0.0672
 1907TIP3    H1 5727   2.763   4.016   0.388 -1.7988  1.2653 -0.6904
 1907TIP3    H2 5728   2.868   4.052   0.285  1.5283 -0.7890  1.7646
 1908TIP3   OH2 5729   5.098   0.166   4.715  0.0647 -0.9778 -0.3191
 1908TIP3    H1 5730   5.188   0.193   4.699 -1.2303  4.0613 -0.6575
 1908TIP3    H2 5731   5.066   0.137   4.629  1.3173 -3.2667 -0.1016
 1909TIP3   OH2 5732   6.085   0.397   3.645 -0.7344 -0.2799  0.2963
 1909TIP3    H1 5733   5.997   0.432   3.662 -0.5732 -0.9792  2.9979
 1909TIP3    H2 5734   6.071   0.303   3.633 -0.3584 -0.4269  0.9645
 1910TIP3   OH2 5735   0.415   2.150   1.991  0.4835 -0.5650 -0.0136
 1910TIP3    H1 5736   0.423   2.093   2.068  1.6099  0.2610  0.5045
 1910TIP3    H2 5737   0.412   2.238   2.026 -1.2420 -0.2786 -0.8182
 1911TIP3   OH2 5738   5.460   4.088   0.958 -0.2128 -0.5926 -0.3875
 1911TIP3    H1 5739   5.433   4.117   1.045 -1.3703  1.2071 -1.2738
 1911TIP3    H2 5740   5.555   4.101   0.957 -0.2291 -0.3207  0.4811
 1912TIP3   OH2 5741   3.992   2.034   0.419 -0.2135 -0.0509  0.7019
 1912TIP3    H1 5742   3.910   2.061   0.378 -0.6054 -1.8170  0.2389
 1912TIP3    H2 5743   4.034   2.116   0.446 -2.5473  0.8786  1.8128
 1913TIP3   OH2 5744   5.810   0.476   3.685 -0.2070 -0.6731 -0.1198
 1913TIP3    H1 5745   5.826   0.570   3.673 -0.9731 -0.7269 -1.8892
 1913TIP3    H2 5746   5.753   0.452   3.612  1.0373 -2.7916 -0.4751
 1914TIP3   OH2 5747   5.806   0.784   1.851  0.3089 -0.5052 -0.6107
 1914TIP3    H1 5748   5.752   0.788   1.930  0.6215  1.7947 -0.4355
 1914TIP3    H2 5749   5.779   0.703   1.808 -3.5671  0.5925 -0.6726
 1915TIP3   OH2 5750   2.747   1.248   3.599 -0.6547  0.0646 -0.1425
 1915TIP3    H1 5751   2.768   1.340   3.617  0.4983  0.1888 -1.8491
 1915TIP3    H2 5752   2.676   1.252   3.536 -0.2651 -0.1940 -0.6012
 1916TIP3   OH2 5753   5.720   5.535   4.096  0.2916 -0.5896  0.4192
 1916TIP3    H1 5754   5.770   5.530   4.014 -0.8642  0.5283 -0.3953
 1916TIP3    H2 5755   5.743   5.621   4.133 -0.4967 -0.3403  0.3595
 1917TIP3   OH2 5756   0.160   4.599   2.970  0.7313  0.3696  0.1508
 1917TIP3    H1 5757   0.084   4.636   2.926  0.3613  0.7659  1.1088
 1917TIP3    H2 5758   0.174   4.655   3.046  0.3133 -1.2820  1.5053
 1918TIP3   OH2 5759   2.721   5.944   0.405  0.2646  0.3037  0.0224
 1918TIP3    H1 5760   2.791   5.972   0.346  0.0153 -0.6479 -0.7296
 1918TIP3    H2 5761   2.652   6.009   0.393 -0.3174 -0.6006 -1.7281
 1919TIP3   OH2 5762   2.143   3.829   2.241 -0.8229 -0.2887  0.4366
 1919TIP3    H1 5763   2.193   3.788   2.312  0.4182  0.6151  0.1238
 1919TIP3    H2 5764   2.053   3.831   2.273 -0.3277 -0.1202  1.9020
 1920TIP3   OH2 5765   2.998   5.800   4.566 -0.1240  0.4230  0.1543
 1920TIP3    H1 5766   3.029   5.717   4.601  0.4623  0.6201  0.1155
 1920TIP3    H2 5767   3.077   5.848   4.544 -0.4595  0.9196  0.0016
 1921TIP3   OH2 5768   2.522   5.732   1.554 -0.4328 -0.4579  0.2420
 1921TIP3    H1 5769   2.506   5.772   1.640  1.6784 -0.2283  0.5683
 1921TIP3    H2 5770   2.604   5.771   1.524 -0.5720 -1.3479 -1.4207
 1922TIP3   OH2 5771   4.938   1.007   3.646 -0.5135 -0.2224 -0.2846
 1922TIP3    H1 5772   4.918   0.992   3.738 -2.4814 -0.6489 -0.7368
 1922TIP3    H2 5773   4.873   0.955   3.598 -0.4913  1.1320 -1.9101
 1923TIP3   OH2 5774   2.520   4.531   2.749  0.3674 -0.2750  0.0691
 1923TIP3    H1 5775   2.510   4.476   2.827 -0.3330 -1.2597 -0.6978
 1923TIP3    H2 5776   2.509   4.621   2.781  0.8623 -0.6075  1.2281
 1924TIP3   OH2 5777   5.062   3.807   3.961 -0.4326 -0.0197 -0.0205
 1924TIP3    H1 5778   5.030   3.763   3.882 -0.9449 -0.0611  0.2120
 1924TIP3    H2 5779   5.009   3.886   3.969  0.1715  0.4128 -0.1712
 1925TIP3   OH2 5780   3.007   1.620   3.440  0.3088 -0.3827 -0.0833
 1925TIP3    H1 5781   2.980   1.686   3.377  0.4489  1.2838  1.4920
 1925TIP3    H2 5782   3.101   1.637   3.453  0.4053 -1.0730  0.1401
 1926TIP3   OH2 5783   1.086   0.889   2.485 -0.5262  0.9337 -0.1910
 1926TIP3    H1 5784   1.026   0.814   2.487 -0.5448  0.9488  1.8284
 1926TIP3    H2 5785   1.036   0.961   2.523  0.2285  1.3556  0.0289
 1927TIP3   OH2 5786  -0.005   4.651   0.692 -0.0812  0.8643 -0.1995
 1927TIP3    H1 5787   0.047   4.728   0.714 -2.8892  3.1260 -0.7267
 1927TIP3    H2 5788   0.018   4.632   0.601  1.9015 -0.1119  0.4560
 1928TIP3   OH2 5789   5.704   5.239   4.921 -0.0465  0.2159 -0.1195
 1928TIP3    H1 5790   5.713   5.181   4.997  0.3457  0.7000  0.2152
 1928TIP3    H2 5791   5.666   5.184   4.853 -1.2450 -0.0003  0.6927
 1929TIP3   OH2 5792   2.766   1.865   1.477 -0.2197 -0.3442  0.5223
 1929TIP3    H1 5793   2.716   1.891   1.554 -0.5526 -0.5844  0.3905
 1929TIP3    H2 5794   2.847   1.829   1.512 -0.1284  0.0685  0.7352
 1930TIP3   OH2 5795   3.860   4.174   2.426 -0.2322 -0.0399 -0.5496
 1930TIP3    H1 5796   3.922   4.243   2.403 -1.7594  1.4579 -0.4250
 1930TIP3    H2 5797   3.776   4.220   2.434 -1.2793 -1.9107 -0.3105
 1931TIP3   OH2 5798   0.829   3.210   1.585 -0.0650 -0.4088  0.3783
 1931TIP3    H1 5799   0.745   3.243   1.616  0.4913  0.2512  1.2038
 1931TIP3    H2 5800   0.877   3.189   1.664  1.2022  0.8411 -0.0345
 1932TIP3   OH2 5801   1.443   2.633   1.204  0.6136 -0.5535  0.3768
 1932TIP3    H1 5802   1.373   2.680   1.159  0.2736  0.7532  2.1940
 1932TIP3    H2 5803   1.523   2.660   1.158  0.2285  0.2929  0.1819
 1933TIP3   OH2 5804   1.394   2.652   3.174  0.0727 -0.0377  0.4768
 1933TIP3    H1 5805   1.327   2.601   3.219 -0.4999  0.4187  0.1650
 1933TIP3    H2 5806   1.472   2.597   3.177 -0.6877 -1.2374 -0.4261
 1934TIP3   OH2 5807   0.057   4.371   0.679 -0.1414 -0.1171  0.0849
 1934TIP3    H1 5808  -0.009   4.383   0.611  0.5889  0.8583 -0.4615
 1934TIP3    H2 5809   0.119   4.309   0.641  1.3942  1.9788 -1.0268
 1935TIP3   OH2 5810   0.600   5.002   5.158  0.4090 -0.0099 -0.0972
 1935TIP3    H1 5811   0.528   4.952   5.118  0.5919 -0.8691  0.5989
 1935TIP3    H2 5812   0.640   5.048   5.085  1.1375 -2.0309 -1.0556
 1936TIP3   OH2 5813   4.348   4.121   3.638  0.0893  0.1426 -0.0710
 1936TIP3    H1 5814   4.343   4.033   3.601 -3.2336  1.3037 -3.0466
 1936TIP3    H2 5815   4.257   4.152   3.639  0.7225  2.4995  3.8368
 1937TIP3   OH2 5816   3.186   4.693   4.849  0.2778  0.6773 -0.3544
 1937TIP3    H1 5817   3.094   4.664   4.852  0.1412  1.1491  0.0814
 1937TIP3    H2 5818   3.236   4.614   4.870  0.0052  0.2583 -1.2238
 1938TIP3   OH2 5819   1.638   3.319   2.213  0.6611  0.3813 -0.3361
 1938TIP3    H1 5820   1.579   3.326   2.288 -1.2915 -0.9549 -1.6368
 1938TIP3    H2 5821   1.667   3.409   2.197 -0.6013  1.0065  0.7000
 1939TIP3   OH2 5822   5.374   0.386   1.583 -0.2735 -0.0253 -0.0401
 1939TIP3    H1 5823   5.290   0.399   1.627  0.4008  0.5386  1.1326
 1939TIP3    H2 5824   5.362   0.423   1.496 -0.4974  2.4185  0.9479
 1940TIP3   OH2 5825   0.936   0.385   0.342  0.0405 -0.1087 -0.1344
 1940TIP3    H1 5826   1.018   0.414   0.301 -0.7637  2.0865 -0.3393
 1940TIP3    H2 5827   0.891   0.337   0.273  0.6208 -0.2884 -0.3974
 1941TIP3   OH2 5828   0.176   4.100   2.309 -0.2061  0.2133  0.1139
 1941TIP3    H1 5829   0.185   4.033   2.376 -0.9595  1.5561  1.6434
 1941TIP3    H2 5830   0.102   4.072   2.255 -0.7334 -0.0103  0.9486
 1942TIP3   OH2 5831   2.278   4.282   1.812  0.4792 -0.0770  0.3368
 1942TIP3    H1 5832   2.372   4.265   1.826  0.6157 -0.5041 -0.9456
 1942TIP3    H2 5833   2.249   4.209   1.758 -0.9974 -0.8207  2.0400
 1943TIP3   OH2 5834   2.286   1.543   4.235  0.1564  0.2326 -0.0868
 1943TIP3    H1 5835   2.363   1.598   4.220  0.2620  0.3763  0.9306
 1943TIP3    H2 5836   2.219   1.579   4.177  1.0127 -0.2744 -1.4526
 1944TIP3   OH2 5837   5.185   4.296   1.040  0.0465  0.2072 -0.5684
 1944TIP3    H1 5838   5.101   4.299   1.086  1.4164  0.2267  2.1598
 1944TIP3    H2 5839   5.162   4.288   0.947 -2.9359 -0.8750  0.1514
 1945TIP3   OH2 5840   0.471   2.277   0.314  0.0414  0.1558 -0.4431
 1945TIP3    H1 5841   0.545   2.337   0.319 -0.3475  0.7756 -1.7045
 1945TIP3    H2 5842   0.510   2.191   0.304  0.5942  0.4416 -0.7782
 1946TIP3   OH2 5843   5.775   4.164   5.168 -0.0156 -0.1646  0.5509
 1946TIP3    H1 5844   5.840   4.223   5.207  1.6195 -0.4535 -1.5870
 1946TIP3    H2 5845   5.714   4.222   5.124 -0.8557  0.0726  1.9607
 1947TIP3   OH2 5846   0.073   2.189   4.592 -0.4231  0.2285 -0.0140
 1947TIP3    H1 5847   0.045   2.246   4.520 -0.2308 -2.0395 -2.0226
 1947TIP3    H2 5848   0.160   2.221   4.615 -0.6828  1.3040 -0.4452
 1948TIP3   OH2 5849   2.968   3.406   3.530  0.5250  0.3241  0.5980
 1948TIP3    H1 5850   2.877   3.383   3.512  0.6232  0.9074 -0.7867
 1948TIP3    H2 5851   3.017   3.373   3.455  1.1553  1.7845  0.3248
 1949TIP3   OH2 5852   2.551   2.728   1.778 -0.0145 -0.5353  0.3568
 1949TIP3    H1 5853   2.465   2.766   1.798  0.4183  1.2422 -0.8517
 1949TIP3    H2 5854   2.566   2.664   1.847 -1.4764  0.4679  1.6866
 1950TIP3   OH2 5855   1.323   3.222   1.439 -0.6145  0.1199  0.2816
 1950TIP3    H1 5856   1.398   3.243   1.494 -0.5589  1.0683 -0.1517
 1950TIP3    H2 5857   1.262   3.177   1.498 -0.1448  0.2592  0.8812
 1951TIP3   OH2 5858   3.032   0.606   0.109 -0.3090  0.1212  0.2608
 1951TIP3    H1 5859   3.043   0.586   0.016 -0.7555 -1.9142  0.5994
 1951TIP3    H2 5860   3.046   0.700   0.115 -0.9310  0.4108 -1.9663
 1952TIP3   OH2 5861   4.333   1.281   2.786 -0.4017  0.2692  0.1282
 1952TIP3    H1 5862   4.247   1.319   2.766  0.0446  0.5198 -1.4767
 1952TIP3    H2 5863   4.360   1.324   2.867 -1.4544  0.7452  0.2504
 1953TIP3   OH2 5864   3.776   0.702   2.069  0.1331  0.0893  0.2665
 1953TIP3    H1 5865   3.863   0.698   2.106  0.8065 -0.1291 -1.2498
 1953TIP3    H2 5866   3.747   0.611   2.064  0.3867  0.0403 -0.4650
 1954TIP3   OH2 5867   1.115   5.763   2.875  0.4944  0.4956  0.6564
 1954TIP3    H1 5868   1.075   5.722   2.798  1.0110 -1.4710  1.3675
 1954TIP3    H2 5869   1.100   5.857   2.863  0.4395  0.2450 -1.7674
 1955TIP3   OH2 5870   4.767   4.771   0.902 -0.9666  0.2116 -0.1447
 1955TIP3    H1 5871   4.732   4.766   0.991 -2.2178 -0.0880 -0.6436
 1955TIP3    H2 5872   4.723   4.846   0.863 -2.4098 -1.1958 -1.3425
 1956TIP3   OH2 5873   5.971   1.050   0.595 -0.5160 -0.5401  0.3978
 1956TIP3    H1 5874   5.889   1.076   0.635 -1.7060 -1.6517 -1.2002
 1956TIP3    H2 5875   5.948   1.023   0.506  1.8350  0.8125 -0.7330
 1957TIP3   OH2 5876   0.759   1.141   3.364 -0.5747  0.1495 -0.0077
 1957TIP3    H1 5877   0.671   1.113   3.388 -1.5563  1.2182 -2.1206
 1957TIP3    H2 5878   0.760   1.138   3.269  1.9209 -0.4640 -0.0349
 1958TIP3   OH2 5879   1.985   1.322   0.039  0.3401 -0.2979  0.3144
 1958TIP3    H1 5880   2.050   1.385   0.005  0.5127 -0.5001  0.2685
 1958TIP3    H2 5881   2.000   1.243  -0.012  0.8608 -0.7307  1.1208
 1959TIP3   OH2 5882   0.364   3.722   1.854 -0.3224  0.6766  0.5032
 1959TIP3    H1 5883   0.360   3.636   1.895  1.7686 -0.1161 -0.7916
 1959TIP3    H2 5884   0.350   3.784   1.926  2.1316 -0.6523  2.2627
 1960TIP3   OH2 5885   2.755   3.009   3.766  0.8133 -0.7532  0.1147
 1960TIP3    H1 5886   2.725   2.994   3.677  1.8664 -1.6592 -0.1084
 1960TIP3    H2 5887   2.781   3.101   3.768  0.2509 -0.5789 -0.3397
 1961TIP3   OH2 5888   4.499   0.479   1.561  0.1338 -0.6279 -0.1505
 1961TIP3    H1 5889   4.432   0.529   1.516 -0.0379 -1.8315 -1.3129
 1961TIP3    H2 5890   4.520   0.530   1.639 -1.1806  0.4075 -0.4467
 1962TIP3   OH2 5891   5.287   3.718   2.151 -0.4996 -0.4585  0.4123
 1962TIP3    H1 5892   5.337   3.790   2.113 -1.0874 -0.0780  0.3464
 1962TIP3    H2 5893   5.315   3.641   2.102 -0.3251 -0.1753  0.0585
 1963TIP3   OH2 5894   1.998   1.622   2.130 -0.0150 -0.4552 -0.1514
 1963TIP3    H1 5895   2.042   1.586   2.208 -0.8309 -1.3728 -0.0933
 1963TIP3    H2 5896   1.958   1.546   2.088  0.1133  0.0869 -1.2873
 1964TIP3   OH2 5897   2.501   0.836   3.865  0.4005 -0.0978 -0.1498
 1964TIP3    H1 5898   2.424   0.804   3.912  0.9979 -1.1145  0.1628
 1964TIP3    H2 5899   2.558   0.760   3.858  2.2971  1.0930  1.4522
 1965TIP3   OH2 5900   0.962   0.776   1.393 -0.3821  0.0082  0.0792
 1965TIP3    H1 5901   0.987   0.845   1.332 -1.5232  0.4269  0.0537
 1965TIP3    H2 5902   0.875   0.802   1.424  0.2710 -0.0208  2.1101
 1966TIP3   OH2 5903   1.610   4.503   4.592  0.1173 -0.5186 -0.8392
 1966TIP3    H1 5904   1.664   4.578   4.619  0.1028  0.1519 -2.5201
 1966TIP3    H2 5905   1.671   4.429   4.592  0.1453 -0.5233  0.7959
 1967TIP3   OH2 5906   0.885   4.382   1.074 -0.3050 -0.3220 -0.5341
 1967TIP3    H1 5907   0.800   4.423   1.059 -0.6455 -0.9247 -0.2478
 1967TIP3    H2 5908   0.883   4.353   1.165  0.3961  0.0997 -0.3748
 1968TIP3   OH2 5909   1.196   2.843   4.754  0.4792 -0.2312 -0.4288
 1968TIP3    H1 5910   1.219   2.912   4.693  1.3442 -0.8424 -0.8067
 1968TIP3    H2 5911   1.212   2.881   4.841 -0.6198  0.5891 -0.5614
 1969TIP3   OH2 5912   5.912   4.648   4.603 -0.2747 -0.2942  0.1399
 1969TIP3    H1 5913   5.882   4.647   4.513  0.5255 -0.4893 -0.1334
 1969TIP3    H2 5914   5.861   4.579   4.647 -1.5552  0.6203  0.1528
 1970TIP3   OH2 5915   3.832   5.555   2.566  0.0522 -0.0524 -0.1144
 1970TIP3    H1 5916   3.768   5.488   2.542 -1.6381  0.7536  1.8351
 1970TIP3    H2 5917   3.845   5.542   2.660  0.5900  1.5965  0.0642
 1971TIP3   OH2 5918   1.224   3.395   3.936  0.3586  0.0663 -0.0493
 1971TIP3    H1 5919   1.259   3.315   3.975 -0.5925 -0.8386 -0.9692
 1971TIP3    H2 5920   1.170   3.434   4.004  0.2294 -0.4797  0.1611
 1972TIP3   OH2 5921   1.598   0.680   2.215  0.0552  0.0443 -0.0241
 1972TIP3    H1 5922   1.620   0.633   2.295 -0.7058 -0.6522 -0.2172
 1972TIP3    H2 5923   1.680   0.682   2.165  0.3138 -0.2730  0.3817
 1973TIP3   OH2 5924  -0.003   2.480   3.674  0.2598  0.1222  0.4115
 1973TIP3    H1 5925   0.001   2.558   3.730  3.4462 -1.1497  2.2254
 1973TIP3    H2 5926   0.053   2.503   3.599 -1.0091  0.4917 -0.4517
 1974TIP3   OH2 5927   6.302   1.291   0.956  0.4014 -0.8743 -0.1895
 1974TIP3    H1 5928   6.373   1.272   1.017  1.5860 -0.0323 -1.2371
 1974TIP3    H2 5929   6.342   1.280   0.869 -0.8110 -0.5664 -0.8105
 1975TIP3   OH2 5930   5.603   1.355   0.211 -0.1274 -0.0329  0.2998
 1975TIP3    H1 5931   5.532   1.401   0.255  0.5625 -0.2126  1.6661
 1975TIP3    H2 5932   5.681   1.409   0.228  0.6565 -1.5266  1.7523
 1976TIP3   OH2 5933   5.213   2.671   0.738 -0.2130  0.5558 -0.2007
 1976TIP3    H1 5934   5.230   2.629   0.654 -0.5740 -1.7931  0.8280
 1976TIP3    H2 5935   5.118   2.678   0.742 -0.2541 -0.1641  0.3525
 1977TIP3   OH2 5936   4.937   1.010   2.411  0.1014  0.3336 -0.0245
 1977TIP3    H1 5937   4.871   0.962   2.360  0.3452  0.6677 -0.6616
 1977TIP3    H2 5938   4.934   1.099   2.377  0.3638  0.5304  0.4582
 1978TIP3   OH2 5939   2.423   5.093   0.587  0.4211 -0.0541 -0.2904
 1978TIP3    H1 5940   2.354   5.106   0.653 -0.9866  1.8005 -1.9937
 1978TIP3    H2 5941   2.493   5.153   0.614  0.4223 -0.2735  0.2094
 1979TIP3   OH2 5942   4.410   4.174   4.105 -0.2011  0.4177  0.1977
 1979TIP3    H1 5943   4.407   4.198   4.012 -0.3183  0.8488  0.3066
 1979TIP3    H2 5944   4.486   4.222   4.139 -0.6203  0.8935  0.4879
 1980TIP3   OH2 5945   4.288   3.437   5.171 -0.5541 -0.4366  0.9890
 1980TIP3    H1 5946   4.354   3.388   5.122 -0.0917  0.7295  0.3978
 1980TIP3    H2 5947   4.216   3.376   5.184  0.2503 -1.4457  0.8123
 1981TIP3   OH2 5948   3.383   3.652   2.395 -0.3900  0.2525 -0.1894
 1981TIP3    H1 5949   3.462   3.707   2.388 -1.7251  2.1532 -1.3060
 1981TIP3    H2 5950   3.343   3.658   2.308 -1.7868 -0.6708  0.3693
 1982TIP3   OH2 5951   3.343   3.380   0.447 -0.1932  0.2672  0.4375
 1982TIP3    H1 5952   3.315   3.397   0.537 -1.3785  2.5834 -0.3069
 1982TIP3    H2 5953   3.417   3.438   0.434  1.1819 -1.3948  0.4229
 1983TIP3   OH2 5954   2.863   4.077   5.125  0.6268 -0.1244 -0.0658
 1983TIP3    H1 5955   2.778   4.099   5.163 -0.0363 -2.3608 -0.1441
 1983TIP3    H2 5956   2.899   4.011   5.184  2.5958  1.1761  0.2686
 1984TIP3   OH2 5957   2.512   5.300   2.829  0.2925  0.1359 -0.0708
 1984TIP3    H1 5958   2.486   5.327   2.741 -1.1988  0.1137  0.3407
 1984TIP3    H2 5959   2.497   5.377   2.883  0.9692  0.0717  0.2223
 1985TIP3   OH2 5960   3.207   3.644   1.839  0.4116  0.4953  0.2373
 1985TIP3    H1 5961   3.165   3.558   1.829  0.2966  0.4455  1.0726
 1985TIP3    H2 5962   3.138   3.707   1.821  0.7760  0.4359 -1.5238
 1986TIP3   OH2 5963   3.890   4.386   5.054  0.1839  0.0177 -0.1664
 1986TIP3    H1 5964   3.818   4.409   5.113 -1.4924  0.4799 -2.2634
 1986TIP3    H2 5965   3.957   4.349   5.111 -1.0707  1.0094  2.0793
 1987TIP3   OH2 5966   3.050   0.633   3.118  0.3266 -0.4831  0.0037
 1987TIP3    H1 5967   3.122   0.575   3.142 -1.1443 -2.7433 -0.8225
 1987TIP3    H2 5968   3.051   0.702   3.185  2.7156 -0.8840  0.4598
 1988TIP3   OH2 5969   0.157   3.004   1.496  0.0397 -0.3465 -0.3571
 1988TIP3    H1 5970   0.086   2.987   1.434  0.0905  1.1997 -0.8702
 1988TIP3    H2 5971   0.136   3.089   1.535  1.1913 -0.2331  0.0692
 1989TIP3   OH2 5972   4.002   0.916   0.870 -0.2893  0.2314 -0.3611
 1989TIP3    H1 5973   3.947   0.897   0.794 -1.1084 -1.6479  0.6241
 1989TIP3    H2 5974   4.086   0.875   0.850 -0.3553  0.1361 -0.4408
 1990TIP3   OH2 5975   1.553   5.635   3.166  0.4226  0.0113  0.9508
 1990TIP3    H1 5976   1.542   5.551   3.121  1.0585 -0.3380  1.4320
 1990TIP3    H2 5977   1.635   5.670   3.130  0.6624 -0.0268  1.4594
 1991TIP3   OH2 5978   2.297   3.488   1.511  0.2147 -0.1214  0.4894
 1991TIP3    H1 5979   2.345   3.416   1.552 -1.1149  0.1525  2.7080
 1991TIP3    H2 5980   2.225   3.446   1.464 -0.0398 -0.3121  1.0404
 1992TIP3   OH2 5981   2.330   2.057   3.470 -0.7749  0.0344  0.3839
 1992TIP3    H1 5982   2.299   2.103   3.548 -3.5573  0.8735 -1.0742
 1992TIP3    H2 5983   2.254   2.052   3.413  0.7206 -2.0016 -1.6531
 1993TIP3   OH2 5984   3.043   5.347   4.363  0.0076 -0.0936 -0.0491
 1993TIP3    H1 5985   2.958   5.383   4.389 -0.7474 -1.4391 -0.5640
 1993TIP3    H2 5986   3.103   5.421   4.369 -1.3288  1.0587 -0.3307
 1994TIP3   OH2 5987   6.042   5.765   4.655  0.5914 -0.1300  0.1121
 1994TIP3    H1 5988   5.988   5.708   4.601 -0.2857  1.3864 -0.6657
 1994TIP3    H2 5989   6.018   5.744   4.745 -0.8540  0.0665 -0.2079
 1995TIP3   OH2 5990   3.142   0.429   1.355  0.5879 -0.1903  0.4359
 1995TIP3    H1 5991   3.194   0.432   1.275  1.8831 -3.1484  1.0080
 1995TIP3    H2 5992   3.083   0.504   1.349  3.2574  1.9269 -1.3951
 1996TIP3   OH2 5993   5.309   3.274   0.110  0.4037 -0.3336  0.7423
 1996TIP3    H1 5994   5.366   3.242   0.181  2.3217 -1.0615 -1.0075
 1996TIP3    H2 5995   5.264   3.196   0.078  0.3208 -0.1968  0.5209
 1997TIP3   OH2 5996   5.943   5.766   2.275 -0.0782 -0.3912 -0.3480
 1997TIP3    H1 5997   6.004   5.840   2.273  1.2017 -1.4145 -1.9155
 1997TIP3    H2 5998   5.884   5.785   2.348  2.3208  0.4743  1.4629
 1998TIP3   OH2 5999   5.328   0.970   3.361 -0.2944  0.1101 -0.3289
 1998TIP3    H1 6000   5.271   0.952   3.435  1.2325  0.0638  0.8727
 1998TIP3    H2 6001   5.373   0.887   3.344  0.2338  0.4321 -0.5427
 1999TIP3   OH2 6002   0.725   5.168   4.976  0.7319 -0.3909  0.0323
 1999TIP3    H1 6003   0.729   5.130   4.889 -0.9070 -2.7846  0.8767
 1999TIP3    H2 6004   0.815   5.193   4.996  1.1850 -0.0688 -2.1856
 2000TIP3   OH2 6005   5.592   4.646   2.905 -0.6140  0.1448  0.4265
 2000TIP3    H1 6006   5.599   4.741   2.890 -1.0791  0.0565 -0.4438
 2000TIP3    H2 6007   5.683   4.616   2.909 -0.4553  0.5338 -0.0079
 2001TIP3   OH2 6008   4.844   0.385   4.466 -0.1983  0.7132  0.4578
 2001TIP3    H1 6009   4.915   0.324   4.484 -1.1539 -0.4974  0.2143
 2001TIP3    H2 6010   4.820   0.421   4.552  1.2749  1.8289  0.4470
 2002TIP3   OH2 6011   1.204   1.340   4.785  0.0896  0.6507 -0.2020
 2002TIP3    H1 6012   1.216   1.245   4.785 -0.1900  0.5795  1.4711
 2002TIP3    H2 6013   1.269   1.373   4.724  0.0247 -0.6311 -0.9968
 2003TIP3   OH2 6014   0.565   1.180   2.152 -0.1357 -0.8856  0.2351
 2003TIP3    H1 6015   0.613   1.260   2.173  0.5362 -0.8124 -1.3929
 2003TIP3    H2 6016   0.596   1.116   2.216 -0.5285  0.0849  1.4188
 2004TIP3   OH2 6017   4.350   5.995   2.922  0.6541 -0.1801  0.2595
 2004TIP3    H1 6018   4.436   5.995   2.964  0.5277 -0.6994  0.5291
 2004TIP3    H2 6019   4.366   5.960   2.834  0.8280  0.3664  0.0748
 2005TIP3   OH2 6020   5.685   5.648   2.518 -0.1453  0.5595  0.1909
 2005TIP3    H1 6021   5.595   5.666   2.491 -0.1431 -0.4878 -0.5395
 2005TIP3    H2 6022   5.676   5.601   2.601 -0.3005 -0.0223 -0.1489
 2006TIP3   OH2 6023   5.334   3.747   2.966 -0.4648 -0.6496  0.0955
 2006TIP3    H1 6024   5.284   3.775   2.890 -0.2801  0.5577  0.3805
 2006TIP3    H2 6025   5.370   3.662   2.942 -3.0151 -1.7912  0.0800
 2007TIP3   OH2 6026   1.457   2.953   0.552 -0.2954  0.0998 -0.0842
 2007TIP3    H1 6027   1.394   2.952   0.480 -0.1234 -1.1250 -0.2371
 2007TIP3    H2 6028   1.541   2.932   0.511 -0.0902 -0.0118  0.3847
 2008TIP3   OH2 6029   3.859   4.857   1.497 -0.3868 -0.1655 -0.0155
 2008TIP3    H1 6030   3.884   4.949   1.490 -0.7678  0.1124  1.7896
 2008TIP3    H2 6031   3.791   4.856   1.564 -0.6604 -1.7282 -0.2789
 2009TIP3   OH2 6032   2.036   2.658   4.267 -0.5082  0.2590  0.1781
 2009TIP3    H1 6033   2.007   2.582   4.216  0.8554 -1.0859  1.2960
 2009TIP3    H2 6034   2.081   2.713   4.203  0.3286 -0.9190 -0.3017
 2010TIP3   OH2 6035   5.799   5.467   3.699 -0.4487  0.0569 -0.1820
 2010TIP3    H1 6036   5.883   5.496   3.736  0.2544 -0.5657 -1.2272
 2010TIP3    H2 6037   5.771   5.397   3.758 -1.3738  1.7275  1.4455
 2011TIP3   OH2 6038   5.969   5.341   0.741 -0.2215  0.1190 -0.3314
 2011TIP3    H1 6039   5.960   5.418   0.685  1.9302  0.3805 -0.4004
 2011TIP3    H2 6040   5.947   5.373   0.829  0.1996  0.6992 -0.4299
 2012TIP3   OH2 6041   5.857   3.694   4.420  0.4358 -0.0807 -0.3598
 2012TIP3    H1 6042   5.800   3.673   4.494  0.8459 -0.0913 -0.0478
 2012TIP3    H2 6043   5.942   3.660   4.444  0.9255  1.1881 -0.2073
 2013TIP3   OH2 6044   5.584   3.662   3.224  0.3553 -0.0217  0.2692
 2013TIP3    H1 6045   5.509   3.607   3.247 -0.4547 -0.0113 -2.1262
 2013TIP3    H2 6046   5.550   3.751   3.224  0.7759  0.1484  0.6230
 2014TIP3   OH2 6047   1.268   2.101   4.222 -0.2678 -0.2730  0.3113
 2014TIP3    H1 6048   1.249   2.192   4.245  0.1648 -0.1256  0.0940
 2014TIP3    H2 6049   1.319   2.107   4.141  0.6206 -0.6701  0.8344
 2015TIP3   OH2 6050   5.914   0.705   2.674 -0.0513  0.2066  0.1041
 2015TIP3    H1 6051   5.947   0.649   2.744 -1.9730 -0.7751  0.2645
 2015TIP3    H2 6052   5.904   0.791   2.715 -1.0953 -0.3450  1.0439
 2016TIP3   OH2 6053   5.951   5.559   2.075 -0.2082  0.2577  0.4937
 2016TIP3    H1 6054   5.934   5.621   2.146  1.0826 -1.2793  2.2397
 2016TIP3    H2 6055   6.045   5.540   2.082  0.1602  0.7364 -2.2465
 2017TIP3   OH2 6056   3.499   2.636   0.662 -0.2336 -0.1579  0.1696
 2017TIP3    H1 6057   3.546   2.717   0.646 -2.5442  1.3400  0.5067
 2017TIP3    H2 6058   3.555   2.568   0.625  2.1627  1.4646  0.6428
 2018TIP3   OH2 6059   4.025   4.555   2.158 -0.6667 -0.2762 -0.1524
 2018TIP3    H1 6060   3.939   4.586   2.131 -0.4363  0.1405 -0.4034
 2018TIP3    H2 6061   4.086   4.624   2.132 -0.4433  0.2209  1.5489
 2019TIP3   OH2 6062   4.986   0.992   0.171 -0.0789 -0.5974 -0.6568
 2019TIP3    H1 6063   4.901   1.022   0.140  0.0135  0.1427 -0.2371
 2019TIP3    H2 6064   5.038   1.073   0.178  0.5577 -1.0034 -0.6157
 2020TIP3   OH2 6065   4.417   3.223   3.528  0.6858  0.0957  0.2658
 2020TIP3    H1 6066   4.358   3.215   3.602 -0.1573  0.1820 -0.3717
 2020TIP3    H2 6067   4.382   3.298   3.478  1.1833 -0.0068 -0.2497
 2021TIP3   OH2 6068   3.239   2.654   0.753 -0.8369  0.0727  0.2107
 2021TIP3    H1 6069   3.334   2.647   0.750 -0.8004 -0.3239  1.6874
 2021TIP3    H2 6070   3.215   2.690   0.668  0.5026 -1.2098 -0.7532
 2022TIP3   OH2 6071   0.119   3.365   2.017 -0.2129 -0.1472  0.1798
 2022TIP3    H1 6072   0.096   3.457   2.029  1.2710  0.5175 -1.5800
 2022TIP3    H2 6073   0.040   3.317   2.043 -2.0536  1.7797 -1.4811
 2023TIP3   OH2 6074   4.578   1.484   3.343  0.7552  0.7831 -0.0730
 2023TIP3    H1 6075   4.539   1.560   3.299 -2.1558 -0.3447  0.3255
 2023TIP3    H2 6076   4.560   1.498   3.436  1.6138  0.3449  0.1666
 2024TIP3   OH2 6077   1.267   3.865   4.384 -0.3300 -0.7710 -0.2791
 2024TIP3    H1 6078   1.206   3.798   4.354 -1.2222 -0.2123  0.2606
 2024TIP3    H2 6079   1.310   3.897   4.305 -0.9303 -0.9797 -0.6903
 2025TIP3   OH2 6080   5.197   5.561   2.013 -0.5555 -0.1385 -0.3050
 2025TIP3    H1 6081   5.226   5.571   2.103 -1.4566  1.5715 -0.1798
 2025TIP3    H2 6082   5.228   5.639   1.968 -3.3529  0.9475 -0.5498
 2026TIP3   OH2 6083   0.400   4.776   1.398  0.4674  0.0233  0.1386
 2026TIP3    H1 6084   0.448   4.780   1.481  0.7307  0.1761 -0.0183
 2026TIP3    H2 6085   0.449   4.714   1.344 -1.6732 -2.9391  1.3221
 2027TIP3   OH2 6086   5.640   3.559   1.792  0.4231  0.4783  0.8863
 2027TIP3    H1 6087   5.620   3.630   1.853  1.3109  0.6017  1.0411
 2027TIP3    H2 6088   5.692   3.601   1.723 -0.1245  0.2312  0.3072
 2028TIP3   OH2 6089   0.178   4.338   3.728 -0.3424  0.2467 -0.0228
 2028TIP3    H1 6090   0.184   4.336   3.632  1.1768  2.4830 -0.0438
 2028TIP3    H2 6091   0.113   4.407   3.746  0.9387  1.3507  0.5254
 2029TIP3   OH2 6092   4.739   2.276   3.872  0.4142 -0.1610  0.5206
 2029TIP3    H1 6093   4.647   2.303   3.872  0.5242  0.2868 -0.4976
 2029TIP3    H2 6094   4.766   2.279   3.963 -0.6507 -0.5258  0.8573
 2030TIP3   OH2 6095   2.253   4.672   2.436 -0.1446  0.2010 -0.3913
 2030TIP3    H1 6096   2.349   4.675   2.435 -0.1498  0.3082 -0.5145
 2030TIP3    H2 6097   2.232   4.622   2.515 -0.0511  2.1245  0.9237
 2031TIP3   OH2 6098   2.117   2.175   4.206  0.0123  0.3367  0.9135
 2031TIP3    H1 6099   2.174   2.210   4.274  0.4187 -0.4695  1.0074
 2031TIP3    H2 6100   2.176   2.127   4.148 -0.4132  0.5011  0.3310
 2032TIP3   OH2 6101   1.553   3.511   4.103 -0.1581 -0.3856  0.1799
 2032TIP3    H1 6102   1.510   3.567   4.167  0.4706  0.7906 -0.3927
 2032TIP3    H2 6103   1.535   3.422   4.133  2.5191  0.0635  3.6803
 2033TIP3   OH2 6104   5.209   0.860   0.916  0.2417  0.6972  0.2285
 2033TIP3    H1 6105   5.231   0.785   0.860 -0.9876  0.3582  0.1678
 2033TIP3    H2 6106   5.261   0.846   0.995  0.0276 -0.2370  0.2213
 2034TIP3   OH2 6107   6.179   0.421   1.279 -0.2716  0.1582 -0.0051
 2034TIP3    H1 6108   6.186   0.428   1.184 -2.5524  0.2066 -0.2135
 2034TIP3    H2 6109   6.270   0.424   1.310  0.6694 -1.7461 -2.2891
 2035TIP3   OH2 6110   3.701   2.216   3.085  0.0818 -0.2102 -0.0801
 2035TIP3    H1 6111   3.627   2.163   3.053  0.6044 -1.3731  0.5536
 2035TIP3    H2 6112   3.748   2.157   3.145  0.2685  1.2359  1.2527
 2036TIP3   OH2 6113   0.499   3.511   2.133 -0.5112 -0.1566  0.3275
 2036TIP3    H1 6114   0.470   3.458   2.059 -2.3305  0.2852  0.6727
 2036TIP3    H2 6115   0.512   3.448   2.204  1.1359 -0.5677 -0.3044
 2037TIP3   OH2 6116   6.285   0.096   1.525  0.2310 -0.2677  0.6940
 2037TIP3    H1 6117   6.218   0.093   1.457  0.5493 -0.5479  0.3878
 2037TIP3    H2 6118   6.239   0.078   1.606  0.3607 -3.2600  0.1919
 2038TIP3   OH2 6119   1.912   4.700   3.353  0.3972 -0.3661  0.2194
 2038TIP3    H1 6120   1.981   4.765   3.369  1.1391 -1.1926  0.5016
 2038TIP3    H2 6121   1.863   4.697   3.435 -0.3348  0.6226 -0.1675
 2039TIP3   OH2 6122   1.727   0.605   3.139  0.3200  0.3802 -0.2802
 2039TIP3    H1 6123   1.735   0.527   3.194 -0.1120  0.7614  0.3406
 2039TIP3    H2 6124   1.633   0.611   3.119  0.3218  0.8302 -0.1768
 2040TIP3   OH2 6125   6.071   5.251   3.790 -0.3672  0.0815  0.3400
 2040TIP3    H1 6126   6.062   5.217   3.702 -2.3097  2.0838 -0.3385
 2040TIP3    H2 6127   6.136   5.321   3.782  1.6678 -1.6119  1.1808
 2041TIP3   OH2 6128   5.496   4.433   1.259  0.1522  0.0691 -0.5547
 2041TIP3    H1 6129   5.482   4.339   1.252  1.4493 -0.0971 -1.0295
 2041TIP3    H2 6130   5.442   4.459   1.334  1.6618 -1.4690  1.1611
 2042TIP3   OH2 6131   0.369   4.633   4.833 -0.3802 -0.1289 -0.0326
 2042TIP3    H1 6132   0.282   4.622   4.793  0.2933 -0.1850 -1.5764
 2042TIP3    H2 6133   0.422   4.564   4.792  0.7767  0.9189 -0.3369
 2043TIP3   OH2 6134   0.812   2.701   3.567  0.3396  0.6640 -0.0051
 2043TIP3    H1 6135   0.857   2.702   3.651  0.4843  1.3745 -0.0811
 2043TIP3    H2 6136   0.851   2.773   3.518 -0.3444  0.8052 -0.3568
 2044TIP3   OH2 6137   2.984   3.107   2.966 -0.2487 -0.0210 -0.0569
 2044TIP3    H1 6138   3.032   3.110   3.049  0.0400  0.5623 -0.2376
 2044TIP3    H2 6139   2.930   3.186   2.967 -0.0312  0.1364 -0.5470
 2045TIP3   OH2 6140   2.111   4.219   0.469 -0.4127 -0.5546  0.5983
 2045TIP3    H1 6141   2.182   4.208   0.406 -0.3901 -1.0728  0.7155
 2045TIP3    H2 6142   2.140   4.291   0.525 -0.5984  0.1736 -0.2102
 2046TIP3   OH2 6143   2.456   5.028   1.721  0.1292 -0.1839 -0.1555
 2046TIP3    H1 6144   2.529   5.014   1.781  0.4644 -2.5227 -1.0121
 2046TIP3    H2 6145   2.486   5.096   1.661  1.3038 -0.5575 -0.0106
 2047TIP3   OH2 6146   1.300   4.640   4.885  0.8799  0.4169  0.5779
 2047TIP3    H1 6147   1.366   4.573   4.867 -0.2236 -0.3825 -0.6120
 2047TIP3    H2 6148   1.222   4.612   4.837 -0.1054  1.7461  1.3110
 2048TIP3   OH2 6149   1.008   5.167   5.042  0.0263 -0.2574  0.1316
 2048TIP3    H1 6150   1.072   5.222   4.996  0.8375 -1.5043 -0.3017
 2048TIP3    H2 6151   1.040   5.078   5.028 -1.3765 -0.8563  0.6098
 2049TIP3   OH2 6152   0.405   1.794   3.141  0.0852 -0.1322  0.0670
 2049TIP3    H1 6153   0.443   1.866   3.091  2.1826 -0.3544  1.2343
 2049TIP3    H2 6154   0.461   1.719   3.122 -0.7419 -0.9087  0.5854
 2050TIP3   OH2 6155   2.684   0.003   3.755 -0.1809 -0.4539 -0.3272
 2050TIP3    H1 6156   2.764  -0.009   3.703  0.2398  0.1174  0.1722
 2050TIP3    H2 6157   2.712   0.057   3.829 -0.8209 -1.0764  0.3798
 2051TIP3   OH2 6158   5.420   2.965   4.054  0.4133 -0.1813 -0.0391
 2051TIP3    H1 6159   5.358   2.986   3.984 -1.0002 -0.1616  1.1612
 2051TIP3    H2 6160   5.429   2.869   4.050 -0.2984 -0.2670  0.2448
 2052TIP3   OH2 6161   4.546   4.273   4.809 -0.4252  0.0089 -0.3512
 2052TIP3    H1 6162   4.467   4.303   4.765 -0.8837 -0.3249  0.2424
 2052TIP3    H2 6163   4.589   4.354   4.838 -0.2975  0.2145 -1.0736
 2053TIP3   OH2 6164   5.235   5.785   4.452 -0.1201 -0.2209  0.2585
 2053TIP3    H1 6165   5.255   5.874   4.482  0.5739  0.0329 -0.9172
 2053TIP3    H2 6166   5.145   5.790   4.420  0.4462  0.4781 -1.3011
 2054TIP3   OH2 6167   0.445   2.712   2.848  0.1000  0.1353  0.3856
 2054TIP3    H1 6168   0.496   2.691   2.926 -0.6901 -0.1951  0.8172
 2054TIP3    H2 6169   0.488   2.663   2.778  0.8450  0.4781  0.5968
 2055TIP3   OH2 6170   2.758   5.184   4.924 -0.5105 -0.1547 -0.1673
 2055TIP3    H1 6171   2.846   5.187   4.886 -0.2680 -0.2832  0.3753
 2055TIP3    H2 6172   2.708   5.129   4.864  0.2217 -1.5026  0.4211
 2056TIP3   OH2 6173   1.239   5.400   3.063  0.2792 -0.5352  0.0218
 2056TIP3    H1 6174   1.319   5.368   3.021 -0.5104 -1.8634 -0.5454
 2056TIP3    H2 6175   1.216   5.332   3.126 -0.6227 -0.3906 -0.1301
 2057TIP3   OH2 6176   3.811   1.774   4.459 -0.4534 -0.4219 -0.4284
 2057TIP3    H1 6177   3.794   1.843   4.394 -0.3641  0.7173  0.7170
 2057TIP3    H2 6178   3.898   1.793   4.492 -1.0336 -0.1297  1.0100
 2058TIP3   OH2 6179   1.691   2.493   2.712 -0.0163 -0.3110 -1.0605
 2058TIP3    H1 6180   1.767   2.450   2.672  0.4438 -0.3948 -0.1391
 2058TIP3    H2 6181   1.619   2.431   2.700  0.9634 -2.1771  1.6144
 2059TIP3   OH2 6182   2.101   1.564   4.035 -0.5307  0.1421 -0.0806
 2059TIP3    H1 6183   2.014   1.572   3.997  0.1661  0.6955 -1.6279
 2059TIP3    H2 6184   2.143   1.494   3.986 -0.0745 -0.0908  0.6216
 2060TIP3   OH2 6185   3.321   0.508   4.336 -0.5848  0.3558  0.1011
 2060TIP3    H1 6186   3.405   0.480   4.373 -0.2098 -0.3032 -1.1895
 2060TIP3    H2 6187   3.282   0.562   4.405  1.1695  1.1833  0.5124
 2061TIP3   OH2 6188   4.705   4.649   2.275 -0.1532  0.0329  0.0517
 2061TIP3    H1 6189   4.749   4.734   2.266 -1.0769  0.8359  2.3017
 2061TIP3    H2 6190   4.734   4.616   2.360 -0.0397 -1.8029 -0.6630
 2062TIP3   OH2 6191   1.588   5.938   4.154  0.0223 -0.1669  0.0689
 2062TIP3    H1 6192   1.589   6.025   4.113 -1.2379  0.3440  1.0552
 2062TIP3    H2 6193   1.579   5.956   4.248 -1.5361 -1.3806  0.1778
 2063TIP3   OH2 6194   2.471   3.690   3.283  0.0736  0.1550  0.6273
 2063TIP3    H1 6195   2.462   3.779   3.249 -0.1449  0.2416  0.9038
 2063TIP3    H2 6196   2.535   3.697   3.353  2.0067 -0.3694 -0.9844
 2064TIP3   OH2 6197   2.452   4.281   3.365  0.0833  0.1947  0.5292
 2064TIP3    H1 6198   2.508   4.216   3.324  0.1455  0.1397  0.6987
 2064TIP3    H2 6199   2.511   4.330   3.423 -0.3394 -0.8949  1.9356
 2065TIP3   OH2 6200   0.985   0.603   1.886 -0.4088 -0.3974 -0.0016
 2065TIP3    H1 6201   1.013   0.629   1.974 -0.7753  4.2884 -1.0431
 2065TIP3    H2 6202   1.066   0.580   1.840  0.1521  0.1645  0.6926
 2066TIP3   OH2 6203   3.300   4.951   1.389 -0.0604 -0.0618  0.1062
 2066TIP3    H1 6204   3.337   4.889   1.327 -2.6601  0.0126 -1.6619
 2066TIP3    H2 6205   3.335   5.036   1.362  0.7068 -0.2932  0.3226
 2067TIP3   OH2 6206   0.991   4.230   2.444  0.2966  0.4373  0.4924
 2067TIP3    H1 6207   0.898   4.222   2.427  0.4992  0.1593 -0.5879
 2067TIP3    H2 6208   1.001   4.208   2.537 -0.6647  0.1507  0.5369
 2068TIP3   OH2 6209   1.494   0.881   2.582  0.5640 -0.0551  0.1228
 2068TIP3    H1 6210   1.426   0.814   2.573 -0.6435  1.2270 -0.8424
 2068TIP3    H2 6211   1.561   0.841   2.637  0.1579 -2.2520 -0.8920
 2069TIP3   OH2 6212   4.411   2.384   0.732  0.7580 -0.0933  0.2728
 2069TIP3    H1 6213   4.336   2.380   0.792  0.2441  2.2344 -0.1139
 2069TIP3    H2 6214   4.375   2.421   0.651  2.0364 -0.3065 -0.4163
 2070TIP3   OH2 6215   2.277   2.463   2.961 -0.1952 -0.6030 -0.8144
 2070TIP3    H1 6216   2.289   2.412   3.041 -0.2344 -1.1418 -1.1444
 2070TIP3    H2 6217   2.185   2.448   2.937  0.0869 -1.2688 -1.5083
 2071TIP3   OH2 6218   1.374   1.149   0.276 -0.2622  0.0545  0.4363
 2071TIP3    H1 6219   1.352   1.241   0.285  0.4679  0.2290  0.5022
 2071TIP3    H2 6220   1.352   1.128   0.185 -1.3743  0.0241  0.7073
 2072TIP3   OH2 6221   1.164   0.164   2.883  0.0266  0.8201 -0.1577
 2072TIP3    H1 6222   1.098   0.118   2.831 -0.1889  1.0452 -0.0838
 2072TIP3    H2 6223   1.227   0.096   2.905  0.4465  0.8425 -1.2224
 2073TIP3   OH2 6224   1.839   4.749   3.919  0.2262  0.4227  0.6373
 2073TIP3    H1 6225   1.895   4.787   3.987 -0.8596  0.9513  1.2641
 2073TIP3    H2 6226   1.843   4.654   3.935  1.5683  0.3842  0.1599
 2074TIP3   OH2 6227   5.055   3.456   1.871 -0.2876 -0.2355  0.3937
 2074TIP3    H1 6228   5.130   3.514   1.867 -0.3643  0.0337  2.0518
 2074TIP3    H2 6229   5.089   3.369   1.849  0.5407 -0.1296  1.2193
 2075TIP3   OH2 6230   0.079   2.890   0.148 -0.1841 -0.3940 -0.3084
 2075TIP3    H1 6231   0.133   2.910   0.072 -1.0156  0.0010 -0.8053
 2075TIP3    H2 6232   0.131   2.922   0.223  0.2612 -0.0120 -0.7690
 2076TIP3   OH2 6233   0.371   1.167   0.546  0.1963  0.3422  0.1765
 2076TIP3    H1 6234   0.348   1.091   0.493  0.3138  0.2717  0.2263
 2076TIP3    H2 6235   0.383   1.238   0.484  1.1969  0.0547  0.0361
 2077TIP3   OH2 6236   0.526   3.762   4.447 -0.1350  0.3153 -0.6641
 2077TIP3    H1 6237   0.460   3.773   4.379 -0.9011  1.6808  0.2554
 2077TIP3    H2 6238   0.492   3.809   4.522  0.4413 -1.6051  0.8826
 2078TIP3   OH2 6239   6.314   3.849   0.717  0.1372 -0.0716  0.3471
 2078TIP3    H1 6240   6.364   3.778   0.677 -0.9677 -0.2879 -0.7049
 2078TIP3    H2 6241   6.274   3.895   0.643  0.5919  1.4948  1.0185
 2079TIP3   OH2 6242   3.192   3.514   3.694  0.2116 -0.0724 -0.7089
 2079TIP3    H1 6243   3.132   3.465   3.638  1.5312 -1.4626 -0.9754
 2079TIP3    H2 6244   3.250   3.560   3.633  0.1034  0.3822 -0.4711
 2080TIP3   OH2 6245   2.195   0.187   4.326 -0.0601 -0.4114 -0.0298
 2080TIP3    H1 6246   2.110   0.196   4.370 -0.5325  0.2694 -1.0252
 2080TIP3    H2 6247   2.239   0.116   4.372 -1.3934 -1.1380  0.1823
 2081TIP3   OH2 6248   5.589   5.372   3.192  0.1555 -0.3237  0.0575
 2081TIP3    H1 6249   5.505   5.364   3.237 -0.1186 -1.4403 -0.6191
 2081TIP3    H2 6250   5.623   5.283   3.188 -0.6026 -0.6208 -3.3149
 2082TIP3   OH2 6251   6.128   2.579   0.094 -0.2085  0.2895  0.4793
 2082TIP3    H1 6252   6.045   2.540   0.122 -0.4411 -0.2880 -0.9294
 2082TIP3    H2 6253   6.167   2.513   0.037  0.4764  1.2037 -0.1351
 2083TIP3   OH2 6254   4.601   5.255   0.880 -0.2579  0.0501  0.1139
 2083TIP3    H1 6255   4.579   5.339   0.839 -1.3753  0.0741  0.7155
 2083TIP3    H2 6256   4.696   5.247   0.868 -0.2987  0.8645 -0.9263
 2084TIP3   OH2 6257   4.525   2.959   2.551  0.1167  0.2697 -0.5840
 2084TIP3    H1 6258   4.538   2.865   2.558 -0.3228  0.3233  1.5879
 2084TIP3    H2 6259   4.613   2.996   2.558  0.0428  0.1341  2.8789
 2085TIP3   OH2 6260   1.985   0.812   2.889  0.2254 -0.4319 -0.4285
 2085TIP3    H1 6261   2.044   0.792   2.962  1.0140  0.5946 -0.7491
 2085TIP3    H2 6262   2.031   0.880   2.840 -1.3661  0.5867 -0.5566
 2086TIP3   OH2 6263   3.113   2.925   2.800  0.3553  0.1840  0.0876
 2086TIP3    H1 6264   3.204   2.944   2.824  0.1876  1.8422 -0.4577
 2086TIP3    H2 6265   3.061   2.979   2.861 -0.2307  0.0030 -0.2462
 2087TIP3   OH2 6266   3.737   5.526   2.958  0.3763 -0.1056  0.3386
 2087TIP3    H1 6267   3.677   5.495   3.025 -0.6624  0.3682 -0.3424
 2087TIP3    H2 6268   3.821   5.535   3.002  0.0667 -1.2763  1.1859
 2088TIP3   OH2 6269   3.583   5.837   5.068  0.1497 -0.2991 -0.8859
 2088TIP3    H1 6270   3.537   5.789   5.137 -0.6722  0.6614 -0.7321
 2088TIP3    H2 6271   3.554   5.794   4.987 -1.6416  0.7117 -0.8467
 2089TIP3   OH2 6272   6.035   4.259   2.133 -0.1681  0.3056 -0.0573
 2089TIP3    H1 6273   5.986   4.198   2.078  0.7901 -0.8712  0.3712
 2089TIP3    H2 6274   6.007   4.238   2.222  0.1591  0.5065  0.0922
 2090TIP3   OH2 6275   3.125   2.984   4.298 -0.2613 -0.3269  0.3077
 2090TIP3    H1 6276   3.076   2.993   4.216 -1.1620 -2.4672  0.5244
 2090TIP3    H2 6277   3.208   3.029   4.282 -1.4362  1.5319 -0.8398
 2091TIP3   OH2 6278   2.137   5.206   0.495  0.1716  0.0063 -0.4478
 2091TIP3    H1 6279   2.091   5.152   0.559 -0.3827 -0.0209 -0.8621
 2091TIP3    H2 6280   2.216   5.155   0.473 -1.2547 -1.5798 -2.2291
 2092TIP3   OH2 6281   0.567   2.249   3.834 -0.2296 -0.2666  0.2434
 2092TIP3    H1 6282   0.581   2.159   3.805 -2.3209 -0.7513  0.5441
 2092TIP3    H2 6283   0.585   2.302   3.756  0.1028 -1.0234 -0.2103
 2093TIP3   OH2 6284   4.843   0.433   5.134  0.1141  0.4214 -0.0596
 2093TIP3    H1 6285   4.795   0.424   5.217 -0.1669  1.4930 -0.0967
 2093TIP3    H2 6286   4.782   0.399   5.068  0.7281 -1.4153  0.2570
 2094TIP3   OH2 6287   3.073   4.697   1.241 -0.5449 -0.5498  0.3543
 2094TIP3    H1 6288   3.059   4.607   1.214  0.2490 -0.1976 -1.3818
 2094TIP3    H2 6289   3.022   4.749   1.179  1.4682  0.3054 -0.6688
 2095TIP3   OH2 6290   4.259   3.454   4.065 -0.2631 -0.2718 -0.1915
 2095TIP3    H1 6291   4.290   3.364   4.078 -1.9024 -1.1855 -2.0915
 2095TIP3    H2 6292   4.164   3.445   4.060 -0.5341  1.7550  0.6769
 2096TIP3   OH2 6293   5.510   2.010   4.802  0.8950 -0.6436  0.2441
 2096TIP3    H1 6294   5.515   2.011   4.706  0.8682  0.0109  0.2430
 2096TIP3    H2 6295   5.594   1.974   4.830  1.0462 -0.4988 -0.0195
 2097TIP3   OH2 6296   4.482   2.794   4.569 -0.0201  0.3680  0.2533
 2097TIP3    H1 6297   4.479   2.823   4.478 -0.6182  0.9890  0.4610
 2097TIP3    H2 6298   4.441   2.707   4.567 -0.0669  0.3952 -0.0598
 2098TIP3   OH2 6299   2.189   1.804   5.015 -0.2573 -0.2625 -0.0798
 2098TIP3    H1 6300   2.246   1.728   5.026 -1.4600 -0.9836  1.3680
 2098TIP3    H2 6301   2.106   1.767   4.985  0.0684  0.8150 -2.5977
 2099TIP3   OH2 6302   5.089   2.166   3.411  0.0332 -0.2780  0.6960
 2099TIP3    H1 6303   5.100   2.094   3.473  0.7579  1.3631  2.5978
 2099TIP3    H2 6304   4.994   2.179   3.405 -0.0500 -0.4804  1.4678
 2100TIP3   OH2 6305   2.008   5.662   3.907 -0.5418 -0.4633  0.1942
 2100TIP3    H1 6306   1.932   5.694   3.955 -1.2742 -0.8274 -0.6824
 2100TIP3    H2 6307   2.031   5.580   3.950 -0.9364 -0.5855  0.1753
 2101TIP3   OH2 6308   4.672   1.008   0.645  0.0581  0.2873 -0.0287
 2101TIP3    H1 6309   4.700   0.974   0.730 -0.0878  0.7617  0.2114
 2101TIP3    H2 6310   4.716   1.093   0.638 -0.7429  0.7090  0.0242
 2102TIP3   OH2 6311   1.774   0.929   3.697  0.6878  0.3657 -0.2906
 2102TIP3    H1 6312   1.696   0.900   3.745  1.0874  2.4440  1.7970
 2102TIP3    H2 6313   1.847   0.899   3.750  1.1702  1.8970 -0.0285
 2103TIP3   OH2 6314   5.298   4.253   1.975 -0.0644  0.7807  0.5139
 2103TIP3    H1 6315   5.283   4.325   1.914  0.6668  0.0526 -0.5600
 2103TIP3    H2 6316   5.210   4.226   2.002 -0.3594  1.7282  0.5348
 2104TIP3   OH2 6317   0.643   2.234   4.449  0.0147 -0.1432  0.0553
 2104TIP3    H1 6318   0.577   2.233   4.380  0.8735  1.1488 -0.8318
 2104TIP3    H2 6319   0.604   2.183   4.520 -1.5066 -0.2685 -0.8232
 2105TIP3   OH2 6320   3.483   5.709   1.019  0.0308 -0.2972  0.0182
 2105TIP3    H1 6321   3.573   5.735   1.040  0.4631  0.1659 -2.1704
 2105TIP3    H2 6322   3.452   5.664   1.098  2.0730 -0.2327  0.9208
 2106TIP3   OH2 6323   2.036   5.431   2.098 -0.0831 -0.1401 -0.1395
 2106TIP3    H1 6324   2.011   5.370   2.167  1.5411 -1.9231 -1.0215
 2106TIP3    H2 6325   2.115   5.474   2.131  0.6409 -0.9265 -0.7997
 2107TIP3   OH2 6326   5.942   3.928   5.156 -0.1029  0.7539 -0.0951
 2107TIP3    H1 6327   5.887   4.006   5.166 -0.6311  0.3383  0.2738
 2107TIP3    H2 6328   6.005   3.952   5.088 -1.6573  0.7170 -1.6034
 2108TIP3   OH2 6329   5.200   4.791   4.203  0.2582 -0.0141 -0.7103
 2108TIP3    H1 6330   5.148   4.777   4.282  2.1522 -0.5388  0.5110
 2108TIP3    H2 6331   5.236   4.705   4.183 -1.1524 -0.1650 -2.9156
 2109TIP3   OH2 6332   5.256   2.124   2.302  0.2739  0.0295 -0.0402
 2109TIP3    H1 6333   5.316   2.117   2.227  2.4275 -0.5224  1.6253
 2109TIP3    H2 6334   5.312   2.108   2.378 -1.1724  3.5336  1.9603
 2110TIP3   OH2 6335   5.001   4.245   1.824  0.7506 -0.1016  0.3384
 2110TIP3    H1 6336   4.987   4.298   1.745  1.1773 -1.8512 -0.9751
 2110TIP3    H2 6337   4.920   4.196   1.835  1.4299 -1.4341 -0.3065
 2111TIP3   OH2 6338   4.733   2.483   0.794  0.2773  0.3193 -0.7652
 2111TIP3    H1 6339   4.787   2.425   0.740 -0.3733 -0.0273 -1.0527
 2111TIP3    H2 6340   4.684   2.424   0.851  2.8881  0.7167  2.1821
 2112TIP3   OH2 6341   3.674   1.022   4.793  0.1480 -0.0809  0.3183
 2112TIP3    H1 6342   3.766   1.043   4.778 -0.0980  0.8968  0.1521
 2112TIP3    H2 6343   3.675   0.931   4.824  1.0824 -0.3953 -0.6003
 2113TIP3   OH2 6344   1.811   0.490   1.787  0.5976  0.2951  0.6179
 2113TIP3    H1 6345   1.790   0.409   1.834  0.3766  0.0665  0.1293
 2113TIP3    H2 6346   1.727   0.528   1.765  0.6919  0.1570 -0.0052
 2114TIP3   OH2 6347   1.798   4.243   4.308 -0.6284 -0.2007 -0.2232
 2114TIP3    H1 6348   1.778   4.306   4.239 -0.9325 -0.6959 -0.5863
 2114TIP3    H2 6349   1.877   4.278   4.350  1.4562 -1.4429 -2.7990
 2115TIP3   OH2 6350   3.317   5.803   3.623 -0.1353  0.3133  0.6950
 2115TIP3    H1 6351   3.376   5.841   3.687  2.4285 -2.2689  0.1070
 2115TIP3    H2 6352   3.360   5.818   3.539 -0.8566 -0.6638  0.1211
 2116TIP3   OH2 6353   4.525   3.356   0.077 -0.2887 -0.9858 -0.3458
 2116TIP3    H1 6354   4.524   3.448   0.106  0.6026 -0.9897 -0.2728
 2116TIP3    H2 6355   4.451   3.350   0.016  0.8757  0.3669 -2.0349
 2117TIP3   OH2 6356   0.103   5.823   3.675  0.7445  0.2735 -0.1504
 2117TIP3    H1 6357   0.099   5.904   3.622 -1.8134  1.4320  1.6275
 2117TIP3    H2 6358   0.172   5.841   3.739  0.8882  0.6095 -0.3880
 2118TIP3   OH2 6359   0.537   4.195   2.018  0.1080  0.5226  0.2554
 2118TIP3    H1 6360   0.453   4.213   2.060  0.0097  0.4006  0.1134
 2118TIP3    H2 6361   0.591   4.157   2.087 -0.9841 -2.4233 -0.3621
 2119TIP3   OH2 6362   0.519   3.029   0.413  0.7256 -0.0675 -0.4261
 2119TIP3    H1 6363   0.573   3.090   0.464 -0.3239  0.9200 -0.4387
 2119TIP3    H2 6364   0.448   3.005   0.473  0.3668 -0.1679 -0.8890
 2120TIP3   OH2 6365   5.115   0.329   1.101  0.3874 -0.4352 -0.1340
 2120TIP3    H1 6366   5.083   0.379   1.176  0.9836 -0.8967  0.4515
 2120TIP3    H2 6367   5.194   0.285   1.134  0.5195 -0.8458 -0.9633
 2121TIP3   OH2 6368   3.718   5.455   1.926  0.0766  0.0424 -0.3789
 2121TIP3    H1 6369   3.813   5.472   1.928  0.0756  0.0779  1.0311
 2121TIP3    H2 6370   3.711   5.360   1.921  0.1764  0.0563 -0.8422
 2122TIP3   OH2 6371   5.328   2.895   1.643 -0.2344 -0.6797 -0.4721
 2122TIP3    H1 6372   5.234   2.892   1.625 -1.3807  2.4452  3.4001
 2122TIP3    H2 6373   5.360   2.966   1.588 -0.7300 -0.1655 -0.1204
 2123TIP3   OH2 6374   1.993   3.819   4.064 -0.7368  0.4094 -0.2488
 2123TIP3    H1 6375   1.944   3.898   4.090 -0.0779  0.4840  0.8428
 2123TIP3    H2 6376   1.927   3.750   4.060 -0.9838  0.5264  1.1229
 2124TIP3   OH2 6377   0.962   2.337   0.789 -0.2533  0.0138  0.3247
 2124TIP3    H1 6378   0.992   2.416   0.743  0.0625  0.0418  0.5711
 2124TIP3    H2 6379   0.886   2.308   0.739  0.8585 -0.7062 -1.0137
 2125TIP3   OH2 6380   1.920   4.993   4.882 -0.6213 -0.7335 -0.1251
 2125TIP3    H1 6381   1.843   5.050   4.872  0.5947  0.7610 -1.6517
 2125TIP3    H2 6382   1.968   5.004   4.800  1.7947 -0.7283  1.2019
 2126TIP3   OH2 6383   6.334   2.682   2.533 -0.5991  0.0814 -0.0836
 2126TIP3    H1 6384   6.390   2.678   2.610  0.7082 -0.0060 -0.9984
 2126TIP3    H2 6385   6.276   2.757   2.549  0.3999  0.7594  0.4985
 2127TIP3   OH2 6386   2.789   0.412   5.203  0.4211 -0.0192 -0.2777
 2127TIP3    H1 6387   2.856   0.477   5.182  1.1241 -1.1524 -1.7592
 2127TIP3    H2 6388   2.722   0.423   5.136  0.1114 -0.2305 -0.0047
 2128TIP3   OH2 6389   5.667   3.334   3.629  0.2630  0.0171  0.0845
 2128TIP3    H1 6390   5.619   3.256   3.656 -0.3436  0.4390  0.2424
 2128TIP3    H2 6391   5.610   3.377   3.566  0.9907 -0.1348 -0.7019
 2129TIP3   OH2 6392   3.538   4.567   5.020  0.2721  0.5161  0.0322
 2129TIP3    H1 6393   3.568   4.619   4.946  1.6038 -0.0922  0.1346
 2129TIP3    H2 6394   3.463   4.518   4.986  1.7185 -0.8304 -1.3318
 2130TIP3   OH2 6395   2.325   5.728   0.798 -1.0745 -0.1104  0.0504
 2130TIP3    H1 6396   2.343   5.821   0.815 -0.8252  0.0840 -1.1672
 2130TIP3    H2 6397   2.410   5.693   0.770 -1.4441 -0.4125 -0.7009
 2131TIP3   OH2 6398   2.998   3.037   1.788 -0.2027 -0.2032  0.5219
 2131TIP3    H1 6399   3.037   2.973   1.728  1.1605  1.1556 -0.1339
 2131TIP3    H2 6400   2.912   3.002   1.809 -0.4000 -1.1474 -1.6041
 2132TIP3   OH2 6401   5.484   3.146   2.774  0.3324  0.2135  0.1296
 2132TIP3    H1 6402   5.411   3.090   2.800 -1.2454  1.6477 -0.9633
 2132TIP3    H2 6403   5.479   3.149   2.678 -0.8542  3.6032  0.1754
 2133TIP3   OH2 6404   5.761   0.700   0.609  0.0569 -0.2838 -0.2588
 2133TIP3    H1 6405   5.739   0.622   0.659  0.4568 -1.3428 -1.6507
 2133TIP3    H2 6406   5.775   0.668   0.520 -0.6613  1.5223 -1.0733
 2134TIP3   OH2 6407   5.523   5.486   3.570  0.3354  0.3454  0.4642
 2134TIP3    H1 6408   5.456   5.452   3.631 -2.4889  3.0936 -0.8114
 2134TIP3    H2 6409   5.547   5.570   3.607 -0.0749  1.2424 -1.2396
 2135TIP3   OH2 6410   1.274   3.980   0.282 -0.6807  0.5957 -0.4880
 2135TIP3    H1 6411   1.264   4.065   0.241  1.9230  0.9597 -0.5704
 2135TIP3    H2 6412   1.304   3.999   0.371 -0.2462 -0.1980 -0.4471
 2136TIP3   OH2 6413   4.022   1.683   1.817  0.0537 -0.6578 -0.4195
 2136TIP3    H1 6414   3.978   1.739   1.752 -0.2211 -0.5805 -0.1689
 2136TIP3    H2 6415   4.094   1.643   1.768  0.4898  0.2041 -0.5158
 2137TIP3   OH2 6416   4.213   0.188   3.682 -0.2345 -0.6205  0.3215
 2137TIP3    H1 6417   4.278   0.143   3.737  1.1427  1.0741  0.1439
 2137TIP3    H2 6418   4.265   0.234   3.616 -1.5702  1.1994  0.4811
 2138TIP3   OH2 6419   5.911   1.024   2.352 -0.2758 -0.1303  0.4349
 2138TIP3    H1 6420   5.835   1.036   2.410  0.6635  0.2629  1.6398
 2138TIP3    H2 6421   5.957   0.949   2.389 -1.6283 -2.3848 -2.0957
 2139TIP3   OH2 6422   3.110   4.353   0.682  0.5877  0.6663 -0.3808
 2139TIP3    H1 6423   3.066   4.300   0.616 -2.4434  1.5042  0.7989
 2139TIP3    H2 6424   3.117   4.440   0.642 -0.1556  0.8791 -0.0601
 2140TIP3   OH2 6425   2.666   0.578   0.639  0.1921 -1.0261 -0.4646
 2140TIP3    H1 6426   2.628   0.559   0.725 -0.5964  0.5815 -0.4132
 2140TIP3    H2 6427   2.759   0.559   0.649  0.0035 -1.4939  0.5391
 2141TIP3   OH2 6428   0.161   4.917   1.323  0.5322 -0.0622  0.8723
 2141TIP3    H1 6429   0.112   4.961   1.392  1.0931  1.0088  0.6223
 2141TIP3    H2 6430   0.238   4.880   1.366  0.0433 -0.8380  1.0894
 2142TIP3   OH2 6431   1.511   1.331   0.015 -0.4260  0.4770  0.0728
 2142TIP3    H1 6432   1.428   1.285   0.006 -0.7219  1.0433 -0.1942
 2142TIP3    H2 6433   1.488   1.424   0.006  0.3384  0.6044 -0.8183
 2143TIP3   OH2 6434   5.994   2.885   0.035 -0.1840 -0.0225 -0.4291
 2143TIP3    H1 6435   6.015   2.797   0.066 -3.2275 -0.5239  0.5265
 2143TIP3    H2 6436   6.017   2.884  -0.058  3.3515 -0.5000  0.3266
 2144TIP3   OH2 6437   1.032   2.993   1.091 -0.0560  0.4502 -0.4132
 2144TIP3    H1 6438   0.995   3.080   1.072 -0.2253  0.4866  0.0767
 2144TIP3    H2 6439   0.956   2.938   1.110 -0.0562 -0.1444 -2.0174
 2145TIP3   OH2 6440   0.353   1.377   0.069  0.4378 -0.1008  0.2193
 2145TIP3    H1 6441   0.378   1.289   0.040  0.8849 -0.5006  1.7241
 2145TIP3    H2 6442   0.378   1.434  -0.004  1.2902 -1.0674 -0.2748
 2146TIP3   OH2 6443   3.772   4.547   3.683 -0.0347  0.1884 -0.0125
 2146TIP3    H1 6444   3.761   4.479   3.617  1.3671 -1.2182  1.1277
 2146TIP3    H2 6445   3.861   4.581   3.668  1.8101 -2.6158  3.1717
 2147TIP3   OH2 6446   6.069   1.874   2.707 -0.6006  0.3140  0.7004
 2147TIP3    H1 6447   5.993   1.868   2.765 -0.3447 -1.1936  0.9076
 2147TIP3    H2 6448   6.125   1.939   2.749 -1.9918  1.8994  0.2442
 2148TIP3   OH2 6449   2.976   5.649   4.941 -0.4192 -0.1225 -0.5061
 2148TIP3    H1 6450   2.993   5.736   4.906  1.4485 -0.8359 -1.5333
 2148TIP3    H2 6451   3.010   5.652   5.031 -1.4777  0.5476 -0.1250
 2149TIP3   OH2 6452   3.571   3.164   4.958  0.8694 -0.1536 -0.0184
 2149TIP3    H1 6453   3.609   3.175   5.045  0.0195  1.4497  0.1911
 2149TIP3    H2 6454   3.611   3.233   4.905  2.2876 -1.8613 -1.2756
 2150TIP3   OH2 6455   4.350   4.933   1.902 -0.8657  0.2799 -0.6310
 2150TIP3    H1 6456   4.416   4.992   1.939  0.0865  0.8752 -3.1263
 2150TIP3    H2 6457   4.331   4.872   1.974  1.3598  0.9422  0.6325
 2151TIP3   OH2 6458   3.691   1.449   1.681  0.1626  0.2698 -0.4117
 2151TIP3    H1 6459   3.619   1.387   1.694  1.4653 -1.3743 -0.7667
 2151TIP3    H2 6460   3.749   1.435   1.756 -0.2966  2.2766  0.4029
 2152TIP3   OH2 6461   5.194   5.671   3.878 -0.1809  0.6690  0.6392
 2152TIP3    H1 6462   5.173   5.676   3.971 -1.2084  0.8037  0.4144
 2152TIP3    H2 6463   5.225   5.758   3.855 -1.1230  1.0043  0.5934
 2153TIP3   OH2 6464   3.888   0.878   1.885  0.1993  0.6433 -0.3141
 2153TIP3    H1 6465   3.831   0.953   1.870 -0.3044  0.2475 -0.3951
 2153TIP3    H2 6466   3.832   0.813   1.928  0.0550 -0.4523 -2.0650
 2154TIP3   OH2 6467   2.662   3.974   2.439 -0.7833 -0.0536 -0.1740
 2154TIP3    H1 6468   2.711   4.018   2.508 -0.5955 -0.3144 -0.1386
 2154TIP3    H2 6469   2.577   3.954   2.478 -1.6980  2.1984 -0.8541
 2155TIP3   OH2 6470   3.505   3.424   4.515 -0.2512  0.0360  0.1939
 2155TIP3    H1 6471   3.594   3.412   4.481 -0.5749  0.6945 -0.9424
 2155TIP3    H2 6472   3.449   3.378   4.452 -0.9547  2.1248 -0.7721
 2156TIP3   OH2 6473   1.934   1.135   3.891  0.0815 -0.1208 -0.3537
 2156TIP3    H1 6474   2.026   1.161   3.896  0.3533 -1.3042  2.2027
 2156TIP3    H2 6475   1.888   1.215   3.869  1.6074  0.7689 -0.4500
 2157TIP3   OH2 6476   0.078   3.261   4.951  0.6594  0.0798 -0.4421
 2157TIP3    H1 6477   0.040   3.344   4.922  0.7610  0.0720 -0.5960
 2157TIP3    H2 6478   0.133   3.232   4.878  2.9223  1.3207  0.6655
 2158TIP3   OH2 6479   3.669   3.577   0.228 -0.0077 -0.3053  0.0818
 2158TIP3    H1 6480   3.728   3.505   0.249  0.5986  0.2090  0.1680
 2158TIP3    H2 6481   3.607   3.579   0.301  0.1205 -0.5809  0.2016
 2159TIP3   OH2 6482   3.038   4.764   4.009  0.2935 -0.5435 -0.0203
 2159TIP3    H1 6483   2.980   4.774   4.085  4.5198  1.2046  3.4889
 2159TIP3    H2 6484   3.050   4.853   3.976  2.3920 -0.4894  0.7225
 2160TIP3   OH2 6485   6.132   5.664   0.066 -0.7849 -0.2409 -0.5257
 2160TIP3    H1 6486   6.193   5.709   0.007 -0.5596  2.5003  1.6128
 2160TIP3    H2 6487   6.180   5.656   0.149 -2.0876 -1.3591  0.1560
 2161TIP3   OH2 6488   5.252   1.204   4.909  0.0248 -0.2589 -0.0793
 2161TIP3    H1 6489   5.280   1.270   4.973  1.9472 -1.4441  0.3754
 2161TIP3    H2 6490   5.159   1.191   4.926  0.2637  0.2309  1.7612
 2162TIP3   OH2 6491   4.725   0.881   3.516 -0.4696 -0.4411 -0.4392
 2162TIP3    H1 6492   4.639   0.898   3.554 -1.1371 -1.9168 -1.2208
 2162TIP3    H2 6493   4.718   0.793   3.478  1.4671 -0.7124 -0.2785
 2163TIP3   OH2 6494   0.010   1.958   4.282 -0.0382  0.5438  0.1281
 2163TIP3    H1 6495  -0.067   1.965   4.226 -0.3670 -0.6549  0.4185
 2163TIP3    H2 6496   0.082   1.937   4.223 -0.4160 -0.8947  0.1448
 2164TIP3   OH2 6497   1.309   5.329   0.804 -0.7488  0.0928  0.0411
 2164TIP3    H1 6498   1.384   5.270   0.820 -1.6704 -0.9487  0.6882
 2164TIP3    H2 6499   1.344   5.416   0.821  1.6218  0.2402 -4.1442
 2165TIP3   OH2 6500   5.634   5.725   4.608  0.0210 -0.1612 -0.3405
 2165TIP3    H1 6501   5.607   5.714   4.517 -0.8363 -0.5734 -0.0395
 2165TIP3    H2 6502   5.693   5.652   4.625  0.2930 -0.0036 -0.6084
 2166TIP3   OH2 6503   2.505   0.316   3.758 -0.1288 -0.8193 -0.2295
 2166TIP3    H1 6504   2.528   0.323   3.851  0.1742  0.7319 -0.4020
 2166TIP3    H2 6505   2.414   0.288   3.758 -0.8384  1.3153  0.6005
 2167TIP3   OH2 6506   2.489   4.062   3.100 -0.0660  0.1483  0.0106
 2167TIP3    H1 6507   2.515   4.044   3.191  1.9667  2.0900 -0.1006
 2167TIP3    H2 6508   2.562   4.113   3.064 -2.3028  2.3760 -1.6917
 2168TIP3   OH2 6509   3.498   3.368   1.734  0.3887  0.2438  0.5139
 2168TIP3    H1 6510   3.576   3.376   1.789 -0.5809  1.4740  1.8083
 2168TIP3    H2 6511   3.425   3.379   1.795 -0.7800 -0.0356 -0.7867
 2169TIP3   OH2 6512   0.797   5.150   2.777 -0.1540  0.1846  0.0231
 2169TIP3    H1 6513   0.702   5.144   2.763 -0.0957 -1.6614  0.1217
 2169TIP3    H2 6514   0.827   5.059   2.772  1.7638  0.8174 -0.9854
 2170TIP3   OH2 6515   4.779   3.780   0.014 -0.2292  0.1034  0.1348
 2170TIP3    H1 6516   4.746   3.867  -0.011 -0.8854 -0.1330  0.1596
 2170TIP3    H2 6517   4.704   3.736   0.053  0.4778  0.0608  1.5213
 2171TIP3   OH2 6518   0.845   0.887   3.963 -0.4395  0.3218 -0.0933
 2171TIP3    H1 6519   0.881   0.975   3.977 -0.6585  0.5489 -0.9068
 2171TIP3    H2 6520   0.755   0.893   3.996 -0.2871  0.2485  0.3406
 2172TIP3   OH2 6521   3.801   3.811   1.568  0.0067 -0.0524  0.0916
 2172TIP3    H1 6522   3.759   3.865   1.636 -1.8514 -0.5759 -0.5646
 2172TIP3    H2 6523   3.827   3.731   1.614 -2.0042 -0.7673  0.1145
 2173TIP3   OH2 6524   5.612   4.024   1.923  0.3301  0.8540  0.2872
 2173TIP3    H1 6525   5.602   4.112   1.958 -1.1013  0.1584  1.8266
 2173TIP3    H2 6526   5.593   4.032   1.830 -0.0435  2.1329  0.4584
 2174TIP3   OH2 6527   4.291   4.640   3.662 -0.4307  0.0378 -0.1219
 2174TIP3    H1 6528   4.312   4.679   3.747 -0.4031 -1.4733  0.6147
 2174TIP3    H2 6529   4.361   4.669   3.604 -0.4173  1.0440  0.3775
 2175TIP3   OH2 6530   3.950   2.747   2.440 -0.3675 -0.3793 -0.0436
 2175TIP3    H1 6531   3.880   2.768   2.501 -0.3827 -1.0362  0.1773
 2175TIP3    H2 6532   3.906   2.732   2.356 -0.4591 -0.4679  0.0199
 2176TIP3   OH2 6533   4.743   2.435   2.227 -0.3151  0.1279  0.0280
 2176TIP3    H1 6534   4.681   2.501   2.257 -0.4210  0.3836 -0.7300
 2176TIP3    H2 6535   4.713   2.413   2.138 -0.8877 -1.6515  0.5998
 2177TIP3   OH2 6536   1.033   1.519   2.625  0.2671  0.3123  0.3720
 2177TIP3    H1 6537   1.112   1.539   2.575 -0.4348 -0.2924 -1.0155
 2177TIP3    H2 6538   0.965   1.506   2.559 -1.2817  1.8893  1.5610
 2178TIP3   OH2 6539   6.187   1.742   4.862 -0.2634  0.6667  0.1037
 2178TIP3    H1 6540   6.274   1.716   4.833 -1.7253 -4.0970 -0.8284
 2178TIP3    H2 6541   6.193   1.743   4.958  1.3111  3.1759  0.0848
 2179TIP3   OH2 6542   0.401   2.478   0.751 -0.1108  0.3692  0.1313
 2179TIP3    H1 6543   0.336   2.410   0.734 -1.2982  1.2446  1.0698
 2179TIP3    H2 6544   0.403   2.530   0.670  0.2458 -0.3050 -0.3038
 2180TIP3   OH2 6545   2.997   3.998   3.035  0.6640 -0.6351 -0.1636
 2180TIP3    H1 6546   3.015   3.978   2.943 -0.2326  0.4743 -0.5964
 2180TIP3    H2 6547   3.084   4.010   3.075  1.0397  0.8479 -1.3375
 2181TIP3   OH2 6548   6.304   0.075   2.409  0.4594 -0.2861  0.1892
 2181TIP3    H1 6549   6.213   0.069   2.436  0.6611 -1.1353  0.7157
 2181TIP3    H2 6550   6.302   0.124   2.327 -0.5389 -0.9018 -0.1653
 2182TIP3   OH2 6551   1.433   3.606   0.749  0.3771  0.0209  0.0777
 2182TIP3    H1 6552   1.343   3.576   0.758 -0.0271  1.2154  0.1479
 2182TIP3    H2 6553   1.443   3.626   0.656  0.2981  0.6952  0.2082
 2183TIP3   OH2 6554   4.853   4.881   2.328  0.6771 -0.3148  0.3519
 2183TIP3    H1 6555   4.888   4.956   2.280  0.8855 -1.5514 -1.5283
 2183TIP3    H2 6556   4.817   4.919   2.408  0.3213  1.8550 -0.7483
 2184TIP3   OH2 6557   3.852   1.470   4.316  0.4490  0.0342  0.2946
 2184TIP3    H1 6558   3.812   1.529   4.253  0.5923 -1.5651 -1.3731
 2184TIP3    H2 6559   3.946   1.481   4.305  0.4801 -0.7428 -0.2845
 2185TIP3   OH2 6560   4.033   1.465   2.177  0.3744  0.2417  0.1063
 2185TIP3    H1 6561   3.980   1.392   2.208  1.0261 -0.0814  0.4676
 2185TIP3    H2 6562   4.091   1.427   2.111  0.1405  0.6060 -0.3242
 2186TIP3   OH2 6563   2.867   4.319   2.492  0.7011  0.3262 -0.1851
 2186TIP3    H1 6564   2.788   4.326   2.439  1.2286  1.3581 -0.8703
 2186TIP3    H2 6565   2.848   4.250   2.556 -0.6228  0.3478 -0.5437
 2187TIP3   OH2 6566   0.697   1.387   3.505 -0.0210 -0.1011  0.2709
 2187TIP3    H1 6567   0.718   1.319   3.441 -1.1330  0.1953 -0.4324
 2187TIP3    H2 6568   0.768   1.382   3.569 -0.3351 -2.2700  0.5287
 2188TIP3   OH2 6569   5.145   5.672   0.352  0.0102 -0.5849  0.3161
 2188TIP3    H1 6570   5.065   5.628   0.381 -1.0647  1.3281  0.4544
 2188TIP3    H2 6571   5.118   5.763   0.339  1.8860 -0.1533 -0.8770
 2189TIP3   OH2 6572   3.019   4.354   1.556  0.3433 -0.3270  0.4253
 2189TIP3    H1 6573   3.036   4.275   1.607  1.3983 -0.0939  0.4506
 2189TIP3    H2 6574   2.923   4.363   1.556  0.0396 -2.6833 -1.2075
 2190TIP3   OH2 6575   3.294   0.173   2.429  0.4024 -0.5786 -0.1938
 2190TIP3    H1 6576   3.269   0.156   2.339  0.0944 -1.8020  0.1109
 2190TIP3    H2 6577   3.227   0.129   2.482 -0.4894  1.6176  0.6779
 2191TIP3   OH2 6578   4.101   0.043   0.534 -0.0812 -0.0612 -0.2817
 2191TIP3    H1 6579   4.171  -0.017   0.555 -0.6889 -0.8028 -0.3286
 2191TIP3    H2 6580   4.125   0.125   0.577 -0.0836 -0.8211  1.2412
 2192TIP3   OH2 6581   2.293   3.581   4.214 -0.2283 -0.1806 -0.1146
 2192TIP3    H1 6582   2.365   3.560   4.154 -0.5765 -0.6263 -0.3758
 2192TIP3    H2 6583   2.337   3.603   4.296  0.3219  1.5700 -0.8256
 2193TIP3   OH2 6584   6.273   5.752   4.014  0.6081  0.1541 -0.2324
 2193TIP3    H1 6585   6.185   5.716   4.000  0.3141  1.0090 -0.6986
 2193TIP3    H2 6586   6.330   5.676   4.018 -0.1047 -0.3995 -0.2967
 2194TIP3   OH2 6587   4.753   0.634   3.413  0.0726  0.1310  0.3767
 2194TIP3    H1 6588   4.677   0.575   3.418  0.0062  0.2094  0.3009
 2194TIP3    H2 6589   4.818   0.586   3.362  0.5700 -0.4740  1.5461
 2195TIP3   OH2 6590   6.116   4.081   5.005  0.1975 -0.1575  0.6478
 2195TIP3    H1 6591   6.117   4.155   5.065 -1.4731  1.5693 -1.2768
 2195TIP3    H2 6592   6.062   4.111   4.932  1.4851 -2.4265 -1.3571
 2196TIP3   OH2 6593   0.032   1.744   2.281 -0.0415 -0.0656 -0.3742
 2196TIP3    H1 6594   0.100   1.809   2.300 -0.2975  0.0136  0.2880
 2196TIP3    H2 6595  -0.043   1.771   2.334  0.1141 -1.3549  0.5609
 2197TIP3   OH2 6596   1.181   2.457   0.079  0.0830  0.1573  0.3495
 2197TIP3    H1 6597   1.242   2.383   0.079  0.0191 -0.0074  3.1399
 2197TIP3    H2 6598   1.110   2.430   0.021  0.4347 -1.6735  0.7015
 2198TIP3   OH2 6599   1.341   0.458   5.177 -0.2711  0.0868  0.6222
 2198TIP3    H1 6600   1.329   0.535   5.120 -1.2839 -0.4280  0.1024
 2198TIP3    H2 6601   1.418   0.478   5.230 -1.2645  2.0513  1.4308
 2199TIP3   OH2 6602   4.468   0.629   3.056 -0.1090 -0.5346  0.2423
 2199TIP3    H1 6603   4.381   0.633   3.094 -0.0049 -0.3979  0.4704
 2199TIP3    H2 6604   4.517   0.699   3.100  0.1295 -0.6453  0.1573
 2200TIP3   OH2 6605   4.505   2.821   3.315  0.7711  0.1215 -0.4027
 2200TIP3    H1 6606   4.450   2.878   3.368 -1.3424 -1.3561 -0.8676
 2200TIP3    H2 6607   4.518   2.869   3.233  1.8439  1.2873  0.4107
 2201TIP3   OH2 6608   2.876   4.747   0.676 -0.4226  0.2502 -0.4004
 2201TIP3    H1 6609   2.805   4.809   0.659 -0.2073  0.3057 -1.1088
 2201TIP3    H2 6610   2.867   4.727   0.769 -1.4457  0.1567 -0.4988
 2202TIP3   OH2 6611   1.887   5.653   1.255  0.1144 -0.6356  0.0916
 2202TIP3    H1 6612   1.856   5.647   1.164  1.1831 -1.3537 -0.2475
 2202TIP3    H2 6613   1.895   5.562   1.283  2.0356 -0.4964  0.0928
 2203TIP3   OH2 6614   1.475   0.088   4.229  0.0389  0.2326 -0.2040
 2203TIP3    H1 6615   1.509   0.002   4.251  2.3824  1.0536 -0.2443
 2203TIP3    H2 6616   1.497   0.099   4.136  2.5466  1.9537  0.4885
 2204TIP3   OH2 6617   3.581   3.128   1.014  0.1936 -0.0990 -0.2151
 2204TIP3    H1 6618   3.605   3.114   0.922 -0.7044 -1.4116 -0.2683
 2204TIP3    H2 6619   3.635   3.203   1.041  0.3536  0.4245 -1.8484
 2205TIP3   OH2 6620   5.099   3.094   4.864 -0.0317 -0.1495  0.4661
 2205TIP3    H1 6621   5.061   3.088   4.776 -0.8624 -0.0246  0.8090
 2205TIP3    H2 6622   5.029   3.063   4.922  0.1439  0.7299  1.1657
 2206TIP3   OH2 6623   0.209  -0.003   1.828  0.2257 -0.2523 -0.1592
 2206TIP3    H1 6624   0.271  -0.023   1.898 -1.8579  1.4303  2.3615
 2206TIP3    H2 6625   0.230   0.086   1.801 -1.2769  0.5248  1.0677
 2207TIP3   OH2 6626   5.023   5.313   5.071 -0.6430  0.1028  0.2542
 2207TIP3    H1 6627   5.043   5.394   5.024 -1.6755 -0.3331 -0.9694
 2207TIP3    H2 6628   5.058   5.328   5.159  1.7725  0.7410 -0.7487
 2208TIP3   OH2 6629   0.355   5.590   2.488  0.2295  0.0827  0.0913
 2208TIP3    H1 6630   0.324   5.666   2.439 -1.2121 -1.0475 -0.8090
 2208TIP3    H2 6631   0.447   5.581   2.463 -0.5798 -0.8036 -2.9445
 2209TIP3   OH2 6632   5.261   3.602   1.079 -0.0481 -0.2304  0.5944
 2209TIP3    H1 6633   5.280   3.520   1.034 -2.2450 -0.7728  0.5460
 2209TIP3    H2 6634   5.174   3.589   1.116 -0.2778  1.9474  0.9294
 2210TIP3   OH2 6635   6.273   4.039   1.776 -0.5373 -0.4142 -0.5392
 2210TIP3    H1 6636   6.330   4.077   1.709  0.6092  0.3109  0.7917
 2210TIP3    H2 6637   6.245   4.114   1.830 -0.1089 -1.1537  0.7550
 2211TIP3   OH2 6638   4.134   3.418   4.363 -0.3810  0.5975  0.3774
 2211TIP3    H1 6639   4.120   3.333   4.404 -1.9233  0.4886 -0.2933
 2211TIP3    H2 6640   4.063   3.426   4.299  0.0178  2.1766  0.0772
 2212TIP3   OH2 6641   1.774   5.252   1.985  0.4465  0.1291  0.4177
 2212TIP3    H1 6642   1.690   5.243   1.940  0.5200 -1.2474  0.5037
 2212TIP3    H2 6643   1.828   5.303   1.924 -0.0483 -0.0926 -0.2211
 2213TIP3   OH2 6644   2.144   2.997   3.269 -0.6716  0.5437  0.4618
 2213TIP3    H1 6645   2.238   2.979   3.263 -0.5997  0.5939  1.2802
 2213TIP3    H2 6646   2.106   2.914   3.298 -0.6557  0.9518  1.7582
 2214TIP3   OH2 6647   2.635   4.888   0.688  0.5431  0.8546  0.2549
 2214TIP3    H1 6648   2.556   4.841   0.716  0.6552  0.3860 -0.2120
 2214TIP3    H2 6649   2.602   4.972   0.655  0.0687  0.0711 -1.3692
 2215TIP3   OH2 6650   5.575   3.399   0.897  0.1226 -0.2953  0.2245
 2215TIP3    H1 6651   5.498   3.443   0.862  0.7053 -0.0385 -0.7777
 2215TIP3    H2 6652   5.556   3.387   0.990 -0.8135  0.4212  0.1366
 2216TIP3   OH2 6653   3.003   2.468   0.194 -0.0672  0.0246 -0.4344
 2216TIP3    H1 6654   3.047   2.506   0.270 -0.7373  0.7498 -0.4015
 2216TIP3    H2 6655   2.953   2.540   0.156  0.1261 -0.3705 -1.4723
 2217TIP3   OH2 6656   3.633   2.893   2.002  0.5509 -0.2753  0.1881
 2217TIP3    H1 6657   3.554   2.846   2.029 -0.9445  2.0628  0.2016
 2217TIP3    H2 6658   3.704   2.851   2.051 -0.7414 -2.0887  0.6085
 2218TIP3   OH2 6659   4.610   2.703   2.658  0.0027  0.2546 -0.1785
 2218TIP3    H1 6660   4.692   2.676   2.702 -0.6650 -0.1656  0.8517
 2218TIP3    H2 6661   4.549   2.720   2.730 -1.1833 -0.5861 -0.9496
 2219TIP3   OH2 6662   4.010   0.041   3.860 -0.6598  0.0615 -0.1651
 2219TIP3    H1 6663   4.094   0.001   3.838  0.2783  1.5955  0.3900
 2219TIP3    H2 6664   4.034   0.119   3.910 -2.5010 -0.6230  1.9336
 2220TIP3   OH2 6665   0.362   4.379   0.538 -0.1185  0.3736 -0.9299
 2220TIP3    H1 6666   0.433   4.365   0.601 -1.1522  0.3875  0.2839
 2220TIP3    H2 6667   0.405   4.415   0.461  1.2605 -0.1405 -0.4343
 2221TIP3   OH2 6668   2.018   4.116   3.937  0.5691 -0.2270 -0.4108
 2221TIP3    H1 6669   1.948   4.100   4.000 -1.2771  1.7783 -1.8032
 2221TIP3    H2 6670   2.081   4.170   3.984  1.7986 -2.7997  1.1512
 2222TIP3   OH2 6671   4.382   3.550   3.824 -0.5412 -0.3061  0.0841
 2222TIP3    H1 6672   4.476   3.530   3.827 -0.5680 -0.6770 -1.2393
 2222TIP3    H2 6673   4.346   3.502   3.899  0.4269  0.4976  1.0989
 2223TIP3   OH2 6674   4.840   2.484   1.450 -0.4204 -0.0933 -1.0496
 2223TIP3    H1 6675   4.794   2.416   1.499 -0.0014  1.0774  1.0875
 2223TIP3    H2 6676   4.861   2.551   1.515  1.0963  1.0961 -2.6534
 2224TIP3   OH2 6677   4.405   0.972   4.037 -0.0207 -0.4504  0.1570
 2224TIP3    H1 6678   4.411   1.066   4.019  0.3064 -0.2017  1.4153
 2224TIP3    H2 6679   4.468   0.932   3.977  0.9974  0.3202  0.6658
 2225TIP3   OH2 6680   1.497   3.268   2.451  0.6684 -0.7644 -0.1155
 2225TIP3    H1 6681   1.402   3.266   2.442  0.2991 -0.3080  2.6773
 2225TIP3    H2 6682   1.519   3.184   2.490  1.2463 -0.4437  0.2720
 2226TIP3   OH2 6683   6.290   3.380   2.996  0.5941 -0.0677  0.0275
 2226TIP3    H1 6684   6.271   3.289   2.970 -1.3117  0.4003 -0.3287
 2226TIP3    H2 6685   6.212   3.409   3.042  0.8272  1.6769 -0.5985
 2227TIP3   OH2 6686   3.617   3.590   2.580  0.0844 -0.0500 -0.0226
 2227TIP3    H1 6687   3.560   3.584   2.504  0.5232  0.1668 -0.3683
 2227TIP3    H2 6688   3.557   3.597   2.654 -0.3410  0.3084 -0.3955
 2228TIP3   OH2 6689   3.973   4.589   4.043  0.5221 -0.6791 -0.2758
 2228TIP3    H1 6690   4.055   4.637   4.056  1.0201 -1.5488 -0.1205
 2228TIP3    H2 6691   3.949   4.559   4.131  1.3021 -2.4349 -0.6268
 2229TIP3   OH2 6692   5.493   3.045   1.906 -0.0866 -0.3815  0.5310
 2229TIP3    H1 6693   5.505   2.951   1.889 -1.0501 -0.3941 -0.1507
 2229TIP3    H2 6694   5.522   3.088   1.826 -0.7806 -0.1798  0.3792
 2230TIP3   OH2 6695   2.205   5.465   2.670 -0.4653  0.4778 -0.0248
 2230TIP3    H1 6696   2.173   5.555   2.662 -0.4296  0.3543 -2.3717
 2230TIP3    H2 6697   2.299   5.473   2.682 -0.8534  0.7721  3.9428
 2231TIP3   OH2 6698   0.792   1.010   1.187 -0.1253 -0.5904  0.2031
 2231TIP3    H1 6699   0.789   1.099   1.223 -0.1938 -0.9410  1.0727
 2231TIP3    H2 6700   0.799   1.024   1.092 -2.3790  0.3620  0.1158
 2232TIP3   OH2 6701   0.349   3.459   0.510 -0.0363 -0.3000  0.6071
 2232TIP3    H1 6702   0.291   3.475   0.436  0.5381 -0.9563  0.0065
 2232TIP3    H2 6703   0.322   3.373   0.543  0.1832 -0.3316  0.7083
 2233TIP3   OH2 6704   2.606   1.147   1.700  0.3175  0.3592 -0.3978
 2233TIP3    H1 6705   2.556   1.135   1.620  0.5076  0.2189 -0.4946
 2233TIP3    H2 6706   2.540   1.171   1.766  0.1495  0.3714 -0.5694
 2234TIP3   OH2 6707   0.654   3.112   4.528  0.6535  0.0837 -0.2314
 2234TIP3    H1 6708   0.742   3.075   4.520  0.7682 -0.3279  2.1128
 2234TIP3    H2 6709   0.597   3.036   4.536  0.2868  0.3659 -0.1352
 2235TIP3   OH2 6710   0.200   1.211   4.285  0.1211 -0.6670  0.2046
 2235TIP3    H1 6711   0.118   1.243   4.323  0.6632  0.6918  0.2842
 2235TIP3    H2 6712   0.174   1.172   4.201 -0.9049 -2.4389  1.2684
 2236TIP3   OH2 6713   4.480   1.036   2.778 -0.3102 -0.3469 -0.1843
 2236TIP3    H1 6714   4.476   1.123   2.738  0.2303 -0.6242 -0.8441
 2236TIP3    H2 6715   4.573   1.018   2.788 -0.4278 -0.2091  1.3796
 2237TIP3   OH2 6716   6.216   1.023   3.670 -0.5033  0.0108  0.7046
 2237TIP3    H1 6717   6.227   0.946   3.615 -0.0981 -0.5960  1.6046
 2237TIP3    H2 6718   6.236   1.097   3.613 -0.1126 -0.5937  0.0448
 2238TIP3   OH2 6719   0.419   1.014   1.770  0.0035  0.2977 -0.1135
 2238TIP3    H1 6720   0.356   1.047   1.706  0.5623  1.9490  0.1175
 2238TIP3    H2 6721   0.448   1.093   1.816  0.2754 -0.7489  1.5709
 2239TIP3   OH2 6722   2.188   5.427   4.538 -0.8468 -0.3748 -0.1881
 2239TIP3    H1 6723   2.245   5.356   4.510 -0.3046  0.2103 -0.5848
 2239TIP3    H2 6724   2.128   5.386   4.600  0.1954 -0.9274  0.4741
 2240TIP3   OH2 6725   4.302   3.703   2.936  0.3601 -0.1594 -0.1187
 2240TIP3    H1 6726   4.389   3.728   2.967 -0.0322  0.1987  0.7078
 2240TIP3    H2 6727   4.264   3.784   2.902 -0.3403  0.0777  1.1870
 2241TIP3   OH2 6728   5.451   0.539   0.882 -0.1260 -0.2052  0.3541
 2241TIP3    H1 6729   5.467   0.445   0.875  0.1762 -0.0909 -0.5860
 2241TIP3    H2 6730   5.393   0.558   0.808  2.0171  0.8149 -1.1693
 2242TIP3   OH2 6731   3.100   3.516   2.202 -0.1713  0.1299  0.4798
 2242TIP3    H1 6732   3.031   3.522   2.136  0.1446 -0.8879  0.0223
 2242TIP3    H2 6733   3.182   3.519   2.151  0.0765 -0.6935  0.8141
 2243TIP3   OH2 6734   3.020   4.929   4.966  0.1161  0.2935 -0.0417
 2243TIP3    H1 6735   3.081   4.857   4.952  1.2043  1.4013 -1.2460
 2243TIP3    H2 6736   2.968   4.933   4.887 -0.7518  0.1057  0.5045
 2244TIP3   OH2 6737   6.283   0.180   4.594  0.2905 -0.0075 -0.1596
 2244TIP3    H1 6738   6.311   0.242   4.526  0.5797  1.1039  0.9266
 2244TIP3    H2 6739   6.302   0.226   4.676 -0.5091 -1.1145  0.6601
 2245TIP3   OH2 6740   5.644   2.934   1.541 -0.3316  0.0708 -1.0608
 2245TIP3    H1 6741   5.639   2.877   1.618 -1.5178 -1.2977 -2.1011
 2245TIP3    H2 6742   5.570   2.908   1.487 -0.5172  2.1766 -1.9039
 2246TIP3   OH2 6743   2.115   1.161   3.352  0.1637  0.3056 -0.0003
 2246TIP3    H1 6744   2.061   1.093   3.393  0.0577 -0.4902 -1.3904
 2246TIP3    H2 6745   2.078   1.172   3.264 -1.1360  3.7079  0.8363
 2247TIP3   OH2 6746   1.185   5.749   1.305  0.1455 -0.1426  0.4023
 2247TIP3    H1 6747   1.245   5.737   1.232  0.4663 -1.6936  0.8799
 2247TIP3    H2 6748   1.114   5.686   1.289  0.5993 -1.0584  1.7713
 2248TIP3   OH2 6749   5.820   2.394   1.374 -0.2897 -0.2320 -0.5023
 2248TIP3    H1 6750   5.841   2.338   1.299  0.3384 -2.2065  1.0559
 2248TIP3    H2 6751   5.888   2.374   1.438 -0.9567  1.2106  0.7146
 2249TIP3   OH2 6752   0.217   3.054   5.207  0.1205 -0.6274 -0.5402
 2249TIP3    H1 6753   0.193   3.053   5.115  0.8850  0.9412 -0.7818
 2249TIP3    H2 6754   0.292   2.994   5.213 -0.0350 -0.8578 -0.9025
 2250TIP3   OH2 6755   2.822   0.683   2.309 -0.6419  0.4825 -0.3401
 2250TIP3    H1 6756   2.789   0.765   2.272  0.0253  0.0270 -2.0369
 2250TIP3    H2 6757   2.868   0.709   2.389  0.1541  1.8540 -1.2072
 2251TIP3   OH2 6758   4.410   4.174   0.944  0.0460  0.4021  0.0283
 2251TIP3    H1 6759   4.328   4.206   0.981  0.0842 -0.0745  0.5378
 2251TIP3    H2 6760   4.478   4.225   0.988  0.0151  0.8818 -0.4825
 2252TIP3   OH2 6761   3.679   1.223   2.678 -0.1113 -0.4086 -0.0954
 2252TIP3    H1 6762   3.661   1.312   2.708  3.1014  0.3972 -0.1907
 2252TIP3    H2 6763   3.707   1.176   2.756 -0.0199 -0.7945 -0.3545
 2253TIP3   OH2 6764   1.099   5.559   2.005  0.5265  0.2607 -0.2136
 2253TIP3    H1 6765   1.003   5.549   2.007  0.5152  0.3428 -0.4248
 2253TIP3    H2 6766   1.114   5.649   2.034  0.5776  0.0072  0.5794
 2254TIP3   OH2 6767   5.435   3.467   2.057 -0.4567 -0.9224 -0.1509
 2254TIP3    H1 6768   5.392   3.384   2.079  0.3279 -0.9153  1.5457
 2254TIP3    H2 6769   5.460   3.457   1.965 -1.6513 -1.9845 -0.3917
 2255TIP3   OH2 6770   6.095   1.246   0.279  0.0954 -0.3586  0.8563
 2255TIP3    H1 6771   6.072   1.317   0.338 -0.0629  1.7015 -1.5175
 2255TIP3    H2 6772   6.168   1.280   0.228 -0.5872 -1.5177 -1.0020
 2256TIP3   OH2 6773   3.028   4.514   2.368 -0.0094  0.6264  0.1600
 2256TIP3    H1 6774   3.080   4.435   2.352  0.1088  0.7503 -0.0717
 2256TIP3    H2 6775   2.937   4.483   2.371  0.0902  0.3890  0.7163
 2257TIP3   OH2 6776   3.188   4.717   0.384  1.0279  0.1255  0.1252
 2257TIP3    H1 6777   3.156   4.706   0.474  1.2442 -1.3011  0.0598
 2257TIP3    H2 6778   3.241   4.639   0.369  1.7289  0.7967 -0.9439
 2258TIP3   OH2 6779   1.524   1.919   0.542 -0.0062  0.1840  0.5055
 2258TIP3    H1 6780   1.524   1.994   0.482 -1.1704  0.0251  0.2669
 2258TIP3    H2 6781   1.436   1.921   0.581  0.6939  0.2331  2.1504
 2259TIP3   OH2 6782   1.413   4.285   3.026  0.3433  0.6767 -0.7598
 2259TIP3    H1 6783   1.376   4.337   3.097 -0.8791 -1.0377 -0.0707
 2259TIP3    H2 6784   1.508   4.298   3.033  0.2872  0.2710  1.4543
 2260TIP3   OH2 6785   0.455   0.432   4.996 -0.3379 -0.3649 -0.5949
 2260TIP3    H1 6786   0.533   0.380   5.019 -0.0323  0.7141  0.9755
 2260TIP3    H2 6787   0.489   0.519   4.978 -1.1222 -0.0472 -0.5494
 2261TIP3   OH2 6788   0.207   5.031   1.778 -0.3218 -0.1103  0.3350
 2261TIP3    H1 6789   0.193   5.039   1.684 -0.7560 -0.2800  0.3860
 2261TIP3    H2 6790   0.125   4.995   1.812  0.2877 -1.3414  0.5968
 2262TIP3   OH2 6791   3.199   4.992   4.292 -0.6235  0.0060  0.0884
 2262TIP3    H1 6792   3.274   4.982   4.234 -0.7118 -0.8651  0.1143
 2262TIP3    H2 6793   3.151   4.910   4.285 -1.0354  0.1651  0.8428
 2263TIP3   OH2 6794   5.570   3.782   0.878 -0.4925 -0.3457 -0.1099
 2263TIP3    H1 6795   5.577   3.859   0.934 -0.7330  0.3849 -1.0391
 2263TIP3    H2 6796   5.479   3.781   0.849 -1.1076 -2.3028  1.6513
 2264TIP3   OH2 6797   0.679   3.290   2.422  0.4520 -0.5741 -0.0720
 2264TIP3    H1 6798   0.641   3.337   2.496  0.5353 -0.6139 -0.0040
 2264TIP3    H2 6799   0.619   3.307   2.349  1.2952  0.9100 -0.4467
 2265TIP3   OH2 6800   3.527   2.223   1.536 -0.4703 -0.0238  0.1256
 2265TIP3    H1 6801   3.535   2.247   1.629 -0.2826 -1.8669  0.6340
 2265TIP3    H2 6802   3.478   2.141   1.537  0.7100 -0.7995 -1.2972
 2266TIP3   OH2 6803   4.038   0.336   0.315 -0.1949 -0.1108 -0.4374
 2266TIP3    H1 6804   4.052   0.430   0.314  0.5784 -0.2179 -0.4328
 2266TIP3    H2 6805   4.107   0.301   0.371 -0.0956 -0.7366 -0.9316
 2267TIP3   OH2 6806   2.619   2.912   0.845 -0.3381 -0.5258 -0.1239
 2267TIP3    H1 6807   2.564   2.984   0.877  3.1666  2.5122 -0.2796
 2267TIP3    H2 6808   2.678   2.893   0.918 -0.1793 -2.2027 -0.6534
 2268TIP3   OH2 6809   3.284   0.961   1.260  0.0039  0.0447  0.2536
 2268TIP3    H1 6810   3.340   0.891   1.226  0.4701  0.7404 -0.4490
 2268TIP3    H2 6811   3.241   0.997   1.182  0.2213  0.9195  0.5363
 2269TIP3   OH2 6812   4.265   0.788   4.553 -0.1958 -0.2770 -0.0391
 2269TIP3    H1 6813   4.317   0.841   4.614 -0.3496 -0.0024 -0.1474
 2269TIP3    H2 6814   4.272   0.834   4.469 -0.1597 -0.5399 -0.1803
 2270TIP3   OH2 6815   2.160   1.338   0.262  0.1317  0.5081  0.5002
 2270TIP3    H1 6816   2.094   1.309   0.199  0.2094  1.3265  0.0286
 2270TIP3    H2 6817   2.221   1.392   0.211  2.3202 -1.7942  0.4936
 2271TIP3   OH2 6818   5.673   5.199   3.798 -0.4000  0.7319 -0.3293
 2271TIP3    H1 6819   5.701   5.171   3.885 -3.3663  0.4616  0.6437
 2271TIP3    H2 6820   5.707   5.133   3.738  0.2496 -0.0128  0.8445
 2272TIP3   OH2 6821   5.081   2.645   1.746 -0.1086  0.0882  0.0126
 2272TIP3    H1 6822   5.103   2.688   1.828 -0.5432 -0.7762  0.6001
 2272TIP3    H2 6823   5.164   2.640   1.698 -0.0629  1.5768 -0.0868
 2273TIP3   OH2 6824   1.598   0.437   4.977  0.5249  0.4430 -0.1796
 2273TIP3    H1 6825   1.574   0.362   5.031  0.6475 -0.5852 -1.5128
 2273TIP3    H2 6826   1.580   0.409   4.887  0.9940  1.8540 -0.7408
 2274TIP3   OH2 6827   5.220   1.517   3.360  0.0752  0.3696  0.3753
 2274TIP3    H1 6828   5.195   1.425   3.369  0.5071  0.1403 -0.6949
 2274TIP3    H2 6829   5.226   1.532   3.266 -0.0961  1.5328  0.5296
 2275TIP3   OH2 6830   0.326   2.330   2.601 -0.4471 -0.2260  0.7791
 2275TIP3    H1 6831   0.274   2.321   2.520  1.1893  0.6882 -0.4389
 2275TIP3    H2 6832   0.362   2.419   2.596  4.4064 -1.9572 -0.5069
 2276TIP3   OH2 6833   2.860   2.238   5.062  0.1962 -0.2684  0.4961
 2276TIP3    H1 6834   2.943   2.265   5.023  1.2931  0.1981  3.0138
 2276TIP3    H2 6835   2.797   2.305   5.032  0.8615 -0.1997 -0.8179
 2277TIP3   OH2 6836   0.695   0.056   1.815 -0.7346 -0.1969  0.3395
 2277TIP3    H1 6837   0.660  -0.027   1.784 -1.6519  0.4040 -0.2852
 2277TIP3    H2 6838   0.671   0.119   1.747 -1.9123  0.9797  1.7621
 2278TIP3   OH2 6839   5.095   4.412   2.681 -0.3641  0.1019 -0.1423
 2278TIP3    H1 6840   5.133   4.324   2.687  0.8852  0.7083  1.7776
 2278TIP3    H2 6841   5.167   4.468   2.652 -1.1059  0.5375 -1.1951
 2279TIP3   OH2 6842   1.214   2.952   4.997 -0.0043 -0.6411  0.3447
 2279TIP3    H1 6843   1.290   2.965   5.055 -0.2130  0.9746  0.2866
 2279TIP3    H2 6844   1.190   3.040   4.969 -1.1593 -1.2426 -0.6174
 2280TIP3   OH2 6845   3.095   5.331   4.990 -0.3336 -0.0463  0.0218
 2280TIP3    H1 6846   3.052   5.313   4.906 -0.1919 -1.1483  0.1765
 2280TIP3    H2 6847   3.049   5.408   5.024 -0.3106  0.4956 -1.1166
 2281TIP3   OH2 6848   1.950   5.930   1.305 -0.7634 -0.0265 -0.2577
 2281TIP3    H1 6849   1.948   5.834   1.297 -0.8245 -0.2833  1.9526
 2281TIP3    H2 6850   1.992   5.945   1.390  0.2976  1.9719 -1.0973
 2282TIP3   OH2 6851   0.608   4.107   5.042  0.0791  0.2135 -0.7423
 2282TIP3    H1 6852   0.677   4.174   5.035 -1.6967  2.0690 -1.3860
 2282TIP3    H2 6853   0.564   4.126   5.125  0.5735 -1.2434 -0.1118
 2283TIP3   OH2 6854   3.600   3.246   1.522  0.6904  0.3430  0.6977
 2283TIP3    H1 6855   3.630   3.332   1.490  0.3971  0.6611  1.2580
 2283TIP3    H2 6856   3.561   3.265   1.607  1.7002 -0.5229  1.3728
 2284TIP3   OH2 6857   1.943   5.504   0.328  0.0847  0.1721  0.2894
 2284TIP3    H1 6858   2.022   5.543   0.291 -0.3731  0.8310 -0.0111
 2284TIP3    H2 6859   1.876   5.572   0.320 -0.7345 -0.6685 -0.2405
 2285TIP3   OH2 6860   5.078   0.954   2.803 -0.3276  0.1868 -0.1606
 2285TIP3    H1 6861   5.019   1.020   2.766  0.7286  0.5354 -1.2756
 2285TIP3    H2 6862   5.101   0.897   2.730 -1.1341 -1.4054  0.7598
 2286TIP3   OH2 6863   0.798   5.124   3.878 -0.0785  0.2876  0.4675
 2286TIP3    H1 6864   0.763   5.052   3.929  0.9646  1.9955  3.8857
 2286TIP3    H2 6865   0.884   5.094   3.849  0.2753  0.0605  1.7127
 2287TIP3   OH2 6866   1.476   4.012   2.922  0.1181 -0.6973  0.5468
 2287TIP3    H1 6867   1.454   4.102   2.949 -0.0065 -0.2245 -0.9982
 2287TIP3    H2 6868   1.566   4.018   2.890 -0.4825 -0.7086 -1.2207
 2288TIP3   OH2 6869   3.252   1.376   4.005 -0.0937  0.0104  0.3965
 2288TIP3    H1 6870   3.329   1.430   4.021 -0.5030  0.2328  1.7667
 2288TIP3    H2 6871   3.255   1.308   4.073 -0.7840 -0.3235  0.1074
 2289TIP3   OH2 6872   4.333   0.986   0.950  0.2595  0.0069  0.4729
 2289TIP3    H1 6873   4.306   0.935   1.026 -1.3003  1.4989  1.0049
 2289TIP3    H2 6874   4.417   1.025   0.975  0.5754 -0.8357  0.7476
 2290TIP3   OH2 6875   5.085   3.173   1.352 -0.0108 -0.0924  0.5007
 2290TIP3    H1 6876   5.106   3.085   1.385  0.2572 -0.8364 -1.4987
 2290TIP3    H2 6877   5.154   3.192   1.288  0.1263  1.7474  1.1282
 2291TIP3   OH2 6878   3.808   0.906   1.403  0.0120  0.1450  0.0941
 2291TIP3    H1 6879   3.862   0.890   1.326  0.5196 -1.7639  0.7843
 2291TIP3    H2 6880   3.865   0.884   1.477 -0.7790  0.9757  0.9876
 2292TIP3   OH2 6881   2.837   2.179   1.919 -0.3174  0.3929 -0.2882
 2292TIP3    H1 6882   2.772   2.195   1.852  0.9376  0.3103 -1.5666
 2292TIP3    H2 6883   2.846   2.263   1.964 -0.0130  0.8996 -1.2832
 2293TIP3   OH2 6884   4.517   3.215   1.453  0.0472 -0.5402 -0.1238
 2293TIP3    H1 6885   4.513   3.216   1.549 -1.0507  0.9251 -0.1497
 2293TIP3    H2 6886   4.486   3.127   1.429 -0.9705 -0.4807  0.8453
 2294TIP3   OH2 6887   6.257   4.064   0.529 -0.3458 -0.2131 -0.2485
 2294TIP3    H1 6888   6.263   4.097   0.439 -2.7019  3.5773  0.7638
 2294TIP3    H2 6889   6.312   4.124   0.580 -0.2698 -1.3623  1.0826
 2295TIP3   OH2 6890   1.902   3.596   4.630  1.0735  0.2896 -0.3908
 2295TIP3    H1 6891   1.960   3.561   4.697  0.1586  1.8050  1.2531
 2295TIP3    H2 6892   1.920   3.690   4.628 -0.6577  0.6540 -0.4950
 2296TIP3   OH2 6893   6.036   0.491   2.004  0.2601 -0.3354  0.0484
 2296TIP3    H1 6894   6.115   0.438   1.993 -0.3273 -0.7296 -2.9016
 2296TIP3    H2 6895   6.063   0.579   1.978 -0.3656 -0.5767 -1.4640
 2297TIP3   OH2 6896   3.671   0.758   0.691 -0.2784 -0.0656 -0.0225
 2297TIP3    H1 6897   3.631   0.693   0.634  0.0240 -0.5148  0.2717
 2297TIP3    H2 6898   3.714   0.820   0.632 -2.0506  0.8857 -0.4003
 2298TIP3   OH2 6899   1.562   1.820   1.260  0.0810 -0.1693  0.3748
 2298TIP3    H1 6900   1.470   1.797   1.271  0.8836 -2.5874  3.6981
 2298TIP3    H2 6901   1.583   1.874   1.337  1.6355 -0.3778  0.1439
 2299TIP3   OH2 6902   2.126   1.705   0.229 -0.3258 -0.0077  0.3867
 2299TIP3    H1 6903   2.129   1.708   0.325 -1.8046 -0.1550  0.4640
 2299TIP3    H2 6904   2.191   1.638   0.205  0.3613  0.3287  1.2444
 2300TIP3   OH2 6905   1.402   0.218   4.932 -0.2471  0.0938  0.0501
 2300TIP3    H1 6906   1.355   0.295   4.902  0.8472  0.5515 -0.5428
 2300TIP3    H2 6907   1.467   0.201   4.864  1.2538  0.2105  1.3838
 2301TIP3   OH2 6908   3.132   1.879   1.722 -0.3063  0.1995 -0.4113
 2301TIP3    H1 6909   3.073   1.831   1.780 -0.2625  0.3503 -0.2411
 2301TIP3    H2 6910   3.162   1.813   1.659  0.8996 -0.3792  0.6975
 2302TIP3   OH2 6911   1.637   3.266   0.881  0.3373  0.4901 -0.2747
 2302TIP3    H1 6912   1.618   3.258   0.787  1.1467 -2.7006 -0.3054
 2302TIP3    H2 6913   1.555   3.296   0.920 -0.4111  0.6110 -1.8553
 2303TIP3   OH2 6914   1.488   0.877   1.789 -0.0249 -0.6984  0.1290
 2303TIP3    H1 6915   1.404   0.846   1.825  0.0346 -2.0110 -0.7914
 2303TIP3    H2 6916   1.554   0.827   1.838  0.2421  0.3360  0.8563
 2304TIP3   OH2 6917   2.288   0.266   3.098  0.1491 -0.2508 -0.4481
 2304TIP3    H1 6918   2.337   0.265   3.180 -0.7477  0.6000  0.1217
 2304TIP3    H2 6919   2.238   0.347   3.101 -0.8695 -0.8281 -1.2697
 2305TIP3   OH2 6920   5.810   3.416   1.943 -0.5496 -0.3615 -0.1763
 2305TIP3    H1 6921   5.742   3.463   1.894 -0.4174 -0.4454 -0.4462
 2305TIP3    H2 6922   5.764   3.344   1.985 -0.7000 -0.1741 -0.0174
 2306TIP3   OH2 6923   4.485   0.151   3.858 -0.2632  0.1067  0.4614
 2306TIP3    H1 6924   4.556   0.153   3.921 -0.4542 -0.7974  0.7198
 2306TIP3    H2 6925   4.482   0.240   3.822 -0.3228  0.7250  1.9060
 2307TIP3   OH2 6926   1.874   5.488   3.320 -0.1106 -0.0251 -0.1742
 2307TIP3    H1 6927   1.915   5.529   3.244  1.1702  0.0596  0.5342
 2307TIP3    H2 6928   1.848   5.561   3.376  1.1004 -0.1055  0.5384
 2308TIP3   OH2 6929   6.052   3.508   4.130 -0.2717  0.1215  0.1783
 2308TIP3    H1 6930   5.991   3.439   4.102  0.1257  0.6602 -2.2664
 2308TIP3    H2 6931   6.122   3.506   4.065  0.7805  1.5030  1.2096
 2309TIP3   OH2 6932   0.944   2.597   1.598  0.3648  1.0522  0.1681
 2309TIP3    H1 6933   0.905   2.531   1.541 -0.5108  2.2891 -0.7049
 2309TIP3    H2 6934   0.903   2.583   1.683 -0.2895  0.8634 -0.1738
 2310TIP3   OH2 6935   4.738   3.562   0.834 -0.0647  0.0839  0.2044
 2310TIP3    H1 6936   4.832   3.579   0.841 -0.1132  1.1378 -1.1768
 2310TIP3    H2 6937   4.731   3.495   0.767 -0.2629 -0.5831  0.8869
 2311TIP3   OH2 6938   4.541   4.266   1.284  0.7099  0.3707  0.6963
 2311TIP3    H1 6939   4.567   4.315   1.362 -1.1378  0.3363  1.3766
 2311TIP3    H2 6940   4.515   4.334   1.222 -1.3395  0.3185  1.4494
 2312TIP3   OH2 6941   3.138   4.644   0.656  0.1742  0.0836  0.2142
 2312TIP3    H1 6942   3.049   4.679   0.662  0.6169  1.6408 -1.5295
 2312TIP3    H2 6943   3.172   4.650   0.745 -1.1426  0.3325  0.7270
 2313TIP3   OH2 6944   2.205   4.439   0.603  0.4891  0.2407 -0.8115
 2313TIP3    H1 6945   2.299   4.425   0.615  0.2454 -0.5779  0.1679
 2313TIP3    H2 6946   2.180   4.497   0.675 -0.0017 -0.5645 -0.3340
 2314TIP3   OH2 6947   0.386   5.784   1.626 -0.1509  0.1632 -0.1169
 2314TIP3    H1 6948   0.427   5.867   1.651  0.4597 -0.2580  0.3339
 2314TIP3    H2 6949   0.430   5.719   1.681 -0.5545 -0.4699 -0.5318
 2315TIP3   OH2 6950   3.141   3.919   1.757  0.7296  0.2722 -0.0559
 2315TIP3    H1 6951   3.097   3.882   1.681 -0.4504 -0.3894  0.9189
 2315TIP3    H2 6952   3.232   3.928   1.730  0.7346 -1.8221 -0.8878
 2316TIP3   OH2 6953   1.016   4.388   0.749  0.2762  0.5598 -0.1010
 2316TIP3    H1 6954   0.958   4.320   0.782 -1.6224  2.0436 -0.2074
 2316TIP3    H2 6955   1.048   4.432   0.827 -1.3482  1.7611 -0.0532
 2317TIP3   OH2 6956   5.052   5.939   0.300  0.6904  0.4419 -0.1522
 2317TIP3    H1 6957   5.056   6.023   0.347 -0.1534  1.0111 -1.0373
 2317TIP3    H2 6958   5.028   5.964   0.211 -1.2575 -0.8511 -0.0448
 2318TIP3   OH2 6959   4.090   2.905   4.165 -0.1489 -0.1613 -0.0170
 2318TIP3    H1 6960   4.095   2.947   4.251 -2.2968  1.1987 -0.4927
 2318TIP3    H2 6961   4.132   2.968   4.105  1.1925 -1.0304 -0.0396
 2319TIP3   OH2 6962   4.602   5.338   1.165 -0.2535 -0.1893  0.9246
 2319TIP3    H1 6963   4.631   5.313   1.077  1.2656  0.2142  1.2919
 2319TIP3    H2 6964   4.663   5.406   1.193 -1.4400  0.5578  1.8347
 2320TIP3   OH2 6965   0.091   0.382   0.705 -0.5138  0.5337  0.3318
 2320TIP3    H1 6966   0.150   0.427   0.766  0.6148  1.4187 -1.3351
 2320TIP3    H2 6967   0.064   0.303   0.752  1.4747  0.4304  1.4266
 2321TIP3   OH2 6968   5.076   4.676   3.377  0.1264 -0.2767  0.4575
 2321TIP3    H1 6969   5.005   4.706   3.320 -0.3352  0.3884  1.3592
 2321TIP3    H2 6970   5.155   4.713   3.338 -0.3400  1.4361  1.0534
 2322TIP3   OH2 6971   5.095   5.022   0.439  0.3934  0.1038  0.0178
 2322TIP3    H1 6972   5.116   5.063   0.355  0.6642  0.4555  0.2557
 2322TIP3    H2 6973   5.154   4.946   0.444  0.0198 -0.2148 -0.3381
 2323TIP3   OH2 6974   0.781   2.802   1.111  0.8540 -0.6258  0.1560
 2323TIP3    H1 6975   0.815   2.757   1.034  1.6442 -0.1151  0.1947
 2323TIP3    H2 6976   0.841   2.778   1.182  0.4580 -0.6434  0.4917
 2324TIP3   OH2 6977   1.088   2.562   1.168  0.3018  0.1188 -0.0437
 2324TIP3    H1 6978   1.142   2.614   1.109  0.9054 -0.1128  0.2972
 2324TIP3    H2 6979   1.044   2.627   1.224 -0.2899  0.3364 -0.7511
 2325TIP3   OH2 6980   3.857   4.142   1.944  0.2279 -0.1853 -0.0764
 2325TIP3    H1 6981   3.887   4.148   1.854 -0.7129  0.1478 -0.3799
 2325TIP3    H2 6982   3.924   4.188   1.995  0.6859 -0.2466 -0.6218
 2326TIP3   OH2 6983   2.967   2.240   1.075  0.0252 -0.1098  0.1192
 2326TIP3    H1 6984   2.879   2.268   1.101 -0.8863 -0.2338 -2.5813
 2326TIP3    H2 6985   2.953   2.166   1.016  1.8623  0.4294 -1.0851
 2327TIP3   OH2 6986   0.876   1.400   1.819 -0.1869 -0.7163  0.2767
 2327TIP3    H1 6987   0.810   1.370   1.757 -0.9019  1.8989 -0.3351
 2327TIP3    H2 6988   0.881   1.330   1.885 -3.0040 -1.3365 -0.0508
 2328TIP3   OH2 6989   6.270   1.595   3.250  0.2407 -0.3012 -0.0334
 2328TIP3    H1 6990   6.285   1.530   3.181 -1.1511  0.8632 -1.5130
 2328TIP3    H2 6991   6.179   1.582   3.275  0.7547 -0.7667  1.7151
 2329TIP3   OH2 6992   6.012   4.816   3.758  0.4068  0.1490  0.2556
 2329TIP3    H1 6993   6.089   4.790   3.708  0.4180 -0.7253  0.7007
 2329TIP3    H2 6994   6.042   4.889   3.812  1.2055 -0.8071  1.1440
 2330TIP3   OH2 6995   4.672   1.889   1.314  0.9526 -0.4925  0.1097
 2330TIP3    H1 6996   4.718   1.854   1.238 -0.2541  0.8965 -1.3513
 2330TIP3    H2 6997   4.586   1.915   1.280  0.9586  1.7175  1.5662
 2331TIP3   OH2 6998   5.263   1.416   0.116 -0.0320 -0.2965  0.3824
 2331TIP3    H1 6999   5.227   1.468   0.045  0.0119 -1.9608 -0.9369
 2331TIP3    H2 7000   5.209   1.438   0.192 -2.2800 -0.8901 -0.9549
 2332TIP3   OH2 7001   4.289   0.360   1.889  0.9954  0.1411  0.3012
 2332TIP3    H1 7002   4.212   0.327   1.935  0.2703  0.0808 -0.9032
 2332TIP3    H2 7003   4.286   0.455   1.903  0.5477  0.1679  0.0604
 2333TIP3   OH2 7004   5.746   4.481   2.504 -0.6175 -0.1089 -0.3605
 2333TIP3    H1 7005   5.692   4.465   2.582 -1.0399 -2.0966 -0.9986
 2333TIP3    H2 7006   5.832   4.447   2.527  0.2541  2.4114  0.3989
 2334TIP3   OH2 7007   2.055   2.176   4.627  0.1454 -0.1724 -0.1149
 2334TIP3    H1 7008   1.972   2.141   4.661  0.6321 -0.6100  0.6421
 2334TIP3    H2 7009   2.120   2.109   4.649  0.8900  0.6663  0.2698
 2335TIP3   OH2 7010   0.564   0.292   0.514 -0.1208 -0.4687 -0.1906
 2335TIP3    H1 7011   0.512   0.222   0.554 -1.0994 -0.1376 -0.8529
 2335TIP3    H2 7012   0.500   0.349   0.472  0.5513  1.3664  1.1070
 2336TIP3   OH2 7013   3.176   5.476   1.515 -0.2131  0.3816  0.5247
 2336TIP3    H1 7014   3.177   5.393   1.562  1.6380  0.1310  0.1290
 2336TIP3    H2 7015   3.228   5.535   1.569  1.6229  0.1996 -0.9493
 2337TIP3   OH2 7016   1.868   3.171   5.191 -0.0655 -0.0938  0.4016
 2337TIP3    H1 7017   1.869   3.254   5.143 -1.5371 -0.5159 -0.4249
 2337TIP3    H2 7018   1.961   3.149   5.203  0.3643  0.5860 -1.3036
 2338TIP3   OH2 7019   4.629   3.001   1.820  0.1346 -0.2254 -0.0266
 2338TIP3    H1 7020   4.708   3.049   1.846 -0.9095  0.7133  1.5484
 2338TIP3    H2 7021   4.609   2.946   1.896 -1.1231  0.0860 -0.1143
 2339TIP3   OH2 7022   5.267   5.625   3.055  0.1693  0.0712  0.4825
 2339TIP3    H1 7023   5.244   5.695   2.994  0.7796 -0.0024  0.1627
 2339TIP3    H2 7024   5.326   5.568   3.005 -0.2482 -0.6240  0.7646
 2340TIP3   OH2 7025   5.174   2.272   0.131  0.1912  0.7440 -0.0652
 2340TIP3    H1 7026   5.166   2.183   0.164 -1.6497  1.1953  0.8448
 2340TIP3    H2 7027   5.170   2.263   0.036 -1.3060 -0.0821  0.0387
 2341TIP3   OH2 7028   3.524   1.604   0.664  0.3334  0.3638  0.1808
 2341TIP3    H1 7029   3.499   1.640   0.749  1.8849  0.4034  0.6527
 2341TIP3    H2 7030   3.566   1.677   0.619 -0.1247  0.2310 -0.4687
 2342TIP3   OH2 7031   0.882   5.854   1.336 -0.5006  0.2597 -0.3464
 2342TIP3    H1 7032   0.847   5.767   1.353 -1.8245  0.8896  0.3479
 2342TIP3    H2 7033   0.869   5.868   1.243 -2.8070  0.7169 -0.0129
 2343TIP3   OH2 7034   5.199   0.338   0.338 -0.2824  0.1926 -0.5694
 2343TIP3    H1 7035   5.251   0.410   0.373  0.9043 -0.4975 -0.8582
 2343TIP3    H2 7036   5.221   0.336   0.245  1.6270 -2.0525 -0.1579
 2344TIP3   OH2 7037   3.124   5.448   2.639 -0.3477 -0.2357 -0.1581
 2344TIP3    H1 7038   3.084   5.361   2.650 -0.4050  0.0720  2.9495
 2344TIP3    H2 7039   3.205   5.443   2.690 -0.3859  1.5629  0.1196
 2345TIP3   OH2 7040   1.746   5.960   0.441 -0.1351  0.2548  0.4429
 2345TIP3    H1 7041   1.686   5.928   0.509 -2.0676  1.6660 -0.5052
 2345TIP3    H2 7042   1.822   5.993   0.490 -0.7095 -0.3108  1.7797
 2346TIP3   OH2 7043   1.073   3.266   2.678  0.0889 -0.2862  0.7773
 2346TIP3    H1 7044   0.991   3.246   2.723 -0.1352  1.5248  1.2338
 2346TIP3    H2 7045   1.057   3.349   2.633  0.9953 -0.9777 -0.9113
 2347TIP3   OH2 7046   4.088   2.155   4.038  0.2964 -0.4245 -1.7015
 2347TIP3    H1 7047   4.176   2.192   4.026  0.1430 -0.1566 -2.0316
 2347TIP3    H2 7048   4.030   2.221   4.000 -0.3443  1.0582  1.5200
 2348TIP3   OH2 7049   5.974   2.789   1.715  0.2181 -0.4055  0.0834
 2348TIP3    H1 7050   5.920   2.826   1.646 -0.2384 -0.8614  0.1958
 2348TIP3    H2 7051   6.029   2.862   1.743  0.7261 -0.3199 -1.0577
 2349TIP3   OH2 7052   3.207   1.332   0.620 -0.1727  0.9603  0.2473
 2349TIP3    H1 7053   3.185   1.238   0.623 -0.7658  1.1041  0.7121
 2349TIP3    H2 7054   3.297   1.335   0.589 -0.2152  0.2407  0.0387
 2350TIP3   OH2 7055   2.704   2.126   1.389 -0.3464 -0.0282 -0.4223
 2350TIP3    H1 7056   2.776   2.149   1.448 -0.9498  1.6890 -0.2908
 2350TIP3    H2 7057   2.710   2.031   1.380 -0.5018 -0.4454  2.7581
 2351TIP3   OH2 7058   5.422   1.933   3.166  0.1651 -0.0424 -0.1100
 2351TIP3    H1 7059   5.403   1.995   3.237  0.2105  0.9719 -0.9722
 2351TIP3    H2 7060   5.486   1.873   3.204 -0.5164 -0.0921  1.0120
 2352TIP3   OH2 7061   1.108   1.407   1.633 -0.4954 -0.3843 -0.1028
 2352TIP3    H1 7062   1.015   1.426   1.643 -0.0851  1.4508  0.5573
 2352TIP3    H2 7063   1.143   1.412   1.723  0.9269  3.1256 -0.6820
 2353TIP3   OH2 7064   5.339   4.658   5.200  0.2185  0.1009  0.3354
 2353TIP3    H1 7065   5.269   4.594   5.214  1.7546 -1.4206  1.3063
 2353TIP3    H2 7066   5.324   4.691   5.111  0.0660 -2.4914 -0.6746
 2354TIP3   OH2 7067   1.577   2.124   0.351 -0.0126  0.3189  0.0210
 2354TIP3    H1 7068   1.649   2.182   0.375 -0.1874  0.4641  0.1910
 2354TIP3    H2 7069   1.608   2.078   0.273 -0.8860  2.5684 -1.7734
 2355TIP3   OH2 7070   1.055   0.940   4.874 -0.1402 -0.3560 -0.2832
 2355TIP3    H1 7071   0.972   0.985   4.885  0.0151 -0.3846  1.1297
 2355TIP3    H2 7072   1.058   0.876   4.945  2.2920  1.5149  1.4603
 2356TIP3   OH2 7073   2.330   5.425   0.498 -0.1446 -0.2084 -0.3478
 2356TIP3    H1 7074   2.292   5.353   0.548  0.6130 -0.3510  0.0357
 2356TIP3    H2 7075   2.269   5.497   0.511  0.2995 -0.0688  1.2614
 2357TIP3   OH2 7076   3.656   4.052   2.710 -0.5470  0.0365  0.0692
 2357TIP3    H1 7077   3.733   4.023   2.661 -0.3913  1.6669 -0.7318
 2357TIP3    H2 7078   3.589   4.066   2.642 -0.7309  1.1043  0.4526
 2358TIP3   OH2 7079   2.964   4.258   0.307 -0.3725  0.0688 -0.3968
 2358TIP3    H1 7080   2.940   4.305   0.227  0.8821 -0.2301 -0.9670
 2358TIP3    H2 7081   3.051   4.223   0.290 -0.5632 -1.0061  0.6664
 2359TIP3   OH2 7082   1.170   0.851   2.235 -0.0788 -0.2963  0.3660
 2359TIP3    H1 7083   1.162   0.889   2.322 -0.4220  0.4473  0.0204
 2359TIP3    H2 7084   1.181   0.757   2.250  1.4686 -0.0064  1.2771
 2360TIP3   OH2 7085   2.578   4.642   0.269  0.5545 -0.1194  0.2347
 2360TIP3    H1 7086   2.671   4.658   0.253  0.4700 -0.0973 -0.2765
 2360TIP3    H2 7087   2.566   4.658   0.362  0.3442  3.6289 -0.2791
 2361TIP3   OH2 7088   5.903   2.190   1.038  0.2109 -0.6052  0.3179
 2361TIP3    H1 7089   5.941   2.144   1.113  0.8657 -0.4612  0.0786
 2361TIP3    H2 7090   5.920   2.133   0.963 -1.7462 -1.4590  0.4770
 2362TIP3   OH2 7091   3.794   1.649   4.093  0.2568 -0.5060 -0.4171
 2362TIP3    H1 7092   3.715   1.694   4.123  1.1104  0.2740  0.7800
 2362TIP3    H2 7093   3.767   1.602   4.014 -1.4681 -0.5306  0.1455
 2363TIP3   OH2 7094   0.355   5.854   5.069 -0.1754 -0.3284  0.3152
 2363TIP3    H1 7095   0.440   5.883   5.101  0.1804 -1.4896  0.4980
 2363TIP3    H2 7096   0.292   5.918   5.103  0.3887 -0.5869  1.9336
 2364TIP3   OH2 7097   2.112   2.101   1.457 -0.2456  0.6913  0.5398
 2364TIP3    H1 7098   2.059   2.049   1.517  0.9868 -1.7783 -0.3899
 2364TIP3    H2 7099   2.202   2.079   1.479  0.2652 -0.4477 -2.2709
 2365TIP3   OH2 7100   4.497   4.534   4.369  0.4965  0.2545 -0.1536
 2365TIP3    H1 7101   4.529   4.444   4.362 -1.3837 -0.6854  2.0404
 2365TIP3    H2 7102   4.408   4.531   4.334  0.6980  1.4838 -0.8368
 2366TIP3   OH2 7103   3.749   2.730   0.847 -0.1928 -0.8341 -0.7359
 2366TIP3    H1 7104   3.760   2.740   0.942  0.6047 -1.3969 -0.7618
 2366TIP3    H2 7105   3.733   2.819   0.816 -2.2200 -0.8455  0.1242
 2367TIP3   OH2 7106   2.884   0.311   0.773  0.1207 -0.1360 -0.5284
 2367TIP3    H1 7107   2.971   0.352   0.764  0.1288 -0.0067  0.0929
 2367TIP3    H2 7108   2.867   0.313   0.867  0.7837 -2.9189 -0.2553
 2368TIP3   OH2 7109   3.773   2.472   0.740  0.1869  0.3090  0.2040
 2368TIP3    H1 7110   3.772   2.544   0.803  3.2175  1.8048 -1.2508
 2368TIP3    H2 7111   3.723   2.504   0.666 -0.5543 -0.1093  0.5153
 2369TIP3   OH2 7112   2.818   1.238   1.186  0.1625 -0.3251  0.2484
 2369TIP3    H1 7113   2.833   1.238   1.281  0.6410  0.0338  0.1795
 2369TIP3    H2 7114   2.863   1.317   1.155 -2.1364  1.0031  0.0510
 2370TIP3   OH2 7115   6.007   3.028   2.044  0.1542  0.2395  0.0044
 2370TIP3    H1 7116   5.939   2.962   2.030  1.3312 -0.5726 -2.6415
 2370TIP3    H2 7117   5.992   3.093   1.975 -0.4375  2.3825  2.0031
 2371TIP3   OH2 7118   5.525   5.891   2.656  0.4092  0.8830 -0.2276
 2371TIP3    H1 7119   5.533   5.802   2.620 -2.7513  0.7162 -0.8945
 2371TIP3    H2 7120   5.501   5.945   2.580 -1.6710  1.4527  0.7465
 2372TIP3   OH2 7121   2.823   5.238   1.668  0.3359  0.2708 -0.1584
 2372TIP3    H1 7122   2.779   5.254   1.751 -0.0775 -0.1138 -0.3023
 2372TIP3    H2 7123   2.916   5.246   1.689  0.2709 -0.5967  0.5161
 2373TIP3   OH2 7124   1.341   3.333   0.430 -0.2930  0.1349  0.1477
 2373TIP3    H1 7125   1.387   3.292   0.357  0.1069  1.0472 -0.1192
 2373TIP3    H2 7126   1.302   3.412   0.393 -0.0026  0.6601  0.9358
 2374TIP3   OH2 7127   6.174   0.625   4.612  0.1968 -0.5348  0.0762
 2374TIP3    H1 7128   6.268   0.647   4.614  0.4686 -1.6590  1.0619
 2374TIP3    H2 7129   6.156   0.605   4.520  1.0850 -0.9319 -0.0204
 2375TIP3   OH2 7130   5.126   2.015   0.197 -0.0209 -0.6011  0.5534
 2375TIP3    H1 7131   5.158   1.947   0.139  0.0072  0.3139 -0.5349
 2375TIP3    H2 7132   5.032   2.017   0.183 -0.0999 -0.8148  1.0316
 2376TIP3   OH2 7133   3.355   2.973   3.267  0.2194 -0.0868 -0.8117
 2376TIP3    H1 7134   3.320   2.884   3.262 -2.6139  0.7868  0.6411
 2376TIP3    H2 7135   3.399   2.976   3.352  1.2735 -0.3719 -1.3375
 2377TIP3   OH2 7136   0.305   2.327   4.652  0.2161 -0.2502  0.1404
 2377TIP3    H1 7137   0.362   2.261   4.615 -0.3712 -0.7792  0.1650
 2377TIP3    H2 7138   0.334   2.409   4.613  1.7445 -0.3358  1.0269
 2378TIP3   OH2 7139   5.940   1.405   2.356 -0.0336  0.6420 -0.3562
 2378TIP3    H1 7140   6.020   1.353   2.350  0.6275  1.7367 -1.5698
 2378TIP3    H2 7141   5.970   1.490   2.389 -0.5980  1.2010 -1.2375
 2379TIP3   OH2 7142   4.306   3.832   2.576 -0.7442 -0.5254  0.2780
 2379TIP3    H1 7143   4.376   3.876   2.526  0.1281 -1.7955  0.3295
 2379TIP3    H2 7144   4.226   3.877   2.550  0.3494  3.1434  2.5784
 2380TIP3   OH2 7145   2.346   1.575   3.779 -0.0282 -0.0259 -0.0139
 2380TIP3    H1 7146   2.390   1.561   3.694 -1.2344 -1.0327 -0.4985
 2380TIP3    H2 7147   2.403   1.636   3.825  0.8818  0.2125 -1.3872
 2381TIP3   OH2 7148   4.146   2.730   4.610 -0.7718 -0.8238 -0.0727
 2381TIP3    H1 7149   4.202   2.656   4.635 -0.5562 -0.9652 -0.9484
 2381TIP3    H2 7150   4.135   2.721   4.516 -0.6460  0.3391 -0.2116
 2382TIP3   OH2 7151   0.640   3.818   1.319  0.5755  0.2213  0.4602
 2382TIP3    H1 7152   0.555   3.777   1.301  0.3066  1.8525 -2.7187
 2382TIP3    H2 7153   0.703   3.761   1.276  0.6414  0.8804 -0.3491
 2383TIP3   OH2 7154   5.784   2.056   3.126 -0.3112 -0.1846 -0.0734
 2383TIP3    H1 7155   5.724   1.998   3.174  0.3371 -0.5831  0.2610
 2383TIP3    H2 7156   5.798   2.130   3.184 -1.0923  0.2967 -0.4764
 2384TIP3   OH2 7157   0.543   4.852   2.002 -0.9094  0.0400 -0.2839
 2384TIP3    H1 7158   0.452   4.880   2.008 -0.8561  0.3666 -0.9163
 2384TIP3    H2 7159   0.591   4.932   1.980  0.0735  0.7524  3.6538
 2385TIP3   OH2 7160   4.559   4.599   0.573 -0.6416 -0.1721 -0.6163
 2385TIP3    H1 7161   4.562   4.679   0.520 -0.0558 -0.5569 -1.1860
 2385TIP3    H2 7162   4.650   4.583   0.597 -0.3348 -2.0234 -2.6409
 2386TIP3   OH2 7163   5.290   5.138   3.831  0.1943 -0.1583  0.3553
 2386TIP3    H1 7164   5.331   5.083   3.898  1.5340  0.2349 -0.1104
 2386TIP3    H2 7165   5.211   5.173   3.873 -0.4684 -2.0595  0.8082
 2387TIP3   OH2 7166   0.293   5.295   2.886 -0.3874  0.1655  0.2118
 2387TIP3    H1 7167   0.255   5.244   2.957 -0.1524  1.9335  1.6844
 2387TIP3    H2 7168   0.219   5.312   2.827 -0.3366 -2.3530 -0.6869
 2388TIP3   OH2 7169   3.743   1.694   1.126 -0.3736  0.4492  0.2503
 2388TIP3    H1 7170   3.774   1.716   1.039  0.8793 -1.2985  0.2053
 2388TIP3    H2 7171   3.767   1.770   1.180 -0.4297  1.1901 -0.7322
 2389TIP3   OH2 7172   5.367   1.273   1.013 -0.6550  0.2642 -0.0692
 2389TIP3    H1 7173   5.410   1.338   1.069  0.5380 -1.0043  0.5365
 2389TIP3    H2 7174   5.309   1.225   1.072  0.1798 -0.7058 -0.0202
 2390TIP3   OH2 7175   5.786   0.096   1.955 -0.1123 -0.1426 -0.4474
 2390TIP3    H1 7176   5.814   0.010   1.987  0.0912 -0.4061 -1.3234
 2390TIP3    H2 7177   5.770   0.147   2.035 -2.0921 -1.5727  0.1451
 2391TIP3   OH2 7178   4.411   0.051   1.936 -0.1279  0.0191 -0.1712
 2391TIP3    H1 7179   4.352   0.057   1.861 -1.6575  1.9498  1.0821
 2391TIP3    H2 7180   4.352   0.045   2.012  1.2823  1.3645  1.0968
 2392TIP3   OH2 7181   1.858   1.436   4.551  0.3518 -0.3348 -0.5373
 2392TIP3    H1 7182   1.871   1.470   4.462  0.1465  0.2762 -0.3383
 2392TIP3    H2 7183   1.774   1.472   4.578 -0.1726 -1.4975 -0.5399
 2393TIP3   OH2 7184   2.732   3.917   1.811 -0.1207 -0.2612  0.0715
 2393TIP3    H1 7185   2.637   3.924   1.799 -0.1721  1.3865  1.1583
 2393TIP3    H2 7186   2.746   3.936   1.904  1.2490 -0.9935  0.0455
 2394TIP3   OH2 7187   2.401   1.624   3.476  0.0755 -0.4262  0.3537
 2394TIP3    H1 7188   2.433   1.672   3.399  0.3914  0.0700  0.7839
 2394TIP3    H2 7189   2.423   1.533   3.458 -0.2805 -0.3770 -0.3580
 2395TIP3   OH2 7190   1.865   1.397   3.797 -0.2081  0.1387  0.0248
 2395TIP3    H1 7191   1.910   1.455   3.736 -0.6291 -0.1987 -0.6251
 2395TIP3    H2 7192   1.841   1.453   3.871 -0.3786  0.7357 -0.4734
 2396TIP3   OH2 7193   3.627   2.463   4.597 -0.4409 -0.4244 -0.3776
 2396TIP3    H1 7194   3.678   2.455   4.678  0.4815  1.4166 -0.7209
 2396TIP3    H2 7195   3.686   2.507   4.536 -1.5174 -0.7570 -1.7138
 2397TIP3   OH2 7196   5.378   3.255   2.296  0.3028  0.0914 -0.4510
 2397TIP3    H1 7197   5.395   3.328   2.356 -0.0500  0.6046 -0.9630
 2397TIP3    H2 7198   5.319   3.291   2.230  1.6333 -0.0979 -1.8137
 2398TIP3   OH2 7199   5.498   5.285   2.339 -0.2217 -0.4025  0.6261
 2398TIP3    H1 7200   5.415   5.331   2.327  0.1082  0.3204  1.0540
 2398TIP3    H2 7201   5.563   5.343   2.300  0.2003 -0.4938  1.1792
 2399TIP3   OH2 7202   3.112   5.333   3.766 -0.3852  0.3109 -0.3803
 2399TIP3    H1 7203   3.203   5.318   3.792 -0.5271  0.2533  0.1000
 2399TIP3    H2 7204   3.101   5.282   3.685 -0.4384 -1.0364  0.4316
 2400TIP3   OH2 7205   4.679   0.607   3.903  0.2314 -0.0576  0.2662
 2400TIP3    H1 7206   4.734   0.542   3.947 -1.1070 -0.5962  1.1948
 2400TIP3    H2 7207   4.607   0.623   3.964 -0.8402  0.3674 -1.0589
 2401TIP3   OH2 7208   4.106   1.144   5.169  0.3197  0.3509  0.1727
 2401TIP3    H1 7209   4.144   1.231   5.179 -0.3805  0.5863  0.8792
 2401TIP3    H2 7210   4.026   1.158   5.118  0.1261  0.1473  0.4160
 2402TIP3   OH2 7211   2.562   1.533   2.825 -0.2648 -0.1482  0.2355
 2402TIP3    H1 7212   2.558   1.503   2.915  2.4734  0.1809  0.5376
 2402TIP3    H2 7213   2.633   1.482   2.785 -1.0526  0.1004 -1.5918
 2403TIP3   OH2 7214   1.178   2.935   2.365 -0.1232 -0.3169 -0.0528
 2403TIP3    H1 7215   1.132   2.931   2.449  0.3436 -1.4064  0.1753
 2403TIP3    H2 7216   1.235   2.858   2.365  1.8087  1.0193 -0.2697
 2404TIP3   OH2 7217   0.840   4.530   1.543 -0.0795 -0.2035 -0.4521
 2404TIP3    H1 7218   0.826   4.443   1.580 -0.0710 -0.7333 -1.6448
 2404TIP3    H2 7219   0.824   4.590   1.615  2.0700 -1.2636  1.0359
 2405TIP3   OH2 7220   1.828   1.196   3.587 -0.0662  0.3919  0.4831
 2405TIP3    H1 7221   1.830   1.107   3.624  1.9147  0.7019  1.2471
 2405TIP3    H2 7222   1.844   1.253   3.663 -2.7608  1.5621  0.2791
 2406TIP3   OH2 7223   3.383   3.571   4.168 -0.1772 -0.0003 -0.3037
 2406TIP3    H1 7224   3.345   3.490   4.132 -0.1328 -1.9008  3.3760
 2406TIP3    H2 7225   3.476   3.552   4.176 -0.0201  0.7822 -0.2076
 2407TIP3   OH2 7226   0.813   2.600   4.143  0.8660  0.0848 -0.5046
 2407TIP3    H1 7227   0.793   2.679   4.193 -1.2480 -1.9302  2.1097
 2407TIP3    H2 7228   0.748   2.600   4.072  1.4464  1.0599 -1.0673
 2408TIP3   OH2 7229   6.287   1.701   1.351 -0.3629  0.3577  0.3049
 2408TIP3    H1 7230   6.235   1.622   1.371 -0.9108  0.9448  1.3245
 2408TIP3    H2 7231   6.331   1.681   1.269 -1.2214 -0.6598  0.0671
 2409TIP3   OH2 7232   2.757   1.717   0.523  0.5664 -0.2347 -0.1021
 2409TIP3    H1 7233   2.725   1.638   0.566  0.6449 -0.1344  0.1432
 2409TIP3    H2 7234   2.801   1.686   0.445  0.6983 -0.4413  0.0534
 2410TIP3   OH2 7235   3.650   3.714   2.014 -0.8180  0.4891 -0.5795
 2410TIP3    H1 7236   3.682   3.627   2.039  1.4008  1.4044 -0.0064
 2410TIP3    H2 7237   3.622   3.704   1.923 -0.5755 -0.8159 -0.5245
 2411TIP3   OH2 7238   1.975   0.551   2.706 -0.0598 -0.0471 -0.3944
 2411TIP3    H1 7239   2.058   0.510   2.733 -0.0360 -0.1580 -0.6272
 2411TIP3    H2 7240   1.966   0.627   2.762 -0.5655 -0.8777  0.6881
 2412TIP3   OH2 7241   3.876   5.154   1.709 -0.4509 -0.0435 -0.0003
 2412TIP3    H1 7242   3.883   5.145   1.804 -1.4444 -0.1248  0.0757
 2412TIP3    H2 7243   3.788   5.122   1.688 -0.8122  1.3419 -0.7637
 2413TIP3   OH2 7244   3.055   2.921   0.047 -0.0987  0.5325  0.7427
 2413TIP3    H1 7245   3.122   2.958  -0.011  2.0095 -0.8048  2.1984
 2413TIP3    H2 7246   3.041   2.989   0.113 -0.9580  1.2040 -0.0949
 2414TIP3   OH2 7247   4.784   3.367   4.665  0.4086  0.4054 -0.3978
 2414TIP3    H1 7248   4.734   3.335   4.589  0.9284  0.8631 -0.9453
 2414TIP3    H2 7249   4.817   3.452   4.637  1.2261  0.2550  0.0802
 2415TIP3   OH2 7250   3.411   0.213   4.561 -0.7804  0.3526 -0.0366
 2415TIP3    H1 7251   3.465   0.141   4.527  0.5134  0.4858  1.6059
 2415TIP3    H2 7252   3.445   0.291   4.517 -1.1938  0.1712 -0.7034
 2416TIP3   OH2 7253   4.827   0.273   3.433  0.6105 -0.2255 -0.1950
 2416TIP3    H1 7254   4.847   0.240   3.521  2.9422  0.3407 -0.4286
 2416TIP3    H2 7255   4.827   0.195   3.377 -1.0385 -0.6060  0.2979
 2417TIP3   OH2 7256   1.721   4.976   0.663  0.1312 -0.0558  0.0893
 2417TIP3    H1 7257   1.815   4.991   0.662  0.9034 -3.7095 -2.5245
 2417TIP3    H2 7258   1.685   5.045   0.607  1.4366  0.5365 -0.0403
 2418TIP3   OH2 7259   4.126   5.254   2.723  0.1756 -0.0979  0.0710
 2418TIP3    H1 7260   4.063   5.242   2.794 -0.4007  0.6608 -0.2989
 2418TIP3    H2 7261   4.075   5.293   2.652  0.5196 -1.7282 -1.1232
 2419TIP3   OH2 7262   3.898   1.404   1.105 -0.1374 -0.0835 -0.1299
 2419TIP3    H1 7263   3.912   1.326   1.051 -1.0300  0.6025 -1.4028
 2419TIP3    H2 7264   3.847   1.463   1.050 -0.2525  1.0542  1.1310
 2420TIP3   OH2 7265   2.984   2.267   0.588 -0.1408 -0.4073 -0.1301
 2420TIP3    H1 7266   3.023   2.213   0.519 -0.2908  0.6341 -1.0659
 2420TIP3    H2 7267   3.042   2.254   0.663  1.1554 -0.0871 -1.0260
 2421TIP3   OH2 7268   1.591   0.195   0.381 -0.4030 -0.2078  0.2712
 2421TIP3    H1 7269   1.668   0.220   0.431  0.0100  1.6822 -1.1719
 2421TIP3    H2 7270   1.547   0.278   0.362 -0.9662 -0.9141 -1.7425
 2422TIP3   OH2 7271   5.271   3.006   2.201 -0.7351 -0.2876 -0.2998
 2422TIP3    H1 7272   5.307   3.084   2.243  1.3055 -2.2667  1.9780
 2422TIP3    H2 7273   5.178   3.008   2.222 -0.7543  1.5854 -0.4355
 2423TIP3   OH2 7274   5.715   0.078   1.078 -0.1703 -0.1270 -0.2865
 2423TIP3    H1 7275   5.725   0.068   0.984 -2.9612 -1.5114 -0.5205
 2423TIP3    H2 7276   5.734  -0.009   1.113  0.6742  0.3334  0.4443
 2424TIP3   OH2 7277   3.347   2.316   2.812  0.1535  0.1777  0.1160
 2424TIP3    H1 7278   3.300   2.234   2.823 -0.9414  0.5147 -1.5801
 2424TIP3    H2 7279   3.296   2.379   2.863 -1.7276  0.6551 -2.1432
 2425TIP3   OH2 7280   5.444   2.573   2.623  0.2400  0.7556  0.0552
 2425TIP3    H1 7281   5.536   2.588   2.643  0.1943  0.8188  0.2199
 2425TIP3    H2 7282   5.444   2.492   2.571  0.3964  0.8105 -0.0320
 2426TIP3   OH2 7283   2.689   4.357   2.301 -0.3200 -0.0094 -0.8862
 2426TIP3    H1 7284   2.721   4.446   2.285  0.6282 -0.1864 -0.0841
 2426TIP3    H2 7285   2.603   4.355   2.259 -1.4538  2.0599  1.0492
 2427TIP3   OH2 7286   4.191   3.357   4.800 -0.2000  0.1772  0.1817
 2427TIP3    H1 7287   4.140   3.400   4.731 -0.5722 -1.3296 -0.5301
 2427TIP3    H2 7288   4.131   3.293   4.837  0.9877 -1.2379 -0.2778
 2428TIP3   OH2 7289   3.078   5.204   0.995  0.3579  0.8875  0.5030
 2428TIP3    H1 7290   2.992   5.221   1.034  0.8550  1.0316  1.5840
 2428TIP3    H2 7291   3.106   5.288   0.959  0.8498  1.3206  1.8342
 2429TIP3   OH2 7292   4.324   3.173   0.858 -0.4154  0.2433  0.4024
 2429TIP3    H1 7293   4.416   3.148   0.859 -0.8423 -1.4702  0.3867
 2429TIP3    H2 7294   4.295   3.162   0.948 -0.4983  1.2667  0.5087
 2430TIP3   OH2 7295   3.989   0.662   2.244 -0.0853 -0.1246  0.3928
 2430TIP3    H1 7296   3.972   0.569   2.260  0.4233 -0.1805  0.6216
 2430TIP3    H2 7297   3.959   0.705   2.324  0.1231 -0.1404  0.4786
 2431TIP3   OH2 7298   0.835   5.415   1.414  0.3046  0.4403  0.9782
 2431TIP3    H1 7299   0.862   5.422   1.506  0.2152  1.9788  0.9052
 2431TIP3    H2 7300   0.873   5.332   1.385  0.8647  0.2268  2.2309
 2432TIP3   OH2 7301   2.774   5.619   2.768  0.1474  0.6825 -0.0253
 2432TIP3    H1 7302   2.812   5.593   2.852 -1.1605 -1.2409  0.0113
 2432TIP3    H2 7303   2.739   5.706   2.784 -1.5943 -0.3043  1.9677
 2433TIP3   OH2 7304   1.407   4.882   4.820  0.0793 -0.5774  0.3978
 2433TIP3    H1 7305   1.363   4.800   4.842  0.1014 -0.6724  0.0763
 2433TIP3    H2 7306   1.461   4.862   4.744  0.2811 -0.3286  0.4733
 2434TIP3   OH2 7307   1.806   3.106   0.194 -0.1944  0.0882 -1.0425
 2434TIP3    H1 7308   1.837   3.098   0.284 -2.0856  0.6302 -0.2918
 2434TIP3    H2 7309   1.821   3.197   0.171 -1.5990  0.4782 -0.4987
 2435TIP3   OH2 7310   2.236   0.732   5.049  0.2916 -0.0046  0.3314
 2435TIP3    H1 7311   2.241   0.771   5.136 -1.5593 -0.0806  0.5094
 2435TIP3    H2 7312   2.255   0.804   4.989 -1.3323  0.8021  0.7238
 2436TIP3   OH2 7313   5.054   1.676   4.823  0.3056 -0.0698 -0.2874
 2436TIP3    H1 7314   5.109   1.640   4.754 -0.2763 -1.0737 -0.2408
 2436TIP3    H2 7315   5.088   1.638   4.904  0.2960  0.2497 -0.1308
 2437TIP3   OH2 7316   3.986   1.072   4.035  0.0225  0.0062 -0.7951
 2437TIP3    H1 7317   3.930   1.147   4.012  0.6268  0.1586 -1.7894
 2437TIP3    H2 7318   3.935   1.025   4.101 -2.2667 -1.0516 -3.1457
 2438TIP3   OH2 7319   1.843   5.662   2.069 -0.2193 -0.2611  0.1716
 2438TIP3    H1 7320   1.903   5.588   2.079  0.2501  0.1590  0.5032
 2438TIP3    H2 7321   1.826   5.691   2.159 -0.9102 -0.3610  0.0815
 2439TIP3   OH2 7322   3.516   4.327   0.760 -0.3186 -0.2183 -0.1724
 2439TIP3    H1 7323   3.533   4.258   0.697 -3.1928  1.0112 -2.5165
 2439TIP3    H2 7324   3.435   4.302   0.803 -0.7434  1.0737 -0.1650
 2440TIP3   OH2 7325   4.217   5.855   1.174 -0.5469 -0.1874 -0.1869
 2440TIP3    H1 7326   4.255   5.882   1.258 -0.2147 -0.7645 -0.1452
 2440TIP3    H2 7327   4.123   5.862   1.188 -0.4895 -0.0566  0.1609
 2441TIP3   OH2 7328   5.412   5.646   2.444  0.4591 -0.6481 -0.3428
 2441TIP3    H1 7329   5.376   5.729   2.411  0.2742 -1.0515 -1.1918
 2441TIP3    H2 7330   5.358   5.626   2.520 -1.2254 -1.2808 -1.6383
 2442TIP3   OH2 7331   3.007   4.569   2.887  0.0425  0.0082 -0.0949
 2442TIP3    H1 7332   2.956   4.646   2.864 -0.5194 -0.3097  0.0867
 2442TIP3    H2 7333   3.095   4.588   2.852 -0.8971 -0.7135 -3.1628
 2443TIP3   OH2 7334   3.650   2.492   0.451 -0.0298 -0.0795  0.3685
 2443TIP3    H1 7335   3.696   2.566   0.411  1.2685 -0.4428  1.1102
 2443TIP3    H2 7336   3.606   2.449   0.378 -0.6986  1.3383 -0.0932
 2444TIP3   OH2 7337   1.185   1.795   0.527  0.9822  0.6755 -0.0970
 2444TIP3    H1 7338   1.205   1.869   0.469 -0.5174 -0.4509 -2.1577
 2444TIP3    H2 7339   1.260   1.736   0.517  2.2210  1.8424  1.6100
 2445TIP3   OH2 7340   5.316   2.199   5.214 -0.2467  0.1172  0.3655
 2445TIP3    H1 7341   5.338   2.290   5.193  1.3987  0.1545  2.0144
 2445TIP3    H2 7342   5.335   2.151   5.134 -0.7790  1.1523 -0.4137
 2446TIP3   OH2 7343   3.852   1.476   1.373 -0.1923  0.2442 -0.4579
 2446TIP3    H1 7344   3.795   1.403   1.400  1.7555 -0.6317  1.6716
 2446TIP3    H2 7345   3.849   1.474   1.277 -1.0235 -1.9880 -0.4620
 2447TIP3   OH2 7346   4.595   3.140   3.969 -0.1857  0.2133 -0.4989
 2447TIP3    H1 7347   4.616   3.067   4.028  2.7500  1.0930 -0.2878
 2447TIP3    H2 7348   4.592   3.217   4.026 -1.5923  0.5077 -0.9427
 2448TIP3   OH2 7349   0.049   1.103   4.050  0.9181  0.0607 -0.3052
 2448TIP3    H1 7350  -0.015   1.165   4.014 -0.2282 -0.0564  1.3717
 2448TIP3    H2 7351   0.035   1.023   4.000  1.5382  0.7554 -1.6441
 2449TIP3   OH2 7352   3.553   5.154   3.867  0.1861 -0.3706  0.1412
 2449TIP3    H1 7353   3.625   5.210   3.897 -1.4850  2.8937 -1.4895
 2449TIP3    H2 7354   3.486   5.164   3.934  0.1062 -0.9782  0.1547
 2450TIP3   OH2 7355   6.144   0.966   2.125  0.7249  0.4589  0.3416
 2450TIP3    H1 7356   6.124   0.987   2.034 -0.0396 -0.2063  0.3377
 2450TIP3    H2 7357   6.058   0.958   2.167  0.8877 -2.5451  0.3386
 2451TIP3   OH2 7358   4.817   4.770   4.619  0.1335  0.2306  0.1049
 2451TIP3    H1 7359   4.757   4.745   4.549 -0.3471  1.1514  0.1719
 2451TIP3    H2 7360   4.759   4.795   4.692  0.6211 -1.3840  1.0968
 2452TIP3   OH2 7361   5.437   5.733   4.086  0.2644  0.2790 -0.2045
 2452TIP3    H1 7362   5.418   5.826   4.073 -0.6419  0.0811 -0.3404
 2452TIP3    H2 7363   5.515   5.716   4.033 -0.0038  0.7903 -0.7622
 2453TIP3   OH2 7364   3.445   1.100   3.881  0.5087 -0.0734  0.2579
 2453TIP3    H1 7365   3.447   1.037   3.953 -0.2696 -0.4184  0.0019
 2453TIP3    H2 7366   3.351   1.120   3.870  0.6302  0.1035 -0.5363
 2454TIP3   OH2 7367   4.297   3.554   1.962  0.9167  0.0360 -0.4258
 2454TIP3    H1 7368   4.222   3.600   2.001  0.2454 -0.2575 -1.3435
 2454TIP3    H2 7369   4.291   3.465   1.996  0.4463 -0.1671 -1.0200
 2455TIP3   OH2 7370   1.802   3.564   1.169 -0.2315  0.0294 -0.0858
 2455TIP3    H1 7371   1.804   3.650   1.127  0.8728  0.1478  0.1703
 2455TIP3    H2 7372   1.861   3.572   1.244 -1.5168 -0.4286  1.0136
 2456TIP3   OH2 7373   4.599   1.542   1.204  0.2454  0.0744  0.0320
 2456TIP3    H1 7374   4.528   1.541   1.268  0.0388 -0.4351 -0.1960
 2456TIP3    H2 7375   4.566   1.490   1.130  0.7226  0.1146 -0.2183
 2457TIP3   OH2 7376   3.916   6.015   2.139  0.3346 -0.2057 -0.2490
 2457TIP3    H1 7377   4.008   6.020   2.165 -0.1582 -0.3099  1.6291
 2457TIP3    H2 7378   3.902   5.922   2.120  0.1380 -0.5417  1.4270
 2458TIP3   OH2 7379   5.411   2.243   0.276  0.6464  0.1060  0.4290
 2458TIP3    H1 7380   5.333   2.258   0.223  0.8251  1.3892  0.5029
 2458TIP3    H2 7381   5.390   2.165   0.328  0.1926 -0.7430 -0.9756
 2459TIP3   OH2 7382   1.682   3.053   4.194  0.1939  0.0555  0.9849
 2459TIP3    H1 7383   1.692   2.958   4.193  0.3650  0.0715 -0.1536
 2459TIP3    H2 7384   1.768   3.086   4.217  1.0812 -0.0031 -1.9132
 2460TIP3   OH2 7385   1.414   3.230   2.081 -0.4901 -0.0479 -0.2702
 2460TIP3    H1 7386   1.396   3.136   2.082  1.0739 -0.3692  0.0773
 2460TIP3    H2 7387   1.497   3.239   2.128 -0.8699  1.5686  0.1597
 2461TIP3   OH2 7388   0.869   3.680   1.241  0.2489  0.8831  0.7635
 2461TIP3    H1 7389   0.943   3.690   1.301 -0.1826  0.2937  1.4158
 2461TIP3    H2 7390   0.907   3.640   1.163  0.9197  2.1924  0.4022
 2462TIP3   OH2 7391   0.927   3.917   1.522  0.8969 -0.0347  0.2386
 2462TIP3    H1 7392   0.852   3.927   1.464  1.2287 -0.0331 -0.1975
 2462TIP3    H2 7393   0.925   3.995   1.577  0.1062 -0.4310  0.7908
 2463TIP3   OH2 7394   4.085   0.439   3.741  0.4096 -0.2280  0.1153
 2463TIP3    H1 7395   4.125   0.494   3.673 -1.8045 -1.2131 -2.1205
 2463TIP3    H2 7396   4.144   0.364   3.749  0.8003 -0.0054 -0.5870
 2464TIP3   OH2 7397   4.591   4.462   3.986 -0.1590  0.6001 -0.5232
 2464TIP3    H1 7398   4.630   4.397   3.928 -1.1081  1.3049 -2.0256
 2464TIP3    H2 7399   4.608   4.429   4.075  2.9903  0.4111 -1.0596
 2465TIP3   OH2 7400   5.325   2.295   1.399  0.5124  0.1195 -0.0731
 2465TIP3    H1 7401   5.302   2.225   1.461  2.5463  0.0867  0.7026
 2465TIP3    H2 7402   5.251   2.355   1.402  0.7090  0.3395  2.7394
 2466TIP3   OH2 7403   5.702   4.476   4.690  0.4217 -0.0961  0.0050
 2466TIP3    H1 7404   5.731   4.402   4.637  0.4831 -0.0878  0.0274
 2466TIP3    H2 7405   5.760   4.475   4.766 -0.5378 -0.9431  0.7514
 2467TIP3   OH2 7406   2.460   1.555   1.429  0.3446  0.0958 -0.1393
 2467TIP3    H1 7407   2.539   1.583   1.383  0.5482 -0.9622 -0.4602
 2467TIP3    H2 7408   2.458   1.609   1.509  0.3334  1.4983 -1.0471
 2468TIP3   OH2 7409   1.588   3.965   0.735  0.2022 -0.2630  0.3137
 2468TIP3    H1 7410   1.665   3.913   0.711 -1.2536 -2.2302 -0.3221
 2468TIP3    H2 7411   1.558   3.928   0.817  0.0991  0.7056  0.7246
 2469TIP3   OH2 7412   3.065   5.096   5.164 -0.1892  0.8194 -0.4173
 2469TIP3    H1 7413   3.083   5.180   5.122  1.4396 -0.2451 -1.9904
 2469TIP3    H2 7414   3.030   5.041   5.094 -0.4810 -0.0670  0.3960
 2470TIP3   OH2 7415   2.714   2.118   0.572 -0.0132 -0.9189  0.0895
 2470TIP3    H1 7416   2.780   2.187   0.566 -0.5769 -0.2132  1.6334
 2470TIP3    H2 7417   2.698   2.093   0.481  1.0329  0.1829 -0.4257
 2471TIP3   OH2 7418   2.974   2.357   3.186  0.1696 -0.0685  0.2288
 2471TIP3    H1 7419   2.939   2.273   3.216 -0.5692  0.4534  0.8546
 2471TIP3    H2 7420   2.959   2.417   3.258  0.8899  0.5654 -0.1286
 2472TIP3   OH2 7421   2.083   4.366   3.205  0.4392 -0.1970  0.5203
 2472TIP3    H1 7422   1.992   4.366   3.234  0.3126 -2.5447  0.3050
 2472TIP3    H2 7423   2.132   4.329   3.278  0.9497 -0.6602 -0.0476
 2473TIP3   OH2 7424   2.606   0.275   1.343 -0.4263  0.2634  0.2460
 2473TIP3    H1 7425   2.661   0.197   1.353 -0.4400  0.3473  1.0236
 2473TIP3    H2 7426   2.657   0.345   1.383 -1.4781  0.1656  1.8426
 2474TIP3   OH2 7427   2.884   4.810   3.724  0.9155  0.0692  0.1160
 2474TIP3    H1 7428   2.931   4.892   3.736  1.0235 -0.1928  1.6550
 2474TIP3    H2 7429   2.861   4.809   3.631 -0.6878  2.6723  0.3863
 2475TIP3   OH2 7430   2.558   0.960   1.229 -0.1593  0.0051  0.0001
 2475TIP3    H1 7431   2.547   0.923   1.141  1.2864 -0.1746 -0.1267
 2475TIP3    H2 7432   2.475   0.943   1.273 -1.1853  0.7568 -1.5610
 2476TIP3   OH2 7433   1.898   4.577   2.765  0.0788 -0.4994  0.4450
 2476TIP3    H1 7434   1.990   4.578   2.738 -0.2399 -0.3061 -0.6821
 2476TIP3    H2 7435   1.899   4.612   2.855  0.9459  0.8880 -0.0706
 2477TIP3   OH2 7436   4.459   4.763   3.497 -0.8086  0.6261 -0.4879
 2477TIP3    H1 7437   4.431   4.842   3.450 -2.2611  0.0732 -0.5990
 2477TIP3    H2 7438   4.461   4.695   3.430 -0.0526  0.4486 -0.2936
 2478TIP3   OH2 7439   3.494   0.839   2.159 -0.0656  0.2062  0.0677
 2478TIP3    H1 7440   3.471   0.753   2.194 -0.7550  0.2347 -0.2865
 2478TIP3    H2 7441   3.515   0.822   2.067  0.2318  0.3475  0.1110
 2479TIP3   OH2 7442   2.598   3.729   0.365  0.0916  0.7780  0.3905
 2479TIP3    H1 7443   2.687   3.696   0.381 -0.5364 -1.8927 -1.0266
 2479TIP3    H2 7444   2.606   3.782   0.286 -0.0685 -2.7871 -2.2573
 2480TIP3   OH2 7445   2.808   0.460   4.086 -0.1792 -0.2016 -0.1617
 2480TIP3    H1 7446   2.844   0.430   4.170  0.7459 -0.3306 -0.5816
 2480TIP3    H2 7447   2.801   0.380   4.034 -0.1968 -0.0449 -0.4017
 2481TIP3   OH2 7448   5.342   1.245   3.070 -0.1172  0.4519 -0.0319
 2481TIP3    H1 7449   5.332   1.257   3.165  0.5289 -0.0740  0.1119
 2481TIP3    H2 7450   5.343   1.150   3.059  0.0801  0.5131 -0.5429
 2482TIP3   OH2 7451   3.824   1.052   1.008  0.1736  0.0322 -0.5343
 2482TIP3    H1 7452   3.889   0.995   0.966 -0.8418 -1.3979 -0.2481
 2482TIP3    H2 7453   3.767   0.992   1.055 -2.3324  1.0520 -2.0739
 2483TIP3   OH2 7454   1.489   0.810   2.879  0.0324  0.1056 -1.2933
 2483TIP3    H1 7455   1.424   0.880   2.874 -2.0455 -1.5036  0.7150
 2483TIP3    H2 7456   1.564   0.850   2.923 -0.5997  1.3946 -1.3448
 2484TIP3   OH2 7457   6.201   4.501   0.490  0.5528 -0.2632 -0.3667
 2484TIP3    H1 7458   6.232   4.533   0.405 -1.2460  2.5181 -0.1195
 2484TIP3    H2 7459   6.107   4.520   0.489 -0.3689 -3.8829  0.7486
 2485TIP3   OH2 7460   6.245   0.421   1.008  0.3713  0.7609  0.7454
 2485TIP3    H1 7461   6.191   0.499   0.993  0.4116  0.9993  1.7767
 2485TIP3    H2 7462   6.330   0.456   1.034  0.8044  0.3754 -0.0886
 2486TIP3   OH2 7463   3.591   1.142   3.031  0.3817  0.4854 -0.1511
 2486TIP3    H1 7464   3.611   1.049   3.023 -0.4043  0.2912  0.0339
 2486TIP3    H2 7465   3.643   1.172   3.105  2.1644  0.6560 -1.4229
 2487TIP3   OH2 7466   3.414   5.776   0.088 -0.3502  0.2342  0.2723
 2487TIP3    H1 7467   3.366   5.751   0.167 -0.8220  0.2854  0.0101
 2487TIP3    H2 7468   3.355   5.752   0.016 -0.7517  1.9272  0.0031
 2488TIP3   OH2 7469   6.269   2.287   3.192 -0.3265 -0.3907 -0.5506
 2488TIP3    H1 7470   6.351   2.322   3.228 -0.3820  1.7964 -2.2933
 2488TIP3    H2 7471   6.272   2.194   3.211  2.0989 -0.2076  0.3207
 2489TIP3   OH2 7472   3.016   5.201   4.738  0.1732 -0.3018 -0.1038
 2489TIP3    H1 7473   2.972   5.158   4.664  0.7495  0.0527 -0.6547
 2489TIP3    H2 7474   3.103   5.223   4.705  0.5091 -0.3320  0.7504
 2490TIP3   OH2 7475   5.886   1.969  -0.021  0.4113  0.2989  0.4298
 2490TIP3    H1 7476   5.901   1.921   0.060  1.2527  1.3193  0.8954
 2490TIP3    H2 7477   5.938   2.048  -0.013  0.6962  0.3272 -1.1999
 2491TIP3   OH2 7478   0.155   2.001   2.286  0.3551 -0.1538 -0.2653
 2491TIP3    H1 7479   0.089   2.044   2.342 -1.6301 -3.1988 -0.0207
 2491TIP3    H2 7480   0.224   2.066   2.277 -0.4081  1.5149  3.5834
 2492TIP3   OH2 7481   0.820   0.111   4.858 -0.4360  0.5099  0.1312
 2492TIP3    H1 7482   0.862   0.173   4.799  2.2650 -0.4552  0.8879
 2492TIP3    H2 7483   0.825   0.027   4.813 -0.2138  0.1230  0.8615
 2493TIP3   OH2 7484   3.174   2.439   1.014 -0.1023 -0.0846  0.4566
 2493TIP3    H1 7485   3.165   2.507   0.947 -0.1143 -0.5945 -0.0599
 2493TIP3    H2 7486   3.098   2.382   1.000 -0.3811  0.0890  1.2276
 2494TIP3   OH2 7487   6.241   2.196   4.796  0.0944 -0.5433  0.1161
 2494TIP3    H1 7488   6.301   2.193   4.721 -1.9393  1.1801 -1.6968
 2494TIP3    H2 7489   6.272   2.271   4.848 -1.2943  1.3831 -1.6726
 2495TIP3   OH2 7490   5.155   2.058   0.968  0.2183 -0.4819  0.2646
 2495TIP3    H1 7491   5.180   2.150   0.965  0.1893 -0.4226  1.3287
 2495TIP3    H2 7492   5.089   2.048   0.900  0.4233  0.2138 -0.0400
 2496TIP3   OH2 7493   6.248   0.598   2.426  0.3619  0.5449  0.2015
 2496TIP3    H1 7494   6.213   0.550   2.501 -1.5007 -0.3616 -1.1527
 2496TIP3    H2 7495   6.193   0.677   2.421  0.0763  0.3063 -0.5279
 2497TIP3   OH2 7496   0.574   4.419   1.867 -0.2894 -0.1022  0.7346
 2497TIP3    H1 7497   0.607   4.354   1.930  0.3211  0.8203  1.4035
 2497TIP3    H2 7498   0.537   4.488   1.922 -1.1980 -0.0142  0.0236
 2498TIP3   OH2 7499   6.196   2.436   1.315 -0.1012  0.2311 -0.0452
 2498TIP3    H1 7500   6.273   2.416   1.368 -0.4321  0.2479  0.4461
 2498TIP3    H2 7501   6.137   2.481   1.375  0.3320  2.0682 -0.9243
 2499TIP3   OH2 7502   4.162   1.684   0.053  0.0396 -0.2018  0.2822
 2499TIP3    H1 7503   4.075   1.714   0.027  0.2665 -0.6078 -1.0336
 2499TIP3    H2 7504   4.146   1.623   0.125 -0.7495 -0.0963  0.2062
 2500TIP3   OH2 7505   3.385   0.688   1.108 -0.1350  0.0619  0.4794
 2500TIP3    H1 7506   3.313   0.626   1.115  0.9471 -1.1393  1.4421
 2500TIP3    H2 7507   3.379   0.722   1.018 -0.3146 -2.0429 -0.3685
 2501TIP3   OH2 7508   3.987   5.715   4.993 -0.1271  0.4247 -0.5657
 2501TIP3    H1 7509   3.956   5.779   4.929 -0.2637  0.1794 -0.7455
 2501TIP3    H2 7510   4.022   5.643   4.940 -2.4269 -0.9000 -0.4346
 2502TIP3   OH2 7511   1.549   0.409   1.618  0.7166  0.2542 -0.1333
 2502TIP3    H1 7512   1.558   0.406   1.713 -1.0012 -0.8073  0.0264
 2502TIP3    H2 7513   1.481   0.345   1.597  0.2818  1.2214 -1.9727
 2503TIP3   OH2 7514   2.700   4.258   1.490  0.1871 -0.1899  0.0803
 2503TIP3    H1 7515   2.725   4.167   1.474 -3.0810 -1.2984  0.6529
 2503TIP3    H2 7516   2.680   4.293   1.403 -0.3570 -0.6279  0.0235
 2504TIP3   OH2 7517   0.646   2.438   0.873  0.3233 -0.1575  0.1751
 2504TIP3    H1 7518   0.669   2.346   0.862  0.7185 -0.2864  1.7758
 2504TIP3    H2 7519   0.561   2.447   0.832 -0.8598 -1.8424  2.0524
 2505TIP3   OH2 7520   0.471   0.253   4.018  0.0859  0.3919 -0.1159
 2505TIP3    H1 7521   0.466   0.179   4.079  2.0308  0.2340 -0.0690
 2505TIP3    H2 7522   0.395   0.243   3.961 -1.0549 -0.2220  1.4267
 2506TIP3   OH2 7523   3.205   2.084   2.810  0.4158  0.0754 -0.9238
 2506TIP3    H1 7524   3.172   1.997   2.833 -0.5237  0.5494 -0.3934
 2506TIP3    H2 7525   3.190   2.092   2.716 -1.1379  0.3142 -0.6831
 2507TIP3   OH2 7526   5.446   2.801   4.569 -0.1580 -0.7215 -0.0030
 2507TIP3    H1 7527   5.398   2.863   4.515  0.5316 -2.1607 -2.4053
 2507TIP3    H2 7528   5.379   2.760   4.624 -1.0940 -0.1743 -0.7237
 2508TIP3   OH2 7529   6.131   1.653   1.698 -0.3178  0.3266 -0.5346
 2508TIP3    H1 7530   6.117   1.603   1.618  1.8392 -2.8321  0.8386
 2508TIP3    H2 7531   6.060   1.624   1.756  0.2903 -0.3774 -0.1146
 2509TIP3   OH2 7532   0.417   1.887   3.476 -0.3378 -0.1133 -0.3904
 2509TIP3    H1 7533   0.487   1.894   3.411  0.3684 -2.1346  0.0786
 2509TIP3    H2 7534   0.444   1.947   3.546  1.2502 -1.2239  0.0165
 2510TIP3   OH2 7535   3.948   1.098   4.796 -0.0707 -0.3181 -0.4945
 2510TIP3    H1 7536   3.948   1.165   4.727  0.6784  1.3811  1.0694
 2510TIP3    H2 7537   3.986   1.021   4.755  1.9374  1.1602 -1.5566
 2511TIP3   OH2 7538   4.048   2.868   2.122  0.8417 -0.1090  0.2384
 2511TIP3    H1 7539   4.117   2.895   2.061  0.6857  0.4511  0.3011
 2511TIP3    H2 7540   4.057   2.928   2.196 -1.1035  1.4406 -0.7005
 2512TIP3   OH2 7541   5.217   5.843   1.210 -0.0795 -0.3658 -0.2269
 2512TIP3    H1 7542   5.268   5.796   1.276 -1.5096 -0.6784  0.7163
 2512TIP3    H2 7543   5.199   5.777   1.143  2.7740  0.3562 -1.8664
 2513TIP3   OH2 7544   3.680   1.165   0.359 -0.0298 -0.4624 -0.8409
 2513TIP3    H1 7545   3.757   1.125   0.320  0.5644 -0.4338  0.2627
 2513TIP3    H2 7546   3.612   1.098   0.351  0.9599 -1.7966  1.0263
 2514TIP3   OH2 7547   0.344   2.956   2.884 -0.2808 -0.9951  0.0297
 2514TIP3    H1 7548   0.385   2.870   2.876 -1.0205 -1.5261  1.5105
 2514TIP3    H2 7549   0.381   3.007   2.812  2.5277 -1.5899  0.9107
 2515TIP3   OH2 7550   0.070   1.569   1.155  0.1092 -0.3189 -0.7610
 2515TIP3    H1 7551   0.062   1.571   1.060  2.9567  0.7658 -1.0645
 2515TIP3    H2 7552   0.127   1.495   1.174 -0.5807 -0.6407  0.1391
 2516TIP3   OH2 7553   0.972   4.069   3.698 -0.5298 -0.1238 -0.5213
 2516TIP3    H1 7554   1.024   4.041   3.623 -1.5495 -1.5810 -0.7386
 2516TIP3    H2 7555   1.035   4.108   3.759  0.6350 -0.8968 -1.2037
 2517TIP3   OH2 7556   3.700   4.343   1.650  0.2428 -0.6834  0.2070
 2517TIP3    H1 7557   3.625   4.383   1.606  0.8239 -0.5501 -0.7009
 2517TIP3    H2 7558   3.663   4.298   1.725 -0.8649 -1.3561 -0.7088
 2518TIP3   OH2 7559   6.152   3.415   4.357 -0.0427 -0.2108  0.6613
 2518TIP3    H1 7560   6.123   3.428   4.266 -0.8060 -0.4589  0.8667
 2518TIP3    H2 7561   6.135   3.499   4.399 -1.9652 -0.8063  1.1730
 2519TIP3   OH2 7562   0.259   2.572   0.472 -0.2010 -0.0339  0.1968
 2519TIP3    H1 7563   0.181   2.623   0.491 -0.3583  0.0024 -0.5241
 2519TIP3    H2 7564   0.227   2.497   0.421  0.1243 -0.4648  0.6182
 2520TIP3   OH2 7565   3.701   1.948   3.315 -0.4485 -0.0426  0.3545
 2520TIP3    H1 7566   3.684   1.864   3.274 -0.2596 -0.6609  1.5155
 2520TIP3    H2 7567   3.744   1.927   3.398  0.4198  1.2239  0.2704
 2521TIP3   OH2 7568   3.335   0.224   3.487 -0.2822 -0.0426 -0.3703
 2521TIP3    H1 7569   3.403   0.239   3.421 -0.2428 -2.0575 -0.8501
 2521TIP3    H2 7570   3.382   0.187   3.562 -0.5157  1.0361  0.3452
 2522TIP3   OH2 7571   3.793   0.293   0.492 -0.2919 -0.5602  0.0716
 2522TIP3    H1 7572   3.808   0.384   0.519  1.5301 -1.4685  2.4508
 2522TIP3    H2 7573   3.870   0.271   0.440  0.5020 -1.4442  1.5764
 2523TIP3   OH2 7574   5.183   0.912   3.588  0.3942 -0.0633 -0.1070
 2523TIP3    H1 7575   5.097   0.953   3.598  0.0985 -0.0128 -2.3870
 2523TIP3    H2 7576   5.235   0.949   3.659 -0.4891  2.6394 -0.7298
 2524TIP3   OH2 7577   3.430   1.694   1.367  0.1351 -0.6086  0.0660
 2524TIP3    H1 7578   3.438   1.635   1.292  2.8704  1.5168 -1.4741
 2524TIP3    H2 7579   3.502   1.669   1.425 -1.1540 -1.3429  1.4324
 2525TIP3   OH2 7580   4.912   1.652   0.709  0.1277  0.4145  0.3823
 2525TIP3    H1 7581   4.849   1.719   0.684  1.7216  1.2793 -1.5779
 2525TIP3    H2 7582   4.985   1.663   0.648  0.9127 -2.4427  0.6624
 2526TIP3   OH2 7583   1.976   3.752   3.734 -0.2497  0.1104 -0.9255
 2526TIP3    H1 7584   1.936   3.667   3.716  0.1878 -0.3172  0.0481
 2526TIP3    H2 7585   1.910   3.799   3.785  1.0312 -1.2421  2.2119
 2527TIP3   OH2 7586   2.356   2.372   3.242  0.6173 -0.3574 -0.3775
 2527TIP3    H1 7587   2.435   2.323   3.264 -0.1454 -0.4408  2.4460
 2527TIP3    H2 7588   2.283   2.315   3.265 -0.2838  0.6834 -0.5345
 2528TIP3   OH2 7589   3.052   5.903   3.020 -0.2955 -0.4361 -0.4101
 2528TIP3    H1 7590   3.125   5.912   3.081  0.4402 -2.7710 -0.8455
 2528TIP3    H2 7591   3.016   5.992   3.012  2.5897  0.8395 -0.3337
 2529TIP3   OH2 7592   2.415   5.527   1.042 -0.2863  0.9023  0.0440
 2529TIP3    H1 7593   2.321   5.526   1.022 -0.2762  0.6705 -0.0005
 2529TIP3    H2 7594   2.454   5.470   0.976 -0.3122 -0.2682  0.9914
 2530TIP3   OH2 7595   5.354   4.186   1.213  0.0335 -0.3995 -0.1933
 2530TIP3    H1 7596   5.290   4.134   1.261  0.2133 -1.3463 -0.9434
 2530TIP3    H2 7597   5.301   4.237   1.152 -0.1621  0.4932  0.7047
 2531TIP3   OH2 7598   0.043   3.145   1.034  0.6503 -0.5069 -0.4265
 2531TIP3    H1 7599   0.039   3.099   0.950  2.0095 -2.8520  0.7109
 2531TIP3    H2 7600   0.132   3.130   1.066  0.3096  0.7252  1.2356
 2532TIP3   OH2 7601   6.164   2.568   4.446 -0.0673  0.0512  0.3984
 2532TIP3    H1 7602   6.252   2.534   4.427 -0.2972  0.0296 -0.6509
 2532TIP3    H2 7603   6.137   2.521   4.525  1.0604  0.4155  1.0340
 2533TIP3   OH2 7604   4.667   0.029   1.308 -0.0647 -0.4575  0.3985
 2533TIP3    H1 7605   4.611   0.101   1.280 -0.7555 -1.2192 -0.2664
 2533TIP3    H2 7606   4.612  -0.049   1.296 -0.1789 -0.9397  3.2496
 2534TIP3   OH2 7607   1.959   5.261   3.486 -0.1887  0.3293  0.1391
 2534TIP3    H1 7608   1.975   5.337   3.429 -2.1744  1.2254  0.6759
 2534TIP3    H2 7609   1.960   5.297   3.575  1.8645 -0.8768  0.6551
 2535TIP3   OH2 7610   4.483   5.450   3.016 -0.4929  0.1783  0.5650
 2535TIP3    H1 7611   4.570   5.441   3.054 -0.1671  3.1708  0.7707
 2535TIP3    H2 7612   4.484   5.393   2.939  1.4746 -0.1934  0.8171
 2536TIP3   OH2 7613   1.681   1.302   0.225 -0.3364  0.3447 -0.3913
 2536TIP3    H1 7614   1.600   1.339   0.189 -0.0718 -0.6291 -2.0503
 2536TIP3    H2 7615   1.693   1.219   0.179  0.2130 -0.8510  1.7387
 2537TIP3   OH2 7616   2.159   0.409   3.514 -0.2499  0.1603 -0.8160
 2537TIP3    H1 7617   2.128   0.492   3.478 -0.3671  0.1029 -0.8487
 2537TIP3    H2 7618   2.219   0.376   3.447  0.6079  0.7176 -0.3354
 2538TIP3   OH2 7619   1.905   3.371   0.635  0.1418  0.1255  0.1180
 2538TIP3    H1 7620   1.812   3.367   0.612  0.5235  0.8597 -1.8079
 2538TIP3    H2 7621   1.907   3.416   0.719 -1.4073 -3.0109  1.9969
 2539TIP3   OH2 7622   0.844   2.793   2.958  0.0411 -0.7420  0.2795
 2539TIP3    H1 7623   0.937   2.812   2.969  0.7021 -3.9500  1.1554
 2539TIP3    H2 7624   0.831   2.785   2.864  1.2812 -2.7195  0.2327
 2540TIP3   OH2 7625   5.928   4.229   3.552 -0.1366  0.4677 -0.1690
 2540TIP3    H1 7626   6.008   4.215   3.602  0.3239  2.4841 -0.2397
 2540TIP3    H2 7627   5.922   4.325   3.543 -2.2453  0.3310 -0.6704
 2541TIP3   OH2 7628   6.279   3.123   3.154 -0.0263  0.5717  0.1119
 2541TIP3    H1 7629   6.357   3.076   3.123 -1.0270 -1.6984  0.8354
 2541TIP3    H2 7630   6.225   3.134   3.077 -1.0446 -2.1322  0.3360
 2542TIP3   OH2 7631   1.844   3.674   2.790 -0.4943 -0.7667  0.1351
 2542TIP3    H1 7632   1.813   3.628   2.711  0.0691 -1.5876  0.3745
 2542TIP3    H2 7633   1.938   3.656   2.792 -0.5717 -1.1179  1.2262
 2543TIP3   OH2 7634   0.326   5.836   2.072 -0.4981  0.3251  0.1228
 2543TIP3    H1 7635   0.318   5.838   2.167  0.5482  1.8626  0.2152
 2543TIP3    H2 7636   0.238   5.813   2.041 -0.1965 -3.0855  1.4624
 2544TIP3   OH2 7637   4.636   0.648   0.255  0.2234  0.4126 -0.1572
 2544TIP3    H1 7638   4.557   0.632   0.306 -0.1780  2.2093 -0.1583
 2544TIP3    H2 7639   4.623   0.735   0.216  3.0738  1.7685  1.5883
 2545TIP3   OH2 7640   1.431   0.293   1.120 -0.4770  0.6376 -1.0170
 2545TIP3    H1 7641   1.412   0.383   1.147 -1.2631  0.4100 -0.7810
 2545TIP3    H2 7642   1.371   0.276   1.048  1.1197  0.9962 -2.4997
 2546TIP3   OH2 7643   1.549   0.011   2.476 -0.0641 -0.0733 -0.7208
 2546TIP3    H1 7644   1.598   0.050   2.403  0.0241  0.5096 -0.3544
 2546TIP3    H2 7645   1.457   0.021   2.451 -0.0695  0.9654 -0.3437
 2547TIP3   OH2 7646   1.503   2.033   2.073 -0.4181  0.2259  0.7823
 2547TIP3    H1 7647   1.501   1.964   2.139 -2.3078  0.2129  0.7569
 2547TIP3    H2 7648   1.532   1.989   1.993  3.4633  0.5475  1.8223
 2548TIP3   OH2 7649   5.649   2.165   3.690 -0.5440 -0.2023  0.2415
 2548TIP3    H1 7650   5.634   2.144   3.782 -0.0965  0.9907  0.5947
 2548TIP3    H2 7651   5.732   2.120   3.669  0.4846  1.2412  1.0368
 2549TIP3   OH2 7652   0.845   4.647   4.049 -0.5968 -0.0419  0.4572
 2549TIP3    H1 7653   0.864   4.668   4.140 -0.6903  0.6621  0.3256
 2549TIP3    H2 7654   0.827   4.553   4.049  1.5954 -0.5126  0.7843
 2550TIP3   OH2 7655   0.893   2.142   4.393  0.6651  0.0681 -0.2393
 2550TIP3    H1 7656   0.804   2.168   4.371  0.5222 -0.1219  0.1232
 2550TIP3    H2 7657   0.917   2.078   4.326 -0.6854 -2.4793  1.5533
 2551TIP3   OH2 7658   2.923   2.423   2.120 -0.0968 -0.0532 -0.0601
 2551TIP3    H1 7659   2.833   2.416   2.152 -0.9707  2.4591 -1.6398
 2551TIP3    H2 7660   2.977   2.422   2.199 -1.6504  0.1348  1.0449
 2552TIP3   OH2 7661   2.571   0.056   3.162  0.0652  0.4442  0.6699
 2552TIP3    H1 7662   2.626  -0.003   3.215  1.1556 -0.4541 -1.3217
 2552TIP3    H2 7663   2.599   0.144   3.187  1.7554  0.0133  0.4199
 2553TIP3   OH2 7664   5.363   0.758   4.311  0.0450 -0.4302 -0.3725
 2553TIP3    H1 7665   5.403   0.704   4.243 -1.6030  0.0707 -1.8008
 2553TIP3    H2 7666   5.359   0.846   4.273  0.9251  0.3365  1.1771
 2554TIP3   OH2 7667   1.132   0.170   4.770  0.2573 -0.1282  0.2882
 2554TIP3    H1 7668   1.047   0.211   4.783 -0.3166 -1.0846 -0.3366
 2554TIP3    H2 7669   1.195   0.241   4.784 -0.6466  0.6727  0.4168
 2555TIP3   OH2 7670   0.409   3.680   1.244  0.0605  0.0577 -0.4051
 2555TIP3    H1 7671   0.338   3.637   1.291  1.9385 -1.6945  0.9918
 2555TIP3    H2 7672   0.383   3.673   1.151 -1.1189 -1.4250 -0.0162
 2556TIP3   OH2 7673   6.321   1.806   0.221  0.1476 -0.5809 -0.2887
 2556TIP3    H1 7674   6.386   1.736   0.220 -0.4714 -1.1517 -1.3943
 2556TIP3    H2 7675   6.282   1.800   0.308  1.4578 -0.3066  0.3528
 2557TIP3   OH2 7676   0.950   0.338   1.004  0.2475 -0.1996  0.5830
 2557TIP3    H1 7677   0.966   0.290   0.923  0.6189  0.6602  0.1363
 2557TIP3    H2 7678   0.915   0.272   1.065 -1.7092 -0.5302 -0.7948
 2558TIP3   OH2 7679   3.111   2.789   0.945  0.4522  0.1948 -0.0239
 2558TIP3    H1 7680   3.018   2.798   0.922  0.1983  0.6881  1.1196
 2558TIP3    H2 7681   3.149   2.740   0.873 -0.8913 -0.8379 -0.0672
 2559TIP3   OH2 7682   5.763   3.432   2.338 -0.2165  0.2194 -0.1443
 2559TIP3    H1 7683   5.852   3.452   2.309 -0.1150 -2.1252 -1.7537
 2559TIP3    H2 7684   5.709   3.498   2.295  0.6479  1.1613  0.1737
 2560TIP3   OH2 7685   2.008   0.755   0.324  0.0888  0.0206  0.3175
 2560TIP3    H1 7686   2.082   0.760   0.385 -0.6659  0.3292  1.2222
 2560TIP3    H2 7687   2.008   0.663   0.295  0.5517 -0.0912  0.6547
 2561TIP3   OH2 7688   5.396  -0.012   5.176 -0.4715 -0.1487 -0.2710
 2561TIP3    H1 7689   5.347   0.029   5.105 -1.6018  1.6583  1.4475
 2561TIP3    H2 7690   5.487   0.013   5.160 -0.7508  0.4895 -0.9223
 2562TIP3   OH2 7691   0.426   5.526   4.886 -0.7992  0.2675 -0.0813
 2562TIP3    H1 7692   0.449   5.570   4.804 -1.3458  0.4658 -0.1268
 2562TIP3    H2 7693   0.430   5.594   4.952  1.0339 -0.1579  0.3231
 2563TIP3   OH2 7694   3.641   2.826   2.304  0.3880  0.3296 -0.5578
 2563TIP3    H1 7695   3.552   2.843   2.273 -0.4636 -0.3452  1.3537
 2563TIP3    H2 7696   3.677   2.763   2.242 -1.2146 -0.9372 -0.2661
 2564TIP3   OH2 7697   2.997   1.036   2.553  0.2102  0.7089 -0.0490
 2564TIP3    H1 7698   3.065   0.988   2.506 -1.8582 -1.7945 -0.7384
 2564TIP3    H2 7699   3.000   1.001   2.642  1.4347  2.4813  0.6629
 2565TIP3   OH2 7700   2.192   4.008   2.685  0.3309  0.2349  0.0484
 2565TIP3    H1 7701   2.116   3.981   2.736  0.5187 -1.5005 -0.5254
 2565TIP3    H2 7702   2.265   3.959   2.724  0.5279 -0.9032 -1.6600
 2566TIP3   OH2 7703   0.179   3.755   1.634  0.1504 -0.0208 -0.2463
 2566TIP3    H1 7704   0.246   3.739   1.700  0.5337  1.3053 -0.2886
 2566TIP3    H2 7705   0.176   3.850   1.625 -1.5870 -0.0480 -0.4091
 2567TIP3   OH2 7706   6.307   3.338   3.404 -0.1390 -0.2413 -0.6837
 2567TIP3    H1 7707   6.370   3.396   3.446  0.1618  0.0582 -1.5292
 2567TIP3    H2 7708   6.360   3.266   3.369 -0.5169 -1.0911  0.4319
 2568TIP3   OH2 7709   4.702   2.435   1.956  0.0321 -0.3628  0.3668
 2568TIP3    H1 7710   4.621   2.400   1.919 -0.1051  0.4645 -0.1389
 2568TIP3    H2 7711   4.771   2.381   1.917  0.0209  1.3410 -2.3085
 2569TIP3   OH2 7712   0.410   5.507   3.418  0.0639 -0.3065 -0.2494
 2569TIP3    H1 7713   0.337   5.557   3.381 -0.8672 -1.3954  0.0631
 2569TIP3    H2 7714   0.440   5.560   3.492  0.1851  0.5713 -0.9073
 2570TIP3   OH2 7715   3.253   5.016   2.069 -0.5349 -0.3983  0.1558
 2570TIP3    H1 7716   3.304   4.972   2.137 -2.4045 -1.3021  1.0586
 2570TIP3    H2 7717   3.188   5.067   2.117  0.1901  1.6769 -0.9269
 2571TIP3   OH2 7718   0.349   5.584   4.272 -0.0155 -0.2576  0.3583
 2571TIP3    H1 7719   0.372   5.579   4.364  1.0847 -1.6718  0.0358
 2571TIP3    H2 7720   0.411   5.647   4.235 -0.5265  0.3917  0.5877
 2572TIP3   OH2 7721   3.972   0.669   0.582 -0.0057  0.4898 -0.7710
 2572TIP3    H1 7722   3.939   0.758   0.568  2.2373  1.4855 -0.1687
 2572TIP3    H2 7723   4.008   0.643   0.497  1.1598  0.9940 -0.4458
 2573TIP3   OH2 7724   4.665   1.837   0.274  0.0023 -0.0643 -0.5215
 2573TIP3    H1 7725   4.709   1.917   0.303 -0.4399 -0.4235  1.2347
 2573TIP3    H2 7726   4.583   1.868   0.236 -0.4593  0.3094  0.7268
 2574TIP3   OH2 7727   3.892   3.068   2.999  0.0165 -0.3748 -0.5141
 2574TIP3    H1 7728   3.832   3.142   3.000 -1.3041 -1.4053 -0.8716
 2574TIP3    H2 7729   3.940   3.075   3.082 -1.2014 -0.0017  0.1774
 2575TIP3   OH2 7730   6.225  -0.011   0.247  0.3651  0.0151 -0.2698
 2575TIP3    H1 7731   6.134   0.011   0.266  1.1390  0.0318  4.8977
 2575TIP3    H2 7732   6.269   0.074   0.238  0.2091  0.0180 -1.1883
 2576TIP3   OH2 7733   2.409   2.946   0.666 -0.6041 -0.0403  0.2819
 2576TIP3    H1 7734   2.429   3.022   0.611 -0.5513  1.4368  2.2509
 2576TIP3    H2 7735   2.492   2.898   0.671 -0.6336 -0.2399 -0.9669
 2577TIP3   OH2 7736   2.903   2.693   0.106 -1.0409  0.1132 -0.2558
 2577TIP3    H1 7737   2.954   2.766   0.073  0.0499 -1.3865 -2.0945
 2577TIP3    H2 7738   2.839   2.674   0.037  0.2357 -2.0871 -0.9418
 2578TIP3   OH2 7739   1.657   5.857   0.907  0.3989 -0.2893 -0.0565
 2578TIP3    H1 7740   1.639   5.844   0.814  0.4072 -1.1879  0.0595
 2578TIP3    H2 7741   1.639   5.772   0.947  1.9960 -0.3868  0.5095
 2579TIP3   OH2 7742   5.847   3.918   1.479 -0.0577  0.0882  0.0057
 2579TIP3    H1 7743   5.930   3.958   1.452 -0.1296 -1.8108 -3.7522
 2579TIP3    H2 7744   5.780   3.978   1.448 -0.0874  0.0172 -0.0703
 2580TIP3   OH2 7745   4.952   4.875   4.915 -0.4425  0.3599  0.1592
 2580TIP3    H1 7746   5.008   4.877   4.838 -1.4234  1.0948 -0.5508
 2580TIP3    H2 7747   4.939   4.966   4.939  0.0352  0.1405  1.3553
 2581TIP3   OH2 7748   2.166   0.292   2.414  0.3712 -0.2098 -0.1105
 2581TIP3    H1 7749   2.238   0.340   2.455 -1.1667  0.4591  1.9669
 2581TIP3    H2 7750   2.138   0.347   2.342  1.1564  0.0930 -0.1966
 2582TIP3   OH2 7751   4.281   3.071   1.997  0.0831 -0.4883  0.2880
 2582TIP3    H1 7752   4.273   3.164   2.018  0.1542 -0.3728 -0.1860
 2582TIP3    H2 7753   4.345   3.037   2.059 -0.1221 -0.2708  0.6171
 2583TIP3   OH2 7754   5.240   0.264   0.052 -0.0514  0.3765 -0.5948
 2583TIP3    H1 7755   5.237   0.357   0.029  1.4328  0.8405  0.9597
 2583TIP3    H2 7756   5.257   0.220  -0.031 -0.1985  1.5257 -1.2583
 2584TIP3   OH2 7757   5.257   1.509   3.077 -0.2657 -0.8588  0.1889
 2584TIP3    H1 7758   5.257   1.597   3.040 -1.9395 -1.6452 -1.8494
 2584TIP3    H2 7759   5.320   1.460   3.025  1.4783 -0.6903  2.0031
 2585TIP3   OH2 7760   0.510   4.586   0.861 -0.3991 -0.1870 -0.4573
 2585TIP3    H1 7761   0.423   4.615   0.837 -0.2388 -0.5276 -1.4917
 2585TIP3    H2 7762   0.562   4.666   0.869 -0.6972 -0.0138 -0.2590
 2586TIP3   OH2 7763   2.317   1.793   3.265 -0.1921 -0.0526  0.3904
 2586TIP3    H1 7764   2.257   1.807   3.339 -0.3959  1.2535 -0.0004
 2586TIP3    H2 7765   2.322   1.878   3.222  0.5345 -0.6057 -0.6537
 2587TIP3   OH2 7766   4.346   3.259   2.361  0.1798  0.3148  0.1694
 2587TIP3    H1 7767   4.361   3.188   2.424  2.1767  1.5638  1.2049
 2587TIP3    H2 7768   4.261   3.294   2.384  0.2449 -0.1915  1.2441
 2588TIP3   OH2 7769   4.711   1.084   0.133 -0.4920 -0.4002  0.0056
 2588TIP3    H1 7770   4.704   1.142   0.209 -0.0651 -1.0125  0.5209
 2588TIP3    H2 7771   4.621   1.059   0.113 -0.5726 -0.5617  0.5648
 2589TIP3   OH2 7772   0.793   0.165   3.131  0.3748 -0.2028 -0.4309
 2589TIP3    H1 7773   0.814   0.256   3.109  0.2004  0.1540  0.7965
 2589TIP3    H2 7774   0.734   0.171   3.206 -0.4933 -1.3124 -0.9906
 2590TIP3   OH2 7775   3.187   4.049   4.565  0.1043 -0.6410 -0.4093
 2590TIP3    H1 7776   3.203   4.049   4.470 -0.4755 -0.4972 -0.5136
 2590TIP3    H2 7777   3.244   3.981   4.599  0.9732 -0.0891 -0.7436
 2591TIP3   OH2 7778   4.518   2.071   3.658  0.0725 -0.2767 -0.5229
 2591TIP3    H1 7779   4.514   2.008   3.586  0.6164 -1.8782  0.7778
 2591TIP3    H2 7780   4.608   2.065   3.691  0.1381  1.2026 -0.3540
 2592TIP3   OH2 7781   3.255   0.457   1.981 -0.1774 -0.0697  0.1324
 2592TIP3    H1 7782   3.339   0.447   1.937 -0.5464  1.6357 -1.0510
 2592TIP3    H2 7783   3.235   0.551   1.975 -1.5489 -0.2162  1.5492
 2593TIP3   OH2 7784   1.123   2.910   0.586  0.2260 -1.1479 -0.2667
 2593TIP3    H1 7785   1.045   2.963   0.571  1.0813  1.4973  3.2354
 2593TIP3    H2 7786   1.181   2.931   0.513 -0.2275  1.3569  0.0036
 2594TIP3   OH2 7787   3.683   5.106   2.223  0.0459 -0.6251  0.2601
 2594TIP3    H1 7788   3.592   5.117   2.251  0.6378  2.2489  1.4119
 2594TIP3    H2 7789   3.728   5.076   2.302  0.5224  0.5345  0.4378
 2595TIP3   OH2 7790   0.917   5.456   1.743 -0.4423  0.7462  0.1573
 2595TIP3    H1 7791   0.914   5.362   1.729 -0.0587  0.6401  0.7645
 2595TIP3    H2 7792   0.838   5.476   1.793  0.1113  0.5538  1.1211
 2596TIP3   OH2 7793   4.048   2.714   3.510  0.2991  0.1299  0.1379
 2596TIP3    H1 7794   4.028   2.629   3.471  0.7465  0.8322 -1.7286
 2596TIP3    H2 7795   3.992   2.776   3.463  0.5262  0.9627  0.9370
 2597TIP3   OH2 7796   5.621   3.748   1.998 -0.0375  0.3568 -0.2403
 2597TIP3    H1 7797   5.714   3.725   2.009  0.2334  2.0289  1.2721
 2597TIP3    H2 7798   5.623   3.837   1.962 -1.0286  1.0631  1.3669
 2598TIP3   OH2 7799   4.983   4.094   4.227 -0.1322  0.0509 -0.1468
 2598TIP3    H1 7800   5.019   4.170   4.180 -0.0122 -0.2695 -0.5726
 2598TIP3    H2 7801   5.053   4.069   4.288 -0.7626  1.2426  1.1199
 2599TIP3   OH2 7802   1.970   3.975   1.315 -0.1019 -0.0427  0.0657
 2599TIP3    H1 7803   1.960   3.968   1.410 -1.0910 -0.7694 -0.0746
 2599TIP3    H2 7804   1.882   3.958   1.281  0.6301 -1.9003 -1.0663
 2600TIP3   OH2 7805   0.764   4.694   1.945 -0.8959 -0.2170  0.1362
 2600TIP3    H1 7806   0.687   4.725   1.993 -0.6415  0.0069  0.3988
 2600TIP3    H2 7807   0.831   4.760   1.961 -0.7669 -0.2104 -0.4166
 2601TIP3   OH2 7808   0.985   1.388   2.211  0.2013 -0.1288  0.0750
 2601TIP3    H1 7809   1.003   1.481   2.224  1.4791 -0.0475 -1.9014
 2601TIP3    H2 7810   1.071   1.347   2.211 -0.0762 -0.8275 -2.1918
 2602TIP3   OH2 7811   1.331   1.980   0.733  0.0595  0.0912  0.2642
 2602TIP3    H1 7812   1.283   2.052   0.693 -0.8017 -0.4968  0.2159
 2602TIP3    H2 7813   1.372   2.018   0.811  1.8171  1.2602 -1.1683
 2603TIP3   OH2 7814   4.754   4.250   0.287 -0.1610  0.0107  0.4633
 2603TIP3    H1 7815   4.689   4.316   0.309 -0.4874 -0.6119  1.4764
 2603TIP3    H2 7816   4.802   4.236   0.369  0.3649 -0.4875  0.0794
 2604TIP3   OH2 7817   4.755   5.133   5.176 -0.2629  0.1554  0.4613
 2604TIP3    H1 7818   4.808   5.145   5.098  0.5213  1.5168  1.1577
 2604TIP3    H2 7819   4.735   5.039   5.178 -1.0497  0.2132 -1.8076
 2605TIP3   OH2 7820   2.083   4.886   3.129 -0.4400  0.5276  0.7052
 2605TIP3    H1 7821   2.113   4.955   3.188  0.9925  0.1578  0.4522
 2605TIP3    H2 7822   2.105   4.918   3.041  2.6816 -1.2388  0.6766
 2606TIP3   OH2 7823   5.531   5.207   0.444 -0.0222 -0.9040  0.2512
 2606TIP3    H1 7824   5.614   5.227   0.488 -0.8280  0.1299  1.3880
 2606TIP3    H2 7825   5.475   5.282   0.465 -0.3589 -0.1500 -2.9205
 2607TIP3   OH2 7826   5.106   3.808   0.906  0.0177 -0.2242 -0.0628
 2607TIP3    H1 7827   5.200   3.797   0.916  0.2235 -0.6920 -2.0098
 2607TIP3    H2 7828   5.073   3.721   0.884 -0.5452  0.2727 -1.3185
 2608TIP3   OH2 7829   3.715   4.693   1.307  0.3078  0.2335  0.1853
 2608TIP3    H1 7830   3.750   4.757   1.369 -1.4938  1.5635 -0.0876
 2608TIP3    H2 7831   3.775   4.695   1.233  0.9674  0.6519  0.7178
 2609TIP3   OH2 7832   0.925   4.549   5.098 -0.1426  0.3119  0.0847
 2609TIP3    H1 7833   0.972   4.519   5.020  0.5346  1.1375  0.1674
 2609TIP3    H2 7834   0.833   4.534   5.077 -0.0035  0.8744 -1.0291
 2610TIP3   OH2 7835   4.962   3.167   4.612 -0.3491  0.0153 -0.1857
 2610TIP3    H1 7836   4.993   3.213   4.534 -1.8689 -0.5428 -1.1573
 2610TIP3    H2 7837   4.894   3.224   4.648 -0.9353 -0.5855 -0.3282
 2611TIP3   OH2 7838   1.737   5.934   3.451 -0.3884 -0.4867  0.1962
 2611TIP3    H1 7839   1.753   5.993   3.525 -0.2702 -0.3141  0.0347
 2611TIP3    H2 7840   1.811   5.949   3.392 -1.7285  1.2468 -1.1700
 2612TIP3   OH2 7841   3.403   5.775   3.337 -0.0425 -0.3310  0.2447
 2612TIP3    H1 7842   3.467   5.844   3.352  0.4416 -0.5899 -0.5094
 2612TIP3    H2 7843   3.456   5.697   3.319 -0.5247 -0.2676 -1.6884
 2613TIP3   OH2 7844   5.066   5.149   2.954  0.2430  0.2303 -0.1219
 2613TIP3    H1 7845   5.058   5.096   2.875 -0.1800 -1.5392  1.0424
 2613TIP3    H2 7846   5.136   5.107   3.004  0.1832  1.0229  0.6473
 2614TIP3   OH2 7847   5.351   5.855   1.552  0.5026  0.1230 -0.3226
 2614TIP3    H1 7848   5.265   5.845   1.593  0.5053 -0.8926 -0.5265
 2614TIP3    H2 7849   5.343   5.933   1.497  0.7486  1.9960  2.1750
 2615TIP3   OH2 7850   0.175   0.765   2.492  0.1956  0.1360  0.5336
 2615TIP3    H1 7851   0.139   0.757   2.580  0.1470  1.1185  0.6129
 2615TIP3    H2 7852   0.108   0.727   2.435 -1.2698  2.3738  0.6332
 2616TIP3   OH2 7853   5.189   2.896   0.265 -0.1874  0.4308 -0.0360
 2616TIP3    H1 7854   5.112   2.916   0.318  0.2573  2.5014 -0.0657
 2616TIP3    H2 7855   5.178   2.948   0.186  0.3110 -0.7850 -0.9269
 2617TIP3   OH2 7856   3.344   5.352   3.266  0.0911 -0.0807  0.4529
 2617TIP3    H1 7857   3.354   5.266   3.308 -2.0107 -0.6311 -0.0602
 2617TIP3    H2 7858   3.253   5.354   3.236 -0.3121  2.8673  1.5782
 2618TIP3   OH2 7859   4.767   0.131   5.160  0.2878  0.1165 -0.2639
 2618TIP3    H1 7860   4.844   0.171   5.199  0.9310 -1.0810 -0.2498
 2618TIP3    H2 7861   4.726   0.201   5.109  0.2324  1.3244  1.3556
 2619TIP3   OH2 7862   1.837   4.236   3.753  0.0508  0.1688 -0.0231
 2619TIP3    H1 7863   1.902   4.196   3.810 -1.2571 -0.1897  1.2765
 2619TIP3    H2 7864   1.766   4.172   3.748  0.0309  0.2672 -1.9338
 2620TIP3   OH2 7865   4.875   3.850   3.290  0.2027 -0.0130  0.3577
 2620TIP3    H1 7866   4.929   3.928   3.280  0.0172 -0.0306 -1.1211
 2620TIP3    H2 7867   4.800   3.878   3.342  0.7765  0.4434  0.9556
 2621TIP3   OH2 7868   5.629   1.274   1.624  0.6311  0.0029 -0.2136
 2621TIP3    H1 7869   5.677   1.275   1.542  1.2516  0.4856  0.1434
 2621TIP3    H2 7870   5.689   1.313   1.687  0.1854 -0.4107  0.4825
 2622TIP3   OH2 7871   2.322   5.561   1.927  0.1089 -0.6903 -0.2754
 2622TIP3    H1 7872   2.280   5.612   1.997  0.7049 -0.0591 -0.3703
 2622TIP3    H2 7873   2.272   5.479   1.924 -2.6582  0.9015 -1.9662
 2623TIP3   OH2 7874   4.554   3.743   4.919  0.0090  0.8072 -0.1108
 2623TIP3    H1 7875   4.472   3.708   4.883  0.0638  1.7357 -1.2106
 2623TIP3    H2 7876   4.526   3.818   4.972  0.2272  2.5154 -2.2549
 2624TIP3   OH2 7877   2.202   3.643   3.334  0.1260  0.3732  0.1037
 2624TIP3    H1 7878   2.189   3.577   3.266 -0.4672 -0.5939  1.1315
 2624TIP3    H2 7879   2.291   3.627   3.366  0.2850  0.6147 -0.2159
 2625TIP3   OH2 7880   4.439   4.756   2.206 -0.1435 -0.1332 -0.4258
 2625TIP3    H1 7881   4.506   4.692   2.181 -0.6169 -0.9217  0.2846
 2625TIP3    H2 7882   4.471   4.794   2.288 -0.6975 -0.7229  0.0699
 2626TIP3   OH2 7883   0.743   0.563   4.896 -1.1916  0.3162 -0.7123
 2626TIP3    H1 7884   0.687   0.604   4.831  0.7591  2.3917 -1.2221
 2626TIP3    H2 7885   0.750   0.628   4.966 -1.1011 -0.7740  0.3260
 2627TIP3   OH2 7886   1.143   1.018   3.761 -0.0593  0.3851 -0.2715
 2627TIP3    H1 7887   1.171   1.108   3.772  0.4852  0.0897  0.8963
 2627TIP3    H2 7888   1.062   1.024   3.711  0.8449  1.4042 -1.6715
 2628TIP3   OH2 7889   5.721   3.389   0.477 -0.3021 -0.4833  0.0193
 2628TIP3    H1 7890   5.657   3.363   0.411 -0.4045  1.0069 -0.4870
 2628TIP3    H2 7891   5.745   3.478   0.454  0.7283 -0.4359  1.1774
 2629TIP3   OH2 7892   0.590   2.454   1.191  0.2248 -0.1161 -0.4509
 2629TIP3    H1 7893   0.555   2.366   1.204 -0.7539  0.2846 -0.2802
 2629TIP3    H2 7894   0.547   2.485   1.111  0.9880  0.0081 -0.8278
 2630TIP3   OH2 7895   2.843   5.373   0.027  0.5220  0.1840 -0.0360
 2630TIP3    H1 7896   2.780   5.384   0.098  0.3907  2.3473 -0.4189
 2630TIP3    H2 7897   2.838   5.455  -0.022  2.9644  0.0555 -0.6161
 2631TIP3   OH2 7898   4.328   5.795   3.798  0.3686  0.6618 -0.0532
 2631TIP3    H1 7899   4.408   5.742   3.799 -0.7139 -1.0630 -1.0448
 2631TIP3    H2 7900   4.337   5.853   3.874  2.2675  0.0705  0.2164
 2632TIP3   OH2 7901   4.484   3.940   5.091 -0.0469  0.1473 -0.3012
 2632TIP3    H1 7902   4.456   3.985   5.171  2.3502  0.4728  0.4285
 2632TIP3    H2 7903   4.568   3.980   5.069  0.4442 -1.5146 -1.6723
 2633TIP3   OH2 7904   5.699   1.079   3.155  0.2933  0.1917  0.3241
 2633TIP3    H1 7905   5.630   1.134   3.192 -0.6721  0.9464 -2.3432
 2633TIP3    H2 7906   5.699   1.100   3.061  2.0941 -2.0357 -0.2770
 2634TIP3   OH2 7907   1.523   1.469   1.056  0.2815 -0.5731  0.0508
 2634TIP3    H1 7908   1.449   1.450   1.114  0.2720 -0.8124 -0.0386
 2634TIP3    H2 7909   1.587   1.513   1.113 -0.1877  0.2243 -0.0207
 2635TIP3   OH2 7910   4.351   4.034   1.505 -0.1700 -0.2625 -0.1968
 2635TIP3    H1 7911   4.305   4.118   1.510 -1.6052 -1.0122 -0.2771
 2635TIP3    H2 7912   4.367   4.010   1.596  1.1784  0.5643 -0.1917
 2636TIP3   OH2 7913   1.093   5.953   3.345  0.7706  0.2621  0.3779
 2636TIP3    H1 7914   1.013   5.921   3.387  1.5446 -0.8433  1.0774
 2636TIP3    H2 7915   1.128   6.018   3.405 -0.7953  2.5636 -1.0386
 2637TIP3   OH2 7916   3.898   0.268   3.344  0.3883 -0.3122 -0.1109
 2637TIP3    H1 7917   3.953   0.345   3.359 -0.7322  0.4323  0.2831
 2637TIP3    H2 7918   3.900   0.221   3.427  0.1661 -0.1222 -0.0001
 2638TIP3   OH2 7919   3.067   5.007   1.529  0.1570 -0.4438 -0.3507
 2638TIP3    H1 7920   3.143   4.949   1.530  0.5935  0.1112 -0.7972
 2638TIP3    H2 7921   3.094   5.083   1.579 -0.4407 -0.6412  0.2923
 2639TIP3   OH2 7922   0.534   3.341   0.910  0.4605 -0.3138 -0.1900
 2639TIP3    H1 7923   0.627   3.361   0.918 -0.0869  2.2571  0.8627
 2639TIP3    H2 7924   0.494   3.423   0.882 -1.4170 -1.6170 -1.6353
 2640TIP3   OH2 7925   6.298   4.882   1.801  0.5356  0.0326 -0.0464
 2640TIP3    H1 7926   6.308   4.860   1.709  1.9839  0.4573 -0.0243
 2640TIP3    H2 7927   6.273   4.974   1.802  0.8260  0.1147 -0.0272
 2641TIP3   OH2 7928   6.175   3.981   2.204  0.1466  0.2426  0.4100
 2641TIP3    H1 7929   6.215   4.046   2.146  0.9448  0.6219  1.3515
 2641TIP3    H2 7930   6.120   4.032   2.264  0.0779 -0.0389  0.5915
 2642TIP3   OH2 7931   4.041   3.242   0.508 -0.6027  0.1210  0.3589
 2642TIP3    H1 7932   4.026   3.269   0.599  1.3333 -0.8495  1.0161
 2642TIP3    H2 7933   4.125   3.281   0.485 -0.8583 -0.0205 -0.8917
 2643TIP3   OH2 7934   4.564   5.709   5.118 -0.5764 -0.4451  0.2651
 2643TIP3    H1 7935   4.504   5.678   5.050  0.6976 -0.4152 -0.9161
 2643TIP3    H2 7936   4.645   5.660   5.102 -0.2989 -0.5640  1.8959
 2644TIP3   OH2 7937   2.334   3.181   1.578  0.1231  0.4139  0.0769
 2644TIP3    H1 7938   2.292   3.166   1.494  1.8318  0.2308 -0.8036
 2644TIP3    H2 7939   2.279   3.135   1.642  0.3461 -1.9861 -1.3424
 2645TIP3   OH2 7940   4.421   1.531   5.030  0.1144  0.2347 -0.0163
 2645TIP3    H1 7941   4.409   1.601   4.967 -0.7612  2.1978  2.1954
 2645TIP3    H2 7942   4.354   1.466   5.006 -0.3149  0.9992 -0.9899
 2646TIP3   OH2 7943   3.281   4.486   0.307 -0.1135  0.3108 -0.3649
 2646TIP3    H1 7944   3.342   4.438   0.362 -0.5177  1.0779  0.7913
 2646TIP3    H2 7945   3.266   4.429   0.232  0.3656 -0.8135  0.3728
 2647TIP3   OH2 7946   1.752   1.560   1.830 -0.3512 -0.2263  0.3904
 2647TIP3    H1 7947   1.732   1.488   1.890 -0.4129 -1.1435 -0.6944
 2647TIP3    H2 7948   1.773   1.516   1.747  2.4988  0.8134  0.4344
 2648TIP3   OH2 7949   3.490   3.189   2.902  0.0864  0.4084  0.0134
 2648TIP3    H1 7950   3.489   3.095   2.888 -1.9075  0.6693 -2.0564
 2648TIP3    H2 7951   3.537   3.225   2.826  0.8160  1.1162  0.7686
 2649TIP3   OH2 7952   3.465   5.441   0.318 -0.1834 -0.7902 -0.2325
 2649TIP3    H1 7953   3.530   5.372   0.302  0.2383 -0.3033 -0.6669
 2649TIP3    H2 7954   3.512   5.507   0.370 -0.5549 -0.7831  0.1001
 2650TIP3   OH2 7955   5.762   1.042   2.570 -0.0295 -0.1144  0.1691
 2650TIP3    H1 7956   5.798   1.071   2.654 -0.8016 -0.3433  0.5977
 2650TIP3    H2 7957   5.669   1.063   2.576 -0.3422 -1.3472 -0.0920
 2651TIP3   OH2 7958   1.664   5.365   2.202 -0.0379 -0.0803  0.1421
 2651TIP3    H1 7959   1.639   5.445   2.155 -2.2910 -0.7776  0.0312
 2651TIP3    H2 7960   1.701   5.308   2.135  0.5115  0.4330  0.0026
 2652TIP3   OH2 7961   1.517   3.469   2.645  0.6396  0.1960 -0.4435
 2652TIP3    H1 7962   1.424   3.492   2.641  0.5239 -0.1907 -0.0208
 2652TIP3    H2 7963   1.532   3.419   2.564  0.4820  0.2747 -0.5229
 2653TIP3   OH2 7964   0.099   0.884   4.372  0.3808  0.1352 -0.1958
 2653TIP3    H1 7965   0.045   0.882   4.293  0.2353  1.9740 -0.2022
 2653TIP3    H2 7966   0.100   0.794   4.404 -1.7053 -0.1721 -0.8670
 2654TIP3   OH2 7967   6.087   0.396   1.680  0.3960 -0.5737 -0.1548
 2654TIP3    H1 7968   6.010   0.448   1.701  0.6751 -0.5224  0.7979
 2654TIP3    H2 7969   6.161   0.449   1.711  0.6873 -1.4934  0.7660
 2655TIP3   OH2 7970   1.496   0.104   2.030  0.4433 -0.1839  0.7405
 2655TIP3    H1 7971   1.404   0.125   2.017  0.5674 -0.0669  0.0117
 2655TIP3    H2 7972   1.499   0.008   2.030  0.4572 -0.1881 -0.2670
 2656TIP3   OH2 7973   4.448   5.867   0.561 -0.0188  0.3237 -0.1073
 2656TIP3    H1 7974   4.459   5.792   0.619  0.1520 -0.1270 -0.7051
 2656TIP3    H2 7975   4.354   5.868   0.542 -0.2949  1.2813  1.2189
 2657TIP3   OH2 7976   6.050   1.503   3.001 -0.1900  0.1189  0.2026
 2657TIP3    H1 7977   6.050   1.452   2.920  0.9252  2.3253 -1.2968
 2657TIP3    H2 7978   5.993   1.454   3.061 -0.1080 -2.2031 -1.4857
 2658TIP3   OH2 7979   2.769   2.592   0.986  0.0106 -0.0183  0.0535
 2658TIP3    H1 7980   2.771   2.499   1.006 -0.5071  0.2685  1.5319
 2658TIP3    H2 7981   2.677   2.616   0.996  0.2594  0.8020  0.4323
 2659TIP3   OH2 7982   4.600   4.467   1.458  0.0516 -0.4316  0.1701
 2659TIP3    H1 7983   4.632   4.434   1.542 -0.1349  0.5497  0.6377
 2659TIP3    H2 7984   4.673   4.519   1.423 -0.6502  1.0558  0.8137
 2660TIP3   OH2 7985   2.046   0.147   3.307 -0.0954  0.3312 -0.4185
 2660TIP3    H1 7986   2.044   0.237   3.275  2.3062  0.2024 -1.1143
 2660TIP3    H2 7987   1.967   0.107   3.272  0.3573  1.3361 -2.7843
 2661TIP3   OH2 7988   3.553   2.768   4.474 -0.3782  0.0772  0.0170
 2661TIP3    H1 7989   3.554   2.682   4.432 -1.5431 -0.1467  0.4167
 2661TIP3    H2 7990   3.548   2.830   4.401  0.0914 -0.2067 -0.2590
 2662TIP3   OH2 7991   6.155   2.655   0.616 -0.2015  0.0067 -0.0916
 2662TIP3    H1 7992   6.147   2.641   0.710 -0.8181  0.6825 -0.0306
 2662TIP3    H2 7993   6.100   2.731   0.599  0.4054  0.2750 -0.9027
 2663TIP3   OH2 7994   0.493   0.968   1.475 -0.5463 -0.1584  0.1860
 2663TIP3    H1 7995   0.436   0.906   1.520 -0.1946  0.1476  1.0732
 2663TIP3    H2 7996   0.579   0.925   1.473  0.0641  0.8545  2.1079
 2664TIP3   OH2 7997   0.874   0.295   2.563  0.0979  0.2249  0.3683
 2664TIP3    H1 7998   0.862   0.202   2.542 -0.2446  0.4347 -0.4223
 2664TIP3    H2 7999   0.789   0.335   2.545  0.7926  1.0497 -1.4239
 2665TIP3   OH2 8000   0.284   2.533   1.460  0.4460  0.4686 -0.0164
 2665TIP3    H1 8001   0.246   2.582   1.387 -0.0951  0.7323  0.4358
 2665TIP3    H2 8002   0.282   2.442   1.430 -0.9739  0.4157  0.1568
 2666TIP3   OH2 8003   4.132   2.484   3.240  0.1844 -0.6023 -0.1178
 2666TIP3    H1 8004   4.189   2.419   3.200 -0.2048 -1.4599  0.6987
 2666TIP3    H2 8005   4.185   2.564   3.241  0.5855 -0.8305 -1.3300
 2667TIP3   OH2 8006   0.515   1.263   4.523  0.0026 -0.6051  0.5123
 2667TIP3    H1 8007   0.589   1.261   4.584 -0.2895  1.4205  1.0196
 2667TIP3    H2 8008   0.462   1.187   4.546  0.9993 -1.0660  1.3462
 2668TIP3   OH2 8009   5.795   1.973   1.571  0.9468  0.1617  0.4619
 2668TIP3    H1 8010   5.857   1.909   1.536  1.7748  1.5808 -0.8228
 2668TIP3    H2 8011   5.799   1.962   1.666  0.3286 -2.3071  0.2678
 2669TIP3   OH2 8012   6.074   4.527   2.324 -0.0424  0.1530 -0.2519
 2669TIP3    H1 8013   6.148   4.486   2.280 -0.4658 -0.5584 -0.3170
 2669TIP3    H2 8014   6.104   4.540   2.414  0.6983  1.2888 -0.6369
 2670TIP3   OH2 8015   2.294   2.475   2.496  0.2393  0.0537  0.1148
 2670TIP3    H1 8016   2.354   2.529   2.444 -1.1045 -0.0020 -1.5484
 2670TIP3    H2 8017   2.255   2.537   2.558 -0.7582  0.8820 -1.3030
 2671TIP3   OH2 8018   2.565   3.216   4.383  0.3393  0.2534 -0.0519
 2671TIP3    H1 8019   2.495   3.273   4.352  0.9030  0.7655 -0.4268
 2671TIP3    H2 8020   2.527   3.167   4.456 -0.6238 -0.0324 -0.7403
 2672TIP3   OH2 8021   5.105   0.916   4.170  0.4987  0.1099  0.0488
 2672TIP3    H1 8022   5.155   0.859   4.112  1.5063  2.0001 -1.0636
 2672TIP3    H2 8023   5.060   0.977   4.112 -1.3546 -0.1538  1.1444
 2673TIP3   OH2 8024   0.039   5.931   1.473 -0.0686 -0.6897 -0.0170
 2673TIP3    H1 8025   0.064   5.944   1.564  0.6034 -2.4799  0.0846
 2673TIP3    H2 8026  -0.044   5.883   1.477 -0.9865  0.7682 -0.3871
 2674TIP3   OH2 8027   3.707   3.342   3.105  0.3454  0.0320 -0.0300
 2674TIP3    H1 8028   3.677   3.363   3.017  0.8921 -1.4994 -0.6110
 2674TIP3    H2 8029   3.734   3.427   3.142  0.4903  0.6489 -1.4680
 2675TIP3   OH2 8030   5.843   1.300   1.818 -0.7393 -0.2984  0.1945
 2675TIP3    H1 8031   5.887   1.301   1.903  0.9866 -2.4346 -0.5960
 2675TIP3    H2 8032   5.833   1.208   1.797 -6.0483 -0.0906  0.3970
 2676TIP3   OH2 8033   5.886   0.951   1.514 -0.2975 -0.7887 -0.5160
 2676TIP3    H1 8034   5.841   0.897   1.578  1.8289 -0.2903  1.5320
 2676TIP3    H2 8035   5.976   0.957   1.546  0.2966  1.4544 -2.2953
 2677TIP3   OH2 8036   5.075   3.555   2.907 -0.0128  0.6420 -0.4212
 2677TIP3    H1 8037   5.010   3.571   2.976 -0.8279 -0.4196 -0.9173
 2677TIP3    H2 8038   5.110   3.468   2.926  0.7904  0.9260 -0.5522
 2678TIP3   OH2 8039   5.498   2.643   3.018  0.1838  0.9910 -0.0372
 2678TIP3    H1 8040   5.503   2.715   3.080 -0.8329  0.1207  1.1309
 2678TIP3    H2 8041   5.589   2.624   2.994  0.5733  1.5319  0.9787
 2679TIP3   OH2 8042   5.614   4.118   0.639  0.4463 -0.1145  0.3605
 2679TIP3    H1 8043   5.619   4.126   0.734  0.7203  1.5532  0.2344
 2679TIP3    H2 8044   5.520   4.110   0.622  0.3452  0.1893  0.7411
 2680TIP3   OH2 8045   2.075   1.212   4.571  0.6216 -0.3795 -0.0294
 2680TIP3    H1 8046   2.082   1.289   4.628  1.3807 -1.4115  1.3316
 2680TIP3    H2 8047   2.088   1.247   4.482  0.6820  1.0895  0.5268
 2681TIP3   OH2 8048   0.111   4.886   2.400  0.4057  0.1616 -0.1787
 2681TIP3    H1 8049   0.197   4.921   2.424  0.5942  0.2662 -0.9802
 2681TIP3    H2 8050   0.124   4.791   2.395  1.6226  0.3573 -4.3970
 2682TIP3   OH2 8051   6.202   3.156   2.887  0.4117 -0.5198  0.2266
 2682TIP3    H1 8052   6.125   3.178   2.834  1.6110  3.2160 -0.2524
 2682TIP3    H2 8053   6.249   3.090   2.835 -0.2774  0.3932 -1.6546
 2683TIP3   OH2 8054   3.286   3.545   3.115  0.2176  0.2005 -0.1025
 2683TIP3    H1 8055   3.310   3.455   3.133 -0.6099  0.0843  0.4693
 2683TIP3    H2 8056   3.346   3.573   3.046  2.3105  0.1051  1.6042
 2684TIP3   OH2 8057   6.131   2.589   3.531  0.6157  0.1347 -0.1893
 2684TIP3    H1 8058   6.048   2.560   3.569 -0.2120  1.3729 -0.9742
 2684TIP3    H2 8059   6.197   2.558   3.592 -0.4762 -0.2434  0.8440
 2685TIP3   OH2 8060   3.746   3.303   1.167  0.0536 -0.3642 -0.5280
 2685TIP3    H1 8061   3.806   3.377   1.177  1.3936 -1.5642  0.8991
 2685TIP3    H2 8062   3.670   3.326   1.220 -0.0042  0.4110 -0.9324
 2686TIP3   OH2 8063   1.759   2.425   3.627  0.3744  0.0253 -0.3054
 2686TIP3    H1 8064   1.824   2.467   3.571 -0.2365  0.5334 -0.6452
 2686TIP3    H2 8065   1.704   2.497   3.659  0.6268 -0.2635  0.8452
 2687TIP3   OH2 8066   4.282   0.935   3.678 -0.4189  0.0481  0.0782
 2687TIP3    H1 8067   4.342   0.993   3.632 -2.0182  1.0168 -0.8671
 2687TIP3    H2 8068   4.258   0.984   3.757 -0.7986  0.1320 -0.0889
 2688TIP3   OH2 8069   3.632   2.281   4.233 -0.1884  0.1493  0.0814
 2688TIP3    H1 8070   3.601   2.208   4.286  1.4783  0.9167  2.2813
 2688TIP3    H2 8071   3.632   2.248   4.143 -2.2506 -1.5261  0.6246
 2689TIP3   OH2 8072   1.987   3.841   3.169 -0.3615  0.2117  0.0195
 2689TIP3    H1 8073   2.017   3.752   3.152 -0.8401 -0.0873  0.7059
 2689TIP3    H2 8074   1.968   3.842   3.263 -1.9286  0.5520 -0.2742
 2690TIP3   OH2 8075   3.908  -0.003   0.170  0.0945 -0.0542  0.0630
 2690TIP3    H1 8076   3.924  -0.013   0.264 -1.8080 -0.8246  0.3492
 2690TIP3    H2 8077   3.896   0.092   0.158 -0.0835  0.0127  0.6957
 2691TIP3   OH2 8078   5.268   4.826   1.712 -0.1813  0.1857 -0.0618
 2691TIP3    H1 8079   5.303   4.763   1.774  2.0401 -0.7541 -2.1081
 2691TIP3    H2 8080   5.337   4.891   1.702 -0.1171 -0.1204 -2.0615
 2692TIP3   OH2 8081   4.960   4.123   3.018 -0.3386 -0.1228  0.3251
 2692TIP3    H1 8082   5.036   4.114   3.075  0.8557  1.9700 -0.7890
 2692TIP3    H2 8083   4.926   4.210   3.037 -1.4908 -0.4134 -0.3201
 2693TIP3   OH2 8084   1.787   2.657   0.044  0.1716 -0.5015 -0.3792
 2693TIP3    H1 8085   1.775   2.731   0.103  0.0929 -1.9033  1.4406
 2693TIP3    H2 8086   1.822   2.696  -0.036  2.2340  1.2935  1.2510
 2694TIP3   OH2 8087   0.903   5.180   1.753 -0.1448  0.1023  0.3480
 2694TIP3    H1 8088   0.896   5.102   1.698  0.4477 -0.9685  1.7255
 2694TIP3    H2 8089   0.990   5.174   1.792 -0.4478  0.9635  1.2006
 2695TIP3   OH2 8090   5.793   2.395   3.944  0.0651  0.2052  0.1442
 2695TIP3    H1 8091   5.827   2.342   4.017 -0.5137  0.7917  0.8606
 2695TIP3    H2 8092   5.701   2.370   3.938  0.5003 -1.1529 -1.5881
 2696TIP3   OH2 8093   1.514   4.742   2.595  0.0194  0.5741  0.3737
 2696TIP3    H1 8094   1.452   4.686   2.549  0.4742  0.6250 -0.3087
 2696TIP3    H2 8095   1.598   4.725   2.554  0.4851  0.4413  1.3529
 2697TIP3   OH2 8096   3.462   5.234   4.336  0.1253  0.3163 -0.0764
 2697TIP3    H1 8097   3.479   5.209   4.245 -0.1979  0.2039 -0.1055
 2697TIP3    H2 8098   3.378   5.193   4.357 -0.0438  0.7584  0.1135
 2698TIP3   OH2 8099   0.512   5.486   0.556 -0.4354 -0.4281 -0.0119
 2698TIP3    H1 8100   0.501   5.394   0.579  1.7925 -1.0758 -1.3103
 2698TIP3    H2 8101   0.545   5.527   0.635  0.5035 -1.1816  0.0006
 2699TIP3   OH2 8102   0.537   5.922   3.414  0.4722 -0.1764  0.0181
 2699TIP3    H1 8103   0.589   6.002   3.415  1.5706 -0.8538 -0.3453
 2699TIP3    H2 8104   0.598   5.854   3.385  0.0404 -1.4515  1.8374
 2700TIP3   OH2 8105   4.528   4.932   2.405 -0.4032 -0.4141  0.0904
 2700TIP3    H1 8106   4.602   4.949   2.463  0.9046  0.3830 -1.7217
 2700TIP3    H2 8107   4.493   5.018   2.384 -0.3687 -0.6364 -0.9073
 2701TIP3   OH2 8108   2.390   5.186   4.018  0.2161 -0.2700 -0.0745
 2701TIP3    H1 8109   2.476   5.223   3.997  1.4426 -3.1560 -0.5639
 2701TIP3    H2 8110   2.374   5.120   3.950 -2.7147  0.5562 -0.3476
 2702TIP3   OH2 8111   0.850   4.786   0.224 -0.0976  0.3024  0.0976
 2702TIP3    H1 8112   0.937   4.745   0.221  0.0062  0.4109  1.1142
 2702TIP3    H2 8113   0.863   4.874   0.189 -0.1377 -0.2042 -1.2542
 2703TIP3   OH2 8114   4.893   4.768   0.162 -0.4652 -0.2465  0.2771
 2703TIP3    H1 8115   4.946   4.755   0.240 -0.3433  0.6075  0.3465
 2703TIP3    H2 8116   4.952   4.811   0.100 -0.7687 -0.2570 -0.0234
 2704TIP3   OH2 8117   4.591   3.364   1.244  0.0936 -0.2567  0.1310
 2704TIP3    H1 8118   4.580   3.333   1.334 -1.0909  0.9780  0.4438
 2704TIP3    H2 8119   4.667   3.423   1.248  0.7500 -1.0730  0.0619
 2705TIP3   OH2 8120   2.468   5.215   4.780  0.2601 -0.3172  0.3345
 2705TIP3    H1 8121   2.421   5.231   4.698 -1.0337  1.9844  1.4058
 2705TIP3    H2 8122   2.493   5.123   4.776 -2.6005 -1.1658 -1.2651
 2706TIP3   OH2 8123   0.982   1.681   4.462  0.2840  0.0810 -0.0671
 2706TIP3    H1 8124   0.965   1.588   4.475 -1.7394  0.4985  0.5438
 2706TIP3    H2 8125   0.931   1.725   4.530  0.3424  1.6815 -1.0039
 2707TIP3   OH2 8126   0.180   5.745   4.824  0.1196  0.0629  0.2465
 2707TIP3    H1 8127   0.217   5.796   4.753 -2.3298  1.1772 -0.3267
 2707TIP3    H2 8128   0.232   5.769   4.901  0.8965  1.1294 -0.5869
 2708TIP3   OH2 8129   3.780   5.251   5.177  0.0483  0.1593  0.3099
 2708TIP3    H1 8130   3.860   5.258   5.125  0.5582 -0.8157  0.9388
 2708TIP3    H2 8131   3.801   5.189   5.246 -2.1814 -2.6280 -1.2913
 2709TIP3   OH2 8132   2.552   4.810   1.016 -0.2129 -0.7432  0.0179
 2709TIP3    H1 8133   2.470   4.815   0.967 -0.7059 -1.2183  0.7629
 2709TIP3    H2 8134   2.528   4.765   1.097  0.8505 -1.1815  0.1053
 2710TIP3   OH2 8135   5.225   0.772   3.950 -0.2368  0.6691  0.1154
 2710TIP3    H1 8136   5.260   0.775   3.861 -1.6519  2.4118 -0.4468
 2710TIP3    H2 8137   5.278   0.706   3.995 -0.2924 -1.1814 -2.3477
 2711TIP3   OH2 8138   0.994   4.512   4.829  0.1204 -0.4186 -0.4482
 2711TIP3    H1 8139   0.990   4.502   4.733 -0.7255  0.0977 -0.4772
 2711TIP3    H2 8140   1.073   4.465   4.854 -1.2002 -3.2042 -1.0705
 2712TIP3   OH2 8141   3.709   1.246   4.024 -0.3551  0.1001 -0.4636
 2712TIP3    H1 8142   3.634   1.206   3.978 -0.8878  0.9846 -0.3994
 2712TIP3    H2 8143   3.703   1.212   4.113  1.2987 -2.4624 -1.2302
 2713TIP3   OH2 8144   2.889   4.551   0.422 -0.2853  0.4794  0.3526
 2713TIP3    H1 8145   2.891   4.632   0.371 -0.7257  0.2358 -0.0512
 2713TIP3    H2 8146   2.969   4.505   0.398 -0.6514  0.2102 -0.3778
 2714TIP3   OH2 8147   5.927   0.463   0.827 -0.1258  0.2197  0.6456
 2714TIP3    H1 8148   5.950   0.554   0.845  0.9651 -0.2675  1.8778
 2714TIP3    H2 8149   5.988   0.435   0.758 -0.5824  0.4669  0.1374
 2715TIP3   OH2 8150   4.003   1.660   1.503 -0.4080 -0.2399  0.2890
 2715TIP3    H1 8151   3.964   1.746   1.521 -0.7203  0.0350 -1.4745
 2715TIP3    H2 8152   3.941   1.619   1.442  1.3040 -0.3979 -1.4182
 2716TIP3   OH2 8153   2.646   3.840   0.875 -0.2078 -0.0172 -0.3869
 2716TIP3    H1 8154   2.674   3.768   0.932  0.4324  0.6076  0.1099
 2716TIP3    H2 8155   2.558   3.861   0.905  0.2336  0.4982  0.5869
 2717TIP3   OH2 8156   4.459   5.644   4.059  0.0026 -0.7108  0.0359
 2717TIP3    H1 8157   4.445   5.551   4.075 -1.1341 -0.3763  1.1883
 2717TIP3    H2 8158   4.467   5.652   3.964  1.1669 -2.0958 -0.0083
 2718TIP3   OH2 8159   1.890   1.110   0.525  0.1519 -0.5667 -0.2581
 2718TIP3    H1 8160   1.913   1.203   0.521 -1.4736  0.0235  1.9486
 2718TIP3    H2 8161   1.796   1.108   0.512 -0.3012 -1.5291  2.5378
 2719TIP3   OH2 8162   4.681   1.767   3.463 -0.2665 -0.3664  0.0008
 2719TIP3    H1 8163   4.750   1.799   3.404 -0.9563 -0.4848 -0.8857
 2719TIP3    H2 8164   4.599   1.796   3.423 -0.8216 -1.5958  0.1851
 2720TIP3   OH2 8165   4.154   5.694   0.215 -0.9944 -0.2620  0.2396
 2720TIP3    H1 8166   4.128   5.786   0.210  0.2718  0.0875 -0.2961
 2720TIP3    H2 8167   4.105   5.659   0.289  0.3673  1.4941  2.0937
 2721TIP3   OH2 8168   0.125   2.019   2.963  0.5221  0.3516 -0.2485
 2721TIP3    H1 8169   0.194   1.979   2.910  0.6409  0.2551 -0.0222
 2721TIP3    H2 8170   0.155   2.009   3.053 -0.8755 -1.8257  0.0443
 2722TIP3   OH2 8171   1.224   5.989   1.100  0.2448 -0.8168 -0.3892
 2722TIP3    H1 8172   1.311   6.005   1.062 -0.6742 -0.8493 -2.6195
 2722TIP3    H2 8173   1.241   5.932   1.175  2.1564 -0.6781 -0.6664
 2723TIP3   OH2 8174   5.689   0.770   4.109 -0.2285 -0.6480 -0.1733
 2723TIP3    H1 8175   5.651   0.720   4.037 -1.5815 -1.1763  0.8656
 2723TIP3    H2 8176   5.680   0.862   4.082  0.0379 -0.8758 -1.0358
 2724TIP3   OH2 8177   6.331   2.894   4.144 -0.3584  0.0851 -0.1203
 2724TIP3    H1 8178   6.378   2.971   4.177 -0.5185  0.5940 -1.0401
 2724TIP3    H2 8179   6.253   2.888   4.198 -0.2963  0.5153  0.0202
 2725TIP3   OH2 8180   0.966   1.737   0.727  0.1993  0.6756 -0.5297
 2725TIP3    H1 8181   1.026   1.727   0.654 -0.3559  1.7053 -1.1414
 2725TIP3    H2 8182   0.978   1.827   0.757  0.2387  0.3462  0.4911
 2726TIP3   OH2 8183   4.277   1.690   3.930 -0.3683  0.0403 -0.1326
 2726TIP3    H1 8184   4.284   1.712   4.023 -0.9053  0.9497 -0.2917
 2726TIP3    H2 8185   4.322   1.606   3.921 -0.9797 -0.4377  1.0773
 2727TIP3   OH2 8186   5.792   5.154   0.632 -0.0982  0.4537  0.0203
 2727TIP3    H1 8187   5.846   5.232   0.644 -2.2887  2.3405 -1.5307
 2727TIP3    H2 8188   5.842   5.101   0.569  0.5246  1.5739 -0.4723
 2728TIP3   OH2 8189   1.337   4.225   4.611  0.5701  0.0895  0.8545
 2728TIP3    H1 8190   1.405   4.160   4.594  1.1244  0.8899 -0.1683
 2728TIP3    H2 8191   1.379   4.289   4.669  0.3896  0.1052  0.9682
 2729TIP3   OH2 8192   0.339   3.657   3.657  0.0736  0.0668  0.1418
 2729TIP3    H1 8193   0.319   3.567   3.632 -0.3382  0.3730 -0.6737
 2729TIP3    H2 8194   0.254   3.699   3.666  0.2720  0.4892  0.0691
 2730TIP3   OH2 8195   4.911   5.482   0.896  0.1681  0.2084 -0.6152
 2730TIP3    H1 8196   4.926   5.478   0.991 -0.0135  1.1176 -0.5311
 2730TIP3    H2 8197   4.923   5.393   0.865 -0.2640 -0.1984  0.3440
 2731TIP3   OH2 8198   4.025   5.565   0.400 -0.0421 -0.5287  0.1349
 2731TIP3    H1 8199   4.097   5.570   0.463 -0.8163  0.3819  0.9919
 2731TIP3    H2 8200   4.027   5.475   0.367  3.4067  0.2187 -2.2208
 2732TIP3   OH2 8201   0.331   1.932   4.822  0.0416  0.7099  0.3016
 2732TIP3    H1 8202   0.298   1.902   4.906  1.8806  0.5874  1.0370
 2732TIP3    H2 8203   0.298   2.022   4.814 -2.1363 -0.0616 -0.0237
 2733TIP3   OH2 8204   0.893   0.388   2.862 -0.0868 -0.4018 -0.2589
 2733TIP3    H1 8205   0.801   0.405   2.839 -0.1458 -0.4017 -0.0259
 2733TIP3    H2 8206   0.929   0.474   2.882 -0.5378 -0.5791  1.4808
 2734TIP3   OH2 8207   2.445   5.796   4.680 -0.1686  0.2714 -0.0209
 2734TIP3    H1 8208   2.443   5.871   4.739  1.9562 -0.2395  0.7774
 2734TIP3    H2 8209   2.467   5.721   4.736  0.2190 -0.5155 -1.1764
 2735TIP3   OH2 8210   0.130   4.039   2.889  0.1729 -0.2458 -0.5499
 2735TIP3    H1 8211   0.175   4.087   2.958  0.9915 -0.2344 -1.0916
 2735TIP3    H2 8212   0.151   3.947   2.907 -0.8255 -0.3709  0.0751
 2736TIP3   OH2 8213   2.354   4.737   4.467 -0.4620  0.1790 -0.2980
 2736TIP3    H1 8214   2.292   4.664   4.462  0.0054 -0.1683 -1.3951
 2736TIP3    H2 8215   2.334   4.791   4.391  0.0540  0.4920 -0.2173
 2737TIP3   OH2 8216   1.723   1.035   4.048 -0.5465 -0.3518  0.0421
 2737TIP3    H1 8217   1.670   1.112   4.028 -0.2491 -0.0825  0.2791
 2737TIP3    H2 8218   1.810   1.056   4.013 -0.0065  0.1332  1.6109
 2738TIP3   OH2 8219   4.256   4.779   0.478 -0.2479  0.5001  0.3139
 2738TIP3    H1 8220   4.213   4.747   0.399  0.6940 -1.3744  0.5119
 2738TIP3    H2 8221   4.349   4.782   0.456 -0.1707  1.9821  0.7191
 2739TIP3   OH2 8222   3.767   2.154   1.101  0.0517  0.5133  0.0650
 2739TIP3    H1 8223   3.787   2.082   1.160 -1.2402 -0.2758 -0.4046
 2739TIP3    H2 8224   3.684   2.189   1.134  0.5240  1.6195  0.1236
 2740TIP3   OH2 8225   1.871   5.071   1.285 -0.4891 -0.2408  0.0960
 2740TIP3    H1 8226   1.874   5.158   1.324  1.8622 -0.7918  1.3337
 2740TIP3    H2 8227   1.954   5.063   1.238 -0.4683 -1.9362  0.3515
 2741TIP3   OH2 8228   2.645   2.603   0.680 -0.1992 -0.1309 -0.1392
 2741TIP3    H1 8229   2.732   2.575   0.652 -0.0543  0.2197 -0.0488
 2741TIP3    H2 8230   2.642   2.697   0.661 -0.1334  0.0978  0.8919
 2742TIP3   OH2 8231   0.128   3.325   4.590  0.2220  0.3446 -0.3614
 2742TIP3    H1 8232   0.063   3.285   4.533 -0.5809  1.0291  0.0484
 2742TIP3    H2 8233   0.089   3.409   4.615  1.4636  0.9773 -0.4716
 2743TIP3   OH2 8234   1.645   3.862   2.580  0.3751  0.1926 -1.2453
 2743TIP3    H1 8235   1.658   3.916   2.658  2.1671 -1.5183 -0.2607
 2743TIP3    H2 8236   1.550   3.862   2.566  0.0054  0.6230  0.8974
 2744TIP3   OH2 8237   2.745   3.668   2.535  0.4899  0.1129 -0.1084
 2744TIP3    H1 8238   2.671   3.684   2.477  0.5849 -0.0879 -0.2837
 2744TIP3    H2 8239   2.761   3.753   2.577 -0.6568 -0.1349  0.8966
 2745TIP3   OH2 8240   5.065   5.611   2.400  0.3710  0.6567 -0.3443
 2745TIP3    H1 8241   5.084   5.601   2.493  1.4363 -0.0451 -0.6186
 2745TIP3    H2 8242   4.971   5.598   2.393  0.4228 -0.2608  0.5113
 2746TIP3   OH2 8243   5.501   2.035   1.610 -0.8193  1.0206  0.3740
 2746TIP3    H1 8244   5.567   2.103   1.596  0.3611 -0.4102 -1.5134
 2746TIP3    H2 8245   5.429   2.058   1.551 -0.4582  0.7021 -0.1970
 2747TIP3   OH2 8246   0.323   0.235   1.880  0.1090  0.0877  0.4103
 2747TIP3    H1 8247   0.263   0.289   1.829  1.1277  1.8834  1.0060
 2747TIP3    H2 8248   0.381   0.298   1.923  1.6340 -1.5192  0.8316
 2748TIP3   OH2 8249   5.888   0.822   0.051  0.0059  0.7092 -0.0282
 2748TIP3    H1 8250   5.794   0.838   0.060 -0.2129 -0.5922  0.2751
 2748TIP3    H2 8251   5.893   0.738   0.005  0.9814  0.1094  1.1130
 2749TIP3   OH2 8252   0.502   5.093   0.282 -0.1123 -0.2254  0.0867
 2749TIP3    H1 8253   0.509   5.049   0.197 -0.4004 -0.9715  0.4476
 2749TIP3    H2 8254   0.579   5.064   0.331  1.0254  1.5597 -0.5080
 2750TIP3   OH2 8255   1.107   4.926   4.966  0.2326 -0.3544 -0.3027
 2750TIP3    H1 8256   1.121   4.844   4.919  0.7171 -0.2537 -0.3386
 2750TIP3    H2 8257   1.186   4.938   5.018  0.1551  0.0834 -0.2830
 2751TIP3   OH2 8258   4.436   5.303   3.308 -0.2884 -0.0365  0.0759
 2751TIP3    H1 8259   4.354   5.279   3.265 -1.2963  0.7811  1.4128
 2751TIP3    H2 8260   4.504   5.281   3.246 -1.6113  0.4913 -1.6425
 2752TIP3   OH2 8261   3.059   4.818   4.470 -0.3343  0.3806  0.2517
 2752TIP3    H1 8262   3.144   4.831   4.512  0.2837 -1.2735 -0.4010
 2752TIP3    H2 8263   3.080   4.769   4.390 -2.1929 -3.6540  1.9461
 2753TIP3   OH2 8264   5.202   4.131   1.680 -0.1044 -0.4253 -0.5393
 2753TIP3    H1 8265   5.155   4.171   1.753 -1.3250  1.1511 -2.0801
 2753TIP3    H2 8266   5.221   4.204   1.621  0.6809 -1.6616 -1.8934
 2754TIP3   OH2 8267   1.012   4.995   4.614  0.0280 -0.3357  0.1921
 2754TIP3    H1 8268   1.004   5.014   4.520 -1.4855 -1.2215  0.1002
 2754TIP3    H2 8269   1.090   5.043   4.642  0.0256  0.6359 -1.3381
 2755TIP3   OH2 8270   3.684   3.025   3.499  0.2413  0.3399 -0.0280
 2755TIP3    H1 8271   3.681   3.047   3.592 -1.4691 -1.7571  0.4835
 2755TIP3    H2 8272   3.651   3.104   3.455  1.7503  1.6296  1.0062
 2756TIP3   OH2 8273   2.676   1.206   3.166 -0.5296  0.3717  0.1373
 2756TIP3    H1 8274   2.672   1.129   3.224  0.6488  1.6472  2.0216
 2756TIP3    H2 8275   2.676   1.169   3.078  0.4522 -1.8519  0.9777
 2757TIP3   OH2 8276   4.766   3.117   0.144  0.1860 -0.2753 -0.3943
 2757TIP3    H1 8277   4.701   3.186   0.134  0.2782 -0.2227 -0.6464
 2757TIP3    H2 8278   4.842   3.161   0.183  0.2717 -0.2199 -0.6259
 2758TIP3   OH2 8279   0.327   1.707   4.078 -0.0228 -0.2172 -0.4590
 2758TIP3    H1 8280   0.274   1.785   4.094 -1.0255 -1.1410  1.0448
 2758TIP3    H2 8281   0.263   1.636   4.070  0.9306 -1.1679  0.1487
 2759TIP3   OH2 8282   4.151   1.707   2.771  0.3158  0.1486 -0.4764
 2759TIP3    H1 8283   4.197   1.752   2.842  0.5827  1.1030 -1.2272
 2759TIP3    H2 8284   4.211   1.637   2.744  0.3141 -0.0680  0.0852
 2760TIP3   OH2 8285   4.688   3.247   2.751 -0.2880 -0.2272  0.6434
 2760TIP3    H1 8286   4.595   3.258   2.766 -0.0295 -0.4317  2.6011
 2760TIP3    H2 8287   4.706   3.299   2.673 -1.7398  1.0730  1.1375
 2761TIP3   OH2 8288   0.313   2.590   2.476  0.1227  0.2879 -0.2486
 2761TIP3    H1 8289   0.293   2.586   2.382 -0.3115  1.4388 -0.2199
 2761TIP3    H2 8290   0.254   2.657   2.510  0.4224  0.0208  0.8122
 2762TIP3   OH2 8291   3.700   0.495   3.351 -0.0435  0.1527  0.0607
 2762TIP3    H1 8292   3.778   0.462   3.307 -0.2352 -0.2352  0.0019
 2762TIP3    H2 8293   3.627   0.453   3.305 -0.3096  0.8549 -0.1714
 2763TIP3   OH2 8294   3.512   4.472   1.493 -0.0971 -0.8180 -0.0529
 2763TIP3    H1 8295   3.515   4.511   1.406  0.1437 -1.6303 -0.4205
 2763TIP3    H2 8296   3.489   4.545   1.552  0.1773 -0.1712 -0.7325
 2764TIP3   OH2 8297   5.175   0.598   4.468  0.1522  0.0453 -0.1210
 2764TIP3    H1 8298   5.220   0.603   4.552  1.5942 -3.7849 -0.4263
 2764TIP3    H2 8299   5.218   0.664   4.414  1.1368  0.6952  1.3841
 2765TIP3   OH2 8300   3.523   2.346   0.264  0.5409  0.4038  0.4134
 2765TIP3    H1 8301   3.562   2.336   0.178  2.1760 -0.0822  1.1722
 2765TIP3    H2 8302   3.449   2.286   0.264  0.1343  0.8761 -0.8482
 2766TIP3   OH2 8303   2.979   4.915   3.211 -0.4397 -0.1005  0.2201
 2766TIP3    H1 8304   2.928   4.964   3.146 -0.2669  0.3643  0.4303
 2766TIP3    H2 8305   3.069   4.921   3.181 -0.4248 -0.3588  0.2078
 2767TIP3   OH2 8306   3.911   4.365   2.905  0.0966  0.4125 -0.5229
 2767TIP3    H1 8307   3.825   4.340   2.940  0.4097  1.3125  0.9487
 2767TIP3    H2 8308   3.953   4.282   2.884 -0.7298 -0.0835 -0.2855
 2768TIP3   OH2 8309   5.393   4.915   3.475  0.0351 -0.1101  0.5015
 2768TIP3    H1 8310   5.434   4.890   3.557  0.3569 -0.2551  0.3001
 2768TIP3    H2 8311   5.389   5.011   3.479  0.1169 -0.1130  0.6561
 2769TIP3   OH2 8312   4.042   5.648   4.079  0.9109  0.4225 -0.3622
 2769TIP3    H1 8313   3.961   5.597   4.081 -0.1964  2.0554  2.3857
 2769TIP3    H2 8314   4.061   5.660   3.986 -1.6512 -0.5564 -1.0907
 2770TIP3   OH2 8315   2.591   5.872   0.116 -0.1768 -0.0584  0.4120
 2770TIP3    H1 8316   2.521   5.897   0.176  0.8144  0.1135  1.5326
 2770TIP3    H2 8317   2.670   5.868   0.171  0.9780  1.1806 -1.0759
 2771TIP3   OH2 8318   0.890   5.706   1.656  0.4225  0.2244  0.2502
 2771TIP3    H1 8319   0.958   5.773   1.656  1.5501 -0.8532  1.4688
 2771TIP3    H2 8320   0.934   5.628   1.691 -1.4027 -0.5664  0.8706
 2772TIP3   OH2 8321   0.676   2.483   3.740  0.4881 -0.3017 -0.2259
 2772TIP3    H1 8322   0.734   2.548   3.779  2.8943 -3.0259  1.0929
 2772TIP3    H2 8323   0.722   2.454   3.661 -0.8240 -0.0628 -1.1127
 2773TIP3   OH2 8324   6.355   2.985   4.929  0.0661  0.0610 -0.2534
 2773TIP3    H1 8325   6.363   3.081   4.933 -0.5421  0.1056 -0.0220
 2773TIP3    H2 8326   6.267   2.967   4.962  0.3029 -0.6047  0.0199
 2774TIP3   OH2 8327   0.624   4.005   3.871 -0.8339  0.8873 -0.3275
 2774TIP3    H1 8328   0.604   3.951   3.794  2.1430 -0.9572  0.0076
 2774TIP3    H2 8329   0.693   4.064   3.841  1.3519 -0.7897  1.1407
 2775TIP3   OH2 8330   4.924   1.735   0.174 -0.1039 -0.2052 -0.7020
 2775TIP3    H1 8331   4.844   1.772   0.211  0.2048  1.3301 -1.4831
 2775TIP3    H2 8332   4.917   1.753   0.080  1.0021 -0.3578 -0.8299
 2776TIP3   OH2 8333   5.308   4.849   4.974  0.0513  0.3643  0.2747
 2776TIP3    H1 8334   5.360   4.902   5.034  0.7506  1.5091 -1.2780
 2776TIP3    H2 8335   5.337   4.876   4.887  0.7890 -2.9048 -0.6260
 2777TIP3   OH2 8336   0.383   4.323   1.459 -0.0665  0.6503 -0.6133
 2777TIP3    H1 8337   0.349   4.274   1.534 -0.6001 -0.9030 -1.8350
 2777TIP3    H2 8338   0.476   4.334   1.479 -0.3044  0.7368  0.5236
 2778TIP3   OH2 8339   0.809   2.082   2.784  0.0848  0.4176  0.5674
 2778TIP3    H1 8340   0.764   2.119   2.860 -0.8898  0.4262 -0.0020
 2778TIP3    H2 8341   0.868   2.152   2.756  0.5604  0.3610  1.3952
 2779TIP3   OH2 8342   4.298   2.017   0.395  0.0721 -0.0117 -0.0666
 2779TIP3    H1 8343   4.204   2.023   0.410  0.1731 -1.6835  1.7273
 2779TIP3    H2 8344   4.330   2.106   0.405 -1.1369  0.3417  0.9209
 2780TIP3   OH2 8345   0.463   4.023   1.449 -0.2386 -0.1235  0.6540
 2780TIP3    H1 8346   0.399   4.064   1.392 -1.4754 -1.2888  1.1445
 2780TIP3    H2 8347   0.519   3.972   1.390  0.5348  1.2362  0.1820
 2781TIP3   OH2 8348   4.134   0.451   2.817  0.1871 -0.0222  0.2617
 2781TIP3    H1 8349   4.142   0.456   2.722  0.3877  0.7662  0.3195
 2781TIP3    H2 8350   4.042   0.427   2.832  0.2247 -0.4360 -0.1281
 2782TIP3   OH2 8351   4.596   4.972   0.854  0.1868 -0.3831 -0.1902
 2782TIP3    H1 8352   4.580   5.061   0.884  0.3533  0.0788 -1.4266
 2782TIP3    H2 8353   4.513   4.944   0.815  0.2654 -0.6152 -0.1942
 2783TIP3   OH2 8354   2.716   0.297   4.655  0.5964 -0.1892 -0.5428
 2783TIP3    H1 8355   2.782   0.347   4.704  0.8814 -0.8832 -0.2042
 2783TIP3    H2 8356   2.767   0.234   4.604  0.1699 -3.2617  2.4484
 2784TIP3   OH2 8357   3.547   2.319   1.793 -0.3682 -0.2656  0.2191
 2784TIP3    H1 8358   3.629   2.365   1.813 -0.5029  0.2034 -0.3026
 2784TIP3    H2 8359   3.562   2.230   1.825  0.3232 -0.1687  0.1834
 2785TIP3   OH2 8360   6.116   1.767   0.430 -0.1978 -0.4165 -0.1438
 2785TIP3    H1 8361   6.144   1.803   0.515  2.3707  0.1698 -1.1422
 2785TIP3    H2 8362   6.120   1.672   0.442 -0.3899 -0.3479  0.5419
 2786TIP3   OH2 8363   5.797   3.434   5.037 -0.1431 -0.5359  0.3827
 2786TIP3    H1 8364   5.844   3.357   5.004 -0.8756 -0.2749 -1.3597
 2786TIP3    H2 8365   5.867   3.495   5.061  0.4199 -1.0410  0.0635
 2787TIP3   OH2 8366   1.232   2.490   1.822 -0.2328 -0.1134 -0.3270
 2787TIP3    H1 8367   1.199   2.407   1.789  2.2888 -0.8602 -1.1653
 2787TIP3    H2 8368   1.185   2.556   1.769 -1.8949 -0.9563  0.0081
 2788TIP3   OH2 8369   0.300   4.663   0.743 -0.1642 -0.0694  0.2222
 2788TIP3    H1 8370   0.279   4.754   0.760  0.3111 -0.0895  1.0082
 2788TIP3    H2 8371   0.301   4.655   0.648 -0.5840  0.6516  0.1553
 2789TIP3   OH2 8372   1.860  -0.007   2.346 -0.0296  0.5381 -0.5156
 2789TIP3    H1 8373   1.903   0.010   2.430  1.9851  0.7910 -1.5265
 2789TIP3    H2 8374   1.798   0.065   2.336 -1.7896 -0.5470  1.5939
 2790TIP3   OH2 8375   4.608   4.683   1.123 -0.4550 -0.9744  0.4239
 2790TIP3    H1 8376   4.581   4.593   1.106 -2.3336 -0.4357  0.3421
 2790TIP3    H2 8377   4.536   4.721   1.174 -0.0289  0.6827 -0.1390
 2791TIP3   OH2 8378   4.113   3.953   3.250  0.0212  0.0413 -0.4077
 2791TIP3    H1 8379   4.206   3.942   3.270 -0.2260  0.3243  0.9345
 2791TIP3    H2 8380   4.068   3.935   3.332 -0.9768  2.0523 -0.4495
 2792TIP3   OH2 8381   4.550   2.963   0.804 -0.3379  0.2943  0.3997
 2792TIP3    H1 8382   4.565   3.054   0.829  1.6407 -0.0916  0.7935
 2792TIP3    H2 8383   4.537   2.917   0.887 -0.5344  0.0766  0.2512
 2793TIP3   OH2 8384   1.196   4.340   4.880 -0.3949 -0.2524 -0.0011
 2793TIP3    H1 8385   1.245   4.363   4.801 -0.7492  1.7721  0.3101
 2793TIP3    H2 8386   1.246   4.379   4.952 -2.6079  2.3625  0.2835
 2794TIP3   OH2 8387   6.363   1.988   1.367 -0.3301  0.4843  0.6344
 2794TIP3    H1 8388   6.347   1.894   1.375 -0.6193  0.2541 -1.7269
 2794TIP3    H2 8389   6.290   2.030   1.412 -0.4779 -0.4269  1.2499
 2795TIP3   OH2 8390   3.293   2.907   3.962  0.1518  0.0327 -0.3431
 2795TIP3    H1 8391   3.366   2.848   3.981  1.3728  1.6033 -0.0155
 2795TIP3    H2 8392   3.220   2.848   3.942  1.0866 -1.6037  0.8023
 2796TIP3   OH2 8393   4.230   5.895   4.859 -0.6381 -0.6098  0.2658
 2796TIP3    H1 8394   4.235   5.989   4.842  1.3080 -0.9932 -1.7355
 2796TIP3    H2 8395   4.138   5.879   4.880 -0.7984  1.8730  1.8497
 2797TIP3   OH2 8396   0.835   5.306   0.319 -0.3500 -0.6855 -0.2922
 2797TIP3    H1 8397   0.891   5.382   0.331 -2.6126  0.9549  0.6779
 2797TIP3    H2 8398   0.836   5.261   0.404 -0.1887 -0.8882 -0.4001
 2798TIP3   OH2 8399   3.959   3.446   1.263  0.0197  0.2022  0.7053
 2798TIP3    H1 8400   4.011   3.398   1.327  1.8389 -0.6524 -1.2842
 2798TIP3    H2 8401   4.008   3.527   1.249 -0.3063  0.3405  0.3512
 2799TIP3   OH2 8402   5.090   4.772   0.740  0.4696  0.1258  0.3346
 2799TIP3    H1 8403   5.175   4.778   0.695 -0.0897 -1.2536 -1.0194
 2799TIP3    H2 8404   5.029   4.815   0.680  0.2770  1.7037  1.6058
 2800TIP3   OH2 8405   4.022   2.259   1.078 -0.1679  0.3640 -0.3604
 2800TIP3    H1 8406   3.931   2.231   1.080 -0.2701  0.7329  0.3685
 2800TIP3    H2 8407   4.064   2.214   1.151  1.1160 -2.6259 -2.7444
 2801TIP3   OH2 8408   0.124   3.651   4.266  0.0202 -0.6927 -0.6884
 2801TIP3    H1 8409   0.034   3.656   4.236 -0.1143 -0.2766 -0.2385
 2801TIP3    H2 8410   0.120   3.599   4.346  0.1202 -0.3870 -0.4797
 2802TIP3   OH2 8411   4.227   5.521   1.402 -0.3233  0.1591 -0.1908
 2802TIP3    H1 8412   4.215   5.535   1.496  0.0300  2.0653 -0.3888
 2802TIP3    H2 8413   4.298   5.457   1.396  0.0785  0.4823  0.8326
 2803TIP3   OH2 8414   0.313   4.778   5.078  0.4060  1.0920  0.0880
 2803TIP3    H1 8415   0.296   4.869   5.056 -2.8717  0.6313  0.2802
 2803TIP3    H2 8416   0.305   4.731   4.995 -0.1536  0.7319  0.3393
 2804TIP3   OH2 8417   3.095   1.337   4.587  0.1460  0.3544  0.1118
 2804TIP3    H1 8418   3.094   1.373   4.499  2.1785  0.0911 -0.0582
 2804TIP3    H2 8419   3.053   1.251   4.578 -0.2615  0.6083 -0.4613
 2805TIP3   OH2 8420   1.947   4.141   0.920 -0.1916 -0.5982 -0.0391
 2805TIP3    H1 8421   1.925   4.079   0.850 -0.1361 -1.7212  0.9154
 2805TIP3    H2 8422   1.863   4.167   0.956 -0.2896  0.8969 -1.2606
 2806TIP3   OH2 8423   1.502   3.589   3.497  0.4030  0.4653  0.3576
 2806TIP3    H1 8424   1.565   3.547   3.439 -1.0317  0.4776 -1.2722
 2806TIP3    H2 8425   1.524   3.555   3.584  2.0482 -0.2303 -0.2956
 2807TIP3   OH2 8426   4.405   5.323   1.358  0.3201  0.4348 -0.1168
 2807TIP3    H1 8427   4.464   5.323   1.282  0.0216 -0.1553 -0.3584
 2807TIP3    H2 8428   4.350   5.245   1.345 -0.0711  0.6144  0.4455
 2808TIP3   OH2 8429   3.198   0.312   4.197 -0.1106  0.0703 -0.1782
 2808TIP3    H1 8430   3.269   0.267   4.153 -1.2678  0.8936 -3.0885
 2808TIP3    H2 8431   3.239   0.388   4.238  0.6958  0.6237 -1.9499
 2809TIP3   OH2 8432   1.574   0.325   4.732 -0.1987 -0.2769  0.2274
 2809TIP3    H1 8433   1.511   0.335   4.660  1.4075  2.1379 -0.9958
 2809TIP3    H2 8434   1.637   0.261   4.701  1.2097  1.6680 -1.2307
 2810TIP3   OH2 8435   1.703   0.293   4.259  0.4044 -0.0138 -0.3896
 2810TIP3    H1 8436   1.618   0.249   4.269  1.2550 -1.8288 -0.8607
 2810TIP3    H2 8437   1.747   0.246   4.189  1.6002  1.2731 -0.5541
 2811TIP3   OH2 8438   1.129   1.559   3.518 -0.2601  0.5766  0.4374
 2811TIP3    H1 8439   1.208   1.511   3.493  1.3076  3.0744  0.1426
 2811TIP3    H2 8440   1.062   1.528   3.458  1.0424 -0.1728 -0.6916
 2812TIP3   OH2 8441   3.771   4.852   4.098  0.3694  0.1412  0.3893
 2812TIP3    H1 8442   3.785   4.824   4.188 -0.8472  0.1974  0.6225
 2812TIP3    H2 8443   3.684   4.817   4.076  0.3091  0.8070 -0.4806
 2813TIP3   OH2 8444   4.329   1.537   2.371  0.4414 -0.4494 -0.1959
 2813TIP3    H1 8445   4.238   1.544   2.399  0.5207  3.3800 -0.3210
 2813TIP3    H2 8446   4.336   1.600   2.298  3.3069 -0.1288  0.2401
 2814TIP3   OH2 8447   3.726   2.489   3.190  0.4750 -0.2911 -0.7005
 2814TIP3    H1 8448   3.708   2.413   3.134  0.7764 -0.1565 -0.9798
 2814TIP3    H2 8449   3.813   2.518   3.164  0.8983 -0.6316  0.3064
 2815TIP3   OH2 8450   5.033   2.540   4.152  0.0380  0.0431 -0.4670
 2815TIP3    H1 8451   4.961   2.579   4.102  0.3415  1.5883  0.2162
 2815TIP3    H2 8452   5.090   2.615   4.173  0.6390 -0.7734  0.9582
 2816TIP3   OH2 8453   5.954   0.925   4.304 -0.1305 -0.2881 -0.3342
 2816TIP3    H1 8454   5.936   0.858   4.369 -0.9294  0.1810 -0.0625
 2816TIP3    H2 8455   5.998   0.995   4.353  1.2921 -0.8571 -0.7369
 2817TIP3   OH2 8456   0.894   5.054   0.165  0.0282  0.3947 -0.0427
 2817TIP3    H1 8457   0.859   5.130   0.210 -2.8859  0.9505 -2.8216
 2817TIP3    H2 8458   0.962   5.089   0.108  1.6304  0.1473  1.6229
 2818TIP3   OH2 8459   3.784   4.876   3.401  0.0473 -0.4318 -0.5188
 2818TIP3    H1 8460   3.878   4.862   3.415  0.3793 -0.1554 -2.1933
 2818TIP3    H2 8461   3.762   4.818   3.328 -1.0021 -0.2462 -0.3571
 2819TIP3   OH2 8462   2.473   0.399   0.508  0.1736  0.5475 -0.1299
 2819TIP3    H1 8463   2.526   0.394   0.587 -0.6124 -0.3928  0.3644
 2819TIP3    H2 8464   2.421   0.478   0.519  0.1528  0.4840  0.2402
 2820TIP3   OH2 8465   6.196   5.746   1.441  0.0783 -0.4538 -0.0643
 2820TIP3    H1 8466   6.219   5.714   1.528 -1.5058 -1.0418  0.1803
 2820TIP3    H2 8467   6.106   5.778   1.450 -0.2792 -0.9255 -1.5659
 2821TIP3   OH2 8468   3.556   0.448   4.469 -0.0131 -0.0421 -0.2316
 2821TIP3    H1 8469   3.637   0.439   4.419  0.1513 -0.0842  0.0396
 2821TIP3    H2 8470   3.582   0.490   4.551 -0.3485  0.4213 -0.3581
 2822TIP3   OH2 8471   5.533   1.281   3.271 -0.0727 -0.0075 -0.3612
 2822TIP3    H1 8472   5.521   1.328   3.354 -0.1948  0.0622 -0.4181
 2822TIP3    H2 8473   5.512   1.346   3.204  1.3167  0.3374 -0.4911
 2823TIP3   OH2 8474   6.208   1.603   4.437  0.1665 -0.5338 -0.2324
 2823TIP3    H1 8475   6.231   1.556   4.517 -1.6329  0.3649  0.8859
 2823TIP3    H2 8476   6.163   1.682   4.467 -1.3005 -0.5701 -2.1128
 2824TIP3   OH2 8477   2.176   2.348   3.873 -0.5849 -0.2823 -0.2855
 2824TIP3    H1 8478   2.114   2.420   3.859  0.4863  0.9897  1.0549
 2824TIP3    H2 8479   2.149   2.310   3.957  0.7415  0.7115  0.6528
 2825TIP3   OH2 8480   4.395   5.738   4.677  0.0565  0.6400  0.0170
 2825TIP3    H1 8481   4.338   5.785   4.738 -0.0906  0.9233 -0.3388
 2825TIP3    H2 8482   4.370   5.770   4.591 -1.2590 -1.3647 -0.4000
 2826TIP3   OH2 8483   1.183   1.026   0.417 -0.4538  0.1050  0.0474
 2826TIP3    H1 8484   1.177   1.035   0.512 -1.2317  3.6362 -0.1947
 2826TIP3    H2 8485   1.261   1.076   0.393 -0.9017  0.2186 -1.2554
 2827TIP3   OH2 8486   3.115   3.013   2.042 -0.2762  0.8313 -0.6550
 2827TIP3    H1 8487   3.075   2.938   2.085  1.0475 -0.5431 -1.7482
 2827TIP3    H2 8488   3.068   3.020   1.958  0.6809  0.1904 -1.2571
 2828TIP3   OH2 8489   1.309   3.028   1.005 -0.0550 -0.3249 -0.0344
 2828TIP3    H1 8490   1.309   3.027   0.909 -2.5970 -1.3790 -0.1084
 2828TIP3    H2 8491   1.223   3.065   1.028 -0.4057 -2.1067  1.7832
 2829TIP3   OH2 8492   2.168   4.914   1.152  0.3476  0.7455  0.7945
 2829TIP3    H1 8493   2.158   4.823   1.126 -0.7028  0.8972  0.5932
 2829TIP3    H2 8494   2.194   4.911   1.244  0.5419  0.2428  0.7252
 2830TIP3   OH2 8495   3.331   3.585   2.821 -0.8267  0.0559  0.7072
 2830TIP3    H1 8496   3.286   3.670   2.815 -0.7989  0.1709  1.9472
 2830TIP3    H2 8497   3.266   3.522   2.789 -0.3359  0.6648 -1.7068
 2831TIP3   OH2 8498   3.261   3.393   1.142  0.1847 -0.2674 -0.1656
 2831TIP3    H1 8499   3.241   3.301   1.121  0.0969 -0.3597  0.2972
 2831TIP3    H2 8500   3.227   3.404   1.231  1.4592 -0.1977  0.3330
 2832TIP3   OH2 8501   4.543   2.840   4.939  0.1923 -0.5037  0.2259
 2832TIP3    H1 8502   4.560   2.867   4.849  0.2230 -0.4264  0.2550
 2832TIP3    H2 8503   4.585   2.908   4.993 -0.5118 -0.1262  0.3032
 2833TIP3   OH2 8504   1.273   3.341   0.781  0.2591  0.3837 -0.6361
 2833TIP3    H1 8505   1.297   3.248   0.776 -0.9212  0.0881 -0.9483
 2833TIP3    H2 8506   1.325   3.374   0.855  0.9795 -0.4270 -0.7539
 2834TIP3   OH2 8507   4.206   4.674   2.837 -0.3637 -0.3310  0.1820
 2834TIP3    H1 8508   4.285   4.690   2.786  0.7273 -3.3449  0.6815
 2834TIP3    H2 8509   4.134   4.683   2.775  0.1168  3.5217 -0.0609
 2835TIP3   OH2 8510   5.538   2.050   0.716  0.4903 -0.1326  0.4823
 2835TIP3    H1 8511   5.606   2.112   0.691  0.5865 -0.1741  0.6370
 2835TIP3    H2 8512   5.567   2.015   0.800  1.2607 -1.5996 -0.3555
 2836TIP3   OH2 8513   2.490   3.094   4.639 -0.7544  0.2046  0.2803
 2836TIP3    H1 8514   2.512   3.158   4.707 -0.3033  0.1431  0.1954
 2836TIP3    H2 8515   2.511   3.010   4.678  0.6764  0.2373 -0.3588
 2837TIP3   OH2 8516   6.116   2.858   3.807  0.2233 -0.5574 -0.3188
 2837TIP3    H1 8517   6.071   2.780   3.839  0.2174 -1.0691 -1.5098
 2837TIP3    H2 8518   6.080   2.872   3.719  0.9277  0.2154 -0.4947
 2838TIP3   OH2 8519   4.011   2.406   1.407 -0.0328  0.2000 -0.0295
 2838TIP3    H1 8520   4.024   2.396   1.501  0.0739 -0.4434 -0.1055
 2838TIP3    H2 8521   3.930   2.358   1.389 -0.9584  1.6689 -0.0299
 2839TIP3   OH2 8522   3.051   0.754   1.021  0.2743 -0.0075 -0.6637
 2839TIP3    H1 8523   3.012   0.738   0.934 -0.3591  0.4774 -0.4751
 2839TIP3    H2 8524   3.000   0.700   1.080 -0.4231  0.9757 -0.3485
 2840TIP3   OH2 8525   2.176   0.573   2.317 -0.2400 -0.5899  0.1788
 2840TIP3    H1 8526   2.193   0.584   2.223  1.3784  1.0990  0.6092
 2840TIP3    H2 8527   2.257   0.535   2.351 -0.3899 -0.1615  1.0375
 2841TIP3   OH2 8528   1.898   3.341   2.687  0.2572 -0.4729 -0.4879
 2841TIP3    H1 8529   1.946   3.339   2.770  1.2666  1.8806 -0.9353
 2841TIP3    H2 8530   1.815   3.383   2.710 -1.1726 -3.2934  0.0043
 2842TIP3   OH2 8531   1.856   2.421   0.260 -0.5429  0.3155  0.4833
 2842TIP3    H1 8532   1.804   2.501   0.248 -0.7925  0.0489 -0.2625
 2842TIP3    H2 8533   1.875   2.391   0.171  1.3660  0.6971  0.7090
 2843TIP3   OH2 8534   0.158   1.048   2.483  0.2276  0.0585 -0.2574
 2843TIP3    H1 8535   0.108   1.061   2.403  0.1299  1.3316 -0.0038
 2843TIP3    H2 8536   0.179   0.954   2.483 -0.3778 -0.0931 -1.4002
 2844TIP3   OH2 8537   4.756   5.622   0.681  0.0976 -0.3304  0.3167
 2844TIP3    H1 8538   4.789   5.630   0.771 -1.1099  1.6766  0.6422
 2844TIP3    H2 8539   4.808   5.685   0.631  0.9310 -1.6070 -0.5112
 2845TIP3   OH2 8540   3.228   0.898   5.061 -0.0105 -0.6688 -0.6625
 2845TIP3    H1 8541   3.244   0.828   5.124  0.5450 -0.2693 -0.3570
 2845TIP3    H2 8542   3.134   0.892   5.043  0.1890 -2.1400 -1.4146
 2846TIP3   OH2 8543   1.271   1.144   4.145  0.1066  0.1630  0.3585
 2846TIP3    H1 8544   1.311   1.167   4.061 -0.3092 -1.4154 -0.3160
 2846TIP3    H2 8545   1.342   1.106   4.197  0.1322  0.1361  0.3034
 2847TIP3   OH2 8546   0.922   1.922   4.970  0.7613  0.7670 -0.4299
 2847TIP3    H1 8547   0.834   1.953   4.990  0.6383  0.7869 -0.9780
 2847TIP3    H2 8548   0.914   1.880   4.884  1.1713  0.2677 -0.2283
 2848TIP3   OH2 8549   5.603   0.526   4.608  0.5143 -0.4098 -0.1738
 2848TIP3    H1 8550   5.682   0.474   4.623  0.6661 -0.3349 -0.6813
 2848TIP3    H2 8551   5.533   0.461   4.601 -0.0574 -0.3757  3.3816
 2849TIP3   OH2 8552   5.564   0.968   3.946 -0.4195 -0.8687  0.0083
 2849TIP3    H1 8553   5.484   1.015   3.970  0.9011  0.9135  1.1839
 2849TIP3    H2 8554   5.548   0.940   3.856 -1.7798  0.7903 -0.3355
 2850TIP3   OH2 8555   6.158   3.320   4.914 -0.0336  0.6139 -0.1679
 2850TIP3    H1 8556   6.219   3.394   4.907  0.5229  0.2635  0.8398
 2850TIP3    H2 8557   6.087   3.342   4.853  1.4274  0.6965 -1.9165
 2851TIP3   OH2 8558   0.865   5.909   0.747  0.5215  0.6426  0.6922
 2851TIP3    H1 8559   0.792   5.939   0.694  0.1777 -0.0268  0.7866
 2851TIP3    H2 8560   0.939   5.906   0.686  0.6079  1.8394  0.7171
 2852TIP3   OH2 8561   1.252   3.754   3.085  0.1377  0.3513 -0.0488
 2852TIP3    H1 8562   1.303   3.726   3.008 -1.6427  2.1716 -1.9960
 2852TIP3    H2 8563   1.161   3.754   3.056 -0.7392  0.1240  2.4174
 2853TIP3   OH2 8564   3.632   4.853   4.676 -0.0109 -1.0763  0.1067
 2853TIP3    H1 8565   3.667   4.911   4.608 -0.3001 -0.5668  0.3816
 2853TIP3    H2 8566   3.598   4.913   4.742  0.7157 -1.5636  0.9376
 2854TIP3   OH2 8567   2.653   2.864   0.501  0.0093 -0.2965 -0.5951
 2854TIP3    H1 8568   2.748   2.877   0.509  0.0540  1.0742 -2.6253
 2854TIP3    H2 8569   2.640   2.844   0.408 -1.8663  1.6616 -0.8309
 2855TIP3   OH2 8570   2.341   4.353   2.616 -0.1535 -0.1417  0.6302
 2855TIP3    H1 8571   2.316   4.336   2.525  0.1581 -1.4521  0.7622
 2855TIP3    H2 8572   2.420   4.405   2.611 -1.0695  1.2616  0.1803
 2856TIP3   OH2 8573   3.245   3.432   0.694  0.2076 -0.5761 -0.6210
 2856TIP3    H1 8574   3.325   3.435   0.747 -0.9122  0.0967  1.1284
 2856TIP3    H2 8575   3.222   3.524   0.680 -0.9405 -0.7413  0.0305
 2857TIP3   OH2 8576   5.959   5.294   4.083 -0.2231  0.0395  0.2970
 2857TIP3    H1 8577   6.000   5.330   4.005 -0.2109 -0.9165 -0.1575
 2857TIP3    H2 8578   6.030   5.246   4.127  0.6675  3.2249  2.6863
 2858TIP3   OH2 8579   6.312   0.804   3.003  0.2202  0.7269  0.0196
 2858TIP3    H1 8580   6.266   0.885   2.981  1.1566  1.7160  1.5673
 2858TIP3    H2 8581   6.394   0.833   3.044  0.5990 -0.9997  0.5581
 2859TIP3   OH2 8582   5.012   4.310   3.740 -0.5562  0.2710  0.2135
 2859TIP3    H1 8583   4.991   4.369   3.668 -0.8822  0.1968  0.2460
 2859TIP3    H2 8584   5.064   4.364   3.800  0.6322  0.0378 -0.5649
 2860TIP3   OH2 8585   6.161   2.817   4.368  0.7507  0.0441  0.0599
 2860TIP3    H1 8586   6.196   2.864   4.444 -1.1208  1.2091  0.2915
 2860TIP3    H2 8587   6.175   2.724   4.388  1.9733  0.4076  0.9440
 2861TIP3   OH2 8588   5.128   1.442   5.096  0.2153 -0.5892 -0.3554
 2861TIP3    H1 8589   5.075   1.512   5.135  1.6176 -0.3531  1.2623
 2861TIP3    H2 8590   5.068   1.368   5.089 -0.5412 -0.1028  0.6631
 2862TIP3   OH2 8591   2.645   3.517   3.783  0.5479  0.3667 -0.3692
 2862TIP3    H1 8592   2.584   3.453   3.746  0.0002 -0.1401  1.2956
 2862TIP3    H2 8593   2.623   3.599   3.740 -0.0887 -0.1675 -1.0990
 2863TIP3   OH2 8594   6.149   5.854   3.688  0.7346 -0.3495 -0.4884
 2863TIP3    H1 8595   6.157   5.943   3.721 -0.9847  0.2387 -1.5391
 2863TIP3    H2 8596   6.240   5.824   3.677  1.3353  0.4858  1.8099
 2864TIP3   OH2 8597   1.980   4.945   2.178  0.5013  0.1877  1.0417
 2864TIP3    H1 8598   1.973   4.907   2.090 -3.6732  0.2310  1.1471
 2864TIP3    H2 8599   2.013   4.874   2.232  0.0804 -0.8999 -0.0682
 2865TIP3   OH2 8600   1.843   0.484   5.119 -0.2112  0.1122  0.3805
 2865TIP3    H1 8601   1.757   0.503   5.082  0.2428 -0.9181 -1.2965
 2865TIP3    H2 8602   1.847   0.388   5.121  1.5669  0.1072 -1.2950
 2866TIP3   OH2 8603   5.801   2.698   2.994 -0.0938  0.1368 -0.0678
 2866TIP3    H1 8604   5.832   2.609   2.976  0.5799  0.6188 -1.3863
 2866TIP3    H2 8605   5.835   2.717   3.082 -0.9085 -1.1704  0.5672
 2867TIP3   OH2 8606   3.713   3.902   4.472 -1.0020  0.5738  0.6362
 2867TIP3    H1 8607   3.673   3.945   4.396 -0.4708  0.3119  0.2012
 2867TIP3    H2 8608   3.690   3.959   4.545 -3.3949 -0.3166  0.6607
 2868TIP3   OH2 8609   5.876   5.589  -0.028 -0.4758  0.1123 -0.5010
 2868TIP3    H1 8610   5.964   5.612  -0.001 -0.5519  0.5898 -0.6437
 2868TIP3    H2 8611   5.844   5.530   0.040 -0.8655  1.7194  0.7466
 2869TIP3   OH2 8612   4.714   1.091   3.331  0.5892  0.5161 -0.0778
 2869TIP3    H1 8613   4.799   1.117   3.293 -0.4563  1.8437 -1.6490
 2869TIP3    H2 8614   4.736   1.022   3.393  2.4646 -1.7072 -2.9664
 2870TIP3   OH2 8615  -0.025   3.835   1.459  0.0011 -0.0752 -0.2104
 2870TIP3    H1 8616   0.011   3.924   1.451 -2.2278  0.7660 -1.5326
 2870TIP3    H2 8617   0.047   3.785   1.498  0.9222  2.5617  1.8278
 2871TIP3   OH2 8618   0.868   5.765   3.966  0.3581  0.6965 -0.0127
 2871TIP3    H1 8619   0.920   5.690   3.937 -1.1150 -0.9745  1.3940
 2871TIP3    H2 8620   0.808   5.728   4.032 -2.6809  2.4218 -1.5924
 2872TIP3   OH2 8621   0.387   0.019   3.326  0.3280  0.4390 -0.0679
 2872TIP3    H1 8622   0.335  -0.057   3.304 -0.0581  0.2544  1.3918
 2872TIP3    H2 8623   0.377   0.078   3.252  0.9476 -1.0657 -1.4026
 2873TIP3   OH2 8624   5.956   3.829   0.238  0.2328 -0.9816  0.0295
 2873TIP3    H1 8625   5.928   3.755   0.184 -0.4814  0.2787 -1.3936
 2873TIP3    H2 8626   5.877   3.853   0.287  1.0175 -2.4720  2.1506
 2874TIP3   OH2 8627   4.131   1.611   0.538  0.1549  0.6559  0.0088
 2874TIP3    H1 8628   4.112   1.525   0.576 -0.5651 -0.3793 -2.4617
 2874TIP3    H2 8629   4.064   1.669   0.574 -1.4856 -0.6312 -0.8169
 2875TIP3   OH2 8630   5.463   2.393   2.430  0.3022 -0.2628 -0.0783
 2875TIP3    H1 8631   5.460   2.306   2.472 -1.5876 -0.0811  0.2538
 2875TIP3    H2 8632   5.484   2.375   2.339  0.3756 -1.0501  0.0864
 2876TIP3   OH2 8633   2.935   1.845   3.596  0.1666 -0.0290  0.2696
 2876TIP3    H1 8634   2.967   1.757   3.582  1.6149  0.4634  0.3638
 2876TIP3    H2 8635   2.992   1.901   3.543 -1.9463  0.7094 -1.4019
 2877TIP3   OH2 8636   3.526   0.775   2.543 -0.6180  0.3959 -0.4641
 2877TIP3    H1 8637   3.527   0.748   2.451 -1.8601  3.1969 -1.3972
 2877TIP3    H2 8638   3.433   0.773   2.567 -0.3321 -0.0104  0.6416
 2878TIP3   OH2 8639   0.238   4.845   4.039  0.7798  0.4355 -0.3806
 2878TIP3    H1 8640   0.325   4.807   4.028  0.6822  0.3472 -0.9030
 2878TIP3    H2 8641   0.226   4.900   3.961 -0.9214 -2.0942 -2.0860
 2879TIP3   OH2 8642   2.035   3.178   1.669 -0.2419 -0.0808 -0.4134
 2879TIP3    H1 8643   2.066   3.159   1.581 -0.6741 -1.0758 -0.3615
 2879TIP3    H2 8644   2.088   3.123   1.726 -2.3405 -2.2226 -0.3591
 2880TIP3   OH2 8645   5.532   3.112   3.754  0.9220  0.3921 -0.5054
 2880TIP3    H1 8646   5.477   3.035   3.767 -0.2897  0.9609 -1.9227
 2880TIP3    H2 8647   5.504   3.173   3.823  0.7324  0.1714 -0.3854
 2881TIP3   OH2 8648   2.316   0.870   1.299  0.4492  0.1447  0.0139
 2881TIP3    H1 8649   2.232   0.860   1.343  0.3650  2.3186  0.4236
 2881TIP3    H2 8650   2.295   0.862   1.205  0.1324 -1.2664  0.1819
 2882TIP3   OH2 8651   0.633   5.353   1.680 -0.0783  0.0233  0.1480
 2882TIP3    H1 8652   0.684   5.321   1.606  0.2767  1.7402 -0.3797
 2882TIP3    H2 8653   0.554   5.300   1.679  1.5131 -2.5654  0.8552
 2883TIP3   OH2 8654   6.272   1.838   0.653 -1.1057  0.3097  0.6594
 2883TIP3    H1 8655   6.345   1.889   0.617 -0.7655 -0.0945  0.7597
 2883TIP3    H2 8656   6.272   1.860   0.747  0.2763 -1.2994  1.0927
 2884TIP3   OH2 8657   3.868   2.366   2.288 -0.3179  0.6008 -0.7592
 2884TIP3    H1 8658   3.795   2.326   2.335 -0.2031 -1.3545 -2.1263
 2884TIP3    H2 8659   3.907   2.426   2.352 -0.7523 -1.1956  1.3269
 2885TIP3   OH2 8660   0.515   0.103   4.255  0.0567  0.3440 -0.6567
 2885TIP3    H1 8661   0.510   0.009   4.237 -2.0210  0.7182 -2.3601
 2885TIP3    H2 8662   0.465   0.114   4.336 -1.2504  0.1646 -1.4104
 2886TIP3   OH2 8663   4.210   2.047   2.113 -0.4897 -0.1209 -0.3113
 2886TIP3    H1 8664   4.207   2.114   2.182 -0.1812 -3.1209  2.9185
 2886TIP3    H2 8665   4.122   2.046   2.077 -0.5612  1.8118 -0.2613
 2887TIP3   OH2 8666   6.028   2.865   0.803  0.3772 -0.2785 -0.5749
 2887TIP3    H1 8667   6.029   2.959   0.785 -0.4843 -0.4123 -1.3867
 2887TIP3    H2 8668   5.943   2.849   0.843  0.0389 -0.8957 -1.5205
 2888TIP3   OH2 8669   4.430   1.005   1.762 -0.4079 -0.3989  0.1488
 2888TIP3    H1 8670   4.467   0.938   1.820 -0.0859 -0.6089 -0.2894
 2888TIP3    H2 8671   4.346   1.027   1.801  0.2977  0.2931  1.3289
 2889TIP3   OH2 8672   1.987   0.441   4.689 -0.0245  0.2721 -0.0843
 2889TIP3    H1 8673   2.065   0.387   4.685 -0.2067  0.0894 -2.0867
 2889TIP3    H2 8674   2.020   0.528   4.713  1.0481  0.5442 -2.2675
 2890TIP3   OH2 8675   2.624   1.921   1.170 -0.7413  0.4823  0.5741
 2890TIP3    H1 8676   2.604   1.831   1.146 -0.5820  1.1233 -2.3513
 2890TIP3    H2 8677   2.558   1.945   1.234 -2.3386 -0.9715 -0.4565
 2891TIP3   OH2 8678   4.753   0.876   2.274  0.0780 -0.3404 -0.3873
 2891TIP3    H1 8679   4.659   0.863   2.286  0.1801 -2.6384 -1.4266
 2891TIP3    H2 8680   4.761   0.938   2.203 -0.6611 -0.2794 -0.4217
 2892TIP3   OH2 8681   4.151   3.483   2.954  0.1106 -0.1064  0.0369
 2892TIP3    H1 8682   4.220   3.549   2.942  0.6672 -0.4187  1.3942
 2892TIP3    H2 8683   4.070   3.531   2.940  0.5824  0.0397 -2.6462
 2893TIP3   OH2 8684   5.971   4.635   3.407 -0.1247  0.8574 -0.0300
 2893TIP3    H1 8685   5.926   4.719   3.421 -0.8947  0.4090  0.2239
 2893TIP3    H2 8686   5.950   4.583   3.484  0.2407  0.3762 -0.2501
 2894TIP3   OH2 8687   2.073   3.477   0.291  0.0619 -0.2323  0.7642
 2894TIP3    H1 8688   2.081   3.546   0.357  3.6831  1.8182 -1.4914
 2894TIP3    H2 8689   2.113   3.401   0.332  0.8065  0.5299  1.5024
 2895TIP3   OH2 8690   2.801   2.309   4.488 -0.2342  0.5747 -0.0918
 2895TIP3    H1 8691   2.804   2.399   4.454  0.8613  0.2057 -1.0305
 2895TIP3    H2 8692   2.721   2.306   4.540  0.0346  2.2874  0.4959
 2896TIP3   OH2 8693   3.087   5.318   1.308 -0.5368 -0.5939  0.0389
 2896TIP3    H1 8694   3.095   5.385   1.376  0.2433 -0.6289 -0.0058
 2896TIP3    H2 8695   3.029   5.356   1.243  0.6489  0.4339 -0.4416
 2897TIP3   OH2 8696   3.485   1.654   3.382 -0.5998  0.2571 -0.2579
 2897TIP3    H1 8697   3.560   1.601   3.408 -2.0428 -1.1029  1.4231
 2897TIP3    H2 8698   3.416   1.629   3.444 -2.4014  1.5415 -1.6513
 2898TIP3   OH2 8699   5.628   3.428   4.649  0.1196 -0.2068 -0.2077
 2898TIP3    H1 8700   5.671   3.378   4.580  0.7605 -0.8889  0.6556
 2898TIP3    H2 8701   5.670   3.397   4.730 -0.1318  1.0554  0.4296
 2899TIP3   OH2 8702   2.097   0.451   1.736 -0.9008 -0.0627 -0.4002
 2899TIP3    H1 8703   2.051   0.376   1.698 -0.1490 -0.0871 -1.2990
 2899TIP3    H2 8704   2.140   0.494   1.662 -1.3265  1.2792  0.0930
 2900TIP3   OH2 8705   3.597   0.786   1.533 -0.1611  0.0306 -0.4969
 2900TIP3    H1 8706   3.663   0.826   1.475 -0.0208 -0.6533 -0.8112
 2900TIP3    H2 8707   3.526   0.761   1.475 -0.4939  0.3226 -0.2200
 2901TIP3   OH2 8708   1.287   1.807   2.941  0.1807 -0.3259  0.2843
 2901TIP3    H1 8709   1.203   1.765   2.922 -1.0734  2.6127 -1.3069
 2901TIP3    H2 8710   1.284   1.826   3.034 -1.2721  0.3557  0.1240
 2902TIP3   OH2 8711   6.197   0.645   0.533 -0.4870 -0.2828  0.1525
 2902TIP3    H1 8712   6.220   0.726   0.579 -0.8859 -0.7052  1.1344
 2902TIP3    H2 8713   6.132   0.671   0.469  2.2058  0.8660 -2.3690
 2903TIP3   OH2 8714   5.197   2.511   3.889 -0.3392  0.1631 -0.0206
 2903TIP3    H1 8715   5.205   2.494   3.795  0.1912 -0.8458  0.1880
 2903TIP3    H2 8716   5.143   2.439   3.922 -0.1155  0.2388  0.5214
 2904TIP3   OH2 8717   2.882   4.343   0.063  0.0721  0.0768  0.0127
 2904TIP3    H1 8718   2.912   4.433   0.078  0.0063  0.3681 -1.4856
 2904TIP3    H2 8719   2.948   4.305   0.005 -0.0362 -0.7693  0.4342
 2905TIP3   OH2 8720   0.239   2.692   3.172 -0.1210  0.1674  0.7919
 2905TIP3    H1 8721   0.240   2.664   3.080  0.9852  0.9848  0.5202
 2905TIP3    H2 8722   0.204   2.617   3.220 -2.3683  0.3333 -0.4634
 2906TIP3   OH2 8723   1.483   0.671   1.501  0.0842  0.4131 -0.7043
 2906TIP3    H1 8724   1.498   0.582   1.535  0.8647  0.0580 -1.9325
 2906TIP3    H2 8725   1.389   0.685   1.514 -0.1467 -0.7728 -0.9099
 2907TIP3   OH2 8726   3.231   3.227   2.807  0.5356  0.0793  0.1835
 2907TIP3    H1 8727   3.218   3.148   2.755  0.7027 -0.6653  1.2509
 2907TIP3    H2 8728   3.317   3.216   2.847 -0.0833  0.0934  1.5507
 2908TIP3   OH2 8729   2.501   2.207   4.361  0.2846  0.4244 -0.4098
 2908TIP3    H1 8730   2.524   2.136   4.422 -1.1728  0.5049  0.2797
 2908TIP3    H2 8731   2.469   2.277   4.418 -0.0786  0.9166 -1.2146
 2909TIP3   OH2 8732   2.194   5.231   4.252  0.1667 -0.2320  0.2571
 2909TIP3    H1 8733   2.286   5.254   4.247  0.1229 -0.2285 -0.6964
 2909TIP3    H2 8734   2.168   5.215   4.161 -0.5461 -1.1063  0.6002
 2910TIP3   OH2 8735   0.960   2.465   4.698 -0.3035 -0.2490 -0.4062
 2910TIP3    H1 8736   0.997   2.449   4.785  0.3130 -1.6767 -0.8824
 2910TIP3    H2 8737   0.891   2.399   4.689 -1.9549  1.3610 -0.1547
 2911TIP3   OH2 8738   3.660   2.977   1.454 -0.1037  0.2382  0.2581
 2911TIP3    H1 8739   3.615   2.966   1.370 -0.7045 -0.2194  0.6335
 2911TIP3    H2 8740   3.638   3.065   1.483  2.3394  1.4968 -1.3581
 2912TIP3   OH2 8741   3.716   5.149   4.179  0.0334 -0.1666 -0.3467
 2912TIP3    H1 8742   3.686   5.120   4.265  0.5726 -0.2665 -0.1884
 2912TIP3    H2 8743   3.701   5.075   4.121 -1.4206  0.2938 -0.6039
 2913TIP3   OH2 8744   2.570   3.719   1.491  1.0743  0.1476 -0.2135
 2913TIP3    H1 8745   2.542   3.706   1.582 -0.2417  1.0339 -0.4680
 2913TIP3    H2 8746   2.529   3.647   1.443  0.7405  0.3866 -0.2917
 2914TIP3   OH2 8747   0.525   4.458   3.996  0.0421  0.5543  0.0840
 2914TIP3    H1 8748   0.503   4.475   4.088 -0.9654  1.2373 -0.2641
 2914TIP3    H2 8749   0.620   4.446   3.996  0.1222  1.0243  1.1470
 2915TIP3   OH2 8750   2.987   2.683   1.999  0.1063  0.1184  0.0502
 2915TIP3    H1 8751   2.954   2.603   2.040  0.0566  0.6074  1.0027
 2915TIP3    H2 8752   3.003   2.743   2.072 -1.0259  1.4344 -0.7122
 2916TIP3   OH2 8753   0.927   3.423   4.731  0.2556 -0.2217 -0.3126
 2916TIP3    H1 8754   0.928   3.517   4.749 -0.1700 -0.3434  0.4197
 2916TIP3    H2 8755   1.004   3.408   4.677  0.3265  0.5480 -0.4426
 2917TIP3   OH2 8756   0.464   4.482   0.158 -0.0830  0.2593  0.7245
 2917TIP3    H1 8757   0.519   4.559   0.174  0.9613 -0.2843 -0.1507
 2917TIP3    H2 8758   0.493   4.448   0.074  0.4155 -1.8670  1.6892
 2918TIP3   OH2 8759   0.604   1.348   3.171 -0.7864 -0.1723  0.3579
 2918TIP3    H1 8760   0.683   1.297   3.153 -0.9105 -0.8364  1.5773
 2918TIP3    H2 8761   0.532   1.287   3.156 -1.1672  0.6867 -1.6515
 2919TIP3   OH2 8762   3.627   2.740   3.304 -0.2481  0.3124  0.1247
 2919TIP3    H1 8763   3.557   2.757   3.241 -0.7575 -0.8468  0.3366
 2919TIP3    H2 8764   3.662   2.654   3.278  2.5178  1.7169 -1.2201
 2920TIP3   OH2 8765   2.062   1.018   1.649 -0.1253  0.1109  0.1811
 2920TIP3    H1 8766   2.069   0.980   1.561  1.3516  2.2828 -0.7327
 2920TIP3    H2 8767   2.124   0.968   1.702  0.0264 -0.3103 -0.3815
 2921TIP3   OH2 8768   0.255   1.911   2.758  0.0391 -0.3518  0.1431
 2921TIP3    H1 8769   0.311   1.971   2.709  0.1596  0.3856  1.1489
 2921TIP3    H2 8770   0.198   1.872   2.692  0.5584  0.1976 -0.6544
 2922TIP3   OH2 8771   3.337   4.301   0.485 -0.2317  0.2238 -0.1620
 2922TIP3    H1 8772   3.293   4.313   0.569  1.5612  2.0478  0.6095
 2922TIP3    H2 8773   3.429   4.287   0.508  0.3323  0.9731 -1.7863
 2923TIP3   OH2 8774   1.503   5.448   5.157  0.4193  0.2668  0.2291
 2923TIP3    H1 8775   1.446   5.524   5.147 -0.2917  0.1070  2.6097
 2923TIP3    H2 8776   1.562   5.470   5.229  0.2593 -1.3741  0.9135
 2924TIP3   OH2 8777   0.156   2.767   4.887 -0.3574 -0.2849  0.3789
 2924TIP3    H1 8778   0.228   2.789   4.829  0.9561 -0.6484  1.8048
 2924TIP3    H2 8779   0.104   2.847   4.893  0.0039  0.0315 -0.5401
 2925TIP3   OH2 8780   1.552   4.382   3.945 -0.0983 -0.0559  0.0888
 2925TIP3    H1 8781   1.541   4.370   3.851  2.2075  0.4478 -0.3045
 2925TIP3    H2 8782   1.547   4.294   3.982 -2.7672 -0.1121 -0.2099
 2926TIP3   OH2 8783   4.745   2.840   2.340 -0.2747  0.2408 -0.6517
 2926TIP3    H1 8784   4.783   2.841   2.252  1.2796 -0.6039 -0.0241
 2926TIP3    H2 8785   4.728   2.932   2.359  0.3213  0.5297 -1.4418
 2927TIP3   OH2 8786   0.625   5.654   1.707 -0.1427 -0.3161 -0.3167
 2927TIP3    H1 8787   0.628   5.559   1.705  0.2379 -0.3100 -0.2107
 2927TIP3    H2 8788   0.711   5.681   1.675  0.1526 -0.0211  0.6853
 2928TIP3   OH2 8789   2.699   2.800   2.176  0.5411  0.2006 -0.0578
 2928TIP3    H1 8790   2.605   2.782   2.176  0.8526 -1.7010  1.1270
 2928TIP3    H2 8791   2.718   2.825   2.086 -0.9024 -0.5940 -0.6259
 2929TIP3   OH2 8792   4.693   5.786   4.245  0.0706  0.5957 -0.3197
 2929TIP3    H1 8793   4.663   5.710   4.294  1.7243  0.3251  0.3518
 2929TIP3    H2 8794   4.674   5.765   4.154 -1.2289  0.2311  0.0252
 2930TIP3   OH2 8795   4.271   3.003   3.422  0.2451  0.4936 -0.3670
 2930TIP3    H1 8796   4.182   3.037   3.430  0.1603  0.6148 -1.5977
 2930TIP3    H2 8797   4.327   3.077   3.443  0.0564  0.7452 -0.7493
 2931TIP3   OH2 8798   0.375   3.365   4.480 -0.1222  0.1270  0.8909
 2931TIP3    H1 8799   0.293   3.345   4.525 -2.0444  0.0970 -2.3133
 2931TIP3    H2 8800   0.415   3.434   4.533 -1.4780 -0.8230  3.2991
 2932TIP3   OH2 8801   2.096   3.524   0.900 -0.4272 -0.4648 -0.1397
 2932TIP3    H1 8802   2.038   3.601   0.903  1.1850  0.8951 -1.4940
 2932TIP3    H2 8803   2.048   3.456   0.947 -2.0614  1.2780  0.8644
 2933TIP3   OH2 8804   3.386   2.702   3.118 -0.2493 -0.0795  0.1097
 2933TIP3    H1 8805   3.290   2.700   3.111 -0.3299  0.5996  0.8696
 2933TIP3    H2 8806   3.417   2.656   3.040 -1.2101 -1.4607  0.5144
 2934TIP3   OH2 8807   1.926   2.860   2.064  0.1224 -0.5553 -0.0407
 2934TIP3    H1 8808   1.870   2.802   2.116  0.7776 -1.2906 -0.1261
 2934TIP3    H2 8809   1.954   2.805   1.990  0.6382 -0.0787 -0.2044
 2935TIP3   OH2 8810   1.142   2.736   1.707 -0.2660  0.2534  0.1999
 2935TIP3    H1 8811   1.164   2.819   1.663  1.7882 -0.1367  0.4279
 2935TIP3    H2 8812   1.076   2.697   1.649  0.2132  1.1183 -0.9956
 2936TIP3   OH2 8813   1.020   3.439   1.653 -0.1056 -1.0482 -0.3578
 2936TIP3    H1 8814   1.078   3.380   1.701  1.4144 -1.6733 -2.8100
 2936TIP3    H2 8815   0.934   3.397   1.659  0.0405 -1.1509  1.6424
 2937TIP3   OH2 8816   2.201   4.014   1.747 -0.2757 -0.5036  0.2327
 2937TIP3    H1 8817   2.120   3.965   1.759 -0.3264 -0.6899 -0.7469
 2937TIP3    H2 8818   2.244   3.971   1.673  0.9037 -0.6354  0.9715
 2938TIP3   OH2 8819   4.252   0.771   1.622  0.0954 -0.2310 -0.2892
 2938TIP3    H1 8820   4.291   0.723   1.549  1.5167 -0.1862  0.4210
 2938TIP3    H2 8821   4.299   0.854   1.624 -0.9523  0.3768 -0.2318
 2939TIP3   OH2 8822   3.520   2.959   0.051  0.0603  0.3724 -0.2842
 2939TIP3    H1 8823   3.594   2.934   0.106 -1.2191 -0.7305  1.0324
 2939TIP3    H2 8824   3.492   3.044   0.085 -1.2091 -0.6554  1.3795
 2940TIP3   OH2 8825   1.850   4.006   0.247 -0.1951  0.2801  0.3217
 2940TIP3    H1 8826   1.872   4.087   0.293 -1.2074  0.1597  1.0389
 2940TIP3    H2 8827   1.857   3.937   0.313 -1.7794  0.1198  0.3621
 2941TIP3   OH2 8828   4.076   1.757   3.257 -0.3869  0.7805  0.3301
 2941TIP3    H1 8829   4.024   1.796   3.187  1.4920  1.5485 -0.7292
 2941TIP3    H2 8830   4.101   1.832   3.313 -1.1282  0.3002  1.3375
 2942TIP3   OH2 8831   3.425   4.732   1.567 -0.0295 -0.4745 -0.5307
 2942TIP3    H1 8832   3.345   4.681   1.579 -0.0565 -0.7633 -1.7901
 2942TIP3    H2 8833   3.398   4.809   1.517  0.5849 -0.9439 -1.6155
 2943TIP3   OH2 8834   1.414   4.470   0.918  0.1381 -0.0707 -0.5483
 2943TIP3    H1 8835   1.426   4.536   0.850 -1.6480  0.4326 -0.4361
 2943TIP3    H2 8836   1.350   4.409   0.880 -0.5895  0.0083  0.5168
 2944TIP3   OH2 8837   0.423   4.079   1.092  0.3492 -0.5366 -0.3976
 2944TIP3    H1 8838   0.424   4.172   1.112 -0.6501 -0.0010 -2.5258
 2944TIP3    H2 8839   0.513   4.059   1.065  0.9905 -0.6330  1.6523
 2945TIP3   OH2 8840   1.051   5.372   4.534  0.1386  0.0459  0.1921
 2945TIP3    H1 8841   1.123   5.341   4.589 -0.8297 -0.8105  1.0172
 2945TIP3    H2 8842   1.054   5.318   4.456  0.0581 -0.3658  0.4730
 2946TIP3   OH2 8843   3.104   5.351   3.110 -0.0847 -0.3812  0.2157
 2946TIP3    H1 8844   3.028   5.299   3.139 -0.3357  0.0360  0.3130
 2946TIP3    H2 8845   3.067   5.417   3.051 -0.3211  1.9590  2.7995
 2947TIP3   OH2 8846   0.735   4.180   3.370  0.0374  0.8471 -0.3828
 2947TIP3    H1 8847   0.828   4.199   3.361  0.4534 -0.5074  0.6786
 2947TIP3    H2 8848   0.704   4.243   3.435  0.3661  0.8463 -0.2228
 2948TIP3   OH2 8849   5.663   3.955   3.490  0.3838 -0.3202  0.1307
 2948TIP3    H1 8850   5.642   4.047   3.504  1.0961 -0.2589  0.8543
 2948TIP3    H2 8851   5.713   3.953   3.409  0.0931 -0.1126 -0.0562
 2949TIP3   OH2 8852   1.557   4.408   5.042 -0.2449  0.5492  0.4227
 2949TIP3    H1 8853   1.482   4.407   5.101  0.7691  2.3712  1.8385
 2949TIP3    H2 8854   1.631   4.381   5.097  0.4539  0.6741 -0.4347
 2950TIP3   OH2 8855   2.008   1.864   2.689 -0.0524 -0.1957 -0.2353
 2950TIP3    H1 8856   2.023   1.841   2.597 -0.3233 -1.4198  0.0028
 2950TIP3    H2 8857   1.962   1.788   2.725 -0.7652  0.6552  0.6925
 2951TIP3   OH2 8858   1.580   1.719   4.311 -0.0275 -0.2580  0.0733
 2951TIP3    H1 8859   1.562   1.635   4.269  0.9740 -0.4872  0.0715
 2951TIP3    H2 8860   1.497   1.767   4.306 -0.5253 -1.1232 -0.1964
 2952TIP3   OH2 8861   1.255   3.501   4.942 -0.0145 -0.0221 -0.2497
 2952TIP3    H1 8862   1.279   3.474   5.030  0.0041 -1.6745 -0.7264
 2952TIP3    H2 8863   1.189   3.570   4.954 -0.1367 -0.3557  1.0418
 2953TIP3   OH2 8864   0.159   5.122   4.864 -0.1650 -0.3510 -0.7102
 2953TIP3    H1 8865   0.152   5.070   4.945  1.0354  0.4917 -0.0277
 2953TIP3    H2 8866   0.069   5.137   4.837 -0.5629 -1.6556 -0.1908
 2954TIP3   OH2 8867   3.865   4.999   3.847 -0.0630  0.1110 -0.0245
 2954TIP3    H1 8868   3.848   4.905   3.849  0.3010 -0.0300 -1.9035
 2954TIP3    H2 8869   3.860   5.026   3.939  0.4300 -1.8375  0.6243
 2955TIP3   OH2 8870   4.461   2.965   2.204  0.2489  0.1649  0.2738
 2955TIP3    H1 8871   4.441   2.902   2.273 -0.6724  1.7443  1.5079
 2955TIP3    H2 8872   4.516   3.031   2.247  0.0495  0.9318 -0.6072
 2956TIP3   OH2 8873   6.050   0.052   2.448  0.9046  0.2632 -0.2859
 2956TIP3    H1 8874   6.014   0.061   2.360  3.1431 -1.0848 -1.4326
 2956TIP3    H2 8875   6.017  -0.031   2.480  0.2721  0.6473  0.0747
 2957TIP3   OH2 8876   4.180   4.188   3.120  0.1595  0.3132  0.2242
 2957TIP3    H1 8877   4.150   4.111   3.169  0.3747 -0.0808 -0.2567
 2957TIP3    H2 8878   4.257   4.158   3.072  1.0324  1.1753  1.0255
 2958TIP3   OH2 8879   4.457   4.714   0.315 -0.1548  0.3199  0.3684
 2958TIP3    H1 8880   4.528   4.760   0.270 -1.2707  2.3742  0.5504
 2958TIP3    H2 8881   4.393   4.694   0.247  0.1190 -0.5768  0.3673
 2959TIP3   OH2 8882   0.217   1.218   3.224 -0.1090 -0.0873  0.1454
 2959TIP3    H1 8883   0.199   1.200   3.316 -1.0186  0.4698  0.0917
 2959TIP3    H2 8884   0.307   1.191   3.211 -0.3628 -1.3679  0.8930
 2960TIP3   OH2 8885   5.191   0.710   3.144 -0.2055  0.1253  0.3296
 2960TIP3    H1 8886   5.160   0.720   3.234 -1.0909 -0.0721  0.0544
 2960TIP3    H2 8887   5.246   0.632   3.146  2.7155  2.0198  1.4386
 2961TIP3   OH2 8888   2.480   0.354   4.030  0.0092 -0.2753 -0.3173
 2961TIP3    H1 8889   2.487   0.260   4.043 -0.4390 -0.0796  1.5093
 2961TIP3    H2 8890   2.386   0.371   4.025  0.0557  0.1813  0.2923
 2962TIP3   OH2 8891   1.230   3.626   3.396  0.2048  0.1630 -0.3313
 2962TIP3    H1 8892   1.317   3.617   3.434 -0.5192 -0.6434  1.2536
 2962TIP3    H2 8893   1.232   3.573   3.317  0.7763 -0.9788  0.4233
 2963TIP3   OH2 8894   2.490   4.592   1.902 -0.4750  0.1985 -0.3916
 2963TIP3    H1 8895   2.523   4.502   1.904  0.6173  0.5678  2.0290
 2963TIP3    H2 8896   2.401   4.586   1.938  0.5427  0.3078  2.4067
 2964TIP3   OH2 8897   4.059   4.999   3.274  0.4831  0.1256  0.8171
 2964TIP3    H1 8898   3.992   4.964   3.215  0.9936 -0.8407  0.7841
 2964TIP3    H2 8899   4.014   5.009   3.357 -0.1891  1.2974  0.3391
 2965TIP3   OH2 8900   5.618   5.977   3.594 -0.4039 -0.5394  0.3253
 2965TIP3    H1 8901   5.585   5.982   3.505 -0.3020  2.2092  0.3558
 2965TIP3    H2 8902   5.712   5.989   3.586 -0.5302  0.9613  0.8532
 2966TIP3   OH2 8903   0.216   1.650   0.612 -0.4640 -0.4794 -0.2028
 2966TIP3    H1 8904   0.209   1.739   0.578 -1.5584 -0.2313  0.6211
 2966TIP3    H2 8905   0.279   1.607   0.555 -0.9603  0.4204 -1.4591
 2967TIP3   OH2 8906   1.362   2.158   1.607 -0.5638  0.3807 -0.2375
 2967TIP3    H1 8907   1.288   2.102   1.580 -1.0641  0.2611  1.2804
 2967TIP3    H2 8908   1.330   2.204   1.684  1.2753 -0.4199  1.0749
 2968TIP3   OH2 8909   2.027   3.353   4.227 -0.3289 -0.3984  0.3063
 2968TIP3    H1 8910   1.990   3.435   4.192  0.3601  0.2187  0.9862
 2968TIP3    H2 8911   2.019   3.290   4.155  1.6350  0.9900 -1.2357
 2969TIP3   OH2 8912   2.594   3.796   3.669 -0.0669  0.3906  0.0867
 2969TIP3    H1 8913   2.635   3.854   3.733 -0.4181 -0.6808  1.3283
 2969TIP3    H2 8914   2.501   3.817   3.672 -0.0407  0.5846 -0.3505
 2970TIP3   OH2 8915   3.836   5.604   0.789  0.1562  0.2693 -0.6303
 2970TIP3    H1 8916   3.846   5.690   0.829 -0.8305  0.0199  0.1797
 2970TIP3    H2 8917   3.919   5.559   0.807 -0.3547  0.0620  1.4302
 2971TIP3   OH2 8918   1.695   5.150   0.454  0.2120 -0.2907  0.3167
 2971TIP3    H1 8919   1.759   5.213   0.487 -0.5785 -0.0698  1.4866
 2971TIP3    H2 8920   1.740   5.106   0.382  0.7524  1.6610 -0.6097
 2972TIP3   OH2 8921   4.599   0.836   3.184 -0.2232 -0.3253  0.3469
 2972TIP3    H1 8922   4.639   0.873   3.105 -1.0717 -1.5824 -0.7216
 2972TIP3    H2 8923   4.671   0.829   3.246  0.8387 -0.7680 -0.8725
 2973TIP3   OH2 8924   0.803   4.336   4.065 -0.4598  0.4333 -0.1042
 2973TIP3    H1 8925   0.744   4.278   4.113 -0.9618  0.5959 -0.5227
 2973TIP3    H2 8926   0.812   4.295   3.979  2.8539 -1.5542  0.9999
 2974TIP3   OH2 8927   1.842   1.665   0.775  0.2268  0.4002  0.5685
 2974TIP3    H1 8928   1.931   1.698   0.761  0.8048 -1.1684  0.3581
 2974TIP3    H2 8929   1.793   1.741   0.808  2.0982  0.8622  2.5156
 2975TIP3   OH2 8930   1.919   2.883   3.384  0.0013  0.0814  0.2403
 2975TIP3    H1 8931   1.872   2.807   3.349  0.0788  0.1661 -0.0477
 2975TIP3    H2 8932   1.867   2.958   3.356 -0.1270  0.1285  0.6073
 2976TIP3   OH2 8933   5.513   5.876   2.173  0.5648  0.2145 -0.0994
 2976TIP3    H1 8934   5.436   5.829   2.140  1.3560 -3.3298  2.5816
 2976TIP3    H2 8935   5.578   5.867   2.103 -0.1221 -0.5451 -0.6579
 2977TIP3   OH2 8936   5.053   2.789   3.776 -0.1806  0.7885 -0.1024
 2977TIP3    H1 8937   5.088   2.711   3.820 -2.1972  0.8640  1.8526
 2977TIP3    H2 8938   5.039   2.761   3.686 -1.6019 -1.4605  0.7200
 2978TIP3   OH2 8939   2.934   0.841   4.057 -0.2056  0.1337 -0.0403
 2978TIP3    H1 8940   2.902   0.839   3.966 -2.7295  2.0520  0.6768
 2978TIP3    H2 8941   2.937   0.934   4.078 -3.0024 -0.2502  2.8231
 2979TIP3   OH2 8942   5.381   2.696   3.996 -0.6600  0.0310 -0.0633
 2979TIP3    H1 8943   5.345   2.629   3.938  1.0557 -0.9853 -0.0183
 2979TIP3    H2 8944   5.337   2.682   4.079 -0.1046 -1.2660  0.0293
 2980TIP3   OH2 8945   4.555   4.293   5.115  0.0026 -0.3782  0.2043
 2980TIP3    H1 8946   4.580   4.224   5.054 -2.8906 -2.4841  1.2122
 2980TIP3    H2 8947   4.619   4.287   5.185  0.9316 -0.6868 -0.6458
 2981TIP3   OH2 8948   0.625   0.665   2.076  0.1224 -0.6861  0.0072
 2981TIP3    H1 8949   0.557   0.708   2.127  0.6096 -0.6128  0.5993
 2981TIP3    H2 8950   0.703   0.719   2.089  0.1161 -0.3093 -1.3111
 2982TIP3   OH2 8951   5.305   3.339   0.962 -0.3085  0.1290  0.1333
 2982TIP3    H1 8952   5.339   3.307   1.045  2.5013 -0.7502 -1.2208
 2982TIP3    H2 8953   5.245   3.271   0.932  1.8968 -1.6969 -0.4340
 2983TIP3   OH2 8954   1.997   5.428   4.306  0.0662 -0.0577  0.7545
 2983TIP3    H1 8955   2.014   5.449   4.398  0.2541  1.4317  0.4170
 2983TIP3    H2 8956   2.068   5.369   4.281  1.3741  1.3428  0.9841
 2984TIP3   OH2 8957   6.047   2.234   4.340  0.4096 -0.2501  0.0179
 2984TIP3    H1 8958   6.056   2.268   4.428  1.2046 -1.1780  0.3136
 2984TIP3    H2 8959   6.120   2.272   4.292  0.3794 -0.2909 -0.0607
 2985TIP3   OH2 8960   4.966   2.453   0.137  0.6512  0.0116  0.0700
 2985TIP3    H1 8961   4.900   2.403   0.089 -0.7080 -0.2775  2.1304
 2985TIP3    H2 8962   5.048   2.406   0.120  0.0432 -0.6676 -1.0950
 2986TIP3   OH2 8963   5.701   3.361   1.191 -0.5345  0.4634 -0.2479
 2986TIP3    H1 8964   5.727   3.448   1.159  3.2974  1.0811  3.5912
 2986TIP3    H2 8965   5.768   3.302   1.157 -2.4562 -0.9210 -1.8520
 2987TIP3   OH2 8966   0.494   3.243   4.244  0.3566  0.0777 -0.4664
 2987TIP3    H1 8967   0.469   3.233   4.336  2.8428 -2.7183  0.0351
 2987TIP3    H2 8968   0.504   3.338   4.233 -2.3000  0.7042  1.3889
 2988TIP3   OH2 8969   1.224   1.799   4.559 -0.0142  0.3339 -0.3463
 2988TIP3    H1 8970   1.159   1.747   4.512  0.7627 -0.3117 -0.7320
 2988TIP3    H2 8971   1.276   1.735   4.607  1.6340  0.6082 -1.6524
 2989TIP3   OH2 8972   0.651   5.122   1.886 -0.3910 -0.4025 -0.3926
 2989TIP3    H1 8973   0.709   5.185   1.843  0.3794 -0.3417  0.6949
 2989TIP3    H2 8974   0.568   5.167   1.893  0.2407  0.6441  0.6724
 2990TIP3   OH2 8975   3.718   0.437   2.133 -0.7496  0.3898 -0.1377
 2990TIP3    H1 8976   3.700   0.373   2.064  0.8636 -0.4672  0.1784
 2990TIP3    H2 8977   3.781   0.393   2.190  0.9256  2.4681 -0.2482
 2991TIP3   OH2 8978   5.606   2.266   1.795 -0.8182 -0.0048  0.0206
 2991TIP3    H1 8979   5.635   2.284   1.706 -1.2365 -1.3629 -0.4161
 2991TIP3    H2 8980   5.511   2.283   1.793 -0.7808  0.2502  0.2904
 2992TIP3   OH2 8981   0.650   2.820   1.942  0.1844 -0.0270 -0.6614
 2992TIP3    H1 8982   0.723   2.829   1.880  1.5180 -2.3963  0.4132
 2992TIP3    H2 8983   0.583   2.773   1.893  1.3077 -2.0634 -0.3676
 2993TIP3   OH2 8984   2.169   1.556   1.840 -0.0511  0.2071 -0.2203
 2993TIP3    H1 8985   2.153   1.545   1.747  0.6058  0.4539 -0.3680
 2993TIP3    H2 8986   2.141   1.646   1.859 -0.3503  0.0993 -0.1372
 2994TIP3   OH2 8987   1.976   1.240   2.317 -0.1280 -0.2969 -0.1346
 2994TIP3    H1 8988   1.918   1.165   2.301 -0.5742 -0.2864  1.2948
 2994TIP3    H2 8989   1.917   1.315   2.321  0.1496 -0.0833 -0.1034
 2995TIP3   OH2 8990   4.807   1.021   5.060 -0.6365 -0.5013 -0.0099
 2995TIP3    H1 8991   4.815   0.976   5.144  0.3201  2.2887  1.5322
 2995TIP3    H2 8992   4.721   1.062   5.063 -0.1256  0.5964  0.1912
 2996TIP3   OH2 8993   1.275   2.040   0.414  0.0758  0.1272 -0.2015
 2996TIP3    H1 8994   1.356   2.090   0.417  0.5358 -0.6340  1.2090
 2996TIP3    H2 8995   1.206   2.106   0.412  0.7206  0.7784 -1.3265
 2997TIP3   OH2 8996   4.690   1.395   0.568 -0.1710 -0.4494 -0.0021
 2997TIP3    H1 8997   4.595   1.386   0.580 -0.7729  1.9084 -2.2137
 2997TIP3    H2 8998   4.705   1.489   0.567  1.9889 -0.7579 -1.0798
 2998TIP3   OH2 8999   4.293   2.895   0.346  0.0083  0.3819  0.2477
 2998TIP3    H1 9000   4.304   2.927   0.436  0.1923 -0.4053  0.5088
 2998TIP3    H2 9001   4.383   2.885   0.314 -0.0587  1.3301 -0.2761
 2999TIP3   OH2 9002   0.769   1.292   1.284 -0.0895 -0.5263  0.0619
 2999TIP3    H1 9003   0.747   1.336   1.202  1.9457  2.4806  0.9722
 2999TIP3    H2 9004   0.691   1.304   1.340  0.0608  1.1810 -0.0476
 3000TIP3   OH2 9005   0.761   5.269   3.021  0.3359  0.0815 -0.1500
 3000TIP3    H1 9006   0.825   5.340   3.027  0.6451 -0.2740  1.4140
 3000TIP3    H2 9007   0.774   5.231   2.934  2.1258  0.1552  0.0431
 3001TIP3   OH2 9008   3.622   1.465   2.788  0.1314  0.4085  0.6210
 3001TIP3    H1 9009   3.567   1.450   2.865  0.0185 -0.1113  0.4442
 3001TIP3    H2 9010   3.587   1.545   2.748 -0.2891  0.2625  0.6928
 3002TIP3   OH2 9011   3.421   4.085   1.868 -0.2453  0.7345  0.2599
 3002TIP3    H1 9012   3.367   4.033   1.926 -0.6958  1.4410  0.4930
 3002TIP3    H2 9013   3.408   4.046   1.781  1.5226 -1.2050  0.7886
 3003TIP3   OH2 9014   4.613   4.765   4.295 -0.9854 -0.0081 -0.1664
 3003TIP3    H1 9015   4.686   4.720   4.252 -0.3832 -1.0883  1.8548
 3003TIP3    H2 9016   4.568   4.696   4.345 -0.5760  1.3975  2.3293
 3004TIP3   OH2 9017   3.932   4.872   3.071  0.0115 -0.1162 -0.1350
 3004TIP3    H1 9018   3.933   4.789   3.023 -0.2525  0.0129 -0.3655
 3004TIP3    H2 9019   3.842   4.903   3.064  0.1389  0.2564 -0.1615
 3005TIP3   OH2 9020   3.850   4.829   0.720  0.6471  0.1384  0.0831
 3005TIP3    H1 9021   3.837   4.841   0.626  1.5239 -2.1260 -0.3945
 3005TIP3    H2 9022   3.943   4.810   0.729  0.1549 -2.1990  1.0209
 3006TIP3   OH2 9023   4.712   3.716   4.025  0.6226 -0.1536 -0.4188
 3006TIP3    H1 9024   4.786   3.657   4.038  1.1287  0.7055  0.8088
 3006TIP3    H2 9025   4.752   3.802   4.014 -0.1784  0.2918  0.0535
 3007TIP3   OH2 9026   3.991   2.947   1.478  0.2281 -0.3623 -0.2839
 3007TIP3    H1 9027   4.021   2.875   1.422  1.3802 -0.6042  0.5869
 3007TIP3    H2 9028   3.942   2.904   1.548  1.4006 -0.4080  0.5543
 3008TIP3   OH2 9029   0.903   0.248   1.598  0.7872  0.2728  0.0201
 3008TIP3    H1 9030   0.898   0.250   1.694 -1.7342  0.8145 -0.0544
 3008TIP3    H2 9031   0.924   0.339   1.574  0.5704  0.3309  0.0453
 3009TIP3   OH2 9032   2.035   0.107   0.655 -0.1762  0.3784  0.2156
 3009TIP3    H1 9033   2.103   0.075   0.714 -1.4944 -0.1888  1.5132
 3009TIP3    H2 9034   2.038   0.202   0.665 -0.4321  0.2899  1.3022
 3010TIP3   OH2 9035   0.044   1.613   0.832 -0.9409 -0.1099  0.1788
 3010TIP3    H1 9036   0.090   1.633   0.750 -0.7572 -0.9680  0.0536
 3010TIP3    H2 9037   0.085   1.669   0.897 -0.8066  0.2860 -0.2435
 3011TIP3   OH2 9038   0.035   0.855   2.124 -0.3228 -0.1165  0.0983
 3011TIP3    H1 9039  -0.054   0.890   2.134 -0.0474  0.1797  2.0334
 3011TIP3    H2 9040   0.089   0.918   2.172  0.9816 -0.1416 -1.3002
 3012TIP3   OH2 9041   0.727   3.227   3.291  0.0794 -0.1514 -0.0185
 3012TIP3    H1 9042   0.708   3.186   3.375 -1.3847  0.1951 -0.1481
 3012TIP3    H2 9043   0.703   3.162   3.226  0.9168 -0.3028 -0.1907
 3013TIP3   OH2 9044   5.007   3.604   1.186 -0.6087 -0.0934 -0.2458
 3013TIP3    H1 9045   4.925   3.556   1.193 -1.2494  1.0839  0.5261
 3013TIP3    H2 9046   4.981   3.692   1.161  0.2295  0.8410  1.9518
 3014TIP3   OH2 9047   6.049   3.456   2.320 -0.2740  0.2039 -0.5133
 3014TIP3    H1 9048   6.056   3.545   2.286  1.0323  0.2421 -0.2178
 3014TIP3    H2 9049   6.062   3.465   2.414  2.4940 -0.5089 -0.7338
 3015TIP3   OH2 9050   0.886   5.868   4.707 -0.7527  0.4234 -0.5597
 3015TIP3    H1 9051   0.941   5.943   4.728 -2.7577  1.7855  0.2160
 3015TIP3    H2 9052   0.946   5.802   4.672  1.2045  2.0616 -0.4580
 3016TIP3   OH2 9053   3.269   5.419   1.838 -0.2232 -0.1669  0.1601
 3016TIP3    H1 9054   3.334   5.489   1.831 -0.4669  0.0205 -0.2133
 3016TIP3    H2 9055   3.226   5.435   1.922 -2.2998  1.8905 -1.2044
 3017TIP3   OH2 9056   3.583   0.354   4.798 -0.0949 -0.1514  0.2072
 3017TIP3    H1 9057   3.573   0.290   4.869  1.0942  0.0019  0.5484
 3017TIP3    H2 9058   3.672   0.338   4.765  0.5021  1.7493  0.7472
 3018TIP3   OH2 9059   5.341   5.312   3.308 -0.3361  0.0615 -0.3380
 3018TIP3    H1 9060   5.301   5.285   3.391 -0.6401 -0.1973 -0.5666
 3018TIP3    H2 9061   5.267   5.339   3.254 -0.5709 -3.1297 -1.8178
 3019TIP3   OH2 9062   4.798   4.633   4.051 -0.3750  0.5541  0.3726
 3019TIP3    H1 9063   4.721   4.580   4.030 -0.6569  0.7342  0.9186
 3019TIP3    H2 9064   4.866   4.569   4.073 -0.4208  0.4000  0.0747
 3020TIP3   OH2 9065   5.382   4.681   1.940 -0.8321  0.2663  0.4446
 3020TIP3    H1 9066   5.470   4.651   1.963 -1.0500  0.5973  1.7848
 3020TIP3    H2 9067   5.357   4.740   2.011 -2.4292 -0.3886  0.4569
 3021TIP3   OH2 9068   2.056   3.574   4.863  0.5129  0.5611 -0.5640
 3021TIP3    H1 9069   2.057   3.652   4.917  3.4901  1.0863 -1.1694
 3021TIP3    H2 9070   2.147   3.564   4.834 -0.1652 -1.9668 -2.1774
 3022TIP3   OH2 9071   3.891   1.764   2.697  0.0496  0.0528  0.1221
 3022TIP3    H1 9072   3.860   1.735   2.611 -1.3025  0.0313  0.5878
 3022TIP3    H2 9073   3.968   1.710   2.714 -0.7608 -1.3008 -0.2679
 3023TIP3   OH2 9074   1.560   1.933   4.794  0.3526  0.0495 -0.1261
 3023TIP3    H1 9075   1.480   1.882   4.806 -0.2182  0.8737 -0.3635
 3023TIP3    H2 9076   1.630   1.872   4.815 -0.3326 -0.7051  0.0274
 3024TIP3   OH2 9077   2.978   0.298   3.707 -0.2061 -0.7068 -0.4076
 3024TIP3    H1 9078   3.012   0.264   3.625 -1.6018 -1.2670 -0.7788
 3024TIP3    H2 9079   2.980   0.223   3.767 -0.1845 -0.5693 -0.2340
 3025TIP3   OH2 9080   2.262   2.048   3.122  0.2039 -0.1842  0.3917
 3025TIP3    H1 9081   2.190   2.091   3.167  0.9196  1.0156  0.4167
 3025TIP3    H2 9082   2.231   2.035   3.033 -0.6441 -1.1814  0.8139
 3026TIP3   OH2 9083   5.890   5.590   4.484  0.6168 -0.9776  0.1965
 3026TIP3    H1 9084   5.852   5.533   4.418 -0.0502 -1.4857  1.0058
 3026TIP3    H2 9085   5.843   5.569   4.564  0.4168  0.6505  0.5409
 3027TIP3   OH2 9086   4.835   2.009   1.060 -0.1150 -0.1686  0.4436
 3027TIP3    H1 9087   4.924   2.008   1.096  0.3179  0.7320 -0.5262
 3027TIP3    H2 9088   4.819   1.919   1.033  0.5219 -0.3325  0.5922
 3028TIP3   OH2 9089   3.993   3.251   1.950 -0.8389 -0.3854 -0.0786
 3028TIP3    H1 9090   3.970   3.159   1.944 -0.3959 -0.4500 -0.9333
 3028TIP3    H2 9091   4.055   3.265   1.879 -2.0880  0.9274 -0.9520
 3029TIP3   OH2 9092   4.408   2.420   1.865  0.4806 -0.0242 -0.6792
 3029TIP3    H1 9093   4.365   2.407   1.781  0.8829 -1.0795 -0.7362
 3029TIP3    H2 9094   4.428   2.514   1.868 -0.0220  0.1158 -1.5145
 3030TIP3   OH2 9095   5.978   2.160   0.697  0.2886  0.8964  0.1365
 3030TIP3    H1 9096   5.913   2.091   0.683 -0.5445  1.1555  2.3706
 3030TIP3    H2 9097   5.929   2.241   0.688  0.3332  1.1001  1.5533
 3031TIP3   OH2 9098   5.244   5.338   0.936  0.8640 -0.1562 -0.4286
 3031TIP3    H1 9099   5.315   5.377   0.986  1.9191 -1.7734 -0.5762
 3031TIP3    H2 9100   5.285   5.313   0.852 -0.0006 -0.6363 -0.7175
 3032TIP3   OH2 9101   4.135   5.571   0.867 -0.2646 -0.3785  0.0386
 3032TIP3    H1 9102   4.216   5.538   0.906  1.7740  3.1899 -0.8140
 3032TIP3    H2 9103   4.080   5.595   0.942 -1.3215 -3.9924  0.6619
 3033TIP3   OH2 9104   0.310   1.057   4.508 -0.7469  0.3574  0.1644
 3033TIP3    H1 9105   0.228   1.024   4.544 -0.4962 -0.0811  0.3537
 3033TIP3    H2 9106   0.284   1.111   4.433 -1.1349 -1.0103 -0.7211
 3034TIP3   OH2 9107   5.628   3.236   2.075 -0.3729  0.2710  0.9113
 3034TIP3    H1 9108   5.594   3.250   2.164 -0.1902 -0.0052  1.0240
 3034TIP3    H2 9109   5.551   3.214   2.023 -0.7386  2.0405  0.6459
 3035TIP3   OH2 9110   2.538   1.450   3.074  0.2653 -0.6315  0.0686
 3035TIP3    H1 9111   2.595   1.507   3.126  2.8172 -2.5987 -0.4190
 3035TIP3    H2 9112   2.536   1.367   3.122 -2.7436 -0.5241  0.3603
 3036TIP3   OH2 9113   4.093   0.518  -0.014  0.0829  0.4572 -0.1341
 3036TIP3    H1 9114   4.087   0.554   0.075 -0.4385 -0.4242  0.2014
 3036TIP3    H2 9115   4.113   0.426  -0.001 -1.2058  0.0490 -0.8965
 3037TIP3   OH2 9116   2.338   3.647   0.353  0.4061  0.0891 -0.0776
 3037TIP3    H1 9117   2.318   3.575   0.413 -0.6649 -1.4326 -2.0992
 3037TIP3    H2 9118   2.427   3.673   0.375  0.4905 -1.2335  1.3427
 3038TIP3   OH2 9119   6.206   5.085   1.218  0.4408 -0.7087  0.5915
 3038TIP3    H1 9120   6.165   5.003   1.244  0.3358 -0.4113  1.4041
 3038TIP3    H2 9121   6.139   5.131   1.168 -0.6651  0.2749  2.8793
 3039TIP3   OH2 9122   1.955   3.831   1.629 -0.6840  0.1783 -0.4309
 3039TIP3    H1 9123   1.904   3.755   1.600  0.2655  0.2844 -2.5233
 3039TIP3    H2 9124   2.046   3.807   1.610 -0.1541  0.9419  1.0460
 3040TIP3   OH2 9125   1.488   3.066   1.737  0.4167  0.0668 -0.2338
 3040TIP3    H1 9126   1.441   2.984   1.752  3.5113 -1.5863  1.3669
 3040TIP3    H2 9127   1.568   3.057   1.789  1.3092  3.7622 -0.7382
 3041TIP3   OH2 9128   3.182   5.838   4.039  0.1783 -0.0098  0.1533
 3041TIP3    H1 9129   3.129   5.918   4.038 -0.7318 -0.4706  2.9018
 3041TIP3    H2 9130   3.153   5.789   3.962 -1.1354  1.1640 -0.1421
 3042TIP3   OH2 9131   5.692   2.456   2.731 -0.4130 -0.3014 -0.3674
 3042TIP3    H1 9132   5.734   2.439   2.815 -1.9765  1.4120  0.8636
 3042TIP3    H2 9133   5.715   2.547   2.710 -0.8468 -0.3859 -1.2819
 3043TIP3   OH2 9134   3.342   0.740   2.866 -0.2886 -1.1058 -0.1102
 3043TIP3    H1 9135   3.389   0.798   2.926 -0.3906 -0.1547 -0.9154
 3043TIP3    H2 9136   3.392   0.659   2.867  1.0733 -0.3054 -0.5261
 3044TIP3   OH2 9137   3.302   5.833   4.872 -0.1281  0.3316  0.6486
 3044TIP3    H1 9138   3.314   5.749   4.827 -2.2997 -0.0407  0.6929
 3044TIP3    H2 9139   3.380   5.884   4.847  0.7402 -1.3113 -0.1895
 3045TIP3   OH2 9140   5.554   5.231   1.215  0.1124  0.7394  0.2002
 3045TIP3    H1 9141   5.599   5.242   1.299  1.1233 -1.1987 -0.0308
 3045TIP3    H2 9142   5.469   5.192   1.238  0.4246  0.1260  0.3206
 3046TIP3   OH2 9143   5.416   0.976   4.835  0.0537 -0.3637 -0.5260
 3046TIP3    H1 9144   5.405   0.927   4.917  0.1994 -1.8932 -1.3844
 3046TIP3    H2 9145   5.377   1.062   4.853  0.1210 -0.6512  1.1514
 3047TIP3   OH2 9146   5.484   3.326   1.818 -0.1921 -0.1210 -0.5082
 3047TIP3    H1 9147   5.556   3.263   1.812 -0.3822 -0.8596  2.8023
 3047TIP3    H2 9148   5.525   3.410   1.799  1.9665 -0.3710  2.2988
 3048TIP3   OH2 9149   5.200   1.512   1.284  0.3905 -0.1744  0.2801
 3048TIP3    H1 9150   5.294   1.501   1.270  0.3028 -0.9674  0.3196
 3048TIP3    H2 9151   5.162   1.426   1.268 -0.1601 -0.2181  1.6840
 3049TIP3   OH2 9152   4.356   1.384   3.676  0.2916 -0.1106 -0.2800
 3049TIP3    H1 9153   4.444   1.404   3.643 -0.0794  0.9759 -0.6397
 3049TIP3    H2 9154   4.363   1.395   3.771  0.0422  2.1216 -0.4734
 3050TIP3   OH2 9155   0.698   4.084   1.218 -0.2240  0.3047  0.4153
 3050TIP3    H1 9156   0.696   3.999   1.263 -1.3878 -0.4825 -1.0130
 3050TIP3    H2 9157   0.753   4.068   1.141  1.5139  1.5511  1.3346
 3051TIP3   OH2 9158   5.598   4.749   3.226 -0.5949  0.2599 -0.4200
 3051TIP3    H1 9159   5.585   4.655   3.221 -2.6624  0.5513 -1.7314
 3051TIP3    H2 9160   5.549   4.776   3.304  0.4429  0.2271  0.2701
 3052TIP3   OH2 9161   1.401   1.378   2.604 -0.1398 -0.1032  0.2927
 3052TIP3    H1 9162   1.489   1.341   2.596  0.2518  0.3716  2.0576
 3052TIP3    H2 9163   1.347   1.304   2.631  0.1911  0.0867  1.5218
 3053TIP3   OH2 9164   6.125   3.089   5.050  0.5972  0.1332 -0.3996
 3053TIP3    H1 9165   6.159   3.164   5.000  1.2047  0.1197 -0.0228
 3053TIP3    H2 9166   6.131   3.117   5.141  1.8995 -0.7746 -0.1747
 3054TIP3   OH2 9167   6.002   5.940   1.924 -0.0571  0.5468 -0.2997
 3054TIP3    H1 9168   6.032   6.030   1.907  1.1829 -0.1328 -2.0901
 3054TIP3    H2 9169   6.066   5.904   1.985 -0.9440  1.0542  0.9683
 3055TIP3   OH2 9170   2.580   4.793   2.079 -0.2279  0.3072 -0.2724
 3055TIP3    H1 9171   2.530   4.736   2.021 -0.2864 -0.0651  0.1392
 3055TIP3    H2 9172   2.514   4.835   2.133 -0.2963  1.7601 -1.4294
 3056TIP3   OH2 9173   6.350   2.931   0.769 -0.2006 -0.1077 -0.4335
 3056TIP3    H1 9174   6.336   2.973   0.684  1.0454  0.7570 -0.2349
 3056TIP3    H2 9175   6.264   2.898   0.794 -0.4731 -0.9727 -2.3361
 3057TIP3   OH2 9176   5.250   2.023   1.474  0.6860  0.3372  0.4818
 3057TIP3    H1 9177   5.205   1.963   1.533  0.2302  0.0400 -0.1499
 3057TIP3    H2 9178   5.193   2.029   1.397  2.8715 -2.2032 -1.5528
 3058TIP3   OH2 9179   1.136   1.343   4.314  0.1428  0.6357  0.0876
 3058TIP3    H1 9180   1.177   1.342   4.227 -1.0172  0.8084 -0.4940
 3058TIP3    H2 9181   1.135   1.251   4.341 -0.2911  0.4581 -0.4947
 3059TIP3   OH2 9182   2.580   2.200   3.506  0.0842  0.4682  0.0376
 3059TIP3    H1 9183   2.580   2.178   3.599  0.7653 -0.6930 -0.2209
 3059TIP3    H2 9184   2.495   2.170   3.474 -0.1599  0.8897  0.2873
 3060TIP3   OH2 9185   3.496   5.597   1.870 -0.1031  0.0430  0.0077
 3060TIP3    H1 9186   3.478   5.647   1.950  0.3554 -0.6684  0.5648
 3060TIP3    H2 9187   3.575   5.547   1.890 -0.0579 -0.2450 -0.8505
 3061TIP3   OH2 9188   3.035   2.505   4.902  0.0805  0.1347  0.1422
 3061TIP3    H1 9189   3.043   2.464   4.988 -0.4752  1.0234  0.6400
 3061TIP3    H2 9190   3.039   2.432   4.840 -0.5718 -0.6283  0.9723
 3062TIP3   OH2 9191   0.922   5.037   1.156 -0.7162  0.2088 -0.1821
 3062TIP3    H1 9192   0.884   4.961   1.110 -1.2098 -0.0852  0.6921
 3062TIP3    H2 9193   1.016   5.019   1.158 -0.5183  0.7956 -2.1039
 3063TIP3   OH2 9194   2.312   0.639   0.514  0.4928 -0.1611 -0.0952
 3063TIP3    H1 9195   2.286   0.602   0.429 -0.9641  0.5217  0.0330
 3063TIP3    H2 9196   2.317   0.733   0.499  2.3949 -0.1944  0.0496
 3064TIP3   OH2 9197   5.304   3.856   2.405 -0.0006  0.1719  0.5313
 3064TIP3    H1 9198   5.303   3.782   2.343  0.2678  1.0041 -0.4997
 3064TIP3    H2 9199   5.213   3.887   2.406 -0.4512 -1.0309  2.0866
 3065TIP3   OH2 9200   3.538   0.984   4.539 -0.4205 -0.0807 -0.6123
 3065TIP3    H1 9201   3.446   0.983   4.567  0.0602  0.0728  1.0904
 3065TIP3    H2 9202   3.582   1.039   4.604  0.6103  1.2693 -2.3692
 3066TIP3   OH2 9203   1.160   2.651   3.880 -0.4336 -0.2192 -0.1559
 3066TIP3    H1 9204   1.227   2.720   3.883 -0.5062 -0.1124 -0.9404
 3066TIP3    H2 9205   1.135   2.645   3.788 -1.3157 -0.4488  0.0889
 3067TIP3   OH2 9206   1.097   5.808   0.622 -0.4673 -0.7222  0.4329
 3067TIP3    H1 9207   1.047   5.729   0.639 -0.7701 -0.6803 -0.2281
 3067TIP3    H2 9208   1.085   5.825   0.528 -0.8701  0.4276  0.6772
 3068TIP3   OH2 9209   3.276   1.160   0.253 -0.1860  0.0279  0.1948
 3068TIP3    H1 9210   3.239   1.134   0.337 -1.7213 -0.2032 -0.5305
 3068TIP3    H2 9211   3.317   1.080   0.219 -1.6954 -0.5429 -0.3593
 3069TIP3   OH2 9212   0.509   5.438   1.355  0.0547 -0.7037 -0.5201
 3069TIP3    H1 9213   0.596   5.401   1.341  0.6105  0.4003 -0.0678
 3069TIP3    H2 9214   0.486   5.480   1.272  0.9164  0.9034  0.0114
 3070TIP3   OH2 9215   4.991   4.525   0.070  0.1561 -0.5297 -0.1097
 3070TIP3    H1 9216   5.083   4.543   0.051  0.2575 -0.1654  0.6985
 3070TIP3    H2 9217   4.957   4.608   0.104 -0.2698 -0.8814  0.3359
 3071TIP3   OH2 9218   5.918   5.217   1.896  0.0399  0.2934  0.0568
 3071TIP3    H1 9219   5.868   5.185   1.821 -0.9523  0.9062  0.4474
 3071TIP3    H2 9220   5.870   5.185   1.972  0.1426  1.0372  0.4405
 3072TIP3   OH2 9221   0.927   2.479   2.992 -0.2278  0.5821  0.3284
 3072TIP3    H1 9222   1.000   2.441   3.042  0.0047  1.0751  0.3651
 3072TIP3    H2 9223   0.910   2.563   3.034 -0.4840  0.6938  0.0051
 3073TIP3   OH2 9224   2.696   1.083   2.915 -0.3152 -0.3110  0.1639
 3073TIP3    H1 9225   2.743   1.022   2.971 -0.4482 -0.3535  0.2302
 3073TIP3    H2 9226   2.611   1.041   2.900  0.6614 -1.5921 -2.2791
 3074TIP3   OH2 9227   4.857   2.275   2.456  0.4137  0.2349  0.3192
 3074TIP3    H1 9228   4.836   2.342   2.391  0.5220  0.6490  0.7113
 3074TIP3    H2 9229   4.785   2.277   2.518 -1.4858 -2.4854 -1.5636
 3075TIP3   OH2 9230   1.225   0.185   1.997 -0.1065  0.1273 -0.6431
 3075TIP3    H1 9231   1.266   0.144   1.921 -1.5392 -0.2953 -1.2074
 3075TIP3    H2 9232   1.186   0.112   2.046 -2.9466  0.7335 -1.8134
 3076TIP3   OH2 9233   0.966   4.453   2.119 -0.1526  0.6392  0.1972
 3076TIP3    H1 9234   1.046   4.441   2.170  0.6039  3.3319 -0.2245
 3076TIP3    H2 9235   0.899   4.471   2.185  0.2523  1.4411  0.3998
 3077TIP3   OH2 9236   3.197   1.811   2.797  0.1914 -0.3777  0.1998
 3077TIP3    H1 9237   3.157   1.774   2.876  0.2235  0.2089  0.4963
 3077TIP3    H2 9238   3.157   1.763   2.725 -0.5910 -0.2319  0.5288
 3078TIP3   OH2 9239   5.022   0.919   4.933  0.3423 -0.2776  0.8923
 3078TIP3    H1 9240   5.034   0.935   4.839 -1.3830 -0.8465  0.5407
 3078TIP3    H2 9241   4.950   0.976   4.959  2.1852  1.5301  2.4390
 3079TIP3   OH2 9242   0.460   1.959   0.325  0.9631  0.2513  0.1305
 3079TIP3    H1 9243   0.539   1.909   0.344  1.2305 -0.6614 -2.8204
 3079TIP3    H2 9244   0.418   1.911   0.254 -0.1981  2.7890 -1.0336
 3080TIP3   OH2 9245   6.198   0.825   4.951  1.0247 -0.3132  0.6082
 3080TIP3    H1 9246   6.247   0.750   4.985  0.1353 -1.1778  0.0256
 3080TIP3    H2 9247   6.174   0.875   5.030  0.0722 -1.6184  1.1815
 3081TIP3   OH2 9248   5.838   0.967   4.744  0.7082  1.4084  0.2353
 3081TIP3    H1 9249   5.855   0.911   4.668  3.0457  1.2649  0.8195
 3081TIP3    H2 9250   5.757   1.014   4.720  0.8503  0.6815 -1.9230
 3082TIP3   OH2 9251   0.847   1.472   2.999  0.9458 -0.0950 -0.2753
 3082TIP3    H1 9252   0.871   1.379   2.998  0.0088 -0.3592  0.5384
 3082TIP3    H2 9253   0.854   1.498   3.090 -3.7375 -0.7591  0.4958
 3083TIP3   OH2 9254   2.170   3.563   2.120 -0.5576  0.8802 -0.1195
 3083TIP3    H1 9255   2.179   3.603   2.206 -0.4585  0.4773  0.0608
 3083TIP3    H2 9256   2.092   3.507   2.127  1.6602 -2.3717  1.0246
 3084TIP3   OH2 9257   0.576   4.317   3.028 -0.5103 -0.2294 -0.1217
 3084TIP3    H1 9258   0.667   4.300   3.004 -0.5452 -1.5465  0.5986
 3084TIP3    H2 9259   0.542   4.370   2.956  0.8900  0.5147 -0.2693
 3085TIP3   OH2 9260   2.460   1.696   2.288  0.1258  0.3721  0.1504
 3085TIP3    H1 9261   2.476   1.652   2.372 -1.6131 -1.3917 -0.3723
 3085TIP3    H2 9262   2.428   1.626   2.231 -1.9098  2.1510 -1.0194
 3086TIP3   OH2 9263   5.224   1.593   2.144 -0.5225  0.0686 -0.2895
 3086TIP3    H1 9264   5.244   1.677   2.104 -0.0689  0.3835  0.5535
 3086TIP3    H2 9265   5.187   1.615   2.230 -0.8686 -0.5858 -0.2584
 3087TIP3   OH2 9266   1.704   3.668   2.219 -0.4637  0.2438  0.1417
 3087TIP3    H1 9267   1.751   3.702   2.143  0.6638 -0.6820  0.4014
 3087TIP3    H2 9268   1.622   3.633   2.183  0.3130 -0.7182 -0.7471
 3088TIP3   OH2 9269   5.571   1.789   3.508 -0.5839 -0.6712 -0.1843
 3088TIP3    H1 9270   5.597   1.719   3.448 -1.7729 -0.8401 -0.5237
 3088TIP3    H2 9271   5.584   1.870   3.458  0.8384 -0.6077  0.2255
 3089TIP3   OH2 9272   4.149   0.734   3.959  0.4144 -0.4644 -0.3612
 3089TIP3    H1 9273   4.162   0.828   3.951  2.0240 -0.6278  0.0626
 3089TIP3    H2 9274   4.083   0.724   4.028  2.5437  0.2944  1.9137
 3090TIP3   OH2 9275   3.829   1.031   5.119  0.7708  0.6591  0.5681
 3090TIP3    H1 9276   3.834   1.107   5.060  1.3063  0.2507  0.0844
 3090TIP3    H2 9277   3.737   1.027   5.144  0.3734  0.3751 -0.8593
 3091TIP3   OH2 9278   0.931   5.588   0.683 -0.0975  0.7016  0.1985
 3091TIP3    H1 9279   0.980   5.524   0.734 -0.7117  0.2911  0.2795
 3091TIP3    H2 9280   0.896   5.649   0.748  0.0083  0.7847  0.1763
 3092TIP3   OH2 9281   1.519   5.295   3.269 -0.4963  0.0167  0.0373
 3092TIP3    H1 9282   1.611   5.269   3.277 -0.4479  0.0166 -0.5384
 3092TIP3    H2 9283   1.491   5.262   3.184 -2.0720 -3.2133  1.6300
 3093TIP3   OH2 9284   4.934   4.635   0.420 -0.7671 -0.8698 -0.4680
 3093TIP3    H1 9285   4.896   4.604   0.502  0.4207 -0.5503  0.2353
 3093TIP3    H2 9286   5.026   4.609   0.425 -0.2410  0.7420 -0.8538
 3094TIP3   OH2 9287   1.863   3.502   3.561  0.4290 -0.9077 -0.2027
 3094TIP3    H1 9288   1.892   3.461   3.480  2.8689  1.1254 -0.4662
 3094TIP3    H2 9289   1.917   3.462   3.629 -1.8296 -2.8461  0.6133
 3095TIP3   OH2 9290   3.213   5.593   4.409  0.4376  0.3585  0.1996
 3095TIP3    H1 9291   3.305   5.580   4.429  0.6371  0.7780 -0.4261
 3095TIP3    H2 9292   3.211   5.672   4.355  0.0529 -1.3866 -2.5277
 3096TIP3   OH2 9293   4.629   5.952   3.002  0.2845  0.7365 -1.1584
 3096TIP3    H1 9294   4.720   5.925   2.987  1.5293  3.6935  0.2849
 3096TIP3    H2 9295   4.599   5.899   3.076  0.9518  0.0396 -1.3761
 3097TIP3   OH2 9296   0.052   2.086   1.122  0.0895 -0.8756  0.2719
 3097TIP3    H1 9297  -0.025   2.143   1.113  1.6282  1.3003  0.0175
 3097TIP3    H2 9298   0.040   2.044   1.207 -1.7971 -1.3123 -0.1640
 3098TIP3   OH2 9299   1.793   1.314   3.334  0.4778  0.2591 -0.1974
 3098TIP3    H1 9300   1.881   1.338   3.305  0.2882 -0.3219 -1.3202
 3098TIP3    H2 9301   1.807   1.256   3.409  1.1708 -1.8034 -1.8390
 3099TIP3   OH2 9302   1.951   0.050   0.163  0.4944  0.2019  0.0899
 3099TIP3    H1 9303   1.858   0.064   0.179  0.8686  1.7713  1.0863
 3099TIP3    H2 9304   1.961  -0.045   0.161 -0.9252 -0.0060  1.2070
 3100TIP3   OH2 9305   5.655   1.164   5.132  0.5855 -0.4052  1.1436
 3100TIP3    H1 9306   5.598   1.241   5.133 -1.1472 -1.4385 -2.0809
 3100TIP3    H2 9307   5.595   1.090   5.146  1.5979 -1.3560  0.6249
 3101TIP3   OH2 9308   1.320   2.366   3.910 -0.2428  0.3205  0.2515
 3101TIP3    H1 9309   1.307   2.438   3.972 -0.1102  0.6078 -0.0576
 3101TIP3    H2 9310   1.382   2.400   3.845 -0.4700  0.0566 -0.1055
 3102TIP3   OH2 9311   2.577   5.815   0.654  0.1745  0.2833  0.2296
 3102TIP3    H1 9312   2.652   5.868   0.629  1.1085 -0.5523  1.1909
 3102TIP3    H2 9313   2.579   5.741   0.593 -1.3081  1.4305 -1.3152
 3103TIP3   OH2 9314   5.483   1.128   4.331 -0.2715  0.5851  0.3088
 3103TIP3    H1 9315   5.469   1.166   4.245  1.8320  2.7061  0.7875
 3103TIP3    H2 9316   5.578   1.119   4.338 -0.5007 -1.3516  1.7005
 3104TIP3   OH2 9317   6.191   1.948   0.876  0.5796  0.0917 -0.0183
 3104TIP3    H1 9318   6.097   1.943   0.860  0.4651  0.7226  0.4290
 3104TIP3    H2 9319   6.200   1.945   0.971  1.0760 -0.8050 -0.0737
 3105TIP3   OH2 9320   2.208   0.586   3.743  0.0512 -0.2334 -0.0796
 3105TIP3    H1 9321   2.218   0.661   3.684 -1.0899  0.7419  0.8955
 3105TIP3    H2 9322   2.186   0.513   3.685  0.0221  0.4559 -0.9644
 3106TIP3   OH2 9323   3.746   4.209   4.845  0.3061  0.7339 -1.2604
 3106TIP3    H1 9324   3.763   4.166   4.929  2.3006  1.8837 -1.0130
 3106TIP3    H2 9325   3.782   4.297   4.856 -1.1449  1.5609 -2.7027
 3107TIP3   OH2 9326   5.018   0.895   2.119 -0.3146  0.1417 -0.0485
 3107TIP3    H1 9327   5.029   0.927   2.209 -2.2758 -1.1062  0.6882
 3107TIP3    H2 9328   5.100   0.850   2.100  0.2765  0.7501  0.9603
 3108TIP3   OH2 9329   5.722   5.786   2.014 -0.7452 -1.2440  0.1298
 3108TIP3    H1 9330   5.799   5.784   2.072 -0.6852 -1.6771  0.0432
 3108TIP3    H2 9331   5.756   5.762   1.928 -0.8944 -0.9497 -0.0102
 3109TIP3   OH2 9332   0.628   1.373   3.839  0.4425 -0.1699 -0.5624
 3109TIP3    H1 9333   0.633   1.304   3.773 -0.0641 -2.2831  1.4831
 3109TIP3    H2 9334   0.580   1.333   3.912 -2.0284  3.1099 -0.1525
 3110TIP3   OH2 9335   5.632   0.351   3.484  0.1447  0.4128 -0.7197
 3110TIP3    H1 9336   5.576   0.417   3.444  0.8522  2.3288  1.3021
 3110TIP3    H2 9337   5.582   0.269   3.476 -3.2777  2.0856  1.5135
 3111TIP3   OH2 9338   1.502   0.028   4.676  0.4128  0.0539 -0.2378
 3111TIP3    H1 9339   1.438   0.056   4.611 -0.3713  0.2918  0.6077
 3111TIP3    H2 9340   1.475  -0.062   4.698  0.6272  0.0009 -0.1921
 3112TIP3   OH2 9341   5.423   2.830   1.379 -0.2081  0.0441 -0.2439
 3112TIP3    H1 9342   5.386   2.909   1.339  0.0060  0.6707  0.7789
 3112TIP3    H2 9343   5.439   2.771   1.305  0.7934  1.4330 -1.1743
 3113TIP3   OH2 9344   4.483   3.238   1.749  0.3196  1.1153  0.3780
 3113TIP3    H1 9345   4.397   3.200   1.736  0.5502  1.2057 -1.7148
 3113TIP3    H2 9346   4.532   3.172   1.799 -0.7796  0.8486  1.1227
 3114TIP3   OH2 9347   4.827   1.391   3.298 -0.3206 -0.2069 -0.5402
 3114TIP3    H1 9348   4.863   1.368   3.383  1.2366 -0.0722 -1.1341
 3114TIP3    H2 9349   4.740   1.427   3.317  0.0012 -0.1826  0.9713
 3115TIP3   OH2 9350   3.919   3.602   3.756  0.2347  0.2969 -0.1203
 3115TIP3    H1 9351   3.902   3.511   3.782  0.8693 -0.3365 -1.7853
 3115TIP3    H2 9352   3.895   3.654   3.833 -1.1736 -1.1817  0.4995
 3116TIP3   OH2 9353   4.259   0.196   5.130 -0.1965 -0.3060  0.0875
 3116TIP3    H1 9354   4.272   0.291   5.140 -0.3321 -0.2810  0.0343
 3116TIP3    H2 9355   4.212   0.170   5.210 -0.4623 -0.2678 -0.0547
 3117TIP3   OH2 9356   5.836   5.229   2.366 -0.4949 -0.1610 -0.5401
 3117TIP3    H1 9357   5.907   5.249   2.428 -1.1016 -0.8286  0.4033
 3117TIP3    H2 9358   5.784   5.309   2.363 -1.2457 -0.5479  0.9260
 3118TIP3   OH2 9359   5.830   1.621   3.761  0.1458  0.4180 -0.0928
 3118TIP3    H1 9360   5.785   1.605   3.678 -0.4811  1.0998  0.0959
 3118TIP3    H2 9361   5.889   1.547   3.772  1.2743  1.0127 -1.8339
 3119TIP3   OH2 9362   2.402   2.209   2.169  0.0589 -0.9934  0.0784
 3119TIP3    H1 9363   2.344   2.179   2.238 -1.6685 -1.0730 -1.3369
 3119TIP3    H2 9364   2.405   2.137   2.106  1.2239 -0.7501 -0.1788
 3120TIP3   OH2 9365   6.290   5.024   2.771 -0.7833 -0.0489  0.2513
 3120TIP3    H1 9366   6.355   4.969   2.814  0.6705 -0.6222 -2.4854
 3120TIP3    H2 9367   6.207   4.976   2.780 -0.5248 -0.1939  2.1928
 3121TIP3   OH2 9368   5.476   5.179   2.803  0.4489 -0.4355  0.2246
 3121TIP3    H1 9369   5.420   5.169   2.726  1.0661 -0.8942 -0.1778
 3121TIP3    H2 9370   5.563   5.196   2.767  0.7608 -0.7420  0.8218
 3122TIP3   OH2 9371   2.863   5.348   2.189  0.4891  0.5196  0.5437
 3122TIP3    H1 9372   2.917   5.269   2.184  2.1392  1.5614  1.0144
 3122TIP3    H2 9373   2.924   5.417   2.215 -1.0769  1.7938  0.9967
 3123TIP3   OH2 9374   3.978   1.336   4.695  0.2026 -0.0013  0.2753
 3123TIP3    H1 9375   3.887   1.365   4.700  0.1623  0.0458 -0.5835
 3123TIP3    H2 9376   4.028   1.417   4.682  0.2508 -0.1312 -0.3992
 3124TIP3   OH2 9377   0.621   0.461   2.791 -0.3307 -0.0163  0.2174
 3124TIP3    H1 9378   0.577   0.384   2.828 -1.0973  0.3072 -0.0217
 3124TIP3    H2 9379   0.615   0.449   2.696  1.4180 -0.7209  0.1523
 3125TIP3   OH2 9380   2.681   5.386   2.470 -0.3021  0.1983  0.2449
 3125TIP3    H1 9381   2.755   5.446   2.475 -0.0075  0.0200 -1.4091
 3125TIP3    H2 9382   2.647   5.397   2.381 -0.4661 -1.8046  0.0196
 3126TIP3   OH2 9383   0.754   1.776   1.000 -0.3294  0.3612  0.2723
 3126TIP3    H1 9384   0.745   1.861   1.043  0.1249  1.8171 -2.2975
 3126TIP3    H2 9385   0.674   1.766   0.948 -1.2813 -1.7664  1.9530
 3127TIP3   OH2 9386   3.733   0.210   0.755  0.2087  0.1984  0.5075
 3127TIP3    H1 9387   3.822   0.199   0.790  1.1040 -1.4254 -2.0348
 3127TIP3    H2 9388   3.746   0.246   0.667 -1.5952 -0.9174 -0.2603
 3128TIP3   OH2 9389   4.145   5.190   3.715  0.1764 -0.1498 -0.1705
 3128TIP3    H1 9390   4.115   5.150   3.797  1.6878  1.3923  1.2175
 3128TIP3    H2 9391   4.216   5.133   3.685  0.1092 -0.3156 -0.0169
 3129TIP3   OH2 9392   4.986   1.478   2.076  0.3758 -0.3424 -0.0423
 3129TIP3    H1 9393   4.960   1.439   2.159 -0.2090 -0.4764 -0.2817
 3129TIP3    H2 9394   5.075   1.510   2.091  0.6849 -1.3473  0.3004
 3130TIP3   OH2 9395   4.324   4.336   3.328  0.3258 -0.2095  0.2754
 3130TIP3    H1 9396   4.241   4.337   3.376  0.6512  1.1531  0.8695
 3130TIP3    H2 9397   4.305   4.286   3.248 -1.5421  1.4214 -0.3966
 3131TIP3   OH2 9398   3.131   5.026   3.575 -0.3977  0.0823  0.5819
 3131TIP3    H1 9399   3.102   5.101   3.523  0.9898 -0.9417 -1.8682
 3131TIP3    H2 9400   3.206   5.059   3.624 -0.4292  0.5644  0.3172
 3132TIP3   OH2 9401   4.820   1.843   2.033  0.6353  0.2431  0.0150
 3132TIP3    H1 9402   4.738   1.864   1.988  0.9341  0.9804 -0.1974
 3132TIP3    H2 9403   4.795   1.779   2.099 -0.3829  1.5106  0.9198
 3133TIP3   OH2 9404   0.583   2.997   1.726 -0.9087  0.2398 -0.5495
 3133TIP3    H1 9405   0.517   2.955   1.672  0.3265 -0.8013 -1.3246
 3133TIP3    H2 9406   0.666   2.972   1.686 -0.0290  1.4679  0.4087
 3134TIP3   OH2 9407   2.347   0.611   0.775  0.1474  0.6414 -0.4597
 3134TIP3    H1 9408   2.346   0.612   0.680 -0.8929  1.5321 -0.4588
 3134TIP3    H2 9409   2.307   0.694   0.801  0.2424  0.3352  0.7530
 3135TIP3   OH2 9410   1.450   2.061   3.993 -0.1075 -0.0130  0.0001
 3135TIP3    H1 9411   1.521   2.109   3.949  1.0386 -1.9713 -0.4422
 3135TIP3    H2 9412   1.433   1.986   3.935 -0.4903 -1.1705  1.5452
 3136TIP3   OH2 9413   2.911   3.680   1.838 -0.3697 -0.0346  0.0972
 3136TIP3    H1 9414   2.869   3.766   1.834  0.4604  0.3455 -0.9366
 3136TIP3    H2 9415   2.894   3.641   1.752 -0.0451 -0.5571  0.2656
 3137TIP3   OH2 9416   1.882   3.960  -0.013 -0.0014  0.6878  0.1997
 3137TIP3    H1 9417   1.806   4.005  -0.051 -0.6901 -0.5862 -0.0030
 3137TIP3    H2 9418   1.873   3.974   0.081 -1.5050 -0.8591  0.3549
 3138TIP3   OH2 9419   0.191   4.924   3.548 -0.3041  0.0167 -0.2422
 3138TIP3    H1 9420   0.254   4.874   3.496 -0.5075  0.0258 -0.5015
 3138TIP3    H2 9421   0.137   4.969   3.483  1.7494  2.9785 -0.0678
 3139TIP3   OH2 9422   5.388   5.050   1.069  0.2397  0.2951 -0.4961
 3139TIP3    H1 9423   5.464   5.088   1.024  0.1909  1.1605  0.1297
 3139TIP3    H2 9424   5.334   5.014   0.999  1.9653 -1.7533 -0.8476
 3140TIP3   OH2 9425   5.582   2.101   2.053 -0.2132 -0.8101 -0.2786
 3140TIP3    H1 9426   5.608   2.154   1.978 -0.6243 -0.1538  0.0402
 3140TIP3    H2 9427   5.558   2.016   2.015 -3.5014  0.4546 -1.3279
 3141TIP3   OH2 9428   5.963   3.549   0.544 -0.2427  0.8001  0.2086
 3141TIP3    H1 9429   5.991   3.634   0.579  2.3904 -0.0715  0.4388
 3141TIP3    H2 9430   5.916   3.508   0.617  0.1684  1.2916  0.7652
 3142TIP3   OH2 9431   1.585   4.869   4.618 -0.6936  0.1335 -0.7429
 3142TIP3    H1 9432   1.589   4.840   4.527 -0.3015 -1.7540 -0.1724
 3142TIP3    H2 9433   1.647   4.812   4.664 -0.8305  1.0907  0.7039
 3143TIP3   OH2 9434   5.827   0.437   4.003  0.1471 -0.4263  0.0212
 3143TIP3    H1 9435   5.773   0.454   4.080  0.5864 -0.8939  0.4344
 3143TIP3    H2 9436   5.784   0.486   3.933 -0.2776 -0.0270  0.5515
 3144TIP3   OH2 9437   5.811   4.641   0.186  0.0680 -0.1394  0.3496
 3144TIP3    H1 9438   5.877   4.683   0.131 -0.2158  1.7766  1.3833
 3144TIP3    H2 9439   5.759   4.713   0.220 -1.8444 -1.5249  0.4986
 3145TIP3   OH2 9440   3.790   3.827   2.644 -0.0209 -0.3606  0.0251
 3145TIP3    H1 9441   3.870   3.806   2.691 -0.6307 -0.8294  0.8801
 3145TIP3    H2 9442   3.755   3.743   2.616 -0.0379 -0.1343 -0.6578
 3146TIP3   OH2 9443   6.295   2.608   2.137  0.3475  0.7378 -0.1393
 3146TIP3    H1 9444   6.248   2.680   2.179  2.4487  1.4579  1.1657
 3146TIP3    H2 9445   6.292   2.629   2.043 -1.8384  0.7334 -0.1189
 3147TIP3   OH2 9446   5.546   3.535   5.021 -0.3351 -0.1169 -0.2480
 3147TIP3    H1 9447   5.636   3.504   5.031 -0.3826 -0.4460 -0.7971
 3147TIP3    H2 9448   5.497   3.489   5.089  0.0823  0.8481  0.7499
 3148TIP3   OH2 9449   5.076   4.788   2.516  0.1901 -0.2631 -0.0889
 3148TIP3    H1 9450   5.005   4.842   2.482  0.4802  0.1368 -0.0579
 3148TIP3    H2 9451   5.032   4.709   2.548 -0.1942 -0.2043 -0.4633
 3149TIP3   OH2 9452   1.989   4.730   1.963 -0.0760 -0.2459  0.2505
 3149TIP3    H1 9453   1.924   4.662   1.978 -0.5025 -0.3555 -1.8182
 3149TIP3    H2 9454   1.983   4.750   1.870  1.6340  1.0120  0.3454
 3150TIP3   OH2 9455   5.330   4.064   0.658  0.1708  0.3308 -0.2691
 3150TIP3    H1 9456   5.360   4.039   0.746 -0.5317  0.8638  0.1375
 3150TIP3    H2 9457   5.344   3.986   0.605  1.9507  0.4364 -0.0389
 3151TIP3   OH2 9458   2.499   4.682   0.007  0.0882 -0.6948 -0.3204
 3151TIP3    H1 9459   2.508   4.670   0.102  3.4904  0.7853 -0.3431
 3151TIP3    H2 9460   2.461   4.769  -0.002 -1.9981 -1.5467 -0.3985
 3152TIP3   OH2 9461   6.106   1.873   1.172 -0.0666 -0.3988 -0.0717
 3152TIP3    H1 9462   6.156   1.816   1.231 -0.3213 -0.4962  0.0498
 3152TIP3    H2 9463   6.071   1.941   1.228  0.6583  0.1708 -0.2962
 3153TIP3   OH2 9464   2.962   0.865   3.730  0.7810  0.1604  0.2833
 3153TIP3    H1 9465   2.931   0.814   3.655 -1.3206 -0.3927  1.4449
 3153TIP3    H2 9466   2.891   0.926   3.749  1.5587  0.7480  1.4361
 3154TIP3   OH2 9467   6.121   1.961   4.152  0.3833  0.5108  0.3725
 3154TIP3    H1 9468   6.097   2.010   4.074  1.8252  1.7877  0.6753
 3154TIP3    H2 9469   6.109   1.869   4.128 -1.0242  0.9431 -0.6859
 3155TIP3   OH2 9470   3.998   3.223   0.016 -0.8460  0.4634 -0.0825
 3155TIP3    H1 9471   4.092   3.206   0.012 -0.6565  1.1711  1.0582
 3155TIP3    H2 9472   3.957   3.145  -0.022  0.1852  0.0582 -0.3722
 3156TIP3   OH2 9473   1.030   5.490   0.400 -0.4267 -0.4621 -0.2290
 3156TIP3    H1 9474   1.008   5.543   0.476  1.2483 -0.4559  0.2921
 3156TIP3    H2 9475   1.073   5.412   0.436  1.2884 -0.0102 -1.1732
 3157TIP3   OH2 9476   4.815   5.792   3.637  0.7919  0.4642 -1.0039
 3157TIP3    H1 9477   4.732   5.838   3.645 -0.2713 -1.6420  2.4115
 3157TIP3    H2 9478   4.867   5.845   3.577 -1.2606  4.5478  0.4709
 3158TIP3   OH2 9479   3.492   3.996   2.216 -0.4893 -0.7186  0.3511
 3158TIP3    H1 9480   3.534   3.913   2.240 -0.4164 -1.3201 -1.6759
 3158TIP3    H2 9481   3.492   3.996   2.121 -1.3492  1.2068  0.3080
 3159TIP3   OH2 9482   5.786   2.696   4.566  0.5904 -0.2693  0.0900
 3159TIP3    H1 9483   5.756   2.614   4.605 -0.2816 -0.9101 -1.7902
 3159TIP3    H2 9484   5.881   2.690   4.567  0.6547  0.0431  2.6039
 3160TIP3   OH2 9485   0.920   2.983   3.881  0.6174  0.0407 -0.1576
 3160TIP3    H1 9486   0.986   3.007   3.947 -0.1275 -1.6337  1.2657
 3160TIP3    H2 9487   0.970   2.974   3.800  1.6482  1.6744  0.2413
 3161TIP3   OH2 9488   0.394   4.906   4.434  0.0139  0.2130  0.5784
 3161TIP3    H1 9489   0.402   4.814   4.458  0.5887 -0.1356 -0.8351
 3161TIP3    H2 9490   0.301   4.924   4.439 -0.1426 -0.5492  0.5706
 3162TIP3   OH2 9491   0.712   5.270   3.610  0.2973  0.4987 -0.6938
 3162TIP3    H1 9492   0.783   5.242   3.667  0.3185 -0.4707 -1.1768
 3162TIP3    H2 9493   0.655   5.322   3.666 -0.2859 -1.3597  0.5043
 3163TIP3   OH2 9494   4.874   2.550   4.401  0.8868 -0.2639 -0.2569
 3163TIP3    H1 9495   4.916   2.475   4.359 -1.8420 -1.6245 -0.7460
 3163TIP3    H2 9496   4.888   2.536   4.495  1.1960 -0.8770 -0.3932
 3164TIP3   OH2 9497   1.768   3.674   0.821 -0.1883 -0.0222  0.2143
 3164TIP3    H1 9498   1.744   3.675   0.913  0.6121 -1.9699  0.5080
 3164TIP3    H2 9499   1.686   3.661   0.774 -0.2906 -2.4967  0.9265
 3165TIP3   OH2 9500   4.439   2.165   1.672  0.1055  0.3874  0.2261
 3165TIP3    H1 9501   4.454   2.258   1.690 -0.8395  0.6015 -0.0432
 3165TIP3    H2 9502   4.390   2.134   1.748  1.6711 -0.2672  1.0274
 3166TIP3   OH2 9503   6.071   5.290   4.519  0.1140  0.4987 -0.1149
 3166TIP3    H1 9504   6.083   5.362   4.457 -2.0004 -0.0578 -1.2858
 3166TIP3    H2 9505   5.978   5.291   4.539 -0.1809 -2.4219 -0.8942
 3167TIP3   OH2 9506   1.503   5.892   1.403  0.0862 -0.0399  0.4578
 3167TIP3    H1 9507   1.536   5.818   1.455  1.3647 -2.0210 -2.8973
 3167TIP3    H2 9508   1.580   5.945   1.385 -0.5924  1.4344  1.6335
 3168TIP3   OH2 9509   2.990   4.307   0.930 -0.3368  0.7075 -0.3945
 3168TIP3    H1 9510   2.908   4.257   0.928 -0.5834  1.1278 -1.7910
 3168TIP3    H2 9511   3.023   4.302   0.840  2.8595 -2.1237  0.7118
 3169TIP3   OH2 9512   2.597   2.708   0.267  0.1572 -0.1403 -0.4683
 3169TIP3    H1 9513   2.662   2.639   0.281 -0.0268 -0.2160  0.0287
 3169TIP3    H2 9514   2.638   2.767   0.203  0.8480 -0.0263  0.0678
 3170TIP3   OH2 9515   1.826   4.441   3.257  0.1340  0.4971 -0.2159
 3170TIP3    H1 9516   1.829   4.531   3.288 -2.1034  0.6006 -0.1099
 3170TIP3    H2 9517   1.779   4.445   3.174 -1.0028 -0.6592  0.3281
 3171TIP3   OH2 9518   2.083   4.200   1.177  0.4617  0.4616  0.0088
 3171TIP3    H1 9519   2.092   4.114   1.217  1.6941  0.9312  0.7835
 3171TIP3    H2 9520   2.030   4.184   1.098 -3.0948 -0.3287  2.3143
 3172TIP3   OH2 9521   6.307   3.919   5.105 -0.2636 -0.5694 -0.8958
 3172TIP3    H1 9522   6.232   3.961   5.064  1.2352 -0.0073 -3.2801
 3172TIP3    H2 9523   6.342   3.984   5.166 -0.2269  0.1855 -1.7045
 3173TIP3   OH2 9524   1.252   1.599   2.477  0.4867  0.1688 -0.2269
 3173TIP3    H1 9525   1.268   1.670   2.539 -1.0710  0.0813  0.3216
 3173TIP3    H2 9526   1.292   1.522   2.518 -0.4360  0.1311  0.6581
 3174TIP3   OH2 9527   4.215   3.568   2.285 -0.1936 -0.4452  0.1987
 3174TIP3    H1 9528   4.150   3.505   2.254  0.2265 -0.0432 -1.5936
 3174TIP3    H2 9529   4.173   3.610   2.361 -0.9093 -2.0707  0.7492
 3175TIP3   OH2 9530   3.459   3.660   1.525 -0.4824  0.4053  0.3881
 3175TIP3    H1 9531   3.471   3.722   1.452 -1.0915 -1.1255 -1.0839
 3175TIP3    H2 9532   3.365   3.648   1.531 -0.3363 -1.1662 -0.0819
 3176TIP3   OH2 9533   5.029   4.062   3.414 -0.3924 -0.4189  0.0177
 3176TIP3    H1 9534   4.977   4.140   3.393  1.3257  0.2895 -2.0158
 3176TIP3    H2 9535   5.083   4.087   3.488  0.8951  0.7682 -1.2625
 3177TIP3   OH2 9536   3.873   3.284   3.749 -0.3243 -0.2383 -0.1677
 3177TIP3    H1 9537   3.780   3.275   3.766 -0.4909  1.2708 -0.1385
 3177TIP3    H2 9538   3.915   3.233   3.818 -1.1101 -0.2293  0.3266
 3178TIP3   OH2 9539   5.737   4.192   3.750  0.0011 -0.1439  0.1152
 3178TIP3    H1 9540   5.786   4.187   3.832  1.5691  1.0508 -0.7240
 3178TIP3    H2 9541   5.802   4.208   3.683 -1.4695  1.0152 -1.1185
 3179TIP3   OH2 9542   5.658   0.820   2.426 -0.2311  0.2859  0.4951
 3179TIP3    H1 9543   5.708   0.870   2.491 -0.6973  0.9532  0.3592
 3179TIP3    H2 9544   5.605   0.887   2.381 -1.5040 -0.4358  0.8697
 3180TIP3   OH2 9545   2.753   5.709   1.077 -0.2707  0.0393 -0.2996
 3180TIP3    H1 9546   2.785   5.757   1.153 -1.7630 -2.5659  2.1385
 3180TIP3    H2 9547   2.665   5.743   1.062 -1.0861 -1.3423  1.0389
 3181TIP3   OH2 9548   1.343   1.405   3.472  0.5110  0.5096 -0.0098
 3181TIP3    H1 9549   1.422   1.441   3.511  1.8524  0.0933 -2.1870
 3181TIP3    H2 9550   1.338   1.446   3.385 -2.8265  2.0947  0.7477
 3182TIP3   OH2 9551   2.420   5.781   2.862 -0.1759 -0.2621  0.1619
 3182TIP3    H1 9552   2.394   5.803   2.773  0.7358  1.9894  0.3856
 3182TIP3    H2 9553   2.340   5.791   2.913 -0.5828 -1.0548 -0.2951
 3183TIP3   OH2 9554   3.415   2.921   2.844  0.1322  0.2051  0.0050
 3183TIP3    H1 9555   3.444   2.912   2.753  1.0082  0.0067  0.2969
 3183TIP3    H2 9556   3.424   2.834   2.882  0.0116  0.3420  0.3571
 3184TIP3   OH2 9557   3.688   3.412   4.878 -0.3303  0.9306  0.5560
 3184TIP3    H1 9558   3.773   3.456   4.871 -0.3837  0.8998 -0.3948
 3184TIP3    H2 9559   3.625   3.484   4.886 -0.2913  0.9889  0.3614
 3185TIP3   OH2 9560   5.871   0.599   2.191 -0.2961  0.7398  0.2282
 3185TIP3    H1 9561   5.924   0.551   2.128 -3.0404 -1.6559 -0.5069
 3185TIP3    H2 9562   5.817   0.657   2.138 -0.2909  1.1809  0.6996
 3186TIP3   OH2 9563   5.837   1.201   2.088  0.0583 -0.5653 -0.2061
 3186TIP3    H1 9564   5.831   1.180   2.181  0.1666  2.5329  0.6296
 3186TIP3    H2 9565   5.748   1.225   2.062  0.1939 -0.4856 -0.6158
 3187TIP3   OH2 9566   0.832   5.543   2.040 -0.0966  0.5772 -0.0961
 3187TIP3    H1 9567   0.841   5.489   2.118 -1.2163 -1.4150 -1.2744
 3187TIP3    H2 9568   0.749   5.517   2.001  0.3112  1.6629 -1.8494
 3188TIP3   OH2 9569   6.262   5.245   2.432  0.0329 -0.1250 -0.2388
 3188TIP3    H1 9570   6.179   5.286   2.457 -0.7849 -1.3531 -0.8521
 3188TIP3    H2 9571   6.329   5.302   2.470 -1.0559  1.4870 -0.6651
 3189TIP3   OH2 9572   5.503   2.596   1.522  0.1157  0.2101  0.1369
 3189TIP3    H1 9573   5.560   2.588   1.445  0.1452 -0.6409  0.2456
 3189TIP3    H2 9574   5.470   2.686   1.517  0.7028  0.4036 -0.4602
 3190TIP3   OH2 9575   2.433   2.983   4.090  0.7938 -0.5454  0.1140
 3190TIP3    H1 9576   2.349   2.942   4.070  0.9122 -0.9604  0.4759
 3190TIP3    H2 9577   2.411   3.054   4.150  0.7338 -0.8360  0.4379
 3191TIP3   OH2 9578   6.074   2.568   3.902  0.0024 -0.8933 -0.3717
 3191TIP3    H1 9579   6.128   2.580   3.981 -1.0740 -2.1120  0.5935
 3191TIP3    H2 9580   6.027   2.486   3.917 -1.3399 -0.3978 -1.6331
 3192TIP3   OH2 9581   2.036   0.881   3.805  0.2904  0.1208 -0.0306
 3192TIP3    H1 9582   2.002   0.852   3.889 -0.0760  1.9228  0.4835
 3192TIP3    H2 9583   2.085   0.961   3.825  2.0759 -0.5984 -1.2317
 3193TIP3   OH2 9584   5.898   4.873   2.094  0.3600 -0.0638  0.1863
 3193TIP3    H1 9585   5.844   4.951   2.108  2.0391  1.1861  0.1176
 3193TIP3    H2 9586   5.884   4.820   2.172  0.4047  1.0866  1.0107
 3194TIP3   OH2 9587   5.890   4.779   1.469 -0.3005  0.1616 -0.6260
 3194TIP3    H1 9588   5.900   4.820   1.555  1.0986 -1.9306  0.3005
 3194TIP3    H2 9589   5.795   4.773   1.457 -0.5290  0.9773  0.5040
 3195TIP3   OH2 9590   3.320   3.995   4.304 -0.6247  0.7229  0.1544
 3195TIP3    H1 9591   3.407   4.024   4.276 -0.3628 -0.5745 -0.4307
 3195TIP3    H2 9592   3.337   3.939   4.380 -0.9686  0.6483  0.1782
 3196TIP3   OH2 9593   0.473   0.118   2.445  0.1356 -0.5026 -0.2556
 3196TIP3    H1 9594   0.472   0.129   2.540 -0.7943  0.3837 -0.3441
 3196TIP3    H2 9595   0.559   0.080   2.426  0.1002 -1.2570  0.9855
 3197TIP3   OH2 9596   4.339   5.458   2.741  0.1996 -0.2232  0.0634
 3197TIP3    H1 9597   4.269   5.418   2.791  1.3446 -1.1877  0.9677
 3197TIP3    H2 9598   4.336   5.551   2.764 -1.7292  0.0486 -1.1291
 3198TIP3   OH2 9599   0.646   5.405   2.567 -0.1446 -0.2830 -0.1561
 3198TIP3    H1 9600   0.606   5.356   2.639  1.2318 -0.3594  0.6061
 3198TIP3    H2 9601   0.736   5.419   2.596  0.3937 -0.1516 -1.8077
 3199TIP3   OH2 9602   5.336   5.460   4.411 -0.3940 -0.6022 -0.4473
 3199TIP3    H1 9603   5.334   5.460   4.315 -3.4777  0.3387 -0.4951
 3199TIP3    H2 9604   5.247   5.434   4.436  0.4444 -1.2055  2.1927
 3200TIP3   OH2 9605   3.420   3.328   4.778 -0.0401  0.1604 -0.0372
 3200TIP3    H1 9606   3.437   3.345   4.686  1.1300  0.5633  0.2410
 3200TIP3    H2 9607   3.429   3.233   4.787  2.9801  0.3763  0.2165
 3201TIP3   OH2 9608   4.887   4.396   3.033  0.2903  0.1479  0.3284
 3201TIP3    H1 9609   4.849   4.457   3.096  0.1085 -0.0000  0.3626
 3201TIP3    H2 9610   4.817   4.381   2.969  1.0308  1.6900 -0.9317
 3202TIP3   OH2 9611   4.338   4.357   4.630 -0.4064 -0.2215  0.1356
 3202TIP3    H1 9612   4.412   4.361   4.569 -1.2445 -1.6748 -1.0680
 3202TIP3    H2 9613   4.284   4.432   4.608 -0.2097 -0.1942 -0.2662
 3203TIP3   OH2 9614   6.247   3.697   2.086  0.3048 -0.0633 -0.0793
 3203TIP3    H1 9615   6.159   3.719   2.116 -0.2688 -0.4628 -1.3633
 3203TIP3    H2 9616   6.240   3.697   1.990  1.5940 -0.5131 -0.1954
 3204TIP3   OH2 9617   0.721   1.515   4.486 -0.3361  0.1088  0.0079
 3204TIP3    H1 9618   0.758   1.447   4.541 -0.8299  0.5060  0.8456
 3204TIP3    H2 9619   0.627   1.497   4.487 -0.2867 -0.3466 -1.3538
 3205TIP3   OH2 9620   4.368   2.474   2.307  0.5706 -0.0253  0.4364
 3205TIP3    H1 9621   4.457   2.507   2.315  0.2581  1.1560 -0.4614
 3205TIP3    H2 9622   4.319   2.548   2.270 -0.1112 -1.6199 -2.0957
 3206TIP3   OH2 9623   2.417   2.771   3.701  0.0157 -0.0588 -0.1977
 3206TIP3    H1 9624   2.416   2.820   3.619  0.6816 -0.8569 -0.7008
 3206TIP3    H2 9625   2.327   2.740   3.712 -0.5937  1.8042  0.4861
 3207TIP3   OH2 9626   5.291   5.717   4.976  0.2563 -0.1034 -0.1261
 3207TIP3    H1 9627   5.367   5.719   5.034 -0.2413 -0.7248  0.5619
 3207TIP3    H2 9628   5.300   5.795   4.922 -0.0336  1.3305  1.7840
 3208TIP3   OH2 9629   1.375   0.181   4.469 -0.3905  0.0915 -0.6227
 3208TIP3    H1 9630   1.391   0.274   4.453 -2.3873  0.3055 -1.8537
 3208TIP3    H2 9631   1.413   0.137   4.393  0.6686 -0.1139  0.0253
 3209TIP3   OH2 9632   4.561   5.873   1.332  0.5246 -0.1588  0.2110
 3209TIP3    H1 9633   4.549   5.823   1.413  0.5144 -1.2690 -0.4476
 3209TIP3    H2 9634   4.536   5.962   1.355 -0.4662 -0.6542  1.1645
 3210TIP3   OH2 9635   6.237   4.154   3.168  0.6071 -0.1750  0.0545
 3210TIP3    H1 9636   6.214   4.080   3.113 -1.0798 -0.3688  0.9673
 3210TIP3    H2 9637   6.309   4.197   3.121 -0.8321 -0.2453 -2.3830
 3211TIP3   OH2 9638   4.946   0.480   3.324  0.1086 -0.2476 -0.0055
 3211TIP3    H1 9639   4.987   0.444   3.245 -2.5969 -0.0910 -1.6394
 3211TIP3    H2 9640   4.896   0.407   3.361  0.5027 -0.0377  0.9696
 3212TIP3   OH2 9641   0.110   3.256   1.653 -0.0485 -0.0088  0.3632
 3212TIP3    H1 9642   0.163   3.267   1.732 -0.2579 -1.1717  0.6776
 3212TIP3    H2 9643   0.134   3.331   1.598  0.4077  0.5902  1.3460
 3213TIP3   OH2 9644   4.140   1.471   0.232  1.0319 -0.3661 -0.1662
 3213TIP3    H1 9645   4.086   1.409   0.182  0.1371  1.1570 -1.1760
 3213TIP3    H2 9646   4.145   1.432   0.319 -1.6270 -0.6831 -0.0552
 3214TIP3   OH2 9647   4.442   5.097   0.225  0.0236  0.2081 -0.6520
 3214TIP3    H1 9648   4.465   5.037   0.296  0.2070 -0.1455 -1.0074
 3214TIP3    H2 9649   4.509   5.166   0.230 -0.5614  0.7342  0.1621
 3215TIP3   OH2 9650   4.551   2.042   4.369 -0.0015 -0.0667 -0.2460
 3215TIP3    H1 9651   4.599   2.121   4.393  0.5138 -0.0927 -1.1887
 3215TIP3    H2 9652   4.564   2.032   4.275  0.4321 -1.6029 -0.0615
 3216TIP3   OH2 9653   1.258   1.288   2.140 -0.2371 -0.2357 -0.7885
 3216TIP3    H1 9654   1.336   1.321   2.095  0.8633 -0.2390  0.9682
 3216TIP3    H2 9655   1.276   1.195   2.152  0.3047  0.0518  1.0368
 3217TIP3   OH2 9656   6.079   5.797   2.966 -0.5279 -0.1670 -0.3196
 3217TIP3    H1 9657   6.112   5.720   2.921 -3.7215 -0.3073 -2.7971
 3217TIP3    H2 9658   6.129   5.870   2.929  0.0210 -0.6937 -0.6326
 3218TIP3   OH2 9659   0.190   2.501   3.481  0.1305 -0.1825  0.3146
 3218TIP3    H1 9660   0.272   2.549   3.471 -0.4715  0.6505 -0.8752
 3218TIP3    H2 9661   0.181   2.452   3.399 -1.2371  0.8488 -0.2032
 3219TIP3   OH2 9662   5.425   0.712   1.404 -0.1887 -0.5351 -0.1766
 3219TIP3    H1 9663   5.518   0.702   1.424 -0.7197 -1.6832  1.9835
 3219TIP3    H2 9664   5.392   0.623   1.399 -1.7035 -0.1863  2.1312
 3220TIP3   OH2 9665   4.821   5.606   4.026  0.2767  0.1449 -0.4749
 3220TIP3    H1 9666   4.904   5.600   3.980  1.5959  3.1657  1.1868
 3220TIP3    H2 9667   4.783   5.689   3.998 -0.6776  0.2879  1.0601
 3221TIP3   OH2 9668   4.153   2.499   1.183  0.5370 -0.4919 -0.3596
 3221TIP3    H1 9669   4.101   2.436   1.133  1.6803 -2.1509  0.4631
 3221TIP3    H2 9670   4.123   2.488   1.273  1.8317 -0.9971  0.0208
 3222TIP3   OH2 9671   0.496   5.121   3.764  0.2346 -0.4336  0.1784
 3222TIP3    H1 9672   0.569   5.173   3.796 -0.7350  1.6679 -0.7760
 3222TIP3    H2 9673   0.527   5.083   3.682  0.5241 -0.2845  0.2193
 3223TIP3   OH2 9674   3.074   1.054   0.473  0.8493 -0.4926 -0.0319
 3223TIP3    H1 9675   3.011   1.126   0.484  2.0507  0.6901 -0.6095
 3223TIP3    H2 9676   3.021   0.982   0.440 -0.2003  0.5087 -0.6446
 3224TIP3   OH2 9677   1.466   2.386   1.893  0.1904 -0.3933  0.4638
 3224TIP3    H1 9678   1.381   2.426   1.873  0.7488  0.4790 -0.1721
 3224TIP3    H2 9679   1.451   2.341   1.977 -0.4985  0.9839  1.1104
 3225TIP3   OH2 9680   0.788   0.704   3.126 -0.0615 -0.0772 -0.1035
 3225TIP3    H1 9681   0.862   0.764   3.129  1.8339 -2.1997 -0.9086
 3225TIP3    H2 9682   0.828   0.617   3.117 -2.6007 -1.5426  1.4494
 3226TIP3   OH2 9683   4.239   0.160   1.125  0.0360  0.0032 -0.1413
 3226TIP3    H1 9684   4.280   0.184   1.042 -0.8754 -1.5261 -1.0830
 3226TIP3    H2 9685   4.145   0.168   1.109 -0.1591 -0.5506  0.6541
 3227TIP3   OH2 9686   2.330   5.772   3.193 -0.0079 -0.7227 -0.1017
 3227TIP3    H1 9687   2.278   5.804   3.120  0.5806 -0.6776 -0.5117
 3227TIP3    H2 9688   2.294   5.816   3.270  0.1393  0.1536 -0.5201
 3228TIP3   OH2 9689   4.355   3.730   1.166  0.0731 -0.1195  0.1258
 3228TIP3    H1 9690   4.416   3.687   1.106 -1.5876  0.0472 -1.7503
 3228TIP3    H2 9691   4.385   3.821   1.171  0.1185 -0.0926 -0.6025
 3229TIP3   OH2 9692   5.000   0.263   2.146  0.1724  0.3293 -0.3064
 3229TIP3    H1 9693   4.921   0.310   2.121  0.0561  0.3116  0.0148
 3229TIP3    H2 9694   4.969   0.175   2.167  0.4655 -0.0497 -1.4237
 3230TIP3   OH2 9695   1.359   5.893   0.018 -0.5848 -0.3750 -0.2496
 3230TIP3    H1 9696   1.300   5.962  -0.014 -0.8844 -0.6811 -0.3560
 3230TIP3    H2 9697   1.350   5.897   0.113 -1.4984 -1.0485 -0.2974
 3231TIP3   OH2 9698   2.526   5.501   0.761  0.4832 -0.1372 -0.4798
 3231TIP3    H1 9699   2.514   5.538   0.674  0.5665 -1.1909 -0.9473
 3231TIP3    H2 9700   2.616   5.469   0.762  0.2891 -0.6791 -0.2163
 3232TIP3   OH2 9701   1.233   2.385   1.012 -0.2905  0.8517  0.7764
 3232TIP3    H1 9702   1.185   2.444   1.070  0.5679  2.4653 -0.0872
 3232TIP3    H2 9703   1.289   2.443   0.960  0.7776 -0.7640  0.0572
 3233TIP3   OH2 9704   0.039   2.106   2.646 -0.2275 -0.3359 -0.0418
 3233TIP3    H1 9705   0.016   2.145   2.562 -2.2248  2.8597  1.7637
 3233TIP3    H2 9706  -0.044   2.102   2.694  1.2383  0.9430  2.8643
 3234TIP3   OH2 9707   5.376   2.353   4.683  0.3120 -0.2875 -0.3616
 3234TIP3    H1 9708   5.297   2.299   4.690  0.5391 -0.4871  0.9433
 3234TIP3    H2 9709   5.417   2.346   4.770 -1.8528  5.4566  1.5449
 3235TIP3   OH2 9710   1.628   5.648   4.561  0.9580 -0.1919 -0.2548
 3235TIP3    H1 9711   1.568   5.574   4.571 -0.1955  0.7779  0.1471
 3235TIP3    H2 9712   1.625   5.669   4.468  0.4869  0.0088 -0.1945
 3236TIP3   OH2 9713   2.093   2.371   3.585 -0.1796  0.2451  0.1133
 3236TIP3    H1 9714   2.028   2.330   3.641  0.7771 -0.2355  0.9110
 3236TIP3    H2 9715   2.163   2.306   3.578  1.3642  1.6527  1.3754
 3237TIP3   OH2 9716   1.775   3.581   2.535  0.2338 -0.7742  0.2409
 3237TIP3    H1 9717   1.712   3.653   2.528  2.1822  0.9277 -0.7214
 3237TIP3    H2 9718   1.734   3.509   2.486 -0.0219  1.0394 -2.4506
 3238TIP3   OH2 9719   2.514   4.611   0.532 -0.3825 -0.0239  0.0004
 3238TIP3    H1 9720   2.448   4.655   0.586 -1.6239 -1.4768 -0.2625
 3238TIP3    H2 9721   2.575   4.572   0.594 -0.7162 -0.0692  0.3024
 3239TIP3   OH2 9722   3.254   3.888   1.999  0.3549 -0.5561 -0.1100
 3239TIP3    H1 9723   3.208   3.904   1.917 -0.7719  0.1443  0.6232
 3239TIP3    H2 9724   3.267   3.793   2.002 -0.7280 -0.7265 -0.5128
 3240TIP3   OH2 9725   3.419   0.647   3.451  0.0598  0.2871  0.0777
 3240TIP3    H1 9726   3.448   0.718   3.508  0.5261 -1.4924  2.1919
 3240TIP3    H2 9727   3.476   0.653   3.374  0.4826  1.8262  0.4818
 3241TIP3   OH2 9728   3.181   4.008   2.435  0.1214  0.1778  0.2550
 3241TIP3    H1 9729   3.271   3.981   2.418  0.2126  0.2659  0.5883
 3241TIP3    H2 9730   3.127   3.939   2.396  0.3289  0.1901 -0.0592
 3242TIP3   OH2 9731   1.253   4.623   1.821  0.0171  0.1952 -1.2047
 3242TIP3    H1 9732   1.344   4.618   1.793 -0.1369 -0.8267 -1.5604
 3242TIP3    H2 9733   1.254   4.594   1.912  0.0566  0.2906 -1.1742
 3243TIP3   OH2 9734   3.954   0.642   1.314  0.6687  0.1076  0.0298
 3243TIP3    H1 9735   3.896   0.645   1.390 -0.4060  0.6961 -0.7747
 3243TIP3    H2 9736   3.984   0.552   1.309  0.2247 -0.0807  0.7703
 3244TIP3   OH2 9737   3.221   2.226   0.124 -0.3060  0.3225 -0.3815
 3244TIP3    H1 9738   3.232   2.227   0.219 -0.0170  0.1894 -0.4132
 3244TIP3    H2 9739   3.129   2.203   0.112 -0.6526  1.5045 -0.1207
 3245TIP3   OH2 9740   1.939   2.628   0.910 -0.3194  0.3654 -0.2617
 3245TIP3    H1 9741   2.025   2.662   0.934  0.2894 -0.9609 -0.5040
 3245TIP3    H2 9742   1.910   2.685   0.839 -0.5915  2.1309  1.1848
 3246TIP3   OH2 9743   5.019   0.637   5.105 -0.1306  0.3019 -0.2182
 3246TIP3    H1 9744   4.966   0.711   5.134 -0.0347 -0.6183  2.6037
 3246TIP3    H2 9745   4.958   0.563   5.102  0.3075 -0.0676 -0.3023
 3247TIP3   OH2 9746   3.571   5.192   3.082  0.0950 -0.4471  0.3411
 3247TIP3    H1 9747   3.562   5.145   3.165 -0.6922  0.7329  0.9549
 3247TIP3    H2 9748   3.653   5.241   3.090  1.1769 -2.0467 -0.4994
 3248TIP3   OH2 9749   2.625   1.377   2.071 -0.6217 -0.1349 -0.1670
 3248TIP3    H1 9750   2.678   1.457   2.072 -0.1091 -0.4635 -0.5762
 3248TIP3    H2 9751   2.557   1.392   2.137  0.2928  0.0809  0.7492
 3249TIP3   OH2 9752   5.553   1.073   3.512 -0.0572  0.9592 -0.4797
 3249TIP3    H1 9753   5.501   1.057   3.433 -0.0477  0.5248 -0.3966
 3249TIP3    H2 9754   5.541   1.167   3.529 -0.2160  1.0155 -0.8837
 3250TIP3   OH2 9755   1.404   2.356   4.486  0.6849 -0.2748  0.2254
 3250TIP3    H1 9756   1.347   2.282   4.465 -0.2625  1.1907 -2.9647
 3250TIP3    H2 9757   1.348   2.414   4.537 -0.0078  0.1164 -0.9364
 3251TIP3   OH2 9758   1.941   5.759   2.351  0.9311  0.3620 -0.1750
 3251TIP3    H1 9759   1.990   5.681   2.376 -0.1161 -1.2335 -2.6957
 3251TIP3    H2 9760   1.995   5.802   2.285  0.5066  0.4844 -0.4524
 3252TIP3   OH2 9761   3.973   2.827   0.485 -0.0066 -0.3640  0.4976
 3252TIP3    H1 9762   4.036   2.762   0.454  0.9355  0.6246  0.2529
 3252TIP3    H2 9763   3.985   2.827   0.580  2.1711  1.4982  0.3136
 3253TIP3   OH2 9764   4.138   4.391   1.840 -0.3171  0.0761  0.5717
 3253TIP3    H1 9765   4.089   4.460   1.795  0.0557 -0.3404 -0.5237
 3253TIP3    H2 9766   4.229   4.411   1.821 -0.2268 -1.0163 -0.2479
 3254TIP3   OH2 9767   4.004   3.079   3.275 -0.0697 -1.1689 -0.1580
 3254TIP3    H1 9768   3.949   3.006   3.300 -0.9445 -0.4871 -0.0483
 3254TIP3    H2 9769   3.987   3.146   3.342  1.6573 -1.2975  0.4802
 3255TIP3   OH2 9770   1.718   0.733   1.411 -0.4069  0.0115  0.0385
 3255TIP3    H1 9771   1.639   0.718   1.462 -0.4013 -1.9465 -0.4359
 3255TIP3    H2 9772   1.764   0.803   1.457 -1.3890 -0.3052  1.5523
 3256TIP3   OH2 9773   1.623   4.822   3.486  0.4134 -0.5862  0.0773
 3256TIP3    H1 9774   1.685   4.893   3.468 -0.9453  0.9749  1.1280
 3256TIP3    H2 9775   1.677   4.750   3.519  1.8792 -0.1888 -1.3069
 3257TIP3   OH2 9776   0.707   4.060   1.607  0.1414  0.4722 -0.3779
 3257TIP3    H1 9777   0.661   4.033   1.687  0.2417 -0.3567 -0.5936
 3257TIP3    H2 9778   0.637   4.077   1.544  0.1018 -0.8355 -0.7203
 3258TIP3   OH2 9779   3.047   5.038   3.934  0.2002  0.1238 -0.3213
 3258TIP3    H1 9780   3.013   5.067   3.849 -2.9953 -0.1599  0.7429
 3258TIP3    H2 9781   3.058   5.119   3.985  1.9395  0.2763 -0.8605
 3259TIP3   OH2 9782   0.534   4.806   2.499  0.1398  0.3253  0.4687
 3259TIP3    H1 9783   0.526   4.771   2.410  0.2761  0.6375  0.3315
 3259TIP3    H2 9784   0.485   4.888   2.496 -1.7131 -0.6750  1.2656
 3260TIP3   OH2 9785   4.072   0.624   4.837  0.3575  0.3773  0.4275
 3260TIP3    H1 9786   4.132   0.583   4.899 -0.2493  0.4218  1.0574
 3260TIP3    H2 9787   3.985   0.597   4.866  0.0074  1.1910  0.1739
 3261TIP3   OH2 9788   5.340   5.406   5.100  0.0041  0.3803  0.9891
 3261TIP3    H1 9789   5.346   5.355   5.181  0.6817  2.3262  2.2438
 3261TIP3    H2 9790   5.279   5.476   5.121 -0.7991  0.2140 -0.6476
 3262TIP3   OH2 9791   0.053   3.032   3.823  0.6436  0.0488  0.1224
 3262TIP3    H1 9792   0.119   3.000   3.884  0.6316 -1.3845 -0.5850
 3262TIP3    H2 9793  -0.010   2.960   3.816 -0.1493  0.7761 -0.4380
 3263TIP3   OH2 9794   3.639   3.230   0.219  0.3231 -0.2328 -0.2950
 3263TIP3    H1 9795   3.724   3.260   0.251  0.3785  0.2183 -0.8600
 3263TIP3    H2 9796   3.653   3.210   0.127 -0.3879  0.6874 -0.6187
 3264TIP3   OH2 9797   1.469   2.656   1.522 -0.0373  0.1386 -0.2018
 3264TIP3    H1 9798   1.535   2.601   1.565  0.2181  0.9907  0.5552
 3264TIP3    H2 9799   1.433   2.602   1.453 -0.0409 -1.0943  0.7353
 3265TIP3   OH2 9800   2.194   4.673   5.156 -0.3356 -0.0516 -0.1012
 3265TIP3    H1 9801   2.123   4.720   5.198 -1.2700 -0.1163 -1.5455
 3265TIP3    H2 9802   2.154   4.593   5.123  0.6676 -0.6466  0.0597
 3266TIP3   OH2 9803   2.913   1.886   2.445 -0.3196 -0.4171 -0.4573
 3266TIP3    H1 9804   2.889   1.962   2.498 -2.7342 -0.5453 -1.2483
 3266TIP3    H2 9805   2.868   1.900   2.362  0.6786 -1.8496 -1.2670
 3267TIP3   OH2 9806   4.957   1.109   3.230 -0.3242  0.4402  0.6609
 3267TIP3    H1 9807   4.954   1.016   3.205 -2.5549  0.4576  0.7376
 3267TIP3    H2 9808   4.982   1.154   3.149  0.6097 -0.1752  0.5806
 3268TIP3   OH2 9809   1.035   2.715   2.197 -0.9840 -0.0969  0.1849
 3268TIP3    H1 9810   1.100   2.669   2.145  0.1398 -0.4272  1.7935
 3268TIP3    H2 9811   1.025   2.800   2.155  0.2752 -0.1549 -0.2714
 3269TIP3   OH2 9812   3.605   5.499   1.558  0.2657  0.1774 -0.6263
 3269TIP3    H1 9813   3.690   5.541   1.568  0.6722 -0.5890 -0.7625
 3269TIP3    H2 9814   3.623   5.405   1.566 -0.8628  0.0747  1.4532
 3270TIP3   OH2 9815   3.830   4.350   4.462 -0.0723 -0.1383  0.2939
 3270TIP3    H1 9816   3.778   4.419   4.504  2.1847  1.4976  0.5844
 3270TIP3    H2 9817   3.911   4.347   4.512  0.5966 -1.8164 -0.8036
 3271TIP3   OH2 9818   5.634   4.740   4.297  0.3253 -0.0552  0.0489
 3271TIP3    H1 9819   5.608   4.707   4.211 -2.6733  1.4221  0.2735
 3271TIP3    H2 9820   5.554   4.735   4.350  1.7892  0.1598  2.4282
 3272TIP3   OH2 9821   3.140   2.242   5.063 -0.0096 -0.1066  0.1418
 3272TIP3    H1 9822   3.159   2.207   5.150  1.4611 -2.3069 -0.9822
 3272TIP3    H2 9823   3.226   2.264   5.027 -0.6280  1.1529 -0.6580
 3273TIP3   OH2 9824   6.177   5.910   4.226  0.7101  0.1208  0.8056
 3273TIP3    H1 9825   6.213   5.861   4.152 -0.1198 -0.9725  1.1024
 3273TIP3    H2 9826   6.121   5.977   4.186 -0.1583 -0.7991  0.4416
 3274TIP3   OH2 9827   4.051   5.798   2.787 -0.3430 -0.5365  0.4040
 3274TIP3    H1 9828   4.012   5.885   2.796 -0.3743 -0.5939  0.8488
 3274TIP3    H2 9829   4.119   5.809   2.720 -1.9920 -0.7408 -1.3878
 3275TIP3   OH2 9830   0.420   0.325   1.281  0.0410  0.5969  0.3474
 3275TIP3    H1 9831   0.361   0.349   1.209 -0.4209 -0.1429  0.4723
 3275TIP3    H2 9832   0.476   0.256   1.244 -0.8636 -0.5063  0.9800
 3276TIP3   OH2 9833   5.831   2.165   4.714  0.6617 -0.5185 -0.3463
 3276TIP3    H1 9834   5.876   2.083   4.727  1.1598 -0.3380 -0.8806
 3276TIP3    H2 9835   5.763   2.145   4.649  0.1310 -0.7262  0.2564
 3277TIP3   OH2 9836   4.034   0.377   1.433 -0.7082 -1.0093  0.0992
 3277TIP3    H1 9837   4.102   0.337   1.488 -0.2273 -2.6708 -1.6225
 3277TIP3    H2 9838   3.959   0.388   1.492 -0.0018 -2.0716  1.2512
 3278TIP3   OH2 9839   2.599   5.295   1.114  0.0269 -0.2593  0.0852
 3278TIP3    H1 9840   2.639   5.293   1.201 -0.2088  0.0156  0.2041
 3278TIP3    H2 9841   2.531   5.362   1.121 -2.4346 -2.6627  0.7479
 3279TIP3   OH2 9842   0.183   5.179   3.105  0.0200 -0.1351 -0.4702
 3279TIP3    H1 9843   0.088   5.188   3.096  0.1180  0.1044 -1.3283
 3279TIP3    H2 9844   0.200   5.193   3.198 -1.0136 -2.3050  0.1127
 3280TIP3   OH2 9845   3.234   4.058   4.055  0.4594  0.6700 -0.5180
 3280TIP3    H1 9846   3.285   3.995   4.003 -2.1142 -0.4647 -1.8617
 3280TIP3    H2 9847   3.224   4.017   4.140 -0.2155 -0.2343 -1.0208
 3281TIP3   OH2 9848   5.249   1.326   2.518 -0.1684 -0.0566 -0.6859
 3281TIP3    H1 9849   5.221   1.302   2.430  0.7091  0.5786 -1.1453
 3281TIP3    H2 9850   5.293   1.410   2.508 -2.8585  1.6957  0.8154
 3282TIP3   OH2 9851   1.415   3.929   2.099 -0.0432 -0.3590 -0.0503
 3282TIP3    H1 9852   1.468   3.913   2.177  0.6673 -1.9002 -0.7999
 3282TIP3    H2 9853   1.325   3.931   2.132  0.3705  1.3492  1.1044
 3283TIP3   OH2 9854   5.864   0.187   3.234 -0.2995 -0.3833 -0.5477
 3283TIP3    H1 9855   5.872   0.109   3.179  1.4095 -0.3496 -0.4077
 3283TIP3    H2 9856   5.954   0.218   3.246 -0.8567  1.1219  0.1175
 3284TIP3   OH2 9857   4.182   2.825   5.097  0.0302  0.1149  0.4810
 3284TIP3    H1 9858   4.233   2.900   5.064 -1.7336  1.6246  1.0060
 3284TIP3    H2 9859   4.228   2.748   5.063  2.3853  1.3789  0.5670
 3285TIP3   OH2 9860   5.991   1.554   4.987  0.4315 -0.6593 -0.8128
 3285TIP3    H1 9861   6.071   1.512   4.957  1.7409  0.1623  1.2980
 3285TIP3    H2 9862   5.942   1.485   5.033 -0.3153 -1.2608 -2.4506
 3286TIP3   OH2 9863   0.519   4.166   4.765  0.4179  0.2369 -0.1835
 3286TIP3    H1 9864   0.537   4.085   4.813 -0.9303  0.0517  0.0528
 3286TIP3    H2 9865   0.464   4.217   4.824 -0.0859  0.6237 -0.9772
 3287TIP3   OH2 9866   3.418   1.383   1.236  0.0147  0.3755 -0.3158
 3287TIP3    H1 9867   3.472   1.306   1.255  1.0531  0.2856 -3.1317
 3287TIP3    H2 9868   3.341   1.373   1.292  1.7643 -0.7809  2.0312
 3288TIP3   OH2 9869   1.431   5.823   3.930  0.0956 -0.8209  0.1052
 3288TIP3    H1 9870   1.454   5.866   3.847 -0.2523 -0.2778  0.2840
 3288TIP3    H2 9871   1.506   5.839   3.987 -0.5410  0.6595  0.5798
 3289TIP3   OH2 9872   3.419   5.856   1.752  0.2981 -0.1168  0.2274
 3289TIP3    H1 9873   3.433   5.773   1.796  0.0600  0.2347  0.9766
 3289TIP3    H2 9874   3.333   5.886   1.783  0.0265  0.0334 -0.6437
 3290TIP3   OH2 9875   4.076   2.399   1.697 -0.2885 -0.3313 -0.6170
 3290TIP3    H1 9876   4.166   2.424   1.672 -0.1103  0.9667  1.1601
 3290TIP3    H2 9877   4.088   2.329   1.761 -0.6169 -1.0748 -1.3494
 3291TIP3   OH2 9878   0.988   1.503   3.229 -0.3190 -0.6792  0.0156
 3291TIP3    H1 9879   1.067   1.556   3.223 -0.2227 -0.7360  0.6450
 3291TIP3    H2 9880   1.019   1.412   3.226 -0.3376 -0.7028  0.3900
 3292TIP3   OH2 9881   4.768   2.823   4.361  0.3024 -0.3340  0.5548
 3292TIP3    H1 9882   4.757   2.729   4.377 -1.4216  0.1934  2.9588
 3292TIP3    H2 9883   4.852   2.844   4.401  1.2466 -0.9838 -0.9746
 3293TIP3   OH2 9884   4.921   5.243   0.267  0.0006  0.1002  0.0856
 3293TIP3    H1 9885   4.845   5.234   0.210 -1.0346 -4.8178  1.8166
 3293TIP3    H2 9886   4.890   5.297   0.340 -0.8891  0.4543 -0.5366
 3294TIP3   OH2 9887   1.015   2.210   1.314 -0.1163  0.3701 -0.2053
 3294TIP3    H1 9888   1.023   2.260   1.233 -0.0203  0.2670 -0.2572
 3294TIP3    H2 9889   0.925   2.177   1.313 -0.7773  1.9743  0.6319
 3295TIP3   OH2 9890   0.440   1.798   2.447 -0.2892  0.8619 -0.2323
 3295TIP3    H1 9891   0.367   1.755   2.491 -0.0504  1.8590  1.2105
 3295TIP3    H2 9892   0.424   1.892   2.460  1.4544  1.0984  0.5159
 3296TIP3   OH2 9893   3.515   1.277   4.843  0.4433  0.5789  0.2953
 3296TIP3    H1 9894   3.422   1.296   4.835  0.3613  0.0972  0.0684
 3296TIP3    H2 9895   3.529   1.201   4.787  0.6273 -0.4544  1.6787
 3297TIP3   OH2 9896   0.226  -0.013   2.320  0.1937 -0.1434 -0.1119
 3297TIP3    H1 9897   0.145   0.037   2.335 -0.7929 -0.3730 -3.6782
 3297TIP3    H2 9898   0.296   0.051   2.335 -0.8691  1.2906 -0.9632
 3298TIP3   OH2 9899   4.338   0.377   2.969  0.6025 -0.2175  0.2980
 3298TIP3    H1 9900   4.396   0.443   3.007  1.0186 -0.6410  0.4155
 3298TIP3    H2 9901   4.288   0.424   2.903  1.3990  0.0654 -0.1230
 3299TIP3   OH2 9902   4.946   5.419   1.150  0.0515  0.3364 -0.1416
 3299TIP3    H1 9903   4.918   5.349   1.209  4.1232 -0.7781  0.8216
 3299TIP3    H2 9904   5.003   5.474   1.204  2.1971  0.5329 -2.4054
 3300TIP3   OH2 9905   2.546   2.113   0.999 -0.0204 -0.3310 -0.6643
 3300TIP3    H1 9906   2.623   2.158   0.966 -0.2037 -0.0214 -0.6730
 3300TIP3    H2 9907   2.580   2.039   1.049  0.3364  0.9411  1.0329
 3301TIP3   OH2 9908   2.331   0.729   2.654 -0.0816 -0.5090  0.1756
 3301TIP3    H1 9909   2.397   0.695   2.593  0.8749  0.0661  0.8500
 3301TIP3    H2 9910   2.305   0.813   2.617 -0.3016 -0.6529  0.0030
 3302TIP3   OH2 9911   2.916   0.114   2.672  0.8015  0.0795  0.2773
 3302TIP3    H1 9912   2.987   0.169   2.704  1.4409  1.6141 -3.3282
 3302TIP3    H2 9913   2.958   0.057   2.607 -1.0171  0.0948 -0.9671
 3303TIP3   OH2 9914   0.092   1.823   1.016  0.0143  0.0608 -0.2446
 3303TIP3    H1 9915   0.013   1.837   0.963  0.1732  0.1451 -0.4610
 3303TIP3    H2 9916   0.110   1.909   1.054 -0.4344 -0.1302  0.4193
 3304TIP3   OH2 9917   1.706   4.542   0.615 -0.7037 -0.1925 -1.0237
 3304TIP3    H1 9918   1.658   4.459   0.619 -1.3840  0.1998 -0.7781
 3304TIP3    H2 9919   1.789   4.520   0.573 -0.2784 -1.2732  0.3199
 3305TIP3   OH2 9920   3.880   3.856   2.010 -0.3831 -0.7489  0.8453
 3305TIP3    H1 9921   3.878   3.949   1.986 -1.3320 -1.3298 -1.6260
 3305TIP3    H2 9922   3.788   3.833   2.025 -0.0083 -0.9243  3.3028
 3306TIP3   OH2 9923   2.106   1.761   3.442  0.2732  0.4272  0.2731
 3306TIP3    H1 9924   2.015   1.734   3.433  0.7069 -0.9387 -0.2275
 3306TIP3    H2 9925   2.136   1.720   3.523  0.1262  1.8668  1.0894
 3307TIP3   OH2 9926   0.507   1.921   2.898 -0.5845  0.1016  0.1292
 3307TIP3    H1 9927   0.554   1.880   2.825  0.8440  0.8665  0.5904
 3307TIP3    H2 9928   0.420   1.939   2.863 -0.6428 -1.5347 -0.6867
 3308TIP3   OH2 9929   5.056   0.277   3.801 -0.0649 -0.1750  0.1338
 3308TIP3    H1 9930   4.979   0.260   3.746 -0.0694 -1.7080  0.5530
 3308TIP3    H2 9931   5.048   0.368   3.827 -1.3379 -0.0977 -0.4575
 3309TIP3   OH2 9932   3.845   1.174   2.921 -0.8033 -0.0931  0.2027
 3309TIP3    H1 9933   3.794   1.239   2.968  0.6438  0.7248  0.7211
 3309TIP3    H2 9934   3.820   1.090   2.960 -4.3492 -0.2197 -1.9737
 3310TIP3   OH2 9935   6.004   0.717   0.915  0.2242 -0.1609  0.2979
 3310TIP3    H1 9936   5.915   0.754   0.919  0.3821  0.3782 -0.8649
 3310TIP3    H2 9937   6.056   0.783   0.870  0.9894 -0.9127  0.0470
 3311TIP3   OH2 9938   5.176   5.005   0.894  0.2173  0.1219 -0.0788
 3311TIP3    H1 9939   5.118   4.936   0.861 -1.1474  1.1842  0.0204
 3311TIP3    H2 9940   5.165   5.077   0.832  1.2570  0.4549  0.0979
 3312TIP3   OH2 9941   4.641   3.402   3.204 -0.1559  0.0567 -0.1642
 3312TIP3    H1 9942   4.725   3.446   3.213 -0.8820  1.6402 -0.7028
 3312TIP3    H2 9943   4.650   3.347   3.126  0.2736  0.4500 -0.3884
 3313TIP3   OH2 9944   1.791   3.627   1.925  0.1555  0.5389  0.2785
 3313TIP3    H1 9945   1.875   3.674   1.933  0.3063  0.3948 -0.3940
 3313TIP3    H2 9946   1.764   3.642   1.834  1.2676 -2.3913 -0.6606
 3314TIP3   OH2 9947   5.804   3.705   1.631  0.4578 -0.4896  0.1217
 3314TIP3    H1 9948   5.896   3.692   1.653  0.1841 -0.4216  1.3908
 3314TIP3    H2 9949   5.799   3.796   1.601  0.5340  0.0992  1.7622
 3315TIP3   OH2 9950   0.500   2.653   1.771 -0.5944  0.3036  0.0754
 3315TIP3    H1 9951   0.418   2.603   1.774 -0.0414 -0.6682 -0.5541
 3315TIP3    H2 9952   0.492   2.707   1.692 -0.6091  0.1657 -0.0185
 3316TIP3   OH2 9953   3.726   0.619   4.616 -0.3697 -0.1772 -0.7271
 3316TIP3    H1 9954   3.733   0.668   4.699 -1.0504 -1.4788  0.1366
 3316TIP3    H2 9955   3.774   0.538   4.632  0.7193  0.1574 -2.1264
 3317TIP3   OH2 9956   3.988   5.348   1.948 -0.1061 -0.1887  0.1773
 3317TIP3    H1 9957   4.074   5.343   1.907  0.6702  2.1462  1.3052
 3317TIP3    H2 9958   3.998   5.299   2.030 -0.2473 -0.9725 -0.2692
 3318TIP3   OH2 9959   4.369   2.038   1.261 -0.1148  0.2410  0.0189
 3318TIP3    H1 9960   4.298   1.992   1.216 -0.6133  2.6818 -1.8620
 3318TIP3    H2 9961   4.438   2.046   1.196  1.0524 -0.1654  1.1586
 3319TIP3   OH2 9962   1.739   0.579   2.566 -0.2881 -0.2701 -0.3538
 3319TIP3    H1 9963   1.732   0.642   2.637 -0.1544  0.3631 -0.8944
 3319TIP3    H2 9964   1.824   0.537   2.580 -0.7392 -0.9389  0.4855
 3320TIP3   OH2 9965   0.574   2.717   4.328 -0.2400 -0.4268  0.5694
 3320TIP3    H1 9966   0.526   2.681   4.253  0.3784  0.8067 -0.4525
 3320TIP3    H2 9967   0.528   2.798   4.350 -0.7104 -1.0281  1.8680
 3321TIP3   OH2 9968   3.861   4.200   1.114 -0.2203  0.0744 -0.7815
 3321TIP3    H1 9969   3.922   4.273   1.108  2.7189 -2.1333 -0.3702
 3321TIP3    H2 9970   3.853   4.183   1.208  1.3559 -1.7086 -0.9039
 3322TIP3   OH2 9971   0.757   5.668   4.427  0.1740 -0.1957  0.3597
 3322TIP3    H1 9972   0.837   5.669   4.479  0.0477  1.1289  0.5839
 3322TIP3    H2 9973   0.786   5.683   4.337  0.0931  2.4555  0.6906
 3323TIP3   OH2 9974   0.300   1.483   3.278 -0.1329 -0.0233 -0.2180
 3323TIP3    H1 9975   0.322   1.541   3.206 -0.8671  0.9949  0.3550
 3323TIP3    H2 9976   0.228   1.429   3.245  0.2418 -0.3003 -0.5941
 3324TIP3   OH2 9977   4.059   4.129   1.756 -0.0369 -0.4707 -0.0389
 3324TIP3    H1 9978   4.111   4.210   1.754 -0.8974  0.1578  1.4502
 3324TIP3    H2 9979   4.030   4.117   1.666  0.7141  0.4794 -0.4272
 3325TIP3   OH2 9980   3.950   5.666   4.480  0.2983 -0.1882 -0.1889
 3325TIP3    H1 9981   4.037   5.632   4.501  0.2052  0.3356  1.1692
 3325TIP3    H2 9982   3.963   5.761   4.473  0.2064 -0.2871 -2.0591
 3326TIP3   OH2 9983   0.348   0.757   1.563 -0.7327 -0.2923  0.4524
 3326TIP3    H1 9984   0.399   0.689   1.520  0.6692  1.2518 -0.4737
 3326TIP3    H2 9985   0.365   0.745   1.657  2.8435  1.1220  0.1619
 3327TIP3   OH2 9986   4.379   5.116   2.599  0.6867  0.6034 -0.3679
 3327TIP3    H1 9987   4.306   5.167   2.633  0.3325  0.0732 -0.3344
 3327TIP3    H2 9988   4.343   5.068   2.525  1.1246  0.7185 -0.6619
 3328TIP3   OH2 9989   2.822   3.030   2.251  0.4720 -0.8466 -0.1844
 3328TIP3    H1 9990   2.793   2.941   2.230 -0.0188 -0.1809 -2.6438
 3328TIP3    H2 9991   2.748   3.069   2.298 -0.4052 -0.9397 -1.4397
 3329TIP3   OH2 9992   2.399   3.488   3.630  0.4480 -0.3507  0.0593
 3329TIP3    H1 9993   2.393   3.578   3.661 -1.5853 -0.1106 -0.9125
 3329TIP3    H2 9994   2.351   3.437   3.696 -0.1882 -0.4302 -0.4628
 3330TIP3   OH2 9995   5.090   1.603   2.657 -0.3011 -0.0880 -0.4162
 3330TIP3    H1 9996   5.022   1.624   2.721  0.3675 -1.6004  0.8547
 3330TIP3    H2 9997   5.169   1.647   2.690 -0.7783  2.5934 -2.4669
 3331TIP3   OH2 9998   4.983   1.382   4.330 -0.3258 -0.2672 -0.4680
 3331TIP3    H1 9999   4.924   1.306   4.339 -2.0398  0.9862 -0.5842
 3331TIP3    H210000   5.066   1.352   4.368 -1.4422 -1.6684  1.0382
 3332TIP3   OH210001   3.273   1.190   5.155 -0.2289  0.3794  0.6353
 3332TIP3    H110002   3.185   1.214   5.125  0.3417 -1.4035 -2.8973
 3332TIP3    H210003   3.271   1.095   5.161  1.3187  0.3532  1.0160
 3333TIP3   OH210004   5.394   1.821   5.096  0.0861  0.1585 -0.4853
 3333TIP3    H110005   5.412   1.913   5.080 -0.2414  0.2902 -0.1116
 3333TIP3    H210006   5.406   1.779   5.011 -1.4568  0.8111 -1.0637
 3334TIP3   OH210007   3.467   4.769   4.399 -0.0659  0.2564 -0.3166
 3334TIP3    H110008   3.431   4.692   4.354  1.1209 -0.8381  0.5200
 3334TIP3    H210009   3.408   4.783   4.473  0.2519 -0.4666  0.0820
 3335TIP3   OH210010   5.618   3.366   4.185 -0.0317 -0.0163  0.1295
 3335TIP3    H110011   5.687   3.360   4.120 -0.1569  0.9358 -0.1074
 3335TIP3    H210012   5.594   3.459   4.186 -1.6272 -0.3986 -0.1249
 3336TIP3   OH210013   0.985   0.005   1.861  0.2151  0.0675  0.0479
 3336TIP3    H110014   0.889   0.008   1.851  0.2022 -1.0901 -0.3170
 3336TIP3    H210015   1.011   0.096   1.863 -0.7636  0.4123 -1.2947
 3337TIP3   OH210016   1.686   2.767   2.860 -0.5843 -0.9250 -0.0106
 3337TIP3    H110017   1.698   2.678   2.825  0.9748 -0.8594  0.2770
 3337TIP3    H210018   1.741   2.769   2.938 -0.9182  0.1795  0.2077
 3338TIP3   OH210019   0.192   4.053   3.762 -0.2567  0.4490  0.0468
 3338TIP3    H110020   0.172   4.146   3.768 -0.0741  0.4493  0.6708
 3338TIP3    H210021   0.180   4.020   3.851  1.3792  0.2173  0.2114
 3339TIP3   OH210022   4.779   1.237   1.469 -0.2508 -0.4532 -0.2733
 3339TIP3    H110023   4.873   1.249   1.455  0.1189 -0.9813  1.4689
 3339TIP3    H210024   4.771   1.148   1.503 -1.4303 -0.5111 -0.6584
 3340TIP3   OH210025   2.701   4.242   4.896 -0.2124 -0.3133  0.0447
 3340TIP3    H110026   2.648   4.170   4.931 -0.0990 -1.0096 -1.1574
 3340TIP3    H210027   2.788   4.204   4.884  0.1710  0.3833  0.5500
 3341TIP3   OH210028   3.595   3.208   0.583 -0.1156 -0.0447  0.5718
 3341TIP3    H110029   3.515   3.255   0.558  0.7695  1.7817  0.9275
 3341TIP3    H210030   3.598   3.132   0.526 -1.3760  0.6312 -0.4455
 3342TIP3   OH210031   5.440   0.613   2.589  0.0607 -0.2572 -0.2184
 3342TIP3    H110032   5.493   0.689   2.613 -0.1651  0.3499 -1.5441
 3342TIP3    H210033   5.488   0.539   2.625 -0.6845  0.5803  2.7888
 3343TIP3   OH210034   5.815   4.871   3.423 -0.2022 -0.2836  0.0150
 3343TIP3    H110035   5.757   4.816   3.371 -0.8209  1.6356 -1.4566
 3343TIP3    H210036   5.837   4.944   3.365  0.8013  0.8790  1.7563
 3344TIP3   OH210037   0.458   2.937   2.401  0.0055 -0.5265 -0.0989
 3344TIP3    H110038   0.481   2.878   2.330  0.2820 -1.6107  0.8698
 3344TIP3    H210039   0.421   3.014   2.357 -0.0072 -1.2497 -1.3980
 3345TIP3   OH210040   6.147   4.910   4.558 -0.6400 -0.4677 -0.1398
 3345TIP3    H110041   6.135   4.894   4.652  0.9481 -0.9858  0.0115
 3345TIP3    H210042   6.233   4.952   4.552 -0.2771 -1.3509 -1.4383
 3346TIP3   OH210043   4.700   4.401   1.731  0.3680 -0.0764 -0.0643
 3346TIP3    H110044   4.642   4.375   1.802  1.8393  0.7533  1.5065
 3346TIP3    H210045   4.761   4.329   1.722  0.6202  0.1293 -0.0017
 3347TIP3   OH210046   4.158   4.915   2.666 -0.6567 -0.3154  0.4757
 3347TIP3    H110047   4.098   4.841   2.665 -0.8153 -0.2252 -1.9467
 3347TIP3    H210048   4.121   4.977   2.604  1.1886  0.3420 -0.0407
 3348TIP3   OH210049   3.016   5.618   0.218  0.0617 -0.1279 -0.0398
 3348TIP3    H110050   3.019   5.623   0.123  0.1392  1.1438  0.0077
 3348TIP3    H210051   3.098   5.575   0.242  0.4516  0.3336 -0.5149
 3349TIP3   OH210052   2.883   5.873   3.809  0.2881 -0.2130 -0.3871
 3349TIP3    H110053   2.909   5.781   3.816 -1.1247 -0.5201  1.6518
 3349TIP3    H210054   2.790   5.873   3.832  0.2099  1.7083 -0.5731
 3350TIP3   OH210055   4.735   3.100   2.476  0.0109 -0.2966  0.0972
 3350TIP3    H110056   4.712   3.141   2.392  0.0021 -0.0514  0.2191
 3350TIP3    H210057   4.765   3.173   2.531  1.2163 -0.6293 -0.1058
 3351TIP3   OH210058   3.382   0.960   0.086 -0.2716  0.5980  0.0838
 3351TIP3    H110059   3.391   1.006   0.003  0.2135 -1.1061 -0.8440
 3351TIP3    H210060   3.465   0.977   0.131  0.1020  0.2420 -0.4613
 3352TIP3   OH210061   2.394   5.885   0.336 -0.9766  0.5239  0.6788
 3352TIP3    H110062   2.440   5.844   0.409  1.9846 -0.1526 -1.4011
 3352TIP3    H210063   2.304   5.853   0.343 -0.1986 -1.4764  2.5883
 3353TIP3   OH210064   3.312   3.179   4.495  0.0503 -0.5385 -0.7473
 3353TIP3    H110065   3.284   3.113   4.558  0.8344 -0.4762 -0.3138
 3353TIP3    H210066   3.353   3.129   4.424  0.9583 -0.5228 -0.2557
 3354TIP3   OH210067   1.018   1.060   4.101 -0.2997  0.1646  0.3688
 3354TIP3    H110068   0.974   1.067   4.186  1.9631  0.2621  1.6072
 3354TIP3    H210069   1.111   1.069   4.121  0.4246 -1.2022 -1.9671
 3355TIP3   OH210070   0.343   1.617   4.913 -0.5522 -0.1402  0.2786
 3355TIP3    H110071   0.368   1.610   5.005 -1.2093 -1.2352  0.3986
 3355TIP3    H210072   0.418   1.657   4.870 -1.0113  2.3551  1.6142
 3356TIP3   OH210073   4.070   1.262   1.327 -0.1078  0.1663 -0.1289
 3356TIP3    H110074   3.996   1.301   1.281  1.7018  1.2292 -2.2828
 3356TIP3    H210075   4.071   1.307   1.412 -0.9953  1.2198 -0.6506
 3357TIP3   OH210076   0.399   5.894   1.335  0.1310 -0.1485 -0.4921
 3357TIP3    H110077   0.334   5.835   1.296 -0.8454  0.5152  0.0657
 3357TIP3    H210078   0.401   5.870   1.427  1.3378 -0.7298 -0.6556
 3358TIP3   OH210079   5.839   1.401   4.399  0.0373 -0.0610  0.3242
 3358TIP3    H110080   5.860   1.355   4.318 -0.9650 -0.5502  0.3342
 3358TIP3    H210081   5.858   1.338   4.468  0.2993  0.1465  0.4466
 3359TIP3   OH210082   0.254   5.637   3.053  0.5734 -0.3664 -0.3436
 3359TIP3    H110083   0.261   5.689   3.133  0.9962 -0.8460 -0.0606
 3359TIP3    H210084   0.230   5.550   3.084  1.3453 -0.7083 -0.6810
 3360TIP3   OH210085   4.060   4.786   3.460  0.2503  0.0721 -0.1574
 3360TIP3    H110086   4.078   4.771   3.367 -0.5367 -1.6294 -0.0776
 3360TIP3    H210087   4.083   4.704   3.502 -2.1301 -0.2342  0.7264
 3361TIP3   OH210088   4.373   2.266   0.385 -0.4202 -0.2054 -0.3103
 3361TIP3    H110089   4.409   2.352   0.403 -0.1731 -0.2530 -0.5742
 3361TIP3    H210090   4.278   2.279   0.387 -0.4049 -0.1317  0.6181
 3362TIP3   OH210091   1.274   4.455   5.119 -0.4505 -0.1036  0.0701
 3362TIP3    H110092   1.270   4.411   5.204 -1.0497 -1.8588 -0.8348
 3362TIP3    H210093   1.241   4.543   5.136 -1.9549 -0.8772  1.3807
 3363TIP3   OH210094   3.760   3.490   3.997 -0.0275 -0.7772  0.0998
 3363TIP3    H110095   3.689   3.494   3.933 -1.2796  0.2528  1.4923
 3363TIP3    H210096   3.727   3.538   4.073  2.8078  1.3080  0.1867
 3364TIP3   OH210097   0.772   2.068   0.193 -0.1374 -0.5220 -0.0446
 3364TIP3    H110098   0.703   2.065   0.127  1.1636 -0.7911 -1.4543
 3364TIP3    H210099   0.851   2.042   0.146  0.3893 -3.7891  2.2789
 3365TIP3   OH210100   3.258   1.660   3.560  0.0321 -0.0987  0.0971
 3365TIP3    H110101   3.231   1.596   3.626 -3.0863  0.0643 -0.8980
 3365TIP3    H210102   3.267   1.742   3.609 -1.0009 -0.2414  0.5589
 3366TIP3   OH210103   1.533   3.897   0.275  0.0655 -0.0681  0.2818
 3366TIP3    H110104   1.457   3.919   0.222 -1.3408 -1.0464  1.7967
 3366TIP3    H210105   1.549   3.975   0.329  0.6029  0.3938 -0.5266
 3367TIP3   OH210106   1.486   3.816   0.935  0.1650 -0.2036  0.3150
 3367TIP3    H110107   1.400   3.830   0.975  0.3718  0.9088  0.4031
 3367TIP3    H210108   1.478   3.733   0.889 -0.3311 -1.0992  1.9669
 3368TIP3   OH210109   5.993   4.376   3.887  0.1051 -0.7280 -0.3575
 3368TIP3    H110110   5.973   4.360   3.979 -0.0343 -1.5658 -0.5273
 3368TIP3    H210111   5.969   4.468   3.873  1.5729 -0.1228  0.8136
 3369TIP3   OH210112   1.281   4.428   2.042 -0.1903 -0.1228 -0.1914
 3369TIP3    H110113   1.225   4.408   2.117  1.7847 -1.6548  0.9640
 3369TIP3    H210114   1.322   4.345   2.019  0.9614  0.7657 -1.5594
 3370TIP3   OH210115   6.284   1.417   2.131  0.0125 -0.1198  0.4312
 3370TIP3    H110116   6.351   1.383   2.072 -0.4527 -0.5714  0.1523
 3370TIP3    H210117   6.318   1.400   2.218 -0.3411 -1.5966  0.3011
 3371TIP3   OH210118   0.467   5.152   4.855  0.0274  0.9150  0.5048
 3371TIP3    H110119   0.549   5.107   4.836 -0.3354  0.0847  0.8661
 3371TIP3    H210120   0.408   5.083   4.885 -0.8835  1.4617  0.0247
 3372TIP3   OH210121   6.149   5.562   1.713  0.2119  0.0629 -0.2399
 3372TIP3    H110122   6.135   5.502   1.786  1.6042 -2.3366 -1.8379
 3372TIP3    H210123   6.141   5.508   1.635 -0.3449  2.3615 -1.9010
 3373TIP3   OH210124   2.598   5.930   4.195  0.2843  0.2634 -0.0606
 3373TIP3    H110125   2.618   6.018   4.227  0.9718  0.3108 -0.5981
 3373TIP3    H210126   2.599   5.875   4.274  1.8098  0.4073  0.0456
 3374TIP3   OH210127   5.192   4.556   0.423 -0.2780  0.5025  0.5026
 3374TIP3    H110128   5.224   4.492   0.488 -3.0089 -1.1542  0.3662
 3374TIP3    H210129   5.239   4.533   0.343  0.2443 -0.0315  0.9448
 3375TIP3   OH210130   4.139   3.546   2.564  0.0428 -0.3247  0.2918
 3375TIP3    H110131   4.045   3.538   2.548 -0.1326 -0.2699  1.2648
 3375TIP3    H210132   4.146   3.609   2.635  0.8645  0.2198 -0.2507
 3376TIP3   OH210133   3.223   3.706   0.598  0.0333 -0.0905 -0.1983
 3376TIP3    H110134   3.311   3.744   0.605 -0.1607  0.1404  1.6769
 3376TIP3    H210135   3.187   3.744   0.518  1.7949 -0.5800 -1.2758
 3377TIP3   OH210136   4.051   4.106   3.713  0.1081 -0.7960 -0.4497
 3377TIP3    H110137   3.956   4.113   3.721  0.2234 -0.5156  0.8903
 3377TIP3    H210138   4.081   4.082   3.801  1.5006  1.5328 -0.2153
 3378TIP3   OH210139   5.750   1.523   2.143 -0.1154 -0.4540  0.2531
 3378TIP3    H110140   5.660   1.489   2.148 -0.0116 -1.1980 -1.9376
 3378TIP3    H210141   5.795   1.483   2.217 -1.4116 -0.6323  0.9724
 3379TIP3   OH210142   0.158   0.241   2.459 -0.3857  0.1673  0.0262
 3379TIP3    H110143   0.156   0.284   2.374 -0.8192 -0.2561 -0.1811
 3379TIP3    H210144   0.074   0.196   2.465 -0.5278  0.5242  0.8481
 3380TIP3   OH210145   2.886   2.106   0.853 -0.2792 -0.0382  0.2275
 3380TIP3    H110146   2.833   2.154   0.788  1.3771  0.4831 -0.7957
 3380TIP3    H210147   2.951   2.059   0.801  3.4501  3.2052  1.5519
 3381TIP3   OH210148   4.599   5.092   2.752  0.3343 -0.1957 -0.0665
 3381TIP3    H110149   4.564   5.116   2.838  0.5526  0.7376 -0.2212
 3381TIP3    H210150   4.532   5.123   2.690  0.9561  0.6928 -0.3124
 3382TIP3   OH210151   0.997   2.405   4.084  0.6207  0.0768 -0.4506
 3382TIP3    H110152   1.074   2.415   4.140  0.4340  1.1891 -0.3735
 3382TIP3    H210153   0.934   2.468   4.118 -1.3384 -2.5363  1.1155
 3383TIP3   OH210154   4.941   1.625   5.155 -0.1321  0.2102 -0.1579
 3383TIP3    H110155   4.965   1.716   5.135 -2.3390  0.9627  0.2811
 3383TIP3    H210156   4.862   1.610   5.102  0.6515 -1.7524 -0.8411
 3384TIP3   OH210157   5.269   3.816   3.693 -0.4507 -0.0120  0.4814
 3384TIP3    H110158   5.257   3.798   3.786  0.1813 -1.0520  0.3775
 3384TIP3    H210159   5.272   3.911   3.688  2.4618  0.1099  1.9688
 3385TIP3   OH210160   5.636   5.793   0.102 -0.3143 -0.4275 -1.1853
 3385TIP3    H110161   5.720   5.753   0.079  0.3197 -0.3899  0.8188
 3385TIP3    H210162   5.633   5.874   0.051 -0.3416 -1.6206 -3.1933
 3386TIP3   OH210163   2.000   4.386   4.439  0.2372  0.3405 -0.0897
 3386TIP3    H110164   2.087   4.347   4.434  0.4145  0.3644  1.9676
 3386TIP3    H210165   2.016   4.481   4.438  0.2457  0.3449  0.3380
 3387TIP3   OH210166   6.306   4.821   1.539  0.2854  0.3538 -0.0871
 3387TIP3    H110167   6.243   4.835   1.468 -0.4886  1.3855  0.7775
 3387TIP3    H210168   6.362   4.750   1.507 -1.3186 -0.6164 -0.8755
 3388TIP3   OH210169   0.706   0.539   1.772  0.1084  0.5860 -0.4376
 3388TIP3    H110170   0.644   0.606   1.743  1.0358  1.4997 -0.3660
 3388TIP3    H210171   0.791   0.584   1.774  0.6118 -0.3594  0.4452
 3389TIP3   OH210172   4.669   5.228   1.647  0.6694 -0.2519 -0.0770
 3389TIP3    H110173   4.592   5.255   1.597 -1.4628 -2.1464  1.9950
 3389TIP3    H210174   4.724   5.183   1.583 -1.2973 -1.3532 -1.0730
 3390TIP3   OH210175   1.738   0.896   4.851  0.6081  0.1660  0.3071
 3390TIP3    H110176   1.727   0.857   4.764  0.9890 -1.3001  0.8811
 3390TIP3    H210177   1.706   0.986   4.841 -2.5999 -0.9029 -0.5453
 3391TIP3   OH210178   4.090   2.334   4.745 -0.1318  0.6594 -0.3011
 3391TIP3    H110179   4.130   2.312   4.661  0.6702  1.1609 -0.0581
 3391TIP3    H210180   4.051   2.420   4.732  0.5743  1.0401  0.0186
 3392TIP3   OH210181   4.620   5.745   2.671  0.3208 -0.2997 -0.0058
 3392TIP3    H110182   4.588   5.797   2.597 -1.1270 -0.4105  0.5297
 3392TIP3    H210183   4.617   5.655   2.639  1.0421 -0.2389 -0.2777
 3393TIP3   OH210184   0.278   2.083   0.791  0.3123 -0.3165  0.3690
 3393TIP3    H110185   0.257   2.022   0.720  0.3130 -0.5306  0.5538
 3393TIP3    H210186   0.226   2.161   0.772 -1.4655 -1.2112  1.3855
 3394TIP3   OH210187   4.680   0.521   0.992  0.8608 -0.0425 -0.0003
 3394TIP3    H110188   4.662   0.501   1.085 -0.9631 -2.0128 -0.6854
 3394TIP3    H210189   4.623   0.595   0.972 -0.5296 -1.0838 -0.0741
 3395TIP3   OH210190   3.727   0.440   1.151 -0.1891  0.7280  0.3961
 3395TIP3    H110191   3.800   0.390   1.114 -0.2831  0.7067  0.2388
 3395TIP3    H210192   3.713   0.511   1.089  0.0519  1.0498  0.7041
 3396TIP3   OH210193   5.604   3.312   3.276 -0.0763 -0.4544 -0.0796
 3396TIP3    H110194   5.600   3.240   3.340  2.2311 -0.1462  0.4957
 3396TIP3    H210195   5.602   3.391   3.330  2.2595 -0.1960 -0.2769
 3397TIP3   OH210196   3.241  -0.004   4.612 -0.1759  0.0183  0.3663
 3397TIP3    H110197   3.210  -0.015   4.522 -1.2724 -1.6568  0.9003
 3397TIP3    H210198   3.305   0.067   4.607 -1.5063  1.1744 -1.4200
 3398TIP3   OH210199   5.100   0.498   0.894 -0.4202 -0.0360  0.3235
 3398TIP3    H110200   5.100   0.425   0.832  1.3514  0.0718  0.1438
 3398TIP3    H210201   5.107   0.457   0.980 -2.1667 -0.1569  0.4361
 3399TIP3   OH210202   5.776   4.959   2.540  0.1610  0.3155  0.1299
 3399TIP3    H110203   5.702   4.925   2.491  0.0027  1.2914 -0.3275
 3399TIP3    H210204   5.776   5.053   2.521 -0.5400  0.9381  2.7662
 3400TIP3   OH210205   2.932   3.011   5.194 -0.8488  0.1504  0.3933
 3400TIP3    H110206   2.840   3.020   5.169 -1.0091  0.1290  0.9647
 3400TIP3    H210207   2.953   2.920   5.173 -1.3410 -0.2305  1.4771
 3401TIP3   OH210208   0.768   3.835   2.444 -0.0285  0.3695 -0.2312
 3401TIP3    H110209   0.853   3.799   2.417  0.1857  0.3070  0.5006
 3401TIP3    H210210   0.717   3.838   2.364  0.2872 -0.6274 -0.4817
 3402TIP3   OH210211   3.727   5.618   4.328  0.4809  0.0486  0.1785
 3402TIP3    H110212   3.755   5.694   4.277 -0.0792  0.1499  0.0193
 3402TIP3    H210213   3.790   5.613   4.400  1.0266  0.1512 -0.2858
 3403TIP3   OH210214   6.022   4.146   4.754 -0.2355 -0.0017 -0.3648
 3403TIP3    H110215   5.953   4.100   4.707  1.3061 -2.7463 -0.1580
 3403TIP3    H210216   6.066   4.200   4.688 -0.1371 -1.2806 -1.3602
 3404TIP3   OH210217   4.321   5.135   1.705 -0.1483 -0.2448 -0.3461
 3404TIP3    H110218   4.305   5.067   1.771  0.2526 -0.1410 -0.1409
 3404TIP3    H210219   4.374   5.091   1.639 -0.5990 -0.3647 -0.6311
 3405TIP3   OH210220   4.290   4.983   3.613 -0.1250 -0.1662 -0.0090
 3405TIP3    H110221   4.375   4.961   3.652  0.5058 -0.2952 -1.3973
 3405TIP3    H210222   4.278   4.917   3.544 -0.4523  0.9950 -1.0906
 3406TIP3   OH210223   0.247   1.546   2.992 -0.1240 -0.7400 -0.1061
 3406TIP3    H110224   0.193   1.595   2.931 -1.6028 -0.0969  1.6491
 3406TIP3    H210225   0.290   1.480   2.938 -0.6649  0.3686 -1.9635
 3407TIP3   OH210226   6.268   4.637   0.272  0.1851 -0.2428 -0.1054
 3407TIP3    H110227   6.204   4.655   0.202  0.7767  0.4068 -0.4949
 3407TIP3    H210228   6.351   4.667   0.236  0.5300 -0.0863  0.8022
 3408TIP3   OH210229   1.854   3.139   4.367  0.0691 -0.4492 -0.2833
 3408TIP3    H110230   1.916   3.212   4.370 -0.6254  0.3052 -2.3635
 3408TIP3    H210231   1.906   3.062   4.387  1.6352  0.2122 -1.6001
 3409TIP3   OH210232   5.249   0.045   0.345  0.0109 -0.3996 -0.1605
 3409TIP3    H110233   5.186   0.044   0.417 -0.5427  0.6056 -0.6130
 3409TIP3    H210234   5.272   0.138   0.335  0.7798 -0.6389 -0.6760
 3410TIP3   OH210235   3.542   0.695   3.208  0.6227  0.0961 -0.3073
 3410TIP3    H110236   3.564   0.628   3.143  1.6635  1.1109 -1.0351
 3410TIP3    H210237   3.627   0.721   3.245  0.1322  0.2733  0.7284
 3411TIP3   OH210238   1.442   2.359   2.666  0.2113 -0.7698 -0.7329
 3411TIP3    H110239   1.410   2.315   2.587  1.6102  3.3242 -3.9979
 3411TIP3    H210240   1.370   2.417   2.691  0.6301 -0.3204 -0.5555
 3412TIP3   OH210241   0.328   3.469   1.628  0.1220  0.2411 -0.0155
 3412TIP3    H110242   0.406   3.462   1.574  1.3981  0.9255  1.6371
 3412TIP3    H210243   0.275   3.536   1.586  1.5073  1.4090  0.0483
 3413TIP3   OH210244   1.753   5.855   4.663 -0.3467  0.7044  0.6034
 3413TIP3    H110245   1.774   5.821   4.750 -0.0359  1.1123  0.6952
 3413TIP3    H210246   1.724   5.779   4.613 -0.5276  0.4675  1.0645
 3414TIP3   OH210247   4.265   5.341   1.072 -0.0376 -0.1303  0.4027
 3414TIP3    H110248   4.178   5.312   1.103 -0.0973  0.0467  0.3986
 3414TIP3    H210249   4.272   5.431   1.103 -1.3634  1.1489 -2.6535
 3415TIP3   OH210250   5.168   0.681   3.408 -0.3069 -0.3606  0.6094
 3415TIP3    H110251   5.096   0.622   3.432  0.3554 -1.2410  0.5030
 3415TIP3    H210252   5.159   0.755   3.467 -1.7990 -0.0492  0.0392
 3416TIP3   OH210253   3.750   0.952   4.220 -0.4111  0.2705 -0.0407
 3416TIP3    H110254   3.735   0.894   4.294  1.4652  0.2321  0.3741
 3416TIP3    H210255   3.707   1.034   4.244  1.6654  0.8759  2.0107
 3417TIP3   OH210256   2.327   5.861   2.598 -0.5477  0.0381  0.0759
 3417TIP3    H110257   2.297   5.939   2.552  1.0797  1.2871  1.0082
 3417TIP3    H210258   2.248   5.822   2.634 -1.3533  1.5436  0.0170
 3418TIP3   OH210259   3.282   2.107   1.446  0.2126 -0.3086 -0.1657
 3418TIP3    H110260   3.221   2.042   1.411 -1.2075 -0.3766  2.2286
 3418TIP3    H210261   3.269   2.184   1.391 -1.0725 -0.7668 -0.5396
 3419TIP3   OH210262   2.129   2.770   4.950  0.0495  0.4829 -0.2917
 3419TIP3    H110263   2.142   2.825   5.027 -1.6254 -0.3943  0.6922
 3419TIP3    H210264   2.162   2.684   4.977 -1.0424  0.0370 -0.3305
 3420TIP3   OH210265   0.101   4.077   1.374 -0.4403  0.2266 -0.0470
 3420TIP3    H110266   0.094   4.139   1.302  3.0216 -0.6418 -1.3283
 3420TIP3    H210267   0.085   4.129   1.453 -0.0682  2.2062 -1.2115
 3421TIP3   OH210268   5.003   4.696   1.005  0.1669  0.5365  0.2847
 3421TIP3    H110269   4.912   4.706   0.978 -0.2918  0.9852  1.9017
 3421TIP3    H210270   5.051   4.685   0.923 -1.1312  1.8501 -0.7050
 3422TIP3   OH210271   3.423   4.978   4.104 -0.5062  0.0604  0.2323
 3422TIP3    H110272   3.453   4.889   4.118 -0.5828  0.0552  0.3665
 3422TIP3    H210273   3.409   4.984   4.009  1.8100  0.6692 -0.1210
 3423TIP3   OH210274   3.443   1.386   3.005 -0.3936 -0.1898 -0.5008
 3423TIP3    H110275   3.380   1.366   3.074  1.2190 -1.1209  0.8130
 3423TIP3    H210276   3.505   1.313   3.009  1.2752  1.1279 -1.0592
 3424TIP3   OH210277   6.058   3.887   2.699 -0.4501  0.1261  0.3902
 3424TIP3    H110278   6.036   3.830   2.625  0.9772  0.7091 -0.5177
 3424TIP3    H210279   5.987   3.951   2.702 -0.5975  0.0133 -0.3960
 3425TIP3   OH210280   4.746   4.839   0.438  0.4118  0.3606 -0.1660
 3425TIP3    H110281   4.799   4.760   0.444 -3.4497 -2.7298 -2.3315
 3425TIP3    H210282   4.748   4.863   0.346 -0.8096  1.0218 -0.0398
 3426TIP3   OH210283   0.795   2.066   1.682  0.1704  0.1337  0.6038
 3426TIP3    H110284   0.767   1.993   1.627  0.3195  0.6385 -0.1534
 3426TIP3    H210285   0.759   2.143   1.640  0.5010  0.5543  1.0768
 3427TIP3   OH210286   1.480   0.588   3.041 -0.1805 -0.1546  0.4903
 3427TIP3    H110287   1.452   0.662   2.987 -1.0112 -0.0465  1.0522
 3427TIP3    H210288   1.419   0.517   3.019  0.6921 -0.7289 -0.1470
 3428TIP3   OH210289   4.368   0.962   3.265  0.2778 -0.5649 -0.2109
 3428TIP3    H110290   4.388   1.055   3.264  0.3179 -0.5710 -1.1607
 3428TIP3    H210291   4.453   0.919   3.255  0.1943 -0.6900 -0.3784
 3429TIP3   OH210292   0.519   0.425   1.994 -0.0863 -0.3531 -0.0246
 3429TIP3    H110293   0.566   0.506   2.015 -2.5083  0.6573  2.0465
 3429TIP3    H210294   0.566   0.358   2.043  0.9123  0.0927 -0.3460
 3430TIP3   OH210295   2.750   3.740   2.181  0.3806 -0.4310 -0.1277
 3430TIP3    H110296   2.757   3.830   2.149  1.7761 -0.5851 -0.3173
 3430TIP3    H210297   2.680   3.743   2.246  0.1793  0.7224 -0.3788
 3431TIP3   OH210298   3.652   5.620   0.087 -0.3772 -0.3996 -0.1234
 3431TIP3    H110299   3.583   5.580   0.034 -0.5849  0.3943 -0.4736
 3431TIP3    H210300   3.611   5.697   0.126  0.6320  0.8444 -1.3882
 3432TIP3   OH210301   1.433   0.818   3.196 -0.0678 -0.3115  0.5579
 3432TIP3    H110302   1.459   0.729   3.174 -0.2818 -0.6912  1.7818
 3432TIP3    H210303   1.498   0.847   3.260 -0.0800  0.3663  0.2767
 3433TIP3   OH210304   2.014   2.510   1.532  0.1145  0.1896  0.3959
 3433TIP3    H110305   1.992   2.584   1.476  0.9990 -1.1237 -1.8025
 3433TIP3    H210306   1.936   2.455   1.530  0.6933 -0.6387 -0.9506
 3434TIP3   OH210307   1.439   3.869   1.782  0.3622  0.1178 -0.5577
 3434TIP3    H110308   1.534   3.877   1.770  0.1840  1.3298 -1.3185
 3434TIP3    H210309   1.425   3.879   1.876  0.9521  0.3462 -0.4937
 3435TIP3   OH210310   1.415   3.193   3.336  0.7411 -0.1423  0.5712
 3435TIP3    H110311   1.382   3.277   3.304 -0.0502 -0.5028  0.4176
 3435TIP3    H210312   1.346   3.160   3.393  1.0200 -0.7174  0.5874
 3436TIP3   OH210313   0.606   5.742   1.962  0.2101 -0.4586  0.0974
 3436TIP3    H110314   0.582   5.658   2.001  3.3855 -1.2195  0.6435
 3436TIP3    H210315   0.614   5.724   1.868 -0.6855 -0.3278 -0.0136
 3437TIP3   OH210316   1.265   2.289   3.392 -0.1883  0.0181  0.2058
 3437TIP3    H110317   1.196   2.308   3.455 -0.6698 -1.3734  0.1494
 3437TIP3    H210318   1.231   2.216   3.340  0.8239  0.1223 -0.6513
 3438TIP3   OH210319   4.740   1.525   0.899  0.2559 -0.6669 -0.6203
 3438TIP3    H110320   4.806   1.547   0.833  0.7522  1.1391  0.4012
 3438TIP3    H210321   4.787   1.468   0.961  0.8190  0.3475 -0.0726
 3439TIP3   OH210322   4.875   4.243   2.270 -0.2198 -0.1079  0.1573
 3439TIP3    H110323   4.843   4.160   2.235  0.4173 -0.0956 -0.4566
 3439TIP3    H210324   4.853   4.238   2.364 -1.0682 -0.5395 -0.0459
 3440TIP3   OH210325   6.108   0.965   0.837 -0.2547  0.3079  0.1490
 3440TIP3    H110326   6.039   1.005   0.784  0.4939 -0.0940 -1.1764
 3440TIP3    H210327   6.117   1.023   0.912  0.6430  2.6170 -1.5992
 3441TIP3   OH210328   0.054   5.774   2.059 -0.6065  0.7411  0.1623
 3441TIP3    H110329   0.011   5.859   2.050 -1.9929  0.2073  1.3571
 3441TIP3    H210330   0.032   5.727   1.978  0.1415  1.4687 -0.4900
 3442TIP3   OH210331   2.158   2.458   0.215 -0.2568  0.7075 -0.6980
 3442TIP3    H110332   2.071   2.464   0.254  0.1387 -0.4207  0.4244
 3442TIP3    H210333   2.209   2.526   0.260 -0.2465  0.5525 -0.4732
 3443TIP3   OH210334   0.218   0.000   2.665 -0.4196 -0.2251  0.1125
 3443TIP3    H110335   0.293   0.000   2.606  1.1554  1.6409  1.9476
 3443TIP3    H210336   0.177   0.085   2.652 -1.9942 -1.0439 -0.5292
 3444TIP3   OH210337   6.002   2.912   3.564 -0.4202  0.4057 -0.7151
 3444TIP3    H110338   5.938   2.982   3.570  0.6991  1.3912  0.1980
 3444TIP3    H210339   6.078   2.952   3.520  1.2948  0.6488  2.2129
 3445TIP3   OH210340   2.054   5.962   4.204  0.3059 -0.1713 -0.2504
 3445TIP3    H110341   2.018   6.041   4.164  0.3033 -0.8832 -1.7697
 3445TIP3    H210342   2.112   5.926   4.136  1.0962 -0.9220  0.7986
 3446TIP3   OH210343   1.597   4.000   2.294  0.7686  0.0684 -0.3336
 3446TIP3    H110344   1.691   4.013   2.292  0.7323  1.3475  2.1518
 3446TIP3    H210345   1.577   3.981   2.386 -1.7665  3.6016  0.0556
 3447TIP3   OH210346   1.945   2.809   0.728 -0.1454  0.2988  0.2690
 3447TIP3    H110347   1.876   2.875   0.725 -0.8352 -0.4367 -0.4937
 3447TIP3    H210348   2.026   2.858   0.712 -0.7972  0.7491 -1.9348
 3448TIP3   OH210349   4.521   3.334   5.068 -0.5942 -0.5622  0.4351
 3448TIP3    H110350   4.538   3.382   4.987 -0.1080 -1.0699  0.2242
 3448TIP3    H210351   4.599   3.348   5.122 -0.7584 -0.5273  0.6662
 3449TIP3   OH210352   2.217   4.177   4.556  0.1436 -0.1389 -0.5652
 3449TIP3    H110353   2.301   4.159   4.598 -0.3513 -0.8003  0.1708
 3449TIP3    H210354   2.163   4.101   4.578 -0.7855  0.4849 -0.6517
 3450TIP3   OH210355   5.605   3.658   4.242  0.4489 -0.2604  0.1120
 3450TIP3    H110356   5.683   3.683   4.291 -0.7293  0.8662  1.4917
 3450TIP3    H210357   5.559   3.741   4.227 -1.0314 -1.0194  0.2965
 3451TIP3   OH210358   0.614   2.613   5.052  0.6244  0.1712  0.1231
 3451TIP3    H110359   0.535   2.580   5.010  1.3491 -2.0156  0.3489
 3451TIP3    H210360   0.676   2.625   4.981  0.2632  1.3927  0.0052
 3452TIP3   OH210361   3.724   3.189   4.610 -0.7523 -0.1489 -0.0155
 3452TIP3    H110362   3.638   3.157   4.584 -2.4272  3.6487  0.0935
 3452TIP3    H210363   3.720   3.194   4.705 -0.3289 -0.2282  0.0072
 3453TIP3   OH210364   1.202   5.650   3.850 -0.7208 -0.1146 -0.2591
 3453TIP3    H110365   1.217   5.615   3.763 -0.4696  1.8054 -1.0405
 3453TIP3    H210366   1.274   5.711   3.864 -1.5693  0.7051  0.6673
 3454TIP3   OH210367   0.116   4.880   0.827 -0.1698  0.4326 -0.3624
 3454TIP3    H110368   0.027   4.882   0.862  0.3869 -0.4265  1.1845
 3454TIP3    H210369   0.172   4.893   0.903  1.0510  0.8356 -1.2916
 3455TIP3   OH210370   4.550   5.596   3.793  0.9938 -0.4356 -0.2866
 3455TIP3    H110371   4.636   5.632   3.817  1.4502 -1.9577  0.5099
 3455TIP3    H210372   4.568   5.504   3.773 -0.5531 -0.9646  0.5955
 3456TIP3   OH210373   4.971   4.844   4.066 -0.1214  0.3862 -0.1934
 3456TIP3    H110374   4.898   4.782   4.065 -0.1603  0.3903  0.8203
 3456TIP3    H210375   5.044   4.795   4.103  0.3993  0.3820 -1.2171
 3457TIP3   OH210376   3.520   5.614   0.743  0.0672 -0.1068 -0.3128
 3457TIP3    H110377   3.533   5.694   0.693  0.8591  0.9471  1.4808
 3457TIP3    H210378   3.481   5.643   0.826  1.5856 -1.3752  0.9190
 3458TIP3   OH210379   2.056   3.615   0.573  0.2416  0.1056  0.0752
 3458TIP3    H110380   2.102   3.653   0.648  0.2378  2.0360 -0.8412
 3458TIP3    H210381   1.995   3.551   0.612  0.8356  0.4406  1.6245
 3459TIP3   OH210382   3.771   2.615   3.759 -0.2849  1.0695  0.4679
 3459TIP3    H110383   3.728   2.532   3.778 -0.4343  0.8271 -0.8209
 3459TIP3    H210384   3.717   2.656   3.691  1.7009  0.5116 -1.5923
 3460TIP3   OH210385   4.954   3.899   1.135  0.3544 -0.1173  0.0088
 3460TIP3    H110386   4.864   3.887   1.106  0.5318 -1.4546 -0.0792
 3460TIP3    H210387   5.007   3.875   1.059  0.7825  0.2342  0.1947
 3461TIP3   OH210388   3.427   1.634   4.103 -0.4487  0.1512  0.4485
 3461TIP3    H110389   3.418   1.568   4.172 -1.7235 -0.6485 -0.4409
 3461TIP3    H210390   3.480   1.703   4.143 -0.1900 -0.7998  1.8429
 3462TIP3   OH210391   3.939   1.298   1.655 -0.1196 -0.0998 -0.5093
 3462TIP3    H110392   4.007   1.354   1.619 -0.3467 -1.1318 -2.7252
 3462TIP3    H210393   3.861   1.316   1.602 -1.0110 -0.4163  0.6317
 3463TIP3   OH210394   1.610   4.051   5.081 -0.3786 -0.2456 -0.2938
 3463TIP3    H110395   1.630   3.960   5.101  1.9147  0.1597 -0.3998
 3463TIP3    H210396   1.591   4.091   5.165  2.2974 -0.0689  0.3025
 3464TIP3   OH210397   2.791   5.805   3.036 -0.1900 -0.1630  0.8264
 3464TIP3    H110398   2.871   5.856   3.038  0.1985 -0.6434 -0.8067
 3464TIP3    H210399   2.747   5.832   2.956 -1.4193 -0.2935  1.4303
 3465TIP3   OH210400   3.760   1.931   2.853  0.3134 -0.1673  0.2884
 3465TIP3    H110401   3.713   1.998   2.804  0.1170  0.2908  1.0791
 3465TIP3    H210402   3.804   1.878   2.787 -1.6172 -0.8576 -0.5159
 3466TIP3   OH210403   4.232   0.324   2.388  0.0492 -0.0463 -0.7671
 3466TIP3    H110404   4.141   0.328   2.359  0.0704 -1.2365 -1.0455
 3466TIP3    H210405   4.238   0.243   2.438  0.5472  0.9011  0.7778
 3467TIP3   OH210406   0.970   4.590   2.989  0.2402 -0.0578  0.6839
 3467TIP3    H110407   0.930   4.607   2.904 -0.4066 -1.5258  0.6566
 3467TIP3    H210408   1.062   4.615   2.977 -0.0873  0.8410 -0.0740
 3468TIP3   OH210409   1.475   5.794   3.608 -0.3414 -0.0969  0.0259
 3468TIP3    H110410   1.504   5.882   3.631 -0.0817 -0.1750  0.0004
 3468TIP3    H210411   1.459   5.798   3.514 -0.2591 -0.0954  0.0116
 3469TIP3   OH210412   3.674   0.069   4.675  0.4534 -0.1703  0.1051
 3469TIP3    H110413   3.617   0.040   4.746 -1.6709 -1.9856 -2.1437
 3469TIP3    H210414   3.727  -0.008   4.652  0.4736  0.0956 -0.8051
 3470TIP3   OH210415   3.991   3.141   3.940 -0.0394 -0.3240  0.2307
 3470TIP3    H110416   4.072   3.090   3.948 -0.3053 -0.7904 -0.0221
 3470TIP3    H210417   3.922   3.077   3.955 -0.3827 -0.0669 -0.2645
 3471TIP3   OH210418   1.073   2.251   0.481  0.2257  0.0601 -0.0581
 3471TIP3    H110419   0.981   2.257   0.506  0.6816  2.1454  1.3729
 3471TIP3    H210420   1.120   2.249   0.565  1.5304  0.5251 -0.7558
 3472TIP3   OH210421   4.683   1.501   1.473  0.0679  0.0087 -0.8813
 3472TIP3    H110422   4.716   1.413   1.489  0.1255  0.2101  0.2423
 3472TIP3    H210423   4.719   1.525   1.388  1.5189 -0.4003 -0.4303
 3473TIP3   OH210424   3.885   4.838   1.917 -0.2303 -0.0586 -0.2620
 3473TIP3    H110425   3.809   4.834   1.858 -0.9400 -1.3220  0.6909
 3473TIP3    H210426   3.961   4.831   1.858 -0.8991 -0.4072 -1.1096
 3474TIP3   OH210427   2.206   3.379   3.213  0.3182  0.5880  0.3200
 3474TIP3    H110428   2.144   3.307   3.203 -0.3249  1.2997 -1.0229
 3474TIP3    H210429   2.236   3.397   3.124  0.7028  1.7820  0.6747
 3475TIP3   OH210430   5.722   0.539   1.767  0.0562  0.8940  0.7433
 3475TIP3    H110431   5.631   0.520   1.790  0.4246 -0.0046  1.5222
 3475TIP3    H210432   5.769   0.459   1.789  0.8224  0.8105 -1.0700
 3476TIP3   OH210433   2.762   2.410   2.436  0.1974 -0.7463  0.4633
 3476TIP3    H110434   2.693   2.475   2.450  0.0697 -0.7239 -0.2141
 3476TIP3    H210435   2.826   2.428   2.505 -0.4048 -0.6782  1.0164
 3477TIP3   OH210436   0.859   3.938   4.946  0.2545  0.6232  0.0526
 3477TIP3    H110437   0.888   4.002   4.882  1.4165  1.0051  0.9356
 3477TIP3    H210438   0.808   3.988   5.010  0.2174  0.4665  0.1486
 3478TIP3   OH210439   0.819   3.223   2.185 -0.6360 -0.0101 -0.0481
 3478TIP3    H110440   0.778   3.303   2.154  0.9335  0.8898  0.0679
 3478TIP3    H210441   0.787   3.212   2.275 -3.1771 -1.2094 -0.9947
 3479TIP3   OH210442   3.874   3.326   2.348 -0.3537 -0.0501  0.0052
 3479TIP3    H110443   3.854   3.247   2.399 -0.4929  0.7893  1.2960
 3479TIP3    H210444   3.790   3.353   2.312 -0.2794 -0.5746 -0.5672
 3480TIP3   OH210445   0.205   2.706   1.250  0.7109 -0.6509  0.3836
 3480TIP3    H110446   0.219   2.650   1.173 -0.8470 -0.1643 -0.2872
 3480TIP3    H210447   0.289   2.750   1.262  1.2198 -1.2997 -0.5765
 3481TIP3   OH210448   3.144   5.022   1.827 -0.8698 -0.0463  0.1243
 3481TIP3    H110449   3.181   5.006   1.914  0.4696  0.7316 -0.2745
 3481TIP3    H210450   3.090   4.945   1.810 -1.2327 -0.1679  1.6783
 3482TIP3   OH210451   5.732   1.157   2.831  0.2135 -0.1209  0.0465
 3482TIP3    H110452   5.753   1.249   2.817  0.0598 -0.2287 -0.9273
 3482TIP3    H210453   5.636   1.153   2.823  0.1441 -0.2450  0.8437
 3483TIP3   OH210454   5.681   0.628   1.472 -0.4267 -0.5031  0.0234
 3483TIP3    H110455   5.706   0.587   1.555 -0.1762 -1.8840 -0.7028
 3483TIP3    H210456   5.757   0.615   1.415 -0.1983  1.3227 -0.1413
 3484TIP3   OH210457   2.697   0.907   2.444  0.3803 -0.0702 -0.4808
 3484TIP3    H110458   2.719   0.896   2.536  0.9176 -0.1482 -0.6136
 3484TIP3    H210459   2.780   0.931   2.402 -0.0651  0.9795 -0.7764
 3485TIP3   OH210460   0.565   5.375   5.126  0.0542  0.4447 -0.8071
 3485TIP3    H110461   0.472   5.396   5.113 -0.4285 -0.4530  0.8876
 3485TIP3    H210462   0.581   5.298   5.071  0.0737  1.1468 -1.8225
 3486TIP3   OH210463   4.782   2.318   0.521  0.1664  0.1654 -0.2227
 3486TIP3    H110464   4.745   2.303   0.434 -2.2685  0.4767  0.6896
 3486TIP3    H210465   4.781   2.232   0.563 -0.4198  0.3250  0.1091
 3487TIP3   OH210466   2.717   0.870   2.724 -0.3139 -0.6454 -0.9065
 3487TIP3    H110467   2.641   0.914   2.764  0.5222  1.1762 -1.1982
 3487TIP3    H210468   2.756   0.821   2.796  0.1050  1.1055  0.1331
 3488TIP3   OH210469   2.664   1.497   0.936 -0.1381  0.1015  0.0576
 3488TIP3    H110470   2.726   1.533   1.000  0.2346 -0.0018 -0.2420
 3488TIP3    H210471   2.581   1.540   0.956  0.1215  0.5405  0.2082
 3489TIP3   OH210472   1.578   4.093   3.843  0.0476  1.0454  0.1875
 3489TIP3    H110473   1.523   4.146   3.785 -2.7985 -1.6020  0.2305
 3489TIP3    H210474   1.534   4.097   3.928  1.1193  0.4982  0.7890
 3490TIP3   OH210475   1.664   4.421   0.169  0.1227  0.3003 -0.0537
 3490TIP3    H110476   1.752   4.436   0.136 -0.3493  0.3131 -1.3609
 3490TIP3    H210477   1.666   4.332   0.204  0.9944  0.7696  1.1403
 3491TIP3   OH210478   0.781   3.865   4.455  0.0481 -0.4142 -0.0762
 3491TIP3    H110479   0.754   3.954   4.433 -1.0479 -0.3172  1.4707
 3491TIP3    H210480   0.705   3.811   4.436  0.9009 -1.1596 -1.5774
 3492TIP3   OH210481   5.546   3.155   0.751 -0.1048  0.2211 -0.0433
 3492TIP3    H110482   5.607   3.172   0.679 -0.3725 -1.1901 -0.6353
 3492TIP3    H210483   5.543   3.237   0.800 -0.5260  1.5022 -2.0940
 3493TIP3   OH210484   6.265   0.525   0.268  0.4261 -0.5939  0.1684
 3493TIP3    H110485   6.263   0.566   0.355 -0.3601 -0.7571  0.2385
 3493TIP3    H210486   6.172   0.519   0.243  0.7054  1.2165 -1.5212
 3494TIP3   OH210487   5.024   2.948   2.935  0.2527 -0.1043  0.2693
 3494TIP3    H110488   5.107   2.989   2.960  1.1407 -1.6420 -0.0102
 3494TIP3    H210489   4.962   2.975   3.002  1.5833 -0.8492  1.8569
 3495TIP3   OH210490   1.674   4.940   2.468  0.0282  0.1169 -0.1986
 3495TIP3    H110491   1.665   4.881   2.394  1.0442 -0.8428  0.4118
 3495TIP3    H210492   1.729   4.893   2.530  2.2522  2.2926 -0.3395
 3496TIP3   OH210493   0.254   4.995   3.807 -0.6809 -0.3309  0.5571
 3496TIP3    H110494   0.224   4.982   3.717  0.0636  1.8925 -0.0733
 3496TIP3    H210495   0.347   5.016   3.799 -0.0518 -2.2151  2.0633
 3497TIP3   OH210496   1.798   1.658   2.723  0.6057 -0.8866  0.0886
 3497TIP3    H110497   1.860   1.602   2.676  0.5799  1.4474 -3.0741
 3497TIP3    H210498   1.721   1.603   2.737  0.8547 -1.9206 -2.1895
 3498TIP3   OH210499   6.271   0.823   3.500 -0.7391 -0.4427  0.7785
 3498TIP3    H110500   6.364   0.801   3.503 -0.4837  0.5743  0.5505
 3498TIP3    H210501   6.230   0.760   3.559 -0.0307 -1.4617  0.2126
 3499TIP3   OH210502   4.983   3.992   4.577  0.2122  0.1665 -0.4532
 3499TIP3    H110503   5.022   4.007   4.663  1.4232 -0.2846 -0.9056
 3499TIP3    H210504   4.897   3.954   4.596  0.0677  0.9453  0.5609
 3500TIP3   OH210505   0.402   0.445   0.214 -0.1093  0.1791  0.2094
 3500TIP3    H110506   0.346   0.424   0.139 -0.3857 -0.3569  0.5617
 3500TIP3    H210507   0.424   0.537   0.202  0.0436  0.0387 -0.6589
 3501TIP3   OH210508   2.820   0.785   4.682 -0.0600  0.5552  0.4003
 3501TIP3    H110509   2.834   0.787   4.777 -2.2564 -0.0940  0.7920
 3501TIP3    H210510   2.850   0.870   4.651 -1.1474  1.5669  1.9900
 3502TIP3   OH210511   3.337   0.609   1.470 -0.3643 -0.4028  0.2333
 3502TIP3    H110512   3.262   0.566   1.430 -1.1178  0.3702  0.7733
 3502TIP3    H210513   3.400   0.539   1.485  0.0455 -0.6983 -2.4272
 3503TIP3   OH210514   3.180   2.181   2.561  0.5705  0.0435 -0.0262
 3503TIP3    H110515   3.227   2.118   2.507  0.7523 -1.1455  1.4414
 3503TIP3    H210516   3.244   2.250   2.579  0.3624  0.7027 -1.6577
 3504TIP3   OH210517   3.458   2.261   0.746  0.0990  0.6429  0.0979
 3504TIP3    H110518   3.459   2.283   0.839  0.6879  0.0869  0.2337
 3504TIP3    H210519   3.545   2.224   0.729 -0.2965 -0.0566 -0.4773
 3505TIP3   OH210520   0.482   0.982   3.408 -0.0058  0.2514 -0.1304
 3505TIP3    H110521   0.491   0.918   3.479 -2.1664  0.1707  0.1388
 3505TIP3    H210522   0.476   0.928   3.329 -0.7342  0.1543 -0.0177
 3506TIP3   OH210523   4.044   2.671   1.634  0.5361 -0.1520 -0.3244
 3506TIP3    H110524   4.039   2.578   1.655 -0.8921  0.3239  1.8483
 3506TIP3    H210525   4.122   2.680   1.580  0.6130 -2.6221 -0.7268
 3507TIP3   OH210526   3.946   5.919   4.768 -0.3384 -0.0361 -0.3512
 3507TIP3    H110527   3.884   5.964   4.825  0.9701 -0.9551  1.9244
 3507TIP3    H210528   3.954   5.976   4.691 -3.2104  0.5794 -0.3271
 3508TIP3   OH210529   1.943   2.521   3.868  0.4569  0.3842  0.0343
 3508TIP3    H110530   1.868   2.575   3.842  0.5835  1.5380  1.8454
 3508TIP3    H210531   1.922   2.494   3.957  2.2458  0.8922  0.6516
 3509TIP3   OH210532   3.225   0.473   1.085  0.0087  0.2292  0.5059
 3509TIP3    H110533   3.174   0.404   1.042  1.1572  0.1863 -0.8445
 3509TIP3    H210534   3.297   0.426   1.127  1.1967  0.6222 -1.0116
 3510TIP3   OH210535   4.011   5.535   2.862  0.1010 -0.1882 -0.3810
 3510TIP3    H110536   4.010   5.547   2.957 -0.0179 -1.7492 -0.1637
 3510TIP3    H210537   4.040   5.620   2.828  3.3982 -0.5247  1.2090
 3511TIP3   OH210538   1.784   5.244   4.063  0.2637 -0.0963  0.1427
 3511TIP3    H110539   1.774   5.338   4.073 -2.2347 -0.3208  0.5736
 3511TIP3    H210540   1.705   5.216   4.016  1.9668 -1.7443 -1.9489
 3512TIP3   OH210541   3.157   1.248   3.199  0.0752  0.7508  0.4630
 3512TIP3    H110542   3.207   1.167   3.186  0.0427  0.9142 -0.8829
 3512TIP3    H210543   3.205   1.295   3.267  0.8284  0.1751  0.3472
 3513TIP3   OH210544   2.804   1.255   2.705  0.9842  0.6022 -0.0594
 3513TIP3    H110545   2.873   1.203   2.663  0.3191  0.1599 -0.6250
 3513TIP3    H210546   2.777   1.202   2.781  2.1730  1.3928  0.9540
 3514TIP3   OH210547   2.215   1.166   0.487  0.2681  0.1756  0.2254
 3514TIP3    H110548   2.257   1.236   0.437  0.2779  1.3777  1.8468
 3514TIP3    H210549   2.130   1.154   0.446  0.3477  1.0162 -0.1981
 3515TIP3   OH210550   4.016   2.218   0.137 -0.4489 -0.1788 -0.1265
 3515TIP3    H110551   4.001   2.135   0.091  2.0380 -0.2158 -1.0096
 3515TIP3    H210552   3.976   2.284   0.080 -0.8138 -0.5844 -0.3555
 3516TIP3   OH210553   0.283   5.234   4.435  0.3739 -0.1326 -0.0789
 3516TIP3    H110554   0.313   5.167   4.373 -0.0157 -0.0798 -0.3298
 3516TIP3    H210555   0.200   5.199   4.469  0.2951  0.1051 -0.0243
 3517TIP3   OH210556   4.007   0.008   3.224  0.0117 -0.2023 -0.3751
 3517TIP3    H110557   3.950   0.085   3.231  0.7527  0.3106  0.1939
 3517TIP3    H210558   3.990  -0.027   3.137  0.4093  1.2173 -1.0405
 3518TIP3   OH210559   4.099   4.275   3.475 -0.0182 -0.1522 -0.1158
 3518TIP3    H110560   4.041   4.350   3.489  0.4661  0.2752 -0.3247
 3518TIP3    H210561   4.086   4.219   3.551 -0.5211  0.0623 -0.0438
 3519TIP3   OH210562   1.105   4.109   4.579 -0.2104 -0.2606  0.6745
 3519TIP3    H110563   1.134   4.036   4.524  0.0531 -0.8414  1.5640
 3519TIP3    H210564   1.175   4.173   4.572 -1.7370  1.3474 -2.5564
 3520TIP3   OH210565   2.438   5.541   1.388  0.3778 -0.0291  0.2781
 3520TIP3    H110566   2.426   5.611   1.453  0.8925  0.4290 -0.1116
 3520TIP3    H210567   2.524   5.558   1.350  0.1393 -0.3673 -0.4304
 3521TIP3   OH210568   0.786   2.219   4.116  0.6000 -0.0940  0.3111
 3521TIP3    H110569   0.807   2.299   4.067 -0.3363 -0.5442 -0.8796
 3521TIP3    H210570   0.858   2.159   4.095  1.3835  0.4435  1.3238
 3522TIP3   OH210571   3.817   3.016   2.337 -0.0157  0.2248  0.0258
 3522TIP3    H110572   3.818   3.031   2.431 -0.4997  0.0760  0.0546
 3522TIP3    H210573   3.752   2.947   2.324 -0.2901  0.5644 -0.4609
 3523TIP3   OH210574   2.592   3.552   5.010  0.1517  0.3207  0.3309
 3523TIP3    H110575   2.523   3.525   5.071  0.1593 -0.1885  0.1119
 3523TIP3    H210576   2.611   3.643   5.035  0.2670  0.0712  1.1989
 3524TIP3   OH210577   0.946   5.568   3.614  0.0562  0.1122  0.2329
 3524TIP3    H110578   0.895   5.646   3.634 -0.6438 -0.4566  0.7523
 3524TIP3    H210579   1.005   5.594   3.543 -0.6246  0.9212 -0.0435
 3525TIP3   OH210580   0.818   0.183   4.198 -0.5056 -0.1739  0.3312
 3525TIP3    H110581   0.909   0.184   4.225 -0.1141 -0.4395 -0.9237
 3525TIP3    H210582   0.771   0.142   4.271 -0.0180  2.1919  2.0859
 3526TIP3   OH210583   4.946   1.765   1.809  0.1297 -0.3345  0.3564
 3526TIP3    H110584   4.898   1.829   1.862  1.0079 -0.8075  1.7665
 3526TIP3    H210585   4.901   1.682   1.826 -0.6823 -0.2328 -1.0648
 3527TIP3   OH210586   3.778   2.681   4.024  0.6423 -0.1296 -0.3990
 3527TIP3    H110587   3.771   2.635   3.941 -0.6847 -0.9635  0.1416
 3527TIP3    H210588   3.842   2.629   4.074 -1.5028 -2.0809  0.5506
 3528TIP3   OH210589   1.724   5.369   1.168  0.2480 -0.7978  0.6010
 3528TIP3    H110590   1.645   5.361   1.222 -0.4452 -0.3644 -0.3244
 3528TIP3    H210591   1.795   5.384   1.231 -0.4039 -1.1827  1.4452
 3529TIP3   OH210592   5.764   3.842   4.860  0.1129 -0.7809  0.3830
 3529TIP3    H110593   5.801   3.797   4.937 -1.6559 -1.2337  1.0125
 3529TIP3    H210594   5.712   3.775   4.816 -0.1317 -0.1125 -0.3664
 3530TIP3   OH210595   1.610   0.925   3.467  0.0002  0.6945  0.4581
 3530TIP3    H110596   1.535   0.871   3.492  0.0789  0.7415  0.8046
 3530TIP3    H210597   1.672   0.915   3.540 -0.1096  1.4846  0.6656
 3531TIP3   OH210598   2.951   0.193   0.425 -0.1372 -0.3715  0.0546
 3531TIP3    H110599   2.906   0.175   0.507  0.4186  2.5891  1.1128
 3531TIP3    H210600   3.042   0.168   0.442  0.2945  1.6270  0.9490
 3532TIP3   OH210601   3.719   4.706   2.790  0.2285 -0.2391  0.2373
 3532TIP3    H110602   3.719   4.789   2.838  0.4566 -0.3843  0.4897
 3532TIP3    H210603   3.626   4.685   2.780  0.1452 -1.1073  2.2081
 3533TIP3   OH210604   0.178   1.484   2.033 -0.3721  0.0040  0.0582
 3533TIP3    H110605   0.244   1.486   2.103 -1.1375 -2.8885  1.0129
 3533TIP3    H210606   0.226   1.455   1.955 -0.0893  0.1396  0.1814
 3534TIP3   OH210607   1.994   2.574   2.696  0.3472 -0.7230  0.0151
 3534TIP3    H110608   1.994   2.522   2.777 -0.8559  0.1612  0.6265
 3534TIP3    H210609   2.070   2.631   2.705 -0.7066  0.5565  1.3817
 3535TIP3   OH210610   4.165   0.180   2.753 -0.1922  0.0863  0.1775
 3535TIP3    H110611   4.149   0.263   2.799 -2.0889  0.4627 -1.0874
 3535TIP3    H210612   4.081   0.156   2.717  0.5405 -1.9538 -0.2695
 3536TIP3   OH210613   2.609   0.501   4.991 -0.3114 -0.8485  0.6860
 3536TIP3    H110614   2.546   0.526   4.923 -3.1622 -2.5927  2.5041
 3536TIP3    H210615   2.635   0.583   5.032 -1.1057 -0.0539 -0.3577
 3537TIP3   OH210616   0.697   2.168   0.819  0.3069 -0.0830 -0.2849
 3537TIP3    H110617   0.667   2.144   0.731 -2.8438  0.5975  0.4854
 3537TIP3    H210618   0.680   2.090   0.872  0.3469  0.1836  0.1221
 3538TIP3   OH210619   1.329   5.384   3.831 -0.8409 -0.2457  0.3581
 3538TIP3    H110620   1.394   5.318   3.855  1.4737  1.3165 -1.0643
 3538TIP3    H210621   1.352   5.460   3.885 -0.6538  0.7128 -1.0087
 3539TIP3   OH210622   3.196   5.161   4.487 -0.6784  0.1715  0.5755
 3539TIP3    H110623   3.195   5.085   4.429 -1.9290 -0.7989  1.7824
 3539TIP3    H210624   3.138   5.224   4.445  1.5050  1.1364 -1.1839
 3540TIP3   OH210625   3.801   2.017   0.873 -0.7629 -0.2552 -0.6424
 3540TIP3    H110626   3.763   2.088   0.821 -0.5652  0.3869  0.0757
 3540TIP3    H210627   3.802   2.050   0.962 -1.5980 -1.5437 -0.1074
 3541TIP3   OH210628   2.670   3.419   2.227  0.0227  0.0271 -0.3217
 3541TIP3    H110629   2.730   3.453   2.160  0.7151 -1.0715 -0.2839
 3541TIP3    H210630   2.607   3.365   2.178  0.6093 -0.8872 -0.0961
 3542TIP3   OH210631   6.211   5.197   4.134 -0.3524 -0.4042  0.1151
 3542TIP3    H110632   6.239   5.129   4.195  0.2022 -0.9199 -0.6968
 3542TIP3    H210633   6.273   5.190   4.061  0.5363  1.8437  0.5890
 3543TIP3   OH210634   2.221   3.298   2.693 -0.2861  0.0571  0.3057
 3543TIP3    H110635   2.210   3.203   2.687 -0.9079  0.0098  1.7977
 3543TIP3    H210636   2.170   3.333   2.620  0.0511 -0.7427 -0.3337
 3544TIP3   OH210637   5.258   5.732   3.543 -0.3897 -0.0414 -0.4422
 3544TIP3    H110638   5.225   5.662   3.600 -0.3340 -0.7732 -1.2930
 3544TIP3    H210639   5.180   5.771   3.504 -0.3464 -1.0145 -1.5643
 3545TIP3   OH210640   4.824   0.652   2.381 -0.2268 -0.5581 -0.3790
 3545TIP3    H110641   4.785   0.719   2.325 -1.8116 -1.2415 -0.1467
 3545TIP3    H210642   4.775   0.658   2.463  1.7557  0.1263  0.8298
 3546TIP3   OH210643   5.553   1.749   4.425 -0.2334  0.3621 -0.1339
 3546TIP3    H110644   5.643   1.761   4.456  0.0999 -0.8848 -0.5738
 3546TIP3    H210645   5.551   1.659   4.392 -1.1545  0.9225 -1.7206
 3547TIP3   OH210646   1.181   3.628   4.209 -0.2270  0.2550  0.0002
 3547TIP3    H110647   1.144   3.647   4.123  0.0504 -0.1316 -0.2087
 3547TIP3    H210648   1.114   3.657   4.271  0.2032  1.9394 -0.2915
 3548TIP3   OH210649   0.370   4.926   3.068  0.0692  0.4207 -0.0532
 3548TIP3    H110650   0.326   5.011   3.059 -0.4986  0.1616  0.1882
 3548TIP3    H210651   0.359   4.903   3.161  0.9056  0.4459  0.0577
 3549TIP3   OH210652   1.906   5.094   4.250  0.0030  0.0849 -0.2312
 3549TIP3    H110653   1.899   5.145   4.331  2.3905  0.2259 -0.0607
 3549TIP3    H210654   1.874   5.154   4.182 -1.9242  0.0028  0.5239
 3550TIP3   OH210655   6.214   0.891   2.595  0.8102 -0.1808  0.1287
 3550TIP3    H110656   6.251   0.805   2.614  0.4403 -0.4667 -0.4197
 3550TIP3    H210657   6.126   0.873   2.563  0.3268  0.4696  1.0310
 3551TIP3   OH210658   3.347   5.416   3.543 -0.2846 -0.1532  0.6498
 3551TIP3    H110659   3.273   5.470   3.571  0.5252  1.3087  0.0760
 3551TIP3    H210660   3.340   5.415   3.447 -0.0538 -0.7365  0.6361
 3552TIP3   OH210661   5.844   1.342   0.931 -0.7598 -0.0235  0.1321
 3552TIP3    H110662   5.905   1.274   0.961  0.6970  0.7520 -0.9238
 3552TIP3    H210663   5.854   1.413   0.994  0.2218  0.4992 -0.5798
 3553TIP3   OH210664   4.586   4.230   3.487  0.4955  0.1418  0.2600
 3553TIP3    H110665   4.611   4.294   3.554  1.8308  2.5303 -2.3206
 3553TIP3    H210666   4.492   4.244   3.475  0.1835 -0.5015  1.7553
 3554TIP3   OH210667   3.194   3.669   1.514 -0.5341  0.2940 -0.1124
 3554TIP3    H110668   3.170   3.610   1.443 -1.7239  1.4150 -0.6727
 3554TIP3    H210669   3.133   3.742   1.507 -0.4746  0.6039  1.8603
 3555TIP3   OH210670   0.923   2.923   0.192 -0.2352 -0.4015  0.1890
 3555TIP3    H110671   0.985   2.945   0.123 -0.9048 -0.4549 -0.4375
 3555TIP3    H210672   0.950   2.977   0.266 -0.9390  1.4856 -0.8518
 3556TIP3   OH210673   4.188   1.362   1.986  0.1231 -0.2785  0.0840
 3556TIP3    H110674   4.248   1.288   1.989  0.6393  0.0951 -0.7555
 3556TIP3    H210675   4.228   1.424   1.925 -1.5343 -0.4090 -1.2279
 3557TIP3   OH210676   5.134   3.610   2.417  0.0430  0.2228  0.1994
 3557TIP3    H110677   5.196   3.547   2.453 -0.9255 -0.9744 -0.1620
 3557TIP3    H210678   5.166   3.628   2.329 -0.4539 -0.8669 -0.2101
 3558TIP3   OH210679   4.734   1.335   3.051 -0.7371 -0.2413 -0.1948
 3558TIP3    H110680   4.796   1.369   2.987  0.2161  0.4014  1.0092
 3558TIP3    H210681   4.777   1.349   3.136 -0.7686 -3.4044  0.4968
 3559TIP3   OH210682   2.702   5.300   1.913  0.5276  0.0393  0.4710
 3559TIP3    H110683   2.721   5.367   1.979  1.0772  1.6225 -1.1981
 3559TIP3    H210684   2.625   5.334   1.866  0.6738 -0.6135 -0.2662
 3560TIP3   OH210685   0.316   5.718   0.596 -0.1445 -0.4731 -0.2767
 3560TIP3    H110686   0.399   5.686   0.631 -0.4239 -1.1252 -0.1938
 3560TIP3    H210687   0.279   5.643   0.548  0.1252  0.3278 -1.7998
 3561TIP3   OH210688   1.109   2.496   2.378  0.1554 -0.4982 -0.1448
 3561TIP3    H110689   1.086   2.567   2.318 -0.5756  0.0595  0.7647
 3561TIP3    H210690   1.091   2.416   2.328 -1.4471 -0.0592 -0.3334
 3562TIP3   OH210691   2.862   0.205   5.046  0.6528 -0.2803 -0.7052
 3562TIP3    H110692   2.897   0.276   4.993 -0.5156 -0.4274 -1.7243
 3562TIP3    H210693   2.817   0.249   5.118  3.0394 -0.0920  0.7791
 3563TIP3   OH210694   5.809   3.083   0.597 -0.4222  0.5156  0.6390
 3563TIP3    H110695   5.858   3.113   0.674  1.5746 -0.2011 -0.2646
 3563TIP3    H210696   5.857   3.120   0.523  0.5480 -2.5114 -0.4161
 3564TIP3   OH210697   4.126   1.748   0.827  0.1721  0.4282  0.0876
 3564TIP3    H110698   4.154   1.658   0.845  1.9582  0.7932 -0.6633
 3564TIP3    H210699   4.030   1.744   0.831  0.1239 -1.8457 -1.4197
 3565TIP3   OH210700   0.502   2.708   0.530 -0.1006 -0.3228 -0.2578
 3565TIP3    H110701   0.456   2.786   0.561 -0.9312 -0.2013 -1.7190
 3565TIP3    H210702   0.432   2.646   0.508  0.5344 -1.2487  0.2683
 3566TIP3   OH210703   5.709   2.377   1.002 -0.3248  0.8013  0.5587
 3566TIP3    H110704   5.626   2.343   1.035 -1.5873 -0.7346 -3.5552
 3566TIP3    H210705   5.774   2.311   1.025 -1.0841 -0.0659  0.2633
 3567TIP3   OH210706   3.737   1.229   1.438  0.5537 -0.4376 -0.5186
 3567TIP3    H110707   3.763   1.137   1.431  1.2916 -0.2596 -0.2065
 3567TIP3    H210708   3.643   1.228   1.423  0.6083 -1.2001 -0.8928
 3568TIP3   OH210709   1.648   0.848   0.331  0.1027 -0.0792  0.2570
 3568TIP3    H110710   1.691   0.775   0.376  1.5167  1.0643  0.8353
 3568TIP3    H210711   1.613   0.903   0.401  0.1740  0.4605 -0.1211
 3569TIP3   OH210712   1.876   4.436   1.232 -0.0782  0.2179 -0.1159
 3569TIP3    H110713   1.853   4.450   1.324  0.9686 -1.5800  0.4642
 3569TIP3    H210714   1.950   4.493   1.217  0.3863 -0.2096  0.4760
 3570TIP3   OH210715   2.064   0.227   1.565 -0.1321 -0.6104  0.0517
 3570TIP3    H110716   2.082   0.149   1.617 -1.9246 -1.2188 -0.1880
 3570TIP3    H210717   2.149   0.250   1.526  0.6698 -1.7091  1.0788
 3571TIP3   OH210718   1.984   3.999   4.579  0.2853  0.1817 -0.0819
 3571TIP3    H110719   1.926   3.989   4.655  0.3671  0.4424  0.0172
 3571TIP3    H210720   1.925   4.000   4.504  0.1709  0.3055  0.0082
 3572TIP3   OH210721   1.593   4.361   3.426  0.1754 -0.2803  0.5062
 3572TIP3    H110722   1.670   4.379   3.373 -0.4241  0.3931 -0.1773
 3572TIP3    H210723   1.519   4.381   3.368 -0.5515  2.8070  2.2367
 3573TIP3   OH210724   5.329   5.038   4.127 -0.1557  0.1164 -0.0307
 3573TIP3    H110725   5.366   5.055   4.214  0.3246  0.8391 -0.3702
 3573TIP3    H210726   5.265   4.968   4.142 -0.0163  0.1699  0.8879
 3574TIP3   OH210727   0.801   5.939   2.900  0.1538 -0.1417 -0.1191
 3574TIP3    H110728   0.770   5.979   2.819  1.4092 -1.9179 -1.5449
 3574TIP3    H210729   0.731   5.879   2.926  0.0947 -0.1687 -0.3436
 3575TIP3   OH210730   2.476   0.113   4.112  0.0263  0.3408 -0.1738
 3575TIP3    H110731   2.406   0.061   4.151  0.3943 -1.2606 -1.5287
 3575TIP3    H210732   2.545   0.114   4.179 -0.0221 -0.8819 -0.0758
 3576TIP3   OH210733   3.832   2.581   4.450  0.2687 -0.0826  0.0166
 3576TIP3    H110734   3.763   2.578   4.384 -0.1825 -1.6876  0.5160
 3576TIP3    H210735   3.903   2.630   4.408  0.0220 -1.1206 -1.7066
 3577TIP3   OH210736   3.735   3.892   3.232 -0.0553  0.3388 -0.2131
 3577TIP3    H110737   3.732   3.902   3.328  1.6118  1.7688 -0.2506
 3577TIP3    H210738   3.647   3.914   3.203 -0.4740  0.3140  0.9724
 3578TIP3   OH210739   3.069   4.404   4.431 -0.2600 -0.5253 -0.2800
 3578TIP3    H110740   3.004   4.474   4.423 -0.4176 -0.6630 -0.1931
 3578TIP3    H210741   3.035   4.347   4.499  0.6870  0.2191  0.8678
 3579TIP3   OH210742   6.080   0.751   1.942  0.1450  0.0814 -0.4372
 3579TIP3    H110743   5.989   0.776   1.930 -0.2761  0.0993  2.2951
 3579TIP3    H210744   6.126   0.791   1.868 -1.5913  2.7910 -0.1745
 3580TIP3   OH210745   5.073   5.927   3.455  0.2487 -0.5143 -0.0325
 3580TIP3    H110746   5.154   5.966   3.486  1.4055 -0.4981 -2.8439
 3580TIP3    H210747   5.021   6.000   3.424  0.4719 -0.7892 -1.0703
 3581TIP3   OH210748   2.591   0.959   4.851 -0.1767 -0.7466 -0.6255
 3581TIP3    H110749   2.657   1.019   4.817 -1.5734  0.6422 -1.0443
 3581TIP3    H210750   2.577   0.988   4.941 -0.1793 -1.0604 -0.5245
 3582TIP3   OH210751   1.495   1.645   3.301  0.5576 -0.3619  0.1107
 3582TIP3    H110752   1.561   1.673   3.364 -0.2092  0.1813  0.6913
 3582TIP3    H210753   1.533   1.568   3.259  0.9188 -0.9959  1.5368
 3583TIP3   OH210754   3.600   3.813   5.011 -0.2269 -0.1917  0.3523
 3583TIP3    H110755   3.637   3.772   5.089  2.7581  0.1352 -0.7312
 3583TIP3    H210756   3.601   3.906   5.030 -0.1849 -0.1601  0.1977
 3584TIP3   OH210757   6.346   1.985   3.832  0.1479  0.6899  0.2856
 3584TIP3    H110758   6.269   1.928   3.829 -0.5413  1.5328  1.5438
 3584TIP3    H210759   6.361   2.008   3.740 -0.6760 -0.0360 -0.0504
 3585TIP3   OH210760   1.182   2.901   4.393  0.2310  0.6461 -0.0831
 3585TIP3    H110761   1.269   2.864   4.402 -0.2911 -0.3291  1.2391
 3585TIP3    H210762   1.141   2.851   4.322  1.1129  1.9175 -1.5603
 3586TIP3   OH210763   0.828   2.442   1.387 -0.2591 -0.1283 -0.2771
 3586TIP3    H110764   0.897   2.389   1.348 -0.8880 -0.8900 -0.3694
 3586TIP3    H210765   0.768   2.460   1.314 -0.3012  0.2950 -0.1376
 3587TIP3   OH210766   3.418   1.064   1.642 -0.8494 -0.0377  0.1383
 3587TIP3    H110767   3.469   0.984   1.653  0.4327  0.9426  1.8924
 3587TIP3    H210768   3.328   1.034   1.631 -0.2423 -1.7404 -0.4645
 3588TIP3   OH210769   1.118   1.226   3.216 -0.4345  0.0504 -0.0800
 3588TIP3    H110770   1.197   1.193   3.173  0.5885  1.4047  0.6621
 3588TIP3    H210771   1.048   1.170   3.185  0.8999 -1.5235 -0.3686
 3589TIP3   OH210772   1.124   4.984   2.858  0.1524  0.1531 -0.3585
 3589TIP3    H110773   1.216   4.960   2.866  0.1544  0.3404  0.2804
 3589TIP3    H210774   1.102   5.021   2.944 -0.9908 -1.5387  0.1241
 3590TIP3   OH210775   6.257   2.718   0.281  0.0952 -0.1102  0.6232
 3590TIP3    H110776   6.213   2.663   0.216 -1.4413  1.5007  0.1954
 3590TIP3    H210777   6.316   2.773   0.230  0.3203 -0.1529  0.8346
 3591TIP3   OH210778   2.956   1.644   1.780 -0.0307 -0.0109 -0.0167
 3591TIP3    H110779   2.861   1.657   1.783 -0.0108  1.0711 -2.1819
 3591TIP3    H210780   2.966   1.550   1.765 -0.6439 -0.5236  2.4690
 3592TIP3   OH210781   4.168   4.972   2.940 -0.4679  0.4122 -0.1382
 3592TIP3    H110782   4.142   4.932   2.857 -1.6116  0.3363  0.2249
 3592TIP3    H210783   4.101   4.943   3.002 -0.0004  0.9912  0.6624
 3593TIP3   OH210784   6.201   1.032   2.831  0.7575 -0.3184  0.5787
 3593TIP3    H110785   6.109   1.007   2.820  0.3222  1.6714 -0.9141
 3593TIP3    H210786   6.242   1.008   2.748  0.2201  3.8011 -1.1620
 3594TIP3   OH210787   0.763   5.368   3.999 -0.5170 -0.3092 -0.6317
 3594TIP3    H110788   0.756   5.282   3.957  0.9637 -2.0634  2.3478
 3594TIP3    H210789   0.851   5.398   3.975 -0.7660  0.0411 -1.1039
 3595TIP3   OH210790   2.784   0.822   2.996  0.0866 -0.1489  0.3540
 3595TIP3    H110791   2.876   0.847   3.010  0.1614  0.0628 -0.4707
 3595TIP3    H210792   2.744   0.827   3.083 -0.0371  3.3374  0.2065
 3596TIP3   OH210793   0.924   4.174   2.015 -0.1553  0.6284  0.2764
 3596TIP3    H110794   0.853   4.136   2.067 -1.7633  1.4107 -1.2195
 3596TIP3    H210795   0.915   4.269   2.029 -0.0879  0.7980 -0.7321
 3597TIP3   OH210796   4.472   3.496   1.749  0.3716  0.0603  0.1309
 3597TIP3    H110797   4.419   3.508   1.828 -0.0185  1.4106 -0.3181
 3597TIP3    H210798   4.465   3.402   1.731 -1.0470  0.0332  0.6675
 3598TIP3   OH210799   3.629   5.566   3.773  0.5614  0.1016  0.1201
 3598TIP3    H110800   3.543   5.558   3.815  1.6028 -0.8612  2.2040
 3598TIP3    H210801   3.670   5.640   3.818  0.9809  0.2813 -0.5604
 3599TIP3   OH210802   0.391   2.798   4.760  0.1944  0.3388 -0.5109
 3599TIP3    H110803   0.461   2.739   4.731 -0.8905 -0.5822 -1.3912
 3599TIP3    H210804   0.436   2.878   4.786  1.8072 -1.1035  1.4861
 3600TIP3   OH210805   3.729   4.067   5.101 -0.1759 -0.0653  0.5364
 3600TIP3    H110806   3.667   4.127   5.142 -1.7562 -1.3226  0.0681
 3600TIP3    H210807   3.786   4.040   5.172 -0.7329  0.4081  1.1755
 3601TIP3   OH210808   0.131   1.430   3.540 -0.2360 -0.3385  0.1186
 3601TIP3    H110809   0.117   1.486   3.616  0.8773 -2.2402  1.8000
 3601TIP3    H210810   0.181   1.485   3.479  1.2779  0.3847  1.9218
 3602TIP3   OH210811   1.493   4.511   1.375  0.2312  0.4604  0.0031
 3602TIP3    H110812   1.580   4.503   1.413  0.3202  0.1312 -0.2682
 3602TIP3    H210813   1.434   4.517   1.450  0.3982 -0.2788  0.1933
 3603TIP3   OH210814   4.866   0.195   0.125  0.0585 -0.3505 -0.2856
 3603TIP3    H110815   4.774   0.183   0.148 -0.0819  1.0396 -0.0559
 3603TIP3    H210816   4.903   0.106   0.125 -0.7457 -0.7386  1.8762
 3604TIP3   OH210817   4.614   1.245   3.803  0.1847  0.3941  0.0277
 3604TIP3    H110818   4.548   1.239   3.873 -1.5801  3.0920 -1.2326
 3604TIP3    H210819   4.645   1.336   3.808  1.2828  0.1385 -1.6175
 3605TIP3   OH210820   2.952   1.738   4.422  0.6396 -0.1139  0.0615
 3605TIP3    H110821   3.016   1.753   4.352 -0.7908 -0.2125 -1.3291
 3605TIP3    H210822   2.880   1.798   4.401  1.0418  1.3990  2.6760
 3606TIP3   OH210823   0.261   2.019  -0.024  0.0237 -0.2601 -0.4899
 3606TIP3    H110824   0.257   1.953   0.045 -1.6842  0.5706  0.2723
 3606TIP3    H210825   0.291   2.098   0.020 -1.8511  0.4863 -0.4612
 3607TIP3   OH210826   2.004   2.432   2.955  0.2797 -0.2446 -0.4233
 3607TIP3    H110827   1.951   2.357   2.930 -0.6991  0.9244 -2.1263
 3607TIP3    H210828   1.945   2.488   3.005  1.0128 -0.6018  0.8770
 3608TIP3   OH210829   5.275   2.352   4.264 -0.1301  0.1033  0.7695
 3608TIP3    H110830   5.316   2.413   4.325 -0.0082  0.3829  0.4086
 3608TIP3    H210831   5.229   2.407   4.201  1.0424 -0.1294 -0.3205
 3609TIP3   OH210832   3.978   1.564   2.973  0.2628 -0.0215  0.5300
 3609TIP3    H110833   3.936   1.649   2.982 -1.3538 -0.8046  0.6302
 3609TIP3    H210834   4.065   1.584   2.937  0.7113  1.8172  2.4206
 3610TIP3   OH210835   5.553   4.155   4.706 -0.0951  0.1026 -0.4540
 3610TIP3    H110836   5.529   4.101   4.631  2.3786  0.5178 -1.6492
 3610TIP3    H210837   5.611   4.222   4.670  0.3780  0.9208  1.6718
 3611TIP3   OH210838   1.445   0.963   0.951  0.5649 -0.4758 -0.9125
 3611TIP3    H110839   1.373   0.899   0.955  1.7172 -1.7731  0.3953
 3611TIP3    H210840   1.469   0.966   0.858 -0.9419 -0.2547 -1.3220
 3612TIP3   OH210841   3.934   5.825   3.641  0.1613  0.0105 -0.1763
 3612TIP3    H110842   3.887   5.823   3.724 -0.5405  1.0728 -0.5447
 3612TIP3    H210843   3.892   5.757   3.588 -0.1593  0.1278 -0.0741
 3613TIP3   OH210844   1.638   0.476   0.631  0.1263 -0.4860 -0.0257
 3613TIP3    H110845   1.704   0.533   0.591 -1.3271  0.9702 -0.4267
 3613TIP3    H210846   1.667   0.467   0.722 -0.1533  1.8520  0.3663
 3614TIP3   OH210847   1.181   5.729   3.518 -0.1819 -0.4106 -0.3931
 3614TIP3    H110848   1.143   5.766   3.439  1.3033  1.2527 -0.3847
 3614TIP3    H210849   1.271   5.707   3.494  0.6075  1.0346  1.0421
 3615TIP3   OH210850   3.271   0.484   3.254 -0.9274 -0.2794  0.3936
 3615TIP3    H110851   3.238   0.517   3.337 -0.6111 -1.2001  0.9042
 3615TIP3    H210852   3.355   0.444   3.277 -0.1390  0.7149 -0.6179
 3616TIP3   OH210853   3.953   3.757   4.453 -0.1421 -0.4081  0.2064
 3616TIP3    H110854   3.976   3.780   4.363 -0.0851 -0.1962  0.2740
 3616TIP3    H210855   3.859   3.773   4.458 -0.5075 -2.1969 -0.3478
 3617TIP3   OH210856   4.260   0.656   2.214  0.3691 -1.1220 -0.3491
 3617TIP3    H110857   4.274   0.677   2.122 -0.3310  2.5653  0.2342
 3617TIP3    H210858   4.166   0.664   2.227  0.4722 -1.4333  0.7408
 3618TIP3   OH210859   4.455   5.367   4.124 -0.2027  0.5866 -0.3844
 3618TIP3    H110860   4.548   5.385   4.132 -0.1695 -0.4215  2.1059
 3618TIP3    H210861   4.450   5.293   4.063  0.6300  0.4584 -0.3074
 3619TIP3   OH210862   1.623   2.167   1.695  0.2030  0.6092 -0.7753
 3619TIP3    H110863   1.535   2.182   1.660 -0.3849 -0.6540  0.0617
 3619TIP3    H210864   1.617   2.081   1.737  1.1170  1.5870  1.5446
 3620TIP3   OH210865   2.884   1.481   2.903  0.0716 -0.0704  0.2281
 3620TIP3    H110866   2.937   1.408   2.871 -0.6641 -0.2088 -0.7181
 3620TIP3    H210867   2.834   1.445   2.976 -1.6246 -1.0691 -1.3328
 3621TIP3   OH210868   1.800   5.017   3.414  0.1091 -0.3204  0.5565
 3621TIP3    H110869   1.831   5.077   3.481 -3.0570  0.6577  1.3026
 3621TIP3    H210870   1.792   5.071   3.335  0.0930 -0.5240  0.4170
 3622TIP3   OH210871   4.602   4.055   0.186  0.6456  0.7224 -0.3809
 3622TIP3    H110872   4.647   4.137   0.208 -0.0063  0.8500  0.5278
 3622TIP3    H210873   4.603   4.005   0.267 -0.7822  0.7096 -0.3552
 3623TIP3   OH210874   0.874   4.924   1.628 -0.1475  0.1874  0.2145
 3623TIP3    H110875   0.946   4.867   1.656  0.2554  0.5669 -0.0333
 3623TIP3    H210876   0.795   4.873   1.643  0.1567 -0.1325  0.7544
 3624TIP3   OH210877   4.207   4.288   1.524  0.7033  0.0334 -0.0549
 3624TIP3    H110878   4.131   4.315   1.575 -0.1872 -1.0071 -0.7871
 3624TIP3    H210879   4.235   4.368   1.479  1.5121  0.9836  1.9903
 3625TIP3   OH210880   5.743   4.876   2.814  0.3904  0.1316  0.3068
 3625TIP3    H110881   5.727   4.970   2.827 -0.4485 -0.1784  1.7394
 3625TIP3    H210882   5.748   4.866   2.719  0.9094  1.6826  0.1336
 3626TIP3   OH210883   5.322   5.028   2.976  0.6119 -0.0338  0.0954
 3626TIP3    H110884   5.386   5.081   2.928 -0.4319  0.4336 -0.8400
 3626TIP3    H210885   5.270   4.987   2.907  0.3925 -1.0244  0.8355
 3627TIP3   OH210886   2.248   3.818   0.730  0.0417 -0.1027 -0.3884
 3627TIP3    H110887   2.188   3.837   0.802 -0.5625  1.0252 -1.1620
 3627TIP3    H210888   2.330   3.794   0.773 -0.2902  0.6012  0.6767
 3628TIP3   OH210889   4.836   4.483   4.342 -0.0910 -0.0922  0.1135
 3628TIP3    H110890   4.885   4.468   4.423  0.3949 -1.0482 -0.3476
 3628TIP3    H210891   4.883   4.433   4.276 -0.8801  0.1282 -0.6261
 3629TIP3   OH210892   3.641   5.812   0.612  0.4240  0.1228 -0.1369
 3629TIP3    H110893   3.698   5.850   0.545 -1.0136  0.1538 -1.3833
 3629TIP3    H210894   3.614   5.887   0.665  0.9578  0.2053  0.0308
 3630TIP3   OH210895   5.145   3.044   4.191  0.0056 -0.1028  0.1046
 3630TIP3    H110896   5.211   3.036   4.122 -0.1408  0.0551 -0.0544
 3630TIP3    H210897   5.081   3.106   4.156 -1.2140 -1.6433 -0.5336
 3631TIP3   OH210898   5.500   0.948   2.961 -0.9658 -0.1008  0.0188
 3631TIP3    H110899   5.416   0.928   3.001 -0.8312  0.3170  0.5140
 3631TIP3    H210900   5.564   0.905   3.017 -0.5067  3.1096  2.2074
 3632TIP3   OH210901   2.834   5.632   4.053 -0.0190 -0.4741  0.3639
 3632TIP3    H110902   2.871   5.627   4.141  0.5053 -1.3485  0.1159
 3632TIP3    H210903   2.746   5.596   4.062  0.0813 -0.6864  0.5123
 3633TIP3   OH210904   0.982   5.293   3.493  0.0658  0.8908 -0.2703
 3633TIP3    H110905   0.901   5.273   3.448  0.1541  1.3531 -0.6370
 3633TIP3    H210906   0.978   5.387   3.511  0.5975  0.9558 -0.4599
 3634TIP3   OH210907   5.686   0.407   5.057  0.0116 -0.3418  0.1072
 3634TIP3    H110908   5.675   0.469   5.130 -0.1736 -1.5197  1.1054
 3634TIP3    H210909   5.780   0.409   5.038  0.0538  0.0127  0.3432
 3635TIP3   OH210910   2.516   4.439   3.069 -0.2784 -0.0235 -0.2048
 3635TIP3    H110911   2.498   4.367   3.008  4.9076 -1.8166 -0.1335
 3635TIP3    H210912   2.523   4.396   3.154  2.2782  0.5034 -0.0648
 3636TIP3   OH210913   3.467   1.030   3.330  0.2039 -0.5544  0.0764
 3636TIP3    H110914   3.487   1.121   3.351  2.7718 -0.7879 -0.9938
 3636TIP3    H210915   3.483   0.982   3.411  0.4086 -0.2346  0.2250
 3637TIP3   OH210916   0.925   5.371   2.225 -0.1337  0.0523 -0.2423
 3637TIP3    H110917   0.991   5.311   2.259  0.2131  1.7672  2.3496
 3637TIP3    H210918   0.843   5.321   2.227  0.4285 -0.8716  0.2199
 3638TIP3   OH210919   5.134   2.397   0.399 -0.1565 -0.5761 -0.3225
 3638TIP3    H110920   5.041   2.407   0.422 -0.5866  1.1163 -2.3889
 3638TIP3    H210921   5.133   2.385   0.304  1.7095 -1.7962 -0.2315
 3639TIP3   OH210922   1.331   0.674   2.605  0.2952  0.3344  0.4296
 3639TIP3    H110923   1.335   0.656   2.511 -0.0844 -1.4629  0.7247
 3639TIP3    H210924   1.237   0.678   2.624  0.3539  1.8952  0.5576
 3640TIP3   OH210925   1.981   4.810   4.563 -0.3947 -0.0594 -0.2261
 3640TIP3    H110926   2.026   4.894   4.576  1.4731 -1.2598  1.7790
 3640TIP3    H210927   2.002   4.786   4.472  1.8616  0.1389  0.1784
 3641TIP3   OH210928   2.164   1.210   2.126 -0.6686  0.6551 -0.6594
 3641TIP3    H110929   2.114   1.228   2.206 -1.6910 -2.8110 -0.3576
 3641TIP3    H210930   2.217   1.134   2.147  1.5562  1.6033 -2.3702
 3642TIP3   OH210931   1.822   1.464   4.273  0.1814  0.2244 -0.1166
 3642TIP3    H110932   1.731   1.468   4.245 -0.6969 -2.1186  2.0852
 3642TIP3    H210933   1.864   1.537   4.227 -2.3392  0.2514 -2.6529
 3643TIP3   OH210934   3.392   0.588   4.021 -0.4594  0.0333 -0.1661
 3643TIP3    H110935   3.314   0.566   4.071 -0.4745  1.6724  0.5816
 3643TIP3    H210936   3.375   0.675   3.986  0.7551  0.1311 -0.5892
 3644TIP3   OH210937   1.396   1.571   4.619 -0.1733 -0.8138 -0.2740
 3644TIP3    H110938   1.393   1.579   4.715 -1.4874  1.0648 -0.4063
 3644TIP3    H210939   1.488   1.586   4.597  0.0217 -0.5688  0.6627
 3645TIP3   OH210940   1.814   0.548   3.929  0.7704 -0.6129 -0.2618
 3645TIP3    H110941   1.786   0.629   3.886  1.9014 -1.2606 -2.3300
 3645TIP3    H210942   1.775   0.553   4.016 -0.7693  1.2571 -0.9843
 3646TIP3   OH210943   3.895   2.109   2.170  0.6138  0.3245  0.1714
 3646TIP3    H110944   3.842   2.073   2.241  2.0828 -0.4512  0.9314
 3646TIP3    H210945   3.874   2.202   2.169 -1.1528 -0.0435  0.0689
 3647TIP3   OH210946   5.829   4.498   3.600  0.2392  0.4651 -0.6127
 3647TIP3    H110947   5.737   4.478   3.583  0.4242  0.6662 -2.0161
 3647TIP3    H210948   5.836   4.504   3.695 -1.3662  1.1934 -0.5160
 3648TIP3   OH210949   1.210   4.234   0.149 -0.4731  0.2827 -0.6475
 3648TIP3    H110950   1.225   4.293   0.075 -3.6725  1.4821 -0.5038
 3648TIP3    H210951   1.214   4.291   0.226  1.6698 -0.7519  0.0782
 3649TIP3   OH210952   3.134   2.570   0.425 -0.3913 -0.4596  0.0154
 3649TIP3    H110953   3.214   2.620   0.410  0.1758 -1.2617  0.2561
 3649TIP3    H210954   3.165   2.481   0.442 -1.4018 -1.1123 -1.3352
 3650TIP3   OH210955   3.237   4.674   2.363  0.5926  0.2496  0.3092
 3650TIP3    H110956   3.159   4.627   2.393 -0.7711  1.0598 -1.6984
 3650TIP3    H210957   3.301   4.606   2.345  0.0954 -0.4979  1.2860
 3651TIP3   OH210958   1.964   5.309   2.588 -0.0179  0.1134 -0.4234
 3651TIP3    H110959   2.045   5.350   2.618 -0.0008 -0.6187  0.5700
 3651TIP3    H210960   1.901   5.381   2.583 -0.1966  0.2242  2.0031
 3652TIP3   OH210961   4.904   3.578   5.040 -0.0535 -0.1839 -0.2283
 3652TIP3    H110962   4.961   3.508   5.009  1.4299  0.1696  1.5410
 3652TIP3    H210963   4.847   3.536   5.105  0.3430  0.0938  0.3042
 3653TIP3   OH210964   0.848   2.706   2.414  0.1107 -0.2639 -0.4373
 3653TIP3    H110965   0.854   2.725   2.320  1.3416  0.7429 -0.1940
 3653TIP3    H210966   0.940   2.698   2.442 -0.0957  2.1042  1.1559
 3654TIP3   OH210967   4.681   1.792   4.915 -0.5050 -0.0533  0.0392
 3654TIP3    H110968   4.704   1.874   4.960  1.1944 -2.6837  4.5805
 3654TIP3    H210969   4.586   1.788   4.920 -0.4626  0.4995  2.2254
 3655TIP3   OH210970   3.316   3.309   3.419 -0.5207 -0.1980  0.6407
 3655TIP3    H110971   3.338   3.325   3.327 -0.8004  1.4238  0.8293
 3655TIP3    H210972   3.267   3.227   3.418  2.0595 -1.8729 -0.2673
 3656TIP3   OH210973   1.241   5.136   1.332  0.0021 -0.3435  0.1562
 3656TIP3    H110974   1.203   5.050   1.316 -2.1915  0.5439  0.1485
 3656TIP3    H210975   1.243   5.178   1.246  0.3181 -0.1040  0.2779
 3657TIP3   OH210976   6.092   1.727  -0.008  0.3778 -0.1950 -0.2396
 3657TIP3    H110977   6.117   1.655   0.049  3.3862 -0.7601 -2.0485
 3657TIP3    H210978   5.997   1.722  -0.013  0.3084 -2.4371  1.6767
 3658TIP3   OH210979   1.197   5.250   3.323 -0.2350 -0.3980  0.6115
 3658TIP3    H110980   1.125   5.251   3.386 -1.0737 -0.3406 -0.3201
 3658TIP3    H210981   1.260   5.188   3.359 -0.5004 -0.0475  1.7077
 3659TIP3   OH210982   3.184   0.736   1.912  0.0861 -0.1310  0.0789
 3659TIP3    H110983   3.125   0.729   1.837  1.4351 -2.1011 -0.8685
 3659TIP3    H210984   3.268   0.760   1.875  0.5790 -0.2532  1.0827
 3660TIP3   OH210985   4.063   3.681   1.611  0.3461 -0.2794  0.6522
 3660TIP3    H110986   4.109   3.736   1.674  1.5861 -1.9644  1.2980
 3660TIP3    H210987   4.133   3.647   1.554 -0.5416 -0.1633 -0.5345
 3661TIP3   OH210988   5.649   0.388   2.626  0.3645  0.3183  0.1691
 3661TIP3    H110989   5.682   0.456   2.567  2.8404 -1.3259 -0.4833
 3661TIP3    H210990   5.625   0.316   2.569 -0.2417 -0.1347  0.9786
 3662TIP3   OH210991   1.305   0.027   0.395  0.5769  0.1929 -0.3027
 3662TIP3    H110992   1.285  -0.058   0.433 -2.2444  1.4700  1.3284
 3662TIP3    H210993   1.399   0.039   0.410  0.7149 -1.9356  0.8123
 3663TIP3   OH210994   2.153   3.287   0.501  0.0671  0.2459 -0.2233
 3663TIP3    H110995   2.096   3.358   0.531 -0.4649  0.0950 -0.8460
 3663TIP3    H210996   2.236   3.302   0.545 -0.0025  1.3229 -0.4416
 3664TIP3   OH210997   2.787   3.810   3.077 -0.0500  0.0794 -0.5982
 3664TIP3    H110998   2.846   3.886   3.074 -0.2712  0.2340 -1.0423
 3664TIP3    H210999   2.838   3.742   3.120 -0.0812  0.6906  0.4553
 3665TIP3   OH211000   4.222   2.954   2.973 -0.0650 -0.2880  0.2063
 3665TIP3    H111001   4.283   2.992   2.909 -0.4461  0.0263  0.0300
 3665TIP3    H211002   4.233   3.008   3.051 -0.2266 -0.1397  0.1261
 3666TIP3   OH211003   4.637   2.114   4.712  0.4395  0.0927 -0.4585
 3666TIP3    H111004   4.680   2.199   4.725 -0.0190  0.3755 -0.7563
 3666TIP3    H211005   4.710   2.052   4.704  0.7682  0.3568  0.3870
 3667TIP3   OH211006   0.980   1.893   2.664 -0.2206 -0.3161 -0.4003
 3667TIP3    H111007   0.937   1.968   2.706  0.4357  0.1191 -0.5017
 3667TIP3    H211008   0.966   1.820   2.725 -0.0722  0.0982  0.1338
 3668TIP3   OH211009   2.067   5.887   1.868  0.0399  0.3462 -0.0201
 3668TIP3    H111010   2.006   5.950   1.907  1.1832  1.4844  0.0118
 3668TIP3    H211011   2.097   5.833   1.941 -1.8859 -1.1194 -0.2361
 3669TIP3   OH211012   4.186   0.781   0.721 -0.2554 -0.2998 -0.0812
 3669TIP3    H111013   4.272   0.757   0.687 -0.0137  0.1615  0.1981
 3669TIP3    H211014   4.124   0.730   0.668  0.1892 -0.6514 -0.2632
 3670TIP3   OH211015   2.552   5.074   3.395 -0.4069 -0.6722  0.6385
 3670TIP3    H111016   2.509   5.085   3.310 -0.4781 -1.7747  0.5187
 3670TIP3    H211017   2.498   5.011   3.442 -2.2158  2.2435  2.8185
 3671TIP3   OH211018   4.168   2.213   0.861 -0.3285  0.1287  0.1345
 3671TIP3    H111019   4.124   2.219   0.946 -0.7341 -0.1125 -0.0569
 3671TIP3    H211020   4.124   2.277   0.806 -0.4789 -0.1495 -0.0733
 3672TIP3   OH211021   3.407   3.217   0.114  0.8114 -0.1661  0.0956
 3672TIP3    H111022   3.474   3.233   0.181  0.3770  1.4910  0.1808
 3672TIP3    H211023   3.421   3.287   0.050  0.7669 -1.3087 -1.2055
 3673TIP3   OH211024   0.872   2.936   2.117 -0.7304  0.0084  0.1332
 3673TIP3    H111025   0.870   3.011   2.176 -1.6534  0.5198 -0.5156
 3673TIP3    H211026   0.780   2.918   2.097 -0.4553 -0.2878 -0.9636
 3674TIP3   OH211027   6.282   5.887   0.965  0.4739  0.0268  0.1283
 3674TIP3    H111028   6.251   5.949   1.032  0.5640  1.1930 -0.8731
 3674TIP3    H211029   6.366   5.922   0.937  1.0699 -1.2027  0.3469
 3675TIP3   OH211030   3.943   1.070   2.069  0.1949 -0.4696  0.1634
 3675TIP3    H111031   3.947   0.994   2.012  0.9566 -1.1720  1.1235
 3675TIP3    H211032   3.940   1.145   2.010  0.0249 -1.2174 -0.7841
 3676TIP3   OH211033   1.928   2.038   0.589 -0.1677 -0.1097 -0.0980
 3676TIP3    H111034   2.012   2.061   0.550  1.1594 -1.9389  1.5227
 3676TIP3    H211035   1.872   2.114   0.570  1.0473  0.1230 -3.3334
 3677TIP3   OH211036   5.153   1.712   0.598  0.6380 -0.1648  0.5546
 3677TIP3    H111037   5.249   1.713   0.607  0.8400 -1.3553 -1.0744
 3677TIP3    H211038   5.132   1.794   0.554  0.8846  0.1246  0.9638
 3678TIP3   OH211039   4.117   4.275   4.303 -0.0203  0.0761 -0.7953
 3678TIP3    H111040   4.189   4.221   4.337 -0.6616 -1.1255 -1.2654
 3678TIP3    H211041   4.042   4.215   4.302 -1.2830  1.5640  0.5986
 3679TIP3   OH211042   1.760   2.446   3.129  0.2112 -0.8048 -0.4542
 3679TIP3    H111043   1.675   2.435   3.086 -1.0085  2.1851  0.8856
 3679TIP3    H211044   1.758   2.384   3.203 -0.5731 -1.1461 -0.7534
 3680TIP3   OH211045   4.650   4.378   2.188 -0.0081  0.5170 -0.0544
 3680TIP3    H111046   4.719   4.315   2.208 -1.0690 -0.8293 -0.4690
 3680TIP3    H211047   4.677   4.459   2.232  2.0982  0.2083 -0.6888
 3681TIP3   OH211048   4.971   0.440   0.147  0.1245 -0.1325  0.0633
 3681TIP3    H111049   5.062   0.453   0.120  0.2885  0.8001  1.0096
 3681TIP3    H211050   4.956   0.346   0.134  1.0256 -0.1932 -0.6632
 3682TIP3   OH211051   2.477   5.959   3.486  0.6496 -0.0952  0.4034
 3682TIP3    H111052   2.572   5.952   3.497  0.6420 -1.2582 -0.1224
 3682TIP3    H211053   2.441   5.926   3.568  0.6975  0.7411  0.7664
 3683TIP3   OH211054   5.711   1.692   0.632 -0.6394  0.9725 -0.5847
 3683TIP3    H111055   5.687   1.605   0.601  0.1376  0.9080 -1.0272
 3683TIP3    H211056   5.659   1.705   0.712  0.6916 -0.7214  0.6382
 3684TIP3   OH211057   0.738   0.505   3.851  0.1071  0.2482 -0.0208
 3684TIP3    H111058   0.698   0.491   3.937 -0.8657 -0.9724 -0.6312
 3684TIP3    H211059   0.783   0.422   3.833  1.3064  0.9258 -0.1889
 3685TIP3   OH211060   6.293   3.810   1.138 -0.6214 -0.0247 -0.6166
 3685TIP3    H111061   6.382   3.846   1.146 -1.4089  2.2171 -1.1087
 3685TIP3    H211062   6.288   3.743   1.206  0.2584  2.4452  2.1056
 3686TIP3   OH211063   4.848   1.551   2.527 -0.8118 -0.3913 -0.1784
 3686TIP3    H111064   4.830   1.616   2.460 -1.7728  1.6078  1.8637
 3686TIP3    H211065   4.941   1.563   2.549 -0.9841  0.3524  0.1901
 3687TIP3   OH211066   4.998   3.998   0.113 -0.1267 -0.0089 -0.6714
 3687TIP3    H111067   4.998   3.981   0.019  1.4960  0.2213 -0.7263
 3687TIP3    H211068   4.999   4.093   0.121  0.2939 -0.0357 -0.4165
 3688TIP3   OH211069   2.308   3.714   3.045 -0.1937 -0.1260  0.1973
 3688TIP3    H111070   2.223   3.675   3.064  0.0079  0.0496  1.5065
 3688TIP3    H211071   2.365   3.686   3.116  1.0556 -0.8034 -1.0143
 3689TIP3   OH211072   2.119   1.816   4.138  0.4634 -0.2293 -0.1158
 3689TIP3    H111073   2.117   1.727   4.103  0.2033 -0.5942  0.7913
 3689TIP3    H211074   2.039   1.824   4.189  1.0804  0.0887  0.8454
 3690TIP3   OH211075   3.920   3.525   4.908 -0.3788  0.2841  0.3504
 3690TIP3    H111076   3.930   3.575   4.989 -1.5617 -2.2888  2.1980
 3690TIP3    H211077   3.949   3.437   4.930 -0.8212 -0.5380 -2.0292
 3691TIP3   OH211078   5.708   5.248   2.632 -0.2174  0.2087 -0.3840
 3691TIP3    H111079   5.639   5.294   2.584 -1.7168 -0.3189  1.2017
 3691TIP3    H211080   5.774   5.316   2.649 -1.7714  1.5070  0.7440
 3692TIP3   OH211081   5.538   3.946   3.860  0.3956  0.5399 -0.5502
 3692TIP3    H111082   5.508   4.034   3.838  0.5815  0.4974 -0.9734
 3692TIP3    H211083   5.608   3.928   3.798 -0.0777 -0.1628 -0.8968
 3693TIP3   OH211084   4.348   1.752   4.193 -0.3287  0.0533  0.1044
 3693TIP3    H111085   4.436   1.720   4.173 -0.8859 -1.4737 -0.0379
 3693TIP3    H211086   4.330   1.719   4.281 -0.4387  1.1221  0.5004
 3694TIP3   OH211087   6.287   0.137   2.153  0.5172 -0.4238 -0.2881
 3694TIP3    H111088   6.267   0.230   2.154 -1.7718 -0.7777 -2.0868
 3694TIP3    H211089   6.375   0.131   2.115 -0.3180  0.9820 -2.7155
 3695TIP3   OH211090   2.564   3.068   1.683 -0.2539 -0.0352  0.4863
 3695TIP3    H111091   2.503   3.056   1.610 -0.0763  2.2799 -0.1412
 3695TIP3    H211092   2.614   3.146   1.659  0.6253  0.0963  2.5512
 3696TIP3   OH211093   3.069   0.955   3.067 -0.0510 -0.2524 -0.1171
 3696TIP3    H111094   3.162   0.948   3.088  0.2075  2.0001 -0.2725
 3696TIP3    H211095   3.027   0.978   3.150 -0.4375 -0.9138 -0.1205
 3697TIP3   OH211096   4.597   1.169   4.257  0.0188  1.3049 -0.4911
 3697TIP3    H111097   4.605   1.076   4.236 -1.4329  1.0301  0.0629
 3697TIP3    H211098   4.532   1.172   4.327 -1.9808  2.9436 -2.2940
 3698TIP3   OH211099   5.346   3.523   0.611  0.2193 -0.5958  0.1448
 3698TIP3    H111100   5.254   3.528   0.584  0.0379 -0.7736  0.7193
 3698TIP3    H211101   5.364   3.429   0.615  0.9217 -0.5650 -1.5984
 3699TIP3   OH211102   4.114   1.734   2.068 -0.4976 -0.0824  0.0640
 3699TIP3    H111103   4.074   1.670   2.127  0.8982 -1.1848 -0.1511
 3699TIP3    H211104   4.085   1.707   1.980 -0.1828 -0.2156  0.0013
 3700TIP3   OH211105   2.685   5.775   1.868  0.2341  0.1451 -0.3176
 3700TIP3    H111106   2.740   5.848   1.839  0.8339  0.4145  1.3923
 3700TIP3    H211107   2.724   5.698   1.825  0.1819  0.6826 -1.3734
 3701TIP3   OH211108   4.921   2.719   4.924 -0.6518  0.0339  0.1800
 3701TIP3    H111109   4.854   2.696   4.989 -1.2949 -0.8303 -0.7518
 3701TIP3    H211110   4.911   2.653   4.856  0.7249  0.2953 -0.3008
 3702TIP3   OH211111   3.290   3.296   1.536 -0.7220  0.1967  0.5490
 3702TIP3    H111112   3.355   3.317   1.603  0.4188 -0.0535 -0.4491
 3702TIP3    H211113   3.320   3.214   1.499 -0.8268  0.7885 -0.8957
 3703TIP3   OH211114   2.052   0.382   3.864 -0.4523 -0.0806 -0.0362
 3703TIP3    H111115   2.016   0.471   3.858 -0.6930  0.0018  2.0567
 3703TIP3    H211116   2.099   0.380   3.947 -1.5819 -2.3076  0.6233
 3704TIP3   OH211117   2.171   5.855   2.996  0.1125  0.5529  0.3732
 3704TIP3    H111118   2.202   5.941   2.968 -0.9575  0.9436  0.3361
 3704TIP3    H211119   2.094   5.839   2.941  1.5683 -1.4410 -1.2195
 3705TIP3   OH211120   1.324   1.717   1.302  0.4129 -0.1135 -0.7033
 3705TIP3    H111121   1.282   1.649   1.249  2.3965 -0.7600 -1.5401
 3705TIP3    H211122   1.330   1.679   1.390 -1.4097  0.3127 -0.3590
 3706TIP3   OH211123   6.017   0.775   4.056 -0.4978 -0.0701  0.3107
 3706TIP3    H111124   5.987   0.825   3.980 -2.2533  0.1352  1.0701
 3706TIP3    H211125   6.001   0.834   4.130 -0.7381 -1.0062  1.0182
 3707TIP3   OH211126   1.084   1.713   4.199  0.2379  0.2326  0.6472
 3707TIP3    H111127   1.057   1.709   4.290  0.5819  2.2272  0.8800
 3707TIP3    H211128   1.019   1.770   4.157 -0.6813 -1.6989 -0.6878
 3708TIP3   OH211129   2.925   2.890   4.460  0.1852  0.8461  0.2190
 3708TIP3    H111130   3.004   2.927   4.422  0.2592  2.0397  1.4735
 3708TIP3    H211131   2.859   2.959   4.448 -1.0157 -0.5271 -1.7918
 3709TIP3   OH211132   4.431   1.737   3.311  0.1442  0.0379  0.3082
 3709TIP3    H111133   4.356   1.789   3.283 -0.5621 -0.7857  0.6151
 3709TIP3    H211134   4.421   1.730   3.406  1.1314  0.6983  0.4793
 3710TIP3   OH211135   2.923   3.776   1.051 -0.7656 -0.1546  0.2339
 3710TIP3    H111136   2.952   3.812   0.968  0.2123 -0.1239  0.5675
 3710TIP3    H211137   2.858   3.838   1.084 -1.7845 -0.6002 -0.8823
 3711TIP3   OH211138   3.379   1.273   3.574 -0.0078 -0.4533 -0.3291
 3711TIP3    H111139   3.298   1.314   3.546  0.3418 -0.5855 -1.6175
 3711TIP3    H211140   3.351   1.196   3.623 -0.6531  0.2678  0.4636
 3712TIP3   OH211141   4.944   2.932   0.405 -0.1692 -0.4273  0.7093
 3712TIP3    H111142   4.898   2.860   0.362  0.2206 -0.5936  0.5667
 3712TIP3    H211143   4.885   3.006   0.398 -0.6083 -0.7528  0.9230
 3713TIP3   OH211144   1.448   4.427   4.795  0.6661 -0.2269 -0.1450
 3713TIP3    H111145   1.499   4.468   4.725 -0.0929  3.5419  1.2916
 3713TIP3    H211146   1.509   4.417   4.867  0.5093 -0.3228 -0.0260
 3714TIP3   OH211147   5.733   1.923   2.620 -0.6265  0.0013 -0.2013
 3714TIP3    H111148   5.759   1.912   2.712  0.0970 -0.0157 -0.4032
 3714TIP3    H211149   5.762   2.011   2.597 -1.1576  0.1490 -0.2971
 3715TIP3   OH211150   4.846   1.809   3.130  0.4864 -0.2215 -0.1732
 3715TIP3    H111151   4.909   1.881   3.137  1.7378 -0.7785 -3.7051
 3715TIP3    H211152   4.900   1.730   3.135 -0.7230 -1.0093  2.3509
 3716TIP3   OH211153   2.180   5.627   1.214 -0.3847  0.1329 -0.4961
 3716TIP3    H111154   2.261   5.612   1.264 -1.1599 -2.3266  0.1132
 3716TIP3    H211155   2.111   5.629   1.280 -1.3448 -2.4701 -1.2924
 3717TIP3   OH211156   4.846   5.103   1.490 -0.0157  0.0649  0.6143
 3717TIP3    H111157   4.804   5.096   1.404  0.0638 -0.9664  0.6493
 3717TIP3    H211158   4.927   5.054   1.481 -0.2556 -0.4991  1.4215
 3718TIP3   OH211159   5.310   1.156   0.312  0.2222 -0.0155 -0.0994
 3718TIP3    H111160   5.243   1.222   0.297 -0.7473 -0.9655 -0.0499
 3718TIP3    H211161   5.362   1.156   0.231  0.9101  1.5227  0.2968
 3719TIP3   OH211162   4.221   4.725   4.115 -0.4121  0.6759  0.2310
 3719TIP3    H111163   4.271   4.752   4.038 -1.0477  1.5766  0.1254
 3719TIP3    H211164   4.232   4.630   4.118 -1.1911  0.4885 -1.5566
 3720TIP3   OH211165   3.959   5.299   2.476  0.1231 -0.3221  0.3280
 3720TIP3    H111166   3.882   5.355   2.485 -0.0677 -0.6793  0.9382
 3720TIP3    H211167   4.030   5.360   2.452 -0.7947 -0.2752 -2.6442
 3721TIP3   OH211168   0.896   0.952   0.512 -0.4210 -0.3756  0.0980
 3721TIP3    H111169   0.979   0.924   0.472 -0.5297 -1.1730  0.4136
 3721TIP3    H211170   0.840   0.975   0.438  0.1603  0.4172 -0.1090
 3722TIP3   OH211171   4.532   5.793   1.049 -0.1036  0.4076 -0.6781
 3722TIP3    H111172   4.497   5.801   1.138 -1.0502  0.5799 -1.0561
 3722TIP3    H211173   4.532   5.882   1.016  1.0032  0.4535 -0.5823
 3723TIP3   OH211174   4.790   4.313   4.605 -0.2584 -0.1124 -0.8106
 3723TIP3    H111175   4.857   4.308   4.536  2.7090 -1.8073  1.9074
 3723TIP3    H211176   4.733   4.238   4.588  0.2496 -0.3353 -1.6074
 3724TIP3   OH211177   1.365   4.957   5.150 -0.3247 -0.0207 -0.0955
 3724TIP3    H111178   1.341   5.047   5.174 -0.8318 -0.0554 -0.4552
 3724TIP3    H211179   1.460   4.961   5.135  0.0923 -0.0812  2.2065
 3725TIP3   OH211180   2.295   3.298   0.849  0.5782 -0.3942 -0.1970
 3725TIP3    H111181   2.353   3.318   0.775 -0.2183  0.4653 -0.6083
 3725TIP3    H211182   2.261   3.383   0.876  1.6343 -0.5617  1.8325
 3726TIP3   OH211183   2.684   1.589   0.271 -0.1252  0.2498 -0.4299
 3726TIP3    H111184   2.675   1.512   0.327 -0.6081  1.8472  1.8579
 3726TIP3    H211185   2.778   1.601   0.263  0.0371 -1.8359 -2.8057
 3727TIP3   OH211186   3.665   4.140   0.143  0.2642  0.7337 -0.0741
 3727TIP3    H111187   3.726   4.164   0.212  0.4901  0.1594 -0.0664
 3727TIP3    H211188   3.690   4.050   0.119 -0.3498  0.6182 -0.3080
 3728TIP3   OH211189   0.782   5.373   4.603 -0.2386  0.2738 -0.7244
 3728TIP3    H111190   0.877   5.369   4.588 -0.3793  0.4587 -1.7471
 3728TIP3    H211191   0.773   5.404   4.693  0.6881 -1.8349  0.1748
 3729TIP3   OH211192   1.896   4.489   3.855  0.7320 -0.6725 -0.3283
 3729TIP3    H111193   1.986   4.478   3.824  0.9321 -0.4061  0.1577
 3729TIP3    H211194   1.851   4.409   3.826  1.2929 -1.1280  0.0341
 3730TIP3   OH211195   4.618   2.662   3.794  0.0739 -0.2326 -0.1121
 3730TIP3    H111196   4.548   2.722   3.769  0.8432  0.0031 -1.8155
 3730TIP3    H211197   4.573   2.582   3.821 -0.8963  0.4938  0.4908
 3731TIP3   OH211198   3.945   3.265   4.981 -0.0138 -0.2216  0.0611
 3731TIP3    H111199   3.857   3.288   5.011 -1.7633 -3.2812 -2.1803
 3731TIP3    H211200   3.945   3.170   4.979  1.7517 -0.3221 -4.0848
 3732TIP3   OH211201   2.429   0.241   0.829  0.1923 -0.3450  0.2445
 3732TIP3    H111202   2.456   0.271   0.916 -0.2021 -0.6439  0.4726
 3732TIP3    H211203   2.346   0.285   0.813  0.0791 -0.5820  0.1796
 3733TIP3   OH211204   0.763   3.160   1.238  0.5823  0.8750 -0.2147
 3733TIP3    H111205   0.824   3.198   1.175  1.5275  0.2356  0.2868
 3733TIP3    H211206   0.763   3.222   1.311  0.6102  0.8856 -0.2238
 3734TIP3   OH211207   3.513   1.471   3.735 -0.1689  0.1281 -0.0922
 3734TIP3    H111208   3.522   1.398   3.673 -1.5822 -0.4708  0.3780
 3734TIP3    H211209   3.420   1.472   3.758 -0.0854  1.7513  0.3317
 3735TIP3   OH211210   4.737   3.972   2.958 -0.1324 -0.1169  0.0380
 3735TIP3    H111211   4.748   3.982   2.864 -0.3890  0.1233  0.0317
 3735TIP3    H211212   4.794   4.039   2.996 -0.3222  0.0428  0.0434
 3736TIP3   OH211213   6.215   2.384   0.464  0.2200 -0.1400  0.3456
 3736TIP3    H111214   6.260   2.457   0.507  0.1096 -0.0483  0.3084
 3736TIP3    H211215   6.127   2.385   0.501 -0.4442  1.0616 -1.1408
 3737TIP3   OH211216   4.938   4.747   1.373  0.4661  0.0910 -0.6532
 3737TIP3    H111217   4.935   4.797   1.292 -0.5090 -0.1242 -0.7546
 3737TIP3    H211218   4.914   4.809   1.441 -1.5409 -0.3844 -0.8677
 3738TIP3   OH211219   5.672   0.478   1.026 -0.0125  0.4272  0.3336
 3738TIP3    H111220   5.745   0.495   0.967 -0.1088 -2.0610 -0.6282
 3738TIP3    H211221   5.598   0.525   0.988  0.0916 -0.5850 -1.2015
 3739TIP3   OH211222   5.893   4.052   3.916 -0.0808 -0.4211  0.3100
 3739TIP3    H111223   5.978   4.044   3.872 -0.5238  1.9849 -1.1819
 3739TIP3    H211224   5.841   3.980   3.881  0.7791 -0.8436 -0.1394
 3740TIP3   OH211225   1.907   4.123   1.618  0.6592  0.1220 -0.3376
 3740TIP3    H111226   1.822   4.149   1.584  0.9540 -1.5141 -2.5089
 3740TIP3    H211227   1.901   4.028   1.628  1.7925  0.1466  0.8472
 3741TIP3   OH211228   1.118   0.797   3.278 -0.0769 -0.1233 -0.0242
 3741TIP3    H111229   1.149   0.727   3.221 -0.5835 -1.3009  1.0969
 3741TIP3    H211230   1.191   0.815   3.336  0.7255  1.6301 -1.4750
 3742TIP3   OH211231   3.775   3.851   0.235  0.0509 -0.7047 -0.2346
 3742TIP3    H111232   3.713   3.778   0.237  0.5550 -1.1633 -0.7193
 3742TIP3    H211233   3.852   3.815   0.189  1.1986 -0.5655  1.4940
 3743TIP3   OH211234   3.300   1.960   0.297  0.1015 -0.0233 -0.0655
 3743TIP3    H111235   3.310   1.865   0.295 -0.0823 -0.0715  0.8816
 3743TIP3    H211236   3.371   1.991   0.354  0.8315  0.5146 -1.2313
 3744TIP3   OH211237   6.269   0.606   1.751 -0.3880 -0.3129 -0.0892
 3744TIP3    H111238   6.234   0.686   1.712  0.2701  0.1823  0.3197
 3744TIP3    H211239   6.353   0.593   1.708 -1.8743 -2.7047 -2.6981
 3745TIP3   OH211240   0.789   1.057   4.856 -0.0961 -0.0880  0.0860
 3745TIP3    H111241   0.744   1.038   4.939  1.6923 -0.4364  1.0165
 3745TIP3    H211242   0.825   1.145   4.868 -1.3393  0.6176 -1.0539
 3746TIP3   OH211243   4.834   4.512   2.506 -0.3255 -0.2882 -0.1339
 3746TIP3    H111244   4.804   4.427   2.540  0.1406 -0.2698  0.3323
 3746TIP3    H211245   4.913   4.490   2.456  0.0839 -0.0671  0.4100
 3747TIP3   OH211246   3.058   4.525   3.882  0.6558  0.5681 -0.1637
 3747TIP3    H111247   3.071   4.484   3.968  0.3719  0.6649 -0.0736
 3747TIP3    H211248   3.030   4.614   3.902 -2.5899 -0.2725 -0.2605
 3748TIP3   OH211249   4.853   2.928   1.564 -0.4732  0.4387 -0.3136
 3748TIP3    H111250   4.828   2.893   1.478  0.5959 -2.0002  0.2988
 3748TIP3    H211251   4.818   2.865   1.627  0.9844  0.7966  0.9052
 3749TIP3   OH211252   1.135   3.178   3.383 -0.1595 -0.3260  0.7742
 3749TIP3    H111253   1.093   3.245   3.330  2.1603  0.4243 -0.2168
 3749TIP3    H211254   1.159   3.223   3.464 -1.5674 -0.8743  1.5421
 3750TIP3   OH211255   5.929   5.866   0.064  0.3292 -0.4732  0.1268
 3750TIP3    H111256   5.988   5.797   0.095 -0.1744 -0.9004  0.1543
 3750TIP3    H211257   5.939   5.865  -0.031 -1.3010 -2.1304 -0.0947
 3751TIP3   OH211258   5.512   4.169   2.313  0.7729 -0.3675  0.0951
 3751TIP3    H111259   5.572   4.242   2.307  0.6354 -0.3114 -0.6547
 3751TIP3    H211260   5.479   4.157   2.224 -0.4309 -0.3039  0.5127
 3752TIP3   OH211261   1.086   3.159   0.190 -0.2780  0.0892  0.3367
 3752TIP3    H111262   1.029   3.219   0.143  0.8256  1.2787  0.4595
 3752TIP3    H211263   1.128   3.107   0.121 -0.1792  0.4423  0.1264
 3753TIP3   OH211264   1.169   2.106   3.864 -0.1414  0.0820 -0.0255
 3753TIP3    H111265   1.147   2.195   3.892 -0.5212  0.0747 -0.2970
 3753TIP3    H211266   1.233   2.076   3.929 -1.7680 -0.3140  1.4527
 3754TIP3   OH211267  -0.008   4.109   4.448 -0.0463  0.1486  0.5173
 3754TIP3    H111268   0.025   4.036   4.500  0.9447 -0.2140 -0.5795
 3754TIP3    H211269   0.009   4.084   4.357 -0.4640  1.3729  0.0733
 3755TIP3   OH211270   1.181   0.562   3.157 -0.3740  0.5581 -0.0931
 3755TIP3    H111271   1.208   0.537   3.068  0.7590 -0.0722  0.4033
 3755TIP3    H211272   1.238   0.510   3.214 -0.7266  1.3502  0.9994
 3756TIP3   OH211273   0.535   3.554   3.128  0.0459  0.5594 -0.3167
 3756TIP3    H111274   0.533   3.534   3.221 -0.4932 -0.2868 -0.4966
 3756TIP3    H211275   0.449   3.527   3.095  0.7111 -0.5045 -1.3019
 3757TIP3   OH211276   3.086   0.101   3.088 -0.4981  0.0121  0.0068
 3757TIP3    H111277   3.040   0.077   3.008  2.1359 -0.1887 -1.5857
 3757TIP3    H211278   3.071   0.028   3.148 -0.4388 -1.0758 -1.2687
 3758TIP3   OH211279   4.973   1.428   1.084  0.3843  0.1650  0.4303
 3758TIP3    H111280   4.928   1.465   1.160 -1.3561 -1.2020  0.1367
 3758TIP3    H211281   5.034   1.365   1.121  1.2910  1.2160  0.7786
 3759TIP3   OH211282   1.006   2.031   1.935  0.5918 -0.1273 -0.0334
 3759TIP3    H111283   1.053   2.060   2.013  1.2673  0.2203 -0.5608
 3759TIP3    H211284   0.976   1.942   1.957  0.6213  0.0353  0.6830
 3760TIP3   OH211285   2.736   3.196   0.850  0.9787 -0.3973  0.0414
 3760TIP3    H111286   2.722   3.132   0.780  1.0683  0.2577 -0.5861
 3760TIP3    H211287   2.742   3.143   0.930 -0.4251 -1.0658 -0.2608
 3761TIP3   OH211288   2.223   2.724   0.588 -1.0145 -0.0897 -0.0690
 3761TIP3    H111289   2.228   2.820   0.582  2.7140 -0.0034  1.9563
 3761TIP3    H211290   2.246   2.704   0.679  1.8032 -2.9759 -1.2319
 3762TIP3   OH211291   4.202   2.996   4.682 -0.0624  0.1253  0.0317
 3762TIP3    H111292   4.207   3.026   4.773 -2.1578  1.1627 -0.1370
 3762TIP3    H211293   4.204   2.900   4.689  0.5992  0.1982  1.0974
 3763TIP3   OH211294   5.498   3.812   1.168  0.0178 -0.0510  0.0282
 3763TIP3    H111295   5.445   3.862   1.230 -1.0860  1.1664 -1.7972
 3763TIP3    H211296   5.435   3.765   1.114  0.9271 -0.8622 -0.3626
 3764TIP3   OH211297   1.990   4.795   2.435  0.4232  0.1065  0.5827
 3764TIP3    H111298   1.979   4.890   2.439 -0.0154  0.0813  0.1110
 3764TIP3    H211299   2.082   4.781   2.457  0.4590  0.6319  0.7839
 3765TIP3   OH211300   3.742   3.793   3.620 -0.0010 -0.6045  0.7094
 3765TIP3    H111301   3.727   3.727   3.687  0.8301 -0.7371  0.7780
 3765TIP3    H211302   3.686   3.866   3.644 -0.6858 -1.1592  0.8126
 3766TIP3   OH211303   3.186   1.107   3.793  0.9473  0.4092  0.6947
 3766TIP3    H111304   3.162   1.022   3.829 -1.4660  0.1321 -1.2677
 3766TIP3    H211305   3.105   1.159   3.797  0.4696  0.4385 -3.6777
 3767TIP3   OH211306   3.559   4.445   2.904  0.4266 -0.1757  1.1518
 3767TIP3    H111307   3.480   4.400   2.936 -0.1716 -0.3850 -0.4999
 3767TIP3    H211308   3.532   4.536   2.896  0.5807 -0.1199  1.2807
 3768TIP3   OH211309   5.408   5.278   0.712 -0.0070 -0.0265 -1.1523
 3768TIP3    H111310   5.467   5.351   0.730 -0.3713 -0.0370  0.1963
 3768TIP3    H211311   5.366   5.300   0.629  0.7002  0.7560 -1.3091
 3769TIP3   OH211312   5.863   3.652   2.540 -0.3097 -0.1536 -0.3132
 3769TIP3    H111313   5.872   3.635   2.634  3.8412 -0.9209 -0.6705
 3769TIP3    H211314   5.851   3.566   2.501 -2.8321  0.2299 -0.5424
 3770TIP3   OH211315   4.909   4.194   1.026  0.1630 -0.2463  0.3144
 3770TIP3    H111316   4.979   4.156   0.972 -0.4607 -0.7839 -0.1351
 3770TIP3    H211317   4.905   4.137   1.102 -0.5948 -0.9551 -0.2362
 3771TIP3   OH211318   5.041   4.618   1.690 -0.6160 -0.3298  0.4470
 3771TIP3    H111319   5.121   4.624   1.638 -1.2541 -1.0028 -0.6539
 3771TIP3    H211320   5.035   4.701   1.736  0.7342 -0.2898  0.5675
 3772TIP3   OH211321   5.460   4.804   4.628  0.5777 -0.4580  0.1491
 3772TIP3    H111322   5.434   4.752   4.553  0.0105 -0.2410  0.1895
 3772TIP3    H211323   5.480   4.740   4.697 -0.0963 -0.6270  0.1933
 3773TIP3   OH211324   1.886   5.698   0.712  1.2905  0.2708 -0.2090
 3773TIP3    H111325   1.900   5.790   0.734 -1.1232  0.8043 -0.6391
 3773TIP3    H211326   1.900   5.651   0.795 -2.8938  1.7187  1.5638
 3774TIP3   OH211327   2.309   3.396   2.938  0.5457 -0.0679 -0.2759
 3774TIP3    H111328   2.340   3.486   2.926 -0.9583  0.5322  0.0192
 3774TIP3    H211329   2.291   3.365   2.849  0.9448 -0.0205 -0.3710
 3775TIP3   OH211330   1.208   3.390   2.224 -0.5498  0.2292 -0.2992
 3775TIP3    H111331   1.235   3.309   2.267  0.5939  1.4285  1.3743
 3775TIP3    H211332   1.243   3.383   2.135  0.4661 -0.6709  0.1499
 3776TIP3   OH211333   1.981   1.719   1.412 -0.1343  0.2294  0.6363
 3776TIP3    H111334   1.929   1.799   1.406  0.2746  0.4329 -0.3446
 3776TIP3    H211335   2.069   1.745   1.383 -0.2116 -0.7494 -0.5390
 3777TIP3   OH211336   5.417   5.629   0.344  0.3980  0.4383  0.2265
 3777TIP3    H111337   5.324   5.649   0.359 -0.1755 -1.5308 -0.4194
 3777TIP3    H211338   5.428   5.638   0.249  0.3807 -1.0810  0.0538
 3778TIP3   OH211339   2.075   0.831   1.449  0.0208 -0.0431  0.0033
 3778TIP3    H111340   2.036   0.784   1.523  1.6412  0.3827  1.2040
 3778TIP3    H211341   2.037   0.790   1.371 -1.4808 -0.7389  1.0504
 3779TIP3   OH211342   3.582   0.188   2.990  0.1502  0.2858 -0.4438
 3779TIP3    H111343   3.515   0.120   2.998  0.9747 -0.4855  0.0148
 3779TIP3    H211344   3.657   0.154   3.038  0.1445  2.1164  0.9639
 3780TIP3   OH211345   0.298   0.109   3.864 -0.1514 -0.3633 -0.3009
 3780TIP3    H111346   0.206   0.086   3.869 -0.2436  0.0045 -0.2725
 3780TIP3    H211347   0.317   0.114   3.771 -0.1845 -0.3440 -0.3067
 3781TIP3   OH211348   5.184   2.699   4.670  0.3530 -0.4738  0.1856
 3781TIP3    H111349   5.097   2.735   4.651 -0.5967 -3.1546 -1.0228
 3781TIP3    H211350   5.206   2.735   4.756 -1.7173  0.6640  0.3161
 3782TIP3   OH211351   5.622   2.872   2.856  0.1954 -0.1092 -0.2574
 3782TIP3    H111352   5.697   2.819   2.881 -0.9492 -1.4339  0.5537
 3782TIP3    H211353   5.659   2.956   2.829  2.0296 -1.0992 -0.9869
 3783TIP3   OH211354   5.298   4.066   5.023  0.3253  0.1383 -0.0311
 3783TIP3    H111355   5.278   3.973   5.015 -0.7547  0.3488  0.0556
 3783TIP3    H211356   5.393   4.071   5.013  0.4761 -1.0413  0.6481
 3784TIP3   OH211357   6.278   1.693   2.561 -0.1457 -0.2999  0.3010
 3784TIP3    H111358   6.197   1.739   2.585 -0.6613 -1.4257  0.7700
 3784TIP3    H211359   6.252   1.601   2.552  0.6666 -0.3988 -1.5493
 3785TIP3   OH211360   2.951   1.824   4.686 -0.5619 -0.5105 -0.1652
 3785TIP3    H111361   2.958   1.918   4.669 -0.0901 -0.0083  2.3765
 3785TIP3    H211362   2.951   1.784   4.599  0.9939  1.7173 -1.2950
 3786TIP3   OH211363   1.859   0.307   0.441 -0.0711  0.0501 -0.8620
 3786TIP3    H111364   1.949   0.277   0.430 -0.4676 -1.0192 -1.2910
 3786TIP3    H211365   1.855   0.389   0.391  0.9247  0.6791  0.0344
 3787TIP3   OH211366   0.532   1.062   3.836  0.2540 -0.2054 -0.1906
 3787TIP3    H111367   0.557   1.050   3.928 -0.4523  0.1014  0.0453
 3787TIP3    H211368   0.613   1.043   3.787 -0.1362 -3.8643  0.2542
 3788TIP3   OH211369   3.821   0.248   4.980 -0.1282  0.3839 -0.2007
 3788TIP3    H111370   3.842   0.242   5.073 -3.0762  1.0690  0.6314
 3788TIP3    H211371   3.732   0.212   4.973 -0.9168  2.4381 -2.3149
 3789TIP3   OH211372   1.652   2.925   2.381 -0.4414  0.0021 -0.3598
 3789TIP3    H111373   1.694   3.005   2.413 -0.9670  0.4109 -0.6680
 3789TIP3    H211374   1.697   2.854   2.426  0.5431  0.4292 -0.6612
 3790TIP3   OH211375   3.459   1.376   5.110  0.5908  0.0270  0.2969
 3790TIP3    H111376   3.502   1.340   5.032 -0.6436 -1.2258  0.1490
 3790TIP3    H211377   3.386   1.317   5.126 -0.9704  1.9441  0.6526
 3791TIP3   OH211378   1.847   2.781   3.912 -0.3524  0.2323  0.7781
 3791TIP3    H111379   1.919   2.785   3.976  0.1167  0.2021  0.2606
 3791TIP3    H211380   1.867   2.851   3.850 -0.3807 -0.2422  0.2299
 3792TIP3   OH211381   0.184   0.692   3.513 -0.2991 -0.7726  0.3457
 3792TIP3    H111382   0.236   0.711   3.591 -1.6328  0.0286  1.0862
 3792TIP3    H211383   0.131   0.616   3.537 -0.8292 -0.4264  0.3005
 3793TIP3   OH211384   3.920   4.231   1.387  0.1736  0.4045  0.2353
 3793TIP3    H111385   3.938   4.144   1.420 -1.2740  0.5457  1.5080
 3793TIP3    H211386   3.942   4.290   1.459  2.9884  1.3654 -1.2087
 3794TIP3   OH211387   5.858   2.729   0.503  0.1048  0.4971 -0.6190
 3794TIP3    H111388   5.887   2.819   0.493  1.7088  0.2259  0.9819
 3794TIP3    H211389   5.766   2.730   0.478  0.4732  2.2531 -2.0621
 3795TIP3   OH211390   1.468   4.673   3.728  0.2741  0.1353 -0.3304
 3795TIP3    H111391   1.544   4.653   3.674  0.1643  1.3399 -0.9621
 3795TIP3    H211392   1.393   4.638   3.678  0.2064  0.9403 -0.8049
 3796TIP3   OH211393   6.169   5.544   4.873  0.0965 -0.0258  0.4846
 3796TIP3    H111394   6.077   5.571   4.875  0.2621  0.6953 -0.6258
 3796TIP3    H211395   6.217   5.624   4.851  0.9967 -0.3833  1.0952
 3797TIP3   OH211396   3.052   1.455   2.465 -0.2289 -0.0843 -0.1065
 3797TIP3    H111397   3.144   1.430   2.453 -0.4390 -1.4892  1.0280
 3797TIP3    H211398   3.003   1.387   2.420 -0.7541  0.2742 -0.0837
 3798TIP3   OH211399   6.014   2.341   1.580 -0.5865 -0.2177  0.2528
 3798TIP3    H111400   6.105   2.349   1.608 -1.1184  1.2910  1.6758
 3798TIP3    H211401   5.965   2.322   1.660 -1.5504 -0.9956 -0.4878
 3799TIP3   OH211402   1.071   0.098   2.229 -0.4010 -0.1974  0.0479
 3799TIP3    H111403   1.058   0.017   2.278  0.7710  0.8926  2.3462
 3799TIP3    H211404   0.985   0.119   2.194 -0.9106 -1.9288  0.1632
 3800TIP3   OH211405   0.762   0.572   3.597  0.1241 -0.3948 -0.0381
 3800TIP3    H111406   0.841   0.625   3.589 -0.2735  0.1569 -0.3683
 3800TIP3    H211407   0.747   0.564   3.691 -1.9838  3.4335  0.1802
 3801TIP3   OH211408   2.566   5.318   3.840  0.5929 -0.1876  0.6981
 3801TIP3    H111409   2.501   5.325   3.770  0.4862  0.5902  0.8718
 3801TIP3    H211410   2.649   5.342   3.798  0.5213  0.3269  0.8424
 3802TIP3   OH211411   1.481   2.464   3.349  0.0559  0.2508  0.3192
 3802TIP3    H111412   1.557   2.409   3.363 -0.1580 -0.6907 -1.8360
 3802TIP3    H211413   1.406   2.408   3.372 -0.1746 -0.5535 -2.1042
 3803TIP3   OH211414   1.873   5.348   0.549  0.2218 -0.1897 -0.2068
 3803TIP3    H111415   1.862   5.416   0.482  0.7013 -1.1821 -1.3315
 3803TIP3    H211416   1.962   5.317   0.537 -0.3749 -1.8774 -0.5643
 3804TIP3   OH211417   1.767   2.759   2.568  0.0668 -0.5687 -0.0900
 3804TIP3    H111418   1.747   2.755   2.661  0.1217  0.2203 -0.0366
 3804TIP3    H211419   1.850   2.713   2.559 -0.1996 -1.1111  0.1645
 3805TIP3   OH211420   3.071   0.242   0.161 -0.3548 -0.4123 -0.4859
 3805TIP3    H111421   3.021   0.233   0.243 -0.1483  2.0045 -0.0358
 3805TIP3    H211422   3.158   0.210   0.183 -0.5333 -0.6096 -0.0342
 3806TIP3   OH211423   2.611   4.389   0.868 -0.0583 -0.2285  0.2172
 3806TIP3    H111424   2.679   4.331   0.902  0.6296 -0.4278 -1.3746
 3806TIP3    H211425   2.639   4.408   0.778 -3.1221 -2.0020 -1.2895
 3807TIP3   OH211426   1.127   3.733   4.718  0.6200  0.0746  0.1628
 3807TIP3    H111427   1.089   3.766   4.637 -4.0093 -2.2311  1.0550
 3807TIP3    H211428   1.183   3.661   4.692  0.3664  0.2982 -1.0442
 3808TIP3   OH211429   6.279   3.091   1.786  0.1065 -0.2383 -0.0987
 3808TIP3    H111430   6.230   3.071   1.706 -0.3788 -2.2490  0.6461
 3808TIP3    H211431   6.357   3.137   1.755  0.6321 -2.1866 -1.9269
 3809TIP3   OH211432   2.333   3.078   3.570  0.0318  0.6099  0.0390
 3809TIP3    H111433   2.322   2.989   3.536  1.2036 -0.5525  2.4503
 3809TIP3    H211434   2.374   3.127   3.499  1.7641 -1.5024 -0.5173
 3810TIP3   OH211435   5.071   1.602   3.713  0.4481  0.2533  0.3525
 3810TIP3    H111436   5.008   1.660   3.671  0.4656 -0.0112 -0.0466
 3810TIP3    H211437   5.154   1.619   3.668  0.7058  0.7167  0.9846
 3811TIP3   OH211438   0.726   4.900   4.433 -0.2277 -0.1679 -0.0117
 3811TIP3    H111439   0.648   4.938   4.473  0.7105  0.2375  1.5298
 3811TIP3    H211440   0.756   4.967   4.371  0.7085  1.1618  1.7825
 3812TIP3   OH211441   3.704   4.837   0.939  0.0349 -0.2419  0.1091
 3812TIP3    H111442   3.613   4.813   0.922  0.0014 -0.9840  1.2290
 3812TIP3    H211443   3.745   4.837   0.852 -0.7310 -1.1880 -0.2790
 3813TIP3   OH211444   5.766   3.039   3.685  0.0646 -0.3100 -0.1029
 3813TIP3    H111445   5.784   2.964   3.741 -1.3317 -0.0252  0.7996
 3813TIP3    H211446   5.674   3.061   3.703  0.3111  1.3494 -0.6356
 3814TIP3   OH211447   6.014   0.769   0.395  0.1906  0.6783 -0.6002
 3814TIP3    H111448   5.931   0.736   0.360 -0.0665  1.0191 -0.3261
 3814TIP3    H211449   6.006   0.865   0.389  1.2814  0.7086 -2.2325
 3815TIP3   OH211450   4.001   5.684   1.866  0.3134 -0.7297 -0.3782
 3815TIP3    H111451   4.045   5.767   1.885 -0.5681 -0.3443  0.0297
 3815TIP3    H211452   3.946   5.703   1.791 -0.9132 -0.5653  0.5387
 3816TIP3   OH211453   1.495   3.443   4.797 -0.4619 -0.5712 -0.2103
 3816TIP3    H111454   1.493   3.349   4.782  0.3749 -0.9997  2.0789
 3816TIP3    H211455   1.405   3.465   4.823 -0.4268 -0.9306  0.2277
 3817TIP3   OH211456   5.824   4.233   3.290 -0.6473  0.1809 -0.5493
 3817TIP3    H111457   5.858   4.206   3.375  3.8757  0.8197 -1.9174
 3817TIP3    H211458   5.753   4.172   3.272  1.1581 -2.8677  1.7774
 3818TIP3   OH211459   3.555   0.088   0.955 -0.5777 -0.0456  0.3809
 3818TIP3    H111460   3.581   0.140   0.879 -0.5441  1.1127  1.1632
 3818TIP3    H211461   3.616   0.014   0.956 -0.5399 -0.0470 -0.6676
 3819TIP3   OH211462   2.922   0.841   1.475  0.5197  0.1691  0.8701
 3819TIP3    H111463   2.889   0.871   1.391  2.6409 -2.0474 -0.9104
 3819TIP3    H211464   2.923   0.920   1.530 -1.7508  1.5008 -0.8265
 3820TIP3   OH211465   5.302   4.505   0.761  0.4882  0.2524 -0.2356
 3820TIP3    H111466   5.364   4.494   0.689 -0.1017 -0.3997 -0.6488
 3820TIP3    H211467   5.357   4.510   0.839  1.0604 -0.3302 -0.5946
 3821TIP3   OH211468   4.280   1.984   3.204  0.2160 -0.8657 -0.7290
 3821TIP3    H111469   4.343   2.024   3.264 -1.5367 -1.8418  1.9156
 3821TIP3    H211470   4.245   2.058   3.153 -0.5334  0.5482  1.7073
 3822TIP3   OH211471   0.604   4.345   0.659 -0.1357 -0.3103 -0.7151
 3822TIP3    H111472   0.592   4.336   0.753  1.2318  0.5093 -0.4324
 3822TIP3    H211473   0.689   4.306   0.642  0.5364  1.2970 -1.2751
 3823TIP3   OH211474   2.185   1.118   4.970  0.2515 -0.5980  0.2069
 3823TIP3    H111475   2.204   1.027   4.947  0.2952 -0.1418 -1.7417
 3823TIP3    H211476   2.089   1.125   4.963  0.3300 -0.2655 -0.6226
 3824TIP3   OH211477   4.884   1.907   4.658  0.2591 -0.0296  0.1569
 3824TIP3    H111478   4.846   1.893   4.571  0.1451 -0.6203  0.2971
 3824TIP3    H211479   4.946   1.979   4.645  0.3344 -0.1902 -0.4405
 3825TIP3   OH211480   0.644   0.614   0.905  0.1827 -0.6317  0.2135
 3825TIP3    H111481   0.713   0.648   0.962  0.3220 -0.7779  0.1333
 3825TIP3    H211482   0.587   0.689   0.889 -0.5653 -0.8834  1.5723
 3826TIP3   OH211483   1.338   2.382   0.356 -0.2476 -0.5315 -0.2028
 3826TIP3    H111484   1.378   2.467   0.372 -1.0320  0.1344 -1.6292
 3826TIP3    H211485   1.411   2.320   0.363  0.6588  0.4315 -0.8085
 3827TIP3   OH211486   3.342   2.892   1.750  0.1502 -0.5193 -0.5868
 3827TIP3    H111487   3.252   2.860   1.751  0.3086 -0.9729  0.4970
 3827TIP3    H211488   3.389   2.834   1.809  1.0138  0.1425 -0.5988
 3828TIP3   OH211489   4.734   3.149   3.730 -0.1104 -0.1019  0.1662
 3828TIP3    H111490   4.692   3.163   3.815  0.5534  0.4785  0.4030
 3828TIP3    H211491   4.684   3.077   3.691 -1.1238  0.3610  0.5738
 3829TIP3   OH211492   3.186   4.963   0.105 -0.3738  0.2756  0.0711
 3829TIP3    H111493   3.133   5.037   0.075 -1.4022 -0.4276  0.1015
 3829TIP3    H211494   3.233   4.997   0.181  1.3846  1.7371 -1.5528
 3830TIP3   OH211495   4.066   4.711   0.247 -0.2537  0.4764 -0.4067
 3830TIP3    H111496   3.995   4.654   0.216  1.1374 -2.7085  1.7129
 3830TIP3    H211497   4.138   4.693   0.187  0.5324 -0.9893  0.8996
 3831TIP3   OH211498   1.012   4.134   2.690  0.4340 -0.6242  0.0097
 3831TIP3    H111499   0.932   4.083   2.704 -1.1927  2.0919  1.2925
 3831TIP3    H211500   1.058   4.130   2.773 -0.1647  0.7072  0.4183
 3832TIP3   OH211501   4.730   1.855   4.435  0.4695  0.0116  0.5403
 3832TIP3    H111502   4.653   1.911   4.423 -0.4098 -1.1895  0.4262
 3832TIP3    H211503   4.704   1.792   4.502  1.5561 -0.0737  0.9008
 3833TIP3   OH211504   1.120   4.792   0.188  0.0789  0.0902  0.3062
 3833TIP3    H111505   1.121   4.810   0.094  0.6044 -2.2902 -0.2236
 3833TIP3    H211506   1.197   4.836   0.223  1.3508 -1.1070 -0.8857
 3834TIP3   OH211507   1.959   2.407   4.114  0.8718 -0.5177 -0.1394
 3834TIP3    H111508   1.881   2.364   4.148  0.4937  0.9504  0.9452
 3834TIP3    H211509   2.032   2.352   4.145  0.3837 -0.6336  0.8542
 3835TIP3   OH211510   1.667   2.340   4.522  0.7526 -0.2728 -0.2861
 3835TIP3    H111511   1.690   2.425   4.557  0.8766 -0.4537  0.0788
 3835TIP3    H211512   1.572   2.344   4.507  0.6256 -0.3345  0.4745
 3836TIP3   OH211513   3.495   2.031   0.120  0.2268  0.3541 -0.3653
 3836TIP3    H111514   3.459   2.040   0.032 -1.5851  0.9275  0.3707
 3836TIP3    H211515   3.420   2.005   0.174  1.7497 -2.2009  0.6654
 3837TIP3   OH211516   5.664   0.787   2.087 -0.1909  0.3102  0.2724
 3837TIP3    H111517   5.584   0.752   2.127 -2.9083  3.6725 -1.6917
 3837TIP3    H211518   5.666   0.879   2.113  1.8658  0.8519 -1.5344
 3838TIP3   OH211519   0.740   0.400   2.227 -0.0114  0.6719  0.0153
 3838TIP3    H111520   0.789   0.481   2.211  0.3310  0.4001 -0.3182
 3838TIP3    H211521   0.806   0.331   2.222 -0.2790  0.3818  0.4360
 3839TIP3   OH211522   1.925   2.521   2.433 -0.5653  0.0648 -0.1331
 3839TIP3    H111523   1.969   2.448   2.389 -1.6464  0.0617 -1.2699
 3839TIP3    H211524   1.956   2.518   2.523  1.1794 -0.3775 -0.7171
 3840TIP3   OH211525   2.492   0.851   2.235  0.1801 -0.6490  0.0357
 3840TIP3    H111526   2.405   0.881   2.260  0.0481 -1.7643  1.0255
 3840TIP3    H211527   2.550   0.886   2.303  0.7491  1.2224 -1.3433
 3841TIP3   OH211528   1.070   1.093   0.099  0.1702  0.0368 -0.3815
 3841TIP3    H111529   1.038   1.162   0.156 -1.5114 -0.6969 -0.3524
 3841TIP3    H211530   1.014   1.018   0.119  0.3792 -0.6199 -2.0749
 3842TIP3   OH211531   3.690   1.733   4.712 -0.1418 -0.0274 -0.4744
 3842TIP3    H111532   3.701   1.812   4.764 -2.7751  1.0076 -1.3370
 3842TIP3    H211533   3.764   1.733   4.651  1.2597  0.3759  1.1496
 3843TIP3   OH211534   1.784   1.170   2.911  0.3298  0.4777  0.0920
 3843TIP3    H111535   1.689   1.164   2.905  0.1636 -0.0632  2.2762
 3843TIP3    H211536   1.801   1.263   2.927  0.0423  0.4044  0.8849
 3844TIP3   OH211537   6.102   0.611   2.915  1.0366 -0.0825  0.3028
 3844TIP3    H111538   6.146   0.679   2.966 -0.2937  0.9753  0.1099
 3844TIP3    H211539   6.024   0.589   2.966  0.9281 -0.7379 -0.1283
 3845TIP3   OH211540   4.836   2.893   1.083  0.4623  0.1874 -0.1368
 3845TIP3    H111541   4.781   2.828   1.038  1.6315  0.2973 -1.7922
 3845TIP3    H211542   4.788   2.975   1.072  0.5895  0.1637 -0.9727
 3846TIP3   OH211543   2.223   0.031   2.475  0.1189 -0.0942 -0.4542
 3846TIP3    H111544   2.144   0.001   2.520  1.0496 -0.1097  1.2988
 3846TIP3    H211545   2.194   0.106   2.423 -1.0357 -0.0103  0.2700
 3847TIP3   OH211546   5.567   3.942   2.910  0.3057  0.1919 -0.3326
 3847TIP3    H111547   5.651   3.921   2.952 -0.1251 -0.1526  0.3699
 3847TIP3    H211548   5.514   3.981   2.980  0.5314  2.2147 -1.2225
 3848TIP3   OH211549   2.372   2.314   0.286  0.7562 -0.3914  0.3979
 3848TIP3    H111550   2.394   2.394   0.334 -0.3854 -0.5419  1.2220
 3848TIP3    H211551   2.287   2.333   0.246  1.5950 -0.3500 -1.4401
 3849TIP3   OH211552   6.309   0.848   0.672 -0.3837 -0.3811  0.5765
 3849TIP3    H111553   6.238   0.885   0.724  0.3100  2.4500 -0.3165
 3849TIP3    H211554   6.389   0.885   0.709  0.4029 -1.1366 -0.2965
 3850TIP3   OH211555   2.712   3.958   1.403  0.2614  0.2939  0.0109
 3850TIP3    H111556   2.687   3.880   1.453  1.1175  1.0847  1.7244
 3850TIP3    H211557   2.747   3.923   1.321 -1.3779 -1.0272 -0.1803
 3851TIP3   OH211558   5.518   3.717   3.599 -0.0376 -0.6478 -0.6612
 3851TIP3    H111559   5.443   3.761   3.638  0.0625 -1.1938  0.1643
 3851TIP3    H211560   5.566   3.787   3.554  0.4322  0.2232  1.0979
 3852TIP3   OH211561   4.918   5.929   3.015 -0.1678  0.4546  0.7641
 3852TIP3    H111562   4.935   5.998   3.078 -0.5730 -0.4903  1.9322
 3852TIP3    H211563   4.950   5.849   3.057 -0.3888 -0.1864 -0.2490
 3853TIP3   OH211564   4.434   3.302   2.818  0.0363 -0.6514  0.6508
 3853TIP3    H111565   4.363   3.339   2.869  0.0645  0.8658 -0.3577
 3853TIP3    H211566   4.400   3.218   2.787 -0.9228 -0.4231  1.0493
 3854TIP3   OH211567   4.493   1.454   1.670  0.1050 -0.1152  0.2936
 3854TIP3    H111568   4.565   1.418   1.723  0.7603  0.3770 -0.2393
 3854TIP3    H211569   4.533   1.470   1.584 -1.0684 -1.4171 -0.5403
 3855TIP3   OH211570   0.377   2.245   3.030  0.5682  0.1985 -0.4092
 3855TIP3    H111571   0.323   2.204   3.097  1.8944 -0.8028  0.0924
 3855TIP3    H211572   0.315   2.288   2.971 -0.8183 -1.5704 -0.3015
 3856TIP3   OH211573   1.578   1.745   3.908 -0.6903 -0.5119  0.4741
 3856TIP3    H111574   1.624   1.829   3.905 -0.2265 -0.7860 -0.4918
 3856TIP3    H211575   1.504   1.760   3.967 -0.2704  0.3990  0.7848
 3857TIP3   OH211576   3.419   1.917   3.381  0.4494  0.1445  0.4981
 3857TIP3    H111577   3.513   1.935   3.378  0.5210 -0.3188 -1.4251
 3857TIP3    H211578   3.412   1.824   3.357 -0.6335  0.9792 -2.9569
 3858TIP3   OH211579   5.443   2.974   0.060  0.1462  0.2164 -0.3954
 3858TIP3    H111580   5.348   2.961   0.059  0.2106 -0.4184  0.6101
 3858TIP3    H211581   5.471   2.948  -0.027 -0.3929 -1.4101 -0.1248
 3859TIP3   OH211582   0.214   3.662   2.644 -0.4712 -0.1397  0.0029
 3859TIP3    H111583   0.218   3.576   2.601 -1.6472 -0.1573 -0.1170
 3859TIP3    H211584   0.123   3.689   2.633  0.4776  2.5725 -2.7847
 3860TIP3   OH211585   6.297   0.563   3.135  0.0294 -0.6479  0.0751
 3860TIP3    H111586   6.311   0.521   3.050  0.1377 -0.1576 -0.1504
 3860TIP3    H211587   6.278   0.654   3.114  1.5883 -0.1627  0.6504
 3861TIP3   OH211588   2.306   4.970   0.854  0.1050  0.3683  0.5202
 3861TIP3    H111589   2.380   5.024   0.884  1.3317 -0.8124 -0.2511
 3861TIP3    H211590   2.255   4.953   0.933  0.5049  1.4290  1.0253
 3862TIP3   OH211591   3.575   0.617   2.317  0.7268  0.0344  0.4908
 3862TIP3    H111592   3.547   0.534   2.355  0.9538 -0.5067 -0.4838
 3862TIP3    H211593   3.623   0.593   2.238 -2.1615  1.1468 -1.7784
 3863TIP3   OH211594   4.525   0.354   4.291  0.3170  0.8765  0.0213
 3863TIP3    H111595   4.519   0.265   4.325  0.7130  0.4753 -0.9260
 3863TIP3    H211596   4.524   0.410   4.369 -3.6048  0.3071  0.6138
 3864TIP3   OH211597   3.634   2.996   3.768  0.0383 -0.7465 -0.0509
 3864TIP3    H111598   3.676   2.929   3.822  1.0356 -0.2397 -0.1520
 3864TIP3    H211599   3.600   3.060   3.831  1.1202 -0.2020  0.0055
 3865TIP3   OH211600   2.732   5.604   4.532 -0.1552  0.2545 -0.1167
 3865TIP3    H111601   2.751   5.685   4.579 -1.6189  0.5544  0.0148
 3865TIP3    H211602   2.736   5.535   4.599 -0.4485  0.4335  0.0863
 3866TIP3   OH211603   2.069   0.347   2.173 -0.0883  0.3357  0.0320
 3866TIP3    H111604   2.056   0.424   2.118  1.8708  1.8052  1.4883
 3866TIP3    H211605   2.149   0.306   2.139 -0.1119 -0.0214  0.3963
 3867TIP3   OH211606   0.721   1.364   0.779 -0.1436 -0.1547 -0.3379
 3867TIP3    H111607   0.687   1.276   0.765 -0.0005 -0.0368 -1.5107
 3867TIP3    H211608   0.815   1.355   0.767 -0.1507  0.1931 -0.6674
 3868TIP3   OH211609   0.552   3.919   0.766  0.1451  0.2922 -0.5345
 3868TIP3    H111610   0.515   3.840   0.728  1.4826 -0.8707  0.4833
 3868TIP3    H211611   0.476   3.965   0.803 -0.3773 -2.1357  1.7118
 3869TIP3   OH211612   3.779   3.573   3.238  0.5352  0.2384  0.5523
 3869TIP3    H111613   3.773   3.551   3.331 -0.7098  0.8940  0.6579
 3869TIP3    H211614   3.742   3.662   3.232  2.9374  1.2617 -0.2214
 3870TIP3   OH211615   2.840   0.549   4.434  0.1199 -0.0852 -0.2463
 3870TIP3    H111616   2.746   0.549   4.419 -0.0851 -2.7477  0.6557
 3870TIP3    H211617   2.874   0.483   4.374  1.3849  0.5075 -0.2160
 3871TIP3   OH211618   1.202   2.369   2.879  0.8910  0.1612 -0.0171
 3871TIP3    H111619   1.168   2.425   2.810 -0.4691  1.3071  1.4998
 3871TIP3    H211620   1.189   2.280   2.847 -0.0738  0.6592 -1.0744
 3872TIP3   OH211621   6.002   3.933   0.600 -0.0315 -0.2222 -0.5816
 3872TIP3    H111622   6.082   3.949   0.551 -1.0915 -0.0681 -2.3512
 3872TIP3    H211623   5.934   3.981   0.552 -1.0072  0.6923  1.5696
 3873TIP3   OH211624   1.399   0.159   3.133 -0.0507  0.1016  0.0575
 3873TIP3    H111625   1.429   0.216   3.062  0.4724  1.3195  1.1935
 3873TIP3    H211626   1.368   0.080   3.090  3.1888 -0.5510 -1.3882
 3874TIP3   OH211627   0.848   0.263   0.123 -0.0850  0.1429  0.2145
 3874TIP3    H111628   0.839   0.180   0.077 -1.8144  0.2315  0.3581
 3874TIP3    H211629   0.810   0.328   0.065 -0.9278  0.4713  1.1097
 3875TIP3   OH211630   2.369   0.623   0.044  0.6973  0.0337 -0.2291
 3875TIP3    H111631   2.312   0.547   0.028  0.5359 -0.0785  0.8372
 3875TIP3    H211632   2.391   0.654  -0.044 -1.2591  0.2662 -0.6976
 3876TIP3   OH211633   0.097   1.596   4.296 -0.6893  0.9440 -0.4652
 3876TIP3    H111634   0.167   1.635   4.348  0.4283 -0.3639 -0.9199
 3876TIP3    H211635   0.016   1.624   4.339  0.0062  3.7948 -0.8335
 3877TIP3   OH211636   3.258   3.587   4.788  0.4864 -0.3935 -0.4885
 3877TIP3    H111637   3.306   3.616   4.711  0.2118 -1.1749 -0.9731
 3877TIP3    H211638   3.177   3.639   4.787  0.2487 -0.7592 -1.0289
 3878TIP3   OH211639   4.477   5.627   0.667  0.1892  0.2277  0.5256
 3878TIP3    H111640   4.482   5.587   0.753  1.7674  0.1425  0.4169
 3878TIP3    H211641   4.568   5.636   0.638 -0.3010  0.1091 -1.2021
 3879TIP3   OH211642   5.742   0.771   1.018 -0.0743 -0.7335  0.4854
 3879TIP3    H111643   5.747   0.826   1.096  0.4932 -1.0378  0.6690
 3879TIP3    H211644   5.727   0.682   1.052 -0.4420 -0.7771  0.2177
 3880TIP3   OH211645   1.845   0.542   1.107 -0.1300 -0.3520 -0.1949
 3880TIP3    H111646   1.763   0.577   1.073 -0.7495  0.8600  2.2787
 3880TIP3    H211647   1.823   0.514   1.196  2.4769  1.6158  1.1915
 3881TIP3   OH211648   0.525   2.841   0.196  0.2859  0.3435 -0.2758
 3881TIP3    H111649   0.475   2.771   0.239  0.4647  0.7707  0.6535
 3881TIP3    H211650   0.527   2.912   0.261 -0.3849  1.4372 -1.4073
 3882TIP3   OH211651   0.843   0.289   0.599  0.5707 -0.2815 -0.1361
 3882TIP3    H111652   0.750   0.286   0.573 -0.5254  0.0994  3.2985
 3882TIP3    H211653   0.884   0.345   0.533 -2.2098  1.7454 -0.3284
 3883TIP3   OH211654   3.027   5.553   4.690 -0.1437 -0.5383  0.5387
 3883TIP3    H111655   3.006   5.581   4.779  0.7893  1.0839  0.2922
 3883TIP3    H211656   2.973   5.476   4.675 -1.1504 -0.1694  2.1057
 3884TIP3   OH211657   4.931   3.359   3.897  0.2015  0.6731  0.0536
 3884TIP3    H111658   5.013   3.344   3.850  0.4547  1.0071  0.3795
 3884TIP3    H211659   4.863   3.329   3.838  0.2437  4.0215 -1.9744
 3885TIP3   OH211660   2.716   5.106   2.522 -0.4670  0.8422 -0.5682
 3885TIP3    H111661   2.698   5.200   2.523  1.0711  1.2271 -2.5137
 3885TIP3    H211662   2.633   5.066   2.498 -1.1422  1.6714  0.2679
 3886TIP3   OH211663   4.353   2.680   0.913 -0.3528  0.3610 -0.3041
 3886TIP3    H111664   4.434   2.671   0.963 -0.4970 -1.3970 -0.3196
 3886TIP3    H211665   4.379   2.672   0.822 -0.3319  1.6971 -0.4364
 3887TIP3   OH211666   4.822   4.610   0.660  0.1537  0.2443  0.3266
 3887TIP3    H111667   4.897   4.551   0.663  0.3247  0.4980  1.1166
 3887TIP3    H211668   4.819   4.650   0.747 -1.0829 -0.0057  0.4258
 3888TIP3   OH211669   6.018   1.910   3.314 -0.2763 -0.0791  0.2247
 3888TIP3    H111670   5.972   1.986   3.277 -0.3779  0.7502  1.9337
 3888TIP3    H211671   6.109   1.922   3.288 -0.5089 -0.1333 -0.6698
 3889TIP3   OH211672   0.275   5.368   5.089 -0.3164 -0.0411  0.4457
 3889TIP3    H111673   0.208   5.318   5.135 -1.4558  0.1011 -0.9952
 3889TIP3    H211674   0.261   5.458   5.116 -0.6359 -0.0303  0.2479
 3890TIP3   OH211675   4.818   3.671   1.835 -0.3159  0.2089 -0.5755
 3890TIP3    H111676   4.733   3.689   1.794 -0.1889 -0.7970 -1.3323
 3890TIP3    H211677   4.845   3.755   1.873 -0.8647  0.9529 -1.7764
 3891TIP3   OH211678   5.863   4.407   4.905  0.3175 -0.0974  0.2104
 3891TIP3    H111679   5.907   4.467   4.966  0.3368  0.0906  0.0112
 3891TIP3    H211680   5.933   4.349   4.875  0.2309 -0.4448  0.6713
 3892TIP3   OH211681   4.788   4.695   2.705  0.0819  0.0692  0.3073
 3892TIP3    H111682   4.804   4.616   2.654  1.9071 -0.3533  1.4575
 3892TIP3    H211683   4.693   4.704   2.706 -0.0942 -1.1224 -1.2732
 3893TIP3   OH211684   2.873   3.433   3.963  0.1797 -0.2468  0.3262
 3893TIP3    H111685   2.891   3.354   3.912  0.9609  1.0391 -1.4868
 3893TIP3    H211686   2.827   3.491   3.903 -0.9101  0.4967  1.8086
 3894TIP3   OH211687   4.179   5.433   4.466  0.3358 -0.2577  0.3226
 3894TIP3    H111688   4.217   5.352   4.431  1.2541  0.3303 -0.0717
 3894TIP3    H211689   4.107   5.453   4.406  0.1928 -0.7083  0.3395
 3895TIP3   OH211690   3.412   5.220   2.223  0.2553 -0.2218  0.4410
 3895TIP3    H111691   3.349   5.233   2.153  0.3628  0.9072  0.5300
 3895TIP3    H211692   3.359   5.217   2.303  0.2257 -0.3619  0.4158
 3896TIP3   OH211693   5.567   4.930   0.452 -0.0154 -0.3537 -0.2568
 3896TIP3    H111694   5.527   5.017   0.448 -0.1740 -0.2583  2.0205
 3896TIP3    H211695   5.659   4.946   0.434 -0.3129  0.0248 -1.5132
 3897TIP3   OH211696   5.490   1.486   4.012 -0.3141  0.0451 -0.5815
 3897TIP3    H111697   5.526   1.567   3.975  1.9998 -2.1706 -3.7279
 3897TIP3    H211698   5.430   1.454   3.945 -0.2201 -1.4731  0.0350
 3898TIP3   OH211699   0.176   2.666   1.917 -0.1096  0.8045 -0.5524
 3898TIP3    H111700   0.151   2.747   1.873  1.2563  0.9014 -1.1960
 3898TIP3    H211701   0.191   2.603   1.846 -1.0635 -0.0011 -0.0699
 3899TIP3   OH211702   3.051   5.292   4.084 -0.4723  0.1860 -0.0269
 3899TIP3    H111703   3.049   5.280   4.179 -0.0279 -0.3439 -0.0832
 3899TIP3    H211704   2.976   5.350   4.066  0.1532  1.2983  0.7836
 3900TIP3   OH211705   4.824   3.687   4.814 -0.2003  0.3610  0.5557
 3900TIP3    H111706   4.741   3.717   4.851 -0.1456  2.5595 -0.9310
 3900TIP3    H211707   4.872   3.650   4.889 -1.7346  0.8141  1.8016
 3901TIP3   OH211708   3.310   5.304   4.698  0.2001 -0.5026 -0.1485
 3901TIP3    H111709   3.404   5.284   4.704  0.7651  1.8415 -0.0549
 3901TIP3    H211710   3.283   5.268   4.613  1.7977  0.8275 -1.2960
 3902TIP3   OH211711   0.496   4.739   3.671 -0.3640 -0.4196  0.1084
 3902TIP3    H111712   0.454   4.668   3.622 -1.4743  0.6790 -0.6085
 3902TIP3    H211713   0.483   4.816   3.616  0.0076  0.5026  1.2824
 3903TIP3   OH211714   1.412   2.502   3.690  0.6515  0.1088 -0.1631
 3903TIP3    H111715   1.475   2.559   3.735 -1.0589  0.9696  1.2336
 3903TIP3    H211716   1.351   2.562   3.647  0.5760 -0.7164 -1.2531
 3904TIP3   OH211717   5.250   2.920   4.426  0.6169 -0.4202  0.3754
 3904TIP3    H111718   5.220   2.960   4.344  1.0109 -0.2824  0.2939
 3904TIP3    H211719   5.176   2.931   4.486  0.1381 -0.9597 -0.0998
 3905TIP3   OH211720   2.761   4.650   0.934  0.3941  0.0587 -0.4329
 3905TIP3    H111721   2.741   4.571   0.884  0.6316  0.8421 -1.8358
 3905TIP3    H211722   2.677   4.692   0.948  0.4969  1.0592 -2.3753
 3906TIP3   OH211723   5.925   2.929   2.714 -0.1340 -0.2596  0.3413
 3906TIP3    H111724   5.944   3.000   2.653  2.0553 -0.0492  1.1986
 3906TIP3    H211725   5.861   2.965   2.774  0.7290  0.9250  0.5925
 3907TIP3   OH211726   2.860   1.888   0.242  0.2985  0.6165 -0.1550
 3907TIP3    H111727   2.849   1.881   0.147 -0.8541 -0.3137  0.0241
 3907TIP3    H211728   2.884   1.800   0.270  0.7555  0.9187  0.4076
 3908TIP3   OH211729   5.363   1.927   4.556  0.1389  0.2003 -0.4720
 3908TIP3    H111730   5.398   1.852   4.508 -0.6914  0.0294 -0.8296
 3908TIP3    H211731   5.375   2.001   4.496 -0.6056  0.0417 -0.8379
 3909TIP3   OH211732   4.159   2.352   4.462 -0.0010 -0.0479 -0.4616
 3909TIP3    H111733   4.207   2.272   4.439 -1.3924 -0.6250 -1.4280
 3909TIP3    H211734   4.074   2.344   4.419 -0.1520  2.0099 -0.6823
 3910TIP3   OH211735   2.784   3.468   0.760  0.3760  0.6004  0.7966
 3910TIP3    H111736   2.840   3.450   0.685 -0.0731 -0.0078  0.6025
 3910TIP3    H211737   2.792   3.390   0.815 -0.5164  0.3724  0.6159
 3911TIP3   OH211738   0.283   2.069   3.298  0.1998 -0.1578 -0.0013
 3911TIP3    H111739   0.252   1.979   3.298 -0.6705  0.1326 -0.6714
 3911TIP3    H211740   0.360   2.068   3.355 -0.7361 -0.9940  1.2939
 3912TIP3   OH211741   2.449   3.247   1.886  0.6447  0.5172 -0.4218
 3912TIP3    H111742   2.521   3.190   1.915  0.3170  0.3834  0.1338
 3912TIP3    H211743   2.428   3.215   1.798 -0.5085 -1.2085  0.4233
 3913TIP3   OH211744   4.091   4.752   4.413  0.3364  0.7115  0.1669
 3913TIP3    H111745   4.099   4.707   4.498  0.3965 -2.6525 -1.4486
 3913TIP3    H211746   4.161   4.817   4.414  2.6335 -1.5643  1.4561
 3914TIP3   OH211747   0.725   1.433   2.738 -0.6423  0.4618 -0.0812
 3914TIP3    H111748   0.804   1.462   2.692 -0.7250  0.1983 -0.3931
 3914TIP3    H211749   0.754   1.413   2.827  0.0382 -1.5118 -0.7135
 3915TIP3   OH211750   3.692   0.178   4.003  0.5347 -0.0684 -0.4674
 3915TIP3    H111751   3.757   0.248   4.000 -1.5522  2.1184  0.8926
 3915TIP3    H211752   3.609   0.222   3.982 -0.6544 -2.5341 -1.3070
 3916TIP3   OH211753   5.656   1.728   2.961 -0.3371 -0.2893 -0.2075
 3916TIP3    H111754   5.660   1.680   2.879 -0.7781  0.1767 -0.5060
 3916TIP3    H211755   5.717   1.800   2.950 -1.3684  0.5395 -0.6400
 3917TIP3   OH211756   3.423   3.875   1.369 -0.0075 -0.0382  0.1480
 3917TIP3    H111757   3.484   3.945   1.347  0.7233 -0.5549  0.4926
 3917TIP3    H211758   3.383   3.851   1.286 -0.8015  1.2654  0.1283
 3918TIP3   OH211759   0.189   0.551   3.256  0.0590 -0.1873 -0.1312
 3918TIP3    H111760   0.121   0.579   3.195 -0.6727  0.1487  0.8248
 3918TIP3    H211761   0.168   0.593   3.339  1.3360 -0.2187  0.2442
 3919TIP3   OH211762   3.198   1.764   3.962  0.8332  0.2736  0.2634
 3919TIP3    H111763   3.232   1.782   3.874  0.0702  1.8607  0.2563
 3919TIP3    H211764   3.269   1.719   4.007  0.8205 -1.6808 -1.5088
 3920TIP3   OH211765   0.924   0.841   0.760  0.0693  0.4884  0.2284
 3920TIP3    H111766   0.897   0.862   0.671 -0.3271 -1.2269 -0.0941
 3920TIP3    H211767   1.002   0.786   0.749 -1.1240 -1.4100  0.8213
 3921TIP3   OH211768   3.044   0.532   4.616 -0.7274 -0.1622 -0.0166
 3921TIP3    H111769   2.967   0.558   4.565  0.3746 -0.4207 -1.9150
 3921TIP3    H211770   3.114   0.591   4.586  0.0066 -0.4370  1.0982
 3922TIP3   OH211771   1.302   3.151   2.758  0.6398 -0.2796 -0.1796
 3922TIP3    H111772   1.249   3.208   2.703  0.4956 -0.4582 -0.2255
 3922TIP3    H211773   1.241   3.114   2.821  0.9126  0.3953  0.4894
 3923TIP3   OH211774   4.534   5.409   2.054 -0.1952 -0.2824  0.1659
 3923TIP3    H111775   4.480   5.484   2.027 -0.3210 -0.2390  0.5351
 3923TIP3    H211776   4.513   5.341   1.990  0.8082  0.3701 -0.8850
 3924TIP3   OH211777   1.323   3.689   2.420 -0.0510  0.0030  0.9373
 3924TIP3    H111778   1.295   3.633   2.493 -0.2835 -0.6159  0.3778
 3924TIP3    H211779   1.258   3.673   2.351  0.8919 -0.4157  0.1191
 3925TIP3   OH211780   6.162   4.335   0.169  0.0678  0.0119 -0.5279
 3925TIP3    H111781   6.133   4.389   0.243 -2.1738  1.4074 -2.2753
 3925TIP3    H211782   6.190   4.252   0.209  1.6589  1.6650  2.0705
 3926TIP3   OH211783   0.012   0.543   0.011  0.1958 -0.0827  0.1275
 3926TIP3    H111784  -0.025   0.545   0.100 -0.0391 -0.5316  0.0399
 3926TIP3    H211785   0.022   0.635  -0.012  2.1900  0.1102  1.4264
 3927TIP3   OH211786   3.764   2.821   0.134 -0.4058  0.1835  0.1618
 3927TIP3    H111787   3.816   2.859   0.204 -2.0482  0.2555  1.3951
 3927TIP3    H211788   3.736   2.736   0.168 -2.2909  0.7624  0.1550
 3928TIP3   OH211789   1.530   4.785   4.322  0.6588 -0.1043 -0.2504
 3928TIP3    H111790   1.473   4.736   4.264  1.3800 -1.5286  0.2078
 3928TIP3    H211791   1.605   4.808   4.267 -0.0589  1.2844 -0.6996
 3929TIP3   OH211792   5.765   5.167   2.901  0.2823 -0.2223 -0.7764
 3929TIP3    H111793   5.753   5.237   2.837  1.8125  0.8087  0.0107
 3929TIP3    H211794   5.852   5.182   2.938  0.5131 -2.3304 -0.3055
 3930TIP3   OH211795   0.697   0.418   4.498 -0.0031 -0.3612 -0.1528
 3930TIP3    H111796   0.611   0.388   4.525  0.3240 -0.2621  1.0413
 3930TIP3    H211797   0.746   0.338   4.478 -0.3163 -0.4208 -0.7187
 3931TIP3   OH211798   6.314   5.338   3.005  0.0972  0.8380 -0.4257
 3931TIP3    H111799   6.372   5.324   2.930 -0.2170  1.7614 -0.8680
 3931TIP3    H211800   6.284   5.429   2.995 -2.2444  0.0977 -0.8170
 3932TIP3   OH211801   3.153   2.832   3.552  0.2609 -0.1752  0.1893
 3932TIP3    H111802   3.207   2.755   3.571  0.6708  0.3283  1.1585
 3932TIP3    H211803   3.083   2.800   3.495 -0.4557 -1.5877  1.7935
 3933TIP3   OH211804   2.683   5.215   0.668 -0.5972  0.0191 -0.3450
 3933TIP3    H111805   2.774   5.185   0.658 -0.8741 -0.9129 -0.1597
 3933TIP3    H211806   2.665   5.207   0.761 -0.4136  1.6139 -0.1470
 3934TIP3   OH211807   1.741   4.874   4.185  0.0752  0.6959 -0.5255
 3934TIP3    H111808   1.794   4.954   4.192 -0.8116  1.3058 -0.5247
 3934TIP3    H211809   1.702   4.880   4.098  2.2619 -1.2231 -1.7494
 3935TIP3   OH211810   0.211   3.538   1.344 -0.5434 -0.2417 -0.4845
 3935TIP3    H111811   0.126   3.549   1.388 -1.3815 -0.0834 -2.0779
 3935TIP3    H211812   0.216   3.445   1.324  0.7387 -0.6905  1.6092
 3936TIP3   OH211813   5.324   4.211   4.048 -0.0622  0.6796  0.2394
 3936TIP3    H111814   5.261   4.174   3.987 -0.3493  0.3383  0.7334
 3936TIP3    H211815   5.312   4.306   4.042 -0.6552  0.6147  0.3647
 3937TIP3   OH211816   1.243   4.706   2.934 -0.5395  0.1125 -0.8673
 3937TIP3    H111817   1.330   4.691   2.971 -1.6834 -0.1346  2.0075
 3937TIP3    H211818   1.245   4.661   2.850  1.2102 -2.5095  0.4353
 3938TIP3   OH211819   2.553   3.409   0.213 -0.6876  0.0410  0.3787
 3938TIP3    H111820   2.472   3.358   0.226 -0.3652 -0.7724 -0.6216
 3938TIP3    H211821   2.525   3.487   0.167 -1.1243  0.5665  1.5004
 3939TIP3   OH211822   4.301   1.978   0.792  0.0659 -0.2134  0.9076
 3939TIP3    H111823   4.242   1.903   0.795 -0.3893  0.1576  3.3654
 3939TIP3    H211824   4.243   2.053   0.779  0.6433 -0.2284 -3.6560
 3940TIP3   OH211825   4.914   1.613   4.196 -0.1339 -0.5285 -0.0336
 3940TIP3    H111826   4.963   1.584   4.119 -0.7478 -1.0534 -0.2335
 3940TIP3    H211827   4.958   1.570   4.269  0.2837 -0.2430 -0.1118
 3941TIP3   OH211828   2.805   2.108   3.665 -0.3142 -0.2249 -0.4527
 3941TIP3    H111829   2.798   2.025   3.619 -1.5049 -0.4798  0.1519
 3941TIP3    H211830   2.716   2.126   3.697 -0.2355  1.6042 -1.1390
 3942TIP3   OH211831   1.159   1.059   1.241 -0.0263  0.0069  0.1155
 3942TIP3    H111832   1.240   1.035   1.285  0.2831 -0.2118 -0.5657
 3942TIP3    H211833   1.104   1.096   1.310  1.2230  1.6419  0.2936
 3943TIP3   OH211834   1.159   5.926   2.207  0.0614  0.0290  0.0805
 3943TIP3    H111835   1.200   5.983   2.141  0.9276  0.2019  0.7517
 3943TIP3    H211836   1.231   5.873   2.241 -0.2369  0.4247  1.3737
 3944TIP3   OH211837   5.135   0.427   4.251 -0.2480 -0.0603  0.0762
 3944TIP3    H111838   5.149   0.486   4.325 -1.5070  1.1463 -0.5936
 3944TIP3    H211839   5.196   0.458   4.185 -1.9249  1.5614 -0.8202
 3945TIP3   OH211840   2.738   0.678   1.122 -0.0173 -0.0700 -0.6514
 3945TIP3    H111841   2.649   0.665   1.155  0.4838 -0.9545  0.4144
 3945TIP3    H211842   2.757   0.597   1.074  1.1462 -1.0676  1.3802
 3946TIP3   OH211843   5.571   4.474   3.261 -0.4838 -0.9791 -0.3113
 3946TIP3    H111844   5.514   4.447   3.189 -0.3562 -0.6910 -0.5208
 3946TIP3    H211845   5.659   4.474   3.224 -0.3421 -1.4084  0.0075
 3947TIP3   OH211846   4.533   5.182   1.890 -0.3688 -0.2705  0.1265
 3947TIP3    H111847   4.466   5.219   1.832  0.2445 -0.0452 -0.4582
 3947TIP3    H211848   4.607   5.164   1.832  0.4832  0.5154  0.9393
 3948TIP3   OH211849   5.589   2.227   0.033 -0.2507  0.0859 -0.2848
 3948TIP3    H111850   5.569   2.227   0.126  1.0494  0.6794  0.0183
 3948TIP3    H211851   5.626   2.314   0.016  1.2645 -0.6460 -0.9326
 3949TIP3   OH211852   4.349   3.160   4.138 -0.0294 -0.3789  0.2140
 3949TIP3    H111853   4.423   3.219   4.153 -1.1081  1.1064 -0.0393
 3949TIP3    H211854   4.353   3.097   4.209  0.3757  0.8659  1.3314
 3950TIP3   OH211855   0.167   2.396   1.825 -0.4777 -0.4105 -0.2020
 3950TIP3    H111856   0.168   2.306   1.856  0.3485  0.0182  1.0890
 3950TIP3    H211857   0.247   2.405   1.773 -0.6389 -0.4538 -0.4621
 3951TIP3   OH211858   1.828   5.787   4.093 -0.0128  0.5184 -0.1291
 3951TIP3    H111859   1.782   5.869   4.073 -0.4508  0.0889 -0.9721
 3951TIP3    H211860   1.851   5.793   4.186 -0.2921  1.4698 -0.1180
 3952TIP3   OH211861   0.955   0.763   3.495  0.1791  0.3279 -0.1445
 3952TIP3    H111862   0.911   0.846   3.510  1.8567  0.9942  1.5229
 3952TIP3    H211863   1.013   0.780   3.420  1.4129  1.1064  0.9335
 3953TIP3   OH211864   3.230   4.174   0.274 -0.2933  0.1954  0.2279
 3953TIP3    H111865   3.281   4.167   0.192 -1.1544  0.9373 -0.3886
 3953TIP3    H211866   3.297   4.179   0.343  0.4491 -1.6540 -0.3005
 3954TIP3   OH211867   5.259   0.197   4.998 -0.4243  0.0848 -0.1188
 3954TIP3    H111868   5.343   0.230   4.966  0.2365 -0.9529  0.4972
 3954TIP3    H211869   5.216   0.273   5.036  0.4119  0.5521 -0.0759
 3955TIP3   OH211870   1.138   1.555   1.876 -0.1136 -0.0065 -0.0119
 3955TIP3    H111871   1.150   1.635   1.926 -0.2462  0.9541 -1.4396
 3955TIP3    H211872   1.044   1.552   1.857 -0.2523 -0.9687  0.7433
 3956TIP3   OH211873   0.186   0.404   4.977 -0.2334  0.2486 -0.3869
 3956TIP3    H111874   0.281   0.389   4.977 -0.1649  0.6749 -0.0255
 3956TIP3    H211875   0.165   0.426   5.067 -0.6535  0.3189 -0.5017
 3957TIP3   OH211876   1.884   5.818   4.391 -0.2492  0.1656 -0.3244
 3957TIP3    H111877   1.946   5.887   4.366  1.5132 -1.4454 -0.6612
 3957TIP3    H211878   1.814   5.864   4.437 -0.1425  2.4119 -2.1896
 3958TIP3   OH211879   4.862   5.763   2.801  0.1369  0.0917  0.3551
 3958TIP3    H111880   4.876   5.823   2.873  0.0969 -0.3316  0.7215
 3958TIP3    H211881   4.769   5.773   2.778  0.9014  2.8538 -2.0349
 3959TIP3   OH211882   1.989   0.295   2.932 -0.0725  0.1285 -0.5385
 3959TIP3    H111883   2.016   0.359   2.866 -0.0583 -0.7062 -1.3539
 3959TIP3    H211884   2.070   0.257   2.965 -0.0616  0.7619  0.2051
 3960TIP3   OH211885   3.667   4.477   3.166 -0.4148  0.5745  0.4192
 3960TIP3    H111886   3.719   4.397   3.164 -0.2403  0.6969 -0.3720
 3960TIP3    H211887   3.612   4.472   3.087 -2.5441 -0.1516  1.8714
 3961TIP3   OH211888   2.200   1.948   0.046 -0.0636  0.4791  0.1504
 3961TIP3    H111889   2.158   1.876   0.094  0.1148 -0.4034 -0.9667
 3961TIP3    H211890   2.256   1.990   0.111  0.6077 -1.0309  0.5916
 3962TIP3   OH211891   3.653   1.936   1.534  0.2318  0.1906 -0.0524
 3962TIP3    H111892   3.569   1.963   1.570  0.7350  0.6531  0.8140
 3962TIP3    H211893   3.649   1.841   1.531  0.6286  0.0403  2.4370
 3963TIP3   OH211894   3.104   4.962   0.840  0.4800  0.0688  0.3676
 3963TIP3    H111895   3.119   5.028   0.908  0.0346 -1.5282  2.1194
 3963TIP3    H211896   3.063   4.889   0.887  0.5941 -1.2964 -1.5488
 3964TIP3   OH211897   2.841   2.623   4.426  0.1042  0.1387 -0.5454
 3964TIP3    H111898   2.860   2.713   4.452 -0.4272  0.0201  0.2798
 3964TIP3    H211899   2.912   2.600   4.366  1.2866  0.4669  0.6816
 3965TIP3   OH211900   5.338   2.901   2.822  0.1901 -0.5543  0.0973
 3965TIP3    H111901   5.296   2.863   2.899 -0.6292  1.2392  0.5849
 3965TIP3    H211902   5.428   2.870   2.826  0.2342 -0.2785  1.9459
 3966TIP3   OH211903   3.150   1.362   1.503 -0.9268  0.0263 -0.4990
 3966TIP3    H111904   3.204   1.385   1.578  2.5950  1.5607 -3.2389
 3966TIP3    H211905   3.147   1.266   1.503  1.0704 -0.0612  0.2895
 3967TIP3   OH211906   4.542   1.217   5.069  0.4604 -0.1425 -0.2541
 3967TIP3    H111907   4.487   1.245   5.142 -0.4239 -0.4769 -0.7806
 3967TIP3    H211908   4.497   1.141   5.033  1.7573 -0.9959 -0.1275
 3968TIP3   OH211909   1.200   1.838   3.524 -0.7505  0.0784  0.1695
 3968TIP3    H111910   1.131   1.902   3.506 -2.2856 -2.0964 -2.3217
 3968TIP3    H211911   1.159   1.753   3.512  2.1118 -1.3556 -0.4811
 3969TIP3   OH211912   0.366   4.328   4.961  0.0219  0.3377 -0.9409
 3969TIP3    H111913   0.282   4.372   4.965  0.1362  0.5731 -1.1132
 3969TIP3    H211914   0.410   4.352   5.043 -0.5898 -0.8334 -0.2484
 3970TIP3   OH211915   1.400   4.591   0.634  0.6860 -0.8442  0.1560
 3970TIP3    H111916   1.458   4.667   0.644 -1.0860  0.5738  0.2893
 3970TIP3    H211917   1.342   4.615   0.562 -0.8422 -1.4514  1.1506
 3971TIP3   OH211918   2.447   4.561   5.015 -0.6446 -0.3919 -0.3606
 3971TIP3    H111919   2.369   4.615   5.000 -0.6865 -0.2999  0.1503
 3971TIP3    H211920   2.521   4.622   5.007 -0.6011 -0.5483 -1.1852
 3972TIP3   OH211921   2.604   0.823   4.153  0.2093  0.1596 -0.2862
 3972TIP3    H111922   2.670   0.810   4.221  1.3907  0.9334 -1.2437
 3972TIP3    H211923   2.629   0.761   4.085  0.0245  0.5461 -0.7089
 3973TIP3   OH211924   2.956   3.377   0.556  0.1792 -0.2397 -0.2488
 3973TIP3    H111925   3.013   3.369   0.632 -0.8157  1.8500  0.8225
 3973TIP3    H211926   3.010   3.419   0.489  1.0587 -2.0815 -0.7567
 3974TIP3   OH211927   4.474   4.838   3.058 -1.0413 -0.1392 -0.1813
 3974TIP3    H111928   4.408   4.853   3.126 -0.9178 -1.3831  0.2523
 3974TIP3    H211929   4.480   4.743   3.051 -0.9156 -0.0423 -1.8306
 3975TIP3   OH211930   2.675   4.485   4.780  0.1077 -0.0924  0.3444
 3975TIP3    H111931   2.676   4.414   4.844  0.2750 -0.7488 -0.3781
 3975TIP3    H211932   2.623   4.451   4.707  0.6658  0.3086 -0.2464
 3976TIP3   OH211933   4.109   3.249   3.590 -0.4418 -0.7294 -0.1867
 3976TIP3    H111934   4.023   3.274   3.623  0.2146 -0.4671  1.4156
 3976TIP3    H211935   4.160   3.228   3.669  1.3586  0.3906 -0.9971
 3977TIP3   OH211936   1.218   5.340   5.003  0.6094 -0.2587  0.0528
 3977TIP3    H111937   1.267   5.273   5.052  1.0926  0.5002  0.6389
 3977TIP3    H211938   1.212   5.414   5.064  0.7788  0.5225 -0.8656
 3978TIP3   OH211939   0.188   2.267   2.851 -0.0554 -0.0915  0.0465
 3978TIP3    H111940   0.141   2.183   2.851 -0.0761 -0.0874  0.6029
 3978TIP3    H211941   0.234   2.270   2.767  0.9224 -1.2121  0.5160
 3979TIP3   OH211942   2.531   5.756   4.414  0.0067  0.2101  0.2973
 3979TIP3    H111943   2.563   5.667   4.429 -1.4697 -0.6855 -1.4371
 3979TIP3    H211944   2.498   5.785   4.499  1.0315 -0.6609  1.0084
 3980TIP3   OH211945   6.240   3.988   0.935 -0.0506  0.5379 -0.7214
 3980TIP3    H111946   6.252   3.906   0.983  1.6759  1.7376  1.0627
 3980TIP3    H211947   6.290   3.976   0.854 -1.3174 -0.7847 -1.3435
 3981TIP3   OH211948   1.507   5.052   1.482  0.0776  0.3398 -0.1091
 3981TIP3    H111949   1.447   5.057   1.407 -1.8409  0.3467  1.3723
 3981TIP3    H211950   1.526   5.143   1.504  0.4645  0.3388 -0.4106
 3982TIP3   OH211951   2.899   5.087   4.527  0.5698  0.6309 -0.3767
 3982TIP3    H111952   2.816   5.049   4.496  1.3348 -0.0190 -1.7544
 3982TIP3    H211953   2.966   5.029   4.491  1.5929  0.1744  2.1150
 3983TIP3   OH211954   1.768   2.772   5.146  0.5470 -0.0011  0.3940
 3983TIP3    H111955   1.842   2.711   5.149 -0.3406 -1.0700  2.8186
 3983TIP3    H211956   1.690   2.716   5.144 -0.2595  1.0547  0.9165
 3984TIP3   OH211957   3.055   1.848   4.193  0.1018  0.4510 -0.1052
 3984TIP3    H111958   3.065   1.822   4.101  0.0203 -1.8486  0.4924
 3984TIP3    H211959   3.020   1.937   4.188 -1.9185 -0.3536 -2.3383
 3985TIP3   OH211960   2.560   0.091   0.137  0.0061 -0.1632  0.1462
 3985TIP3    H111961   2.569   0.166   0.196  0.3308 -0.7829  0.9167
 3985TIP3    H211962   2.571   0.015   0.194  0.6501 -0.7842 -0.7757
 3986TIP3   OH211963   2.336   1.935   4.270 -0.4151  0.3042  0.1305
 3986TIP3    H111964   2.385   1.971   4.196 -0.2472  1.4020  0.7532
 3986TIP3    H211965   2.253   1.906   4.233 -0.8821  2.0836 -0.2841
 3987TIP3   OH211966   5.769   1.485   4.114  0.1361  0.4210 -0.2258
 3987TIP3    H111967   5.831   1.415   4.095  1.6850  1.7997 -0.4474
 3987TIP3    H211968   5.701   1.475   4.048 -0.7521 -2.0333  0.9183
 3988TIP3   OH211969   0.188   4.528   0.208  0.2769  0.3981 -0.1543
 3988TIP3    H111970   0.186   4.601   0.147 -1.9354 -0.7271 -1.5669
 3988TIP3    H211971   0.277   4.494   0.201  0.9090  2.0456 -0.5584
 3989TIP3   OH211972   3.724   2.218   0.682  0.0385 -0.1109  0.5283
 3989TIP3    H111973   3.731   2.309   0.711 -1.0247  0.3350 -0.5300
 3989TIP3    H211974   3.752   2.219   0.591 -2.1537 -0.3743 -0.2196
 3990TIP3   OH211975   3.328   3.390   1.982  0.2054 -0.1486  0.2228
 3990TIP3    H111976   3.318   3.321   2.048  1.6486 -1.1260 -0.5079
 3990TIP3    H211977   3.255   3.378   1.922 -0.2406 -0.2552  0.7877
 3991TIP3   OH211978   6.178   4.842   0.992  0.1438  0.7631  0.4548
 3991TIP3    H111979   6.189   4.933   1.021 -0.3981  0.9111  0.2182
 3991TIP3    H211980   6.132   4.849   0.908  0.2836  0.2768  0.3330
 3992TIP3   OH211981   0.692   5.466   3.386 -0.3054 -0.5304  0.3943
 3992TIP3    H111982   0.684   5.479   3.481  0.2710 -0.3353  0.4199
 3992TIP3    H211983   0.719   5.374   3.378  1.6384 -0.0055  0.5365
 3993TIP3   OH211984   5.177   3.379   2.149  0.0767 -0.6074  0.1400
 3993TIP3    H111985   5.172   3.323   2.072  1.4029 -2.2494  1.1576
 3993TIP3    H211986   5.129   3.458   2.125 -1.5604 -2.0173 -1.5077
 3994TIP3   OH211987   4.158   1.444   0.923  0.1428 -0.5622  0.1646
 3994TIP3    H111988   4.129   1.367   0.972  1.4348 -0.3228  1.3504
 3994TIP3    H211989   4.245   1.421   0.891 -0.1691 -0.2316 -0.9847
 3995TIP3   OH211990   0.448   1.303   0.338  0.2702 -0.2349  0.3740
 3995TIP3    H111991   0.397   1.317   0.258 -1.8811  0.6619  1.8006
 3995TIP3    H211992   0.538   1.321   0.313 -0.2643 -0.4772 -1.9498
 3996TIP3   OH211993   1.003   3.694   4.954  0.3715  0.0882 -0.0260
 3996TIP3    H111994   0.920   3.742   4.952 -0.4125 -1.2296 -0.5926
 3996TIP3    H211995   1.036   3.700   4.864  1.3661  1.3739  0.4082
 3997TIP3   OH211996   0.112   3.031   3.407 -0.4016  0.0787  0.1109
 3997TIP3    H111997   0.032   2.980   3.400 -0.6119  0.3863  0.2249
 3997TIP3    H211998   0.124   3.046   3.501 -0.7102  0.7972  0.0467
 3998TIP3   OH211999   0.862   2.669   3.853  0.2700 -0.3725 -0.2384
 3998TIP3    H112000   0.941   2.622   3.879  2.4629  1.9749 -2.1681
 3998TIP3    H212001   0.867   2.752   3.901 -0.5462  0.1652 -1.0425
 3999TIP3   OH212002   0.327   5.595   1.857 -0.1794 -0.2922  0.4265
 3999TIP3    H112003   0.271   5.523   1.884  1.9769 -1.8831  0.8714
 3999TIP3    H212004   0.357   5.635   1.939  1.4990 -1.2501  0.3316
 4000TIP3   OH212005   2.601   5.135   0.173 -0.5863  0.2058  0.1568
 4000TIP3    H112006   2.529   5.158   0.232 -1.1842  2.3598 -1.3091
 4000TIP3    H212007   2.576   5.173   0.089  1.0731 -1.2568 -1.0609
 4001TIP3   OH212008   1.083   0.617   0.574 -0.1043 -0.6102 -0.5393
 4001TIP3    H112009   1.145   0.545   0.561  1.6329  0.1935  2.3142
 4001TIP3    H212010   1.027   0.587   0.645  0.6887  0.7767  0.7417
 4002TIP3   OH212011   4.184   3.243   3.125 -0.6426  0.5173  0.1211
 4002TIP3    H112012   4.167   3.325   3.079 -1.8379  0.4573  0.4264
 4002TIP3    H212013   4.098   3.214   3.156 -1.0815 -2.9834 -3.4873
 4003TIP3   OH212014   3.589   5.201   4.627 -0.2432 -0.1255 -0.2183
 4003TIP3    H112015   3.671   5.249   4.613  0.2628 -1.1613 -0.9505
 4003TIP3    H212016   3.560   5.177   4.539 -1.6748  0.7431 -0.0126
 4004TIP3   OH212017   0.388   0.004   3.600 -0.1279  0.5411  0.2163
 4004TIP3    H112018   0.436   0.086   3.618 -0.3432  0.7023  0.0632
 4004TIP3    H212019   0.366   0.009   3.507 -1.3906  0.9847  0.5095
 4005TIP3   OH212020   5.767   1.526   3.498 -0.1451 -0.0253 -0.2933
 4005TIP3    H112021   5.820   1.452   3.527  0.7883  0.6697 -0.1455
 4005TIP3    H212022   5.825   1.575   3.440 -0.1848  1.4093  0.8190
 4006TIP3   OH212023   2.759   0.836   0.759  0.1744 -0.2234  0.6101
 4006TIP3    H112024   2.715   0.754   0.740 -0.0356  0.0217  0.0302
 4006TIP3    H212025   2.711   0.902   0.709 -0.1689  0.3813  1.6944
 4007TIP3   OH212026   2.570   3.439   3.130 -0.4409 -0.1335  0.0095
 4007TIP3    H112027   2.559   3.534   3.137  2.9172  0.3449  0.5585
 4007TIP3    H212028   2.552   3.407   3.219 -0.1040  0.2320  0.2190
 4008TIP3   OH212029   2.041   1.810   1.075 -0.1672  0.0419  0.1119
 4008TIP3    H112030   2.100   1.882   1.097 -0.5917  0.0532  1.2849
 4008TIP3    H212031   2.051   1.799   0.980  1.9896 -0.1983  0.3122
 4009TIP3   OH212032   5.346   2.065   4.988  0.1090 -0.2013  0.1555
 4009TIP3    H112033   5.424   2.065   4.933 -0.5251  2.2697 -0.8709
 4009TIP3    H212034   5.285   2.007   4.944  0.4709 -0.1321 -0.4439
 4010TIP3   OH212035   2.763   5.523   0.289 -0.1238  0.1713  0.1011
 4010TIP3    H112036   2.837   5.579   0.265  0.7244 -0.0899  1.9290
 4010TIP3    H212037   2.803   5.442   0.319 -1.1486 -0.0453  0.9613
 4011TIP3   OH212038   5.036   1.338   0.816 -0.2033  0.3041 -0.7242
 4011TIP3    H112039   5.080   1.253   0.828  0.5359  0.7347 -0.3097
 4011TIP3    H212040   5.010   1.365   0.904  0.0023  0.7345 -0.7913
 4012TIP3   OH212041   1.156   4.413   2.863 -0.1551 -0.4453  0.0076
 4012TIP3    H112042   1.153   4.320   2.888  0.5321 -0.0081  1.8526
 4012TIP3    H212043   1.075   4.449   2.897 -2.3560 -1.0223 -4.0026
 4013TIP3   OH212044   6.093   5.029   3.180 -0.3346 -0.2815  0.5027
 4013TIP3    H112045   6.107   5.086   3.104  0.3000 -0.1361  0.7233
 4013TIP3    H212046   6.005   5.051   3.210  0.6483  2.1618  1.8890
 4014TIP3   OH212047   5.133   5.201   1.182 -0.5346  0.3219 -0.4628
 4014TIP3    H112048   5.193   5.156   1.123  2.2753  2.0878  0.7979
 4014TIP3    H212049   5.109   5.281   1.135 -1.3642 -0.0350 -0.6668
 4015TIP3   OH212050   1.504   0.925   4.197  0.8627  0.0571  0.2913
 4015TIP3    H112051   1.580   0.962   4.154  1.0100 -0.4947  0.0627
 4015TIP3    H212052   1.496   0.837   4.160  2.1086 -1.1894  2.7023
 4016TIP3   OH212053   6.275   2.293   0.191 -0.9687  0.1880 -0.4972
 4016TIP3    H112054   6.241   2.320   0.276 -2.5259  1.1019 -1.3635
 4016TIP3    H212055   6.228   2.212   0.171 -1.6449  0.7251 -1.1012
 4017TIP3   OH212056   5.513   1.758   1.101  0.3224  0.0202 -0.4735
 4017TIP3    H112057   5.524   1.819   1.174 -1.0886 -1.5824  1.1598
 4017TIP3    H212058   5.436   1.790   1.054 -0.4332 -0.5145  0.3951
 4018TIP3   OH212059   2.845   0.982   2.211 -1.1484  0.3036 -0.2395
 4018TIP3    H112060   2.806   1.009   2.127  0.5749 -0.7435 -1.4576
 4018TIP3    H212061   2.897   0.905   2.189 -0.0460  0.4403  1.6756
 4019TIP3   OH212062   1.273   2.048   4.663 -0.0006 -0.2484 -0.2194
 4019TIP3    H112063   1.257   1.963   4.621 -1.9378 -0.8345  1.5589
 4019TIP3    H212064   1.260   2.112   4.593  0.1510 -1.3252 -1.2755
 4020TIP3   OH212065   6.172   2.849   2.180  0.2361 -0.2916 -0.4747
 4020TIP3    H112066   6.101   2.904   2.146 -0.0195 -1.3836 -1.8381
 4020TIP3    H212067   6.193   2.886   2.265 -1.5058  0.4800 -0.3342
 4021TIP3   OH212068   4.333   1.130   0.044 -0.2757 -0.0609  0.9193
 4021TIP3    H112069   4.303   1.200  -0.015  0.0695 -0.0425  0.7622
 4021TIP3    H212070   4.362   1.177   0.123  0.5080  0.0216  0.5839
 4022TIP3   OH212071   3.522   5.553   3.191  0.6292 -0.6011 -0.0702
 4022TIP3    H112072   3.479   5.609   3.126 -1.4401  0.6518  2.2067
 4022TIP3    H212073   3.469   5.474   3.194 -0.3283  0.0525  1.2201
 4023TIP3   OH212074   1.030   5.364   0.825 -0.0083  0.0509 -0.7104
 4023TIP3    H112075   1.000   5.297   0.886 -1.5875  0.2977 -1.1733
 4023TIP3    H212076   1.125   5.353   0.822 -0.0167 -0.7158  0.8897
 4024TIP3   OH212077   4.579   3.362   4.120  0.0900 -0.1785 -0.0957
 4024TIP3    H112078   4.605   3.396   4.034  1.7819  0.2868  0.5776
 4024TIP3    H212079   4.565   3.440   4.173 -0.8148 -0.4724  0.1144
 4025TIP3   OH212080   6.249   2.972   4.568 -0.0041  0.4196 -0.3235
 4025TIP3    H112081   6.245   3.054   4.519  0.2368 -0.1345 -1.2874
 4025TIP3    H212082   6.338   2.971   4.604  0.1827  0.3018 -0.7929
 4026TIP3   OH212083   4.334   2.403   1.581 -0.1930  0.8271  0.1514
 4026TIP3    H112084   4.385   2.483   1.573  0.6388  0.3831  0.8518
 4026TIP3    H212085   4.351   2.355   1.499  0.0129  0.9615  0.1162
 4027TIP3   OH212086   4.953   3.574   4.060 -0.8499 -0.3533 -0.5091
 4027TIP3    H112087   5.005   3.643   4.018 -0.0391 -0.2753  0.5871
 4027TIP3    H212088   4.959   3.500   4.000 -0.5370  0.0663 -1.0043
 4028TIP3   OH212089   6.191   1.484   0.105 -0.0444 -0.0679 -0.1037
 4028TIP3    H112090   6.265   1.458   0.161  0.3565  1.1810 -0.0228
 4028TIP3    H212091   6.208   1.439   0.022 -0.1742 -1.2337  0.4806
 4029TIP3   OH212092   0.713   3.127   3.552  0.1797  0.6171  0.6649
 4029TIP3    H112093   0.679   3.167   3.632  0.3083  1.1393  0.4662
 4029TIP3    H212094   0.804   3.105   3.571  0.1399  0.5185  0.7403
 4030TIP3   OH212095   3.157   1.160   1.936  0.1219  0.4019  0.7112
 4030TIP3    H112096   3.143   1.139   1.844 -0.4977 -0.5552  1.0099
 4030TIP3    H212097   3.084   1.218   1.959 -0.7485 -0.7858  1.0414
 4031TIP3   OH212098   1.401   5.292   0.277 -0.1010  0.6195 -0.3315
 4031TIP3    H112099   1.486   5.291   0.232 -0.0399 -0.5501 -0.2223
 4031TIP3    H212100   1.351   5.360   0.233  0.7072  0.9458 -0.7609
 4032TIP3   OH212101   2.206   2.730   0.913 -0.1949 -0.2616  0.0449
 4032TIP3    H112102   2.221   2.816   0.952  0.0568 -1.3842  2.5868
 4032TIP3    H212103   2.286   2.681   0.931 -0.0585 -0.8870 -1.9562
 4033TIP3   OH212104   0.215   0.190   4.681 -0.0193 -0.2287  0.5227
 4033TIP3    H112105   0.242   0.129   4.612 -2.9972 -2.9789  1.4866
 4033TIP3    H212106   0.265   0.162   4.758  1.1710  0.9212  0.1905
 4034TIP3   OH212107   5.882   2.401   4.879  0.4373 -0.1326  0.2186
 4034TIP3    H112108   5.840   2.342   4.816 -0.4288  0.6921  0.0201
 4034TIP3    H212109   5.819   2.409   4.951 -0.6950  2.6536 -0.9517
 4035TIP3   OH212110   2.230   0.611   4.294  0.1440 -0.0460  0.3651
 4035TIP3    H112111   2.256   0.691   4.248 -1.5275  0.7374  0.7196
 4035TIP3    H212112   2.235   0.634   4.387 -0.9559 -0.1321  0.4582
 4036TIP3   OH212113   0.438   4.980   1.235  0.0846 -0.1634  0.5406
 4036TIP3    H112114   0.517   5.015   1.276  1.3732 -2.8110  0.5673
 4036TIP3    H212115   0.406   4.916   1.298 -0.9873 -0.4828 -0.3081
 4037TIP3   OH212116   0.366   1.225   3.695  0.1388 -0.0689  0.8901
 4037TIP3    H112117   0.328   1.310   3.720 -0.0425 -0.2545  1.2472
 4037TIP3    H212118   0.444   1.217   3.750 -0.5231 -0.6974  1.7515
 4038TIP3   OH212119   3.632   0.884   1.118  0.3811  0.1888 -0.7552
 4038TIP3    H112120   3.668   0.810   1.167 -0.1797  0.8095  0.6389
 4038TIP3    H212121   3.537   0.869   1.118  0.1673  1.3555  0.3563
 4039TIP3   OH212122   6.008   5.336   2.541 -0.0430 -0.0975 -0.3307
 4039TIP3    H112123   6.074   5.401   2.514  1.4073 -0.4958  2.0274
 4039TIP3    H212124   5.986   5.360   2.631 -0.1194 -2.3622  0.3018
 4040TIP3   OH212125   0.525   4.459   4.727 -0.5435  0.0165  0.5788
 4040TIP3    H112126   0.551   4.371   4.701 -0.7720  0.4445 -1.2928
 4040TIP3    H212127   0.579   4.516   4.671 -1.0821  1.0338  1.0769
 4041TIP3   OH212128   4.925   1.924   3.939  0.6696 -0.0389 -0.1488
 4041TIP3    H112129   5.016   1.896   3.932  0.9163  0.8861 -0.7526
 4041TIP3    H212130   4.907   1.922   4.033  1.4519  0.1962  0.0168
 4042TIP3   OH212131   1.509   0.038   3.941 -0.0184  0.7662 -0.1173
 4042TIP3    H112132   1.503  -0.058   3.939 -0.7398  0.8188 -1.1875
 4042TIP3    H212133   1.431   0.068   3.895 -0.1486  1.8964  0.7736
 4043TIP3   OH212134   2.686   1.795   3.762  0.1772  0.5743  0.2903
 4043TIP3    H112135   2.651   1.830   3.845  1.1707  1.7687  0.2398
 4043TIP3    H212136   2.776   1.826   3.760  0.8058 -1.2179 -0.2725
 4044TIP3   OH212137   4.012   3.989   1.496  0.7889  0.4212  0.5750
 4044TIP3    H112138   4.087   3.948   1.452 -0.6354 -0.9859 -0.6778
 4044TIP3    H212139   3.960   3.915   1.528 -0.7745  1.3144  0.1906
 4045TIP3   OH212140   5.368   5.914   0.818  0.2358 -0.0239 -0.0373
 4045TIP3    H112141   5.394   5.899   0.908 -0.5556  2.5140  0.7025
 4045TIP3    H212142   5.440   5.878   0.766 -0.1983 -3.3596  1.4108
 4046TIP3   OH212143   3.989   3.646   0.147  0.2306  0.6011 -0.3657
 4046TIP3    H112144   3.989   3.610   0.058  0.1850 -0.0374 -0.1158
 4046TIP3    H212145   3.945   3.580   0.199  1.7520  0.1650  0.4406
 4047TIP3   OH212146   2.273   4.469   4.618  0.0970 -0.8935 -0.0921
 4047TIP3    H112147   2.357   4.465   4.663 -0.1994 -1.3849  0.4278
 4047TIP3    H212148   2.229   4.387   4.641 -1.4595  0.3302  1.5174
 4048TIP3   OH212149   5.179   4.600   1.426 -0.2629  0.1373  0.1457
 4048TIP3    H112150   5.214   4.631   1.343  1.2100  1.7495  1.3034
 4048TIP3    H212151   5.088   4.630   1.426 -0.2489  0.2076 -0.8338
 4049TIP3   OH212152   5.240   0.291   2.669  0.5575 -0.0366 -0.4047
 4049TIP3    H112153   5.237   0.383   2.697 -2.2535  0.1015 -0.8198
 4049TIP3    H212154   5.221   0.294   2.576  1.8844 -0.9868 -0.7219
 4050TIP3   OH212155   5.054   5.475   0.034  0.1925  0.2443  0.0082
 4050TIP3    H112156   5.107   5.455   0.111  1.3509 -2.3593 -1.3572
 4050TIP3    H212157   5.015   5.392   0.008 -2.6767  1.6084 -0.5193
 4051TIP3   OH212158   5.768   4.955   3.683 -0.5591  0.1274 -0.0453
 4051TIP3    H112159   5.791   4.956   3.590 -1.4713 -0.1718 -0.2799
 4051TIP3    H212160   5.838   4.904   3.724  0.3928  1.1028 -0.4055
 4052TIP3   OH212161   5.893   3.188   0.362  0.7752  0.1285 -0.1063
 4052TIP3    H112162   5.833   3.260   0.381 -0.1631 -1.1898  2.2685
 4052TIP3    H212163   5.859   3.150   0.281 -0.9121  0.1490  0.5545
 4053TIP3   OH212164   2.451   2.390   1.774  0.0412  0.3968  0.2011
 4053TIP3    H112165   2.479   2.425   1.859 -0.5236  3.3006 -0.7054
 4053TIP3    H212166   2.365   2.352   1.792  0.0456  0.7389  0.9884
 4054TIP3   OH212167   1.039   0.390   2.297  0.8282  0.2597 -0.2313
 4054TIP3    H112168   1.034   0.389   2.392 -0.3406 -0.2512 -0.2850
 4054TIP3    H212169   1.075   0.305   2.273  1.2449  0.4379 -0.2441
 4055TIP3   OH212170   2.789   3.672   0.038 -0.3730 -0.1957  0.5177
 4055TIP3    H112171   2.799   3.586   0.078  1.3091 -0.1812  0.1884
 4055TIP3    H212172   2.711   3.664  -0.017  0.6028 -1.9657 -0.6698
 4056TIP3   OH212173   1.277   3.554   2.674  0.3550  0.6473  0.5201
 4056TIP3    H112174   1.187   3.529   2.653  0.9289 -0.2702 -1.0692
 4056TIP3    H212175   1.269   3.642   2.711 -1.2718  0.1699  1.3987
 4057TIP3   OH212176   5.329   0.460   1.331  0.4244  0.0378 -0.3474
 4057TIP3    H112177   5.239   0.490   1.318  0.7689  0.9611 -0.6971
 4057TIP3    H212178   5.336   0.381   1.278 -0.5472 -0.7695  0.6941
 4058TIP3   OH212179   4.894   0.488   4.045 -0.1104 -0.3738 -0.4465
 4058TIP3    H112180   4.944   0.415   4.081 -0.6303 -0.7446 -0.4695
 4058TIP3    H212181   4.952   0.526   3.979  0.4803 -0.2562  0.1306
 4059TIP3   OH212182   3.410   1.311   3.320 -0.3998  0.7955 -0.6035
 4059TIP3    H112183   3.485   1.370   3.308  1.5370 -1.1746  0.9619
 4059TIP3    H212184   3.411   1.289   3.413 -1.7224 -0.7977 -0.9183
 4060TIP3   OH212185   4.771   4.002   2.173  0.1746 -0.0264  1.2246
 4060TIP3    H112186   4.764   3.921   2.223 -1.0115 -0.1522  0.8903
 4060TIP3    H212187   4.829   3.980   2.100 -0.8447 -0.8454  0.6383
 4061TIP3   OH212188   4.390   3.019   0.023 -0.6226  0.4497  0.0538
 4061TIP3    H112189   4.364   3.092  -0.035 -0.8176 -0.9609 -1.7355
 4061TIP3    H212190   4.318   3.013   0.086  0.0310  2.6188  1.1155
 4062TIP3   OH212191   2.139   3.003   0.697  0.7533 -0.3216 -0.0512
 4062TIP3    H112192   2.100   3.071   0.752 -1.6611 -3.1576  2.0991
 4062TIP3    H212193   2.233   3.013   0.709  0.4047  1.2827  1.8713
 4063TIP3   OH212194   5.155   2.293   1.640 -0.2755  0.3864  0.3337
 4063TIP3    H112195   5.135   2.282   1.733  0.4983  3.4935  0.9746
 4063TIP3    H212196   5.239   2.339   1.638 -0.4388  0.7059 -1.8960
 4064TIP3   OH212197   2.992   2.497   1.481  0.5846  0.9718  0.7943
 4064TIP3    H112198   3.052   2.436   1.525 -0.8983 -0.5692  0.7699
 4064TIP3    H212199   3.028   2.506   1.392  0.0607 -1.0884  0.3159
 4065TIP3   OH212200   1.798   5.751   4.964  0.1658 -0.3560  0.5279
 4065TIP3    H112201   1.889   5.719   4.965  0.0186 -0.7448  1.2987
 4065TIP3    H212202   1.745   5.672   4.959 -0.1415 -0.1211 -0.0743
 4066TIP3   OH212203   5.258   2.201   3.709  0.1241  0.5820  0.5464
 4066TIP3    H112204   5.286   2.112   3.689 -0.9475  0.1034  1.0703
 4066TIP3    H212205   5.232   2.197   3.801 -1.5820  0.9757  0.1163
 4067TIP3   OH212206   0.437   4.241   3.247 -0.6196 -0.0607 -0.1792
 4067TIP3    H112207   0.500   4.258   3.177 -0.1928  1.6474  0.5759
 4067TIP3    H212208   0.488   4.195   3.315 -1.0081 -1.6185 -0.8874
 4068TIP3   OH212209   6.099   1.443   0.484 -0.5153 -0.1665 -0.1590
 4068TIP3    H112210   6.143   1.364   0.513 -1.7677 -0.9985 -0.4193
 4068TIP3    H212211   6.073   1.488   0.564  1.3934  0.7322  0.0158
 4069TIP3   OH212212   5.173   5.636   1.014  0.1776 -0.1173 -0.0065
 4069TIP3    H112213   5.168   5.542   1.000  0.8748 -0.2150  0.3813
 4069TIP3    H212214   5.162   5.674   0.927  0.0717 -0.5576 -0.1861
 4070TIP3   OH212215   6.060   4.617   1.124 -0.2175 -0.2060  0.0630
 4070TIP3    H112216   6.056   4.528   1.089 -4.0789 -0.3372  0.4611
 4070TIP3    H212217   6.090   4.670   1.051 -1.4683 -1.3818 -1.3867
 4071TIP3   OH212218   5.816   1.485   1.171  0.0254 -0.3016 -0.3788
 4071TIP3    H112219   5.886   1.469   1.233 -0.8107 -0.2235  0.6170
 4071TIP3    H212220   5.736   1.460   1.218 -0.5902 -0.6931 -1.5874
 4072TIP3   OH212221   0.597   1.030   4.097 -0.8250 -0.3664 -0.0383
 4072TIP3    H112222   0.508   1.019   4.130 -1.5470  1.7574 -1.0709
 4072TIP3    H212223   0.641   1.082   4.164  0.0734 -2.3846  1.0316
 4073TIP3   OH212224   1.739   0.206   1.562 -0.0445  0.8712 -0.4937
 4073TIP3    H112225   1.665   0.266   1.554 -0.2435  0.7890  0.5816
 4073TIP3    H212226   1.809   0.258   1.601 -0.0414  0.5626 -0.0724
 4074TIP3   OH212227   1.851   0.689   2.131  0.5997  0.5518 -0.2239
 4074TIP3    H112228   1.882   0.765   2.181 -1.7282  0.7410  1.1305
 4074TIP3    H212229   1.930   0.646   2.099  2.1211  1.8096  1.6286
 4075TIP3   OH212230   2.982   3.235   3.792 -0.2917 -0.2197 -0.2918
 4075TIP3    H112231   3.069   3.195   3.788  0.5789  1.2350  2.0349
 4075TIP3    H212232   2.982   3.300   3.722  0.6787  0.0734 -0.0344
 4076TIP3   OH212233   0.975   3.843   2.942 -0.5298 -0.3559 -0.2481
 4076TIP3    H112234   1.029   3.865   2.865 -0.8834 -1.5119 -0.8460
 4076TIP3    H212235   0.916   3.918   2.951  0.5481  0.5111 -0.1406
 4077TIP3   OH212236   0.869   4.876   2.884  0.7510  0.5847 -0.0320
 4077TIP3    H112237   0.841   4.867   2.793 -0.9927  0.4132  0.4861
 4077TIP3    H212238   0.965   4.881   2.879  0.7757 -0.6819 -1.7602
 4078TIP3   OH212239   4.471   3.876   4.102  0.1690 -0.3149 -0.5140
 4078TIP3    H112240   4.498   3.842   4.017  0.4934 -0.1545 -0.4748
 4078TIP3    H212241   4.508   3.964   4.106 -1.0169  0.2267 -0.7901
 4079TIP3   OH212242   2.659   0.402   0.024  0.1211  0.9569 -0.1288
 4079TIP3    H112243   2.659   0.379   0.117  2.3775  2.9097  0.4603
 4079TIP3    H212244   2.731   0.351  -0.014 -0.4041  0.6216 -0.6997
 4080TIP3   OH212245   5.190   3.488   5.006  0.1623  0.2924  0.1252
 4080TIP3    H112246   5.186   3.429   5.081  0.3663  0.4585  0.2675
 4080TIP3    H212247   5.254   3.447   4.947  0.2377  0.3239  0.1843
 4081TIP3   OH212248   5.420   1.729   0.674  0.4063  0.2399  0.4797
 4081TIP3    H112249   5.458   1.767   0.594 -0.3561  1.5899  0.7296
 4081TIP3    H212250   5.421   1.800   0.737 -2.5307  0.3952  0.4969
 4082TIP3   OH212251   5.595   2.412   4.253  0.2032 -0.0494  0.1585
 4082TIP3    H112252   5.659   2.462   4.304 -0.0824 -0.1029  0.5769
 4082TIP3    H212253   5.638   2.327   4.238 -0.2300 -0.5306  1.4825
 4083TIP3   OH212254   6.101   2.719   2.706 -1.0189  0.2498 -0.5102
 4083TIP3    H112255   6.065   2.692   2.622 -1.7078  2.0326 -0.8373
 4083TIP3    H212256   6.040   2.785   2.739 -0.8641 -0.5432  1.4994
 4084TIP3   OH212257   1.627   4.389   1.790 -0.3035 -0.4605 -0.2491
 4084TIP3    H112258   1.708   4.340   1.799 -0.4416 -0.7871 -0.7305
 4084TIP3    H212259   1.569   4.351   1.856 -0.0358 -0.1612  0.1594
 4085TIP3   OH212260   4.401   4.542   0.787 -0.1012 -0.3351 -0.1487
 4085TIP3    H112261   4.374   4.461   0.743 -1.4459  1.0065 -1.9765
 4085TIP3    H212262   4.466   4.581   0.728  0.8789 -0.2750  0.9409
 4086TIP3   OH212263   1.595   1.920   1.513  0.2428  0.2847 -0.2377
 4086TIP3    H112264   1.551   1.870   1.583  0.5899  0.1938 -0.0819
 4086TIP3    H212265   1.556   2.007   1.518  0.0694  0.2026 -0.1107
 4087TIP3   OH212266   0.966   0.639   3.958  0.5458  0.1737  0.2622
 4087TIP3    H112267   0.913   0.716   3.978  0.6218 -0.0237  1.2853
 4087TIP3    H212268   0.905   0.577   3.917  0.2743  0.4339  0.2735
 4088TIP3   OH212269   5.495   4.254   0.380 -0.2292  0.0065  0.1673
 4088TIP3    H112270   5.553   4.217   0.447 -0.5676  1.6643  1.4687
 4088TIP3    H212271   5.550   4.261   0.302  0.3678 -1.3995  0.4404
 4089TIP3   OH212272   4.159   0.363   0.577 -0.2677  0.0180 -0.2261
 4089TIP3    H112273   4.080   0.344   0.628 -0.2448 -0.6654 -0.4311
 4089TIP3    H212274   4.214   0.415   0.635 -1.2604  1.3223 -0.4069
 4090TIP3   OH212275   2.015   0.124   3.584 -0.5275 -0.0440  0.4846
 4090TIP3    H112276   2.045   0.215   3.585 -1.5070  0.3008  0.1277
 4090TIP3    H212277   2.008   0.102   3.491  0.2063 -0.6741  0.5618
 4091TIP3   OH212278   5.005   2.968   2.294 -0.3874 -0.3647  0.2544
 4091TIP3    H112279   4.971   3.055   2.316  0.1551 -0.0748 -0.0353
 4091TIP3    H212280   4.961   2.945   2.212  0.2792  0.1179 -0.2528
 4092TIP3   OH212281   1.221   0.733   1.298  0.2971  0.0100  0.5890
 4092TIP3    H112282   1.132   0.732   1.334  0.6457 -1.3983  1.4816
 4092TIP3    H212283   1.257   0.817   1.325 -0.6763  0.4884  0.4376
 4093TIP3   OH212284   5.263   1.587   4.632 -0.0930  0.0648  0.1076
 4093TIP3    H112285   5.287   1.497   4.612 -0.3520 -0.0053  0.1034
 4093TIP3    H212286   5.240   1.625   4.547 -1.2209 -0.2409  0.2517
 4094TIP3   OH212287   0.025   5.461   0.847  0.8212  0.0999 -0.3452
 4094TIP3    H112288  -0.063   5.467   0.885  1.3185  0.4022  0.7754
 4094TIP3    H212289   0.077   5.526   0.894  1.0696  1.7514 -2.7381
 4095TIP3   OH212290   5.538   1.742   3.935 -0.0320 -0.2194 -0.0521
 4095TIP3    H112291   5.596   1.776   3.867 -0.1165 -0.2225 -0.1261
 4095TIP3    H212292   5.501   1.820   3.976  1.3042 -0.1675  1.1226
 4096TIP3   OH212293   2.943   1.222   3.830 -0.2308  0.3658 -0.1264
 4096TIP3    H112294   2.969   1.313   3.813  1.4882  0.3401  1.8926
 4096TIP3    H212295   2.883   1.201   3.759 -0.2903  2.9070 -0.9562
 4097TIP3   OH212296   1.124   4.845   1.705 -0.4562  0.0688  0.0554
 4097TIP3    H112297   1.165   4.759   1.706 -0.3435  0.1229  1.2255
 4097TIP3    H212298   1.197   4.906   1.716 -0.2175  0.4970 -3.1163
 4098TIP3   OH212299   5.038   2.017   2.072  0.2978 -0.3882 -0.2589
 4098TIP3    H112300   5.116   1.964   2.052 -0.8158 -1.9866 -0.5855
 4098TIP3    H212301   4.967   1.971   2.028 -0.7061  1.5640 -0.7529
 4099TIP3   OH212302   4.621   1.652   2.256 -0.3181 -0.0649  0.1104
 4099TIP3    H112303   4.546   1.689   2.304 -0.4311 -0.4953  0.2666
 4099TIP3    H212304   4.698   1.693   2.295 -0.4207 -0.2823  0.5377
 4100TIP3   OH212305   2.709   5.037   1.855  0.3043 -0.5290 -0.5874
 4100TIP3    H112306   2.683   5.124   1.884  2.2681  0.5824 -1.9241
 4100TIP3    H212307   2.781   5.013   1.913  0.1945 -0.9838 -0.6368
 4101TIP3   OH212308   3.072   3.576   4.520  0.0916  0.2342 -0.1373
 4101TIP3    H112309   2.999   3.575   4.582 -0.1128 -1.9729 -0.3464
 4101TIP3    H212310   3.066   3.493   4.474  0.7034  1.4724 -2.6309
 4102TIP3   OH212311   3.174   3.864   0.318 -0.0448  0.0724  0.3842
 4102TIP3    H112312   3.245   3.825   0.269  0.2930  1.8070 -0.6022
 4102TIP3    H212313   3.097   3.854   0.262 -0.2990 -0.5482  0.8284
 4103TIP3   OH212314   5.309   2.426   1.993  0.2985  0.0247  0.3341
 4103TIP3    H112315   5.378   2.401   2.054 -0.6981 -0.9989  1.0790
 4103TIP3    H212316   5.300   2.521   2.004  0.6190 -0.0497  1.2668
 4104TIP3   OH212317   6.226   5.929   1.704 -0.2370 -0.0481  0.2325
 4104TIP3    H112318   6.292   5.860   1.712  0.8411  0.9014 -0.1100
 4104TIP3    H212319   6.223   5.969   1.790 -0.1345  0.1011  0.1680
 4105TIP3   OH212320   2.408   2.861   1.465 -0.2660 -0.4391 -0.2325
 4105TIP3    H112321   2.498   2.838   1.443 -0.4604 -2.7923  1.1185
 4105TIP3    H212322   2.384   2.801   1.536 -3.2077 -0.5925 -1.2056
 4106TIP3   OH212323   2.556   3.249   4.882 -0.1810 -0.0921 -0.3495
 4106TIP3    H112324   2.616   3.180   4.909 -0.1062  0.9618  2.5561
 4106TIP3    H212325   2.481   3.239   4.941  0.3599  2.9439  1.0247
 4107TIP3   OH212326   4.511   0.139   4.476  0.2921 -0.2883 -0.3129
 4107TIP3    H112327   4.431   0.089   4.463 -0.4964  0.6694  0.6956
 4107TIP3    H212328   4.564   0.084   4.535  0.1577 -0.6844 -0.5614
 4108TIP3   OH212329   2.314   3.277   0.255  0.2724  0.0902 -0.8101
 4108TIP3    H112330   2.309   3.237   0.342 -0.6495  1.1703 -0.3431
 4108TIP3    H212331   2.243   3.237   0.206 -0.3551  0.7886 -0.4877
 4109TIP3   OH212332   0.821   3.113   4.982  0.2948 -0.3421 -0.5875
 4109TIP3    H112333   0.769   3.157   4.914  0.3394  0.2464 -0.2437
 4109TIP3    H212334   0.756   3.064   5.033 -0.0193  0.8451  0.1919
 4110TIP3   OH212335   4.820   0.329   2.519 -0.0012 -0.6381  0.2461
 4110TIP3    H112336   4.785   0.350   2.605 -0.3277  0.2822 -0.1064
 4110TIP3    H212337   4.743   0.323   2.463  0.1433 -1.9350  0.1408
 4111TIP3   OH212338   1.438   3.662   4.276  0.4069  0.9716 -0.4811
 4111TIP3    H112339   1.348   3.652   4.244  0.6100  1.9399 -1.4336
 4111TIP3    H212340   1.435   3.630   4.366 -0.9568  1.2571 -0.3971
 4112TIP3   OH212341   1.904   2.266   2.666 -0.0777 -0.1629  0.1422
 4112TIP3    H112342   1.894   2.271   2.570  3.1497 -0.4052 -0.3273
 4112TIP3    H212343   1.999   2.267   2.680 -0.4136 -1.4016  3.2985
 4113TIP3   OH212344   3.583   0.274   0.137 -0.0371 -0.1881  0.0888
 4113TIP3    H112345   3.672   0.264   0.103 -0.2544  1.0394 -0.9138
 4113TIP3    H212346   3.526   0.265   0.060 -0.5052  3.2339 -0.1233
 4114TIP3   OH212347   0.310   2.197   3.892  0.3938 -0.1922  0.0276
 4114TIP3    H112348   0.401   2.223   3.879  0.0485  1.0488  0.0168
 4114TIP3    H212349   0.270   2.203   3.805  0.1970 -0.3356  0.1065
 4115TIP3   OH212350   1.694   1.461   4.829 -0.2055  0.0083 -0.3476
 4115TIP3    H112351   1.643   1.438   4.751 -0.0430 -2.8773  0.2911
 4115TIP3    H212352   1.682   1.387   4.888  1.0286  1.3618  1.7317
 4116TIP3   OH212353   6.174   3.013   1.553  0.8663 -0.2696 -0.3166
 4116TIP3    H112354   6.095   3.053   1.516  0.2698 -1.0957  0.0422
 4116TIP3    H212355   6.218   2.974   1.478 -0.0621 -1.4679 -0.2618
 4117TIP3   OH212356   2.483   1.151   0.926  0.3894 -0.3455 -0.1987
 4117TIP3    H112357   2.545   1.123   0.993  1.0389 -1.6336 -1.2889
 4117TIP3    H212358   2.520   1.232   0.890 -0.4332  0.8808  1.5575
 4118TIP3   OH212359   1.442   0.413   4.164 -0.2611  0.6844 -0.1536
 4118TIP3    H112360   1.358   0.432   4.122 -0.6492 -0.2781  0.1653
 4118TIP3    H212361   1.491   0.363   4.098 -0.6064 -0.2308  0.2641
 4119TIP3   OH212362   3.573   3.107   1.854  0.4455 -0.0298  0.2897
 4119TIP3    H112363   3.479   3.091   1.852  0.1908  1.2690  1.1614
 4119TIP3    H212364   3.608   3.039   1.913  0.0886 -0.5749 -0.1149
 4120TIP3   OH212365   6.038   2.614   4.818 -0.1390 -0.0719 -0.2162
 4120TIP3    H112366   5.957   2.566   4.837  0.2172 -0.8559 -0.6322
 4120TIP3    H212367   6.083   2.618   4.902 -0.2347 -0.3503 -0.1507
 4121TIP3   OH212368   3.854  -0.019   2.907 -0.1382  0.0675  0.5518
 4121TIP3    H112369   3.785   0.014   2.850 -1.5629 -1.3747  1.3556
 4121TIP3    H212370   3.865   0.049   2.973  0.9163  1.3550 -0.8616
 4122TIP3   OH212371   0.786   5.209   3.284 -0.4642  0.7796 -0.0441
 4122TIP3    H112372   0.807   5.219   3.191  1.5601 -1.2289  0.1035
 4122TIP3    H212373   0.747   5.122   3.290  1.3903 -0.0089  1.2201
 4123TIP3   OH212374   2.802   4.825   3.451 -0.4026  0.3213 -0.7516
 4123TIP3    H112375   2.827   4.814   3.359 -0.1650  0.7276 -0.7383
 4123TIP3    H212376   2.707   4.815   3.451 -0.6675  2.2652 -1.3684
 4124TIP3   OH212377   5.571   3.680   2.262 -0.4133 -0.1921  0.3048
 4124TIP3    H112378   5.585   3.767   2.299 -1.9888  0.0696  0.3589
 4124TIP3    H212379   5.557   3.696   2.168 -1.7694 -0.2215  0.4711
 4125TIP3   OH212380   3.317   0.072   4.030  0.1521 -0.3379  0.3375
 4125TIP3    H112381   3.225   0.069   4.004  0.0298 -0.1874  0.7493
 4125TIP3    H212382   3.358  -0.001   3.983 -0.7222 -2.1782  2.3121
 4126TIP3   OH212383   3.179   2.478   4.542 -0.2041 -0.4303 -0.2105
 4126TIP3    H112384   3.177   2.426   4.462  1.9001 -1.5761  0.4059
 4126TIP3    H212385   3.158   2.416   4.612 -0.6882  0.2517  0.2679
 4127TIP3   OH212386   3.769   0.916   2.997  0.0917  0.4835  0.2370
 4127TIP3    H112387   3.788   0.858   3.070  0.0539  0.3512  0.1421
 4127TIP3    H212388   3.828   0.886   2.927 -0.2277  0.2850  0.0482
 4128TIP3   OH212389   1.743   5.678   0.252 -0.3785 -0.0373  0.3495
 4128TIP3    H112390   1.707   5.690   0.164  2.0914 -1.0425 -0.8928
 4128TIP3    H212391   1.748   5.767   0.287 -0.4363  0.4997 -0.9329
 4129TIP3   OH212392   4.904   0.071   3.275  0.5549 -0.1033  0.2029
 4129TIP3    H112393   4.863   0.026   3.201 -0.7978 -0.9704  1.4135
 4129TIP3    H212394   4.957   0.003   3.318  0.8394  0.2322  0.3849
 4130TIP3   OH212395   5.411   5.742   3.299  0.1388  0.3058  0.6353
 4130TIP3    H112396   5.388   5.688   3.223 -0.5890  0.5656  0.6628
 4130TIP3    H212397   5.367   5.699   3.373  1.1894 -0.1863  0.9847
 4131TIP3   OH212398   0.238   0.661   4.154  0.1471 -0.2617 -0.4310
 4131TIP3    H112399   0.157   0.680   4.202  0.0070 -0.7005 -0.4897
 4131TIP3    H212400   0.266   0.746   4.120  0.1435  0.0249  0.2617
 4132TIP3   OH212401   0.548   5.097   4.579  0.1702 -0.4413 -0.3860
 4132TIP3    H112402   0.461   5.059   4.563 -0.0033 -0.2370  0.0504
 4132TIP3    H212403   0.531   5.189   4.598  0.4643 -0.4370 -0.1296
 4133TIP3   OH212404   0.048   4.221   1.605 -0.3089  0.3653  0.2882
 4133TIP3    H112405   0.123   4.270   1.637 -0.4372  1.1697 -0.5905
 4133TIP3    H212406  -0.010   4.287   1.568 -0.2487 -0.4643 -1.4078
 4134TIP3   OH212407   3.546   0.384   3.929  0.3167  0.2755  0.2602
 4134TIP3    H112408   3.557   0.377   3.834  2.0076  1.0168  0.3670
 4134TIP3    H212409   3.487   0.458   3.941 -0.8025 -0.5078 -0.2189
 4135TIP3   OH212410   0.585   3.786   4.055 -0.0770 -0.2831 -0.2757
 4135TIP3    H112411   0.550   3.841   4.125  1.6059  0.3045  0.1491
 4135TIP3    H212412   0.626   3.848   3.994  0.5747 -0.9576 -0.5412
 4136TIP3   OH212413   0.690   4.725   1.671  0.5728 -0.2198 -0.2918
 4136TIP3    H112414   0.612   4.775   1.646  1.1459  0.1197 -1.4933
 4136TIP3    H212415   0.688   4.723   1.766 -0.3859  0.6059 -0.2744
 4137TIP3   OH212416   6.184   0.112   4.208 -0.2471  0.3551 -0.2249
 4137TIP3    H112417   6.109   0.169   4.193 -0.2990  0.2447 -0.3788
 4137TIP3    H212418   6.254   0.171   4.235 -0.2554  0.5113 -0.5445
 4138TIP3   OH212419   5.124   1.657   2.395 -0.8012 -0.6538 -0.1105
 4138TIP3    H112420   5.134   1.750   2.376  0.4062 -0.9529 -1.0556
 4138TIP3    H212421   5.116   1.652   2.490  0.8851  0.2934  0.1108
 4139TIP3   OH212422   2.443   3.090   1.017 -0.5134 -0.2674  0.1190
 4139TIP3    H112423   2.487   3.128   1.093 -1.3338 -1.2385  1.1088
 4139TIP3    H212424   2.382   3.158   0.988 -1.2895 -0.4346  1.2884
 4140TIP3   OH212425   5.508   2.350   2.145  0.0750  0.1801 -0.1439
 4140TIP3    H112426   5.585   2.390   2.185  2.0479 -1.0788 -2.3741
 4140TIP3    H212427   5.522   2.256   2.156 -1.1644 -0.0628 -0.5499
 4141TIP3   OH212428   5.060   4.903   4.628 -0.1845  0.1922  0.2964
 4141TIP3    H112429   4.978   4.853   4.621 -0.6217  1.0011 -0.5897
 4141TIP3    H212430   5.069   4.946   4.543  1.9893 -1.1054 -0.1988
 4142TIP3   OH212431   2.876   5.127   3.744 -0.6994 -0.1671 -0.1378
 4142TIP3    H112432   2.842   5.124   3.655  0.1385  1.8558 -0.5941
 4142TIP3    H212433   2.825   5.196   3.787  0.2987  0.3438  0.2666
 4143TIP3   OH212434   0.340   4.807   0.196  0.6102 -0.0946  0.3498
 4143TIP3    H112435   0.412   4.744   0.192  1.2777  0.7106 -2.4909
 4143TIP3    H212436   0.365   4.866   0.267  1.3588 -1.4023  1.2164
 4144TIP3   OH212437   5.253   4.525   4.193 -0.0456 -0.0672  0.4493
 4144TIP3    H112438   5.262   4.440   4.238 -2.2653 -0.0459  1.0942
 4144TIP3    H212439   5.172   4.516   4.142 -0.1352  1.5376  0.2597
 4145TIP3   OH212440   2.615   4.411   4.400  0.0383 -0.1697 -0.0996
 4145TIP3    H112441   2.679   4.478   4.425  0.5256  0.0533 -1.8167
 4145TIP3    H212442   2.668   4.336   4.375 -0.3652 -0.0927 -1.2341
 4146TIP3   OH212443   4.686   1.439   5.052 -0.3413  0.3760  0.0853
 4146TIP3    H112444   4.666   1.352   5.084  2.6938 -1.7647 -3.1060
 4146TIP3    H212445   4.600   1.478   5.032 -1.9932 -0.3867  4.4559
 4147TIP3   OH212446   3.593   1.828   4.208  0.1598  0.0180 -0.8363
 4147TIP3    H112447   3.557   1.796   4.291  0.3240 -1.2120 -1.2191
 4147TIP3    H212448   3.644   1.905   4.233  0.7771 -0.7251  0.3124
 4148TIP3   OH212449   6.125   4.755   3.191 -0.2935  0.6551 -0.2456
 4148TIP3    H112450   6.062   4.727   3.257  1.8185 -0.9435  1.2440
 4148TIP3    H212451   6.112   4.850   3.183 -1.9882  0.5524  0.9233
 4149TIP3   OH212452   2.523   4.088   1.181  0.2377  0.4645 -0.1587
 4149TIP3    H112453   2.527   4.178   1.212 -0.7614  0.3209  0.4010
 4149TIP3    H212454   2.444   4.084   1.127 -0.2900 -0.3314  0.6578
 4150TIP3   OH212455   2.854   0.466   1.729 -0.0268 -0.7999 -0.4985
 4150TIP3    H112456   2.892   0.407   1.794  0.2042  0.5352  0.6081
 4150TIP3    H212457   2.767   0.486   1.763 -0.5389 -1.3563 -1.4345
 4151TIP3   OH212458   3.784   2.857   2.653 -0.1775  0.2470 -0.0473
 4151TIP3    H112459   3.800   2.817   2.738  1.0018 -0.0082 -0.3773
 4151TIP3    H212460   3.829   2.941   2.657  1.9418 -0.7556 -1.2097
 4152TIP3   OH212461   5.066   4.385   4.523  0.5110  0.7036  0.1270
 4152TIP3    H112462   5.126   4.350   4.457  2.0610  1.3643  1.1201
 4152TIP3    H212463   5.119   4.449   4.571 -0.9039  1.0500  1.2804
 4153TIP3   OH212464   0.909   5.151   0.546  0.0397  0.0986 -0.1447
 4153TIP3    H112465   0.993   5.196   0.534 -1.0828  2.3839 -0.0654
 4153TIP3    H212466   0.911   5.120   0.637  0.8067  0.1523 -0.1411
 4154TIP3   OH212467   3.435   0.507   3.705  0.0354  0.0257  0.4149
 4154TIP3    H112468   3.434   0.564   3.628  0.2992 -0.0109  0.3823
 4154TIP3    H212469   3.347   0.513   3.741 -0.5188 -1.0345 -0.6775
 4155TIP3   OH212470   5.716   0.154   4.420  0.1494  0.5813 -0.4418
 4155TIP3    H112471   5.630   0.196   4.424  0.4488  1.2153 -0.7005
 4155TIP3    H212472   5.700   0.071   4.375 -0.6367 -0.0874  0.9825
 4156TIP3   OH212473   4.847   2.222   0.889 -0.2872  0.0332 -0.5534
 4156TIP3    H112474   4.849   2.153   0.956 -0.0675  0.4695 -0.1064
 4156TIP3    H212475   4.877   2.178   0.809  1.1536 -0.0813  0.0227
 4157TIP3   OH212476   2.771   2.832   1.583 -0.0865  0.3933  0.6252
 4157TIP3    H112477   2.760   2.737   1.588 -0.1237  0.3182 -0.6528
 4157TIP3    H212478   2.685   2.867   1.606 -0.2321  0.0997  0.5300
 4158TIP3   OH212479   3.690   0.602   0.905  0.2931 -0.3201  0.0237
 4158TIP3    H112480   3.750   0.667   0.943 -0.3743  0.5680 -0.3954
 4158TIP3    H212481   3.662   0.641   0.822 -0.6589 -0.8278  0.0951
 4159TIP3   OH212482   4.702   3.062   3.281  0.2564  0.1401  0.1380
 4159TIP3    H112483   4.725   3.053   3.188 -3.5885  1.2344 -1.1216
 4159TIP3    H212484   4.744   3.143   3.308  1.4490 -0.1955 -0.6067
 4160TIP3   OH212485   3.399   4.303   4.056  0.2844  0.0777  0.5152
 4160TIP3    H112486   3.372   4.213   4.075  1.3665 -0.2517  0.5624
 4160TIP3    H212487   3.321   4.356   4.073 -0.5087 -0.9013  0.0263
 4161TIP3   OH212488   2.683   3.251   3.598 -0.3176 -0.5441  0.4024
 4161TIP3    H112489   2.628   3.305   3.542 -1.3214 -1.8000  0.1260
 4161TIP3    H212490   2.690   3.168   3.551  1.7969 -0.4552  0.4597
 4162TIP3   OH212491   2.032   1.024   2.487  0.1585  0.2308  0.2034
 4162TIP3    H112492   1.954   1.020   2.544  0.8600  1.1044  1.2751
 4162TIP3    H212493   2.033   1.114   2.455  0.7194  0.2283  0.2024
 4163TIP3   OH212494   3.732   2.000   0.250  0.2306 -0.0639  0.6893
 4163TIP3    H112495   3.767   1.926   0.200 -0.5566 -1.0652  1.5763
 4163TIP3    H212496   3.638   1.999   0.233  0.3036  1.2518  0.0746
 4164TIP3   OH212497   3.459   2.913   4.887 -0.2269 -0.4011 -0.5816
 4164TIP3    H112498   3.497   2.995   4.918 -1.0239  0.0621 -0.7961
 4164TIP3    H212499   3.523   2.846   4.912 -0.4175  0.0463  1.2737
 4165TIP3   OH212500   1.464   5.238   2.986  0.1881  0.3936 -0.4852
 4165TIP3    H112501   1.534   5.237   2.920 -0.1973 -0.8765 -0.9016
 4165TIP3    H212502   1.422   5.152   2.978 -1.5874  1.2019 -0.4215
 4166TIP3   OH212503   3.032   0.048   5.206 -0.3327 -0.2174 -0.1456
 4166TIP3    H112504   3.058  -0.016   5.139  1.0091 -2.1473  2.0593
 4166TIP3    H212505   2.958   0.095   5.167 -0.3658 -2.0357 -2.4984
 4167TIP3   OH212506   0.710   5.319   0.799  0.1281 -0.0207 -0.4548
 4167TIP3    H112507   0.788   5.361   0.763 -0.8251  1.7870 -0.5266
 4167TIP3    H212508   0.729   5.225   0.794  2.1985  0.3589 -0.6394
 4168TIP3   OH212509   2.335   4.281   4.325  0.5730 -0.1968 -0.0272
 4168TIP3    H112510   2.298   4.262   4.411 -1.5662  1.0858 -0.5961
 4168TIP3    H212511   2.420   4.319   4.344  0.1917 -0.0451  1.5193
 4169TIP3   OH212512   2.211   3.809   4.575  0.0359 -0.0254  0.9810
 4169TIP3    H112513   2.129   3.846   4.609  0.0807  0.3593  0.6778
 4169TIP3    H212514   2.213   3.837   4.484 -0.2349 -1.3162  0.5611
 4170TIP3   OH212515   3.279   0.284   4.805  0.2687 -0.2231 -0.2807
 4170TIP3    H112516   3.329   0.294   4.885  0.3074 -2.9139  0.1519
 4170TIP3    H212517   3.344   0.268   4.737  0.2002  1.3152 -0.7269
 4171TIP3   OH212518   1.329   0.391   3.298 -0.4048 -0.2485  0.3138
 4171TIP3    H112519   1.375   0.318   3.255 -1.3165 -0.8313  0.2936
 4171TIP3    H212520   1.378   0.405   3.379  0.1993 -0.4072 -0.0140
 4172TIP3   OH212521   0.804   3.594   0.250  0.3782 -0.3181  0.1232
 4172TIP3    H112522   0.724   3.542   0.238 -0.2818  0.8030 -0.5139
 4172TIP3    H212523   0.843   3.559   0.330 -1.5224  0.0761  1.2857
 4173TIP3   OH212524   5.397   5.601   4.650  0.3048 -0.0456 -0.0019
 4173TIP3    H112525   5.478   5.648   4.634  0.1094  0.1999 -0.2847
 4173TIP3    H212526   5.367   5.574   4.563  0.3713 -0.6170  0.1484
 4174TIP3   OH212527   5.489   1.739   0.045 -0.0372  0.0938 -0.3246
 4174TIP3    H112528   5.398   1.766   0.035  0.0709  0.0214 -1.8331
 4174TIP3    H212529   5.538   1.799  -0.012  0.9081  0.3201  0.6829
 4175TIP3   OH212530   0.719   1.921   0.418  0.2225 -0.6012 -0.1769
 4175TIP3    H112531   0.801   1.871   0.422  1.8858  2.0123  0.7958
 4175TIP3    H212532   0.729   1.978   0.342  0.5278  1.5483  1.3722
 4176TIP3   OH212533   5.550   0.932   0.151  0.0124  0.1970 -0.3273
 4176TIP3    H112534   5.481   0.921   0.085 -1.2319  1.0468  0.7823
 4176TIP3    H212535   5.553   0.848   0.197 -1.4743  0.6488  0.6815
 4177TIP3   OH212536   1.962   3.142   3.131 -0.6376  0.0064 -0.5697
 4177TIP3    H112537   1.916   3.192   3.198  1.1710  1.0209 -0.0235
 4177TIP3    H212538   2.027   3.091   3.179  0.0572  0.0285 -1.4569
 4178TIP3   OH212539   2.839   0.847   1.959 -0.0956 -0.9835 -0.4898
 4178TIP3    H112540   2.763   0.904   1.967 -1.1660 -2.2609 -1.0882
 4178TIP3    H212541   2.871   0.864   1.870  0.0123 -0.8082 -0.4176
 4179TIP3   OH212542   4.868   2.654   0.279  0.2189 -0.2018  0.7006
 4179TIP3    H112543   4.775   2.650   0.256  0.5041 -0.3006 -0.5206
 4179TIP3    H212544   4.908   2.584   0.228  0.6119 -1.8976  3.1937
 4180TIP3   OH212545   4.669   1.418   4.416 -0.2086  0.3560  0.1711
 4180TIP3    H112546   4.719   1.339   4.437  0.7149  1.0214  0.5127
 4180TIP3    H212547   4.663   1.419   4.321 -1.6279 -0.9658  0.2034
 4181TIP3   OH212548   3.257   1.857   2.199 -0.5319  0.4221  0.3748
 4181TIP3    H112549   3.187   1.923   2.190  1.0486  1.9346 -2.4589
 4181TIP3    H212550   3.289   1.868   2.288 -2.5319  1.1150  1.0668
 4182TIP3   OH212551   2.508   5.599   3.894  0.1702 -0.1662  0.1612
 4182TIP3    H112552   2.438   5.568   3.951 -0.2029  0.6802  0.1836
 4182TIP3    H212553   2.556   5.520   3.869 -0.1162 -0.6310  1.0367
 4183TIP3   OH212554   5.299   5.449   3.741 -0.6220 -0.2508 -0.7003
 4183TIP3    H112555   5.249   5.512   3.793 -0.9259 -0.4502 -0.7491
 4183TIP3    H212556   5.317   5.378   3.802 -0.3187 -0.1375 -0.6577
 4184TIP3   OH212557   1.206   1.898   3.216 -0.0543 -0.0267  0.1483
 4184TIP3    H112558   1.256   1.979   3.210  1.5193 -0.9027  0.7221
 4184TIP3    H212559   1.143   1.914   3.286  0.1815  0.7344  0.1905
 4185TIP3   OH212560   4.013   0.541   5.166  0.1411  0.5461  0.3839
 4185TIP3    H112561   4.085   0.491   5.127 -0.3566 -0.2155  0.4327
 4185TIP3    H212562   4.035   0.633   5.147 -0.6543  0.2033 -2.7315
 4186TIP3   OH212563   0.395   5.036   2.410 -0.0131 -0.6900 -0.4282
 4186TIP3    H112564   0.393   5.131   2.405 -0.5124 -0.7051 -0.5542
 4186TIP3    H212565   0.408   5.007   2.320 -0.7709 -0.7600 -0.5205
 4187TIP3   OH212566   0.148   3.097   4.228  0.3378 -0.0071  0.0727
 4187TIP3    H112567   0.181   3.187   4.233 -2.9531  1.3831 -0.6432
 4187TIP3    H212568   0.219   3.048   4.187  2.0248  2.3629 -0.0586
 4188TIP3   OH212569   1.000   5.450   3.881  0.4221  0.1076 -0.3322
 4188TIP3    H112570   1.094   5.467   3.881  0.8274 -1.8206 -1.5167
 4188TIP3    H212571   0.972   5.470   3.792  0.2429 -1.6381 -0.7195
 4189TIP3   OH212572   5.352   2.013   1.831  0.4188 -0.1838 -0.2759
 4189TIP3    H112573   5.422   1.998   1.768  1.7122  2.9633  0.2638
 4189TIP3    H212574   5.275   2.031   1.777  0.6886 -0.8078 -0.8847
 4190TIP3   OH212575   0.914   2.175   5.171  0.3731  0.6051  0.3551
 4190TIP3    H112576   0.878   2.112   5.108  1.2853  0.6346 -0.2089
 4190TIP3    H212577   0.843   2.237   5.185 -0.0746  0.2186 -0.1296
 4191TIP3   OH212578   1.467   3.393   1.870 -0.0858  0.0505 -0.0175
 4191TIP3    H112579   1.455   3.328   1.939  0.1112  0.9681  0.9086
 4191TIP3    H212580   1.562   3.396   1.857 -0.0468  0.5342  0.3382
 4192TIP3   OH212581   1.375   4.715   3.287 -0.3237 -0.1989  0.2545
 4192TIP3    H112582   1.421   4.746   3.365  0.4788 -0.6195 -0.0428
 4192TIP3    H212583   1.285   4.743   3.300 -0.4260 -1.1414  1.8090
 4193TIP3   OH212584   4.240   2.581   3.983 -0.8746 -0.0377 -0.0031
 4193TIP3    H112585   4.245   2.676   3.988 -3.3318  0.1983 -0.8616
 4193TIP3    H212586   4.230   2.562   3.890  2.0178 -1.3947 -0.1696
 4194TIP3   OH212587   3.144   5.701   3.258 -0.1379 -0.1550  0.1143
 4194TIP3    H112588   3.219   5.760   3.251 -0.7256  0.9223  2.0833
 4194TIP3    H212589   3.181   5.618   3.288  0.1728  0.8604  2.8120
 4195TIP3   OH212590   3.261   5.178   2.437 -0.1137 -0.8042  0.1465
 4195TIP3    H112591   3.196   5.236   2.477  0.3408  0.4374 -0.8480
 4195TIP3    H212592   3.327   5.166   2.506  0.3928  0.8823  0.0119
 4196TIP3   OH212593   0.391   1.508   4.352 -0.1773 -0.4899 -0.0576
 4196TIP3    H112594   0.367   1.416   4.340 -0.6009 -0.4184  0.1953
 4196TIP3    H212595   0.379   1.524   4.445  1.3258 -0.5592  0.1680
 4197TIP3   OH212596   0.746   2.984   3.161 -0.3106  0.1147 -0.6799
 4197TIP3    H112597   0.651   2.994   3.161 -0.1884  1.6036 -1.6800
 4197TIP3    H212598   0.762   2.910   3.102 -0.8959 -1.3723  0.9258
 4198TIP3   OH212599   2.225   4.213   4.071  0.3516  0.3310 -0.6075
 4198TIP3    H112600   2.294   4.267   4.033  2.5634 -1.8624  0.0122
 4198TIP3    H212601   2.225   4.235   4.164 -0.3172  0.8407 -0.7216
 4199TIP3   OH212602   4.935   3.684   3.733 -0.1143 -0.2597  0.4776
 4199TIP3    H112603   4.849   3.716   3.706 -1.4119 -0.6869  3.6845
 4199TIP3    H212604   4.934   3.591   3.709 -0.8303 -0.4045  1.0092
 4200TIP3   OH212605   3.898   1.370   0.811  0.1197 -0.1031 -0.0279
 4200TIP3    H112606   3.822   1.311   0.818  0.9946 -1.4498 -1.1618
 4200TIP3    H212607   3.879   1.424   0.734  1.3348 -2.1503 -1.8763
 4201TIP3   OH212608   5.077   3.205   1.693 -0.4908 -0.1313  0.5662
 4201TIP3    H112609   5.009   3.228   1.630  0.8154  4.3847  0.4629
 4201TIP3    H212610   5.153   3.181   1.640 -0.0148  1.6615  0.3690
 4202TIP3   OH212611   5.426   2.146   2.972 -0.0694 -0.4218  0.0287
 4202TIP3    H112612   5.440   2.085   3.044  0.0347 -0.4541 -0.0183
 4202TIP3    H212613   5.406   2.230   3.014 -0.3204 -0.5137  0.0925
 4203TIP3   OH212614   5.506   4.061   4.411  0.1783  0.1603  0.1457
 4203TIP3    H112615   5.493   4.001   4.337 -2.0765  2.5678 -1.5931
 4203TIP3    H212616   5.597   4.090   4.403  0.3357 -0.5749 -0.9137
 4204TIP3   OH212617   3.728   0.656   5.201  0.1187 -0.1710 -0.0263
 4204TIP3    H112618   3.792   0.587   5.182  0.1625  0.2818 -1.6009
 4204TIP3    H212619   3.728   0.711   5.123  0.2008  1.7242  1.2500
 4205TIP3   OH212620   4.003   3.133   4.349  0.5258 -0.5595 -0.1656
 4205TIP3    H112621   4.094   3.104   4.351  1.2274  1.5289  0.7540
 4205TIP3    H212622   3.956   3.066   4.399  1.4244 -1.9664 -1.1413
 4206TIP3   OH212623   4.200   1.014   4.958 -0.3150  0.8314  0.0625
 4206TIP3    H112624   4.112   1.034   4.929 -0.2917 -0.3564 -0.9190
 4206TIP3    H212625   4.244   0.981   4.880  0.8363  0.8862  0.6621
 4207TIP3   OH212626   4.760   4.289   0.679 -0.3804 -0.1077 -1.0046
 4207TIP3    H112627   4.826   4.237   0.633  1.1570  2.0399 -1.3926
 4207TIP3    H212628   4.702   4.322   0.610  0.0326  0.5368 -1.0532
 4208TIP3   OH212629   2.523   5.735   4.990  0.6836 -0.0707 -0.0027
 4208TIP3    H112630   2.442   5.687   4.972  0.6099  0.8782 -2.4791
 4208TIP3    H212631   2.591   5.684   4.947  0.9972  0.6242 -0.3346
 4209TIP3   OH212632   3.323   3.930   2.874 -0.0023 -0.4674  0.7478
 4209TIP3    H112633   3.358   3.998   2.817  0.0528 -0.6207  0.5961
 4209TIP3    H212634   3.249   3.893   2.825 -0.8753  0.3839  1.4004
 4210TIP3   OH212635   2.070   3.165   3.495 -0.2539  0.4083  0.4006
 4210TIP3    H112636   2.087   3.108   3.419 -0.7961 -0.3938  0.8589
 4210TIP3    H212637   2.152   3.166   3.544 -0.5706 -0.9608  1.0077
 4211TIP3   OH212638   2.304   1.102   4.290 -0.5479 -0.5931  0.0833
 4211TIP3    H112639   2.367   1.090   4.219 -1.0043 -2.5271 -0.0451
 4211TIP3    H212640   2.358   1.120   4.367  0.0104  0.3715 -0.5273
 4212TIP3   OH212641   5.764   5.411   4.323  0.0720 -0.4378 -0.1956
 4212TIP3    H112642   5.838   5.353   4.305  0.1347 -0.1085 -1.0412
 4212TIP3    H212643   5.735   5.440   4.236 -1.1186 -0.6474  0.1122
 4213TIP3   OH212644   4.325   5.190   4.415  0.0512  0.3356 -0.3005
 4213TIP3    H112645   4.410   5.234   4.403 -0.0412  0.4158 -0.6635
 4213TIP3    H212646   4.346   5.097   4.407 -0.1414  0.4138 -1.9885
 4214TIP3   OH212647   5.404   1.089   2.071  0.3126  0.5586 -0.9595
 4214TIP3    H112648   5.341   1.113   2.004  1.0975  0.6767 -1.6755
 4214TIP3    H212649   5.484   1.069   2.023  0.5560 -0.5430 -0.1445
 4215TIP3   OH212650   0.548   5.749   2.670 -0.3701 -0.0372 -0.2082
 4215TIP3    H112651   0.501   5.675   2.707 -0.8361  0.8041  0.9656
 4215TIP3    H212652   0.518   5.825   2.720  1.4785  0.6937 -0.0922
 4216TIP3   OH212653   1.501   4.320   0.618  0.1310  0.2214 -0.0458
 4216TIP3    H112654   1.421   4.275   0.643 -0.8043  1.6473 -0.3564
 4216TIP3    H212655   1.483   4.413   0.635  1.6716  0.5805 -0.2367
 4217TIP3   OH212656   0.814   2.723   0.358 -0.2490  0.0801  0.1017
 4217TIP3    H112657   0.734   2.708   0.307  0.5256  1.3600 -1.6167
 4217TIP3    H212658   0.852   2.802   0.319  1.8909 -0.5220  0.8286
 4218TIP3   OH212659   4.117   0.499   2.549 -0.4831  0.1989  0.9224
 4218TIP3    H112660   4.171   0.428   2.515  1.0200  1.1464  1.2577
 4218TIP3    H212661   4.045   0.506   2.486  0.6982  0.0340 -0.4827
 4219TIP3   OH212662   3.267   4.443   1.099 -0.1819 -0.5505 -0.1058
 4219TIP3    H112663   3.354   4.462   1.133  0.2361 -1.5170 -0.5956
 4219TIP3    H212664   3.220   4.405   1.173 -0.5156  0.8463  0.4287
 4220TIP3   OH212665   2.683   3.624   1.053 -0.0468  0.3161  0.1952
 4220TIP3    H112666   2.774   3.597   1.061 -0.3259 -0.8881 -0.4456
 4220TIP3    H212667   2.645   3.608   1.139 -0.0615 -0.8201 -0.0094
 4221TIP3   OH212668   2.105   5.552   0.591  0.1640 -0.2180 -0.1568
 4221TIP3    H112669   2.054   5.509   0.522  1.1101  1.7817 -2.2314
 4221TIP3    H212670   2.040   5.599   0.643 -0.4099 -0.2032 -0.8729
 4222TIP3   OH212671   2.363   1.217   3.281  0.2512 -0.4934 -0.1879
 4222TIP3    H112672   2.282   1.208   3.332  0.2498 -1.6319 -0.3624
 4222TIP3    H212673   2.347   1.165   3.203  1.1661 -0.7502 -0.2100
 4223TIP3   OH212674   0.861   1.374   2.460 -0.3655 -0.1166  0.0496
 4223TIP3    H112675   0.765   1.380   2.458 -0.3552  0.0801  0.1440
 4223TIP3    H212676   0.884   1.348   2.371 -0.5921 -1.5207  0.3779
 4224TIP3   OH212677   5.263   5.849   2.796 -0.2580  0.4247  0.3972
 4224TIP3    H112678   5.210   5.923   2.826 -0.8159  0.2786 -0.1972
 4224TIP3    H212679   5.327   5.889   2.737 -1.3477  0.3257 -0.9265
 4225TIP3   OH212680   2.321   4.630   3.068  0.0969 -0.4780 -0.3063
 4225TIP3    H112681   2.364   4.546   3.086  1.2642 -0.3857 -2.4293
 4225TIP3    H212682   2.243   4.606   3.017 -0.1406 -0.3426 -0.0091
 4226TIP3   OH212683   6.260   5.698   3.248  0.8419  0.0448  0.1675
 4226TIP3    H112684   6.188   5.691   3.311  0.8675  0.8897  0.2883
 4226TIP3    H212685   6.319   5.764   3.284  0.9371  0.4229 -0.6551
 4227TIP3   OH212686   5.842   1.851   1.826 -0.4562  0.1527  0.1067
 4227TIP3    H112687   5.864   1.758   1.821 -0.2335  0.1931  0.3578
 4227TIP3    H212688   5.772   1.856   1.891 -0.4892  0.1581  0.0710
 4228TIP3   OH212689   5.695   2.298   0.654  0.6244 -0.7316 -1.0010
 4228TIP3    H112690   5.771   2.348   0.624 -0.9355  2.0090 -0.6970
 4228TIP3    H212691   5.625   2.320   0.592 -1.5104  1.7640  1.9306
 4229TIP3   OH212692   0.147   1.598   0.264  0.7591  0.0739  0.5339
 4229TIP3    H112693   0.210   1.563   0.327 -0.4477 -0.5428  1.4463
 4229TIP3    H212694   0.136   1.529   0.199  0.1884 -0.2938  1.0075
 4230TIP3   OH212695   6.323   5.141   4.559  0.9494  0.2922  0.1051
 4230TIP3    H112696   6.230   5.165   4.561  1.1156  1.1612 -1.0322
 4230TIP3    H212697   6.353   5.154   4.648  0.4350  2.0937  0.0604
 4231TIP3   OH212698   3.551   1.346   4.516 -0.4794 -0.1523  0.2371
 4231TIP3    H112699   3.625   1.373   4.571 -0.2515  0.4399 -0.3501
 4231TIP3    H212700   3.478   1.398   4.547 -0.0696  1.0932 -0.8098
 4232TIP3   OH212701   2.285   0.614   1.097 -0.1221 -0.2558  0.4405
 4232TIP3    H112702   2.283   0.521   1.116  0.0679 -0.2468  0.5085
 4232TIP3    H212703   2.377   0.638   1.102 -0.1321 -0.1348  0.0772
 4233TIP3   OH212704   2.585   2.516   3.427 -0.2255 -0.1998 -0.0300
 4233TIP3    H112705   2.533   2.471   3.493 -2.3861  2.6321  0.3916
 4233TIP3    H212706   2.664   2.464   3.419 -1.5621 -2.7558  1.9612
 4234TIP3   OH212707   5.726   2.841   2.426  0.0011  0.0362 -0.1673
 4234TIP3    H112708   5.730   2.930   2.390  1.6271  0.4503  0.9141
 4234TIP3    H212709   5.659   2.797   2.374 -1.6579  2.2176 -0.0039
 4235TIP3   OH212710   4.120   2.957   2.580  0.1196 -0.3536 -0.0164
 4235TIP3    H112711   4.118   2.962   2.485  0.2992 -0.8979 -0.0495
 4235TIP3    H212712   4.132   2.864   2.600 -2.4788 -0.6510  0.5754
 4236TIP3   OH212713   1.617   1.116   0.478 -0.2417 -0.1495  0.4363
 4236TIP3    H112714   1.588   1.185   0.538  1.5294 -1.0790  2.4996
 4236TIP3    H212715   1.619   1.158   0.392  1.0495  2.4860  1.6493
 4237TIP3   OH212716   1.303   3.068   0.740 -0.4111 -0.3456  0.1792
 4237TIP3    H112717   1.359   3.041   0.667 -0.5763 -0.3476  0.0525
 4237TIP3    H212718   1.215   3.041   0.714 -1.0756  2.7324 -1.2318
 4238TIP3   OH212719   5.532   1.495   3.120 -0.2833 -0.5584  0.0051
 4238TIP3    H112720   5.530   1.533   3.032 -0.0065 -0.8842 -0.1457
 4238TIP3    H212721   5.568   1.564   3.175 -0.5410 -0.3220 -0.1225
 4239TIP3   OH212722   5.015   5.904   4.670 -0.1540 -0.4612 -0.6666
 4239TIP3    H112723   5.048   5.814   4.674  1.0921  0.0314  2.0441
 4239TIP3    H212724   4.920   5.894   4.677 -0.1272 -1.6017 -1.6038
 4240TIP3   OH212725   5.579   0.270   1.201  0.2030 -0.7319 -0.4607
 4240TIP3    H112726   5.607   0.348   1.153 -0.8990 -1.5402 -2.5428
 4240TIP3    H212727   5.623   0.197   1.156  0.4093 -1.4162  0.8049
 4241TIP3   OH212728   2.031   2.069   1.206  0.7475 -0.3786  0.0312
 4241TIP3    H112729   1.944   2.035   1.188  0.6190  0.0801 -0.2292
 4241TIP3    H212730   2.031   2.088   1.299  0.5277 -0.2695  0.0099
 4242TIP3   OH212731   0.149   5.766   1.267  0.8897 -0.1095 -0.1436
 4242TIP3    H112732   0.127   5.687   1.316  0.1194  0.0877 -0.1699
 4242TIP3    H212733   0.121   5.838   1.322 -0.9392  0.1089 -1.2796
 4243TIP3   OH212734   0.823   3.596   1.851 -0.5661  0.2486  0.0267
 4243TIP3    H112735   0.758   3.630   1.790  0.0955 -2.5199 -2.4958
 4243TIP3    H212736   0.903   3.589   1.798  0.4093 -1.0659  1.5838
 4244TIP3   OH212737   4.233   3.084   1.411  0.4061  0.0801 -0.4304
 4244TIP3    H112738   4.298   3.050   1.472  0.0118 -0.8204 -0.4962
 4244TIP3    H212739   4.156   3.028   1.425 -0.1565  0.7570 -0.7623
 4245TIP3   OH212740   5.143   1.520   0.368  0.0121 -0.2654  0.3247
 4245TIP3    H112741   5.137   1.594   0.428 -1.5591 -0.2920  0.2257
 4245TIP3    H212742   5.078   1.458   0.399 -0.4501 -0.5232 -1.0613
 4246TIP3   OH212743   5.794   4.773   1.166 -0.0222  0.2045  0.0894
 4246TIP3    H112744   5.868   4.716   1.186  0.1800  0.4443  0.0294
 4246TIP3    H212745   5.775   4.758   1.074 -0.1393  0.0397  0.1399
 4247TIP3   OH212746   3.262   5.064   0.361 -0.5408  0.2519  1.1044
 4247TIP3    H112747   3.341   5.059   0.415  0.4531  2.5171 -0.0245
 4247TIP3    H212748   3.198   5.010   0.408  1.7329 -2.0096  1.8405
 4248TIP3   OH212749   4.110   4.061   2.539 -0.3831 -0.1106  0.1096
 4248TIP3    H112750   4.129   4.134   2.480 -0.8890  0.0732  0.1723
 4248TIP3    H212751   4.015   4.065   2.553 -0.6201 -1.5339 -0.8869
 4249TIP3   OH212752   5.539   4.182   3.446 -0.1476 -0.2194 -0.1227
 4249TIP3    H112753   5.443   4.186   3.451 -0.1117 -0.9096  1.6165
 4249TIP3    H212754   5.567   4.273   3.459 -0.5110 -0.3327  1.6088
 4250TIP3   OH212755   5.080   2.500   1.280  0.1865  0.2818 -0.0770
 4250TIP3    H112756   4.990   2.501   1.311 -0.6654 -1.7631 -2.2098
 4250TIP3    H212757   5.103   2.592   1.270 -2.0607  0.8407 -0.5565
 4251TIP3   OH212758   1.796   0.184   4.583  0.3606 -0.3048 -0.0285
 4251TIP3    H112759   1.787   0.194   4.488  2.1790 -0.6203 -0.2772
 4251TIP3    H212760   1.880   0.140   4.594  1.8275  2.6606  1.8323
 4252TIP3   OH212761   5.052   1.528   3.983  0.3633 -0.0472 -0.1696
 4252TIP3    H112762   5.053   1.570   3.898 -0.1442  0.9563  0.3023
 4252TIP3    H212763   5.021   1.439   3.966  0.5185  0.0625 -1.0570
 4253TIP3   OH212764   6.319   0.734   4.169 -0.0891  0.5633  0.3656
 4253TIP3    H112765   6.321   0.731   4.073 -0.5288  1.3232  0.3307
 4253TIP3    H212766   6.241   0.683   4.193  0.2514  0.0203  0.3452
 4254TIP3   OH212767   2.047   5.365   4.746  0.3322 -0.5240  0.1922
 4254TIP3    H112768   1.990   5.375   4.822  0.5747  1.3647  0.1694
 4254TIP3    H212769   2.086   5.278   4.757 -0.6081 -0.8108  1.5333
 4255TIP3   OH212770   6.339   5.022   3.391 -0.1419  0.0548 -0.2799
 4255TIP3    H112771   6.396   5.077   3.338  0.6075 -1.8963 -1.5963
 4255TIP3    H212772   6.255   5.025   3.345  0.1588 -0.6196 -0.8964
 4256TIP3   OH212773   2.601   5.920   2.472 -0.2459  0.0595  0.4226
 4256TIP3    H112774   2.554   5.972   2.406 -1.9412 -0.9878  0.7206
 4256TIP3    H212775   2.532   5.889   2.530  0.8876 -1.3496  1.0639
 4257TIP3   OH212776   0.211   4.134   0.517  0.3378 -0.0575  0.1616
 4257TIP3    H112777   0.266   4.209   0.540  1.6056 -0.2330 -2.0121
 4257TIP3    H212778   0.225   4.122   0.424 -3.1347 -0.4079 -0.4356
 4258TIP3   OH212779   0.094   4.177   4.216  0.0150  0.0269 -0.1232
 4258TIP3    H112780   0.018   4.226   4.184  0.3200  1.0412  0.6303
 4258TIP3    H212781   0.123   4.226   4.293  0.1198 -1.5638  0.8957
 4259TIP3   OH212782   3.325   4.460   4.892  0.2964  0.0133 -0.5312
 4259TIP3    H112783   3.272   4.400   4.945 -0.7358  1.6894  0.4266
 4259TIP3    H212784   3.327   4.420   4.805 -0.6009 -1.2473 -0.0054
 4260TIP3   OH212785   3.537   5.132   1.046 -0.4845  0.4884 -0.1336
 4260TIP3    H112786   3.488   5.208   1.080 -2.2343 -0.2505 -0.8576
 4260TIP3    H212787   3.498   5.057   1.091 -0.1860 -0.1474 -0.9220
 4261TIP3   OH212788   4.027   4.294   2.076 -0.2593  0.3640 -0.2274
 4261TIP3    H112789   4.022   4.360   2.145  1.2459  1.4075 -1.0590
 4261TIP3    H212790   4.056   4.342   1.998 -0.5575 -1.0300 -1.2460
 4262TIP3   OH212791   1.766   0.112   4.065 -0.9026  0.0629  0.1066
 4262TIP3    H112792   1.680   0.089   4.027 -0.6050 -0.5062 -0.2469
 4262TIP3    H212793   1.817   0.142   3.990 -0.1563 -1.5196 -0.0511
 4263TIP3   OH212794   0.446   1.122   3.117 -0.1984  0.2177  0.0256
 4263TIP3    H112795   0.431   1.100   3.025 -2.4469 -0.5249  0.5119
 4263TIP3    H212796   0.481   1.042   3.155 -0.2675  0.1975  0.0457
 4264TIP3   OH212797   5.657   2.415   3.128  0.0410 -0.0562 -0.2936
 4264TIP3    H112798   5.700   2.450   3.206 -0.5740  0.7780 -0.3167
 4264TIP3    H212799   5.564   2.412   3.151 -0.5945  2.9545 -1.9224
 4265TIP3   OH212800   1.121   3.382   2.984  0.1251 -0.3369  0.8004
 4265TIP3    H112801   1.037   3.428   2.993  0.1333 -0.5189  1.9823
 4265TIP3    H212802   1.110   3.326   2.907 -0.4514  0.4480  0.2987
 4266TIP3   OH212803   2.741   4.603   2.244 -0.1510  0.1309  0.4623
 4266TIP3    H112804   2.703   4.638   2.163 -0.8303 -1.2345  0.1670
 4266TIP3    H212805   2.836   4.605   2.228 -0.3220 -1.4171 -0.9492
 4267TIP3   OH212806   5.451   2.344   3.599  0.1974 -0.2051  0.0805
 4267TIP3    H112807   5.524   2.313   3.652  0.5045  1.1016  0.4594
 4267TIP3    H212808   5.373   2.311   3.643  0.5281 -0.9323  0.1249
 4268TIP3   OH212809   6.003   4.970   0.513 -0.5439 -0.0582  0.9002
 4268TIP3    H112810   6.071   5.031   0.541 -1.8335  0.2422  3.7610
 4268TIP3    H212811   6.025   4.887   0.556  0.2804 -1.2218 -1.6200
 4269TIP3   OH212812   2.868   3.540   2.054  0.4270 -0.2042 -0.4175
 4269TIP3    H112813   2.840   3.619   2.101 -0.1694 -0.0451 -1.0118
 4269TIP3    H212814   2.884   3.571   1.964 -2.4955 -1.1902 -1.3984
 4270TIP3   OH212815   6.145   3.970   3.823  0.0460  0.1184  0.4609
 4270TIP3    H112816   6.203   3.942   3.893  1.1447  0.4995 -0.2690
 4270TIP3    H212817   6.144   3.898   3.761  1.2168  0.8180 -0.4078
 4271TIP3   OH212818   3.568   3.014   0.370 -0.1831 -0.0178  0.3544
 4271TIP3    H112819   3.562   3.091   0.312 -0.3180 -1.3104 -1.4228
 4271TIP3    H212820   3.477   2.989   0.386 -0.1393  0.1831  0.9370
 4272TIP3   OH212821   5.373   3.776   4.537 -0.0939  0.1436 -0.8000
 4272TIP3    H112822   5.330   3.782   4.622 -0.8942 -1.3118 -1.0598
 4272TIP3    H212823   5.369   3.865   4.502 -1.7239  0.3397 -0.2299
 4273TIP3   OH212824   2.199   5.043   2.508 -0.0496  0.1938 -0.0836
 4273TIP3    H112825   2.123   5.084   2.467  0.7259  0.7378 -1.0086
 4273TIP3    H212826   2.163   4.999   2.585 -1.3689  0.0581 -0.7471
 4274TIP3   OH212827   4.118   1.051   3.290  0.0867  0.6451 -0.1469
 4274TIP3    H112828   4.134   1.113   3.218 -0.3044 -0.5593 -1.3142
 4274TIP3    H212829   4.202   1.008   3.304 -0.0873  0.1120 -0.6617
 4275TIP3   OH212830   0.253   3.587   3.291 -0.2584  0.7132  0.2381
 4275TIP3    H112831   0.291   3.669   3.322  1.4215  0.6769 -1.5061
 4275TIP3    H212832   0.211   3.549   3.368  0.6539  2.2448  1.5633
 4276TIP3   OH212833   4.564   5.026   3.780  0.3207  0.4367 -0.0573
 4276TIP3    H112834   4.641   4.997   3.829  1.3931 -0.1330 -1.9894
 4276TIP3    H212835   4.497   5.041   3.847  1.4659 -1.0488  1.5046
 4277TIP3   OH212836   0.488   1.941   4.233 -0.2196  0.3390 -0.1051
 4277TIP3    H112837   0.561   1.906   4.284 -0.9118 -1.8516 -0.5012
 4277TIP3    H212838   0.416   1.881   4.250 -1.6211  1.8058 -0.6183
 4278TIP3   OH212839   3.955   4.866   0.446 -0.3724 -0.0771 -0.1673
 4278TIP3    H112840   3.995   4.812   0.378  0.1946  0.5233 -0.3202
 4278TIP3    H212841   3.895   4.925   0.400 -0.1666  0.1690 -0.1237
 4279TIP3   OH212842   0.246   5.043   5.116 -0.1308 -0.0605 -0.3273
 4279TIP3    H112843   0.171   5.095   5.145 -0.0110  0.0696 -0.2442
 4279TIP3    H212844   0.268   4.989   5.193 -0.6582 -0.7125 -0.6258
 4280TIP3   OH212845   2.387   2.524   3.898  0.3812  0.2736 -0.4115
 4280TIP3    H112846   2.352   2.600   3.852 -0.0005  0.1324 -0.3602
 4280TIP3    H212847   2.319   2.457   3.889  0.3259  0.2254  0.3169
 4281TIP3   OH212848   4.569   0.568   2.114  0.0712 -0.0386  0.2607
 4281TIP3    H112849   4.540   0.602   2.199  0.6594  1.1980 -0.0028
 4281TIP3    H212850   4.495   0.586   2.055 -0.3853 -1.0062  0.5213
 4282TIP3   OH212851   4.636   3.980   3.395  0.1863 -0.1052  0.5306
 4282TIP3    H112852   4.653   4.073   3.381 -0.3948  0.1733  1.5690
 4282TIP3    H212853   4.629   3.971   3.490  1.5411 -1.4428  0.5437
 4283TIP3   OH212854   2.996   0.301   1.908 -0.0433 -0.1166  0.3438
 4283TIP3    H112855   3.057   0.374   1.921 -0.4131  0.1703  0.4749
 4283TIP3    H212856   2.966   0.279   1.996 -0.0814 -0.2995  0.2844
 4284TIP3   OH212857   1.466   0.889   5.171  0.1748 -0.3055 -0.0235
 4284TIP3    H112858   1.528   0.819   5.150  1.4688  0.7846  0.0228
 4284TIP3    H212859   1.482   0.956   5.104 -0.1772  0.4564  0.6349
 4285TIP3   OH212860   0.033   0.593   2.011  0.0455  0.4299 -0.0642
 4285TIP3    H112861   0.021   0.687   2.023 -0.7636  0.2389  0.6861
 4285TIP3    H212862   0.010   0.577   1.919 -2.9632  0.5072  0.5917
 4286TIP3   OH212863   2.303   2.835   3.467 -0.1215  0.4281  0.2978
 4286TIP3    H112864   2.264   2.748   3.457  2.4083 -0.7150 -0.3227
 4286TIP3    H212865   2.366   2.842   3.395 -0.1273  2.7227  0.4306
 4287TIP3   OH212866   4.884   0.518   1.847 -0.7632  0.3263 -0.1927
 4287TIP3    H112867   4.869   0.508   1.941 -0.2720  0.9131 -0.0430
 4287TIP3    H212868   4.897   0.429   1.815 -3.1446 -0.0980 -0.1103
 4288TIP3   OH212869   4.238   4.836   1.527  0.3714 -0.1336 -0.1636
 4288TIP3    H112870   4.166   4.883   1.486 -0.3391 -0.5830  0.5528
 4288TIP3    H212871   4.317   4.881   1.495 -0.1131 -0.7352 -2.3265
 4289TIP3   OH212872   6.190   5.330   5.026  0.3047  0.0807  0.1892
 4289TIP3    H112873   6.201   5.405   4.967  0.5404  0.5707  0.8513
 4289TIP3    H212874   6.095   5.320   5.034  0.1720 -1.7237 -2.4449
 4290TIP3   OH212875   5.334   0.596   0.309 -0.6418  0.6596 -0.6536
 4290TIP3    H112876   5.266   0.663   0.318 -1.7784 -0.6535  1.7354
 4290TIP3    H212877   5.408   0.631   0.359 -0.6256  0.8387 -0.8012
 4291TIP3   OH212878   3.442   0.790   1.758  0.2508  1.0126  0.7362
 4291TIP3    H112879   3.509   0.796   1.690 -0.7032  1.7669 -0.1605
 4291TIP3    H212880   3.421   0.697   1.763 -0.2716  1.0346 -0.6209
 4292TIP3   OH212881   5.241   1.294   2.232 -0.4073  0.0810  0.0281
 4292TIP3    H112882   5.280   1.368   2.184 -1.1151  1.1099  0.9819
 4292TIP3    H212883   5.303   1.222   2.219 -0.0449  0.6207 -1.5258
 4293TIP3   OH212884   3.015   2.305   4.705  0.0514  1.2561 -0.1829
 4293TIP3    H112885   3.091   2.250   4.690  0.5586  1.6370  0.8467
 4293TIP3    H212886   2.943   2.262   4.659  0.3446 -0.4705  0.9066
 4294TIP3   OH212887   0.386   0.642   3.021  0.2441  0.3186 -0.2270
 4294TIP3    H112888   0.416   0.604   2.939 -1.0015  0.7884 -0.9188
 4294TIP3    H212889   0.392   0.570   3.084  1.1402 -0.0618 -0.7305
 4295TIP3   OH212890   2.496   1.801   0.332 -0.2593 -0.2992 -0.4650
 4295TIP3    H112891   2.556   1.738   0.292  0.5345  0.1300  0.0327
 4295TIP3    H212892   2.531   1.815   0.420 -0.7589  0.4062 -0.3705
 4296TIP3   OH212893   2.263   2.911   2.080 -0.0773 -0.3890  0.0879
 4296TIP3    H112894   2.207   2.890   2.006  0.3184 -0.9638 -0.0454
 4296TIP3    H212895   2.202   2.922   2.153 -0.2925 -2.3800  0.2641
 4297TIP3   OH212896   2.825   4.705   4.198 -0.4402  0.6114 -0.1953
 4297TIP3    H112897   2.781   4.786   4.175 -2.5207 -0.3970  0.0419
 4297TIP3    H212898   2.836   4.659   4.115  2.3209  1.7849 -0.5999
 4298TIP3   OH212899   2.495   1.057   3.642 -0.0485  0.3062  0.6383
 4298TIP3    H112900   2.578   1.017   3.668  0.0575 -0.1909 -0.3917
 4298TIP3    H212901   2.437   1.044   3.717  0.7366  0.4805  1.2921
 4299TIP3   OH212902   2.184   1.840   0.496 -0.2292  0.0170  0.0176
 4299TIP3    H112903   2.152   1.923   0.458  0.4384 -0.0977 -0.8285
 4299TIP3    H212904   2.278   1.853   0.507  0.3086 -1.3515 -2.2086
 4300TIP3   OH212905   5.190   3.403   4.614 -0.7398 -0.4873  0.2908
 4300TIP3    H112906   5.167   3.488   4.577 -0.6913 -0.7518 -0.3627
 4300TIP3    H212907   5.254   3.423   4.682 -0.1501 -0.0584 -0.3714
 4301TIP3   OH212908   4.489   0.366   4.640 -0.2426 -0.0202 -0.3980
 4301TIP3    H112909   4.442   0.356   4.723  0.2624 -0.3195 -0.1457
 4301TIP3    H212910   4.476   0.283   4.594  0.9287 -0.5246  0.1411
 4302TIP3   OH212911   1.705   1.531   0.581 -0.0406  0.2069 -0.2611
 4302TIP3    H112912   1.685   1.614   0.537 -0.4270  0.6924  0.7909
 4302TIP3    H212913   1.734   1.557   0.669 -2.0471 -0.8096  0.7801
 4303TIP3   OH212914   5.600   4.038   1.397  0.4955 -0.2234 -0.1877
 4303TIP3    H112915   5.572   4.059   1.486  0.6012 -1.2796  0.1099
 4303TIP3    H212916   5.522   4.003   1.354  0.2538  0.9820 -0.7573
 4304TIP3   OH212917   0.208   5.354   2.465 -0.3580  0.1600  0.6830
 4304TIP3    H112918   0.179   5.435   2.508  0.0042 -0.0382  1.3119
 4304TIP3    H212919   0.303   5.362   2.459 -0.5097  0.8014 -1.3784
 4305TIP3   OH212920   3.926   4.667   1.058 -0.0740 -0.1100  0.7375
 4305TIP3    H112921   3.956   4.616   0.983 -0.0448 -2.0228  1.9813
 4305TIP3    H212922   3.845   4.709   1.029  0.8888  0.6923 -0.9169
 4306TIP3   OH212923   4.843   2.261   1.802 -0.2897  0.4294  0.0807
 4306TIP3    H112924   4.931   2.298   1.808  0.0489  0.1498 -2.1325
 4306TIP3    H212925   4.853   2.171   1.833  0.2075  0.4004 -0.1589
 4307TIP3   OH212926   4.325   2.347   3.126 -0.1430 -0.2516 -0.5501
 4307TIP3    H112927   4.374   2.423   3.096 -0.1604 -0.6147 -1.5402
 4307TIP3    H212928   4.323   2.288   3.051 -0.4831 -1.0575  0.0688
 4308TIP3   OH212929   2.578   3.685   2.932  0.1383 -0.1881 -0.0313
 4308TIP3    H112930   2.506   3.748   2.933  0.0480 -0.2514  2.0702
 4308TIP3    H212931   2.637   3.714   3.002  2.0016 -0.3451 -1.4621
 4309TIP3   OH212932   6.283   4.375   3.559  0.1816  0.4400  0.1596
 4309TIP3    H112933   6.299   4.457   3.605 -0.7638 -0.2780  1.8772
 4309TIP3    H212934   6.254   4.314   3.627 -1.7013 -0.5963 -1.4453
 4310TIP3   OH212935   5.568   2.373   4.942 -0.1602  0.1200 -0.4607
 4310TIP3    H112936   5.494   2.393   5.000 -1.0931 -0.8663 -1.2540
 4310TIP3    H212937   5.612   2.299   4.984 -0.4076 -0.1295 -0.6353
 4311TIP3   OH212938   0.478   1.333   4.061  0.4791 -0.1236 -0.5297
 4311TIP3    H112939   0.388   1.347   4.089  0.3587  0.7418 -1.3073
 4311TIP3    H212940   0.530   1.340   4.141 -0.2270 -1.7509  0.1240
 4312TIP3   OH212941   1.621   5.767   0.027  0.3984 -0.7603  0.2544
 4312TIP3    H112942   1.550   5.782  -0.035 -0.7916 -0.8815  1.5451
 4312TIP3    H212943   1.632   5.850   0.073  1.7249 -0.4712 -0.5352
 4313TIP3   OH212944   5.555   5.950   2.960  0.0262  0.7201 -0.2911
 4313TIP3    H112945   5.518   5.879   2.908  0.8220  1.8700 -2.5850
 4313TIP3    H212946   5.644   5.921   2.980 -0.0641  0.5605 -0.1098
 4314TIP3   OH212947   2.148   3.898   3.423  0.3947  0.0913 -1.0524
 4314TIP3    H112948   2.060   3.914   3.456 -0.0878 -0.9234 -1.8019
 4314TIP3    H212949   2.149   3.805   3.399  1.8162 -0.0393 -0.6076
 4315TIP3   OH212950   6.052   5.841   3.432  0.0391  0.4996 -0.5189
 4315TIP3    H112951   6.097   5.840   3.517 -0.9495  1.1055  0.0349
 4315TIP3    H212952   5.994   5.765   3.435  0.2834  0.2932 -0.8328
 4316TIP3   OH212953   2.815   3.425   4.866 -0.4464  0.0569  0.4340
 4316TIP3    H112954   2.794   3.429   4.773 -0.5645  0.3052  0.4725
 4316TIP3    H212955   2.733   3.445   4.911 -0.3700  0.0240  0.5923
 4317TIP3   OH212956   0.556   2.557   2.619 -0.2545 -0.0999  0.2082
 4317TIP3    H112957   0.480   2.559   2.562 -0.7978  2.8779  0.8900
 4317TIP3    H212958   0.625   2.515   2.566 -1.8173 -1.1548 -1.0728
 4318TIP3   OH212959   3.804   1.931   1.256 -0.8532 -0.0868 -0.2618
 4318TIP3    H112960   3.887   1.961   1.294 -0.1442  1.3175 -2.6738
 4318TIP3    H212961   3.741   1.937   1.329  0.7527  0.6871  1.1413
 4319TIP3   OH212962   2.903   3.846   1.607 -0.0958 -0.0472 -0.1304
 4319TIP3    H112963   2.847   3.775   1.577 -0.1964  0.2546 -0.6696
 4319TIP3    H212964   2.860   3.879   1.687  1.4052 -2.3790  1.7676
 4320TIP3   OH212965   1.226   2.254   0.700 -0.4177 -0.4741  0.0757
 4320TIP3    H112966   1.166   2.297   0.760 -0.6470  0.6527 -0.9188
 4320TIP3    H212967   1.311   2.296   0.716 -0.1703 -1.1359  0.5529
 4321TIP3   OH212968   5.466   4.201   3.751 -0.1276  0.0641 -0.1382
 4321TIP3    H112969   5.474   4.265   3.823 -0.1517 -0.2270  0.1246
 4321TIP3    H212970   5.556   4.185   3.724 -0.1266  0.2784 -0.2661
 4322TIP3   OH212971   2.181   1.465   2.920  0.0896 -0.0261 -0.0185
 4322TIP3    H112972   2.209   1.491   3.008 -0.8231  2.5693 -0.4345
 4322TIP3    H212973   2.186   1.545   2.868 -2.4878 -0.7334 -1.5245
 4323TIP3   OH212974   1.765   1.750   1.086  0.1809  0.2626 -0.8174
 4323TIP3    H112975   1.853   1.781   1.108 -0.2071  2.4796 -2.1070
 4323TIP3    H212976   1.711   1.781   1.158  0.3931 -1.0147 -0.0749
 4324TIP3   OH212977   2.885   3.331   1.816 -0.2496  0.4707 -0.1807
 4324TIP3    H112978   2.867   3.310   1.907 -0.1994  0.1758 -0.2373
 4324TIP3    H212979   2.956   3.272   1.790 -1.4126 -0.6863 -0.8978
 4325TIP3   OH212980   1.147   5.149   1.875 -0.4590  0.7223  0.5186
 4325TIP3    H112981   1.181   5.232   1.907 -0.5788  0.0777  2.4053
 4325TIP3    H212982   1.222   5.108   1.831  0.1574  0.9699  1.3149
 4326TIP3   OH212983   0.936   1.683   4.753 -0.9796 -0.1224  0.2958
 4326TIP3    H112984   1.002   1.674   4.822 -1.2796 -0.4132  0.5488
 4326TIP3    H212985   0.947   1.606   4.698 -1.2802 -0.3106  0.4929
 4327TIP3   OH212986   1.837   1.655   3.443  0.4951  0.3808  0.3982
 4327TIP3    H112987   1.813   1.715   3.373  1.6653  0.1949 -0.1800
 4327TIP3    H212988   1.761   1.655   3.502 -1.5254 -1.1451 -1.9803
 4328TIP3   OH212989   0.926   1.736   0.409 -0.1465  0.1762  0.4608
 4328TIP3    H112990   0.897   1.663   0.464 -0.6959  0.2465  0.2653
 4328TIP3    H212991   1.019   1.747   0.431  0.0989 -0.9768  0.0572
 4329TIP3   OH212992   4.934   4.915   1.785  0.4122  0.4266 -0.7304
 4329TIP3    H112993   4.902   5.003   1.764 -0.6418  0.0128 -0.9378
 4329TIP3    H212994   4.855   4.867   1.810  1.2238  0.0923  1.3998
 4330TIP3   OH212995   5.104   4.241   5.078  0.0465  0.1570  0.6984
 4330TIP3    H112996   5.054   4.204   5.151 -0.6585 -2.2304 -0.9022
 4330TIP3    H212997   5.178   4.183   5.067 -0.6852 -0.4558 -1.4228
 4331TIP3   OH212998   2.249   0.093   4.761  0.0950  0.1181 -0.3969
 4331TIP3    H112999   2.218   0.103   4.851 -0.7574 -0.2804 -0.6286
 4331TIP3    H213000   2.244   0.181   4.723  0.9257  0.3798  0.0762
 4332TIP3   OH213001   5.758   3.845   1.205 -0.5179 -0.4422  0.1261
 4332TIP3    H113002   5.765   3.821   1.297  0.1952 -1.3789 -0.1554
 4332TIP3    H213003   5.667   3.827   1.182 -0.7626  0.0377  0.7067
 4333TIP3   OH213004   2.194   1.257   3.635 -0.3101  0.1643 -0.6084
 4333TIP3    H113005   2.197   1.244   3.540  0.4674  0.4114 -0.6215
 4333TIP3    H213006   2.141   1.184   3.667 -1.5568  0.7165 -1.3413
 4334TIP3   OH213007   1.793   5.544   3.015  0.1218  0.1200  0.0455
 4334TIP3    H113008   1.804   5.450   3.009 -0.7176 -0.0925  1.3760
 4334TIP3    H213009   1.752   5.570   2.933 -1.1324 -0.9270  0.3141
 4335TIP3   OH213010   4.144   3.845   0.254  0.1964 -0.3365 -0.5587
 4335TIP3    H113011   4.091   3.770   0.224 -0.8300 -0.1544  0.7114
 4335TIP3    H213012   4.103   3.921   0.213  1.1093 -0.4113 -1.6756
 4336TIP3   OH213013   5.042   1.334   1.490  0.4893 -0.0764  0.3395
 4336TIP3    H113014   5.038   1.392   1.566 -1.7980 -0.6294  0.7155
 4336TIP3    H213015   5.117   1.277   1.507  0.7642  0.6139  1.5622
 4337TIP3   OH213016   5.096   0.248   2.421 -0.1410  0.2085 -0.4823
 4337TIP3    H113017   5.065   0.260   2.331 -3.0071 -3.4872 -0.2221
 4337TIP3    H213018   5.035   0.299   2.475 -0.5319 -0.2432 -0.4859
 4338TIP3   OH213019   4.375   2.795   0.641  0.2070  0.4430  0.4053
 4338TIP3    H113020   4.364   2.890   0.635  1.0940  0.5940  0.9256
 4338TIP3    H213021   4.470   2.783   0.653  0.6669 -0.6654 -3.1189
 4339TIP3   OH213022   2.448   0.822   0.205 -0.3412  0.1170  0.6722
 4339TIP3    H113023   2.512   0.767   0.251 -2.0699 -1.6680  1.0711
 4339TIP3    H213024   2.412   0.765   0.138 -0.6007  1.5188 -0.4302
 4340TIP3   OH213025   6.197   4.070   0.259  0.1341 -0.1405 -0.1198
 4340TIP3    H113026   6.222   4.074   0.167 -1.7862 -0.9787 -0.7387
 4340TIP3    H213027   6.145   3.990   0.266  0.4859 -0.2398  1.7675
 4341TIP3   OH213028   0.344   4.506   1.231 -0.1592  0.0870  0.4030
 4341TIP3    H113029   0.371   4.454   1.307 -1.7264 -0.6767  0.4741
 4341TIP3    H213030   0.361   4.448   1.156 -2.8978 -1.0738  0.5537
 4342TIP3   OH213031   1.679   0.787   4.606 -0.2521  0.5605 -0.0359
 4342TIP3    H113032   1.695   0.696   4.584  1.3066  0.7563  0.1837
 4342TIP3    H213033   1.699   0.835   4.526  1.8316  0.9479  0.6747
 4343TIP3   OH213034   4.299   0.154   1.396  0.2586 -0.0247 -0.1551
 4343TIP3    H113035   4.256   0.145   1.311  1.9713 -0.6151 -0.9923
 4343TIP3    H213036   4.351   0.075   1.406  0.3278  0.1704  1.3335
 4344TIP3   OH213037   4.304   0.625   1.402 -0.0340 -0.2350  0.0822
 4344TIP3    H113038   4.220   0.655   1.366 -0.5484 -1.0199  0.5777
 4344TIP3    H213039   4.369   0.681   1.360 -0.8491  0.7952  0.1225
 4345TIP3   OH213040   2.834   2.046   4.550  0.4493 -0.0162 -0.0111
 4345TIP3    H113041   2.761   2.007   4.501  0.9261  0.4905 -1.1697
 4345TIP3    H213042   2.855   2.125   4.501  0.9693  0.4970  1.0265
 4346TIP3   OH213043   3.928   3.978   3.045 -0.0762  0.2720 -0.7629
 4346TIP3    H113044   3.986   3.947   3.115 -1.5876  0.9661  0.8727
 4346TIP3    H213045   3.844   3.937   3.065 -0.4861  0.2875 -2.3546
 4347TIP3   OH213046   0.253   0.864   4.822 -0.2080 -0.3153  0.1480
 4347TIP3    H113047   0.310   0.937   4.848  0.8683 -1.3428  0.7684
 4347TIP3    H213048   0.204   0.898   4.748  0.5716  0.9157  0.1620
 4348TIP3   OH213049   0.873   1.242   0.518  0.0617 -0.2989  0.6180
 4348TIP3    H113050   0.915   1.162   0.549  0.6207 -0.7907 -1.2979
 4348TIP3    H213051   0.924   1.269   0.441 -3.4970 -1.4336 -2.4353
 4349TIP3   OH213052   3.030   1.470   4.308  0.4155  0.2579  0.4969
 4349TIP3    H113053   2.997   1.446   4.221 -1.2179 -0.5167  1.2800
 4349TIP3    H213054   3.125   1.480   4.296  0.4153 -1.1717 -1.0934
 4350TIP3   OH213055   2.572   0.547   0.902  0.2117  0.0673  0.2670
 4350TIP3    H113056   2.482   0.561   0.871  0.3839 -0.0073 -0.2773
 4350TIP3    H213057   2.566   0.469   0.958  0.2639 -1.1199 -1.3126
 4351TIP3   OH213058   3.019   1.749   4.957  0.0212  0.5233 -0.4384
 4351TIP3    H113059   2.960   1.803   5.010 -1.0849 -0.7427 -0.2891
 4351TIP3    H213060   2.999   1.772   4.867 -0.2771  0.5427 -0.3680
 4352TIP3   OH213061   4.521   4.436   1.064 -0.0939 -0.1486 -0.2433
 4352TIP3    H113062   4.606   4.417   1.023 -1.2212 -1.3084 -2.1809
 4352TIP3    H213063   4.467   4.468   0.992 -0.9052  2.0370  1.2523
 4353TIP3   OH213064   2.945   4.569   4.871  0.2605 -0.3270  0.1456
 4353TIP3    H113065   2.897   4.576   4.954 -0.1183 -1.0093 -0.0058
 4353TIP3    H213066   2.889   4.514   4.816  1.2000 -1.1264 -0.0454
 4354TIP3   OH213067   3.289   1.941   0.640  0.2302  0.2554  0.4804
 4354TIP3    H113068   3.244   1.862   0.611 -0.9515  0.7524  0.9082
 4354TIP3    H213069   3.381   1.915   0.645 -0.2753 -1.4790  1.8657
 4355TIP3   OH213070   5.521   1.181   2.548 -0.1363 -0.6163 -0.1360
 4355TIP3    H113071   5.448   1.119   2.548 -0.9085  0.2127  1.7816
 4355TIP3    H213072   5.488   1.256   2.596  1.0028  1.0414 -1.8321
 4356TIP3   OH213073   1.483   4.027   4.525 -0.0661 -0.3620  0.0986
 4356TIP3    H113074   1.565   3.981   4.511  0.0889  0.5509 -2.5092
 4356TIP3    H213075   1.416   3.968   4.493 -0.0734  0.2155 -1.0140
 4357TIP3   OH213076   0.927   0.466   3.199 -0.0073  0.0110 -0.4013
 4357TIP3    H113077   0.940   0.414   3.278  0.8414  0.2821 -0.3515
 4357TIP3    H213078   1.015   0.496   3.176 -0.2625  0.0454 -1.3717
 4358TIP3   OH213079   1.850   1.464   1.398  0.0469  0.3099 -0.0762
 4358TIP3    H113080   1.769   1.499   1.361 -0.0957  0.0652  0.0047
 4358TIP3    H213081   1.911   1.538   1.396 -0.2153  0.5292 -0.0221
 4359TIP3   OH213082   6.018   1.879   2.418 -0.0655 -0.5718  0.1025
 4359TIP3    H113083   6.002   1.955   2.362 -2.0850 -1.5250 -0.6887
 4359TIP3    H213084   6.037   1.917   2.505 -1.1753  0.8301 -0.2301
 4360TIP3   OH213085   2.925   3.071   1.190 -0.0085 -0.2704  0.1827
 4360TIP3    H113086   2.929   3.031   1.277  0.1651  1.4010  0.9737
 4360TIP3    H213087   3.016   3.092   1.169 -0.3052  1.8632  0.8493
 4361TIP3   OH213088   3.478   4.262   4.399 -0.1899  0.3244  0.0018
 4361TIP3    H113089   3.534   4.232   4.470  0.6964  1.0010 -0.3873
 4361TIP3    H213090   3.509   4.216   4.321 -0.3025  0.5433 -0.1768
 4362TIP3   OH213091   0.108   3.269   0.370 -0.4633 -0.0028  0.3376
 4362TIP3    H113092   0.094   3.236   0.459 -0.1121 -0.3480  0.2682
 4362TIP3    H213093   0.114   3.364   0.380  0.1583 -0.0789  0.7682
 4363TIP3   OH213094   0.710   2.548   3.343  0.2203  0.0414 -0.4243
 4363TIP3    H113095   0.737   2.469   3.390 -1.5532 -0.5223 -0.2459
 4363TIP3    H213096   0.740   2.621   3.398  0.2926 -0.5616  0.3554
 4364TIP3   OH213097   1.314   2.228   2.468 -0.0322  0.8559 -0.8096
 4364TIP3    H113098   1.261   2.160   2.512  1.6987  0.5062  0.8612
 4364TIP3    H213099   1.336   2.189   2.384  0.7201 -0.6177  0.0171
 4365TIP3   OH213100   6.053   5.324   0.020 -0.0009 -0.1558  0.3168
 4365TIP3    H113101   6.108   5.336  -0.057 -1.4711 -0.3178 -0.7920
 4365TIP3    H213102   6.106   5.357   0.093  0.9338  1.2071 -0.9294
 4366TIP3   OH213103   0.483   3.161   1.135  0.1112 -0.2371 -0.6168
 4366TIP3    H113104   0.572   3.165   1.170 -0.4777 -0.6675  1.0769
 4366TIP3    H213105   0.491   3.189   1.044  1.7389  1.2554 -0.0793
 4367TIP3   OH213106   5.430   5.118   4.382  0.7170 -0.4389 -0.5186
 4367TIP3    H113107   5.510   5.073   4.355  0.9103 -0.2802 -0.2149
 4367TIP3    H213108   5.459   5.183   4.445  0.4291  0.0838 -0.9218
 4368TIP3   OH213109   0.701   2.694   4.771  0.6605  0.0955  0.4892
 4368TIP3    H113110   0.705   2.605   4.735 -2.2506  1.0283 -2.7099
 4368TIP3    H213111   0.773   2.741   4.729 -0.3467  0.1932 -1.2213
 4369TIP3   OH213112   2.816   2.905   4.121 -0.4733  0.1840  0.3177
 4369TIP3    H113113   2.867   2.939   4.194  0.9414 -2.2439  0.5730
 4369TIP3    H213114   2.782   2.821   4.152 -1.3122 -0.0937 -1.2325
 4370TIP3   OH213115   1.797   4.266   4.896 -0.7256  0.1572  0.3941
 4370TIP3    H113116   1.744   4.340   4.928  0.0025  1.7747 -1.8712
 4370TIP3    H213117   1.790   4.271   4.801  0.9529 -1.5406  0.1233
 4371TIP3   OH213118   5.487   2.294   1.139 -0.1962 -0.1299 -0.1559
 4371TIP3    H113119   5.454   2.303   1.229  0.4911  0.3538  0.0581
 4371TIP3    H213120   5.411   2.311   1.084 -0.7952 -1.1342  0.3258
 4372TIP3   OH213121   6.287   3.211   4.430 -0.1595  0.1006 -0.2230
 4372TIP3    H113122   6.245   3.289   4.395  0.3031  0.0411 -0.9394
 4372TIP3    H213123   6.323   3.167   4.353 -2.6701 -2.2310 -0.2118
 4373TIP3   OH213124   3.367   1.684   0.285 -0.5511  1.1476 -0.1870
 4373TIP3    H113125   3.410   1.603   0.312  1.0108  2.0664  0.1976
 4373TIP3    H213126   3.353   1.673   0.191  0.4940  0.7817 -0.3169
 4374TIP3   OH213127   0.930   4.558   4.272 -0.4093 -0.0819 -0.6214
 4374TIP3    H113128   1.016   4.593   4.294 -0.4208 -0.5160  0.1858
 4374TIP3    H213129   0.928   4.471   4.314 -0.4322 -0.9972 -2.4181
 4375TIP3   OH213130   4.775   3.796   1.348  0.1150  0.5404 -0.0772
 4375TIP3    H113131   4.845   3.854   1.317 -0.1760  0.2932 -1.2473
 4375TIP3    H213132   4.703   3.856   1.371  0.4422  0.7471  0.4156
 4376TIP3   OH213133   3.835   0.778   2.457  0.0601  0.0283 -0.0420
 4376TIP3    H113134   3.762   0.744   2.510 -1.1300 -0.7819 -2.0948
 4376TIP3    H213135   3.796   0.847   2.404  0.3438 -1.4538 -2.2977
 4377TIP3   OH213136   5.430   1.219   4.074  0.2258 -0.0016  0.1806
 4377TIP3    H113137   5.460   1.308   4.055 -0.0252 -0.0185 -0.3068
 4377TIP3    H213138   5.344   1.213   4.033  0.8161 -0.9066 -0.9975
 4378TIP3   OH213139   0.040   0.951   4.662 -0.3636 -0.2706 -0.3396
 4378TIP3    H113140   0.046   0.913   4.574 -2.4151  1.4824 -1.3223
 4378TIP3    H213141  -0.054   0.953   4.681  0.0417 -0.8198  2.0296
 4379TIP3   OH213142   5.846   4.128   1.206 -1.4002  0.0392  0.2157
 4379TIP3    H113143   5.836   4.038   1.176 -0.3137 -0.4961  1.3566
 4379TIP3    H213144   5.782   4.137   1.277 -1.0790 -0.0417  0.5185
 4380TIP3   OH213145   5.352   5.107   0.117  0.3382  0.0775 -0.9096
 4380TIP3    H113146   5.445   5.130   0.120  0.6843 -1.1907 -1.4474
 4380TIP3    H213147   5.310   5.171   0.175  1.3378  1.6029 -1.8013
 4381TIP3   OH213148   3.200   2.259   4.053 -0.1080 -0.4206  0.5043
 4381TIP3    H113149   3.258   2.182   4.055  0.2401 -0.1937 -0.4391
 4381TIP3    H213150   3.148   2.247   3.974  1.8847  1.6753 -1.2758
 4382TIP3   OH213151   6.306   0.273   4.906  0.4395  0.0723 -0.1205
 4382TIP3    H113152   6.386   0.305   4.948 -0.1621  0.1732  0.9987
 4382TIP3    H213153   6.247   0.255   4.979 -0.5743  0.0361 -0.9315
 4383TIP3   OH213154   2.894   4.504   1.812  0.2029 -0.3218  0.1971
 4383TIP3    H113155   2.817   4.559   1.798  0.0772 -0.2796  1.0073
 4383TIP3    H213156   2.866   4.441   1.878  1.5883  1.2571  2.4431
 4384TIP3   OH213157   5.754   2.714   0.841  0.1139 -0.2957 -1.0394
 4384TIP3    H113158   5.696   2.639   0.829  0.4045 -0.8659  0.8175
 4384TIP3    H213159   5.794   2.727   0.755 -1.8995 -0.5693 -2.0749
 4385TIP3   OH213160   4.229   5.799   2.551  0.6377  0.3223 -0.2587
 4385TIP3    H113161   4.209   5.880   2.505  1.3683  0.4242 -0.4211
 4385TIP3    H213162   4.287   5.751   2.491  1.0282  0.1383  0.2540
 4386TIP3   OH213163   0.905   2.868   3.367  0.0847  0.3460  0.1342
 4386TIP3    H113164   0.955   2.809   3.310  1.2201  1.8806 -0.5136
 4386TIP3    H213165   0.840   2.908   3.310  0.8133  1.4085  0.0077
 4387TIP3   OH213166   1.653   2.805   0.418  0.1635  0.3335 -0.3876
 4387TIP3    H113167   1.748   2.810   0.404 -0.0229 -0.2135 -2.1180
 4387TIP3    H213168   1.616   2.803   0.330 -1.4676  0.4724  0.2601
 4388TIP3   OH213169   5.512   5.136   4.732  0.3769 -0.2907  0.1385
 4388TIP3    H113170   5.473   5.208   4.781  1.8613  1.4549 -1.0897
 4388TIP3    H213171   5.439   5.079   4.710 -0.7683  0.5478  1.6239
 4389TIP3   OH213172   1.043   0.577   2.609 -0.3323 -0.7250 -0.4032
 4389TIP3    H113173   1.014   0.594   2.699 -1.0354 -2.8732 -0.1531
 4389TIP3    H213174   1.089   0.493   2.614  0.1156 -0.6093 -1.9715
 4390TIP3   OH213175   1.529   1.246   2.878  0.1557 -0.0836 -0.0820
 4390TIP3    H113176   1.510   1.219   2.788  1.9649  0.1918 -0.5762
 4390TIP3    H213177   1.446   1.283   2.909  0.0248  1.8242 -2.3869
 4391TIP3   OH213178   0.134   0.165   0.893  0.2597  0.0637  0.3490
 4391TIP3    H113179   0.223   0.131   0.896  0.6561  0.9275 -0.8791
 4391TIP3    H213180   0.078   0.087   0.897  1.0510 -0.4805  1.2262
 4392TIP3   OH213181   2.850   0.918   1.232  0.0854 -0.3533  0.0211
 4392TIP3    H113182   2.804   0.853   1.179 -3.0938  0.8178  1.1002
 4392TIP3    H213183   2.828   1.002   1.192  2.9105  0.2619 -0.4741
 4393TIP3   OH213184   5.967   0.710   5.144  0.6183  0.4174 -0.1866
 4393TIP3    H113185   6.043   0.749   5.101  1.0628 -0.5802 -0.3527
 4393TIP3    H213186   5.893   0.762   5.114  1.1592  0.9929 -0.5546
 4394TIP3   OH213187   1.186   5.522   1.729  0.1563  0.2138  0.0193
 4394TIP3    H113188   1.111   5.462   1.719  0.6635 -0.2355 -1.3078
 4394TIP3    H213189   1.179   5.553   1.819 -1.1954 -0.4053  0.1647
 4395TIP3   OH213190   2.424   0.461   1.578 -0.1402 -0.0320 -0.2026
 4395TIP3    H113191   2.505   0.497   1.615 -0.0912 -1.1960  0.9091
 4395TIP3    H213192   2.363   0.534   1.577  0.2103  0.3151  1.2053
 4396TIP3   OH213193   3.285   4.227   0.878  0.3907  0.2923  0.1455
 4396TIP3    H113194   3.255   4.275   0.956 -1.0873  0.9520 -0.7831
 4396TIP3    H213195   3.223   4.252   0.810 -0.4273 -2.9127 -0.4229
 4397TIP3   OH213196   5.950   1.052   1.855 -0.1254 -0.1701  0.0488
 4397TIP3    H113197   5.924   1.106   1.929  1.0083  0.0894  0.2702
 4397TIP3    H213198   5.898   0.972   1.864  1.3069 -0.9297  2.1978
 4398TIP3   OH213199   0.396   3.395   0.139  0.0900  0.1971 -0.3065
 4398TIP3    H113200   0.309   3.434   0.136  0.3826  1.0216  1.0148
 4398TIP3    H213201   0.381   3.306   0.171 -0.4178 -0.2507 -1.7316
 4399TIP3   OH213202   5.280   5.441   2.324  0.2138 -0.1712  0.0960
 4399TIP3    H113203   5.353   5.500   2.340  0.3413  0.5149 -2.5626
 4399TIP3    H213204   5.202   5.493   2.344  0.3853 -0.4344  1.5382
 4400TIP3   OH213205   2.325   5.840   4.141 -0.5672 -0.4277  0.0997
 4400TIP3    H113206   2.421   5.846   4.142 -0.4973 -0.7729 -1.9045
 4400TIP3    H213207   2.303   5.804   4.227  1.2431 -2.0132 -0.0434
 4401TIP3   OH213208   4.990   2.180   1.464  0.2078  0.7178  0.6354
 4401TIP3    H113209   5.046   2.224   1.528  0.4559  0.6824  0.4434
 4401TIP3    H213210   5.048   2.163   1.389 -0.4025  2.0243 -0.1854
 4402TIP3   OH213211   0.643   0.411   4.131  0.0032  0.5551  0.4237
 4402TIP3    H113212   0.574   0.359   4.089 -0.5293  0.7615  1.0285
 4402TIP3    H213213   0.705   0.346   4.164  0.4914  0.3941 -0.7693
 4403TIP3   OH213214   5.385   0.065   4.230  0.0006 -0.1407  0.4278
 4403TIP3    H113215   5.297   0.039   4.255  0.6178 -1.9353  0.8863
 4403TIP3    H213216   5.417  -0.007   4.175  0.9633  0.7590 -0.2341
 4404TIP3   OH213217   1.488   4.604   1.655  0.0797 -0.6479 -0.5116
 4404TIP3    H113218   1.525   4.524   1.693  1.8790 -0.1630 -1.1433
 4404TIP3    H213219   1.536   4.675   1.697 -0.9558  0.0651 -0.5280
 4405TIP3   OH213220   4.723   4.062   4.296 -0.7549 -0.0762 -0.2269
 4405TIP3    H113221   4.816   4.069   4.273 -0.2729 -0.7965  1.3133
 4405TIP3    H213222   4.705   3.968   4.294 -1.0340 -0.0668  0.8846
 4406TIP3   OH213223   3.708   5.415   4.140  0.1635  0.2789  0.5400
 4406TIP3    H113224   3.726   5.482   4.206 -0.2317 -0.1670  1.1067
 4406TIP3    H213225   3.708   5.333   4.189 -2.5244  0.1495  0.4188
 4407TIP3   OH213226   3.447   2.699   1.941  0.2477 -0.1717 -0.1304
 4407TIP3    H113227   3.368   2.654   1.970 -0.2346  0.6128 -0.1995
 4407TIP3    H213228   3.470   2.656   1.859  0.2316 -0.7943  0.1876
 4408TIP3   OH213229   4.838   2.070   0.239 -0.7266 -0.0986 -0.0408
 4408TIP3    H113230   4.836   2.057   0.144  1.7899 -0.1605 -0.1574
 4408TIP3    H213231   4.778   2.143   0.255  0.6154  1.5392 -2.0290
 4409TIP3   OH213232   2.222   1.375   0.837  0.0713 -0.1242 -0.5373
 4409TIP3    H113233   2.291   1.421   0.884  0.1543 -1.1073  0.3289
 4409TIP3    H213234   2.174   1.445   0.791  0.6045  0.7466  0.1912
 4410TIP3   OH213235   3.367   3.957   0.802 -0.1182  0.2840  0.1362
 4410TIP3    H113236   3.400   3.916   0.882  2.7037 -0.9959 -1.5218
 4410TIP3    H213237   3.336   4.043   0.830  0.5588 -0.2009  2.6164
 4411TIP3   OH213238   4.025   5.950   4.451  0.0749 -0.6016 -0.0432
 4411TIP3    H113239   4.065   6.015   4.509 -0.4656 -0.3185  0.0213
 4411TIP3    H213240   4.030   5.990   4.364 -0.8995 -0.1501  0.0965
 4412TIP3   OH213241   5.149   3.283   2.955  0.0279  0.7471  0.2459
 4412TIP3    H113242   5.149   3.320   3.043 -1.2460  0.6752  0.3006
 4412TIP3    H213243   5.173   3.192   2.967 -0.8053  0.5645  0.6222
 4413TIP3   OH213244   3.991   0.838   1.601 -0.2459 -0.7041  0.0525
 4413TIP3    H113245   4.073   0.794   1.623 -0.2233 -0.1013  1.2714
 4413TIP3    H213246   3.929   0.808   1.668 -0.1584  1.2597  1.1014
 4414TIP3   OH213247   2.286   3.948   4.986 -0.0369  0.3855  0.7052
 4414TIP3    H113248   2.355   3.981   5.044 -0.0013 -0.2669  1.0378
 4414TIP3    H213249   2.321   3.867   4.950  1.6417  2.6647 -3.4119
 4415TIP3   OH213250   4.228   2.369   2.066 -0.4319  0.0846  0.2505
 4415TIP3    H113251   4.265   2.423   2.135 -0.7479  2.9638 -1.6502
 4415TIP3    H213252   4.296   2.364   1.999 -0.9911 -0.5210 -0.2992
 4416TIP3   OH213253   4.845   1.865   4.195 -0.0864 -0.6910 -0.1457
 4416TIP3    H113254   4.850   1.770   4.182  1.2153 -0.4924 -1.2561
 4416TIP3    H213255   4.823   1.875   4.288  2.5538 -2.0775  0.7393
 4417TIP3   OH213256   3.639   2.938   4.248 -0.1661  0.2381  0.6370
 4417TIP3    H113257   3.572   2.894   4.196  1.2047 -2.2057  0.8332
 4417TIP3    H213258   3.638   3.029   4.216 -0.5190 -0.7506 -2.4804
 4418TIP3   OH213259   1.065   0.119   1.408  0.4866 -0.0905  0.0677
 4418TIP3    H113260   1.021   0.159   1.482 -1.4192  0.5235 -1.3232
 4418TIP3    H213261   1.143   0.173   1.395 -0.7916  1.7766 -0.2774
 4419TIP3   OH213262   0.454   3.874   3.176 -0.1193  0.0299  0.0227
 4419TIP3    H113263   0.376   3.876   3.233 -0.2521 -3.3159  0.1500
 4419TIP3    H213264   0.527   3.880   3.237 -0.2219  1.2240  0.0635
 4420TIP3   OH213265   5.619  -0.006   2.572  0.3054 -0.4211 -0.2030
 4420TIP3    H113266   5.593   0.078   2.535  1.9486 -0.0806 -0.6880
 4420TIP3    H213267   5.567  -0.015   2.652 -1.5523 -0.0354 -1.3116
 4421TIP3   OH213268   6.008   4.124   2.369  0.0779 -0.0280 -0.5016
 4421TIP3    H113269   6.074   4.092   2.431  0.6465  0.1233 -1.0256
 4421TIP3    H213270   5.935   4.063   2.378  0.2103 -0.0894  0.2148
 4422TIP3   OH213271   1.954   4.443   0.104 -0.2695  0.7891 -0.0451
 4422TIP3    H113272   2.019   4.492   0.154 -0.6180  1.5399 -0.3100
 4422TIP3    H213273   1.995   4.359   0.087  0.2608  0.9094  0.6027
 4423TIP3   OH213274   4.719   4.058   5.010 -0.2104 -0.2947  0.6415
 4423TIP3    H113275   4.808   4.078   5.039 -0.1131 -0.5780  0.5399
 4423TIP3    H213276   4.716   4.087   4.919  0.2197 -1.5891  0.2020
 4424TIP3   OH213277   4.527   5.720   2.378 -0.4272 -0.1538 -0.0203
 4424TIP3    H113278   4.496   5.809   2.362 -0.1676  0.1498  1.0554
 4424TIP3    H213279   4.553   5.687   2.292 -1.1695  0.5569 -0.5289
 4425TIP3   OH213280   3.270   1.917   2.481  0.1477 -0.7044  0.1291
 4425TIP3    H113281   3.221   1.844   2.520 -0.8632 -0.6919 -1.0452
 4425TIP3    H213282   3.359   1.906   2.514 -0.5414 -0.9184  2.0906
 4426TIP3   OH213283   1.887   3.934   0.732  0.6080  1.0325  0.0147
 4426TIP3    H113284   1.911   3.858   0.784  0.8303  1.1745  0.1237
 4426TIP3    H213285   1.899   3.906   0.641 -0.1018  0.6794  0.0283
 4427TIP3   OH213286   4.401   2.818   4.289 -0.4884  0.1113 -0.3101
 4427TIP3    H113287   4.475   2.851   4.239  0.1921 -1.4777 -0.4162
 4427TIP3    H213288   4.398   2.725   4.269 -2.1983  0.0391  0.1111
 4428TIP3   OH213289   1.903   2.021   4.305 -0.3369 -0.2311  0.1838
 4428TIP3    H113290   1.824   2.074   4.295 -0.6080 -0.6463  0.0975
 4428TIP3    H213291   1.976   2.083   4.292 -0.6497  0.0380 -0.3134
 4429TIP3   OH213292   2.346   1.753   4.490  0.2814 -0.1820  0.3168
 4429TIP3    H113293   2.414   1.687   4.501 -0.6975 -1.5308 -1.2169
 4429TIP3    H213294   2.366   1.794   4.405 -0.0046  0.4023  0.5281
 4430TIP3   OH213295   5.617   0.731   4.885  0.3085 -0.1663  0.5172
 4430TIP3    H113296   5.604   0.761   4.795  0.9593 -0.4232  0.3332
 4430TIP3    H213297   5.591   0.639   4.883 -0.8100  0.1251  0.8730
 4431TIP3   OH213298   1.716   5.541   2.573  0.3984  0.1571 -0.0531
 4431TIP3    H113299   1.675   5.553   2.659  0.2586  0.0220 -0.1002
 4431TIP3    H213300   1.742   5.629   2.546  0.2252  0.2313  0.0214
 4432TIP3   OH213301   2.931   5.729   0.462  0.2285  0.4872 -0.0046
 4432TIP3    H113302   2.847   5.775   0.454 -0.5127 -0.8471 -0.1604
 4432TIP3    H213303   2.946   5.692   0.375  0.3849 -0.2797  0.3439
 4433TIP3   OH213304   3.603   4.196   0.997  0.2143  0.1414  0.0071
 4433TIP3    H113305   3.693   4.197   1.029 -0.4939  1.0892  2.1765
 4433TIP3    H213306   3.593   4.280   0.952 -0.1163  0.9622  1.5411
 4434TIP3   OH213307   0.843  -0.021   0.655 -0.2596  0.4575 -0.2498
 4434TIP3    H113308   0.808   0.034   0.726 -0.4742 -0.2285  0.1890
 4434TIP3    H213309   0.883   0.041   0.594  2.0110  0.9490  1.5920
 4435TIP3   OH213310   2.241   5.661   3.503  0.2701 -0.0836  0.3278
 4435TIP3    H113311   2.324   5.693   3.537  0.2082 -1.2104  1.6382
 4435TIP3    H213312   2.180   5.734   3.514  0.8429  0.3942  0.3415
 4436TIP3   OH213313   5.107   5.755   4.116 -0.4653  0.4739 -0.5167
 4436TIP3    H113314   5.041   5.751   4.185 -1.2869  1.1685 -1.2291
 4436TIP3    H213315   5.191   5.753   4.162 -0.8931 -2.1134  0.3370
 4437TIP3   OH213316   0.980   5.846   5.023  0.3552  0.0793  0.0095
 4437TIP3    H113317   0.986   5.803   4.938 -0.5989  2.9635 -1.6052
 4437TIP3    H213318   0.948   5.777   5.082  1.5271 -2.1284 -1.7639
 4438TIP3   OH213319   5.039   0.596   3.858 -0.1179  0.4389 -0.3834
 4438TIP3    H113320   5.090   0.668   3.894  2.1186 -0.7804 -0.8981
 4438TIP3    H213321   4.983   0.636   3.793  0.6267  1.7966 -0.2239
 4439TIP3   OH213322   4.810   5.585   5.110 -0.0133  0.1471 -0.2873
 4439TIP3    H113323   4.807   5.517   5.178  0.1161 -0.3925 -0.8091
 4439TIP3    H213324   4.832   5.537   5.030  0.2356  0.8330 -0.6334
 4440TIP3   OH213325   1.789   5.530   4.124  0.3889 -0.0138  0.4882
 4440TIP3    H113326   1.796   5.625   4.115  3.0700 -0.2150 -0.2133
 4440TIP3    H213327   1.856   5.507   4.189  1.1482 -1.6022 -0.7966
 4441TIP3   OH213328   0.521   3.477   1.430 -0.0893 -0.7271 -0.2068
 4441TIP3    H113329   0.587   3.441   1.370  0.0492  0.4799 -0.8132
 4441TIP3    H213330   0.476   3.543   1.378 -0.2679  0.0301  0.8943
 4442TIP3   OH213331   3.305   4.711   0.048  0.0697  0.2320  0.9047
 4442TIP3    H113332   3.341   4.719   0.136 -0.9856 -0.2788  1.4053
 4442TIP3    H213333   3.274   4.799   0.027 -0.2238  0.2216  1.2895
 4443TIP3   OH213334   4.935   5.945   5.056  0.5508  0.4246 -0.1033
 4443TIP3    H113335   4.957   6.011   4.991 -1.5199  1.9537  0.6283
 4443TIP3    H213336   5.014   5.936   5.109  1.0681  1.8806 -0.5839
 4444TIP3   OH213337   4.637   4.319   4.230 -0.3140  0.0761 -0.4058
 4444TIP3    H113338   4.708   4.383   4.225  0.0364 -0.3423 -0.8859
 4444TIP3    H213339   4.680   4.238   4.258 -0.9405  0.3283  1.4396
 4445TIP3   OH213340   0.808   2.827   2.681  0.4293 -0.7469  0.1128
 4445TIP3    H113341   0.763   2.908   2.656  0.3425 -0.7755  0.1729
 4445TIP3    H213342   0.792   2.767   2.608 -0.7190 -1.1780  0.6841
 4446TIP3   OH213343   4.202   5.577   3.288 -0.6958 -0.1687  0.2410
 4446TIP3    H113344   4.274   5.608   3.233 -1.3463 -0.2091 -0.6389
 4446TIP3    H213345   4.224   5.610   3.376  0.4588 -0.3005  0.0160
 4447TIP3   OH213346   5.817   0.164   2.267 -0.0446  0.3462  0.0608
 4447TIP3    H113347   5.856   0.251   2.273  1.4282 -0.1611 -1.3025
 4447TIP3    H213348   5.873   0.117   2.204 -2.6415 -0.5596 -1.7276
 4448TIP3   OH213349   0.509   0.280   2.935  0.0951  0.1975  0.1911
 4448TIP3    H113350   0.515   0.283   3.031  0.7237 -0.8013  0.1946
 4448TIP3    H213351   0.420   0.311   2.916 -0.8392 -1.6083  1.2412
 4449TIP3   OH213352   0.749   4.616   3.562  0.2346 -0.1537  0.5538
 4449TIP3    H113353   0.789   4.628   3.649  0.4212 -2.6851  0.9021
 4449TIP3    H213354   0.658   4.644   3.573  0.1386 -0.8636  1.7178
 4450TIP3   OH213355   4.604   0.567   0.704  0.1953 -0.2924  0.1810
 4450TIP3    H113356   4.656   0.513   0.644 -0.2503  0.9748 -1.4014
 4450TIP3    H213357   4.659   0.576   0.782  0.4719 -2.6123  0.3287
 4451TIP3   OH213358   5.482   3.122   2.498 -0.1455 -0.1566  0.6940
 4451TIP3    H113359   5.466   3.033   2.468  2.7479 -0.5474 -0.0590
 4451TIP3    H213360   5.465   3.178   2.422  1.7320 -0.5463 -0.0720
 4452TIP3   OH213361   4.851   5.192   0.811  0.4689 -0.5616  0.2440
 4452TIP3    H113362   4.888   5.208   0.724 -0.3798 -1.3551 -0.2805
 4452TIP3    H213363   4.827   5.099   0.810 -2.2875  0.0773  0.2345
 4453TIP3   OH213364   0.955   3.425   3.664 -0.1337  0.2836 -0.3472
 4453TIP3    H113365   1.047   3.398   3.662 -0.1794 -0.2584  1.9094
 4453TIP3    H213366   0.958   3.520   3.657  0.5088  0.1984 -1.4243
 4454TIP3   OH213367   5.836   2.428   4.445  0.1147 -0.2502 -0.3478
 4454TIP3    H113368   5.909   2.400   4.500  0.0292 -1.0892 -0.6459
 4454TIP3    H213369   5.758   2.414   4.499  0.1224  0.0358 -0.2617
 4455TIP3   OH213370   0.260   3.860   3.392 -0.2813 -0.1305  0.0534
 4455TIP3    H113371   0.292   3.944   3.426 -0.4579 -0.3031  0.6593
 4455TIP3    H213372   0.205   3.825   3.462  1.3292 -1.6602  0.6439
 4456TIP3   OH213373   4.481   1.870   3.869 -0.3204 -0.1482  0.3041
 4456TIP3    H113374   4.481   1.954   3.824  0.6465  0.5942  1.6299
 4456TIP3    H213375   4.388   1.851   3.885 -0.6493 -0.1707 -1.4513
 4457TIP3   OH213376   0.867   5.582  -0.003  0.1640  0.2326 -0.0070
 4457TIP3    H113377   0.835   5.667   0.025 -0.2454  0.1338 -0.1628
 4457TIP3    H213378   0.805   5.519   0.035  0.8340 -0.0362  0.6461
 4458TIP3   OH213379   4.776   0.214   4.220 -0.3364  0.4329  0.6670
 4458TIP3    H113380   4.830   0.209   4.298  2.3044  0.9698 -0.9972
 4458TIP3    H213381   4.720   0.290   4.233  1.3849  1.6370  1.2904
 4459TIP3   OH213382   1.687   3.355   3.202 -0.0795  0.3913 -0.2037
 4459TIP3    H113383   1.660   3.445   3.217  0.4589  0.5476 -0.1664
 4459TIP3    H213384   1.780   3.353   3.225  0.2927  0.1885 -1.6493
 4460TIP3   OH213385   5.437   1.566   1.904  0.0810 -0.1367 -0.6261
 4460TIP3    H113386   5.427   1.530   1.992  0.0492  1.3411 -0.0126
 4460TIP3    H213387   5.348   1.574   1.871  0.0708 -0.2885 -0.6388
 4461TIP3   OH213388   3.444   1.903   2.886  0.1576  0.3552 -0.5863
 4461TIP3    H113389   3.488   1.824   2.917  1.3802  0.6563 -1.5099
 4461TIP3    H213390   3.354   1.874   2.867  0.6463 -0.8629 -1.1232
 4462TIP3   OH213391   0.408   1.599   3.545  0.3203 -0.3863  0.9546
 4462TIP3    H113392   0.394   1.606   3.640 -1.4872  0.7705  0.6513
 4462TIP3    H213393   0.369   1.679   3.509  1.8395 -0.3334 -0.7071
 4463TIP3   OH213394   5.350   3.966   2.040  0.1302  0.7655  0.2828
 4463TIP3    H113395   5.323   4.056   2.021  0.7744  0.9324  0.1433
 4463TIP3    H213396   5.434   3.956   1.996  0.9263  0.6615  1.7481
 4464TIP3   OH213397   1.791   4.415   4.103  0.1153 -0.1897  0.3131
 4464TIP3    H113398   1.701   4.443   4.084  0.4488  3.0491  2.6546
 4464TIP3    H213399   1.838   4.428   4.021 -1.0986  0.3463 -0.3284
 4465TIP3   OH213400   3.386   3.096   4.201  0.3435 -0.6167 -0.0073
 4465TIP3    H113401   3.364   3.181   4.164 -0.7975 -0.0430  1.8411
 4465TIP3    H213402   3.388   3.036   4.126 -2.1169  0.3950 -0.9892
 4466TIP3   OH213403   0.861   4.292   1.656  0.3236  0.4115  0.3102
 4466TIP3    H113404   0.867   4.300   1.752 -1.3966  0.2419  0.4755
 4466TIP3    H213405   0.808   4.214   1.642  1.6551 -0.3213 -0.8402
 4467TIP3   OH213406   1.184   4.401   2.302  0.1277  0.3173  0.0028
 4467TIP3    H113407   1.267   4.354   2.309  1.2154  2.0988 -0.3299
 4467TIP3    H213408   1.121   4.347   2.349  1.8263 -0.2797  1.6751
 4468TIP3   OH213409   3.665   1.137   3.727 -0.0621  0.3380  0.1580
 4468TIP3    H113410   3.597   1.141   3.795 -0.8489 -1.2113 -0.4819
 4468TIP3    H213411   3.747   1.152   3.774 -0.6148 -0.4941  1.4353
 4469TIP3   OH213412   0.972   5.182   1.400  0.4228 -0.0100  0.0567
 4469TIP3    H113413   0.911   5.110   1.387 -0.1886  0.6748 -1.0472
 4469TIP3    H213414   1.057   5.148   1.375  0.3117 -0.6352  0.5154
 4470TIP3   OH213415   2.525   5.468   1.765 -0.6008  0.4894 -0.2998
 4470TIP3    H113416   2.564   5.547   1.729 -0.6724  0.2414 -0.9363
 4470TIP3    H213417   2.446   5.499   1.810 -1.4620  0.6248 -1.8461
 4471TIP3   OH213418   1.909   2.843   1.462  0.0570 -0.3108 -0.7953
 4471TIP3    H113419   1.865   2.831   1.546  0.7827  0.3443 -0.3092
 4471TIP3    H213420   1.841   2.876   1.403  0.1872  2.3013  0.3661
 4472TIP3   OH213421   2.883   1.228   0.544 -0.5453 -0.0121  0.4562
 4472TIP3    H113422   2.883   1.320   0.569 -0.4181  0.4803 -1.2169
 4472TIP3    H213423   2.791   1.200   0.553 -0.9578  0.8394 -0.8533
 4473TIP3   OH213424   3.458   5.188   1.348  0.4144  0.1133 -0.3256
 4473TIP3    H113425   3.427   5.279   1.356 -0.4481 -0.2700  1.1678
 4473TIP3    H213426   3.549   5.196   1.321  0.7945  1.5089  1.1831
 4474TIP3   OH213427   2.102   5.487   3.663  0.5931 -0.4710  0.3755
 4474TIP3    H113428   2.132   5.564   3.615 -0.0940 -0.1986  0.3824
 4474TIP3    H213429   2.042   5.521   3.729  1.2890 -0.8724  1.2358
 4475TIP3   OH213430   3.048   0.042   3.913  0.0627  0.5285 -0.3953
 4475TIP3    H113431   3.114   0.024   3.845 -0.8602 -0.8643 -0.9670
 4475TIP3    H213432   2.998  -0.039   3.920  1.4957 -0.2172  3.5753
 4476TIP3   OH213433   5.161   2.238   3.963  0.6098  0.4061  0.0961
 4476TIP3    H113434   5.074   2.215   3.995  0.0323  0.5613 -1.3030
 4476TIP3    H213435   5.217   2.231   4.040 -0.5574 -0.1137  0.9317
 4477TIP3   OH213436   1.100   0.757   0.357 -0.2468 -0.3442  0.2640
 4477TIP3    H113437   1.101   0.710   0.440  1.0847 -3.0902 -1.1867
 4477TIP3    H213438   1.142   0.841   0.376 -0.3418 -0.7461  2.4244
 4478TIP3   OH213439   0.416   3.086   4.858  0.6185 -0.1147 -0.2338
 4478TIP3    H113440   0.468   3.058   4.933 -0.9949 -0.7697  0.6689
 4478TIP3    H213441   0.402   3.180   4.873 -1.1043 -0.5457  1.2309
 4479TIP3   OH213442   2.551   4.717   2.456  0.1016 -0.5526 -0.5802
 4479TIP3    H113443   2.609   4.759   2.520 -0.3394  0.8975 -1.0909
 4479TIP3    H213444   2.609   4.685   2.387  0.3851 -0.0822 -0.5628
 4480TIP3   OH213445   4.975   3.984   1.620 -0.5618 -0.2824  0.2653
 4480TIP3    H113446   5.063   3.992   1.582  0.2837 -1.5854  1.8320
 4480TIP3    H213447   4.950   3.893   1.605 -1.5842  0.0220  0.0337
 4481TIP3   OH213448   0.504   5.784   4.156 -0.0908 -0.0106  1.3748
 4481TIP3    H113449   0.514   5.874   4.188 -0.7417 -0.3778  2.6736
 4481TIP3    H213450   0.593   5.750   4.151  0.0603  0.0869  2.8195
 4482TIP3   OH213451   0.394   0.084   0.562 -0.1245 -0.0603  0.6530
 4482TIP3    H113452   0.350   0.161   0.528  2.0830  0.8473 -0.3545
 4482TIP3    H213453   0.328   0.015   0.559 -1.3455  1.1100 -1.0905
 4483TIP3   OH213454   0.138   0.660   4.518 -0.3229 -0.1555  0.8836
 4483TIP3    H113455   0.226   0.654   4.481 -0.6157  0.6880  0.0219
 4483TIP3    H213456   0.132   0.585   4.578  0.6982 -0.6743  0.3621
 4484TIP3   OH213457   2.979   2.236   2.899  0.1122 -0.3973  0.8684
 4484TIP3    H113458   2.967   2.283   2.982 -2.7216  1.6208 -0.5284
 4484TIP3    H213459   3.070   2.207   2.901  0.9581  1.9610  3.4598
 4485TIP3   OH213460   2.695   4.451   3.725 -0.3838 -0.3857  0.4895
 4485TIP3    H113461   2.692   4.453   3.629  0.0124  0.3757  0.4851
 4485TIP3    H213462   2.716   4.360   3.746 -1.3748 -0.7814 -0.1103
 4486TIP3   OH213463   4.347   4.521   1.410  0.2984  0.3181  0.5592
 4486TIP3    H113464   4.441   4.515   1.422  0.2703  1.3783  1.4449
 4486TIP3    H213465   4.334   4.600   1.357 -0.0238 -0.6212 -0.8307
 4487TIP3   OH213466   0.264   0.375   4.221 -0.3277  0.4940 -0.4346
 4487TIP3    H113467   0.269   0.470   4.219  0.6458  0.5022  1.1956
 4487TIP3    H213468   0.347   0.346   4.183 -1.1896  0.2250 -2.2656
 4488TIP3   OH213469   0.127   2.045   3.570  0.2977 -0.0234  0.7382
 4488TIP3    H113470   0.167   1.999   3.496  0.8433  1.1420  0.2703
 4488TIP3    H213471   0.197   2.102   3.604 -0.4757  0.8297  0.9567
 4489TIP3   OH213472   1.810   3.394   0.171 -0.2216  0.6376  0.0576
 4489TIP3    H113473   1.766   3.478   0.186  0.3709  0.8631  0.5394
 4489TIP3    H213474   1.903   3.414   0.176 -0.0783 -0.1116  0.5016
 4490TIP3   OH213475   1.437   2.919   3.200 -0.5389 -0.0605  0.1166
 4490TIP3    H113476   1.363   2.935   3.258 -1.5863 -0.3541 -1.0996
 4490TIP3    H213477   1.448   2.824   3.200 -1.4615 -0.1835 -1.2415
 4491TIP3   OH213478   1.485   0.510   2.764 -0.0902  0.2744  0.6172
 4491TIP3    H113479   1.515   0.443   2.703  0.9214 -0.1023  1.5007
 4491TIP3    H213480   1.454   0.581   2.707 -0.5379 -0.6467 -0.3227
 4492TIP3   OH213481   2.508   0.887   3.208  0.2519  0.6112  0.3592
 4492TIP3    H113482   2.484   0.864   3.298 -0.9815 -2.3278 -0.6197
 4492TIP3    H213483   2.432   0.933   3.174 -0.6093 -1.1358 -0.1319
 4493TIP3   OH213484   3.359   3.641   2.093 -0.2850  0.0694 -0.0388
 4493TIP3    H113485   3.350   3.569   2.031  0.2936  1.8430 -2.3655
 4493TIP3    H213486   3.445   3.678   2.074 -0.2786  0.9501  1.5682
 4494TIP3   OH213487   2.159   5.020   3.468 -0.0354 -0.0248 -0.0807
 4494TIP3    H113488   2.139   4.987   3.555 -0.9803 -0.1366 -0.3324
 4494TIP3    H213489   2.093   5.088   3.452  2.2730  2.6290  0.7464
 4495TIP3   OH213490   4.429   4.807   2.743 -0.0049  0.1672 -0.1704
 4495TIP3    H113491   4.444   4.827   2.835 -0.0893 -0.2078 -0.0743
 4495TIP3    H213492   4.401   4.890   2.705  0.2762  0.3847  0.0850
 4496TIP3   OH213493   4.278   2.110   2.415 -0.1131 -0.6179 -0.2805
 4496TIP3    H113494   4.341   2.083   2.348 -0.6236 -0.6548 -0.7442
 4496TIP3    H213495   4.223   2.033   2.429 -0.7822 -0.2186 -0.7052
 4497TIP3   OH213496   4.590   0.062   0.791 -0.5351 -0.0908  0.5007
 4497TIP3    H113497   4.655   0.131   0.780 -1.1507  0.4334  0.0734
 4497TIP3    H213498   4.632  -0.017   0.757 -0.0266  0.1779  0.4944
 4498TIP3   OH213499   3.879   2.725   1.848  0.0561  0.1224  0.0387
 4498TIP3    H113500   3.916   2.689   1.768  1.8902  0.4980  0.6746
 4498TIP3    H213501   3.815   2.789   1.818  1.3067  0.8685 -1.1590
 4499TIP3   OH213502   4.945   5.961   4.042  0.3196  0.1073  0.0186
 4499TIP3    H113503   4.976   6.030   4.101  1.2383 -1.1984  1.1300
 4499TIP3    H213504   5.011   5.892   4.050 -0.7644 -1.0618 -0.7856
 4500TIP3   OH213505   2.368   3.854   0.980 -0.6086  0.2476 -0.1335
 4500TIP3    H113506   2.312   3.843   1.057  0.5615  1.1608  0.9032
 4500TIP3    H213507   2.378   3.949   0.971  3.5437  0.2486  1.9570
 4501TIP3   OH213508   2.016  -0.005   2.078 -0.3925 -0.0202 -0.0648
 4501TIP3    H113509   2.063   0.079   2.077 -0.0978 -0.1474  1.3348
 4501TIP3    H213510   1.967  -0.004   2.160 -2.8002  0.0569 -1.3921
 4502TIP3   OH213511   2.264   2.773   4.708  0.2020 -0.2076  0.2557
 4502TIP3    H113512   2.211   2.765   4.787 -2.2507  0.1732 -1.2223
 4502TIP3    H213513   2.255   2.689   4.664 -2.0622  0.8896 -1.6043
 4503TIP3   OH213514   1.621   0.047   3.455  0.2882  0.4821  0.5407
 4503TIP3    H113515   1.629   0.098   3.374 -0.6747 -0.9565 -0.5121
 4503TIP3    H213516   1.702  -0.004   3.459 -0.2281 -0.4509 -0.2869
 4504TIP3   OH213517   0.231   0.208   0.178  0.5238 -0.1011  0.2801
 4504TIP3    H113518   0.259   0.117   0.190 -0.2165 -0.7002 -1.9821
 4504TIP3    H213519   0.310   0.254   0.151  0.4082 -0.7050 -1.2046
 4505TIP3   OH213520   3.497   1.660   1.796  0.1973  0.7007 -0.1375
 4505TIP3    H113521   3.497   1.719   1.871 -0.7177 -1.2404  1.4802
 4505TIP3    H213522   3.562   1.593   1.817 -0.5583 -0.2595 -0.7214
 4506TIP3   OH213523   3.174   3.685   2.583 -0.2906  0.3869 -0.3244
 4506TIP3    H113524   3.251   3.692   2.526  0.2885  1.4433  0.5584
 4506TIP3    H213525   3.163   3.590   2.596  2.6959  0.1913  1.9137
 4507TIP3   OH213526   3.878   2.660   1.383  0.1052  0.0204 -0.3265
 4507TIP3    H113527   3.900   2.654   1.290  0.5442 -2.0657 -0.1349
 4507TIP3    H213528   3.885   2.570   1.416  2.3059  0.9741  2.2622
 4508TIP3   OH213529   0.412   2.055   2.600 -0.1134 -0.2162  0.0364
 4508TIP3    H113530   0.368   2.140   2.596  0.3387  0.1471  1.7845
 4508TIP3    H213531   0.495   2.074   2.644 -0.3833 -1.7043  1.2308
 4509TIP3   OH213532   3.685   5.273   0.079 -0.3660  0.4375  0.1043
 4509TIP3    H113533   3.637   5.239   0.003  0.3355  0.9109 -0.5626
 4509TIP3    H213534   3.708   5.363   0.054 -0.0551  0.5681  0.8485
 4510TIP3   OH213535   1.955   4.767   3.641 -0.3932  0.0109  0.3522
 4510TIP3    H113536   2.014   4.836   3.673 -0.5055 -0.7165  2.2896
 4510TIP3    H213537   1.914   4.733   3.720 -3.7678  0.7226 -0.9352
 4511TIP3   OH213538   4.220   5.882   5.136 -0.5090 -0.1288  0.6494
 4511TIP3    H113539   4.237   5.884   5.042 -1.8018  1.8864  0.3869
 4511TIP3    H213540   4.143   5.826   5.146 -1.2783  0.8177  0.2761
 4512TIP3   OH213541   2.727   2.069   2.521 -0.0550 -0.0894 -0.0800
 4512TIP3    H113542   2.633   2.082   2.512 -0.0628 -0.1892 -0.1512
 4512TIP3    H213543   2.753   2.124   2.595 -0.4995 -1.5317  1.2045
 4513TIP3   OH213544   5.967   3.020   4.283  0.4364  0.0523  0.2016
 4513TIP3    H113545   6.033   2.952   4.295 -0.1128 -0.5784 -0.2879
 4513TIP3    H213546   5.969   3.070   4.365 -0.6926 -1.9006  1.4957
 4514TIP3   OH213547   6.203   2.512   2.811 -0.3141 -0.5893 -0.0920
 4514TIP3    H113548   6.179   2.601   2.783  0.6217 -0.5845 -0.9223
 4514TIP3    H213549   6.149   2.455   2.757  0.0925 -0.5485 -0.5417
 4515TIP3   OH213550   5.954   2.156   2.368  0.4367  0.1101  0.2219
 4515TIP3    H113551   5.940   2.172   2.461 -2.1662  1.3542 -0.2875
 4515TIP3    H213552   5.982   2.241   2.333  1.0767 -0.2669 -0.2017
 4516TIP3   OH213553   2.063   3.334   4.481  0.3866  0.2683 -0.2557
 4516TIP3    H113554   2.074   3.345   4.387  0.5579 -0.5819 -0.3404
 4516TIP3    H213555   2.094   3.417   4.518  0.6134  0.4906 -0.9211
 4517TIP3   OH213556   0.981   4.277   0.477  0.7041  0.0946 -0.0198
 4517TIP3    H113557   0.892   4.243   0.488  0.1613  0.8542 -1.7453
 4517TIP3    H213558   0.995   4.333   0.554 -1.3633  2.1188 -0.9958
 4518TIP3   OH213559   0.767   1.909   3.773 -0.5660 -0.0170 -0.2757
 4518TIP3    H113560   0.829   1.870   3.834 -2.3535 -1.1668  0.9121
 4518TIP3    H213561   0.685   1.917   3.823 -1.4272  1.3269 -1.7943
 4519TIP3   OH213562   3.062   2.699   4.713  0.2016  0.0871  0.7869
 4519TIP3    H113563   3.070   2.621   4.768  1.0951  0.1189  0.7214
 4519TIP3    H213564   3.146   2.705   4.668 -0.3872  0.2444 -0.3375
 4520TIP3   OH213565   1.305   4.318   1.519 -0.2162 -0.2937  0.5011
 4520TIP3    H113566   1.244   4.377   1.563 -1.7024 -0.1942 -1.5216
 4520TIP3    H213567   1.289   4.232   1.556  0.8420  0.2545  2.3475
 4521TIP3   OH213568   3.636   2.724   4.971  0.4941 -0.0270 -0.5785
 4521TIP3    H113569   3.666   2.676   5.048 -2.3725  0.1593  0.7759
 4521TIP3    H213570   3.584   2.660   4.922  0.7973  0.3628 -1.4370
 4522TIP3   OH213571   6.254   2.151   0.720 -0.1850 -0.0585 -0.3600
 4522TIP3    H113572   6.162   2.176   0.719 -0.2050 -0.1371 -0.5302
 4522TIP3    H213573   6.256   2.067   0.767  0.1478  1.2769  2.1355
 4523TIP3   OH213574   5.073   4.890   5.162 -0.2278  0.2645  0.4513
 4523TIP3    H113575   5.165   4.915   5.168 -0.0954 -0.2974  0.8542
 4523TIP3    H213576   5.067   4.842   5.079  0.1085 -0.7405  0.9928
 4524TIP3   OH213577   1.233   5.735   4.757  0.7481 -0.1769 -0.2009
 4524TIP3    H113578   1.183   5.781   4.690  1.0044 -0.7090 -0.7676
 4524TIP3    H213579   1.187   5.652   4.769  0.8637 -0.2033  0.0753
 4525TIP3   OH213580   5.216   4.134   3.651  0.4572  0.2183 -0.0054
 4525TIP3    H113581   5.150   4.196   3.684  1.4932  0.6137  1.4364
 4525TIP3    H213582   5.297   4.161   3.695  1.7680  0.1940 -2.2866
 4526TIP3   OH213583   4.643   2.687   0.983  0.2278 -0.3948 -0.0024
 4526TIP3    H113584   4.633   2.612   1.041  0.8079 -0.2714  0.2738
 4526TIP3    H213585   4.669   2.650   0.899  0.6054 -0.5022  0.1597
 4527TIP3   OH213586   3.437   4.533   3.602 -0.2702 -0.1568  0.3115
 4527TIP3    H113587   3.456   4.626   3.613  0.1882 -0.3327  1.1479
 4527TIP3    H213588   3.412   4.524   3.510 -1.3904  0.9715  0.4750
 4528TIP3   OH213589   6.287   4.416   4.276 -0.0559  0.6534 -0.3817
 4528TIP3    H113590   6.381   4.435   4.287 -0.0027  1.3983 -1.8006
 4528TIP3    H213591   6.243   4.488   4.320  0.0100  0.0803  0.6556
 4529TIP3   OH213592   2.353   3.668   4.885  0.0538  0.1520  0.3756
 4529TIP3    H113593   2.418   3.598   4.893  0.0352  0.1360  0.3896
 4529TIP3    H213594   2.381   3.718   4.809 -0.1520 -0.1024  0.1322
 4530TIP3   OH213595   3.109   1.712   2.552 -0.1778  0.0650  1.0641
 4530TIP3    H113596   3.042   1.766   2.511 -0.5519  0.6880  2.4229
 4530TIP3    H213597   3.096   1.625   2.516  1.0508  0.9983 -1.9368
 4531TIP3   OH213598   1.560   1.510   4.113  0.5821  0.3602  0.3442
 4531TIP3    H113599   1.601   1.509   4.026 -0.2097 -0.7697 -0.0451
 4531TIP3    H213600   1.468   1.532   4.095  0.2531 -0.5882  0.8004
 4532TIP3   OH213601   5.308   2.694   1.006  0.1710  0.1574 -0.9192
 4532TIP3    H113602   5.364   2.617   1.017  1.7252  1.0258 -2.2592
 4532TIP3    H213603   5.267   2.681   0.920  1.4275  1.3753 -1.7344
 4533TIP3   OH213604   0.369   3.090   2.631 -0.3558 -0.0558  0.3084
 4533TIP3    H113605   0.435   3.159   2.642 -0.1792 -0.4131  1.7042
 4533TIP3    H213606   0.404   3.033   2.562 -0.4396  1.1510 -0.7724
 4534TIP3   OH213607   2.818   2.854   1.895 -0.4311  0.0497  0.0721
 4534TIP3    H113608   2.749   2.794   1.866 -0.8620  0.0431  1.0704
 4534TIP3    H213609   2.891   2.797   1.920 -0.1402  0.0457 -0.7533
 4535TIP3   OH213610   2.230   1.105   0.083  0.7481  0.4256  0.2960
 4535TIP3    H113611   2.165   1.072   0.145  2.1029  0.4954  1.7982
 4535TIP3    H213612   2.179   1.131   0.006 -0.8435 -0.7492  0.9221
 4536TIP3   OH213613   3.048   5.632   3.875 -0.2957 -0.2414  0.4081
 4536TIP3    H113614   3.101   5.555   3.896  1.6575  1.1869  0.9713
 4536TIP3    H213615   2.997   5.649   3.954  1.7192  0.9012  1.5506
 4537TIP3   OH213616   5.198   0.501   2.125  0.0581  0.6296 -0.6845
 4537TIP3    H113617   5.236   0.530   2.208  0.0955  0.0218 -0.4782
 4537TIP3    H213618   5.149   0.422   2.149 -0.7774  1.0252 -1.0614
 4538TIP3   OH213619   3.129   2.146   1.867  0.5959  0.1799  0.1811
 4538TIP3    H113620   3.040   2.168   1.895 -0.0879 -0.0023 -1.7610
 4538TIP3    H213621   3.127   2.052   1.850  0.3103  0.6074 -2.6089
 4539TIP3   OH213622   2.826   2.650   1.304  0.4855 -0.0032 -0.2705
 4539TIP3    H113623   2.831   2.626   1.397  0.2636 -0.3384 -0.3422
 4539TIP3    H213624   2.915   2.640   1.271  0.6831  0.6607  0.0333
 4540TIP3   OH213625   5.529   2.513   0.842 -0.7278  0.0069  0.4270
 4540TIP3    H113626   5.452   2.463   0.870 -1.4053  1.7193  1.8437
 4540TIP3    H213627   5.602   2.470   0.886 -1.3135  0.2806  1.7379
 4541TIP3   OH213628   2.712   1.300   4.268  0.0178  0.3610 -0.2754
 4541TIP3    H113629   2.750   1.365   4.327  2.2418 -0.6477 -0.4950
 4541TIP3    H213630   2.705   1.221   4.320 -0.2909  0.0939 -0.7123
 4542TIP3   OH213631   5.357   4.488   0.201 -0.3671  0.6113 -0.1268
 4542TIP3    H113632   5.452   4.479   0.191 -0.1141  0.8543  1.7124
 4542TIP3    H213633   5.325   4.500   0.112  1.3391  0.6467 -0.7802
 4543TIP3   OH213634   0.030   0.301   4.356 -0.7038  0.4148 -0.6762
 4543TIP3    H113635   0.013   0.393   4.374  2.0833  0.6823  1.2415
 4543TIP3    H213636   0.114   0.301   4.310 -1.6709 -1.1038 -2.5724
 4544TIP3   OH213637   1.706   4.595   3.615 -0.3024 -0.4068  0.3001
 4544TIP3    H113638   1.766   4.588   3.689 -0.1704 -0.6474  0.1733
 4544TIP3    H213639   1.718   4.513   3.567  0.1906  0.0691 -0.4104
 4545TIP3   OH213640   1.203   2.880   3.353  0.7349 -0.1537  0.6978
 4545TIP3    H113641   1.139   2.950   3.367  2.0606  1.2442  0.0624
 4545TIP3    H213642   1.179   2.813   3.417 -0.2087  1.1462  1.7716
 4546TIP3   OH213643   1.295   1.439   2.954  0.2569  0.7008  0.3657
 4546TIP3    H113644   1.303   1.433   3.049 -2.1331 -2.0349  0.5192
 4546TIP3    H213645   1.219   1.497   2.941 -0.5816 -0.3968  0.2426
 4547TIP3   OH213646   5.918   2.141   5.063 -0.4871 -0.0273 -0.2995
 4547TIP3    H113647   6.011   2.117   5.069 -0.5290 -0.2434 -0.5380
 4547TIP3    H213648   5.911   2.190   4.981 -0.6515 -0.3146 -0.4573
 4548TIP3   OH213649   3.524   4.839   1.191 -0.1619 -0.4910 -0.0106
 4548TIP3    H113650   3.590   4.782   1.230 -0.3829 -0.1359  0.9027
 4548TIP3    H213651   3.494   4.791   1.114  1.4548 -0.4797 -0.7096
 4549TIP3   OH213652   3.994   3.522   4.599  0.2851 -0.8638  0.2697
 4549TIP3    H113653   3.946   3.544   4.679 -1.2534 -3.2432  0.1137
 4549TIP3    H213654   3.984   3.598   4.543 -2.8572 -0.9535  0.5076
 4550TIP3   OH213655   0.762   4.309   2.819 -0.0505 -0.1845 -0.2626
 4550TIP3    H113656   0.750   4.399   2.790  1.9039  0.4529  0.7405
 4550TIP3    H213657   0.697   4.259   2.770 -1.6506  1.8493 -0.3332
 4551TIP3   OH213658   0.945   2.083   4.679  0.0709 -0.0750  0.0090
 4551TIP3    H113659   0.933   2.098   4.585  1.1093 -0.6209 -0.2232
 4551TIP3    H213660   1.040   2.083   4.692 -0.0370 -0.7819  0.9325
 4552TIP3   OH213661   6.130   0.811   3.271 -0.0999 -0.5280  0.3889
 4552TIP3    H113662   6.192   0.798   3.343 -0.9419  0.7099  1.3884
 4552TIP3    H213663   6.069   0.877   3.304  0.2860  1.1346 -1.9645
 4553TIP3   OH213664   3.037   3.242   0.012  0.0363  0.2403  0.0699
 4553TIP3    H113665   3.087   3.164  -0.010 -0.6394 -0.1652 -0.0609
 4553TIP3    H213666   3.066   3.265   0.100 -1.7227 -1.7982  1.2756
 4554TIP3   OH213667   1.551   5.703   4.302  0.7056  0.2435  0.1895
 4554TIP3    H113668   1.579   5.784   4.258 -0.6348  0.5018 -0.2125
 4554TIP3    H213669   1.501   5.656   4.236  0.0288 -0.1154  0.9517
 4555TIP3   OH213670   5.262   1.709   4.150  0.1067 -0.8526 -0.6052
 4555TIP3    H113671   5.265   1.619   4.120  0.7854 -0.8092 -0.6908
 4555TIP3    H213672   5.218   1.757   4.080 -0.4215 -1.1403 -0.4774
 4556TIP3   OH213673   3.166   5.472   2.318  0.1167 -0.0224 -0.0001
 4556TIP3    H113674   3.117   5.514   2.389 -1.0822  1.4871 -1.6289
 4556TIP3    H213675   3.257   5.479   2.344 -0.3090  0.1546  1.5547
 4557TIP3   OH213676   4.769   0.931   1.998  0.1055  0.0204 -0.3731
 4557TIP3    H113677   4.845   0.883   2.029 -0.5689 -2.3306 -2.0647
 4557TIP3    H213678   4.791   0.957   1.908 -0.5723  0.5405 -0.3992
 4558TIP3   OH213679   1.921   2.013   3.110  0.1318  0.2860  0.0331
 4558TIP3    H113680   1.952   1.922   3.107  0.0147  0.2788 -2.1560
 4558TIP3    H213681   1.880   2.027   3.025 -2.0939  1.6523  1.2459
 4559TIP3   OH213682   3.542   2.097   2.707 -0.1483  0.0362  0.6604
 4559TIP3    H113683   3.504   2.058   2.786 -0.5293 -1.6235 -0.2910
 4559TIP3    H213684   3.546   2.191   2.726 -0.7452 -0.2554  2.4225
 4560TIP3   OH213685   0.501   2.085   1.537 -0.4757  0.3294 -0.2531
 4560TIP3    H113686   0.547   2.001   1.533 -1.1655 -0.0161 -1.8117
 4560TIP3    H213687   0.563   2.143   1.581 -0.7930 -1.4329  2.7994
 4561TIP3   OH213688   2.720   1.856   4.940  0.1776  0.1132  0.3051
 4561TIP3    H113689   2.698   1.937   4.895 -0.8555  0.4178  1.3069
 4561TIP3    H213690   2.759   1.885   5.023 -0.1582 -0.3967  0.6476
 4562TIP3   OH213691   4.338   1.776   2.202  0.5271  0.0364 -1.0823
 4562TIP3    H113692   4.259   1.795   2.151  0.2139  0.6263 -0.3961
 4562TIP3    H213693   4.405   1.834   2.165  0.9216 -1.1486 -2.3054
 4563TIP3   OH213694   2.068   1.243   1.469  0.5894  0.2245 -0.3468
 4563TIP3    H113695   2.060   1.177   1.537 -0.3495  0.8242  0.1371
 4563TIP3    H213696   2.161   1.267   1.469  1.2653 -2.0700 -1.4975
 4564TIP3   OH213697   0.300   3.239   1.332 -0.0466 -0.0213 -0.0594
 4564TIP3    H113698   0.356   3.216   1.258 -1.3822 -0.4757 -0.9850
 4564TIP3    H213699   0.271   3.155   1.367 -0.4875  0.2000  0.1167
 4565TIP3   OH213700   3.924   1.309   1.912 -0.2094 -0.4662  0.0029
 4565TIP3    H113701   3.932   1.295   1.818 -0.5528 -1.0053  0.0505
 4565TIP3    H213702   4.009   1.345   1.938  0.5882 -2.1172 -0.1908
 4566TIP3   OH213703   0.907   4.774   2.404  0.0881  0.3929  0.2566
 4566TIP3    H113704   0.911   4.825   2.322 -0.8145  0.2852  0.1388
 4566TIP3    H213705   0.916   4.683   2.375 -2.2772  0.1736  0.0243
 4567TIP3   OH213706   5.909   1.719   1.048  0.0565  0.1583  0.2441
 4567TIP3    H113707   5.968   1.790   1.072 -1.9308  2.0429 -0.1274
 4567TIP3    H213708   5.910   1.660   1.124  1.2086  0.9616  0.8716
 4568TIP3   OH213709   2.018   0.798   2.332 -0.2374 -0.4806  0.1689
 4568TIP3    H113710   2.072   0.721   2.348  0.2545  0.1657  1.8816
 4568TIP3    H213711   2.036   0.856   2.407 -1.9494  0.5280 -0.1396
 4569TIP3   OH213712   2.645   3.943   3.888 -0.1416  0.2313 -0.0158
 4569TIP3    H113713   2.565   3.979   3.924  1.1129  2.4084  0.7686
 4569TIP3    H213714   2.701   3.926   3.964 -0.3680 -2.8198 -0.4039
 4570TIP3   OH213715   0.469   5.712   0.202  0.2284 -0.5073  0.1739
 4570TIP3    H113716   0.451   5.623   0.235 -0.7048 -0.6509 -0.6649
 4570TIP3    H213717   0.562   5.725   0.219  0.4527 -1.7687  0.0572
 4571TIP3   OH213718   1.028   3.363   4.230 -0.1133  0.6506  0.4257
 4571TIP3    H113719   1.042   3.456   4.250  0.0042  0.6900  0.1576
 4571TIP3    H213720   0.941   3.360   4.191  0.7555  0.9705 -1.6655
 4572TIP3   OH213721   4.889   5.137   4.929 -0.0984 -0.5149  0.1380
 4572TIP3    H113722   4.903   5.182   4.846 -1.5641 -0.1614  0.0631
 4572TIP3    H213723   4.933   5.192   4.994 -0.4663  0.1619 -0.1735
 4573TIP3   OH213724   3.631   3.244   3.918 -0.0012 -0.0446  0.0399
 4573TIP3    H113725   3.686   3.266   3.993  1.1287 -1.6940 -0.2592
 4573TIP3    H213726   3.548   3.288   3.937  0.6218  0.5223  1.6919
 4574TIP3   OH213727   0.427   3.904   4.922  0.3493 -0.2517  0.1804
 4574TIP3    H113728   0.471   3.976   4.966 -1.1806  0.9064 -0.0941
 4574TIP3    H213729   0.354   3.881   4.980  0.0332 -0.6686 -0.3669
 4575TIP3   OH213730   6.142   1.430   2.597 -0.5970 -0.0380  0.2504
 4575TIP3    H113731   6.121   1.363   2.532 -1.1137 -1.6204  1.9475
 4575TIP3    H213732   6.097   1.401   2.676 -3.0122  3.6866  0.4987
 4576TIP3   OH213733   3.519   4.254   2.327 -0.0443  0.2180  0.3838
 4576TIP3    H113734   3.535   4.307   2.248  2.2271 -1.4400 -0.3480
 4576TIP3    H213735   3.518   4.164   2.295 -1.3022 -0.3770  1.9769
 4577TIP3   OH213736   0.123   1.863   2.040  0.3039  0.2945 -0.0838
 4577TIP3    H113737   0.127   1.923   2.114 -0.5984  0.5326 -0.2095
 4577TIP3    H213738   0.134   1.920   1.963 -0.8908  0.3770 -0.2210
 4578TIP3   OH213739   4.085   5.489   4.875 -0.1000  0.2413  0.5550
 4578TIP3    H113740   4.097   5.451   4.962 -1.4920 -0.3625  0.5238
 4578TIP3    H213741   4.166   5.471   4.828 -0.6271 -2.6732  0.5808
 4579TIP3   OH213742   4.811   4.976   3.866  0.6557  0.6686 -0.0393
 4579TIP3    H113743   4.876   4.989   3.798  0.9756 -4.2532 -1.0417
 4579TIP3    H213744   4.860   4.942   3.941 -0.3992 -0.1707  0.2951
 4580TIP3   OH213745   1.906   1.408   0.888 -0.2586 -0.7346 -0.2019
 4580TIP3    H113746   1.874   1.498   0.900 -1.4563 -1.3472  1.5338
 4580TIP3    H213747   1.923   1.401   0.794  1.8259  1.9214 -0.1362
 4581TIP3   OH213748   3.032   4.253   2.021 -0.1770  0.1759  0.1317
 4581TIP3    H113749   2.936   4.250   2.020 -0.1896 -0.3731 -2.1116
 4581TIP3    H213750   3.057   4.186   2.084 -1.2738 -0.1883  0.2004
 4582TIP3   OH213751   6.171   3.265   1.299 -0.6008 -0.0325  0.0709
 4582TIP3    H113752   6.098   3.326   1.316  0.0899  1.3781 -1.6554
 4582TIP3    H213753   6.234   3.317   1.250  1.3259 -1.4063  0.9890
 4583TIP3   OH213754   6.170   5.391   0.248  0.0182 -0.2169 -0.1439
 4583TIP3    H113755   6.121   5.363   0.325  0.1320  0.4245  0.1619
 4583TIP3    H213756   6.233   5.455   0.280  0.5810 -0.5076 -0.6523
 4584TIP3   OH213757   0.077   2.566   4.679  0.1153  0.3429 -0.7337
 4584TIP3    H113758   0.123   2.637   4.725  0.5614 -0.5601  0.2620
 4584TIP3    H213759   0.139   2.536   4.613  0.9627 -0.7903  0.5257
 4585TIP3   OH213760   0.998   2.565   4.436 -0.1031 -0.2153 -0.4228
 4585TIP3    H113761   0.992   2.573   4.532 -0.5309  1.5963 -0.5670
 4585TIP3    H213762   0.907   2.553   4.408 -0.1184  0.4685 -0.6803
 4586TIP3   OH213763   6.210   4.071   2.530 -0.4411 -0.2702  0.5504
 4586TIP3    H113764   6.298   4.103   2.509 -0.7189  0.2818  0.2024
 4586TIP3    H213765   6.192   4.107   2.617  0.0044 -1.0826  0.9914
 4587TIP3   OH213766   0.655   2.906   0.889  0.6377 -0.1302  0.4794
 4587TIP3    H113767   0.711   2.844   0.841 -0.1532 -0.4358 -0.0704
 4587TIP3    H213768   0.652   2.871   0.978 -0.3401 -1.2827  0.0175
 4588TIP3   OH213769   3.898   1.385   2.604 -0.0818 -0.0434 -0.5651
 4588TIP3    H113770   3.819   1.438   2.616 -0.2884 -0.3679 -0.4706
 4588TIP3    H213771   3.867   1.294   2.607  0.5617 -0.2545  1.6763
 4589TIP3   OH213772   2.492   1.872   2.050  0.2392  0.1615  0.2005
 4589TIP3    H113773   2.483   1.827   2.134  2.5977  4.7103  3.3380
 4589TIP3    H213774   2.584   1.858   2.026  0.1125  0.5828 -0.5523
 4590TIP3   OH213775   2.189   4.789   0.287 -0.3133 -0.6406  0.0708
 4590TIP3    H113776   2.266   4.844   0.296  0.5860 -1.9762  0.9405
 4590TIP3    H213777   2.151   4.814   0.203  0.1968  1.0886  0.3143
 4591TIP3   OH213778   0.669   1.878   1.512  0.1081  0.0014  0.5539
 4591TIP3    H113779   0.712   1.793   1.520  1.7689  0.7529  0.2223
 4591TIP3    H213780   0.625   1.875   1.427 -0.8865 -0.9319  1.0739
 4592TIP3   OH213781   2.739   3.209   4.057  0.3999  0.3228  0.3455
 4592TIP3    H113782   2.776   3.208   4.145  0.2920  1.9790  0.4383
 4592TIP3    H213783   2.749   3.300   4.027 -0.5352  0.0421 -0.9306
 4593TIP3   OH213784   2.096   5.712   2.655  0.1219 -0.0289  0.9553
 4593TIP3    H113785   2.031   5.739   2.591  1.1948 -0.9417 -0.5600
 4593TIP3    H213786   2.046   5.703   2.737 -1.5291 -0.1359 -0.0194
 4594TIP3   OH213787   4.171   1.028   1.841  0.5819  0.3057  0.1756
 4594TIP3    H113788   4.114   0.955   1.815  0.4778  0.8724 -1.2585
 4594TIP3    H213789   4.119   1.106   1.825  0.7967  0.7459  1.4393
 4595TIP3   OH213790   5.265   4.620   2.598 -0.1003  0.4193 -0.1092
 4595TIP3    H113791   5.207   4.679   2.551 -1.1762 -1.7658 -1.7205
 4595TIP3    H213792   5.341   4.673   2.619 -1.3215  2.5488 -0.7752
 4596TIP3   OH213793   0.418   5.856   2.905  0.0417 -0.2728 -0.2982
 4596TIP3    H113794   0.378   5.795   2.966  0.5100 -0.9809 -0.6853
 4596TIP3    H213795   0.425   5.938   2.954  0.7398 -0.9189  0.7259
 4597TIP3   OH213796   1.887   4.091   2.247 -0.2319  0.0533 -0.5187
 4597TIP3    H113797   1.851   4.169   2.290  2.4926  1.3867 -0.4309
 4597TIP3    H213798   1.916   4.035   2.319 -0.8250 -0.3549 -0.5942
 4598TIP3   OH213799   0.348   4.239   1.780 -0.6234 -0.2519  0.5214
 4598TIP3    H113800   0.398   4.225   1.860  0.9856 -1.1633 -0.5912
 4598TIP3    H213801   0.306   4.324   1.793 -0.6734 -0.5325  2.4476
 4599TIP3   OH213802   5.785   3.653   3.033 -0.2768 -0.1066  0.1770
 4599TIP3    H113803   5.794   3.748   3.041  2.4298 -0.3623  1.1729
 4599TIP3    H213804   5.710   3.632   3.088 -1.3303  1.4795 -0.5607
 4600TIP3   OH213805   3.838   0.094   1.413 -0.1403  0.2944 -0.0479
 4600TIP3    H113806   3.861   0.120   1.503  1.8422  0.4970 -0.5513
 4600TIP3    H213807   3.908   0.034   1.388 -1.4475 -0.8985 -0.9854
 4601TIP3   OH213808   1.728   2.185   2.166  0.3066  0.0950  0.0983
 4601TIP3    H113809   1.801   2.191   2.103 -0.0658 -1.9861 -0.5875
 4601TIP3    H213810   1.652   2.161   2.113 -0.4452  0.2130  1.0912
 4602TIP3   OH213811   1.966   0.706   0.702  0.2894 -0.2024  0.1575
 4602TIP3    H113812   1.983   0.683   0.793  0.8316 -1.3947 -0.2248
 4602TIP3    H213813   2.024   0.781   0.685 -0.1113  0.2914  0.8864
 4603TIP3   OH213814   0.867   4.710   0.784  0.6602 -0.4299  0.0337
 4603TIP3    H113815   0.961   4.724   0.768  1.1297 -3.3694 -0.3826
 4603TIP3    H213816   0.837   4.662   0.707 -1.6391  1.7376 -0.5566
 4604TIP3   OH213817   3.644   5.774   2.807 -0.1541 -0.2352 -0.3488
 4604TIP3    H113818   3.710   5.832   2.770 -1.3975 -0.9992 -4.2325
 4604TIP3    H213819   3.690   5.693   2.825  0.1727 -0.5187 -2.3153
 4605TIP3   OH213820   0.782   5.580   1.210  0.0098 -0.4851  0.0059
 4605TIP3    H113821   0.870   5.561   1.176  0.1438  0.4469 -0.1908
 4605TIP3    H213822   0.780   5.538   1.296  2.3895  3.3377  2.2059
 4606TIP3   OH213823   5.730   5.172   4.059 -0.0225 -0.3046  0.1654
 4606TIP3    H113824   5.731   5.132   4.147 -0.9987  1.6282  1.1203
 4606TIP3    H213825   5.815   5.214   4.051 -0.1889  0.1138  0.5094
 4607TIP3   OH213826   1.579   4.714   3.985  0.0829  0.0232  0.2718
 4607TIP3    H113827   1.507   4.692   3.927 -1.2414 -0.2698  1.9620
 4607TIP3    H213828   1.655   4.720   3.927 -1.0942 -0.6200 -1.4180
 4608TIP3   OH213829   5.444   0.217   3.831  0.1379  0.2713  0.6578
 4608TIP3    H113830   5.516   0.156   3.843  1.7075  2.1288  1.1410
 4608TIP3    H213831   5.397   0.184   3.755  2.4194 -0.1585 -0.6563
 4609TIP3   OH213832   2.819   5.004   3.000 -0.0023 -0.7617 -0.5904
 4609TIP3    H113833   2.818   4.921   2.951 -0.3778 -1.2457  0.2087
 4609TIP3    H213834   2.839   5.070   2.934  0.4794 -1.5043 -1.2241
 4610TIP3   OH213835   1.932   2.305   4.899  0.5630  0.4682 -0.0593
 4610TIP3    H113836   1.880   2.371   4.852 -0.0711 -0.3160 -0.4729
 4610TIP3    H213837   1.906   2.222   4.860  0.4522 -0.1483  1.2760
 4611TIP3   OH213838   5.918   1.050   5.006 -0.3966  0.6550  0.7496
 4611TIP3    H113839   5.899   1.010   4.921  0.9738  0.3421  0.5607
 4611TIP3    H213840   5.834   1.086   5.035 -1.4501 -1.4241  0.4389
 4612TIP3   OH213841   2.784   1.545   2.515  0.1263 -0.8036 -0.2090
 4612TIP3    H113842   2.842   1.471   2.535  0.1311 -1.4061 -2.2166
 4612TIP3    H213843   2.841   1.621   2.518  0.4812 -1.0824  0.2585
 4613TIP3   OH213844   2.940   3.286   1.528 -0.6158 -0.5306 -0.5647
 4613TIP3    H113845   2.891   3.296   1.609  0.7224 -2.4544  0.5695
 4613TIP3    H213846   2.891   3.220   1.478  0.6339 -2.3882  0.5309
 4614TIP3   OH213847   2.899   2.541   0.577 -0.0486  0.8652 -0.2486
 4614TIP3    H113848   2.966   2.583   0.523 -0.4093  1.9137  0.0975
 4614TIP3    H213849   2.926   2.449   0.582 -0.2065  0.6198 -2.5440
 4615TIP3   OH213850   5.316   1.456   0.699  0.3634  0.1729 -0.2845
 4615TIP3    H113851   5.328   1.549   0.720 -0.3613 -0.0465  1.2561
 4615TIP3    H213852   5.223   1.440   0.715  0.8242 -1.2246  1.3237
 4616TIP3   OH213853   4.831   5.381   2.718  0.1171  0.1273  0.1448
 4616TIP3    H113854   4.747   5.407   2.680  0.5198  1.4622  0.0965
 4616TIP3    H213855   4.872   5.326   2.651 -0.4874 -0.0981 -0.0479
 4617TIP3   OH213856   6.283   2.540   1.047 -0.2774 -0.0681  0.0010
 4617TIP3    H113857   6.270   2.520   1.139  0.6549  1.0098  0.3859
 4617TIP3    H213858   6.228   2.617   1.030  1.0880  0.9823  0.1959
 4618TIP3   OH213859   2.320   4.036   2.127  0.4535  0.6619 -0.2334
 4618TIP3    H113860   2.257   4.107   2.121  1.3796  1.5015 -0.1855
 4618TIP3    H213861   2.266   3.957   2.137 -0.5874  1.3135 -0.5794
 4619TIP3   OH213862   1.203   3.282   1.192  0.3005  0.0751 -0.5306
 4619TIP3    H113863   1.280   3.318   1.150  1.1897 -1.9845 -0.7805
 4619TIP3    H213864   1.237   3.223   1.259 -0.9527 -2.2323 -1.8008
 4620TIP3   OH213865   1.523   5.171   0.931  0.1567 -0.2041  0.5743
 4620TIP3    H113866   1.542   5.099   0.991  0.2478 -1.2832 -0.6980
 4620TIP3    H213867   1.605   5.186   0.884  0.2220  0.9475  1.0154
 4621TIP3   OH213868   1.145   2.179   0.164 -0.2339  0.6899 -0.3311
 4621TIP3    H113869   1.087   2.107   0.140 -0.0698  0.3663  0.2075
 4621TIP3    H213870   1.227   2.160   0.119  0.0935  0.0524  0.5199
 4622TIP3   OH213871   1.008   1.825   1.066 -0.4703 -0.4950 -0.0401
 4622TIP3    H113872   1.080   1.818   1.004 -0.0932  0.3689  0.2839
 4622TIP3    H213873   0.929   1.822   1.012 -0.1424  0.4528 -0.5854
 4623TIP3   OH213874   4.561   3.745   1.750  0.7186  0.5132 -0.3086
 4623TIP3    H113875   4.525   3.784   1.831  0.8473  0.6081 -0.2959
 4623TIP3    H213876   4.513   3.663   1.739  0.4444  0.6760 -0.3333
 4624TIP3   OH213877   2.562   0.080   2.094 -0.1447  0.7398 -0.1584
 4624TIP3    H113878   2.606   0.100   2.011  0.4449  0.5761  0.1023
 4624TIP3    H213879   2.533  -0.011   2.084  0.9536  0.3179  0.2232
 4625TIP3   OH213880   2.674   3.929   2.764  0.1746  0.5386 -0.3499
 4625TIP3    H113881   2.698   3.862   2.828  0.3447  0.7702 -0.1702
 4625TIP3    H213882   2.589   3.962   2.794  1.5521  2.6777  1.4167
 4626TIP3   OH213883   3.133   4.199   1.762  0.0696 -0.3293 -0.1433
 4626TIP3    H113884   3.096   4.222   1.847 -0.9723 -0.0697 -0.6521
 4626TIP3    H213885   3.140   4.104   1.764 -1.3272 -0.4502 -0.3047
 4627TIP3   OH213886   5.370   1.423   3.747 -0.4049 -0.5756 -0.3282
 4627TIP3    H113887   5.325   1.345   3.714  0.0982 -1.2764  0.5917
 4627TIP3    H213888   5.327   1.496   3.703 -2.7342 -1.1606  0.7820
 4628TIP3   OH213889   2.874   5.099   3.374  0.1478  0.7644 -0.2609
 4628TIP3    H113890   2.781   5.073   3.372 -0.0906  1.5116  0.6797
 4628TIP3    H213891   2.919   5.026   3.332 -0.8972  0.5431 -1.0525
 4629TIP3   OH213892   2.557   0.076   4.735 -0.5592  0.6118 -0.5911
 4629TIP3    H113893   2.461   0.083   4.743 -0.6000 -0.3110 -0.1609
 4629TIP3    H213894   2.591   0.152   4.783 -1.0103 -0.6033  1.7847
 4630TIP3   OH213895   4.332   5.664   3.043 -0.0259  0.2065  0.3705
 4630TIP3    H113896   4.382   5.583   3.038  0.1242  0.2751  0.7151
 4630TIP3    H213897   4.322   5.692   2.952 -2.2662 -1.4925  0.0216
 4631TIP3   OH213898   1.992   5.156   1.562  0.0872  0.3446  0.1564
 4631TIP3    H113899   2.045   5.149   1.483  1.0196  0.2524  0.7772
 4631TIP3    H213900   2.045   5.207   1.623 -0.5496  0.2841  0.7883
 4632TIP3   OH213901   5.413   5.477   1.095 -0.0948  0.4516  0.0260
 4632TIP3    H113902   5.484   5.424   1.133  0.4853  1.2347  0.0706
 4632TIP3    H213903   5.345   5.477   1.163 -1.2168 -2.2777 -0.9255
 4633TIP3   OH213904   1.137   4.150   2.949 -0.0024 -0.1717 -0.3922
 4633TIP3    H113905   1.230   4.151   2.974  0.0957  0.6637 -0.7619
 4633TIP3    H213906   1.091   4.141   3.032  0.4086 -0.8533 -0.2262
 4634TIP3   OH213907   4.116   1.242   3.071 -0.2948 -0.8311  0.4317
 4634TIP3    H113908   4.033   1.254   3.025 -0.2191 -0.3154  0.4174
 4634TIP3    H213909   4.127   1.323   3.122  1.2299  0.1127 -1.2549
 4635TIP3   OH213910   3.195   4.737   4.233 -0.0578  0.4384  0.2029
 4635TIP3    H113911   3.180   4.713   4.142  2.9277  0.9833 -0.5576
 4635TIP3    H213912   3.268   4.681   4.261 -1.4950 -0.3834  2.6115
 4636TIP3   OH213913   2.911   5.555   2.531  0.1373  0.6536  0.0981
 4636TIP3    H113914   2.849   5.576   2.601  1.2394 -1.3979  1.8061
 4636TIP3    H213915   2.993   5.537   2.577  1.3039  0.7179 -1.8860
 4637TIP3   OH213916   4.044   5.101   1.507 -0.5036  0.0168  0.6588
 4637TIP3    H113917   4.024   5.114   1.600  0.0045  0.1423  0.7488
 4637TIP3    H213918   4.005   5.177   1.464  0.1871  0.5133  0.8927
 4638TIP3   OH213919   5.537   5.977   1.812  0.4415 -0.1652 -0.2716
 4638TIP3    H113920   5.616   5.929   1.786  1.8539  2.2507 -0.7426
 4638TIP3    H213921   5.479   5.970   1.735 -0.5068 -3.0886  0.5635
 4639TIP3   OH213922   2.119   2.479   4.734  0.0064 -0.0976  0.2535
 4639TIP3    H113923   2.077   2.394   4.745 -2.0361  1.0407  2.1382
 4639TIP3    H213924   2.115   2.496   4.639 -2.1434 -0.8957  0.1536
 4640TIP3   OH213925   0.201   4.441   1.692 -0.1406  0.3988 -0.1266
 4640TIP3    H113926   0.267   4.510   1.698  0.7344 -0.4311 -0.0307
 4640TIP3    H213927   0.130   4.480   1.641 -0.4344  1.9549  1.4005
 4641TIP3   OH213928   2.913   4.498   1.114  0.3421 -0.1757 -0.3002
 4641TIP3    H113929   2.967   4.429   1.077  1.0430  0.6410 -0.8399
 4641TIP3    H213930   2.875   4.543   1.039  1.7063  1.4416 -0.0847
 4642TIP3   OH213931   3.103   1.089   1.644 -0.2411 -0.5762 -0.5089
 4642TIP3    H113932   3.015   1.074   1.679 -0.4127  0.4411 -0.4748
 4642TIP3    H213933   3.128   1.005   1.606 -0.2889 -1.5647  1.5269
 4643TIP3   OH213934   1.154   3.894   4.000 -0.3582  0.0829  0.2424
 4643TIP3    H113935   1.094   3.832   3.957 -0.7200  1.6071 -1.5661
 4643TIP3    H213936   1.096   3.958   4.041  0.0060 -0.9657  2.5415
 4644TIP3   OH213937   0.283   3.756   5.118  0.3193  0.0277 -0.4437
 4644TIP3    H113938   0.293   3.664   5.141  1.9220  0.3839  0.4813
 4644TIP3    H213939   0.232   3.793   5.190  0.8711  0.1188 -0.0916
 4645TIP3   OH213940   3.085   0.886   0.158  0.6378 -0.3773 -0.0306
 4645TIP3    H113941   3.179   0.900   0.169  0.8763 -1.2476 -0.7882
 4645TIP3    H213942   3.064   0.926   0.074 -0.0406  1.3459  0.9159
 4646TIP3   OH213943   4.077   2.166   3.063 -0.2322  0.1926  0.1314
 4646TIP3    H113944   4.033   2.245   3.033 -1.6395  0.2269  2.0689
 4646TIP3    H213945   4.045   2.097   3.005 -2.4288  0.3414  1.0427
 4647TIP3   OH213946   0.939   4.326   4.452 -0.1600 -0.3207  0.3067
 4647TIP3    H113947   0.996   4.365   4.518 -0.9966  0.0635  0.8005
 4647TIP3    H213948   0.982   4.243   4.431  0.2092 -0.3664  1.1929
 4648TIP3   OH213949   1.421   1.780   1.674  0.0596 -0.4727  0.0744
 4648TIP3    H113950   1.336   1.820   1.694 -0.3292 -0.7199 -0.9978
 4648TIP3    H213951   1.398   1.696   1.633  0.8436 -1.0909  0.8796
 4649TIP3   OH213952   2.520   0.106   4.478  0.6153 -0.3298  0.1439
 4649TIP3    H113953   2.513   0.199   4.458  1.5716 -0.4989 -1.1376
 4649TIP3    H213954   2.536   0.102   4.572 -2.3167  0.6269  0.7890
 4650TIP3   OH213955   5.469   3.465   2.925  0.2816  0.8346  0.0089
 4650TIP3    H113956   5.484   3.446   3.017 -1.2079  2.5530  0.6788
 4650TIP3    H213957   5.552   3.444   2.882  1.7119  1.9234  2.0644
 4651TIP3   OH213958   1.720   5.458   3.638  0.6739  0.4506  0.2162
 4651TIP3    H113959   1.766   5.517   3.578  1.6834 -0.7429 -0.2399
 4651TIP3    H213960   1.629   5.461   3.609  0.9750  0.6345 -0.7561
 4652TIP3   OH213961   0.636   0.230   1.584  0.6349  0.2769 -0.5564
 4652TIP3    H113962   0.632   0.164   1.514 -1.3141 -0.0602 -0.1939
 4652TIP3    H213963   0.728   0.256   1.587  0.9772 -0.4760 -2.5150
 4653TIP3   OH213964   4.389   4.032   1.781  0.0831  0.2680 -0.2141
 4653TIP3    H113965   4.388   4.077   1.865  2.0538 -0.4169  0.2160
 4653TIP3    H213966   4.337   3.952   1.796 -0.0225  0.4082  0.1806
 4654TIP3   OH213967   2.923   4.273   3.426 -0.0039  0.4029  0.3092
 4654TIP3    H113968   2.997   4.241   3.374  0.0137  2.0183 -0.7381
 4654TIP3    H213969   2.964   4.328   3.493 -0.2105  0.8374  0.0827
 4655TIP3   OH213970   6.055   3.191   2.573 -0.4525  0.0890 -0.0040
 4655TIP3    H113971   6.033   3.183   2.480  0.2897  0.9483 -0.2630
 4655TIP3    H213972   6.092   3.278   2.582 -1.6336  0.4830  1.3466
 4656TIP3   OH213973   5.775   5.811   2.990  0.3416 -0.0982  0.3077
 4656TIP3    H113974   5.798   5.726   3.027  2.3912 -0.5416 -1.7243
 4656TIP3    H213975   5.857   5.844   2.951 -0.6583  2.2677 -0.0042
 4657TIP3   OH213976   2.113   0.688   4.736  0.3305  0.3182  0.0104
 4657TIP3    H113977   2.034   0.733   4.706 -0.6005 -0.1740  1.6141
 4657TIP3    H213978   2.173   0.693   4.662 -1.7624 -0.6781 -1.8798
 4658TIP3   OH213979   6.321   0.249   2.691  0.3801 -0.7763 -0.6677
 4658TIP3    H113980   6.285   0.337   2.686  0.5842 -0.7689 -2.2284
 4658TIP3    H213981   6.401   0.252   2.639  0.7181 -1.7318 -0.2308
 4659TIP3   OH213982   4.587   1.036   1.038 -0.1621  0.2304 -0.0925
 4659TIP3    H113983   4.632   1.113   1.074  0.8761  0.1239 -1.1104
 4659TIP3    H213984   4.642   0.962   1.066 -1.4669 -0.2332  1.3839
 4660TIP3   OH213985   2.574   4.736   3.272 -0.2802 -0.2801 -0.1396
 4660TIP3    H113986   2.531   4.809   3.225 -0.1329  0.3323  0.6520
 4660TIP3    H213987   2.622   4.689   3.204 -0.5993  0.1987 -0.7122
 4661TIP3   OH213988   1.512   4.648   2.997 -0.7712  0.4907  0.0967
 4661TIP3    H113989   1.540   4.655   3.088  1.2444 -0.2014 -0.4210
 4661TIP3    H213990   1.566   4.712   2.950  0.2488 -1.0881 -0.9944
 4662TIP3   OH213991   3.340   4.513   4.355 -0.4283  0.8144 -0.3869
 4662TIP3    H113992   3.384   4.431   4.334  0.5407  0.9898  0.8742
 4662TIP3    H213993   3.260   4.486   4.401 -0.5967  0.5557 -0.8280
 4663TIP3   OH213994   0.721   1.338   1.594  0.2364  0.2908  0.1245
 4663TIP3    H113995   0.630   1.320   1.571  0.1682  1.6417 -0.8155
 4663TIP3    H213996   0.770   1.263   1.561 -0.4087  0.1261 -0.4883
 4664TIP3   OH213997   0.892   5.389   2.683  0.1406 -0.0935 -0.4553
 4664TIP3    H113998   0.892   5.307   2.732  0.6125  0.5469  0.6375
 4664TIP3    H213999   0.984   5.408   2.666  0.0773  0.5396 -0.1285
 4665TIP3   OH214000   1.444   2.871   2.905  0.2027 -0.5665 -0.2558
 4665TIP3    H114001   1.527   2.823   2.894  0.5661  0.2094 -0.9818
 4665TIP3    H214002   1.452   2.913   2.990  1.6293  1.5049 -1.3397
 4666TIP3   OH214003   2.361   1.738   2.935  0.0912  0.6200  0.5791
 4666TIP3    H114004   2.344   1.686   3.014 -2.4579  1.1580  0.4682
 4666TIP3    H214005   2.417   1.682   2.881 -0.4014 -0.9135  1.5885
 4667TIP3   OH214006   3.380   4.011   4.959  0.6095 -0.8725 -0.1114
 4667TIP3    H114007   3.442   3.966   4.902  1.4891 -0.8407  0.7927
 4667TIP3    H214008   3.293   3.985   4.926  1.0351  0.0842 -2.2037
 4668TIP3   OH214009   1.967   5.484   0.018  0.1306 -0.2633  0.5083
 4668TIP3    H114010   1.905   5.467   0.089 -1.7582 -0.3876 -1.0461
 4668TIP3    H214011   1.964   5.579   0.006 -0.1830 -0.3197  0.1012
 4669TIP3   OH214012   5.205   0.393   3.023  0.1456  0.1511  0.3008
 4669TIP3    H114013   5.244   0.440   2.949  1.2769  2.6482  2.3587
 4669TIP3    H214014   5.270   0.399   3.092 -1.4316 -0.9420  1.9603
 4670TIP3   OH214015   2.197   4.286   3.436 -0.1714  0.1870 -0.4295
 4670TIP3    H114016   2.222   4.313   3.524 -0.6476 -0.2182 -0.1646
 4670TIP3    H214017   2.279   4.285   3.387  0.0451  0.7558 -0.0852
 4671TIP3   OH214018   3.966   0.054   1.068 -0.2443  0.2225  0.6501
 4671TIP3    H114019   3.926  -0.008   1.006  1.2140 -1.5621  1.4030
 4671TIP3    H214020   3.995  -0.000   1.141  1.6353  1.7041  1.0915
 4672TIP3   OH214021   4.492   3.626   0.955  0.4060 -0.3641  0.4874
 4672TIP3    H114022   4.582   3.602   0.934  0.4460  0.5862 -0.4931
 4672TIP3    H214023   4.439   3.570   0.898  0.2642 -2.2119  2.3143
 4673TIP3   OH214024   6.059   2.038   1.864 -0.3772 -0.5794  0.0172
 4673TIP3    H114025   6.017   2.123   1.851  0.5566 -0.2645 -1.1323
 4673TIP3    H214026   5.996   1.974   1.829 -0.9401 -0.3395  0.5822
 4674TIP3   OH214027   3.256   0.799   3.694  0.1389 -0.1473  0.2492
 4674TIP3    H114028   3.167   0.813   3.661 -0.1509 -0.9062  0.6879
 4674TIP3    H214029   3.248   0.726   3.755  1.1306 -0.4972 -0.0109
 4675TIP3   OH214030   4.804   2.631   1.681  0.5026 -0.4096  0.1005
 4675TIP3    H114031   4.752   2.569   1.732  1.4745  0.1234  1.8473
 4675TIP3    H214032   4.893   2.623   1.717  0.5657  2.2721  0.7352
 4676TIP3   OH214033   4.478   2.171   4.998  0.5888 -0.1509  0.0380
 4676TIP3    H114034   4.557   2.145   5.046 -1.3353 -1.1382  2.9378
 4676TIP3    H214035   4.488   2.131   4.911  2.7217 -1.1915  0.7054
 4677TIP3   OH214036   2.726   4.463   0.637  0.6662 -0.8356  0.6014
 4677TIP3    H114037   2.729   4.385   0.581 -1.4073 -0.9396  0.5819
 4677TIP3    H214038   2.776   4.528   0.588 -0.2972 -1.2093 -0.9493
 4678TIP3   OH214039   3.104   4.249   2.581 -0.4470 -0.3347 -0.0204
 4678TIP3    H114040   3.026   4.297   2.554  0.4570  2.0273  1.2643
 4678TIP3    H214041   3.168   4.264   2.511  0.4689  2.1509  1.2069
 4679TIP3   OH214042   5.677   4.629   1.362  0.0375  0.2200  0.1814
 4679TIP3    H114043   5.607   4.576   1.324  0.9762 -0.5633 -0.4749
 4679TIP3    H214044   5.703   4.688   1.291 -0.9215  1.5218  0.8684
 4680TIP3   OH214045   2.068   3.451   2.489  0.8245 -0.2487  0.4901
 4680TIP3    H114046   1.996   3.486   2.541 -0.1108  0.4049 -1.1797
 4680TIP3    H214047   2.028   3.380   2.438  1.7167 -0.8759  0.6496
 4681TIP3   OH214048   1.684   3.207   1.224  0.5258 -0.0802  0.2470
 4681TIP3    H114049   1.630   3.130   1.242 -0.6116  0.4923 -0.5653
 4681TIP3    H214050   1.622   3.280   1.230  1.6850  0.8509  1.5712
 4682TIP3   OH214051   2.169   4.450   3.791  0.2377 -0.2752  0.0999
 4682TIP3    H114052   2.211   4.392   3.854  0.9177  0.7026  0.5826
 4682TIP3    H214053   2.241   4.478   3.734 -0.2242 -0.5072 -0.6092
 4683TIP3   OH214054   5.494   3.940   4.170  0.1012 -0.7217  0.6681
 4683TIP3    H114055   5.437   4.009   4.136 -0.0049 -1.1835 -0.1458
 4683TIP3    H214056   5.578   3.955   4.127  0.7041  0.1416  2.1044
 4684TIP3   OH214057   4.885   4.965   0.618 -0.2045  0.1056 -0.4904
 4684TIP3    H114058   4.936   5.012   0.552  0.4714 -0.1450 -0.1630
 4684TIP3    H214059   4.812   4.926   0.570 -0.6906  1.3424 -0.7930
 4685TIP3   OH214060   5.008   3.224   2.547  0.0374 -0.4283 -0.1393
 4685TIP3    H114061   5.062   3.149   2.572  1.3750 -0.0679 -1.7670
 4685TIP3    H214062   5.017   3.286   2.619  1.6727 -0.4512 -0.3066
 4686TIP3   OH214063   5.612   1.442   0.555  0.3079 -0.1573  0.5703
 4686TIP3    H114064   5.560   1.407   0.628  1.1269 -0.7869  0.8710
 4686TIP3    H214065   5.547   1.474   0.493 -0.4134  0.1456  1.4563
 4687TIP3   OH214066   1.055   5.536   1.172 -0.2379 -0.2868  0.7939
 4687TIP3    H114067   1.060   5.443   1.194  0.5745 -0.1470  1.2557
 4687TIP3    H214068   1.128   5.550   1.112 -0.2123  0.0970  0.9112
 4688TIP3   OH214069   2.240   5.513   3.086  0.5692  0.1255  0.3822
 4688TIP3    H114070   2.215   5.596   3.126  0.6151 -0.0438  0.7760
 4688TIP3    H214071   2.333   5.522   3.065 -0.0967  1.2765 -2.3975
 4689TIP3   OH214072   6.159   5.741   2.651  0.0462  0.4245  0.0342
 4689TIP3    H114073   6.079   5.743   2.599 -0.7203 -1.4279  1.0379
 4689TIP3    H214074   6.164   5.828   2.691 -1.1648  0.7600 -0.4896
 4690TIP3   OH214075   0.957   1.115   2.582  0.8748  0.1464 -0.3773
 4690TIP3    H114076   0.990   1.198   2.616  1.6110 -0.3040  0.0391
 4690TIP3    H214077   0.907   1.078   2.655  0.8671  0.0427 -0.4359
 4691TIP3   OH214078   5.633   3.712   4.597 -0.4760  0.0754 -0.2361
 4691TIP3    H114079   5.617   3.626   4.635 -0.6914 -0.2226 -0.9751
 4691TIP3    H214080   5.547   3.741   4.567 -0.3609  0.4423 -0.2075
 4692TIP3   OH214081   2.143   4.219   2.042 -0.2907 -0.3743 -0.8109
 4692TIP3    H114082   2.187   4.295   2.005 -0.9077  0.3568 -0.0705
 4692TIP3    H214083   2.102   4.176   1.968  0.6472 -0.3931 -1.3394
 4693TIP3   OH214084   4.693   2.538   1.217 -0.5239  0.0336  0.6690
 4693TIP3    H114085   4.745   2.488   1.280  2.1809 -1.5015 -2.4633
 4693TIP3    H214086   4.630   2.475   1.183 -0.7537  0.3262  0.5522
 4694TIP3   OH214087   0.449   4.427   3.731  0.0131  0.0029  0.1864
 4694TIP3    H114088   0.476   4.426   3.823 -0.4891  0.3171  0.3432
 4694TIP3    H214089   0.358   4.395   3.732  0.2246 -0.6358 -0.2794
 4695TIP3   OH214090   3.809   1.564   1.961  0.9661 -0.3740  0.0928
 4695TIP3    H114091   3.838   1.473   1.961  0.4162 -0.5603  1.0902
 4695TIP3    H214092   3.882   1.612   1.924  1.2265 -1.2305 -0.5400
 4696TIP3   OH214093   4.154   1.024   2.836  0.2460  0.0968 -0.7514
 4696TIP3    H114094   4.161   1.102   2.891  1.4539 -1.5303  1.5710
 4696TIP3    H214095   4.061   1.003   2.836  0.1101  0.6655 -0.0969
 4697TIP3   OH214096   5.815   5.350   0.157  0.3183  0.2609  0.2569
 4697TIP3    H114097   5.762   5.271   0.168  1.3356 -0.2764  1.5192
 4697TIP3    H214098   5.893   5.320   0.112  0.9472  0.4318  1.2135
 4698TIP3   OH214099   2.351   1.106   1.965 -0.0156  0.3685  0.1452
 4698TIP3    H114100   2.276   1.162   1.985 -0.1659  0.7983 -1.4312
 4698TIP3    H214101   2.314   1.035   1.912 -0.0682 -2.0812  3.2098
 4699TIP3   OH214102   3.302   2.356   1.935 -0.3709 -0.1863  0.3873
 4699TIP3    H114103   3.263   2.270   1.918  0.5211 -0.4820 -0.2392
 4699TIP3    H214104   3.396   2.342   1.925 -0.0959  0.5264  1.8135
 4700TIP3   OH214105   2.795   3.970   3.490  0.4730 -0.0874  0.1389
 4700TIP3    H114106   2.773   4.034   3.558  1.1649 -0.5190  0.7739
 4700TIP3    H214107   2.890   3.962   3.493  0.5188 -0.1007 -0.8999
 4701TIP3   OH214108   4.821   1.469   3.781 -0.5020  0.2532 -0.2206
 4701TIP3    H114109   4.763   1.530   3.826 -1.4247  0.4810 -1.6664
 4701TIP3    H214110   4.903   1.517   3.771 -0.4181  0.3482  0.8178
 4702TIP3   OH214111   0.137   0.584   0.986 -0.1070  0.1012 -0.1721
 4702TIP3    H114112   0.055   0.629   1.004 -0.8924 -0.7981 -1.4038
 4702TIP3    H214113   0.181   0.639   0.921  0.6059  0.9239  0.9586
 4703TIP3   OH214114   3.859   3.609   0.467 -0.1984  0.4505  0.1675
 4703TIP3    H114115   3.886   3.603   0.559  0.2813  0.4496  0.0281
 4703TIP3    H214116   3.929   3.565   0.419 -0.0625  1.1217 -0.2660
 4704TIP3   OH214117   4.224   4.119   2.145  0.1065  0.3200  0.3290
 4704TIP3    H114118   4.149   4.177   2.130 -1.0694 -0.7854  1.6911
 4704TIP3    H214119   4.187   4.031   2.148  1.5709 -0.3283  0.3026
 4705TIP3   OH214120   3.542   4.370   0.194  0.4146 -0.1716  0.4366
 4705TIP3    H114121   3.586   4.294   0.155  1.3019  0.9332 -0.7946
 4705TIP3    H214122   3.481   4.400   0.127 -0.1709  0.0229  1.0430
 4706TIP3   OH214123   5.954   3.650   5.071 -0.3890 -0.3953  0.3797
 4706TIP3    H114124   5.929   3.726   5.123  2.2892  0.5559  0.4201
 4706TIP3    H214125   6.049   3.643   5.082  0.1816 -0.7965 -3.4877
 4707TIP3   OH214126   3.445   5.027   1.822 -0.1066  0.0599 -0.7381
 4707TIP3    H114127   3.358   5.058   1.847  0.0920  0.0941 -0.0742
 4707TIP3    H214128   3.455   4.944   1.868  0.4104  0.3032 -0.4056
 4708TIP3   OH214129   3.317   1.229   2.167 -0.3594  0.0852 -0.3104
 4708TIP3    H114130   3.278   1.185   2.092 -0.4482 -0.4345  0.0403
 4708TIP3    H214131   3.265   1.309   2.178 -1.4055 -0.6553  0.2315
 4709TIP3   OH214132   1.593   5.524   4.907 -0.2155  0.4176 -0.7897
 4709TIP3    H114133   1.592   5.449   4.967  1.0109  0.4680 -0.6809
 4709TIP3    H214134   1.603   5.484   4.820 -0.4061  0.4224 -0.8149
 4710TIP3   OH214135   4.721   4.527   3.205 -0.5876 -0.1423  0.5639
 4710TIP3    H114136   4.633   4.505   3.176 -0.4189 -1.2085  0.8107
 4710TIP3    H214137   4.711   4.550   3.298 -0.4353 -1.6920  1.0041
 4711TIP3   OH214138   2.639   4.981   4.482  0.0561  0.0154 -0.1666
 4711TIP3    H114139   2.611   4.890   4.493  1.8907 -0.9090 -2.2475
 4711TIP3    H214140   2.581   5.016   4.414  1.3642 -0.7221 -1.7535
 4712TIP3   OH214141   4.728   5.412   4.196  0.2637  0.1930 -0.3170
 4712TIP3    H114142   4.765   5.490   4.152  0.1034  0.2470 -0.3555
 4712TIP3    H214143   4.746   5.340   4.135  0.2878  0.2220 -0.3450
 4713TIP3   OH214144   3.624   0.091   0.379  0.5906 -0.2510  0.4696
 4713TIP3    H114145   3.615   0.155   0.309 -0.1246 -2.1453 -1.2946
 4713TIP3    H214146   3.712   0.105   0.414  1.9969 -0.7940 -2.5311
 4714TIP3   OH214147   2.777   5.816   4.726 -0.0300 -0.2840 -0.3658
 4714TIP3    H114148   2.855   5.833   4.673 -0.8965  1.9459 -1.0212
 4714TIP3    H214149   2.749   5.902   4.755 -1.1533 -1.2254  1.5019
 4715TIP3   OH214150   1.071   0.714   5.073  0.7214 -0.5980 -0.3791
 4715TIP3    H114151   1.163   0.711   5.046  0.9848  2.5731 -0.2552
 4715TIP3    H214152   1.074   0.701   5.168  0.5443 -4.2312 -0.7290
 4716TIP3   OH214153   5.954   3.297   1.573  0.0715 -0.6684 -0.1119
 4716TIP3    H114154   5.911   3.219   1.537 -1.5998 -0.0865  0.5405
 4716TIP3    H214155   5.958   3.358   1.500 -0.3214 -0.6900 -0.1545
 4717TIP3   OH214156   3.314   3.191   2.164  0.3366 -0.0525  0.0122
 4717TIP3    H114157   3.245   3.135   2.127  0.4754 -0.4449  0.3415
 4717TIP3    H214158   3.382   3.130   2.192  0.6784  0.3132 -0.0121
 4718TIP3   OH214159   2.420   3.879   1.345 -0.0639  0.2976  0.4650
 4718TIP3    H114160   2.480   3.842   1.409 -0.3117  0.0708  0.5693
 4718TIP3    H214161   2.475   3.933   1.288 -0.1433  2.2754  2.1555
 4719TIP3   OH214162   4.468   1.121   1.483 -0.1874 -0.2198  0.4659
 4719TIP3    H114163   4.563   1.119   1.490 -0.1339  2.3484  1.6801
 4719TIP3    H214164   4.437   1.097   1.570 -0.7505 -2.0500 -0.1845
 4720TIP3   OH214165   1.303   5.061   0.179 -0.4618 -0.1312  0.6419
 4720TIP3    H114166   1.341   5.119   0.246  1.2011  1.7764 -1.7743
 4720TIP3    H214167   1.219   5.102   0.157 -1.1082 -0.8742  1.6111
 4721TIP3   OH214168   2.125   1.444   4.701  0.1636  0.0136  0.1953
 4721TIP3    H114169   2.158   1.524   4.742  0.2504  0.9248 -1.5441
 4721TIP3    H214170   2.040   1.469   4.666 -0.6359 -1.2001  1.1910
 4722TIP3   OH214171   2.271   0.184   3.805  0.6614  0.6507 -0.3700
 4722TIP3    H114172   2.207   0.254   3.812  0.9444  0.8609  0.1524
 4722TIP3    H214173   2.233   0.110   3.852  0.5996  0.6299 -0.4535
 4723TIP3   OH214174   1.090   3.279   0.571  0.0677  0.1168 -0.1854
 4723TIP3    H114175   1.109   3.329   0.650 -0.6462 -1.1133  0.7999
 4723TIP3    H214176   1.176   3.267   0.530  0.6314 -0.2748  1.0558
 4724TIP3   OH214177   0.244   1.419   0.978 -0.0830 -0.2535 -0.4496
 4724TIP3    H114178   0.319   1.393   0.925 -0.0758  0.4853 -0.8170
 4724TIP3    H214179   0.168   1.405   0.922 -0.5135 -3.2993  0.7281
 4725TIP3   OH214180   5.398   0.496   3.202 -0.0672 -0.7902  0.2367
 4725TIP3    H114181   5.491   0.478   3.188  0.5603  1.8066  0.6642
 4725TIP3    H214182   5.382   0.473   3.293  0.0892 -1.4163  0.1118
 4726TIP3   OH214183   0.846   5.947   4.225 -0.3476  0.0326 -0.1316
 4726TIP3    H114184   0.930   5.974   4.262 -0.8838  1.5548  0.0299
 4726TIP3    H214185   0.868   5.871   4.171  0.9665 -0.2215  0.7019
 4727TIP3   OH214186   6.019   5.445   3.035  0.2639 -0.4619  0.0971
 4727TIP3    H114187   6.110   5.460   3.060  0.2298  0.7904 -0.4738
 4727TIP3    H214188   5.968   5.473   3.111  0.3145 -0.2159  0.0409
 4728TIP3   OH214189   5.291   5.000   4.722  0.8229  0.0731  0.1043
 4728TIP3    H114190   5.348   4.936   4.681 -0.4586 -0.1801 -1.3625
 4728TIP3    H214191   5.204   4.961   4.719  0.4444  0.7056  1.7387
 4729TIP3   OH214192   5.792   5.858   1.749  0.0458  0.0608  0.3699
 4729TIP3    H114193   5.847   5.875   1.826  1.4823 -0.3382 -0.5231
 4729TIP3    H214194   5.852   5.864   1.675 -1.1336 -0.4195 -0.6618
 4730TIP3   OH214195   4.481   3.516   2.268 -0.2909  0.3496  0.2638
 4730TIP3    H114196   4.386   3.511   2.278 -0.4804 -0.4094 -1.4524
 4730TIP3    H214197   4.516   3.492   2.353 -1.6181  2.1300  1.3897
 4731TIP3   OH214198   0.401   2.234   5.114  0.1817 -0.4162 -0.3565
 4731TIP3    H114199   0.375   2.195   5.031 -1.1057 -0.7478  0.1853
 4731TIP3    H214200   0.360   2.321   5.114 -0.5470 -0.7504  0.2918
 4732TIP3   OH214201   6.122   0.233   5.119 -0.1354 -0.1064 -0.6054
 4732TIP3    H114202   6.068   0.301   5.159  0.6247  0.5759 -0.7141
 4732TIP3    H214203   6.062   0.159   5.107 -1.2357  0.8709 -1.4059
 4733TIP3   OH214204   1.930   3.406   5.053 -0.2681 -0.7729  0.0629
 4733TIP3    H114205   1.915   3.437   4.964  0.1439 -0.5063  0.0860
 4733TIP3    H214206   2.006   3.456   5.084 -0.7535 -0.4511  0.7616
 4734TIP3   OH214207   5.916   3.715   1.923  0.2259 -0.2439  0.4194
 4734TIP3    H114208   5.940   3.801   1.888 -0.1338 -0.1238  0.4526
 4734TIP3    H214209   5.934   3.654   1.852  1.8146 -0.3421  0.8777
 4735TIP3   OH214210   1.738   1.682   2.428  0.4158  0.8090  0.4350
 4735TIP3    H114211   1.711   1.661   2.517 -0.0697  0.7831  0.2889
 4735TIP3    H214212   1.772   1.771   2.433  0.5840  0.7293  0.6852
 4736TIP3   OH214213   5.661   4.414   2.255 -0.0175 -0.0015 -0.5007
 4736TIP3    H114214   5.628   4.500   2.230 -2.2741 -0.7593 -0.4144
 4736TIP3    H214215   5.703   4.427   2.340 -1.3192  0.8526  0.0395
 4737TIP3   OH214216   3.966   0.490   3.107 -0.2403  0.0039 -0.2417
 4737TIP3    H114217   4.013   0.441   3.174 -1.6416 -0.1390  0.6703
 4737TIP3    H214218   3.998   0.580   3.116  0.0862 -0.1512  0.1492
 4738TIP3   OH214219   1.939   5.189   4.542  0.2205 -0.2854 -0.1392
 4738TIP3    H114220   1.921   5.281   4.561 -1.5367 -0.7338  0.5233
 4738TIP3    H214221   2.010   5.165   4.602 -1.0346 -0.0117  1.5012
 4739TIP3   OH214222   3.423   0.472   2.852 -0.1414 -0.1425  0.1216
 4739TIP3    H114223   3.514   0.466   2.881 -0.1386 -0.2615  0.0914
 4739TIP3    H214224   3.373   0.428   2.921 -0.1686 -0.1345  0.1067
 4740TIP3   OH214225   2.431   1.989   0.536 -0.4364  0.0103  0.0838
 4740TIP3    H114226   2.360   2.054   0.537  0.6230  1.3065 -1.8062
 4740TIP3    H214227   2.480   2.006   0.616  0.3157  2.2421 -0.7493
 4741TIP3   OH214228   3.695   3.299   0.813  0.2725 -0.1880 -0.2757
 4741TIP3    H114229   3.621   3.353   0.841  0.6633 -0.3531  1.1833
 4741TIP3    H214230   3.682   3.287   0.719 -0.5367  1.3305 -0.3962
 4742TIP3   OH214231   3.968   1.186   3.703  0.0853  0.3487  0.1813
 4742TIP3    H114232   4.052   1.177   3.747  0.4277  0.5487 -0.4368
 4742TIP3    H214233   3.965   1.277   3.674  0.1651  0.0356 -0.8362
 4743TIP3   OH214234   5.785   4.019   4.336  0.4366 -0.4594 -0.1471
 4743TIP3    H114235   5.795   3.930   4.303  1.4562 -0.8573  1.1581
 4743TIP3    H214236   5.860   4.032   4.394 -0.5242  0.6927  0.8980
 4744TIP3   OH214237   3.621   5.093   3.324  0.0236 -0.0802 -0.3513
 4744TIP3    H114238   3.557   5.101   3.395  0.1248  1.4011 -0.4058
 4744TIP3    H214239   3.670   5.014   3.346 -1.1942 -0.7113  0.1968
 4745TIP3   OH214240   3.154   4.921   0.568 -0.5957 -0.0035 -0.8461
 4745TIP3    H114241   3.065   4.892   0.551 -0.5331 -0.3406 -0.6192
 4745TIP3    H214242   3.152   4.950   0.660 -0.8282  1.3800 -1.2662
 4746TIP3   OH214243   3.259   1.674   0.556  0.1863 -0.3133  0.1180
 4746TIP3    H114244   3.322   1.636   0.495  0.4218 -0.5110  0.4781
 4746TIP3    H214245   3.267   1.620   0.635 -2.5104 -2.2675 -0.7535
 4747TIP3   OH214246   5.497   3.884   2.659 -0.5271  0.0830  0.0272
 4747TIP3    H114247   5.438   3.941   2.609  1.0529  0.0316 -2.0240
 4747TIP3    H214248   5.505   3.927   2.744  0.3736  2.8159 -1.3404
 4748TIP3   OH214249   4.825   0.616   3.669 -0.4334  0.4839 -0.4685
 4748TIP3    H114250   4.761   0.626   3.739 -1.2444  0.3109 -1.1790
 4748TIP3    H214251   4.780   0.644   3.590 -0.3885 -1.7530 -1.3588
 4749TIP3   OH214252   5.503   5.459   1.626  0.1289  0.3723 -0.5568
 4749TIP3    H114253   5.425   5.467   1.572 -0.5837  2.1865  0.6358
 4749TIP3    H214254   5.540   5.548   1.627  1.0295  0.0050  0.5753
 4750TIP3   OH214255   5.373   2.688   3.318 -0.1025 -0.8187 -0.2939
 4750TIP3    H114256   5.360   2.782   3.306  2.3635 -0.5591 -1.6012
 4750TIP3    H214257   5.288   2.649   3.296 -0.4826  0.9523 -2.3411
 4751TIP3   OH214258   2.304   2.850   0.156 -0.5496  0.4855 -0.2421
 4751TIP3    H114259   2.234   2.876   0.096  0.4433  2.4810 -0.6199
 4751TIP3    H214260   2.371   2.812   0.100 -1.2769 -1.4956  0.1286
 4752TIP3   OH214261   1.096   5.210   2.430  0.0410 -0.6426 -0.0928
 4752TIP3    H114262   1.136   5.169   2.353  0.7311 -2.0197  0.9542
 4752TIP3    H214263   1.111   5.148   2.501  0.9875  1.3382  1.5579
 4753TIP3   OH214264   1.143   4.010   3.488 -0.6567 -0.3563  0.4647
 4753TIP3    H114265   1.100   3.977   3.409 -0.0411  0.5767 -0.2856
 4753TIP3    H214266   1.235   4.022   3.463 -0.5022  0.2043  1.2339
 4754TIP3   OH214267   4.803   5.249   2.426  0.0276  0.0822  0.3166
 4754TIP3    H114268   4.819   5.279   2.336 -0.6628 -2.2501 -0.6663
 4754TIP3    H214269   4.728   5.300   2.456  1.1026  1.8433  0.1050
 4755TIP3   OH214270   0.534   2.236   3.379  0.4090 -0.4206 -0.4241
 4755TIP3    H114271   0.619   2.270   3.407  0.6005 -1.2141  0.0013
 4755TIP3    H214272   0.498   2.304   3.322  1.2298  0.0191 -0.4296
 4756TIP3   OH214273   3.461   5.444   4.983 -0.1038  0.4365  0.3921
 4756TIP3    H114274   3.548   5.483   4.972  0.4835 -1.2500 -1.4940
 4756TIP3    H214275   3.406   5.494   4.923 -0.0983  0.5172  0.4538
 4757TIP3   OH214276   1.302   2.847   1.323 -0.3498 -0.4123 -0.4974
 4757TIP3    H114277   1.367   2.781   1.347 -0.6512 -0.4348  0.2704
 4757TIP3    H214278   1.259   2.811   1.245 -1.0702 -1.5155  0.3798
 4758TIP3   OH214279   0.837   1.534   1.098 -0.6957 -0.3160 -0.3651
 4758TIP3    H114280   0.821   1.614   1.048 -0.3618 -0.0817 -0.1045
 4758TIP3    H214281   0.874   1.565   1.181 -2.3163 -0.6233  0.5143
 4759TIP3   OH214282   1.625   5.295   2.480  0.3315 -0.0768 -0.6936
 4759TIP3    H114283   1.671   5.365   2.528 -0.5333 -0.1979  0.3690
 4759TIP3    H214284   1.660   5.299   2.391  1.0430  1.0369 -0.3821
 4760TIP3   OH214285   5.635   0.148   5.161  0.3021 -0.5535  0.4160
 4760TIP3    H114286   5.687   0.188   5.231 -1.0754 -0.7922  1.6430
 4760TIP3    H214287   5.623   0.217   5.097 -1.7334  1.0275  2.3193
 4761TIP3   OH214288   1.758   0.587   4.204 -0.1777 -0.1949 -0.2927
 4761TIP3    H114289   1.749   0.494   4.220  1.8322 -0.5895 -1.0990
 4761TIP3    H214290   1.818   0.618   4.272 -1.0527  0.6024  0.1518
 4762TIP3   OH214291   1.324   0.279   2.390 -0.2198 -0.1907 -0.6534
 4762TIP3    H114292   1.255   0.304   2.453 -0.2183  1.3208 -1.2165
 4762TIP3    H214293   1.401   0.329   2.418 -0.5119  1.3718 -2.4488
 4763TIP3   OH214294   6.325   2.243   4.275  0.0393  0.1254  0.1854
 4763TIP3    H114295   6.379   2.164   4.277 -2.8183 -2.0810 -1.3726
 4763TIP3    H214296   6.323   2.269   4.183  0.3246  1.5816  0.5702
 4764TIP3   OH214297   3.536   5.032   4.860  0.0749 -0.0938 -0.6657
 4764TIP3    H114298   3.455   5.069   4.894  0.8858 -0.1392  1.4828
 4764TIP3    H214299   3.588   5.107   4.833  0.1485  0.0902 -0.0269
 4765TIP3   OH214300   6.019   3.149   0.816 -0.1625  0.2296  0.6590
 4765TIP3    H114301   5.957   3.176   0.883 -0.7572  0.3904  0.0483
 4765TIP3    H214302   6.067   3.228   0.793  0.9300 -0.0764  1.7946
 4766TIP3   OH214303   1.698   5.248   5.147  0.1632  0.2371 -0.2084
 4766TIP3    H114304   1.722   5.224   5.236  0.5021  0.8940 -0.1206
 4766TIP3    H214305   1.619   5.301   5.157  0.0094  0.0356 -0.3301
 4767TIP3   OH214306   0.075   2.329   1.431 -0.1359 -0.1396  0.2364
 4767TIP3    H114307   0.139   2.258   1.431  0.0813 -0.0162  2.4793
 4767TIP3    H214308   0.027   2.318   1.514 -0.8244  1.6727  0.1189
 4768TIP3   OH214309   6.021   4.083   4.160  0.6271  0.1990  0.4864
 4768TIP3    H114310   6.009   4.008   4.219  1.9122 -2.3475 -2.2750
 4768TIP3    H214311   5.938   4.089   4.113  0.6787  0.2696  0.4063
 4769TIP3   OH214312   5.755   2.331   3.479 -0.1528 -1.1037  0.3591
 4769TIP3    H114313   5.763   2.368   3.567 -0.1986 -0.6068  0.1568
 4769TIP3    H214314   5.762   2.406   3.420  1.7049 -1.6210 -0.1609
 4770TIP3   OH214315   3.762   1.830   5.023  0.4362 -0.7256  0.1358
 4770TIP3    H114316   3.782   1.742   4.992 -0.5042 -0.9565  0.1394
 4770TIP3    H214317   3.846   1.876   5.021  1.1198 -1.8785  1.0283
 4771TIP3   OH214318   2.615   0.489   2.865  0.0191 -0.1377  0.4240
 4771TIP3    H114319   2.702   0.470   2.830  0.0655  0.3969  0.2364
 4771TIP3    H214320   2.629   0.499   2.959  0.3259  0.8287  0.2896
 4772TIP3   OH214321   2.658   3.792   4.530 -0.3341 -0.6414  0.0163
 4772TIP3    H114322   2.634   3.849   4.603  1.4154 -0.7972  0.7768
 4772TIP3    H214323   2.579   3.740   4.513 -0.2072 -2.1954  3.3295
 4773TIP3   OH214324   2.575   2.911   2.564 -0.1767 -0.1766  0.6585
 4773TIP3    H114325   2.510   2.946   2.504  0.1158 -2.9311 -1.4397
 4773TIP3    H214326   2.650   2.970   2.556 -1.0146  0.8552  0.2211
 4774TIP3   OH214327   1.471   0.758   0.105 -0.0668 -0.1712  0.2654
 4774TIP3    H114328   1.383   0.794   0.118  0.2639  0.0859  2.1742
 4774TIP3    H214329   1.519   0.784   0.184  2.2226  1.0876 -1.3954
 4775TIP3   OH214330   0.446   5.587   1.133 -0.2197  0.1789  0.5228
 4775TIP3    H114331   0.415   5.670   1.096 -0.3610  0.4099  1.1599
 4775TIP3    H214332   0.435   5.525   1.061 -0.9194  0.5298  0.3075
 4776TIP3   OH214333   6.091   0.453   4.800 -0.1385 -0.8202 -0.4220
 4776TIP3    H114334   6.171   0.404   4.818 -0.3405 -0.2940  2.3515
 4776TIP3    H214335   6.119   0.524   4.742  1.7139  0.0417  1.3942
 4777TIP3   OH214336   1.120   1.006   0.951 -0.5270 -0.1763 -0.0505
 4777TIP3    H114337   1.137   0.912   0.944  0.2002 -0.1222  0.7769
 4777TIP3    H214338   1.105   1.020   1.045 -0.2298  0.5919 -0.1105
 4778TIP3   OH214339   3.394   3.831   4.066  0.1248  0.0747  0.4741
 4778TIP3    H114340   3.428   3.882   4.139 -2.0746  0.2581  1.4435
 4778TIP3    H214341   3.366   3.748   4.105 -1.2784  0.2513 -0.0784
 4779TIP3   OH214342   0.081   1.649   2.793  0.4234  0.0085  0.1265
 4779TIP3    H114343   0.033   1.680   2.716 -0.1323  0.9483  0.8408
 4779TIP3    H214344   0.038   1.690   2.867  0.8477 -1.0254  0.9716
 4780TIP3   OH214345   1.367   1.888   4.336  0.3733 -0.5441 -0.4962
 4780TIP3    H114346   1.329   1.855   4.417 -0.8712  0.7618 -0.5010
 4780TIP3    H214347   1.308   1.959   4.309  0.8108 -0.8797 -2.4889
 4781TIP3   OH214348   1.231   1.815   0.905  0.1782  0.0965 -0.2276
 4781TIP3    H114349   1.245   1.859   0.821  1.0152  1.1878  0.4570
 4781TIP3    H214350   1.311   1.834   0.955 -0.7925  0.4706  1.2347
 4782TIP3   OH214351   3.472   0.377   0.917  0.2759  0.0984 -0.2416
 4782TIP3    H114352   3.517   0.458   0.893  2.2500 -0.8229  0.1666
 4782TIP3    H214353   3.532   0.334   0.978 -0.1702 -2.2178 -1.3464
 4783TIP3   OH214354   5.470   1.879   4.195 -0.0939  0.5016  0.4153
 4783TIP3    H114355   5.403   1.812   4.180  1.3456 -1.1832  1.1739
 4783TIP3    H214356   5.506   1.859   4.282 -0.6934  3.2734  1.4180
 4784TIP3   OH214357   1.959   5.758   0.014  0.1368 -0.3152  0.0709
 4784TIP3    H114358   1.884   5.804  -0.025  0.0690 -0.6422 -0.1790
 4784TIP3    H214359   2.002   5.825   0.067  0.6732  0.3431 -1.1608
 4785TIP3   OH214360   4.901   3.580   4.575 -0.1270  0.4338  0.3881
 4785TIP3    H114361   4.995   3.597   4.562 -0.0548  0.0100  0.3383
 4785TIP3    H214362   4.878   3.629   4.654 -0.4941  2.8397 -1.0895
 4786TIP3   OH214363   6.356   4.566   3.750 -0.0754 -0.5117 -0.5641
 4786TIP3    H114364   6.347   4.655   3.717 -1.7459 -1.1281 -1.9163
 4786TIP3    H214365   6.329   4.572   3.842  0.3470  0.4504 -0.4881
 4787TIP3   OH214366   4.190   1.135   3.856 -0.2730  0.3563 -0.0854
 4787TIP3    H114367   4.146   1.090   3.929  0.0561 -0.4769 -0.3859
 4787TIP3    H214368   4.262   1.183   3.898 -2.2806  3.0007  0.6309
 4788TIP3   OH214369   4.186   3.839   1.795 -0.2310  0.0374  0.1801
 4788TIP3    H114370   4.162   3.814   1.885 -0.6412 -0.1478  0.0216
 4788TIP3    H214371   4.133   3.917   1.777 -1.3319 -0.8242 -0.4479
 4789TIP3   OH214372   5.263   4.009   0.262 -0.3110 -0.3942  0.4531
 4789TIP3    H114373   5.245   4.087   0.315  0.5460  0.9816 -1.1769
 4789TIP3    H214374   5.183   3.996   0.211  0.7210  1.6369 -1.8580
 4790TIP3   OH214375   2.393   2.454   4.444  0.6920  0.2695  0.4776
 4790TIP3    H114376   2.301   2.478   4.455  0.1005 -1.8730  0.7259
 4790TIP3    H214377   2.407   2.457   4.349 -0.3207 -1.4542  0.2105
 4791TIP3   OH214378   2.195   5.939   3.923  0.7022  0.8409 -0.6419
 4791TIP3    H114379   2.259   5.999   3.886  0.3584  0.4721 -1.8782
 4791TIP3    H214380   2.244   5.887   3.986  1.1534  1.9253 -0.0776
 4792TIP3   OH214381   1.303   0.517   3.827 -0.0695  0.1060  0.5596
 4792TIP3    H114382   1.241   0.483   3.891 -1.0271  1.4612  0.4159
 4792TIP3    H214383   1.304   0.612   3.844  0.1370  0.4043 -0.9909
 4793TIP3   OH214384   0.729   4.968   0.421  0.8129  0.6364  0.1798
 4793TIP3    H114385   0.783   5.033   0.465 -0.0481  0.4227  1.6240
 4793TIP3    H214386   0.792   4.910   0.377  1.7185  0.8739  1.1241
 4794TIP3   OH214387   0.276   4.245   2.103 -0.3933  0.4227 -0.2069
 4794TIP3    H114388   0.234   4.198   2.174 -2.1605 -1.3440 -2.2763
 4794TIP3    H214389   0.204   4.281   2.052  0.6891  0.1270 -2.0550
 4795TIP3   OH214390   1.647   2.681   1.032  0.0170 -0.3838 -0.2265
 4795TIP3    H114391   1.632   2.683   0.938 -3.4569  1.0854  0.2087
 4795TIP3    H214392   1.661   2.773   1.056 -1.0767 -0.4834  0.8885
 4796TIP3   OH214393   4.286   1.538   1.817 -0.5364 -0.1300  0.7620
 4796TIP3    H114394   4.288   1.630   1.790  0.7791 -0.3935 -0.1141
 4796TIP3    H214395   4.361   1.498   1.773 -0.0677 -1.2562  2.4929
 4797TIP3   OH214396   1.948   2.546   5.083  0.3316 -0.1048  0.0789
 4797TIP3    H114397   1.905   2.486   5.022  0.6815  1.4027 -1.7484
 4797TIP3    H214398   2.039   2.517   5.085  0.4003  0.0664 -0.4280
 4798TIP3   OH214399   0.170   1.124   2.748 -0.8536  0.4167  0.0873
 4798TIP3    H114400   0.115   1.201   2.759 -0.2023  1.1943 -1.7619
 4798TIP3    H214401   0.176   1.112   2.653  0.8852 -0.5888  0.2891
 4799TIP3   OH214402   2.776   1.237   4.717 -0.8373 -0.4592 -0.3691
 4799TIP3    H114403   2.854   1.185   4.698 -0.1599  0.1948  0.5281
 4799TIP3    H214404   2.764   1.291   4.638  2.4518  2.8700  1.0747
 4800TIP3   OH214405   5.034   0.967   4.668 -0.1481  0.0700 -0.2009
 4800TIP3    H114406   5.128   0.983   4.658  0.2866 -0.6942  2.0809
 4800TIP3    H214407   5.001   0.961   4.578  1.6834  1.8556 -1.0705
 4801TIP3   OH214408   1.942   2.341   4.453  0.2419 -0.8099 -0.2524
 4801TIP3    H114409   1.988   2.287   4.517  0.6248 -1.3813 -0.9922
 4801TIP3    H214410   1.849   2.326   4.469  0.2477  0.7225  1.5823
 4802TIP3   OH214411   3.153   5.901   1.278 -0.6319  1.0829 -0.0863
 4802TIP3    H114412   3.067   5.870   1.250  0.1784  0.3195 -1.9379
 4802TIP3    H214413   3.191   5.826   1.325 -0.7123  1.1788  0.1328
 4803TIP3   OH214414   5.731   3.115   2.375 -0.7120 -0.2056 -0.6439
 4803TIP3    H114415   5.766   3.197   2.340 -1.0797 -0.6747 -2.1920
 4803TIP3    H214416   5.658   3.143   2.430 -1.8234  0.4982 -2.3599
 4804TIP3   OH214417   1.771   1.320   1.116  0.1773 -1.2538 -0.1190
 4804TIP3    H114418   1.783   1.353   1.027  1.2702  0.8627  0.7283
 4804TIP3    H214419   1.678   1.331   1.134  0.2877  0.2812 -0.3355
 4805TIP3   OH214420   1.274   0.250   0.913  0.3063  0.0605  0.1198
 4805TIP3    H114421   1.191   0.223   0.872  1.0484 -1.4460 -0.4805
 4805TIP3    H214422   1.337   0.252   0.841  0.8244  1.1094  0.5860
 4806TIP3   OH214423   4.949   3.326   0.276  0.0715  0.2358 -0.3095
 4806TIP3    H114424   4.924   3.368   0.194  1.8517 -1.6245 -1.9527
 4806TIP3    H214425   5.030   3.370   0.302  0.2008 -0.0110 -0.2838
 4807TIP3   OH214426   1.750   2.925   1.035  0.0943 -0.1511  0.0758
 4807TIP3    H114427   1.840   2.931   1.069  0.3995  1.0778 -0.8781
 4807TIP3    H214428   1.703   2.995   1.080 -0.0721  0.0184 -0.3615
 4808TIP3   OH214429   4.900   3.244   4.169  0.3602 -0.7894  0.3110
 4808TIP3    H114430   4.923   3.273   4.081  1.4297  0.5871  1.0108
 4808TIP3    H214431   4.911   3.322   4.223 -0.6422 -1.5165  1.6190
 4809TIP3   OH214432   5.314   5.399   0.491  0.3542 -0.1622 -0.2844
 4809TIP3    H114433   5.250   5.453   0.536 -0.7224 -0.5535 -1.3073
 4809TIP3    H214434   5.339   5.451   0.414 -0.6309 -1.0578 -1.2316
 4810TIP3   OH214435   2.321   5.423   3.358 -0.4384  0.1424 -0.1183
 4810TIP3    H114436   2.287   5.396   3.273 -0.4754 -1.3582  0.3427
 4810TIP3    H214437   2.284   5.510   3.373 -0.5334  0.3668 -1.5607
 4811TIP3   OH214438   1.583   1.385   3.189 -0.1034 -0.0927 -0.2401
 4811TIP3    H114439   1.569   1.344   3.104 -0.1707 -1.3879  0.3785
 4811TIP3    H214440   1.670   1.355   3.216 -1.2409 -2.1412  1.4426
 4812TIP3   OH214441   4.932   2.269   4.103 -0.0224  0.1077  0.6093
 4812TIP3    H114442   4.958   2.218   4.180 -2.3745 -0.8261  0.8745
 4812TIP3    H214443   4.952   2.360   4.126 -0.4183 -0.1898  2.2220
 4813TIP3   OH214444   4.595   5.716   1.666 -0.5795 -0.0609  0.5478
 4813TIP3    H114445   4.523   5.779   1.663 -2.5782 -2.1744  0.2980
 4813TIP3    H214446   4.606   5.689   1.574  1.5899  1.2451  0.3591
 4814TIP3   OH214447   1.761   1.110   1.422 -0.1672 -0.1899  0.3966
 4814TIP3    H114448   1.675   1.151   1.433 -0.1409 -0.1968  0.6188
 4814TIP3    H214449   1.761   1.036   1.483  0.0606 -0.0896  0.5204
 4815TIP3   OH214450   0.376   1.626   4.589 -0.1069  0.6717 -0.2721
 4815TIP3    H114451   0.463   1.652   4.620 -0.3786 -0.2669  1.3865
 4815TIP3    H214452   0.345   1.564   4.655 -1.8887  0.7147 -1.0303
 4816TIP3   OH214453   2.356   5.968   1.522 -0.0564 -0.7184 -0.4217
 4816TIP3    H114454   2.374   5.898   1.585 -0.2309  2.0517  3.0135
 4816TIP3    H214455   2.436   6.021   1.522 -0.5497  0.0605 -1.5914
 4817TIP3   OH214456   0.632   4.664   4.269  0.2199 -0.3504 -0.4800
 4817TIP3    H114457   0.673   4.612   4.338 -0.9445 -0.3013  0.2657
 4817TIP3    H214458   0.636   4.754   4.301 -0.6212 -0.3671 -0.3178
 4818TIP3   OH214459   5.487   0.673   2.240 -0.5978  0.2377  0.0009
 4818TIP3    H114460   5.547   0.690   2.313  0.9186  0.4475 -1.2407
 4818TIP3    H214461   5.430   0.603   2.271  1.8218 -1.6531  0.4219
 4819TIP3   OH214462   5.256   4.160   3.163  0.3988  0.1321 -0.4839
 4819TIP3    H114463   5.251   4.170   3.258 -1.5301 -1.3540 -0.3609
 4819TIP3    H214464   5.255   4.250   3.129  0.5047  0.6693  0.8694
 4820TIP3   OH214465   2.787   4.656   0.018 -0.2376  0.2533 -0.6513
 4820TIP3    H114466   2.761   4.744   0.044 -1.1090  1.0601 -3.8523
 4820TIP3    H214467   2.704   4.608   0.009  0.0920 -0.3005 -0.8205
 4821TIP3   OH214468   1.507   0.434   4.459 -0.1439 -0.3340  0.5597
 4821TIP3    H114469   1.600   0.453   4.466 -0.0697 -0.6319  0.4170
 4821TIP3    H214470   1.477   0.487   4.386 -0.4995  1.2462  1.8058
 4822TIP3   OH214471   3.932   3.068   1.172 -0.4175  0.4296  0.2980
 4822TIP3    H114472   3.928   3.029   1.259  0.5807  3.1269  1.6733
 4822TIP3    H214473   3.870   3.141   1.176 -0.1935  0.7254 -1.1814
 4823TIP3   OH214474   3.586   4.116   1.297  0.0166  0.0860 -0.5875
 4823TIP3    H114475   3.600   4.165   1.216 -0.4792  1.8564  0.3445
 4823TIP3    H214476   3.537   4.176   1.354  0.9940 -0.8062  1.3072
 4824TIP3   OH214477   6.232   2.639   1.703  0.0812  0.3388  0.3938
 4824TIP3    H114478   6.202   2.710   1.760  0.2364  0.8447 -0.1320
 4824TIP3    H214479   6.327   2.650   1.699 -0.1162  2.2533 -2.3313
 4825TIP3   OH214480   1.648   0.403   0.898 -0.1742  0.0334 -0.9369
 4825TIP3    H114481   1.720   0.401   0.961 -1.2376  1.9896  0.4669
 4825TIP3    H214482   1.581   0.348   0.938 -1.1804  1.9546  0.1955
 4826TIP3   OH214483   2.575   4.208   4.095 -0.1068 -0.8072  0.3178
 4826TIP3    H114484   2.521   4.265   4.041 -1.3796 -1.7102  0.5870
 4826TIP3    H214485   2.665   4.236   4.077 -0.6332  0.5844 -0.3167
 4827TIP3   OH214486   3.373   0.698   0.168 -0.6479  0.1966 -0.2700
 4827TIP3    H114487   3.372   0.787   0.134 -2.6814 -0.0303 -0.9702
 4827TIP3    H214488   3.312   0.701   0.243 -1.2266 -0.7171 -0.6848
 4828TIP3   OH214489   4.035   4.515   3.595  0.4080 -0.4910 -0.0629
 4828TIP3    H114490   4.130   4.528   3.597  0.9005 -3.3734 -0.5525
 4828TIP3    H214491   4.014   4.475   3.679 -0.6110  1.0093  0.4534
 4829TIP3   OH214492   2.772   3.545   4.350  0.0780 -0.3240  0.4320
 4829TIP3    H114493   2.745   3.626   4.307  0.7065 -0.1291  0.4017
 4829TIP3    H214494   2.855   3.522   4.309  0.3689 -0.4811  1.0884
 4830TIP3   OH214495   1.473   2.713   4.980 -0.4316  0.4010  0.4524
 4830TIP3    H114496   1.493   2.657   4.905  0.5317  0.8137  0.3948
 4830TIP3    H214497   1.412   2.661   5.032 -1.0162  0.0514 -0.5418
 4831TIP3   OH214498   2.503   4.187   1.954  0.6721  0.1753  0.4142
 4831TIP3    H114499   2.418   4.191   1.997 -2.0113 -2.4659 -3.9129
 4831TIP3    H214500   2.552   4.121   2.004 -1.1761 -0.7617  1.0664
 4832TIP3   OH214501   5.594   2.624   4.830 -0.1622  0.2477  0.0905
 4832TIP3    H114502   5.611   2.542   4.876 -0.4326  0.1794  0.0665
 4832TIP3    H214503   5.520   2.663   4.876  0.3266  0.7549  0.4592
 4833TIP3   OH214504   1.185   0.417   1.324  0.1253  0.4012 -0.0441
 4833TIP3    H114505   1.225   0.450   1.244 -1.4745  0.6975 -0.7615
 4833TIP3    H214506   1.113   0.477   1.341 -1.3986 -1.3309 -0.0720
 4834TIP3   OH214507   2.659   2.227   1.715  0.4830  0.3268  0.1881
 4834TIP3    H114508   2.685   2.271   1.634 -1.4639 -2.4835 -2.2077
 4834TIP3    H214509   2.577   2.268   1.740  0.9254  0.9810  0.6078
 4835TIP3   OH214510   4.619   4.610   5.123  0.1575  0.0581 -0.6473
 4835TIP3    H114511   4.711   4.625   5.104  0.3125 -0.7404 -0.5750
 4835TIP3    H214512   4.596   4.533   5.070 -0.2023 -0.3309  0.0555
 4836TIP3   OH214513   1.799   3.057   0.657  0.0651 -0.3703  0.2419
 4836TIP3    H114514   1.741   3.117   0.611  2.0885  0.2883 -1.6465
 4836TIP3    H214515   1.886   3.097   0.648  1.2209 -2.6724  0.5185
 4837TIP3   OH214516   4.631   2.574   3.335 -0.5522 -0.1623  0.0897
 4837TIP3    H114517   4.691   2.607   3.402 -0.2341 -0.4730 -0.0364
 4837TIP3    H214518   4.555   2.632   3.340 -0.1004  0.4448  0.0276
 4838TIP3   OH214519   5.955   1.504   0.728 -0.0141 -0.7009  0.1802
 4838TIP3    H114520   5.918   1.437   0.785 -2.6673 -1.8846 -2.6654
 4838TIP3    H214521   5.883   1.564   0.710  0.8522 -0.0643 -1.4101
 4839TIP3   OH214522   1.610   4.335   1.145 -0.0220  0.0253 -0.0371
 4839TIP3    H114523   1.694   4.346   1.190  0.0370 -1.5861  0.3051
 4839TIP3    H214524   1.634   4.303   1.058 -0.2226  1.2978 -0.5759
 4840TIP3   OH214525   6.154   5.357   1.890  0.0690  0.5140  0.1492
 4840TIP3    H114526   6.178   5.390   1.976 -0.1505 -0.9130  0.7846
 4840TIP3    H214527   6.066   5.320   1.902  0.0632  0.2444 -0.6665
 4841TIP3   OH214528   5.725   2.069   3.947  0.1814 -0.8500 -0.4947
 4841TIP3    H114529   5.783   2.123   4.001  1.0454 -1.4886 -0.7578
 4841TIP3    H214530   5.767   1.983   3.946  0.6580 -0.6395 -2.8747
 4842TIP3   OH214531   1.234   5.934   4.952 -0.1496  0.4349  0.3079
 4842TIP3    H114532   1.252   5.875   4.879 -0.6922  1.5033 -0.7320
 4842TIP3    H214533   1.138   5.933   4.960 -0.2413  1.7897 -0.3011
 4843TIP3   OH214534   1.952   1.385   0.572  0.1553  0.2574 -0.4389
 4843TIP3    H114535   1.869   1.426   0.546  0.0933  0.0672 -0.5411
 4843TIP3    H214536   2.014   1.458   0.575 -0.3075  0.6273  0.9259
 4844TIP3   OH214537   0.057   1.903   4.573 -0.2662 -0.6955  0.0248
 4844TIP3    H114538   0.004   1.885   4.495  0.0916 -0.7861 -0.1978
 4844TIP3    H214539   0.059   1.998   4.579  1.0621 -0.6352 -1.0207
 4845TIP3   OH214540   0.280   2.984   1.091  0.0658  0.2073  0.4181
 4845TIP3    H114541   0.262   2.945   1.176  0.3371  1.5826  1.1274
 4845TIP3    H214542   0.370   3.014   1.097 -0.1976  1.1062 -0.0397
 4846TIP3   OH214543   0.983   2.378   5.002 -0.1979 -0.7016  0.2333
 4846TIP3    H114544   0.900   2.357   4.959  0.6964 -1.5207 -1.1784
 4846TIP3    H214545   1.000   2.302   5.058  0.1845 -1.1137 -0.4255
 4847TIP3   OH214546   5.821   3.373   0.747 -0.1066  0.2227 -0.0591
 4847TIP3    H114547   5.747   3.380   0.807 -0.2198  0.4751 -0.2258
 4847TIP3    H214548   5.781   3.363   0.660  0.0556 -0.0931 -0.1028
 4848TIP3   OH214549   5.561   2.585   0.353  0.5654 -0.3736 -0.4322
 4848TIP3    H114550   5.578   2.664   0.303  2.5387  0.1132  0.8617
 4848TIP3    H214551   5.504   2.613   0.425  0.9922 -0.1710 -0.1651
 4849TIP3   OH214552   4.510   0.858   1.965  0.2446  0.0355 -0.0448
 4849TIP3    H114553   4.606   0.861   1.968  0.2218 -0.0591  1.1749
 4849TIP3    H214554   4.482   0.915   2.036 -0.5668 -1.3317  0.7958
 4850TIP3   OH214555   4.098   0.210   4.042 -0.3641  0.8522 -0.8761
 4850TIP3    H114556   4.157   0.267   4.091 -0.7854  0.4295  0.1471
 4850TIP3    H214557   4.021   0.264   4.026 -0.1745  1.0321 -1.2043
 4851TIP3   OH214558   2.771   3.284   1.202 -0.3361  0.4852  0.6038
 4851TIP3    H114559   2.826   3.358   1.177 -0.3419  0.7796  1.4229
 4851TIP3    H214560   2.826   3.207   1.186  0.2625  0.7682  1.2490
 4852TIP3   OH214561   3.815   1.899   3.547 -0.0627  0.1450 -0.2970
 4852TIP3    H114562   3.802   1.858   3.633  0.1516 -1.8754 -1.1712
 4852TIP3    H214563   3.907   1.926   3.548  0.1336 -0.5005 -0.1292
 4853TIP3   OH214564   5.358   5.190   2.548  0.0495  0.4912 -0.0783
 4853TIP3    H114565   5.407   5.229   2.476  0.7235 -2.3048 -1.2883
 4853TIP3    H214566   5.290   5.138   2.504  0.7041 -1.5834  1.2427
 4854TIP3   OH214567   0.862   0.124   1.156  0.1526  0.1601 -0.5781
 4854TIP3    H114568   0.916   0.050   1.130  1.0552 -0.2350  2.1157
 4854TIP3    H214569   0.873   0.130   1.251 -2.7086  1.5447 -0.2191
 4855TIP3   OH214570   2.604   1.216   3.888 -0.2965 -0.6039 -0.2190
 4855TIP3    H114571   2.655   1.250   3.814  0.2721 -0.2077  0.3401
 4855TIP3    H214572   2.571   1.294   3.932 -0.0702 -0.8091  0.3249
 4856TIP3   OH214573   4.907   2.569   0.549 -0.0112  0.1429  0.3275
 4856TIP3    H114574   4.841   2.502   0.532  0.0532  0.2202 -0.2336
 4856TIP3    H214575   4.905   2.626   0.472  0.0091  0.7309  0.7545
 4857TIP3   OH214576   5.891   1.757   4.209  0.0082 -0.2531  0.0004
 4857TIP3    H114577   5.841   1.802   4.276 -0.8911  0.0707 -0.8669
 4857TIP3    H214578   5.845   1.674   4.197 -0.6137  0.2328 -1.1159
 4858TIP3   OH214579   0.838   2.631   0.910  0.1070 -0.1279 -0.1855
 4858TIP3    H114580   0.881   2.634   0.825 -2.4710  0.9565 -1.5769
 4858TIP3    H214581   0.769   2.565   0.901  0.6157 -0.9569  1.5383
 4859TIP3   OH214582   3.499   3.573   5.023 -0.0837  0.1143  0.1280
 4859TIP3    H114583   3.516   3.524   5.104 -1.1019 -0.8652 -0.2207
 4859TIP3    H214584   3.533   3.660   5.040  0.3558 -0.2769  1.3628
 4860TIP3   OH214585   6.104   1.954   1.486  0.1741  0.1537 -0.3669
 4860TIP3    H114586   6.047   1.881   1.509  1.8723 -0.9771  0.4273
 4860TIP3    H214587   6.159   1.966   1.564 -1.6506  3.9356  0.5866
 4861TIP3   OH214588   3.911   2.178   1.631  0.0183  0.9146  0.0005
 4861TIP3    H114589   3.904   2.273   1.620 -2.2606  0.7752 -0.2437
 4861TIP3    H214590   3.844   2.156   1.696 -0.4222 -0.6791 -0.9396
 4862TIP3   OH214591   0.350   4.657   1.740 -0.2220 -0.2354  0.4315
 4862TIP3    H114592   0.373   4.746   1.713 -0.7277  0.2005  1.3873
 4862TIP3    H214593   0.300   4.668   1.821  1.1792 -1.4651  1.5250
 4863TIP3   OH214594   2.785   5.491   0.854 -0.5695  0.0374 -0.2325
 4863TIP3    H114595   2.758   5.562   0.913 -0.0445 -1.6313  2.1568
 4863TIP3    H214596   2.856   5.529   0.802 -1.5348  1.7940 -0.3492
 4864TIP3   OH214597   6.332   2.462   2.385  0.1668 -0.0296 -0.2802
 4864TIP3    H114598   6.332   2.509   2.468  1.2746 -1.2554  0.4445
 4864TIP3    H214599   6.356   2.528   2.320  1.0311  0.5676  0.6230
 4865TIP3   OH214600   4.937   1.238   3.504 -0.4650 -0.7927  0.6104
 4865TIP3    H114601   4.970   1.182   3.434  0.3394 -1.5521  1.5685
 4865TIP3    H214602   4.921   1.179   3.578  0.3216  0.2014  1.6260
 4866TIP3   OH214603   1.491   0.237   0.714  0.1755  0.0175 -0.2969
 4866TIP3    H114604   1.547   0.239   0.636  1.7570  1.5740  0.8135
 4866TIP3    H214605   1.551   0.219   0.786 -1.2571 -1.3424  0.6151
 4867TIP3   OH214606   6.240   1.397   1.415  0.2644  0.2840 -0.0189
 4867TIP3    H114607   6.214   1.316   1.457  0.9553  0.7818  1.4359
 4867TIP3    H214608   6.335   1.391   1.408  0.2117  0.4400 -1.0697
 4868TIP3   OH214609   3.668   2.428   3.914  0.4465  0.2275 -0.5121
 4868TIP3    H114610   3.589   2.403   3.866 -0.3808  0.1507  0.8130
 4868TIP3    H214611   3.636   2.450   4.002  1.7104  1.7000 -0.3726
 4869TIP3   OH214612   5.806   0.091   2.853  0.3944 -0.0644 -0.1889
 4869TIP3    H114613   5.767   0.017   2.901 -2.6250  0.0196 -2.2315
 4869TIP3    H214614   5.892   0.060   2.825 -1.1961 -3.3524 -1.9613
 4870TIP3   OH214615   0.445   1.052   2.521 -0.1519  0.4227 -0.4201
 4870TIP3    H114616   0.377   1.032   2.457 -0.8962  1.0326  0.1560
 4870TIP3    H214617   0.447   1.148   2.524 -0.0517  0.4006  0.3840
 4871TIP3   OH214618   4.637   1.589   2.815 -0.8338 -0.4415  0.1755
 4871TIP3    H114619   4.569   1.552   2.871 -1.0282  0.0948  0.2982
 4871TIP3    H214620   4.609   1.568   2.726 -1.9759  1.0916  0.1343
 4872TIP3   OH214621   3.302   1.686   1.596 -0.1192  1.0303 -0.5316
 4872TIP3    H114622   3.380   1.681   1.651  0.1613  0.2059 -0.9944
 4872TIP3    H214623   3.332   1.664   1.508 -1.1651 -1.1086 -0.4216
 4873TIP3   OH214624   0.829   4.971   3.128 -0.0493  0.1917  0.8971
 4873TIP3    H114625   0.913   5.013   3.146  0.0396  0.2275  0.4150
 4873TIP3    H214626   0.843   4.924   3.046  0.1379 -1.5573  1.8615
 4874TIP3   OH214627   1.343   4.960   0.679  0.0356 -0.1917 -0.2698
 4874TIP3    H114628   1.403   4.945   0.752  1.3564  0.4956 -1.1669
 4874TIP3    H214629   1.378   5.036   0.634 -0.8641 -0.4707 -1.5078
 4875TIP3   OH214630   2.741   4.632   1.273 -0.2737 -0.5157 -0.4295
 4875TIP3    H114631   2.802   4.593   1.210 -0.5516 -1.7781  0.0554
 4875TIP3    H214632   2.790   4.633   1.356 -0.2106  0.3463 -0.4706
 4876TIP3   OH214633   0.024   1.364   2.762  0.5180 -0.3423 -0.3654
 4876TIP3    H114634  -0.043   1.389   2.698  1.1018 -0.0487 -0.8699
 4876TIP3    H214635   0.057   1.447   2.796 -0.2306 -0.5041  0.7962
 4877TIP3   OH214636   4.977   3.983   0.697 -0.9524 -0.4556  0.0639
 4877TIP3    H114637   4.891   3.946   0.717 -1.2880  0.4551  0.3419
 4877TIP3    H214638   5.039   3.925   0.742 -1.3636 -1.4389 -0.5855
 4878TIP3   OH214639   0.194   5.624   5.169  0.1749 -0.0609 -0.3774
 4878TIP3    H114640   0.105   5.659   5.163  0.2725  0.5134  1.0860
 4878TIP3    H214641   0.250   5.698   5.149  0.3344 -0.2665 -0.6920
 4879TIP3   OH214642   5.815   2.111   0.427  0.1482 -0.1439  0.3995
 4879TIP3    H114643   5.737   2.167   0.422 -0.2913 -0.4520  2.7327
 4879TIP3    H214644   5.888   2.171   0.439 -0.2777  0.0175  2.5044
 4880TIP3   OH214645   5.047   2.136   2.620  0.0496  0.2343 -0.2467
 4880TIP3    H114646   4.995   2.195   2.566  0.9728  1.2271 -0.0747
 4880TIP3    H214647   5.071   2.188   2.697 -1.4764 -1.2302  1.3272
 4881TIP3   OH214648   0.683   4.482   4.989  0.4210  0.2290 -0.3276
 4881TIP3    H114649   0.676   4.507   4.896 -0.2829  0.1224 -0.3097
 4881TIP3    H214650   0.593   4.491   5.022  0.2109 -1.8727 -0.2093
 4882TIP3   OH214651   5.640   5.600   1.328  0.0918  0.3622  0.7483
 4882TIP3    H114652   5.680   5.684   1.353  0.3212 -0.1387  2.1933
 4882TIP3    H214653   5.714   5.542   1.311  0.0863 -0.5043  3.2124
 4883TIP3   OH214654   4.609   3.957   1.520  0.1628 -0.0346 -0.3478
 4883TIP3    H114655   4.520   3.967   1.485 -0.1759  1.6518  0.8773
 4883TIP3    H214656   4.597   3.910   1.603  0.0834  2.0793  0.9159
 4884TIP3   OH214657   1.528   4.902   1.058 -0.0110  0.1425 -0.3521
 4884TIP3    H114658   1.581   4.890   0.980  2.2626 -0.0927  1.1362
 4884TIP3    H214659   1.536   4.820   1.106 -1.7573  0.1050 -0.0591
 4885TIP3   OH214660   4.998  -0.029   2.465 -0.9335 -0.4710 -0.2439
 4885TIP3    H114661   4.902  -0.030   2.471 -1.0791 -0.0931 -2.0317
 4885TIP3    H214662   5.022   0.063   2.461 -0.5723 -0.5734 -0.6096
 4886TIP3   OH214663   1.770   2.052   2.810 -0.0192  0.0006  0.5486
 4886TIP3    H114664   1.781   2.136   2.764 -1.1814  0.1390  0.5032
 4886TIP3    H214665   1.771   1.986   2.741  1.9000 -0.1479  0.6633
 4887TIP3   OH214666   3.726   2.073   2.392 -0.0448 -0.2210  0.2048
 4887TIP3    H114667   3.701   2.157   2.432  0.0135  0.1238 -0.4724
 4887TIP3    H214668   3.664   2.010   2.428 -1.7771  0.5677 -1.2728
 4888TIP3   OH214669   2.041   2.038   3.566  0.3756  0.5932 -0.0092
 4888TIP3    H114670   1.949   2.061   3.557  0.5318  1.1623 -0.1812
 4888TIP3    H214671   2.040   1.949   3.601 -0.2395  0.4267 -0.4224
 4889TIP3   OH214672   5.360   3.223   4.116 -0.5196 -0.2339 -0.1586
 4889TIP3    H114673   5.391   3.135   4.094  0.2209  0.2018 -0.8753
 4889TIP3    H214674   5.409   3.246   4.195 -0.7524 -0.4835  0.0597
 4890TIP3   OH214675   2.428   3.856   4.711 -0.3461 -0.1485 -0.3237
 4890TIP3    H114676   2.361   3.849   4.643  0.2051  1.6629 -1.1296
 4890TIP3    H214677   2.432   3.950   4.731  0.2741 -0.5165  1.4456
 4891TIP3   OH214678   4.403   1.527   0.010  0.5335 -0.3158  0.0715
 4891TIP3    H114679   4.356   1.610   0.014 -0.3992 -0.7253 -1.4623
 4891TIP3    H214680   4.404   1.495   0.100 -0.7741  0.4461  0.3830
 4892TIP3   OH214681   4.891   5.748   1.074 -0.4473  0.2842 -0.3057
 4892TIP3    H114682   4.876   5.841   1.058  0.0899  0.8302  2.0792
 4892TIP3    H214683   4.968   5.727   1.021  0.9497  1.8470  1.0101
 4893TIP3   OH214684   2.153   2.960   1.509 -0.4095  0.1452 -0.0567
 4893TIP3    H114685   2.072   2.910   1.501  0.7638 -2.1305  1.4916
 4893TIP3    H214686   2.214   2.916   1.450  0.8642 -0.8554  1.9002
 4894TIP3   OH214687   6.294   3.422   1.100 -0.1960 -0.3572  0.5482
 4894TIP3    H114688   6.225   3.437   1.035 -0.1658  1.5038  0.8723
 4894TIP3    H214689   6.338   3.343   1.070  2.3347  2.3119 -4.0648
 4895TIP3   OH214690   4.637   4.347   2.938  0.7290  0.1327 -0.1895
 4895TIP3    H114691   4.621   4.321   2.847  0.8234 -0.1821 -0.1142
 4895TIP3    H214692   4.590   4.431   2.946 -0.4816 -0.5230 -0.1248
 4896TIP3   OH214693   1.832   1.616   3.972 -0.2692 -0.2691  0.3389
 4896TIP3    H114694   1.838   1.675   4.047  1.0336 -0.0233  0.0771
 4896TIP3    H214695   1.767   1.656   3.915 -1.8213 -0.8410  1.6340
 4897TIP3   OH214696   2.924   2.172   1.551  0.5497 -0.1970  0.0037
 4897TIP3    H114697   3.011   2.211   1.561 -0.1118  1.8507 -1.5443
 4897TIP3    H214698   2.886   2.175   1.639  0.7362  2.2714  0.0533
 4898TIP3   OH214699   1.076   5.868   0.358  0.0248  0.0933  0.3754
 4898TIP3    H114700   1.163   5.904   0.339 -0.9776  2.2222 -0.4975
 4898TIP3    H214701   1.035   5.856   0.273 -0.8947  0.1157  0.7996
 4899TIP3   OH214702   3.395   5.665   1.570 -0.1696  0.1014  0.0675
 4899TIP3    H114703   3.428   5.749   1.601 -0.1618 -0.3932  1.5020
 4899TIP3    H214704   3.464   5.603   1.592 -0.6791 -0.4541  0.1377
 4900TIP3   OH214705   4.255   0.398   4.164 -0.1483 -0.2581 -0.1105
 4900TIP3    H114706   4.185   0.433   4.220 -0.3218 -2.2025  0.9970
 4900TIP3    H214707   4.333   0.402   4.219  0.0415 -0.5555 -0.3520
 4901TIP3   OH214708   1.153   4.744   0.948 -0.1156  0.0170 -0.4289
 4901TIP3    H114709   1.116   4.665   0.986  1.6715 -0.4108  0.4830
 4901TIP3    H214710   1.166   4.722   0.855 -0.9240 -0.2489 -0.4895
 4902TIP3   OH214711   2.208   3.640   1.811 -0.0951 -0.0434 -0.0798
 4902TIP3    H114712   2.152   3.659   1.886 -0.1396  2.9560 -0.7404
 4902TIP3    H214713   2.206   3.721   1.758  2.4695 -0.8809 -1.6498
 4903TIP3   OH214714   2.265   4.221   4.988  0.5149 -0.1708  0.2526
 4903TIP3    H114715   2.337   4.210   5.050  0.6085 -0.2495  0.1309
 4903TIP3    H214716   2.245   4.132   4.958 -0.1658 -0.2436  0.8779
 4904TIP3   OH214717   2.344   2.323   1.025 -0.2710  0.4903  0.1433
 4904TIP3    H114718   2.271   2.307   0.965  0.1513  1.9480 -0.8098
 4904TIP3    H214719   2.391   2.239   1.029 -1.1476 -0.0380 -0.3991
 4905TIP3   OH214720   4.477   1.224   3.354  0.4336  0.9043 -0.1671
 4905TIP3    H114721   4.558   1.174   3.343  0.0611 -0.1263  1.4611
 4905TIP3    H214722   4.501   1.314   3.333  2.3814  0.8627  1.6084
 4906TIP3   OH214723   3.772   3.853   0.562 -0.3650  0.4443 -0.1562
 4906TIP3    H114724   3.761   3.880   0.471 -0.8591 -0.3498 -0.3433
 4906TIP3    H214725   3.795   3.760   0.557 -2.8154 -0.2659  0.5939
 4907TIP3   OH214726   1.596   3.841   3.559  0.3923 -0.9653 -0.0340
 4907TIP3    H114727   1.537   3.904   3.518  1.2424  1.1403  1.7702
 4907TIP3    H214728   1.563   3.756   3.532 -2.1877  0.1845 -0.7621
 4908TIP3   OH214729   4.344   4.198   0.049  0.1730  0.3192  0.3477
 4908TIP3    H114730   4.414   4.138   0.075  0.8944  1.2922  0.7196
 4908TIP3    H214731   4.333   4.184  -0.045  0.0594 -0.6514  0.4946
 4909TIP3   OH214732   1.556   5.892   2.086  0.1346  0.1737 -0.3287
 4909TIP3    H114733   1.599   5.938   2.159  0.1040 -2.0048  1.1479
 4909TIP3    H214734   1.626   5.874   2.024  0.5899  0.2170  0.1591
 4910TIP3   OH214735   0.218   3.860   2.438  0.2037 -0.4288  0.2615
 4910TIP3    H114736   0.165   3.814   2.504 -1.1819 -1.7716 -1.6794
 4910TIP3    H214737   0.237   3.793   2.372  1.6275  0.8438 -0.6829
 4911TIP3   OH214738   0.577   4.773   2.960  0.2838 -0.0641  0.2663
 4911TIP3    H114739   0.527   4.845   2.998  1.1167  1.0419 -0.6985
 4911TIP3    H214740   0.667   4.787   2.988  0.8346  0.5074 -1.6502
 4912TIP3   OH214741   6.192   2.802   1.041 -0.0891 -0.3870  0.6075
 4912TIP3    H114742   6.192   2.887   1.087  0.1284 -0.1815  0.2315
 4912TIP3    H214743   6.124   2.810   0.975  0.7220 -0.0647 -0.2182
 4913TIP3   OH214744   4.007   5.208   0.156 -0.0809  0.3367  0.0236
 4913TIP3    H114745   3.970   5.294   0.140  1.2590  0.9621  0.1891
 4913TIP3    H214746   3.937   5.159   0.199 -0.2269  1.9661  1.7388
 4914TIP3   OH214747   3.760   4.483   2.442  0.2953 -0.3634  0.1686
 4914TIP3    H114748   3.683   4.497   2.388 -0.9140 -1.9532  1.3884
 4914TIP3    H214749   3.726   4.455   2.527  2.1361  1.2839  1.5637
 4915TIP3   OH214750   2.006   1.394   1.971 -0.3334  0.2885 -0.0863
 4915TIP3    H114751   2.055   1.337   2.030 -1.7850 -2.0125 -0.9545
 4915TIP3    H214752   2.073   1.448   1.929  1.0736 -0.3875  1.1784
 4916TIP3   OH214753   1.454   3.556   2.955 -0.2516 -0.2131  0.2840
 4916TIP3    H114754   1.522   3.623   2.963  0.8992 -1.2066 -0.6231
 4916TIP3    H214755   1.418   3.569   2.867 -2.0109  0.9507  1.1159
 4917TIP3   OH214756   4.466   5.084   4.039 -0.0183  0.4211  0.4712
 4917TIP3    H114757   4.383   5.044   4.065  0.3719 -0.5443  0.2688
 4917TIP3    H214758   4.512   5.100   4.122 -0.8452  1.9728  0.6568
 4918TIP3   OH214759   5.927   3.140   1.807 -0.1286  0.1761  0.9370
 4918TIP3    H114760   5.833   3.135   1.791 -0.5019  1.0139  2.6488
 4918TIP3    H214761   5.963   3.174   1.725 -1.2435 -0.5949  0.0999
 4919TIP3   OH214762   1.876   2.835   3.053  0.4197 -0.8504  0.2887
 4919TIP3    H114763   1.920   2.795   3.128  2.1265 -0.1851 -0.3057
 4919TIP3    H214764   1.943   2.891   3.013 -1.2637  0.9461 -0.1435
 4920TIP3   OH214765   0.100   2.377   2.083 -0.2311 -0.1005 -0.4556
 4920TIP3    H114766   0.125   2.404   1.995  0.9560  0.2386 -0.0414
 4920TIP3    H214767   0.034   2.441   2.110 -1.0474 -0.5605 -1.3021
 4921TIP3   OH214768   2.468   4.644   1.219  0.3713  0.1508  0.2394
 4921TIP3    H114769   2.559   4.644   1.247  0.2526  0.9679  0.6539
 4921TIP3    H214770   2.418   4.618   1.297  0.1127  1.5313  0.5547
 4922TIP3   OH214771   4.715   4.675   1.767  0.4466 -0.0980 -0.5796
 4922TIP3    H114772   4.741   4.665   1.858 -2.0239  1.1848  0.3395
 4922TIP3    H214773   4.702   4.585   1.736 -0.6627 -0.5051  0.9731
 4923TIP3   OH214774   4.397   1.988   4.705 -0.4014 -1.1595  0.1489
 4923TIP3    H114775   4.393   1.964   4.612  1.9047 -1.2513 -0.0009
 4923TIP3    H214776   4.463   2.058   4.708 -1.2261 -0.4082  1.6057
 4924TIP3   OH214777   3.038   4.759   2.634  0.2875 -0.5715  0.6822
 4924TIP3    H114778   3.071   4.843   2.666 -0.9213  0.7434 -1.2939
 4924TIP3    H214779   3.107   4.696   2.655  1.5057  1.0127  1.6631
 4925TIP3   OH214780   5.551   2.187   2.715  0.1971  0.6295 -0.1338
 4925TIP3    H114781   5.514   2.168   2.801  1.6531 -0.3672  0.3137
 4925TIP3    H214782   5.621   2.249   2.731 -0.1515  1.1937 -0.7433
 4926TIP3   OH214783   3.781   5.818   2.502  0.4193 -0.2929 -0.1633
 4926TIP3    H114784   3.691   5.838   2.528  0.6362  0.2668  0.1791
 4926TIP3    H214785   3.794   5.727   2.529 -0.7724 -1.1660 -2.2680
 4927TIP3   OH214786   0.093   5.536   4.033 -0.5406 -0.5178  0.2884
 4927TIP3    H114787   0.175   5.562   3.990 -1.8090  2.7369 -0.4573
 4927TIP3    H214788   0.121   5.487   4.110  2.0258 -0.5671 -0.5717
 4928TIP3   OH214789   3.474   1.549   4.710 -0.4002  0.1067 -0.3569
 4928TIP3    H114790   3.541   1.592   4.763  0.6184 -2.6450  0.7107
 4928TIP3    H214791   3.392   1.592   4.735  0.3226  0.2074  2.0074
 4929TIP3   OH214792   2.139   5.806   4.677  0.0947 -0.1764 -0.2449
 4929TIP3    H114793   2.089   5.835   4.601 -3.5931 -2.0205  1.2219
 4929TIP3    H214794   2.229   5.834   4.659 -1.1355  2.1736 -3.7791
 4930TIP3   OH214795   3.345   1.305   0.000  0.0564  0.0408  0.4400
 4930TIP3    H114796   3.330   1.256   0.081 -0.8329  0.8930  0.8120
 4930TIP3    H214797   3.359   1.396   0.029 -1.6362  0.6108 -0.4260
 4931TIP3   OH214798   0.402   2.412   1.683  0.3879 -0.4869 -0.4544
 4931TIP3    H114799   0.368   2.477   1.621  0.4651 -1.7572 -1.8978
 4931TIP3    H214800   0.473   2.369   1.635 -0.7075 -2.7175 -0.1816
 4932TIP3   OH214801   5.089   2.775   1.182  0.0949  0.2511 -0.3975
 4932TIP3    H114802   5.035   2.825   1.121 -0.1484  0.0148 -0.3802
 4932TIP3    H214803   5.173   2.764   1.138  0.3241  1.1004 -0.1973
 4933TIP3   OH214804   3.418   3.803   0.198 -0.4043 -0.2552 -0.0759
 4933TIP3    H114805   3.398   3.716   0.164  1.1818 -1.3270  1.5589
 4933TIP3    H214806   3.477   3.841   0.133  0.6342 -1.2788  0.2499
 4934TIP3   OH214807   0.673   1.438   0.211 -0.7561  0.2054  0.3282
 4934TIP3    H114808   0.684   1.383   0.134 -3.2177 -0.3231  0.2567
 4934TIP3    H214809   0.673   1.527   0.178  0.9811  0.1768  0.1446
 4935TIP3   OH214810   2.104   4.257   2.927  0.0840  0.3155  0.1592
 4935TIP3    H114811   2.113   4.283   3.019  0.9180 -1.9427  0.7924
 4935TIP3    H214812   2.112   4.162   2.928  0.7338  0.2671 -2.3445
 4936TIP3   OH214813   0.870   3.666   3.254 -0.1085 -0.0940 -0.0929
 4936TIP3    H114814   0.796   3.699   3.304  0.0649  1.1324 -0.6104
 4936TIP3    H214815   0.832   3.639   3.170  0.0154  0.4521 -0.3255
 4937TIP3   OH214816   5.887   1.929   0.895  0.5574 -0.0580 -0.8982
 4937TIP3    H114817   5.867   1.923   0.801 -1.5900 -0.8761 -0.4590
 4937TIP3    H214818   5.858   1.845   0.931  0.3037  0.6463  0.6478
 4938TIP3   OH214819   4.638   2.258   0.261 -0.0644  0.5016  0.2417
 4938TIP3    H114820   4.640   2.305   0.178  0.5438 -0.0378 -0.0657
 4938TIP3    H214821   4.545   2.247   0.280 -0.4022 -2.4525 -2.2103
 4939TIP3   OH214822   2.011   1.985   2.112  0.4592  0.4510  0.3734
 4939TIP3    H114823   1.979   2.044   2.044 -0.3594 -0.1096  0.2552
 4939TIP3    H214824   1.932   1.939   2.143  1.0994 -0.7484  0.2910
 4940TIP3   OH214825   4.349   5.200   2.906 -0.0239 -0.0243 -0.0632
 4940TIP3    H114826   4.292   5.242   2.842 -0.4058 -0.8855 -0.2989
 4940TIP3    H214827   4.311   5.114   2.920  1.8518 -1.0748 -1.0845
 4941TIP3   OH214828   5.752   2.713   2.652  0.2597  0.1184 -0.2494
 4941TIP3    H114829   5.739   2.755   2.567  2.8063  0.4804 -0.5296
 4941TIP3    H214830   5.787   2.781   2.708 -0.0991 -0.4691  0.7107
 4942TIP3   OH214831   0.666   4.100   4.115  0.1888 -0.4713 -0.3759
 4942TIP3    H114832   0.590   4.139   4.157  1.0167  1.5087 -0.5410
 4942TIP3    H214833   0.633   4.066   4.032 -0.2262  2.5987 -1.6399
 4943TIP3   OH214834   2.370   4.433   2.314  0.3830  0.5155  0.1610
 4943TIP3    H114835   2.306   4.364   2.297  2.0610 -0.8270 -1.0413
 4943TIP3    H214836   2.329   4.512   2.280 -0.5083 -0.3739 -0.9288
 4944TIP3   OH214837   1.721   0.774   1.891 -0.5647  0.1216 -0.1476
 4944TIP3    H114838   1.732   0.719   1.969 -0.0963  0.0816 -0.2343
 4944TIP3    H214839   1.790   0.840   1.899 -0.4145  0.0240 -0.6047
 4945TIP3   OH214840   4.845   0.120   4.771 -0.0342  0.1699  0.2315
 4945TIP3    H114841   4.833   0.205   4.728 -0.0183  1.4465  2.5956
 4945TIP3    H214842   4.937   0.118   4.796  0.2220 -1.0418 -0.7012
 4946TIP3   OH214843   4.078   2.700   4.327 -0.5864  0.0468 -0.0150
 4946TIP3    H114844   4.059   2.764   4.258 -0.8060  0.2612  0.2424
 4946TIP3    H214845   4.174   2.699   4.333 -0.4698 -1.2505 -1.5244
 4947TIP3   OH214846   0.828   2.293   0.580 -0.1424  0.4108 -0.4758
 4947TIP3    H114847   0.791   2.381   0.567 -0.1642  0.7097  1.2520
 4947TIP3    H214848   0.759   2.233   0.554 -0.9630  0.9488  0.3852
 4948TIP3   OH214849   0.888   0.327   1.877  0.0454 -0.1152  0.4968
 4948TIP3    H114850   0.942   0.388   1.927 -0.2221 -1.3884  2.4559
 4948TIP3    H214851   0.823   0.383   1.834  0.6601  1.1023  1.0934
 4949TIP3   OH214852   3.445   5.739   4.057  0.0540 -0.6668 -0.2166
 4949TIP3    H114853   3.351   5.759   4.052 -0.4170 -2.3569  0.9860
 4949TIP3    H214854   3.485   5.797   3.992 -2.0093 -1.0648 -1.9704
 4950TIP3   OH214855   2.146   2.050   2.861  0.2530  0.4179 -0.8996
 4950TIP3    H114856   2.089   1.992   2.811  0.1468 -0.4124  0.1641
 4950TIP3    H214857   2.235   2.023   2.836  0.2069 -0.3274 -0.2806
 4951TIP3   OH214858   3.669   4.379   2.661 -0.2036 -0.2579  0.0323
 4951TIP3    H114859   3.638   4.295   2.693 -1.1883 -0.0020 -0.2347
 4951TIP3    H214860   3.672   4.435   2.739 -3.4472  0.6244 -0.3548
 4952TIP3   OH214861   6.133   5.511   0.978 -0.5186 -0.1263  1.1767
 4952TIP3    H114862   6.115   5.580   0.914  1.0238 -0.6193  0.1440
 4952TIP3    H214863   6.159   5.558   1.057  1.3120  0.5323  0.2425
 4953TIP3   OH214864   3.079   0.200   3.462 -0.5433  0.3644 -0.0573
 4953TIP3    H114865   3.077   0.239   3.374  0.9449  2.0986  0.6247
 4953TIP3    H214866   3.169   0.210   3.490 -1.0846  0.2059  1.8317
 4954TIP3   OH214867   6.041   2.367   4.617  0.3279 -0.1386  0.1056
 4954TIP3    H114868   6.058   2.430   4.687  0.4725  0.9265 -0.8758
 4954TIP3    H214869   6.013   2.288   4.663 -1.2682  1.0665  1.2993
 4955TIP3   OH214870   2.128   2.763   1.796  0.5339  0.1746 -0.0840
 4955TIP3    H114871   2.182   2.712   1.736 -0.6112  1.3516 -2.2344
 4955TIP3    H214872   2.039   2.755   1.761  0.0482  2.0834  0.6044
 4956TIP3   OH214873   0.888   4.766   3.740 -0.0535 -0.0067 -0.1852
 4956TIP3    H114874   0.808   4.778   3.791 -0.6155  0.6202 -1.1725
 4956TIP3    H214875   0.931   4.852   3.743  0.9577 -0.5196  0.9121
 4957TIP3   OH214876   5.426   1.262   2.804  0.3125  0.3134  0.1467
 4957TIP3    H114877   5.340   1.247   2.765  0.4560 -1.1407  0.3490
 4957TIP3    H214878   5.407   1.286   2.895  0.1042  0.7536 -0.0087
 4958TIP3   OH214879   1.264   0.771   0.893  0.1902  0.1017  0.4204
 4958TIP3    H114880   1.208   0.704   0.930 -0.3563  0.4873  0.3022
 4958TIP3    H214881   1.318   0.725   0.828 -1.4689  0.0969 -1.0123
 4959TIP3   OH214882   1.529   0.355   1.899 -0.3674 -0.1597 -0.6218
 4959TIP3    H114883   1.490   0.403   1.972  2.0627  0.8813  0.0947
 4959TIP3    H214884   1.549   0.269   1.935 -2.7028 -1.0495 -1.2684
 4960TIP3   OH214885   0.223   0.736   0.515  0.2013 -0.2810  0.0890
 4960TIP3    H114886   0.148   0.795   0.510  0.2743 -0.2022 -0.0734
 4960TIP3    H214887   0.192   0.654   0.476  0.6289  0.1891 -1.2884
 4961TIP3   OH214888   3.165   5.929   1.850  0.0132  0.2241 -0.6478
 4961TIP3    H114889   3.162   6.025   1.860 -0.1710  0.0970  0.6713
 4961TIP3    H214890   3.142   5.895   1.936  0.8948 -1.0163 -0.8695
 4962TIP3   OH214891   3.340   5.187   3.695 -0.7194 -0.4663 -0.1589
 4962TIP3    H114892   3.357   5.270   3.651  0.6359 -0.5759  0.1173
 4962TIP3    H214893   3.417   5.172   3.749 -1.4139 -1.3919  0.6111
 4963TIP3   OH214894   0.381   5.253   1.854 -0.1893  0.5158  0.5002
 4963TIP3    H114895   0.318   5.184   1.835 -1.2516  1.6005 -0.0840
 4963TIP3    H214896   0.329   5.323   1.893  0.6835  1.3472  0.2237
 4964TIP3   OH214897   5.343   3.901   1.378 -0.4570 -0.2904  0.4061
 4964TIP3    H114898   5.310   3.816   1.406  1.6761 -1.2738  0.0782
 4964TIP3    H214899   5.265   3.949   1.351 -1.6621 -2.2872  0.1709
 4965TIP3   OH214900   2.172   2.136   0.456  0.2694  0.7636 -0.3695
 4965TIP3    H114901   2.150   2.221   0.495  0.2314  1.0155 -0.9335
 4965TIP3    H214902   2.237   2.157   0.389  0.7554  0.2636 -0.0590
 4966TIP3   OH214903   0.772   2.455   2.486  0.3152  0.3397 -0.3315
 4966TIP3    H114904   0.859   2.414   2.485  0.6818  1.1090 -0.9432
 4966TIP3    H214905   0.787   2.544   2.454 -0.5611  0.7837  0.4577
 4967TIP3   OH214906   5.324   2.899   3.625  0.4580 -0.4533  0.1446
 4967TIP3    H114907   5.266   2.933   3.693  0.0289 -2.3464  0.7912
 4967TIP3    H214908   5.399   2.864   3.674  1.1461  0.0810 -0.5256
 4968TIP3   OH214909   4.174   4.252   1.084  0.5830  0.0949 -0.2062
 4968TIP3    H114910   4.146   4.343   1.092  0.9818  0.2527 -0.6105
 4968TIP3    H214911   4.170   4.218   1.174  0.5212  0.5332 -0.0414
 4969TIP3   OH214912   3.899   5.502   0.158  0.2830  0.5886  0.1988
 4969TIP3    H114913   3.821   5.558   0.164 -0.2999  0.1819 -2.3596
 4969TIP3    H214914   3.951   5.541   0.088  1.0605 -0.6772  0.0463
 4970TIP3   OH214915   4.216   2.691   2.592 -0.4060  0.1372 -0.8588
 4970TIP3    H114916   4.301   2.703   2.633  0.7673  1.0399 -3.3843
 4970TIP3    H214917   4.157   2.673   2.665  1.6852  0.7623  1.1035
 4971TIP3   OH214918   1.854   0.224   1.916  0.0559  0.1816  0.0533
 4971TIP3    H114919   1.836   0.226   2.009 -1.5185 -0.2303 -0.2183
 4971TIP3    H214920   1.950   0.228   1.910  0.1797  0.1918  1.6673
 4972TIP3   OH214921   3.910   1.916   4.027  0.3932  0.1065  0.5707
 4972TIP3    H114922   3.939   1.927   4.118  1.0037 -1.2793  0.5719
 4972TIP3    H214923   3.867   1.830   4.026  1.3912 -0.4140 -0.6707
 4973TIP3   OH214924   3.269   4.968   3.066 -0.6019 -0.0053 -0.1765
 4973TIP3    H114925   3.326   4.912   3.012 -1.7021  0.2226 -1.6416
 4973TIP3    H214926   3.257   5.047   3.013 -0.4011  0.9537  1.1520
 4974TIP3   OH214927   2.444   0.486   2.352 -0.5158  0.4443  0.2968
 4974TIP3    H114928   2.509   0.416   2.359 -1.6430 -0.5880  0.8552
 4974TIP3    H214929   2.496   0.566   2.358  0.7361 -0.3324  0.4535
 4975TIP3   OH214930   1.545   2.003   2.601 -0.3016 -0.4330 -0.2744
 4975TIP3    H114931   1.546   2.038   2.690  0.6789 -4.2584  1.4241
 4975TIP3    H214932   1.557   2.080   2.545  0.4720  1.9982  2.9224
 4976TIP3   OH214933   6.072   0.125   3.605  0.1828 -0.4186 -0.7950
 4976TIP3    H114934   5.983   0.151   3.580 -0.4156 -1.0858  0.5904
 4976TIP3    H214935   6.069   0.030   3.609  0.5647 -0.3888  0.6521
 4977TIP3   OH214936   3.027   4.704   2.084 -0.2057 -0.3478 -0.1124
 4977TIP3    H114937   3.058   4.614   2.094 -2.1845 -1.7376 -4.3146
 4977TIP3    H214938   3.079   4.740   2.012 -0.1622  1.6196  0.8141
 4978TIP3   OH214939   6.362   1.009   1.313  0.1579  0.4052 -0.0980
 4978TIP3    H114940   6.325   0.941   1.369  0.3858  0.4024  0.0474
 4978TIP3    H214941   6.286   1.057   1.280 -0.0415 -0.3141 -0.7071
 4979TIP3   OH214942   4.390   4.266   0.700  0.2286 -0.5382  0.3233
 4979TIP3    H114943   4.398   4.226   0.786  0.8259  0.6640  0.8411
 4979TIP3    H214944   4.330   4.208   0.652  0.1869 -1.4181  1.4050
 4980TIP3   OH214945   5.493   3.485   3.451 -0.2287 -0.2558  0.1519
 4980TIP3    H114946   5.399   3.471   3.447 -0.8896  3.0647 -3.8994
 4980TIP3    H214947   5.504   3.566   3.501  0.4905 -0.5752  0.5311
 4981TIP3   OH214948   5.730   2.914   2.083  0.6170  0.0522 -0.0419
 4981TIP3    H114949   5.715   3.004   2.112 -1.2122 -0.7448  1.7114
 4981TIP3    H214950   5.677   2.860   2.142  1.6349 -2.1944 -1.0540
 4982TIP3   OH214951   0.754   5.044   4.744  0.6733 -0.0316  0.2802
 4982TIP3    H114952   0.835   5.010   4.704  1.4866  1.3732  0.6731
 4982TIP3    H214953   0.690   5.040   4.674  1.2431 -0.5921 -0.2267
 4983TIP3   OH214954   1.762   1.384   2.060 -0.0564 -0.0848  0.2249
 4983TIP3    H114955   1.781   1.406   2.151 -0.7224  0.1967  0.3029
 4983TIP3    H214956   1.846   1.355   2.024  0.1981 -0.2573  0.9430
 4984TIP3   OH214957   4.274   0.024   4.469 -0.0109 -0.5669  0.1835
 4984TIP3    H114958   4.239   0.106   4.504  0.5125 -0.4346  0.3966
 4984TIP3    H214959   4.241   0.022   4.378 -1.8141 -1.1765  0.7993
 4985TIP3   OH214960   4.343   5.340   0.701  0.7065  0.3527 -0.5202
 4985TIP3    H114961   4.344   5.403   0.773  1.5401 -0.1900 -0.0379
 4985TIP3    H214962   4.276   5.276   0.726 -0.7942  1.5080 -1.4467
 4986TIP3   OH214963   0.787   3.827   1.988  0.1143  0.7466 -0.0138
 4986TIP3    H114964   0.816   3.747   1.943 -1.8240 -0.2978  0.4680
 4986TIP3    H214965   0.724   3.866   1.927 -0.2865  0.9334  0.5179
 4987TIP3   OH214966   2.571   0.620   2.585 -0.2108 -0.4706  0.0910
 4987TIP3    H114967   2.580   0.568   2.665 -2.7431  0.7581  1.3035
 4987TIP3    H214968   2.628   0.695   2.598  0.3462 -0.9069  0.1717
 4988TIP3   OH214969   2.021   0.950   4.488  0.1165  0.1419  0.4202
 4988TIP3    H114970   2.038   1.035   4.528 -0.1471 -0.2842  1.4932
 4988TIP3    H214971   1.925   0.945   4.485  0.1358  0.1478 -0.2377
 4989TIP3   OH214972   3.412   4.154   5.190  0.1314  0.1836 -0.1275
 4989TIP3    H114973   3.418   4.121   5.100 -1.5882 -0.7550  0.0796
 4989TIP3    H214974   3.320   4.144   5.214  0.5410  0.5067  1.7191
 4990TIP3   OH214975   1.950   4.791   1.707  0.0638 -0.7167 -0.0962
 4990TIP3    H114976   2.006   4.787   1.630 -0.6902  1.6422 -0.8562
 4990TIP3    H214977   1.881   4.852   1.683 -0.4918 -0.3097  2.2757
 4991TIP3   OH214978   0.054   2.892   2.866  0.5037  0.0140  0.2331
 4991TIP3    H114979   0.142   2.913   2.897 -0.0078  3.5140 -0.2961
 4991TIP3    H214980   0.068   2.835   2.790  2.3990  1.1286 -0.3112
 4992TIP3   OH214981   3.866   1.433   3.633 -0.3585 -0.4486  0.6519
 4992TIP3    H114982   3.917   1.457   3.711 -0.5814 -1.0199  0.9845
 4992TIP3    H214983   3.895   1.494   3.566  0.4598 -0.4868  0.9506
 4993TIP3   OH214984   5.970   2.536   4.240 -0.3626  0.3554  0.2737
 4993TIP3    H114985   6.057   2.563   4.269  0.3891 -0.9008 -0.7027
 4993TIP3    H214986   5.928   2.501   4.318  0.7458 -0.8175  0.3705
 4994TIP3   OH214987   1.563   3.058   3.969  0.2304  0.0606 -0.0841
 4994TIP3    H114988   1.613   3.074   4.049  1.8535  0.1927 -1.0575
 4994TIP3    H214989   1.562   3.142   3.924 -2.8135  0.6252  0.8695
 4995TIP3   OH214990   0.637   0.450   2.487  0.1477  0.1597 -0.5992
 4995TIP3    H114991   0.576   0.523   2.475  0.5755  0.5086 -0.6681
 4995TIP3    H214992   0.652   0.417   2.398  1.0744  0.9083 -0.7268
 4996TIP3   OH214993   0.015   2.385   4.935  0.0364 -0.5064 -0.0032
 4996TIP3    H114994  -0.000   2.426   5.020 -2.0888 -0.4110 -0.3671
 4996TIP3    H214995   0.037   2.458   4.877  0.9044 -0.4994  0.3231
 4997TIP3   OH214996   0.819   5.679   0.957 -0.4154  0.4286  0.1040
 4997TIP3    H114997   0.791   5.673   1.048 -1.5260  1.6604 -0.1240
 4997TIP3    H214998   0.891   5.742   0.958  0.6291 -0.7273  0.3167
 4998TIP3   OH214999   2.476   3.559   4.413  0.1303 -0.1635 -0.3805
 4998TIP3    H115000   2.567   3.541   4.439  0.9918  0.4658 -2.6913
 4998TIP3    H215001   2.428   3.480   4.437  1.4270 -0.7653  0.3192
 4999TIP3   OH215002   2.487   2.563   0.927 -0.0681  0.1194  0.0733
 4999TIP3    H115003   2.529   2.538   0.845  1.9312  0.3077  0.9822
 4999TIP3    H215004   2.461   2.480   0.967 -0.8467  0.0146 -0.6197
 5000TIP3   OH215005   2.272   0.078   2.920 -0.1530  0.5855  0.7215
 5000TIP3    H115006   2.306   0.115   2.839  2.3272 -0.7856  1.0365
 5000TIP3    H215007   2.280   0.148   2.984 -1.1454  1.3400  0.0510
 5001TIP3   OH215008   5.851   2.705   3.565  0.3080 -0.2490 -0.1508
 5001TIP3    H115009   5.761   2.734   3.548 -0.2583 -2.4394 -1.3361
 5001TIP3    H215010   5.903   2.785   3.562 -1.4007  0.9042 -0.9106
 5002TIP3   OH215011   1.008   5.593   4.890  0.0628  0.4207  0.1686
 5002TIP3    H115012   1.055   5.550   4.961 -2.0101  0.4221  1.6460
 5002TIP3    H215013   0.919   5.556   4.894 -0.3004  0.8897 -2.0345
 5003TIP3   OH215014   1.253   3.982   4.885  0.7871  0.7381  0.4015
 5003TIP3    H115015   1.233   3.962   4.976 -1.2477 -0.2705 -0.1865
 5003TIP3    H215016   1.167   3.993   4.844  1.6566  1.5197 -1.3281
 5004TIP3   OH215017   4.322   0.220   3.431  0.0921  0.1868  0.1835
 5004TIP3    H115018   4.415   0.239   3.440  0.2251 -0.5498  0.4774
 5004TIP3    H215019   4.308   0.212   3.337  0.3990 -0.0083  0.1507
 5005TIP3   OH215020   0.780   1.102   2.324  0.1753 -0.1865  0.1253
 5005TIP3    H115021   0.838   1.097   2.249  1.8180  0.7107  1.2643
 5005TIP3    H215022   0.834   1.139   2.394 -1.1181 -1.4550  1.9099
 5006TIP3   OH215023   6.287   0.977   0.387 -1.0721 -0.2477 -0.1297
 5006TIP3    H115024   6.267   0.892   0.427 -1.8259  0.4885  1.0980
 5006TIP3    H215025   6.212   0.995   0.330 -0.3951 -0.8946 -1.2711
 5007TIP3   OH215026   4.380   1.306   2.218 -0.1846 -0.0778 -0.1359
 5007TIP3    H115027   4.405   1.334   2.130  0.1341  2.5774  0.6974
 5007TIP3    H215028   4.380   1.387   2.269  1.3114 -1.7466  2.7337
 5008TIP3   OH215029   3.041   5.956   0.588  0.2016 -0.0664  0.3435
 5008TIP3    H115030   3.014   5.868   0.565  2.9402 -0.4934 -1.7168
 5008TIP3    H215031   3.074   5.949   0.678 -0.0200 -1.0022  0.3564
 5009TIP3   OH215032   3.958   4.411   1.600  0.2594 -0.1350  0.3548
 5009TIP3    H115033   3.966   4.497   1.560  0.1211 -0.6394 -0.8044
 5009TIP3    H215034   3.866   4.404   1.624 -0.3228 -0.8632 -1.7943
 5010TIP3   OH215035   3.852   4.126   0.346 -0.3476  0.3795 -0.1290
 5010TIP3    H115036   3.883   4.055   0.290 -1.2616 -0.9621  1.0089
 5010TIP3    H215037   3.917   4.132   0.416  0.5215  1.7106 -1.0040
 5011TIP3   OH215038   2.068   4.293   1.462 -0.4111  0.0681  0.6705
 5011TIP3    H115039   2.056   4.209   1.506 -0.9864  0.2705  0.9165
 5011TIP3    H215040   2.072   4.272   1.369 -0.6990 -0.2164  0.7225
 5012TIP3   OH215041   1.164   0.748   1.629  0.0705  0.1553  0.1967
 5012TIP3    H115042   1.116   0.775   1.550  0.3067 -0.1015 -0.0384
 5012TIP3    H215043   1.124   0.799   1.700  0.6572  1.2930 -0.2681
 5013TIP3   OH215044   2.892   2.795   0.765 -0.4701 -0.1268 -1.0912
 5013TIP3    H115045   2.829   2.851   0.809 -1.4062 -1.6146 -0.4586
 5013TIP3    H215046   2.863   2.706   0.784  1.9420 -0.9000 -0.5574
 5014TIP3   OH215047   2.143   5.136   5.019  0.5478 -0.1891 -0.4120
 5014TIP3    H115048   2.216   5.113   5.077  0.3007  1.6957  0.7280
 5014TIP3    H215049   2.075   5.072   5.039  0.9989 -0.4496  0.3184
 5015TIP3   OH215050   4.142   1.478   3.188  0.2001  0.6256  0.0466
 5015TIP3    H115051   4.177   1.466   3.277  3.1838 -0.5065 -1.1618
 5015TIP3    H215052   4.123   1.572   3.183  0.0643  0.7378  1.8242
 5016TIP3   OH215053   4.616   5.561   4.396  0.1857 -0.3510 -0.6454
 5016TIP3    H115054   4.663   5.495   4.345  0.6952 -1.5180  1.2472
 5016TIP3    H215055   4.542   5.513   4.435  1.1205 -0.0966  1.5528
 5017TIP3   OH215056   4.566   0.266   2.326 -0.1129  0.0367 -0.0615
 5017TIP3    H115057   4.509   0.189   2.331 -2.2732  1.5499 -0.1738
 5017TIP3    H215058   4.506   0.341   2.331  1.7567  1.7289 -1.5049
 5018TIP3   OH215059   4.146   2.473   0.720  0.7021  0.4429  0.0064
 5018TIP3    H115060   4.069   2.436   0.676  1.6964 -0.5749 -0.9434
 5018TIP3    H215061   4.124   2.565   0.735 -1.0810 -0.0412  0.6541
 5019TIP3   OH215062   0.961   1.153   1.418  0.1844  0.9869  0.3253
 5019TIP3    H115063   0.903   1.207   1.365 -0.8547  0.4336  0.8600
 5019TIP3    H215064   0.902   1.098   1.470  1.1075  2.0543  2.6704
 5020TIP3   OH215065   6.217   3.201   0.222  0.8702 -0.0013 -0.1736
 5020TIP3    H115066   6.292   3.237   0.270  0.8563 -2.0467  1.5753
 5020TIP3    H215067   6.192   3.123   0.273 -2.2982  0.4565 -0.8335
 5021TIP3   OH215068   1.579   5.622   3.806  0.3319  0.2220  0.0823
 5021TIP3    H115069   1.647   5.567   3.767  0.1301 -0.4712  0.6899
 5021TIP3    H215070   1.542   5.670   3.732  1.4953  0.6320 -0.2459
 5022TIP3   OH215071   2.263   1.552   3.166 -0.2456  0.4264  0.2716
 5022TIP3    H115072   2.261   1.638   3.207  1.6425  1.2469 -1.2077
 5022TIP3    H215073   2.348   1.516   3.189 -0.1191 -0.1038 -0.9500
 5023TIP3   OH215074   3.983   0.143   4.757  0.2327 -0.0598  1.1601
 5023TIP3    H115075   3.934   0.061   4.754 -0.6566  0.4678  0.9531
 5023TIP3    H215076   3.978   0.171   4.848  1.7687 -0.9428  1.5553
 5024TIP3   OH215077   4.695   3.626   2.841  0.3304 -0.3224  0.0196
 5024TIP3    H115078   4.777   3.665   2.873  0.1556  1.1963 -1.2765
 5024TIP3    H215079   4.626   3.669   2.891  0.2076  0.1965 -0.5763
 5025TIP3   OH215080   1.533   1.235   0.882  0.4687  0.6187  0.0640
 5025TIP3    H115081   1.502   1.149   0.910  0.5641  0.8839  1.0277
 5025TIP3    H215082   1.539   1.285   0.963 -1.7335  2.2401 -0.6806
 5026TIP3   OH215083   0.837   5.056   0.785 -0.3716 -0.2604  0.9920
 5026TIP3    H115084   0.859   5.047   0.878  0.9038 -0.7417  0.6653
 5026TIP3    H215085   0.833   4.966   0.752  2.5737 -0.0973 -0.1247
 5027TIP3   OH215086   2.758   3.124   2.536  0.1662 -0.0497 -0.2160
 5027TIP3    H115087   2.828   3.059   2.537  0.2950  0.0929  0.0936
 5027TIP3    H215088   2.793   3.197   2.486 -0.2405 -0.4988 -1.1962
 5028TIP3   OH215089   5.782   1.293   3.665  0.4012 -0.1603 -0.1444
 5028TIP3    H115090   5.750   1.277   3.754 -0.7896  0.2571 -0.4837
 5028TIP3    H215091   5.764   1.212   3.618  1.0589 -0.3917 -0.0079
 5029TIP3   OH215092   1.747   3.528   4.840 -0.1854 -0.1291  0.6332
 5029TIP3    H115093   1.774   3.575   4.761  1.3220  0.4466  1.4483
 5029TIP3    H215094   1.655   3.509   4.826 -0.1617  0.7155 -0.8942
 5030TIP3   OH215095   2.374   0.186   1.503  0.0733  0.1100  0.5447
 5030TIP3    H115096   2.377   0.269   1.550  0.4971  0.6908 -0.4822
 5030TIP3    H215097   2.441   0.195   1.435 -0.5262 -0.7127 -0.1650
 5031TIP3   OH215098   1.594   3.029   4.531 -0.2922  0.0358  0.2775
 5031TIP3    H115099   1.627   3.064   4.614  2.0058 -0.8390 -0.1898
 5031TIP3    H215100   1.670   3.030   4.473 -1.4648 -0.8304 -1.3533
 5032TIP3   OH215101   4.214   3.964   2.886  0.4699  0.4405  0.1042
 5032TIP3    H115102   4.280   4.020   2.928 -0.9269  0.4405  2.4241
 5032TIP3    H215103   4.132   3.987   2.928 -1.2853  1.0567 -3.2927
 5033TIP3   OH215104   6.291   2.743   3.397 -0.0143 -0.0735 -0.2097
 5033TIP3    H115105   6.282   2.688   3.319 -0.8369  0.7435 -0.7182
 5033TIP3    H215106   6.240   2.697   3.465  1.2333 -1.1173  0.0549
 5034TIP3   OH215107   4.507   3.115   4.671 -0.2462  0.5783 -0.0470
 5034TIP3    H115108   4.429   3.059   4.677  1.7073 -2.3641  0.5255
 5034TIP3    H215109   4.541   3.099   4.583  1.0484 -0.2386  0.5726
 5035TIP3   OH215110   5.254   1.298   4.333  0.2642 -0.6201  0.2206
 5035TIP3    H115111   5.327   1.354   4.360 -0.6508  0.8351 -0.2152
 5035TIP3    H215112   5.284   1.209   4.351  1.2175  0.0603  2.2501
 5036TIP3   OH215113   1.237   0.887   1.961 -0.2552 -0.0260 -0.4729
 5036TIP3    H115114   1.236   0.978   1.933 -1.0988 -0.5901 -2.4090
 5036TIP3    H215115   1.217   0.891   2.055 -1.5445  1.6986 -0.7710
 5037TIP3   OH215116   5.121   1.920   2.416  0.5976 -0.0933 -0.6681
 5037TIP3    H115117   5.150   1.976   2.345  0.3116  1.2763  0.2573
 5037TIP3    H215118   5.096   1.981   2.486  0.0580 -1.3673  0.2870
 5038TIP3   OH215119   5.496   4.445   3.885 -0.5293  0.0248  0.0892
 5038TIP3    H115120   5.427   4.451   3.819 -0.5164 -0.3164  0.0406
 5038TIP3    H215121   5.576   4.471   3.838 -0.4292 -0.7589 -0.1841
 5039TIP3   OH215122   1.944   2.843   0.302  0.0721 -0.0321 -0.2844
 5039TIP3    H115123   2.009   2.859   0.370  1.3841  1.6775 -1.8480
 5039TIP3    H215124   1.933   2.927   0.258 -2.0659 -0.6545 -1.0745
 5040TIP3   OH215125   0.668   0.736   1.432  0.4311 -0.4123 -0.0821
 5040TIP3    H115126   0.604   0.762   1.367  0.9157  1.8833  0.2812
 5040TIP3    H215127   0.630   0.659   1.474 -1.7175  0.4136 -0.4095
 5041TIP3   OH215128   2.142   2.186   5.080  0.3207 -0.4813  0.0627
 5041TIP3    H115129   2.063   2.233   5.052 -0.4289 -2.2506 -1.0367
 5041TIP3    H215130   2.196   2.182   5.001  0.2398 -1.6438  0.0458
 5042TIP3   OH215131   2.119   1.301   4.311 -0.5027 -0.1957  0.5785
 5042TIP3    H115132   2.162   1.380   4.279 -0.9870 -0.3110 -0.4262
 5042TIP3    H215133   2.176   1.229   4.284 -0.4098 -0.2311  0.8701
 5043TIP3   OH215134   1.600   1.398   3.582 -0.0004  0.2449 -0.3935
 5043TIP3    H115135   1.561   1.328   3.530 -0.1188  0.1442 -0.1712
 5043TIP3    H215136   1.690   1.406   3.548  0.2325 -0.4750  0.0265
 5044TIP3   OH215137   1.217   3.214   2.425  0.0479  0.2650 -0.0611
 5044TIP3    H115138   1.193   3.140   2.370 -0.2559  1.3042 -1.3627
 5044TIP3    H215139   1.150   3.215   2.494 -1.0998  0.4886 -1.1462
 5045TIP3   OH215140   3.855   2.864   3.384  0.5502  0.3312  0.1164
 5045TIP3    H115141   3.803   2.930   3.431  0.1886  0.6516 -0.7227
 5045TIP3    H215142   3.791   2.805   3.345  0.7538  1.0964 -1.4662
 5046TIP3   OH215143   2.980   2.383   2.602 -0.1744  0.2266  0.2988
 5046TIP3    H115144   3.032   2.334   2.538  0.4390 -0.3113  1.1906
 5046TIP3    H215145   2.974   2.325   2.678 -1.6129  0.5073  0.4357
 5047TIP3   OH215146   0.359   2.926   0.638  0.2292 -0.4395 -0.1413
 5047TIP3    H115147   0.301   2.878   0.697  2.1785 -0.9835  1.4607
 5047TIP3    H215148   0.384   3.004   0.688 -0.2911  0.5802 -1.4120
 5048TIP3   OH215149   0.676   4.358   3.555  0.8283 -0.7398  0.2748
 5048TIP3    H115150   0.695   4.451   3.565 -1.6445  0.1083 -1.8350
 5048TIP3    H215151   0.595   4.345   3.605 -0.7060 -0.9009 -2.1249
 5049TIP3   OH215152   2.481   3.482   4.714 -0.0907  0.2654  0.6724
 5049TIP3    H115153   2.565   3.472   4.671  0.3318 -0.2076  1.5635
 5049TIP3    H215154   2.465   3.397   4.755 -1.2469  0.1859  0.1015
 5050TIP3   OH215155   5.199   1.937   4.788 -0.5383 -0.3230 -0.2158
 5050TIP3    H115156   5.134   1.989   4.740  1.3471  1.0786 -1.3816
 5050TIP3    H215157   5.271   1.927   4.726  1.9708  1.4669  2.2049
 5051TIP3   OH215158   4.547   5.533   3.333 -0.2738  0.3283 -0.3934
 5051TIP3    H115159   4.634   5.503   3.308  0.0551 -0.2706  1.3904
 5051TIP3    H215160   4.493   5.454   3.332 -0.6204  0.5646 -0.7184
 5052TIP3   OH215161   5.532   4.914   1.619 -0.8909 -0.3735 -0.1571
 5052TIP3    H115162   5.605   4.898   1.679 -0.1871 -3.0875 -1.5773
 5052TIP3    H215163   5.517   4.830   1.576 -3.9637  0.4616 -0.9565
 5053TIP3   OH215164   4.829   4.584   2.028 -0.1062 -0.3716  0.0072
 5053TIP3    H115165   4.882   4.510   2.059 -1.3247 -2.1210 -1.8575
 5053TIP3    H215166   4.763   4.596   2.097  0.5083 -0.5354  0.6451
 5054TIP3   OH215167   0.402   3.691   0.660  0.3485  0.2372 -0.0615
 5054TIP3    H115168   0.376   3.606   0.625  0.6090  0.5197 -0.9665
 5054TIP3    H215169   0.339   3.753   0.621  1.0801  0.6477 -0.6167
 5055TIP3   OH215170   0.105   5.118   1.110  0.2070 -0.3041  0.7213
 5055TIP3    H115171   0.019   5.118   1.152 -0.9117 -1.4303 -1.3736
 5055TIP3    H215172   0.166   5.093   1.179 -0.8770  1.9433  2.6230
 5056TIP3   OH215173   0.175   2.669   2.731 -0.0085 -0.1289  0.3068
 5056TIP3    H115174   0.183   2.629   2.817  0.6552  1.2293  0.9225
 5056TIP3    H215175   0.253   2.725   2.724 -0.1583 -0.0584 -1.0872
 5057TIP3   OH215176   3.943   3.024   0.869 -0.3648  0.1292 -0.2296
 5057TIP3    H115177   3.939   3.087   0.941 -1.0232  1.2793 -1.2063
 5057TIP3    H215178   4.025   2.978   0.881  0.3059  1.4173  0.3671
 5058TIP3   OH215179   2.004   2.644   1.202 -0.2439  0.3229 -0.5701
 5058TIP3    H115180   2.024   2.734   1.228  0.7638  0.1792 -0.7869
 5058TIP3    H215181   2.090   2.603   1.192 -0.6965 -0.6920 -0.3830
 5059TIP3   OH215182   0.080   2.661   5.109 -0.5128 -0.4328 -0.0633
 5059TIP3    H115183   0.097   2.696   5.021  0.4966  1.0631  0.6685
 5059TIP3    H215184  -0.001   2.704   5.137 -0.1121  0.1464  0.2338
 5060TIP3   OH215185   2.066   1.256   2.777 -0.0733 -0.2877 -0.2786
 5060TIP3    H115186   2.128   1.309   2.827 -0.3949  0.0606 -0.2435
 5060TIP3    H215187   2.036   1.313   2.707  0.3407 -0.7599 -0.8478
 5061TIP3   OH215188   5.827   4.063   2.702 -0.3807  0.3942  0.5902
 5061TIP3    H115189   5.791   4.021   2.780 -0.7089 -1.2370 -0.3849
 5061TIP3    H215190   5.761   4.127   2.676 -0.8565  0.0436  0.9203
 5062TIP3   OH215191   0.077   1.700   4.756 -0.1414  0.0477 -0.5604
 5062TIP3    H115192   0.160   1.678   4.797 -0.8620 -0.7325  0.5502
 5062TIP3    H215193   0.085   1.792   4.732  1.1516 -0.1135 -0.7835
 5063TIP3   OH215194   3.894   1.884   1.673 -0.2181  0.1090  0.2828
 5063TIP3    H115195   3.842   1.941   1.616 -0.0160  0.8018  0.7721
 5063TIP3    H215196   3.940   1.945   1.731  0.1905 -0.5511  0.6569
 5064TIP3   OH215197   6.211   3.737   0.287 -0.5436 -0.1564 -0.2028
 5064TIP3    H115198   6.204   3.659   0.232 -2.0629  0.8776 -1.5840
 5064TIP3    H215199   6.120   3.761   0.306 -0.0801 -0.4138  2.7756
 5065TIP3   OH215200   1.361   4.574   2.439  0.1267 -0.2646  0.0182
 5065TIP3    H115201   1.423   4.507   2.467 -0.1036 -0.9327 -1.0039
 5065TIP3    H215202   1.299   4.528   2.382  1.1519  1.1432 -2.4349
 5066TIP3   OH215203   3.089   3.766   3.769  0.5725 -0.9014 -0.2832
 5066TIP3    H115204   3.095   3.672   3.753  0.5177 -0.6426 -2.0377
 5066TIP3    H215205   3.062   3.803   3.685 -0.9340  0.5432  0.7738
 5067TIP3   OH215206   2.630   0.315   0.306  0.3665 -0.4867  0.7185
 5067TIP3    H115207   2.710   0.352   0.343 -0.2695  2.8072 -0.8024
 5067TIP3    H215208   2.561   0.337   0.368  0.3153 -1.4572  1.0211
 5068TIP3   OH215209   0.980   4.886   2.181 -0.4081 -0.5384 -0.0067
 5068TIP3    H115210   0.959   4.910   2.090 -0.9188  1.2286  0.5374
 5068TIP3    H215211   1.043   4.953   2.209 -0.1684 -1.1364  0.9253
 5069TIP3   OH215212   0.333   1.605   1.626  0.3027  0.2222 -0.0688
 5069TIP3    H115213   0.393   1.569   1.560 -0.9790 -0.3406 -0.9846
 5069TIP3    H215214   0.259   1.636   1.575  0.3634  2.1137  0.9198
 5070TIP3   OH215215   4.647   3.581   2.036  0.3758  0.2312 -0.6378
 5070TIP3    H115216   4.592   3.654   2.005 -0.1042  0.5303  0.8171
 5070TIP3    H215217   4.623   3.571   2.128  3.1051  0.6845  0.2208
 5071TIP3   OH215218   4.986   0.497   2.749  0.3697 -0.2024 -0.0362
 5071TIP3    H115219   4.976   0.566   2.815 -2.2360 -0.5235 -0.0128
 5071TIP3    H215220   4.913   0.437   2.765  1.6371 -2.1364 -1.0890
 5072TIP3   OH215221   4.991   2.920   4.585 -0.1955 -0.1324 -0.6298
 5072TIP3    H115222   4.904   2.894   4.615 -0.5209  0.4631 -1.0227
 5072TIP3    H215223   4.994   3.014   4.601  2.0530 -0.7218  3.5658
 5073TIP3   OH215224   0.254   4.353   2.431 -0.6707 -0.5675 -0.1024
 5073TIP3    H115225   0.178   4.374   2.484 -0.5178 -0.5649  0.1156
 5073TIP3    H215226   0.230   4.273   2.385 -2.0125  1.0392 -2.4122
 5074TIP3   OH215227   2.547   1.956   4.465  0.2255  0.0526 -0.3099
 5074TIP3    H115228   2.469   1.928   4.417 -0.3538 -2.5013  1.8441
 5074TIP3    H215229   2.620   1.925   4.411 -0.3168 -0.1591 -0.9392
 5075TIP3   OH215230   4.373   2.707   2.833  0.2411  0.4003 -0.7704
 5075TIP3    H115231   4.347   2.781   2.889  1.8536  1.3989 -1.2891
 5075TIP3    H215232   4.365   2.630   2.890 -0.0888  1.1390  0.2103
 5076TIP3   OH215233   3.771   2.418   4.925  0.0296 -0.4715  0.7728
 5076TIP3    H115234   3.798   2.461   5.007 -0.4502  0.6963  0.3435
 5076TIP3    H215235   3.844   2.434   4.865 -0.6021  0.7122  0.2911
 5077TIP3   OH215236   2.633   3.804   5.115 -0.0883  0.2044  0.3524
 5077TIP3    H115237   2.669   3.779   5.200 -0.4042 -1.3957  0.0483
 5077TIP3    H215238   2.579   3.881   5.133  1.7413  1.3599  1.1678
 5078TIP3   OH215239   1.742   0.790   2.768  0.2455 -0.1472  0.2513
 5078TIP3    H115240   1.670   0.775   2.829  1.4748  0.8616  2.0240
 5078TIP3    H215241   1.821   0.793   2.823  1.6823 -1.2272 -1.6106
 5079TIP3   OH215242   5.874   2.841   1.086  0.0692  0.2218 -0.2346
 5079TIP3    H115243   5.829   2.771   1.038  1.2183  1.0096 -2.5844
 5079TIP3    H215244   5.916   2.795   1.159  0.5087 -1.5419 -1.5105
 5080TIP3   OH215245   5.177   3.814   3.417  0.1558  0.0731 -0.3194
 5080TIP3    H115246   5.179   3.821   3.512 -0.0796  0.0763 -0.3130
 5080TIP3    H215247   5.162   3.903   3.386 -0.0535  0.0316 -0.3458
 5081TIP3   OH215248   2.994   4.229   4.640 -0.4343  0.2357 -0.3693
 5081TIP3    H115249   2.989   4.200   4.731 -0.6255  1.1702 -0.0697
 5081TIP3    H215250   3.058   4.171   4.600  0.6233  0.6225  0.6903
 5082TIP3   OH215251   6.321   3.754   1.799  0.0520 -0.4336  0.0129
 5082TIP3    H115252   6.398   3.746   1.742  0.7310 -0.8802  0.9575
 5082TIP3    H215253   6.285   3.840   1.779  1.1616  0.0450 -0.0127
 5083TIP3   OH215254   2.484   1.726   4.831  0.5906 -0.0409 -0.6455
 5083TIP3    H115255   2.478   1.820   4.816 -1.0620  0.2048  1.1657
 5083TIP3    H215256   2.540   1.717   4.908 -1.3128 -0.3086  0.7705
 5084TIP3   OH215257   1.027   0.117   0.434  0.1789 -0.0022  0.5839
 5084TIP3    H115258   1.116   0.096   0.404  0.6183 -0.3090  2.0102
 5084TIP3    H215259   0.997   0.185   0.374  0.2953 -1.7922 -1.6366
 5085TIP3   OH215260   0.052  -0.012   3.999 -0.0112 -0.2087 -0.3433
 5085TIP3    H115261  -0.027   0.020   3.954 -0.4163 -0.4908  0.1573
 5085TIP3    H215262   0.030  -0.007   4.092  0.8188  0.3551 -0.1661
 5086TIP3   OH215263   2.618   3.079   1.975 -0.2118  0.0292  0.5143
 5086TIP3    H115264   2.622   3.018   1.902 -2.3586  1.6242 -1.0720
 5086TIP3    H215265   2.706   3.114   1.982  0.0902 -0.3095 -1.1868
 5087TIP3   OH215266   2.599   0.382   3.498  0.0779  0.0864 -0.0013
 5087TIP3    H115267   2.572   0.337   3.578  0.0691 -0.4228 -0.2853
 5087TIP3    H215268   2.625   0.470   3.527 -2.3809  0.8003  0.2132
 5088TIP3   OH215269   5.467   0.977   5.164  0.3269  0.2818 -0.1409
 5088TIP3    H115270   5.427   1.006   5.246  0.5172 -2.1570  0.9042
 5088TIP3    H215271   5.395   0.942   5.112  0.3270  1.0938 -0.7170
 5089TIP3   OH215272   4.590   1.108   2.518 -0.0985  0.3892  0.6112
 5089TIP3    H115273   4.615   1.191   2.558  0.4917 -0.8112  2.8808
 5089TIP3    H215274   4.650   1.098   2.444  2.4894  0.2257  2.5985
 5090TIP3   OH215275   0.768   2.802   1.620 -0.1847  0.0241 -0.0998
 5090TIP3    H115276   0.712   2.734   1.583 -1.8508  0.2799  1.7435
 5090TIP3    H215277   0.854   2.761   1.629 -1.1023 -1.8254  0.8386
 5091TIP3   OH215278   6.335   4.550   1.181 -0.3868 -0.2786 -0.7071
 5091TIP3    H115279   6.364   4.539   1.090 -0.2730 -0.2378 -0.6747
 5091TIP3    H215280   6.272   4.623   1.177  0.7340  0.7266 -0.5098
 5092TIP3   OH215281   4.965   5.490   4.450 -0.0097 -0.1775  0.5171
 5092TIP3    H115282   4.891   5.447   4.494 -0.5400  0.3140  0.1244
 5092TIP3    H215283   4.962   5.457   4.361 -1.4356  1.8521 -0.2613
 5093TIP3   OH215284   2.849   4.671   1.520 -0.3853  0.4878  0.0003
 5093TIP3    H115285   2.796   4.672   1.599  0.0457  1.2373  0.2915
 5093TIP3    H215286   2.933   4.710   1.546  0.2765 -0.5496 -0.4852
 5094TIP3   OH215287   4.081   0.268   2.036 -0.8044 -0.5088  0.0440
 5094TIP3    H115288   4.109   0.184   2.070 -1.1377 -0.5910  0.1138
 5094TIP3    H215289   4.034   0.310   2.109  1.6758  0.8992  0.9652
 5095TIP3   OH215290   5.794   3.107   0.107 -0.1264 -0.2844  0.1019
 5095TIP3    H115291   5.852   3.158   0.050  1.0459  1.3128  2.5457
 5095TIP3    H215292   5.820   3.016   0.093  2.3618  0.3229  0.4246
 5096TIP3   OH215293   3.807   5.944   4.114 -0.2917 -0.1215  0.8827
 5096TIP3    H115294   3.783   6.037   4.110  0.5326  0.0965  0.8913
 5096TIP3    H215295   3.890   5.942   4.161  0.6503 -0.6717 -0.7066
 5097TIP3   OH215296   5.952   3.491   1.373  0.1897  0.0439 -0.1831
 5097TIP3    H115297   6.005   3.564   1.406  0.7036  0.0754 -1.0597
 5097TIP3    H215298   5.913   3.524   1.293  2.8307 -1.5547 -2.2916
 5098TIP3   OH215299   4.531   2.575   1.534  0.0121  0.2081  0.4181
 5098TIP3    H115300   4.601   2.519   1.568  0.4409  1.1076  1.0656
 5098TIP3    H215301   4.567   2.664   1.541 -0.3047  0.5155 -1.3836
 5099TIP3   OH215302   5.104   2.290   2.828 -0.6320  0.4116 -0.2459
 5099TIP3    H115303   5.045   2.336   2.888 -1.3842 -0.3229 -0.4229
 5099TIP3    H215304   5.174   2.354   2.811 -1.2012  1.1741  0.2085
 5100TIP3   OH215305   2.873   2.171   2.310  0.1327  0.8114 -0.1143
 5100TIP3    H115306   2.820   2.142   2.384  1.0581  0.1291  0.2986
 5100TIP3    H215307   2.902   2.259   2.334 -1.1063  1.3461 -0.5154
 5101TIP3   OH215308   0.949   1.794   3.343 -0.1669 -0.7376 -0.2532
 5101TIP3    H115309   0.934   1.711   3.299 -0.3218 -1.4502  1.0871
 5101TIP3    H215310   0.876   1.803   3.405 -0.2683  0.5004 -0.5243
 5102TIP3   OH215311   2.710   1.128   0.278  0.0855  0.0011  0.0373
 5102TIP3    H115312   2.759   1.067   0.334 -0.0837  0.8881  1.1863
 5102TIP3    H215313   2.618   1.102   0.290 -0.0113  0.5997  0.7306
 5103TIP3   OH215314   2.305   1.875   2.457  0.3937 -0.0732  0.0933
 5103TIP3    H115315   2.215   1.901   2.439  1.1147  2.9304  0.2788
 5103TIP3    H215316   2.335   1.836   2.375  0.0329  2.4991 -1.3961
 5104TIP3   OH215317   6.222   4.310   1.381  0.4179 -0.1583  0.1603
 5104TIP3    H115318   6.276   4.298   1.302  0.5643 -0.1624  0.2608
 5104TIP3    H215319   6.198   4.403   1.379  0.2563 -0.2040  0.0046
 5105TIP3   OH215320   0.891   1.788   0.130 -0.3632 -0.1076 -0.1662
 5105TIP3    H115321   0.966   1.841   0.103  1.7029 -3.3603 -1.4242
 5105TIP3    H215322   0.907   1.768   0.222  0.4471 -0.9257 -0.4747
 5106TIP3   OH215323   3.926   0.047   1.907 -0.7595  0.2275 -0.4607
 5106TIP3    H115324   3.851   0.103   1.884 -0.5915  0.0562 -1.4419
 5106TIP3    H215325   3.963   0.089   1.985 -1.8917  0.3002  0.0704
 5107TIP3   OH215326   2.440   4.545   1.592 -0.0715  0.0155  0.2536
 5107TIP3    H115327   2.468   4.507   1.675  1.2747 -1.8534 -0.9863
 5107TIP3    H215328   2.505   4.614   1.575  0.6083 -0.6832 -0.0118
 5108TIP3   OH215329   5.433   3.321   1.218 -0.1922  0.1131  0.2976
 5108TIP3    H115330   5.524   3.341   1.239  0.2631 -2.6383  1.4636
 5108TIP3    H215331   5.383   3.359   1.290 -0.0253  1.7443 -0.4105
 5109TIP3   OH215332   1.652   2.532   1.729  0.0102 -0.1851 -0.4492
 5109TIP3    H115333   1.611   2.474   1.793  3.6858 -0.2239  2.1941
 5109TIP3    H215334   1.712   2.586   1.780  2.3045  0.6973 -3.7374
 5110TIP3   OH215335   1.100   5.943   3.684  0.0932  0.1844 -0.2728
 5110TIP3    H115336   1.131   5.861   3.647 -0.1603  0.3975 -0.9768
 5110TIP3    H215337   1.178   5.998   3.691 -0.2573  1.4086 -3.8079
 5111TIP3   OH215338   5.494   2.911   3.087 -0.1371 -0.4147  0.3776
 5111TIP3    H115339   5.527   2.914   2.997 -1.5919 -0.3417 -0.1817
 5111TIP3    H215340   5.563   2.951   3.139  0.5176  0.0125 -0.7765
 5112TIP3   OH215341   5.324   5.296   1.386 -0.0278 -0.4829 -0.0832
 5112TIP3    H115342   5.229   5.300   1.374  0.1180 -2.2504 -2.1930
 5112TIP3    H215343   5.340   5.211   1.425  0.6868  0.0130  0.7521
 5113TIP3   OH215344   2.404   2.722   2.914  0.1100  0.6144 -0.4538
 5113TIP3    H115345   2.401   2.698   3.007 -0.5809  1.6250 -0.1883
 5113TIP3    H215346   2.383   2.641   2.868 -0.7345  0.3563  0.3363
 5114TIP3   OH215347   4.358   0.862   4.269 -0.0220 -0.2353 -0.8630
 5114TIP3    H115348   4.367   0.926   4.198  0.6590  1.0940  0.3677
 5114TIP3    H215349   4.389   0.780   4.231 -1.6286 -0.0734 -2.7275
 5115TIP3   OH215350   1.061   0.178   0.772  0.2682  0.3519  0.6996
 5115TIP3    H115351   0.986   0.187   0.712  0.2647  0.4474  0.7187
 5115TIP3    H215352   1.085   0.085   0.766  0.7232  0.5072  0.0089
 5116TIP3   OH215353   5.917   1.453   1.590  0.3327 -0.2310 -0.3883
 5116TIP3    H115354   5.904   1.393   1.663  2.3997 -0.9647 -0.5889
 5116TIP3    H215355   5.881   1.408   1.515  1.6861 -1.1677 -0.4991
 5117TIP3   OH215356   3.501   1.136   1.380  0.1799  0.1069 -0.4308
 5117TIP3    H115357   3.481   1.113   1.471 -1.9916  1.5378 -0.4747
 5117TIP3    H215358   3.448   1.076   1.328  2.1504 -1.3752 -0.8673
 5118TIP3   OH215359   4.026   4.650   1.455 -0.1125  0.4579 -0.0681
 5118TIP3    H115360   3.963   4.719   1.479  0.6925  0.8828  0.8655
 5118TIP3    H215361   4.088   4.694   1.397 -0.0162  0.3285 -0.0620
 5119TIP3   OH215362   1.641   0.712   5.073  0.8431  0.2798 -0.5100
 5119TIP3    H115363   1.694   0.741   4.999  1.2991  0.8834  0.0368
 5119TIP3    H215364   1.618   0.621   5.052 -0.5289  0.9788 -2.2183
 5120TIP3   OH215365   0.339   2.554   4.514  0.5942  0.3204 -0.1157
 5120TIP3    H115366   0.414   2.612   4.528  1.9835 -1.3238 -0.3766
 5120TIP3    H215367   0.336   2.541   4.419  2.2123 -2.3055  0.0870
 5121TIP3   OH215368   3.586   0.659   1.272  0.1941  0.4102 -0.1297
 5121TIP3    H115369   3.639   0.579   1.268 -0.3432 -0.0375  1.0464
 5121TIP3    H215370   3.516   0.645   1.209 -0.2672 -0.3569  0.5264
 5122TIP3   OH215371   2.403   1.383   4.637 -0.2173  0.2086  0.0481
 5122TIP3    H115372   2.442   1.455   4.587  1.2044  0.4999  1.5173
 5122TIP3    H215373   2.310   1.405   4.640  0.1437  1.8635  0.2352
 5123TIP3   OH215374   1.948   4.141   3.477 -0.6806 -0.0780 -0.5975
 5123TIP3    H115375   1.907   4.211   3.528 -1.6618 -1.0209 -0.0605
 5123TIP3    H215376   2.035   4.176   3.455 -0.5390  0.6791  0.9995
 5124TIP3   OH215377   2.931   1.851   3.940  0.2307  0.2923 -0.1014
 5124TIP3    H115378   2.940   1.946   3.928  2.3322  0.6457  3.1085
 5124TIP3    H215379   3.018   1.816   3.919  0.1765 -0.5826  1.0630
 5125TIP3   OH215380   2.357   3.958   3.571 -0.4534 -0.2581 -0.1422
 5125TIP3    H115381   2.296   3.991   3.638 -0.3481  1.7466 -0.9932
 5125TIP3    H215382   2.300   3.913   3.508 -0.8048 -0.1343  0.0799
 5126TIP3   OH215383   6.045   1.178   1.040 -0.5001  0.0261  0.8551
 5126TIP3    H115384   6.044   1.140   1.128  0.1315  0.5653  1.1053
 5126TIP3    H215385   6.137   1.197   1.022 -0.4875 -1.0703 -0.3804
 5127TIP3   OH215386   1.024   2.607   3.290  0.1695  0.7560  0.4701
 5127TIP3    H115387   1.060   2.527   3.251 -1.7851  0.2865 -0.4818
 5127TIP3    H215388   1.060   2.609   3.379 -0.8563 -1.9874  1.0376
 5128TIP3   OH215389   2.307   5.594   4.851 -0.3657 -0.0642  0.2429
 5128TIP3    H115390   2.275   5.581   4.762 -0.4897 -1.7126  0.5011
 5128TIP3    H215391   2.228   5.591   4.906 -0.2843  0.8832  0.4282
 5129TIP3   OH215392   5.647   4.599   1.653 -0.8252 -0.0906 -0.0171
 5129TIP3    H115393   5.657   4.671   1.714 -0.1048 -0.6193  0.5051
 5129TIP3    H215394   5.684   4.632   1.571 -2.2519  0.7957 -0.3312
 5130TIP3   OH215395   3.021   5.609   2.934 -0.0451  0.9226  0.1170
 5130TIP3    H115396   3.021   5.698   2.971 -0.0565  0.7285  0.5972
 5130TIP3    H215397   3.105   5.601   2.890 -0.0329  1.1655  0.0935
 5131TIP3   OH215398   1.880   4.668   4.308  0.0765 -0.5721 -0.2482
 5131TIP3    H115399   1.839   4.730   4.247  0.8811  0.1966 -0.0358
 5131TIP3    H215400   1.831   4.587   4.297  0.7946 -0.7668 -2.6452
 5132TIP3   OH215401   4.348   4.876   4.305  0.9133  0.0020 -0.3549
 5132TIP3    H115402   4.439   4.860   4.279  0.7277  0.6297 -1.4543
 5132TIP3    H215403   4.296   4.824   4.244  0.5059  0.6591 -0.5828
 5133TIP3   OH215404   4.240   5.395   2.147 -0.1175  0.3408 -0.1623
 5133TIP3    H115405   4.206   5.484   2.154  0.8569  0.6781  0.4015
 5133TIP3    H215406   4.253   5.382   2.053 -0.9641  0.5148 -0.3129
 5134TIP3   OH215407   3.329   0.089   2.852 -0.1854  0.1250  0.2591
 5134TIP3    H115408   3.314   0.168   2.904 -0.2812  0.5842 -0.4579
 5134TIP3    H215409   3.302   0.113   2.764  1.4400 -0.1233 -0.3444
 5135TIP3   OH215410   1.897   4.820   0.896 -0.1850  0.0741 -0.2018
 5135TIP3    H115411   1.876   4.905   0.933 -0.5268 -0.1923  0.2252
 5135TIP3    H215412   1.812   4.776   0.887  0.0410 -0.4555  0.1684
 5136TIP3   OH215413   3.707   0.007   3.757  0.3734 -0.0740 -0.0000
 5136TIP3    H115414   3.704   0.103   3.753  1.6042 -0.0232 -0.0027
 5136TIP3    H215415   3.797  -0.013   3.782  0.6761 -1.2991 -1.9390
 5137TIP3   OH215416   0.475   0.329   3.198 -0.0480 -0.4281 -0.1933
 5137TIP3    H115417   0.528   0.399   3.236  0.3643 -0.0495 -1.4005
 5137TIP3    H215418   0.400   0.320   3.256  0.4558  0.2601  0.5729
 5138TIP3   OH215419   6.066   0.429   3.273 -0.0138  0.2121 -0.8760
 5138TIP3    H115420   6.149   0.477   3.271 -1.5391  3.1816  0.4377
 5138TIP3    H215421   6.091   0.338   3.290  3.0114  0.6511 -2.2976
 5139TIP3   OH215422   1.165   2.104   2.820 -0.0066  0.4024  0.1947
 5139TIP3    H115423   1.103   2.086   2.890 -0.5673  0.9658 -0.1532
 5139TIP3    H215424   1.150   2.034   2.757  1.7826 -1.2146  1.4473
 5140TIP3   OH215425   1.971   5.049   0.682 -0.5315 -0.0334 -0.1214
 5140TIP3    H115426   2.008   4.967   0.649  0.6058  0.0270  0.9012
 5140TIP3    H215427   2.001   5.053   0.773 -0.0762  1.7892 -0.3201
 5141TIP3   OH215428   0.675   1.954   2.580 -0.3947 -0.1533 -0.1934
 5141TIP3    H115429   0.708   2.001   2.657 -1.0706 -0.6856  0.4379
 5141TIP3    H215430   0.642   2.022   2.522  1.6626  0.4024 -0.8092
 5142TIP3   OH215431   0.700   0.657   4.242  0.0573  0.9132 -0.0095
 5142TIP3    H115432   0.679   0.571   4.207  0.8683  0.3400  0.8381
 5142TIP3    H215433   0.617   0.692   4.274 -0.7859  1.6150 -2.6884
 5143TIP3   OH215434   4.738   5.459   4.844 -0.1602 -0.0643  0.3882
 5143TIP3    H115435   4.807   5.524   4.857  1.2353 -1.6650  1.4497
 5143TIP3    H215436   4.779   5.390   4.792 -0.9317 -1.0623  1.0529
 5144TIP3   OH215437   6.053   1.783   3.002  0.9532  0.5030 -0.0765
 5144TIP3    H115438   6.051   1.688   2.996 -1.3386  0.5074 -0.1730
 5144TIP3    H215439   6.145   1.806   2.986  1.6926 -1.7035  0.6457
 5145TIP3   OH215440   2.155   3.940   3.792  0.6954  0.0719 -0.1066
 5145TIP3    H115441   2.104   4.001   3.845  1.2236  0.4526 -0.0262
 5145TIP3    H215442   2.091   3.877   3.758  0.0273  1.0865 -0.7773
 5146TIP3   OH215443   4.095   3.340   2.195 -0.1077  0.2036  0.6094
 5146TIP3    H115444   4.057   3.303   2.116  2.0104 -0.2401 -0.2690
 5146TIP3    H215445   4.024   3.338   2.259 -1.2721 -1.4319 -0.6484
 5147TIP3   OH215446   4.395   0.329   0.090 -0.8806  0.1049  0.3331
 5147TIP3    H115447   4.432   0.252   0.047  0.3328  0.3696  0.8502
 5147TIP3    H215448   4.441   0.403   0.051 -1.7676  0.5513  0.1128
 5148TIP3   OH215449   5.965   2.407   2.053  0.0661  0.3650 -0.0147
 5148TIP3    H115450   5.960   2.483   1.994 -0.2790  0.3243 -0.0343
 5148TIP3    H215451   5.915   2.433   2.130 -2.8362 -1.0075 -1.2751
 5149TIP3   OH215452   1.639   4.641   1.167  0.4105  0.2763 -0.1267
 5149TIP3    H115453   1.723   4.594   1.161 -0.3412 -0.9618 -1.8750
 5149TIP3    H215454   1.644   4.687   1.250  2.3589 -0.6813  0.3654
 5150TIP3   OH215455   4.920   0.844   3.140  0.4279 -0.4028  0.0979
 5150TIP3    H115456   4.979   0.772   3.158 -0.4673 -1.0463  0.5278
 5150TIP3    H215457   4.887   0.827   3.052 -0.3803 -0.9552  0.4991
 5151TIP3   OH215458   4.848   2.642   3.146  0.1944 -0.2831  0.7564
 5151TIP3    H115459   4.817   2.696   3.073  0.9256  0.0755  0.6921
 5151TIP3    H215460   4.771   2.594   3.176 -0.3517  0.3961  0.4592
 5152TIP3   OH215461   5.767   2.965   3.178  0.4929  0.3885 -0.1216
 5152TIP3    H115462   5.856   2.932   3.194  0.4087 -0.9879 -2.0604
 5152TIP3    H215463   5.780   3.049   3.136  0.8446  0.6452  0.4863
 5153TIP3   OH215464   4.403   2.324   3.587  0.6247  0.1653 -0.3321
 5153TIP3    H115465   4.324   2.285   3.626  1.6950 -2.1197 -0.2705
 5153TIP3    H215466   4.424   2.266   3.514  2.3311  0.6516 -0.2574
 5154TIP3   OH215467   3.737   2.049   4.368 -0.0694 -0.0037  0.1254
 5154TIP3    H115468   3.741   2.099   4.449  1.8168 -2.0675  1.4184
 5154TIP3    H215469   3.828   2.043   4.340 -0.3584 -1.8170 -0.5232
 5155TIP3   OH215470   4.032   4.457   1.179 -1.0060 -0.5482 -0.0245
 5155TIP3    H115471   4.017   4.453   1.273  1.3145 -0.7618  0.3827
 5155TIP3    H215472   4.002   4.544   1.153 -2.1965 -0.6913  0.7605
 5156TIP3   OH215473   4.241   1.337   4.974  0.0676 -0.2523  0.0102
 5156TIP3    H115474   4.239   1.358   4.881  0.4378 -1.8639 -0.3927
 5156TIP3    H215475   4.219   1.244   4.978  1.9977 -0.7007  1.3571
 5157TIP3   OH215476   6.138   0.660   3.713  0.0233  0.1087  0.4596
 5157TIP3    H115477   6.157   0.665   3.807 -0.1893  0.9122  0.4666
 5157TIP3    H215478   6.158   0.569   3.689 -1.5445 -0.6051  1.6335
 5158TIP3   OH215479   4.256   5.075   1.008 -0.5122  0.1566 -0.0023
 5158TIP3    H115480   4.202   5.110   0.938 -0.7152  0.8948  0.5125
 5158TIP3    H215481   4.291   5.152   1.053  0.5406 -0.3041  0.0129
 5159TIP3   OH215482   5.239   4.341   1.512 -0.2702 -0.5174  0.2485
 5159TIP3    H115483   5.323   4.359   1.555  0.5782 -0.3016 -1.4292
 5159TIP3    H215484   5.219   4.421   1.463 -0.1997 -1.4250 -1.3308
 5160TIP3   OH215485   3.352   1.862   3.735  0.1798  0.2290 -0.1873
 5160TIP3    H115486   3.438   1.858   3.776  0.5017  0.8926 -0.7817
 5160TIP3    H215487   3.352   1.945   3.687  0.0522 -0.8515 -2.1089
 5161TIP3   OH215488   6.144   5.289   1.550  0.2678  0.1812 -0.4131
 5161TIP3    H115489   6.061   5.271   1.594  0.6363 -1.3838 -0.3025
 5161TIP3    H215490   6.126   5.273   1.458  0.0067  1.5846 -0.6334
 5162TIP3   OH215491   4.822   4.266   3.368  0.0178 -0.1568  0.1217
 5162TIP3    H115492   4.741   4.243   3.413 -0.5853 -1.9154 -1.7066
 5162TIP3    H215493   4.807   4.355   3.336 -1.7622 -0.8754 -1.2485
 5163TIP3   OH215494   5.811   0.179   3.607  0.1965  0.0100 -0.0598
 5163TIP3    H115495   5.746   0.118   3.641 -1.2840  1.1034 -0.7882
 5163TIP3    H215496   5.761   0.239   3.552  2.1457 -0.4459 -2.5524
 5164TIP3   OH215497   2.317   2.626   0.368 -0.2024  0.4217  0.9389
 5164TIP3    H115498   2.304   2.687   0.441  0.2883  2.6056 -0.6891
 5164TIP3    H215499   2.355   2.680   0.298  3.8621 -2.4792  0.5634
 5165TIP3   OH215500   4.574   3.760   3.047  0.1144  0.3031  0.2724
 5165TIP3    H115501   4.615   3.846   3.043  0.2943  0.2640  1.1031
 5165TIP3    H215502   4.544   3.752   3.138 -0.2682 -0.3392  0.0969
 5166TIP3   OH215503   4.792   3.179   0.431  0.0623 -0.7408 -0.1337
 5166TIP3    H115504   4.703   3.208   0.412 -0.2105 -1.1751  0.4299
 5166TIP3    H215505   4.848   3.249   0.398 -0.3382 -1.4578 -2.5543
 5167TIP3   OH215506   3.973   2.480   2.562  0.1085 -0.3082 -0.3005
 5167TIP3    H115507   4.064   2.452   2.565 -0.5417 -2.6179 -0.2093
 5167TIP3    H215508   3.977   2.574   2.543  2.5295  0.2034  2.1578
 5168TIP3   OH215509   2.178   4.516   2.775 -0.0331 -0.5102 -0.0070
 5168TIP3    H115510   2.246   4.469   2.727 -0.1422 -0.3456 -0.3214
 5168TIP3    H215511   2.134   4.448   2.826  0.0257 -0.6964 -0.2026
 5169TIP3   OH215512   4.653   0.129   2.090  0.2007  0.3909  1.0065
 5169TIP3    H115513   4.643   0.197   2.157 -0.2684  0.3344  1.0035
 5169TIP3    H215514   4.563   0.106   2.067  0.3373  1.0416 -0.2863
 5170TIP3   OH215515   1.678   1.726   0.390 -0.3264 -0.1329 -0.0590
 5170TIP3    H115516   1.673   1.820   0.406  0.1562 -0.2342  0.7195
 5170TIP3    H215517   1.734   1.718   0.312 -0.4053  0.2284 -0.1537
 5171TIP3   OH215518   5.375   3.461   1.468  0.1596  0.1715  0.5645
 5171TIP3    H115519   5.294   3.504   1.441  0.5908  0.8038  0.2449
 5171TIP3    H215520   5.431   3.532   1.499  0.2740 -0.3608  1.6258
 5172TIP3   OH215521   3.330   0.150   0.221 -0.5225  0.0433  0.5385
 5172TIP3    H115522   3.313   0.114   0.134 -1.3309 -0.6912  0.9842
 5172TIP3    H215523   3.409   0.203   0.210 -1.0365  0.5722 -0.8029
 5173TIP3   OH215524   2.465   3.076   0.404 -0.2340  0.1579  0.2646
 5173TIP3    H115525   2.519   3.153   0.389  0.5993 -0.5507 -0.4237
 5173TIP3    H215526   2.472   3.024   0.324 -0.7730 -0.6499  0.7137
 5174TIP3   OH215527   0.383   0.633   2.652  0.3021  0.3102  0.4306
 5174TIP3    H115528   0.435   0.706   2.686 -0.8556  1.4816 -0.1994
 5174TIP3    H215529   0.362   0.660   2.562 -0.5944 -0.5645  0.3732
 5175TIP3   OH215530   0.895   0.345   4.773 -1.0007  0.4459 -0.3876
 5175TIP3    H115531   0.873   0.427   4.817  1.6383  2.1225 -1.9135
 5175TIP3    H215532   0.879   0.362   4.680 -0.7739 -0.8908 -0.6971
 5176TIP3   OH215533   5.529   2.321   3.967  0.4654  0.5037  0.1280
 5176TIP3    H115534   5.540   2.349   4.058  2.5134  0.6837 -0.1266
 5176TIP3    H215535   5.434   2.316   3.955  0.1386  0.7369  2.1828
 5177TIP3   OH215536   6.010   3.294   0.058 -0.0103 -0.1174  0.0784
 5177TIP3    H115537   6.069   3.255   0.123 -0.4939 -0.7837  0.1271
 5177TIP3    H215538   6.053   3.376   0.033 -0.2235  0.5864  1.8712
 5178TIP3   OH215539   5.312   3.642   3.251 -0.4594  0.7480  0.5348
 5178TIP3    H115540   5.306   3.700   3.175 -1.8662 -1.2298 -0.9995
 5178TIP3    H215541   5.270   3.690   3.322 -1.6964  1.5862 -0.7157
 5179TIP3   OH215542   5.174   4.170   4.698  0.8754  0.1422 -0.2681
 5179TIP3    H115543   5.167   4.218   4.615  1.1651 -0.0325 -0.3936
 5179TIP3    H215544   5.220   4.230   4.757  0.6086  0.2932 -0.2114
 5180TIP3   OH215545   3.202   4.316   2.325 -0.2114 -0.1798  0.3649
 5180TIP3    H115546   3.191   4.221   2.323 -0.3339 -0.1633  0.2436
 5180TIP3    H215547   3.293   4.330   2.298 -0.5498 -0.1991 -0.8278
 5181TIP3   OH215548   4.780   0.218   3.916  0.8608  0.2538  0.2763
 5181TIP3    H115549   4.792   0.313   3.908  1.2094  0.1326 -0.7108
 5181TIP3    H215550   4.794   0.201   4.009  6.2684  0.4841 -0.1779
 5182TIP3   OH215551   5.324   5.458   4.121 -0.6972 -0.2172 -0.4029
 5182TIP3    H115552   5.362   5.398   4.057 -2.1471 -2.1217  0.4337
 5182TIP3    H215553   5.355   5.544   4.094  4.2747 -1.5037  0.2543
 5183TIP3   OH215554   5.799   4.187   0.381 -0.1334 -0.3514 -0.1890
 5183TIP3    H115555   5.772   4.142   0.301 -1.9495 -1.4416  0.9784
 5183TIP3    H215556   5.895   4.188   0.376 -0.1128 -2.3798 -1.3418
 5184TIP3   OH215557   4.420   4.061   2.454 -0.0885 -0.2938  0.0878
 5184TIP3    H115558   4.400   4.132   2.394 -1.5748  0.4770  1.4298
 5184TIP3    H215559   4.417   4.101   2.541  2.7293 -1.2027  0.7200
 5185TIP3   OH215560   0.283   2.244   1.041  0.2769 -0.3431  0.4026
 5185TIP3    H115561   0.199   2.204   1.064  0.0573  0.3505  0.8182
 5185TIP3    H215562   0.299   2.213   0.951 -1.4890  1.2172 -0.5324
 5186TIP3   OH215563   0.305   0.339   0.490  0.1748  0.0911 -0.6183
 5186TIP3    H115564   0.237   0.333   0.557  2.4967 -3.6187  1.8620
 5186TIP3    H215565   0.259   0.329   0.407 -2.5291  0.8917  0.6789
 5187TIP3   OH215566   4.545   1.640   1.978 -0.5641 -0.1935 -0.2779
 5187TIP3    H115567   4.564   1.666   2.068 -0.2056  1.0742 -0.7003
 5187TIP3    H215568   4.476   1.700   1.949  1.8129  1.9458 -1.9963
 5188TIP3   OH215569   2.948   4.073   4.879 -0.0679 -0.3460  1.1486
 5188TIP3    H115570   2.941   3.984   4.847  1.0076 -0.2018  0.4378
 5188TIP3    H215571   2.924   4.068   4.971  0.7440 -1.5224  1.3200
 5189TIP3   OH215572   1.683   5.713   1.543 -0.7833 -0.7633 -0.0592
 5189TIP3    H115573   1.666   5.745   1.632  0.6888  0.8222 -0.2857
 5189TIP3    H215574   1.748   5.643   1.555 -0.0150 -0.0366  0.0724
 5190TIP3   OH215575   3.741   0.230   1.895 -0.1431 -0.7918  0.0285
 5190TIP3    H115576   3.768   0.315   1.862 -1.1903 -0.3915  0.1713
 5190TIP3    H215577   3.659   0.211   1.849 -0.8370 -0.9096  1.2546
 5191TIP3   OH215578   1.964   0.634   4.382 -0.4800  0.0850 -0.7455
 5191TIP3    H115579   2.038   0.587   4.344 -0.5995 -1.7964  1.1529
 5191TIP3    H215580   2.004   0.699   4.440 -0.3023 -0.3518 -0.3752
 5192TIP3   OH215581   3.805   5.376   4.512 -0.4584  0.0059 -0.1232
 5192TIP3    H115582   3.868   5.370   4.440 -0.3453  0.9935 -0.1269
 5192TIP3    H215583   3.852   5.344   4.589 -0.6222 -1.1829 -0.4932
 5193TIP3   OH215584   0.351   1.014   1.221 -0.1340  0.2679 -0.3184
 5193TIP3    H115585   0.357   0.964   1.140 -2.1000 -0.7286  0.0959
 5193TIP3    H215586   0.388   0.956   1.288  0.3939  0.6176 -0.2982
 5194TIP3   OH215587   4.479   4.576   3.011  0.1778  0.6543  0.0837
 5194TIP3    H115588   4.438   4.567   3.097 -0.4930  1.5286 -0.1346
 5194TIP3    H215589   4.407   4.569   2.949  0.7495 -0.7397 -0.4751
 5195TIP3   OH215590   1.571   0.206   5.135  0.0048 -0.3462 -0.4091
 5195TIP3    H115591   1.631   0.147   5.091  2.0881  1.2277  0.1696
 5195TIP3    H215592   1.492   0.205   5.081  0.2669 -2.8995 -0.8924
 5196TIP3   OH215593   5.044   0.711   2.915 -0.4210  0.1552  0.9862
 5196TIP3    H115594   5.060   0.799   2.881  0.5383 -0.4020 -0.0661
 5196TIP3    H215595   5.111   0.699   2.982  0.8389 -0.5299 -0.3420
 5197TIP3   OH215596   3.577   3.531   3.809 -0.3881 -0.0367  0.3126
 5197TIP3    H115597   3.531   3.610   3.783 -0.5269 -0.5124 -0.9521
 5197TIP3    H215598   3.553   3.466   3.743  0.6691 -0.8054  0.6511
 5198TIP3   OH215599   6.283   3.780   3.032  0.3621 -0.0333  0.4849
 5198TIP3    H115600   6.367   3.810   3.066 -0.2845  0.7456  1.4484
 5198TIP3    H215601   6.249   3.721   3.099 -0.4452  0.6913  0.7324
 5199TIP3   OH215602   1.784   1.814   2.148  0.3057  0.0919  0.4852
 5199TIP3    H115603   1.853   1.749   2.158 -0.3237 -0.5713  0.5818
 5199TIP3    H215604   1.703   1.766   2.166 -0.2938  0.5673 -0.8239
 5200TIP3   OH215605   0.507   4.878   0.952 -0.6102 -0.0035 -0.5093
 5200TIP3    H115606   0.413   4.871   0.939 -0.8404  1.8001 -0.1273
 5200TIP3    H215607   0.518   4.949   1.015  1.0664  1.5634 -2.3958
 5201TIP3   OH215608   5.191   3.560   3.538  0.3836  0.0391  0.7964
 5201TIP3    H115609   5.210   3.629   3.602 -2.8347  0.4610  1.4692
 5201TIP3    H215610   5.138   3.603   3.471 -1.7240 -1.6680  1.2365
 5202TIP3   OH215611   2.049   1.167   0.806 -0.0722 -0.1062  0.4548
 5202TIP3    H115612   2.118   1.232   0.814  2.5827 -2.2492 -2.6517
 5202TIP3    H215613   2.023   1.171   0.714 -1.0450 -2.2330  0.5818
 5203TIP3   OH215614   4.996   4.720   4.369 -0.1398 -0.1383 -0.3526
 5203TIP3    H115615   4.946   4.651   4.326 -1.3293 -0.2206  1.1309
 5203TIP3    H215616   4.974   4.714   4.461  0.8680  1.2942  0.0318
 5204TIP3   OH215617   1.246   5.776   2.446  0.0316 -0.5806  0.3131
 5204TIP3    H115618   1.263   5.723   2.368 -2.1821 -0.1528 -0.5365
 5204TIP3    H215619   1.311   5.746   2.510  2.1238 -0.7436 -1.7367
 5205TIP3   OH215620   1.637   1.081   3.247 -0.0735 -0.7665 -0.0777
 5205TIP3    H115621   1.636   1.048   3.337 -2.5721  0.0296  0.2871
 5205TIP3    H215622   1.632   1.177   3.257  1.7716 -0.5252 -1.0979
 5206TIP3   OH215623   3.676   2.904   4.665  0.3999 -0.6425  0.8584
 5206TIP3    H115624   3.631   2.848   4.601 -2.9388  1.2199  1.3344
 5206TIP3    H215625   3.623   2.897   4.744 -0.1668  2.9994  0.9583
 5207TIP3   OH215626   6.333   2.193   2.392  0.0350 -0.0722  0.0825
 5207TIP3    H115627   6.326   2.288   2.400 -0.6862 -0.2128  1.3750
 5207TIP3    H215628   6.282   2.172   2.313  1.1995  0.7051 -0.9092
 5208TIP3   OH215629   6.077   4.584   0.053  0.2345 -0.0655  0.1872
 5208TIP3    H115630   6.078   4.499   0.096  0.3877  0.1085  0.5333
 5208TIP3    H215631   6.054   4.565  -0.037 -2.3355 -0.2268  0.8131
 5209TIP3   OH215632   4.438   2.673   1.856  0.0027 -0.2805  0.0866
 5209TIP3    H115633   4.443   2.713   1.769 -1.4778 -0.3309 -0.0317
 5209TIP3    H215634   4.355   2.702   1.892  1.2063  0.9288  2.1072
 5210TIP3   OH215635   1.334   5.028   4.304  0.3614  0.0664 -0.2019
 5210TIP3    H115636   1.387   4.948   4.305  0.8071  0.3617  0.1757
 5210TIP3    H215637   1.377   5.086   4.366  0.5458  0.9312 -1.1108
 5211TIP3   OH215638   3.431   2.570   4.869  0.3259 -0.4088  0.1482
 5211TIP3    H115639   3.434   2.494   4.810 -0.7380 -0.0131 -0.4454
 5211TIP3    H215640   3.372   2.543   4.940 -0.3688 -0.0076 -0.2689
 5212TIP3   OH215641   2.346   1.388   2.459  0.0509  0.3195  0.2702
 5212TIP3    H115642   2.426   1.335   2.461 -0.3414 -0.2689  2.0204
 5212TIP3    H215643   2.368   1.467   2.509  0.0093  0.8899 -0.5985
 5213TIP3   OH215644   3.199   2.155   0.764  0.0958  0.1385 -0.0525
 5213TIP3    H115645   3.281   2.202   0.777  0.7818 -1.1842  0.7242
 5213TIP3    H215646   3.220   2.086   0.701 -0.9898  1.0939 -1.4979
 5214TIP3   OH215647   4.123   1.178   1.040 -0.0641  0.3140  0.5588
 5214TIP3    H115648   4.039   1.143   1.008  0.4402  0.5038 -1.0570
 5214TIP3    H215649   4.189   1.118   1.006  0.5835  1.1339  0.3338
 5215TIP3   OH215650   3.628   0.749   4.881 -0.6622 -0.0921 -0.1965
 5215TIP3    H115651   3.547   0.723   4.837 -2.8851 -0.9135  3.8882
 5215TIP3    H215652   3.671   0.667   4.905 -1.3101  0.1310  1.9760
 5216TIP3   OH215653   1.407   5.345   2.299 -0.5367  0.1172  0.0938
 5216TIP3    H115654   1.407   5.249   2.303 -1.0743 -0.0063 -1.7831
 5216TIP3    H215655   1.497   5.367   2.275 -0.4778  0.0763  0.2713
 5217TIP3   OH215656   4.356   2.537   4.672  0.9169  0.1097  0.2840
 5217TIP3    H115657   4.349   2.549   4.767 -2.3917 -0.2859  0.2174
 5217TIP3    H215658   4.401   2.453   4.662  1.1793  0.0809  1.5156
 5218TIP3   OH215659   4.070   1.778   4.934 -0.3373 -0.4706 -0.1100
 5218TIP3    H115660   4.077   1.727   5.015 -1.8871 -0.0210  0.3372
 5218TIP3    H215661   4.096   1.716   4.865  2.3361 -0.4806  0.7782
 5219TIP3   OH215662   3.756   3.885   1.308  0.3998  0.6307  0.1056
 5219TIP3    H115663   3.720   3.970   1.334 -1.7305 -0.5235  1.2075
 5219TIP3    H215664   3.767   3.837   1.391  2.5525  0.1368 -0.3938
 5220TIP3   OH215665   0.790   3.950   2.709 -0.5880 -0.8908  0.0994
 5220TIP3    H115666   0.714   3.989   2.752  0.1028  0.6511 -0.0268
 5220TIP3    H215667   0.758   3.924   2.623 -0.9262 -0.0733 -0.0266
 5221TIP3   OH215668   1.765   1.549   0.128 -0.1131  0.7096 -0.2022
 5221TIP3    H115669   1.675   1.582   0.136 -0.5003  0.0680 -1.5791
 5221TIP3    H215670   1.772   1.483   0.196 -1.4446 -0.7586 -1.3926
 5222TIP3   OH215671   1.858   3.387   0.961 -0.0173  0.0055  0.0248
 5222TIP3    H115672   1.827   3.441   1.034  0.1857  1.4463 -0.9144
 5222TIP3    H215673   1.779   3.347   0.925 -0.0554 -1.2015  1.3716
 5223TIP3   OH215674   5.805   1.940   4.451 -0.3066 -0.2465  0.5747
 5223TIP3    H115675   5.818   1.851   4.481 -0.2255 -0.8812 -1.2131
 5223TIP3    H215676   5.893   1.975   4.437 -0.2912 -1.1532 -2.1005
 5224TIP3   OH215677   4.091   4.235   0.829  0.0625 -0.0919 -0.4228
 5224TIP3    H115678   4.039   4.155   0.827  2.5217 -1.8009  0.3949
 5224TIP3    H215679   4.115   4.245   0.921 -0.1272  1.5956 -0.5221
 5225TIP3   OH215680   3.453   5.485   1.340  0.3210 -0.4644  0.0720
 5225TIP3    H115681   3.378   5.545   1.344 -0.0688 -0.9689  0.5092
 5225TIP3    H215682   3.500   5.500   1.422 -1.2224 -2.5649  1.4615
 5226TIP3   OH215683   4.981   2.994   0.707  0.0238  0.1118  0.5047
 5226TIP3    H115684   4.937   2.912   0.732 -1.1538  0.4509 -0.3937
 5226TIP3    H215685   5.013   2.978   0.618 -0.0597  0.5666  0.3909
 5227TIP3   OH215686   4.267   0.086   2.527  0.4682 -0.0353  0.1859
 5227TIP3    H115687   4.198   0.026   2.498  1.4134 -0.4861 -1.2561
 5227TIP3    H215688   4.229   0.131   2.602 -0.9434 -1.1326  0.1844
 5228TIP3   OH215689   4.725   2.377   4.799 -0.4283 -0.3260  0.1327
 5228TIP3    H115690   4.772   2.363   4.882 -0.8419  0.6056  0.5304
 5228TIP3    H215691   4.773   2.447   4.756 -0.9330  0.0202  0.1344
 5229TIP3   OH215692   6.208   1.325   1.778 -0.0167 -0.2271 -0.0652
 5229TIP3    H115693   6.147   1.332   1.851 -0.6147 -1.4583 -0.4138
 5229TIP3    H215694   6.267   1.399   1.788 -0.9056  0.3704  0.9046
 5230TIP3   OH215695   1.591   4.835   1.814 -0.3387 -0.3452  0.3337
 5230TIP3    H115696   1.610   4.854   1.906 -1.3440  1.0931  0.2810
 5230TIP3    H215697   1.661   4.879   1.766 -1.1246  0.9518  0.3343
 5231TIP3   OH215698   3.423   4.865   2.236 -0.0378 -0.1558  0.0296
 5231TIP3    H115699   3.477   4.879   2.313 -0.9683  1.7280  0.3985
 5231TIP3    H215700   3.346   4.819   2.269  1.9830 -4.7165 -0.8053
 5232TIP3   OH215701   3.945   0.137   2.584  0.3868  0.3022  0.2334
 5232TIP3    H115702   3.865   0.154   2.634 -0.8321 -0.4129 -1.3795
 5232TIP3    H215703   3.932   0.183   2.501  0.7262 -1.4802 -0.8577
 5233TIP3   OH215704   1.453   3.902   3.191 -0.1471 -0.6420  0.8538
 5233TIP3    H115705   1.370   3.855   3.189 -0.9839  0.7959  0.8993
 5233TIP3    H215706   1.473   3.920   3.099 -0.2008 -0.4533  0.8785
 5234TIP3   OH215707   1.095   3.705   1.660  0.3100  0.0141  0.0600
 5234TIP3    H115708   1.095   3.616   1.625  2.3784  0.1333 -0.3525
 5234TIP3    H215709   1.026   3.750   1.611  0.1625 -0.9944 -0.6877
 5235TIP3   OH215710   6.132   1.233   2.394 -0.1308 -0.5719  0.4543
 5235TIP3    H115711   6.211   1.201   2.350 -0.0423  0.6787 -0.3348
 5235TIP3    H215712   6.068   1.162   2.383  0.1290 -0.6021 -1.0407
 5236TIP3   OH215713   5.510   3.006   4.325  0.4925 -0.0527  0.3191
 5236TIP3    H115714   5.480   3.091   4.356  1.4933  0.0750  0.9790
 5236TIP3    H215715   5.456   2.988   4.248  0.2709  1.1767  0.1704
 5237TIP3   OH215716   3.034   3.827   0.815  0.3459  0.9436  0.5274
 5237TIP3    H115717   3.127   3.827   0.790  0.1501  0.8874 -0.2330
 5237TIP3    H215718   2.992   3.772   0.749  0.0281 -0.5041  1.8814
 5238TIP3   OH215719   0.109   4.303   0.058 -0.2397  0.0266 -0.6876
 5238TIP3    H115720   0.077   4.353  -0.017  2.1772 -0.3225 -2.0519
 5238TIP3    H215721   0.129   4.369   0.124  3.7522  1.2175 -2.7670
 5239TIP3   OH215722   2.798   3.730   0.680 -0.5914  0.5053  0.4632
 5239TIP3    H115723   2.743   3.773   0.745  0.4636  2.6905 -0.0030
 5239TIP3    H215724   2.777   3.637   0.689 -2.3051  0.9872  2.1647
 5240TIP3   OH215725   5.389   4.678   2.260  0.0203  0.0440  0.4778
 5240TIP3    H115726   5.357   4.749   2.205 -3.2490 -0.4366  1.5723
 5240TIP3    H215727   5.325   4.608   2.250  0.9538 -1.2101  2.5503
 5241TIP3   OH215728   2.789   4.181   3.012  0.4866  0.5576  0.4168
 5241TIP3    H115729   2.775   4.229   2.931 -1.2703 -2.1870 -1.0820
 5241TIP3    H215730   2.854   4.114   2.990 -0.0126 -0.2286  1.2369
 5242TIP3   OH215731   1.889   2.910   3.665 -0.4227  0.1353 -0.1336
 5242TIP3    H115732   1.896   2.897   3.570 -1.0914  0.3539 -0.2129
 5242TIP3    H215733   1.921   2.999   3.679  0.0871 -0.0478 -0.0954
 5243TIP3   OH215734   5.319   1.666   3.600  0.5350 -0.1317  0.3863
 5243TIP3    H115735   5.404   1.705   3.580  0.7689 -0.4422  0.7632
 5243TIP3    H215736   5.293   1.621   3.519  1.7425 -1.8742  0.9059
 5244TIP3   OH215737   6.339   1.133   2.230  0.4126  0.5082  0.3228
 5244TIP3    H115738   6.409   1.162   2.171 -0.3700  0.7418 -0.4987
 5244TIP3    H215739   6.274   1.092   2.172  0.7451 -1.4730  1.2690
 5245TIP3   OH215740   1.254   0.405   4.796  0.0906  0.5088 -0.4851
 5245TIP3    H115741   1.244   0.474   4.862  3.3190 -0.1199  0.8647
 5245TIP3    H215742   1.237   0.449   4.712 -0.8630  2.1832  0.5330
 5246TIP3   OH215743   5.834   1.316   0.448 -0.2624 -0.0207 -0.5713
 5246TIP3    H115744   5.902   1.365   0.493  0.6460 -1.6091 -0.1533
 5246TIP3    H215745   5.753   1.338   0.495  0.4775 -0.7032  1.1056
 5247TIP3   OH215746   2.717   5.230   4.063 -0.3207 -0.3693 -0.4659
 5247TIP3    H115747   2.716   5.307   4.120 -0.4373 -1.6771  1.3824
 5247TIP3    H215748   2.686   5.263   3.978 -1.3463  1.4096  0.5283
 5248TIP3   OH215749   3.972   2.005   2.527 -0.0475  0.0419  0.1125
 5248TIP3    H115750   3.886   2.039   2.502 -0.2057 -0.1451  0.3896
 5248TIP3    H215751   3.998   1.948   2.454 -0.3918 -0.3038  0.2555
 5249TIP3   OH215752   2.410   1.593   1.696 -0.2208  0.6882 -0.0152
 5249TIP3    H115753   2.365   1.659   1.749  0.2382  0.0802  1.1643
 5249TIP3    H215754   2.377   1.509   1.729  1.7169  0.2248  0.8684
 5250TIP3   OH215755   3.512   5.787   4.509 -0.4038 -0.2322 -0.0806
 5250TIP3    H115756   3.525   5.842   4.432 -0.0597  1.0212  0.8434
 5250TIP3    H215757   3.483   5.703   4.473  1.2396 -0.1914 -1.6641
 5251TIP3   OH215758   4.007   5.249   1.048 -0.1135  0.3432  0.3653
 5251TIP3    H115759   3.961   5.186   0.992 -0.0412 -1.8454  2.5879
 5251TIP3    H215760   3.945   5.321   1.057 -0.8272 -0.0415 -1.0690
 5252TIP3   OH215761   2.661   1.880   0.744 -0.5724 -0.0461  0.3777
 5252TIP3    H115762   2.671   1.811   0.678 -1.9229  0.5102 -0.4529
 5252TIP3    H215763   2.695   1.959   0.702  1.8452 -0.3025  1.6563
 5253TIP3   OH215764   5.483   0.813   0.738 -0.2883  0.2395  0.1247
 5253TIP3    H115765   5.527   0.730   0.718 -0.8851  0.5032 -2.7444
 5253TIP3    H215766   5.392   0.789   0.753  0.0158  0.1373  2.0383
 5254TIP3   OH215767   1.248   0.982   2.870  0.5786  0.1032  0.7152
 5254TIP3    H115768   1.159   1.017   2.877  0.2696 -0.3028 -0.9200
 5254TIP3    H215769   1.273   0.996   2.779  2.2412  0.2857  1.1590
 5255TIP3   OH215770   2.589   4.359   1.749 -0.0410  0.5394 -0.2125
 5255TIP3    H115771   2.579   4.286   1.810 -0.4026  0.3313 -0.5144
 5255TIP3    H215772   2.629   4.321   1.671 -1.6767  0.3031 -0.9936
 5256TIP3   OH215773   5.011   2.292   4.354  0.1234  0.3577 -0.2801
 5256TIP3    H115774   5.014   2.278   4.449 -0.0775 -0.2302 -0.3530
 5256TIP3    H215775   5.102   2.309   4.329  0.4094 -0.9168 -0.1801
 5257TIP3   OH215776   5.331   3.758   0.728  0.5743 -0.2872 -0.1689
 5257TIP3    H115777   5.304   3.790   0.642  1.7614 -0.0159 -0.4579
 5257TIP3    H215778   5.313   3.664   0.725 -1.2985  0.0271  0.0554
 5258TIP3   OH215779   3.535   3.900   4.753  0.0189  0.4717 -0.5542
 5258TIP3    H115780   3.607   3.857   4.800 -1.9542 -1.1885  1.1127
 5258TIP3    H215781   3.478   3.828   4.724 -2.5690  1.8058  0.8968
 5259TIP3   OH215782   0.832   3.277   2.807 -0.4116 -0.7543 -0.0103
 5259TIP3    H115783   0.883   3.231   2.874  1.4681  0.5157 -0.4733
 5259TIP3    H215784   0.759   3.315   2.854  1.7334  1.4937  1.7579
 5260TIP3   OH215785   5.903   3.524   2.801 -0.5479 -0.4509  0.2162
 5260TIP3    H115786   5.829   3.464   2.792  0.0350 -1.2976  0.9618
 5260TIP3    H215787   5.887   3.570   2.883 -0.0329 -0.9606  0.6118
 5261TIP3   OH215788   6.093   3.653   1.717  0.3182 -0.1605  0.2145
 5261TIP3    H115789   6.118   3.569   1.678  2.2309  0.0068  0.9847
 5261TIP3    H215790   6.175   3.692   1.747 -0.6079  1.6473  0.5916
 5262TIP3   OH215791   4.593   3.727   2.563 -0.1778 -0.5256  0.0499
 5262TIP3    H115792   4.625   3.654   2.616 -0.2571 -1.2845 -0.9024
 5262TIP3    H215793   4.502   3.740   2.592  0.0932 -0.2494  0.7920
 5263TIP3   OH215794   1.084   0.541   3.605 -0.2010  0.1173  0.6177
 5263TIP3    H115795   1.051   0.627   3.580 -0.4718 -0.5203 -1.3717
 5263TIP3    H215796   1.175   0.557   3.632 -0.1217  0.9721 -0.1139
 5264TIP3   OH215797   2.218   2.959   0.389  0.8960  0.7787 -0.6120
 5264TIP3    H115798   2.259   2.897   0.329  0.0794  0.4988 -0.8912
 5264TIP3    H215799   2.291   3.012   0.422  1.5150  0.1016 -0.8693
 5265TIP3   OH215800   2.373   4.869   3.540  1.0762  0.5293  0.4328
 5265TIP3    H115801   2.325   4.789   3.517 -0.1318  1.1492  0.7575
 5265TIP3    H215802   2.309   4.939   3.531  2.0761  1.4501  0.3391
 5266TIP3   OH215803   3.099   0.278   4.546 -0.4982 -0.1899 -0.1013
 5266TIP3    H115804   3.086   0.369   4.574  1.8555  0.4106 -0.7383
 5266TIP3    H215805   3.192   0.261   4.564 -1.0765 -2.7688  0.7721
 5267TIP3   OH215806   2.243   3.462   0.064  0.1052 -0.1128  0.1295
 5267TIP3    H115807   2.196   3.479   0.145 -1.2601 -1.5178 -0.3169
 5267TIP3    H215808   2.302   3.389   0.085 -0.6670 -0.8647 -0.2705
 5268TIP3   OH215809   1.831   5.839   2.574 -0.1133 -0.5731 -0.0388
 5268TIP3    H115810   1.858   5.820   2.484  1.0572 -0.3145  0.2394
 5268TIP3    H215811   1.819   5.934   2.576  2.4695 -0.1842  0.6991
 5269TIP3   OH215812   3.448   4.741   0.871 -0.1468  0.4131 -0.0677
 5269TIP3    H115813   3.495   4.686   0.809 -0.1046  1.0277 -0.5770
 5269TIP3    H215814   3.364   4.696   0.883  0.2181 -0.2208  0.1870
 5270TIP3   OH215815   0.877   0.533   0.741  0.0590  0.1744  0.7705
 5270TIP3    H115816   0.848   0.442   0.734  0.8203 -0.3029  2.8679
 5270TIP3    H215817   0.811   0.575   0.796  0.9202  0.2390  1.7950
 5271TIP3   OH215818   0.991   4.125   3.210 -0.1740 -0.1490 -0.7272
 5271TIP3    H115819   0.920   4.133   3.146 -0.8178 -0.2544 -0.0328
 5271TIP3    H215820   1.014   4.032   3.209 -0.8567 -0.3344 -0.1041
 5272TIP3   OH215821   4.393   1.829   3.570 -0.0691 -0.2465 -0.3905
 5272TIP3    H115822   4.321   1.891   3.557  1.4823  1.3089 -2.1643
 5272TIP3    H215823   4.390   1.807   3.664 -2.9337 -0.4334 -0.4482
 5273TIP3   OH215824   0.639   0.111   3.378 -0.2804  0.0372  0.2506
 5273TIP3    H115825   0.605   0.169   3.446 -1.9175 -2.1927  1.4473
 5273TIP3    H215826   0.563   0.060   3.350  0.8506 -0.7203 -1.6273
 5274TIP3   OH215827   0.300   5.851   2.350 -0.1425 -0.6002  0.8392
 5274TIP3    H115828   0.384   5.887   2.376 -0.3585 -0.9335  2.0379
 5274TIP3    H215829   0.235   5.910   2.388 -0.5521  1.6849 -2.8719
 5275TIP3   OH215830   5.093   2.790   2.507 -0.5439 -1.0565 -1.0576
 5275TIP3    H115831   5.056   2.829   2.427 -0.9745 -1.2535 -0.9526
 5275TIP3    H215832   5.140   2.712   2.476  0.3915 -0.4241 -1.2796
 5276TIP3   OH215833   0.195   0.865   3.240 -0.3207 -0.0521 -0.1331
 5276TIP3    H115834   0.231   0.792   3.189  1.1253  0.0583  0.6738
 5276TIP3    H215835   0.182   0.934   3.176 -0.2391 -0.5128 -0.6567
 5277TIP3   OH215836   4.022   0.815   5.140  0.7023  0.3696  0.2889
 5277TIP3    H115837   3.951   0.875   5.159  1.2195  0.6383  1.5104
 5277TIP3    H215838   4.085   0.866   5.090  0.1614  0.2049 -0.5654
 5278TIP3   OH215839   4.771   3.205   2.007 -0.0778 -0.2047 -0.2466
 5278TIP3    H115840   4.729   3.215   2.092 -0.7283 -4.1969  0.1244
 5278TIP3    H215841   4.865   3.205   2.026  0.1046  3.6443 -0.3692
 5279TIP3   OH215842   4.432   2.674   1.244  0.1788 -0.4934 -0.0017
 5279TIP3    H115843   4.526   2.658   1.239  0.3819 -1.2833  3.6320
 5279TIP3    H215844   4.393   2.588   1.234 -0.3455 -0.0430 -2.5579
 5280TIP3   OH215845   1.530   5.566   1.991  0.3213 -0.0925 -0.3921
 5280TIP3    H115846   1.508   5.505   1.921 -0.4579 -0.6003  0.2744
 5280TIP3    H215847   1.579   5.636   1.948 -0.4457 -0.2154 -1.5109
 5281TIP3   OH215848   0.467   2.830   1.321  0.0555  0.5222 -0.8177
 5281TIP3    H115849   0.516   2.752   1.345  1.6234  1.9769  0.9692
 5281TIP3    H215850   0.533   2.891   1.288 -0.8648  1.7025 -0.5415
 5282TIP3   OH215851   5.723   2.484   2.254 -0.0761  0.3411 -0.5465
 5282TIP3    H115852   5.802   2.485   2.309 -0.5290  0.4761  0.1038
 5282TIP3    H215853   5.682   2.569   2.268 -0.7987 -0.0588 -0.2093
 5283TIP3   OH215854   5.780   0.830   3.063 -0.6560 -0.4266 -0.3218
 5283TIP3    H115855   5.839   0.791   3.128  0.8697 -0.3373 -1.5893
 5283TIP3    H215856   5.755   0.914   3.101  0.1849 -0.3865  0.1720
 5284TIP3   OH215857   2.559   2.433   2.869 -0.5311 -0.3069  0.4169
 5284TIP3    H115858   2.607   2.466   2.945 -1.1291  0.0284  0.6518
 5284TIP3    H215859   2.470   2.421   2.900 -0.2628 -2.7019  0.5218
 5285TIP3   OH215860   3.615   1.892   0.694 -0.1856 -0.4142 -0.4364
 5285TIP3    H115861   3.667   1.955   0.744  0.0911 -1.3531  0.4998
 5285TIP3    H215862   3.573   1.837   0.761 -0.8638 -0.8703 -1.2159
 5286TIP3   OH215863   5.661   3.335   1.481 -0.2859 -0.1240  0.5277
 5286TIP3    H115864   5.570   3.363   1.496  0.1617  1.3382  0.6386
 5286TIP3    H215865   5.677   3.355   1.389  1.1563  3.5561  1.3972
 5287TIP3   OH215866   0.537   1.963   0.901  0.2738 -0.1096  0.2386
 5287TIP3    H115867   0.480   2.003   0.835 -1.0315 -0.4884  1.0997
 5287TIP3    H215868   0.511   1.871   0.901  0.0476 -0.0506  1.4981
 5288TIP3   OH215869   5.344   3.231   1.605 -0.1787 -0.4116 -0.4586
 5288TIP3    H115870   5.393   3.257   1.683  0.2344 -0.3648 -0.7310
 5288TIP3    H215871   5.331   3.312   1.556  0.1479 -0.5401 -0.7650
 5289TIP3   OH215872   1.693   3.626   3.269 -0.2004  0.6299 -0.0263
 5289TIP3    H115873   1.765   3.673   3.310 -0.8380  2.5327 -0.9837
 5289TIP3    H215874   1.687   3.663   3.180 -1.9690  0.1121 -0.1661
 5290TIP3   OH215875   1.301   0.318   1.537  0.2190  0.2669  0.4908
 5290TIP3    H115876   1.255   0.369   1.604 -0.5322  0.4186 -0.1234
 5290TIP3    H215877   1.276   0.359   1.455  0.3723 -0.5104  0.0475
 5291TIP3   OH215878   4.955   1.287   1.890  0.0246  0.0580 -0.0580
 5291TIP3    H115879   4.955   1.355   1.958 -1.6527 -1.1722  1.2389
 5291TIP3    H215880   4.888   1.316   1.828  1.2662  0.9652 -1.0399
 5292TIP3   OH215881   1.686   2.008   0.120 -0.5856 -0.0254  0.2924
 5292TIP3    H115882   1.623   1.975   0.057 -1.4293  0.4085  0.8941
 5292TIP3    H215883   1.756   1.943   0.120 -0.4717  0.0544 -1.2148
 5293TIP3   OH215884   4.739   2.184   2.845 -0.0343  0.4473 -0.0715
 5293TIP3    H115885   4.773   2.107   2.800  0.9947  0.8107  0.0497
 5293TIP3    H215886   4.705   2.150   2.928  2.7919  0.3754  1.1849
 5294TIP3   OH215887   1.012   1.888   1.329 -0.1117  0.1863  0.1620
 5294TIP3    H115888   0.962   1.815   1.364 -0.7936  0.2425 -0.6748
 5294TIP3    H215889   1.009   1.877   1.234 -1.2358  1.9195 -0.0591
 5295TIP3   OH215890   3.715   5.169   2.742 -0.0407 -0.0038  0.2620
 5295TIP3    H115891   3.789   5.219   2.776  1.1042 -1.8906  0.6345
 5295TIP3    H215892   3.716   5.087   2.791 -1.2073 -0.8626 -1.0643
 5296TIP3   OH215893   4.522   0.713   0.927  0.9450 -0.1082  0.2256
 5296TIP3    H115894   4.481   0.771   0.862 -0.6147 -2.0541 -0.6551
 5296TIP3    H215895   4.451   0.692   0.988  1.4544 -1.0803  0.5020
 5297TIP3   OH215896   3.604   1.741   0.399 -0.9576 -0.4516 -0.0251
 5297TIP3    H115897   3.516   1.759   0.366 -0.4893  1.7299 -0.2090
 5297TIP3    H215898   3.652   1.710   0.322 -1.4465 -1.2774 -0.0084
 5298TIP3   OH215899   2.759   1.885   4.305 -0.0531 -0.0119  0.8281
 5298TIP3    H115900   2.836   1.933   4.276  0.2793 -0.2295  1.3344
 5298TIP3    H215901   2.696   1.895   4.233  1.1604 -1.5498 -0.5566
 5299TIP3   OH215902   0.594   1.613   3.034  0.2134 -0.3023 -0.7510
 5299TIP3    H115903   0.596   1.600   2.939  0.6722  0.0939 -0.7955
 5299TIP3    H215904   0.618   1.528   3.070 -3.2023 -1.4892 -0.9063
 5300TIP3   OH215905   4.068   3.210   2.799  0.1774 -0.3441 -0.0109
 5300TIP3    H115906   4.080   3.284   2.859  0.2307 -0.1176 -0.3010
 5300TIP3    H215907   4.065   3.133   2.857 -2.3123  0.0788  0.5217
 5301TIP3   OH215908   5.908   0.769   4.561 -1.1929  0.2151 -0.4785
 5301TIP3    H115909   5.993   0.738   4.592 -1.0924  0.8451 -0.1013
 5301TIP3    H215910   5.851   0.692   4.566 -0.6893 -0.1693 -0.5820
 5302TIP3   OH215911   6.271   4.329   5.126 -0.8212 -0.0487 -0.2351
 5302TIP3    H115912   6.341   4.390   5.146 -0.1440 -0.8580 -0.0695
 5302TIP3    H215913   6.192   4.383   5.118 -0.3554  0.7576  0.5341
 5303TIP3   OH215914   0.690   0.948   0.331 -0.4285 -0.4497 -0.0139
 5303TIP3    H115915   0.664   0.895   0.406 -1.2871 -0.3833 -0.2506
 5303TIP3    H215916   0.607   0.976   0.291 -0.0256  1.2165  0.2060
 5304TIP3   OH215917   5.074   1.680   0.944 -0.2104  0.8433 -0.4864
 5304TIP3    H115918   5.040   1.595   0.974  2.3527 -0.8071 -1.8732
 5304TIP3    H215919   5.033   1.694   0.859 -1.2353  1.4345  0.0866
 5305TIP3   OH215920   4.897   3.465   3.199  0.7917 -0.0886 -0.8947
 5305TIP3    H115921   4.871   3.431   3.113  0.0634 -1.1482 -0.2770
 5305TIP3    H215922   4.993   3.464   3.197  0.7875 -1.4203 -1.2046
 5306TIP3   OH215923   2.241   0.652   1.614  0.6881 -0.2416  0.0385
 5306TIP3    H115924   2.214   0.713   1.545 -3.0544 -1.9995 -0.3106
 5306TIP3    H215925   2.225   0.699   1.695 -1.6117 -0.4105 -0.2443
 5307TIP3   OH215926   0.712   5.189   2.236 -0.0565 -0.1989 -0.0654
 5307TIP3    H115927   0.701   5.132   2.312 -1.6246 -0.1525 -0.2352
 5307TIP3    H215928   0.715   5.129   2.162 -0.9191 -0.1266 -0.1701
 5308TIP3   OH215929   4.855   2.901   3.893 -0.3449 -0.4283  0.0866
 5308TIP3    H115930   4.861   2.988   3.853  0.1733 -0.2647  0.5064
 5308TIP3    H215931   4.928   2.852   3.854  1.2959  0.2733  2.0955
 5309TIP3   OH215932   1.427   5.775   3.351 -0.1560  0.5351 -0.4291
 5309TIP3    H115933   1.476   5.714   3.296 -0.3368 -0.6343  0.6635
 5309TIP3    H215934   1.424   5.856   3.300 -1.1143 -0.7506 -2.5476
 5310TIP3   OH215935   0.158   5.609   1.034 -0.4197  0.4205 -0.4649
 5310TIP3    H115936   0.154   5.655   1.118 -1.0259  1.4750 -1.0491
 5310TIP3    H215937   0.242   5.637   0.995  1.0392 -1.9171  0.7732
 5311TIP3   OH215938   4.284   2.101   4.415  0.3256 -0.0595 -0.1908
 5311TIP3    H115939   4.251   2.070   4.330 -0.4181  0.2097  0.0007
 5311TIP3    H215940   4.378   2.085   4.410  0.1146 -1.2849 -0.5480
 5312TIP3   OH215941   2.765   4.778   2.850 -0.0131 -0.1794 -0.1967
 5312TIP3    H115942   2.782   4.792   2.757 -0.9738 -1.4815 -0.5990
 5312TIP3    H215943   2.673   4.754   2.855 -0.3612  1.2893  1.2793
 5313TIP3   OH215944   5.032   1.892   5.020  1.1610  0.3257  0.4417
 5313TIP3    H115945   5.081   1.866   4.942  2.7759  0.9877  1.1949
 5313TIP3    H215946   4.990   1.974   4.995  0.8779  0.0479 -0.0249
 5314TIP3   OH215947   4.956   3.750   0.237  0.2060 -0.1121 -0.1838
 5314TIP3    H115948   4.985   3.833   0.200 -3.5905  0.7637 -1.6796
 5314TIP3    H215949   4.899   3.712   0.170  0.2570 -3.0152  1.2430
 5315TIP3   OH215950   2.205   2.760   2.679  0.3067  0.4907 -0.1345
 5315TIP3    H115951   2.273   2.777   2.744  2.9151  2.0225 -3.0144
 5315TIP3    H215952   2.150   2.839   2.681  1.3991  1.2983 -0.8867
 5316TIP3   OH215953   4.849   1.955   2.730  1.0800  0.0573 -0.3831
 5316TIP3    H115954   4.872   1.862   2.728  1.2909  0.1190 -2.0431
 5316TIP3    H215955   4.928   2.001   2.701  0.6190  0.6594 -0.7204
 5317TIP3   OH215956   4.394   4.593   3.273  0.4039 -0.4904  0.2904
 5317TIP3    H115957   4.376   4.503   3.298 -0.1741 -0.5187 -0.1985
 5317TIP3    H215958   4.308   4.630   3.252  0.6368  0.1660  0.4629
 5318TIP3   OH215959   1.880   0.348   3.215 -0.4345 -0.6192 -0.2125
 5318TIP3    H115960   1.880   0.353   3.119 -0.3497 -1.3284 -0.2556
 5318TIP3    H215961   1.809   0.288   3.236 -1.5807  0.8449  0.2673
 5319TIP3   OH215962   1.516   2.981   1.189 -0.2762  0.1788 -0.1988
 5319TIP3    H115963   1.478   2.938   1.265  0.6243  0.8304  0.6456
 5319TIP3    H215964   1.450   2.972   1.120 -0.9771 -0.6788  0.5708
 5320TIP3   OH215965   4.241   2.703   2.256 -0.0791 -0.7414 -0.5058
 5320TIP3    H115966   4.220   2.733   2.345  1.1173 -2.3614  0.3968
 5320TIP3    H215967   4.183   2.753   2.199  0.0544  1.3465  1.0587
 5321TIP3   OH215968   3.112   4.479   5.173  0.2084 -0.4605 -0.0168
 5321TIP3    H115969   3.033   4.498   5.123 -0.5008 -2.4103  0.2841
 5321TIP3    H215970   3.152   4.405   5.127  0.5681 -1.0479  1.1985
 5322TIP3   OH215971   5.413   0.855   1.814  0.0788 -0.2727 -0.3370
 5322TIP3    H115972   5.427   0.760   1.811 -1.9627 -0.6028 -1.4913
 5322TIP3    H215973   5.348   0.867   1.883  0.5542  0.3204  0.0073
 5323TIP3   OH215974   1.713   4.338   2.146 -0.7762  0.5889 -0.0465
 5323TIP3    H115975   1.751   4.326   2.233 -1.3819  0.5816  0.2172
 5323TIP3    H215976   1.695   4.249   2.115 -0.8232  0.6058 -0.0670
 5324TIP3   OH215977   0.950   2.257   2.316 -0.3340 -0.6908  0.7488
 5324TIP3    H115978   0.885   2.300   2.261 -0.8676 -1.1003  1.0388
 5324TIP3    H215979   0.976   2.180   2.266 -0.0936 -0.5423  0.6456
 5325TIP3   OH215980   4.187   2.083   1.779 -0.3719  0.3659 -0.1025
 5325TIP3    H115981   4.168   2.032   1.700  2.0456  1.4764 -1.5037
 5325TIP3    H215982   4.114   2.064   1.837 -1.1364 -2.2548 -1.7274
 5326TIP3   OH215983   4.173   5.396   4.121 -0.2267  0.0881 -0.3883
 5326TIP3    H115984   4.180   5.491   4.108 -0.2447  0.1045 -0.2831
 5326TIP3    H215985   4.262   5.368   4.141 -0.4722  0.3435  1.2482
 5327TIP3   OH215986   0.748   5.599   4.153  0.3951  0.0354 -0.0373
 5327TIP3    H115987   0.762   5.534   4.084  1.6044  0.0480  0.1757
 5327TIP3    H215988   0.726   5.548   4.231  0.5981 -0.0696 -0.0497
 5328TIP3   OH215989   2.325   4.129   0.977 -0.2977 -0.3620 -0.0369
 5328TIP3    H115990   2.270   4.207   0.984  0.3618  0.2169 -1.0197
 5328TIP3    H215991   2.352   4.127   0.885  1.0728 -0.7764  0.3422
 5329TIP3   OH215992   5.465   2.402   3.328 -0.5136  0.0266  0.2764
 5329TIP3    H115993   5.438   2.493   3.323 -0.0039  0.1831  0.2905
 5329TIP3    H215994   5.458   2.380   3.421  0.2726  0.3447  0.4234
 5330TIP3   OH215995   2.346   2.043   0.275 -0.0745  0.0734 -0.5438
 5330TIP3    H115996   2.394   2.126   0.277 -0.0985  0.0864 -0.4914
 5330TIP3    H215997   2.391   1.987   0.338 -2.1275  1.2108  2.1407
 5331TIP3   OH215998   3.467   0.376   1.490  0.0868  0.6877 -0.4078
 5331TIP3    H115999   3.548   0.403   1.534 -0.3768  0.9510  0.2844
 5331TIP3    H216000   3.471   0.280   1.488 -0.1080  0.6508  0.6300
 5332TIP3   OH216001   5.204   3.677   1.418 -0.0319  0.4848  0.4568
 5332TIP3    H116002   5.123   3.698   1.465 -0.1697 -1.4009  1.1056
 5332TIP3    H216003   5.174   3.651   1.331  0.1696  3.1167 -0.5115
 5333TIP3   OH216004   4.254   3.031   4.406  0.2091  0.4655  0.2900
 5333TIP3    H116005   4.221   3.028   4.496 -0.8653  0.8361 -0.0732
 5333TIP3    H216006   4.312   2.955   4.400  0.5764  0.6403  1.3942
 5334TIP3   OH216007   5.278   5.453   2.613 -0.3652  0.0618  0.2072
 5334TIP3    H116008   5.280   5.366   2.572  0.6629  0.3793 -0.4588
 5334TIP3    H216009   5.217   5.444   2.686 -3.4420 -0.1703 -2.1771
 5335TIP3   OH216010   6.055   2.492   3.299 -0.3772 -0.0695  0.5893
 5335TIP3    H116011   6.124   2.512   3.236 -1.3777  0.2436 -0.4505
 5335TIP3    H216012   6.080   2.541   3.378  1.3779 -1.2060  0.7872
 5336TIP3   OH216013   3.394   0.316   1.213 -0.2538 -0.4337  0.3954
 5336TIP3    H116014   3.309   0.275   1.230 -1.6466  2.1749  0.3159
 5336TIP3    H216015   3.436   0.320   1.299 -0.6838 -0.7788  0.6286
 5337TIP3   OH216016   2.078   3.233   1.976  0.0185 -0.1090  0.0193
 5337TIP3    H116017   2.016   3.300   2.003  0.9777  0.0087  2.1417
 5337TIP3    H216018   2.163   3.276   1.979  0.6041 -1.2725  0.9892
 5338TIP3   OH216019   4.118   5.206   0.789  0.1139  0.3077  0.1918
 5338TIP3    H116020   4.041   5.262   0.779 -0.5712 -0.6738 -0.2070
 5338TIP3    H216021   4.105   5.137   0.724  1.2099 -0.0164  0.3062
 5339TIP3   OH216022   0.172   1.026   3.453  0.2784 -0.5395  0.5838
 5339TIP3    H116023   0.178   0.959   3.386 -1.8904 -1.5318  1.2899
 5339TIP3    H216024   0.196   0.981   3.534 -1.3540 -0.5713  1.0908
 5340TIP3   OH216025   5.879   1.842   3.912 -0.7278 -0.6034 -0.0514
 5340TIP3    H116026   5.863   1.800   3.997 -0.9124 -0.3316  0.0504
 5340TIP3    H216027   5.869   1.771   3.848  1.8218 -1.3768  0.3039
 5341TIP3   OH216028   2.738   3.043   4.936  0.0794  0.2816 -0.0501
 5341TIP3    H116029   2.669   2.990   4.976 -0.2130  0.2514 -0.5779
 5341TIP3    H216030   2.802   2.979   4.905  0.3486  0.3098  0.4451
 5342TIP3   OH216031   2.650   0.252   1.850  0.0650  0.1513 -0.1422
 5342TIP3    H116032   2.580   0.304   1.890 -1.0233 -0.6940 -0.8732
 5342TIP3    H216033   2.681   0.306   1.777 -0.5640  0.0847 -0.4630
 5343TIP3   OH216034   5.037   3.539   0.774 -0.1413  0.4506  0.2655
 5343TIP3    H116035   5.032   3.444   0.764  1.1476  0.3434  0.5290
 5343TIP3    H216036   5.014   3.573   0.687  1.4681 -0.1774 -0.4349
 5344TIP3   OH216037   2.648   0.195   2.625 -0.2386 -0.1543  0.2798
 5344TIP3    H116038   2.744   0.199   2.625 -0.2717  2.1567 -0.8097
 5344TIP3    H216039   2.624   0.196   2.718  0.7868 -1.3373  0.5741
 5345TIP3   OH216040   3.762   2.795   1.116 -0.4554 -0.2405  0.1209
 5345TIP3    H116041   3.854   2.803   1.140 -0.6179 -1.0458  1.0818
 5345TIP3    H216042   3.714   2.829   1.191 -0.9455  0.3526 -0.4520
 5346TIP3   OH216043   4.804   5.380   3.803  0.3878 -0.2344  0.2938
 5346TIP3    H116044   4.823   5.474   3.808  0.1990 -0.2313  1.3364
 5346TIP3    H216045   4.823   5.356   3.713 -1.2144  1.1643 -0.4746
 5347TIP3   OH216046   1.949   1.994   4.996  0.3904  0.3237 -0.3046
 5347TIP3    H116047   1.943   1.900   5.008 -1.5580  0.3867 -0.5722
 5347TIP3    H216048   1.993   2.025   5.075  0.8866 -0.7614 -0.1333
 5348TIP3   OH216049   4.119   3.766   2.054 -0.3231  0.1451 -0.7655
 5348TIP3    H116050   4.130   3.787   2.147 -1.0378 -1.5337 -0.2672
 5348TIP3    H216051   4.028   3.789   2.034 -0.5842 -0.7717 -0.6710
 5349TIP3   OH216052   0.325   4.913   2.770  0.1794  0.4108  0.2330
 5349TIP3    H116053   0.394   4.881   2.828  2.1513  1.7211 -1.2589
 5349TIP3    H216054   0.338   5.008   2.767 -0.9189  0.5517 -1.0450
 5350TIP3   OH216055   4.930   1.123   2.655  0.0011 -0.5397  0.3103
 5350TIP3    H116056   4.928   1.077   2.572 -3.6022 -1.7172  0.9057
 5350TIP3    H216057   4.888   1.207   2.638  1.1402  0.1141  0.5577
 5351TIP3   OH216058   5.078   4.745   3.685  0.1184 -0.6512  0.1894
 5351TIP3    H116059   5.067   4.716   3.594  3.3326 -0.0684 -0.4911
 5351TIP3    H216060   5.049   4.836   3.684  0.4417 -0.5458 -0.3512
 5352TIP3   OH216061   2.396   4.550   0.889  0.5356  0.1048 -0.1524
 5352TIP3    H116062   2.323   4.497   0.921  0.4317  0.1992 -0.2309
 5352TIP3    H216063   2.468   4.488   0.879  0.6199  0.1007  0.4145
 5353TIP3   OH216064   0.805   1.497   0.463  0.4433  0.1147 -0.0567
 5353TIP3    H116065   0.756   1.481   0.383  1.9550  0.3833 -1.0668
 5353TIP3    H216066   0.827   1.410   0.496  0.3248  0.0114 -0.2513
 5354TIP3   OH216067   1.004   4.154   4.836  0.2787 -0.4843 -0.0998
 5354TIP3    H116068   1.047   4.144   4.751  0.6576  1.1286 -0.1375
 5354TIP3    H216069   1.065   4.208   4.887 -0.2026 -0.9646  1.0059
 5355TIP3   OH216070   1.785   4.573   2.049  0.0352  0.0833 -0.5272
 5355TIP3    H116071   1.768   4.494   2.100 -0.1517  1.2485  1.3336
 5355TIP3    H216072   1.705   4.588   1.999  0.0321 -0.8109 -0.8029
 5356TIP3   OH216073   1.182   1.633   0.147 -0.3837  0.6281  0.1562
 5356TIP3    H116074   1.113   1.594   0.093  0.8649 -1.1979 -0.2147
 5356TIP3    H216075   1.152   1.722   0.164 -2.9119 -0.1378  0.1649
 5357TIP3   OH216076   4.426   3.850   4.363  0.0060 -0.8086 -0.5434
 5357TIP3    H116077   4.438   3.864   4.269  0.3891 -1.0144 -0.5268
 5357TIP3    H216078   4.514   3.834   4.397 -0.1772 -1.1822 -0.2255
 5358TIP3   OH216079   0.846   0.711   2.434 -0.0906 -0.1280  0.3053
 5358TIP3    H116080   0.789   0.768   2.486 -0.7827 -0.1354 -0.4310
 5358TIP3    H216081   0.836   0.625   2.474 -0.0365  0.0085  0.6208
 5359TIP3   OH216082   3.226   0.890   1.524 -1.2695  0.0512 -0.1874
 5359TIP3    H116083   3.229   0.904   1.429  1.2094  0.9911 -0.0307
 5359TIP3    H216084   3.246   0.797   1.534 -0.0108  0.2686 -0.5494
 5360TIP3   OH216085   1.398   5.680   2.763 -0.2391  0.0876  0.1768
 5360TIP3    H116086   1.350   5.753   2.802 -0.3880  0.0580  0.0470
 5360TIP3    H216087   1.333   5.612   2.749  0.0522 -0.3913  1.0803
 5361TIP3   OH216088   1.854   3.845   2.392  0.0511  0.4894 -0.4743
 5361TIP3    H116089   1.802   3.876   2.466 -0.0970  0.1103 -0.4145
 5361TIP3    H216090   1.795   3.785   2.345 -0.2601  1.6257 -1.5695
 5362TIP3   OH216091   1.368   4.405   0.369  0.6308  0.3621  0.2693
 5362TIP3    H116092   1.371   4.483   0.315  0.2910 -0.8160 -1.5449
 5362TIP3    H216093   1.446   4.355   0.344 -1.1609 -1.7008 -1.6448
 5363TIP3   OH216094   4.618   4.843   0.130 -0.6264  0.1283 -0.5015
 5363TIP3    H116095   4.629   4.909   0.062  0.6433 -0.4516 -0.8956
 5363TIP3    H216096   4.706   4.810   0.146 -1.2216 -1.4226 -0.2659
 5364TIP3   OH216097   3.165   4.258   4.989 -0.3679 -0.3177 -0.0008
 5364TIP3    H116098   3.072   4.239   4.980 -0.4164 -0.6240  1.0429
 5364TIP3    H216099   3.206   4.172   5.002 -0.2325 -0.0135  1.8366
 5365TIP3   OH216100   1.561   0.938   0.674  0.1585  0.4946 -0.5550
 5365TIP3    H116101   1.541   0.992   0.598 -0.8028  1.9611  0.6836
 5365TIP3    H216102   1.645   0.971   0.706  0.0009  0.6616 -0.3114
 5366TIP3   OH216103   0.067   3.599   4.608 -0.0300  0.1759  0.5519
 5366TIP3    H116104   0.077   3.632   4.697 -2.1017 -2.4307  1.8862
 5366TIP3    H216105  -0.027   3.599   4.592  0.2908  0.9699 -1.8691
 5367TIP3   OH216106   5.400   3.545   4.392  0.6551 -0.0358  0.3760
 5367TIP3    H116107   5.387   3.623   4.446 -1.7155 -0.6428  0.8078
 5367TIP3    H216108   5.458   3.575   4.322  1.8771  1.3975  1.9140
 5368TIP3   OH216109   0.083   1.318   0.710 -0.6452 -0.3226 -0.3114
 5368TIP3    H116110   0.073   1.413   0.718 -0.8964 -0.2568 -1.2944
 5368TIP3    H216111   0.020   1.292   0.643 -2.2275 -1.5326  1.5217
 5369TIP3   OH216112   2.756   5.253   1.330 -0.2441 -0.1686  0.4354
 5369TIP3    H116113   2.760   5.164   1.295 -0.3163 -0.3477  0.8852
 5369TIP3    H216114   2.782   5.245   1.421  0.9637  0.4547  0.1686
 5370TIP3   OH216115   6.180   1.200   3.054  0.0621 -0.3329 -0.1653
 5370TIP3    H116116   6.257   1.256   3.065  0.0448 -0.1836 -0.7740
 5370TIP3    H216117   6.204   1.141   2.983 -0.1448 -0.7179  0.0796
 5371TIP3   OH216118   2.376   3.996   3.976 -0.4619 -0.2224 -0.1947
 5371TIP3    H116119   2.329   4.069   4.017  0.6356  2.9308 -4.0063
 5371TIP3    H216120   2.328   3.979   3.895  1.3665 -1.2566 -1.1290
 5372TIP3   OH216121   2.965   0.191   1.042  1.0485 -0.4639 -0.2650
 5372TIP3    H116122   2.910   0.113   1.029  0.9696 -0.3631 -0.5455
 5372TIP3    H216123   3.051   0.165   1.009  0.9651 -0.3601 -0.5692
 5373TIP3   OH216124   4.058   3.799   2.724 -0.1945  0.4794  0.2326
 5373TIP3    H116125   4.117   3.874   2.711  1.4917 -1.0142 -1.1978
 5373TIP3    H216126   4.095   3.754   2.800  0.2577 -0.1976 -0.3777
 5374TIP3   OH216127   4.330   4.921   3.266  0.7382 -0.6537 -0.1071
 5374TIP3    H116128   4.366   4.998   3.311 -2.5345  1.0018 -0.0443
 5374TIP3    H216129   4.235   4.932   3.272  0.1424 -3.2145 -2.6968
 5375TIP3   OH216130   2.336   0.108   1.217 -0.7172 -0.0684  0.1875
 5375TIP3    H116131   2.418   0.099   1.167 -0.8834 -0.2060 -0.0607
 5375TIP3    H216132   2.359   0.077   1.305  0.2815  2.5521  0.9491
 5376TIP3   OH216133   0.789   4.837   2.632 -0.1980 -0.0752 -0.0674
 5376TIP3    H116134   0.851   4.814   2.563  0.3599 -1.1940  0.7657
 5376TIP3    H216135   0.704   4.841   2.588 -0.0652 -2.1230 -0.6050
 5377TIP3   OH216136   4.546   2.791   4.054 -0.1106 -0.0514 -0.2821
 5377TIP3    H116137   4.639   2.812   4.050  0.6849 -2.6231  1.8344
 5377TIP3    H216138   4.514   2.806   3.965  2.1142  1.6603 -0.8669
 5378TIP3   OH216139   3.483   0.289   3.239  0.1892  0.4687  0.0313
 5378TIP3    H116140   3.549   0.235   3.282  1.2580  1.6040 -0.1210
 5378TIP3    H216141   3.490   0.265   3.147 -1.4342 -1.2673  0.3099
 5379TIP3   OH216142   2.807   1.464   4.513 -0.1467  0.0008  0.7266
 5379TIP3    H116143   2.888   1.483   4.467 -0.5553  0.9921  0.3766
 5379TIP3    H216144   2.827   1.478   4.606  0.3264 -0.6797  0.7259
 5380TIP3   OH216145   1.725   1.966   3.932 -0.1849  0.4834  0.3588
 5380TIP3    H116146   1.696   2.048   3.892 -0.5377 -0.1780 -0.8059
 5380TIP3    H216147   1.821   1.974   3.934 -0.1251  0.4172 -0.9643
 5381TIP3   OH216148   2.827   1.085   0.034  0.9807 -0.1200  0.2565
 5381TIP3    H116149   2.786   1.095   0.120  0.3253  2.2279 -0.2641
 5381TIP3    H216150   2.833   0.990   0.021  0.1517 -0.5165  2.4350
 5382TIP3   OH216151   5.450   1.873   2.284  0.2546  0.6748  0.4677
 5382TIP3    H116152   5.456   1.932   2.359 -1.3573 -0.9739  1.9777
 5382TIP3    H216153   5.508   1.800   2.305 -1.4771 -0.6162  0.9725
 5383TIP3   OH216154   4.964   1.787   1.472  0.0052 -0.0551  0.3913
 5383TIP3    H116155   4.911   1.856   1.433 -0.2978 -0.1643  0.6094
 5383TIP3    H216156   5.025   1.833   1.529 -0.5256 -0.0005  0.9209
 5384TIP3   OH216157   6.064   4.638   2.747  0.3262  0.8065 -0.2366
 5384TIP3    H116158   6.010   4.669   2.675 -0.0805 -0.4939 -0.5198
 5384TIP3    H216159   6.062   4.709   2.811 -0.9141  1.1822 -0.6692
 5385TIP3   OH216160   4.506   5.375   2.321 -0.3911 -0.2324 -0.3451
 5385TIP3    H116161   4.528   5.372   2.228  0.7337 -0.8422 -0.0827
 5385TIP3    H216162   4.452   5.298   2.337 -0.1807 -0.3941 -0.4073
 5386TIP3   OH216163   2.531   3.367   1.037  0.1458  0.2858  0.2339
 5386TIP3    H116164   2.571   3.441   1.084  1.4952 -0.7552  0.7824
 5386TIP3    H216165   2.597   3.341   0.973 -1.0386  0.6609 -1.2029
 5387TIP3   OH216166   5.373   0.474   3.502  0.2297 -0.1906  0.0293
 5387TIP3    H116167   5.351   0.435   3.587 -0.9347 -1.6792 -0.9133
 5387TIP3    H216168   5.309   0.544   3.491 -1.2176 -1.5563 -0.6508
 5388TIP3   OH216169   3.188   2.436   3.001  0.7914 -0.5300  0.0383
 5388TIP3    H116170   3.208   2.433   3.094  2.3276  2.2123 -0.1279
 5388TIP3    H216171   3.093   2.447   2.998  0.8304  0.3890  1.3232
 5389TIP3   OH216172   5.168   4.808   0.152 -0.3129  0.3855  0.2522
 5389TIP3    H116173   5.189   4.748   0.081 -0.3665  1.6891 -0.9210
 5389TIP3    H216174   5.254   4.842   0.180 -0.3798  0.9552 -0.2046
 5390TIP3   OH216175   5.978   5.986   5.126  0.1087  0.0168 -0.4888
 5390TIP3    H116176   5.955   5.930   5.051  0.3000 -0.4525 -0.2030
 5390TIP3    H216177   5.949   5.936   5.202 -1.3088  1.0930 -0.3009
 5391TIP3   OH216178   2.790   2.887   1.050 -0.2487 -0.8078  0.2761
 5391TIP3    H116179   2.787   2.812   1.109 -2.4625 -0.5419  0.5929
 5391TIP3    H216180   2.839   2.953   1.098  0.5775 -1.5955  0.5385
 5392TIP3   OH216181   5.307   2.995   0.723 -0.2477  0.2228 -0.1479
 5392TIP3    H116182   5.389   3.036   0.753 -0.6577  0.5101  0.6142
 5392TIP3    H216183   5.327   2.902   0.720  0.2846  0.3401 -0.5504
 5393TIP3   OH216184   3.260   1.468   1.761 -0.3751 -0.9017  0.0737
 5393TIP3    H116185   3.277   1.548   1.712  3.1802 -0.6808  1.4275
 5393TIP3    H216186   3.228   1.497   1.846 -2.4681 -1.1475 -0.5649
 5394TIP3   OH216187   4.261   3.192   3.820 -0.2148 -0.1190 -0.3534
 5394TIP3    H116188   4.292   3.255   3.886 -0.3759 -0.4099  0.0072
 5394TIP3    H216189   4.246   3.111   3.870  1.1027 -0.7958 -1.0043
 5395TIP3   OH216190   2.113   5.524   2.375 -0.1960  0.1021  0.0479
 5395TIP3    H116191   2.184   5.503   2.314  1.8918  1.4492  1.8715
 5395TIP3    H216192   2.135   5.476   2.455 -1.1491  0.8206  0.7722
 5396TIP3   OH216193   0.076   2.470   4.377  0.0303 -0.4186 -0.3159
 5396TIP3    H116194   0.054   2.393   4.325  0.8786 -2.0010  1.5482
 5396TIP3    H216195   0.163   2.496   4.348  0.9297 -1.9028  0.8690
 5397TIP3   OH216196   4.040   5.193   4.018 -0.3143  0.2465 -0.4345
 5397TIP3    H116197   4.080   5.265   4.067  2.1390 -2.1720  1.4252
 5397TIP3    H216198   4.039   5.120   4.080 -0.5287 -1.9666 -2.8868
 5398TIP3   OH216199   1.858   1.021   2.189 -0.0422  0.4020  0.8664
 5398TIP3    H116200   1.927   0.972   2.234  0.8705  1.1777  0.3509
 5398TIP3    H216201   1.872   1.000   2.096 -1.1160 -0.1951  0.8257
 5399TIP3   OH216202   5.512   2.840   3.793 -0.0937  0.0777  0.1735
 5399TIP3    H116203   5.459   2.777   3.843 -0.5588 -0.0276 -0.4431
 5399TIP3    H216204   5.600   2.829   3.828 -0.4660  0.2534  1.2248
 5400TIP3   OH216205   1.691   3.762   3.004 -0.6984  0.1052  0.5065
 5400TIP3    H116206   1.651   3.848   2.994 -1.6962 -0.5679 -2.3450
 5400TIP3    H216207   1.749   3.754   2.928 -0.1650 -1.4951  1.0408
 5401TIP3   OH216208   1.685   3.402   2.843 -0.5740 -0.6963 -0.0327
 5401TIP3    H116209   1.613   3.456   2.810 -0.9131 -1.3457 -0.3700
 5401TIP3    H216210   1.642   3.324   2.879 -0.1205 -0.5516  0.8492
 5402TIP3   OH216211   3.664   1.664   1.513  0.1936  0.3831  0.4718
 5402TIP3    H116212   3.725   1.657   1.440 -1.0998 -0.6411 -0.5596
 5402TIP3    H216213   3.691   1.595   1.574  1.3501  1.3195  1.0494
 5403TIP3   OH216214   1.418   3.693   0.474 -0.4950 -0.2217 -0.4957
 5403TIP3    H116215   1.428   3.787   0.490  0.1553 -0.3397 -0.1621
 5403TIP3    H216216   1.349   3.687   0.408  0.2022  0.5453 -1.3169
 5404TIP3   OH216217   0.109   2.823   2.308 -0.5173 -0.3706  0.4194
 5404TIP3    H116218   0.170   2.761   2.269  1.6348  1.4200  0.7523
 5404TIP3    H216219   0.058   2.771   2.370 -0.2620 -2.1705 -0.7982
 5405TIP3   OH216220   1.003   4.409   3.602 -0.4459  0.6339  0.0384
 5405TIP3    H116221   0.975   4.325   3.637 -1.4478  0.9124 -0.0629
 5405TIP3    H216222   0.952   4.420   3.522  0.5934  0.7710 -0.6222
 5406TIP3   OH216223   4.978   3.838   5.106  0.0371  0.7022  0.1318
 5406TIP3    H116224   4.991   3.876   5.019 -0.1060  1.5896  0.4911
 5406TIP3    H216225   4.967   3.744   5.090 -0.5500  0.9299 -0.8630
 5407TIP3   OH216226   2.235   5.021   1.865 -0.3046  0.3811  0.0069
 5407TIP3    H116227   2.193   4.946   1.824  0.2897 -0.0156  0.1184
 5407TIP3    H216228   2.324   5.021   1.830 -0.4493  1.3396 -0.3869
 5408TIP3   OH216229   4.527   0.402   3.749 -0.7625 -0.6531  0.1522
 5408TIP3    H116230   4.454   0.435   3.801 -0.2293  1.2625 -0.2585
 5408TIP3    H216231   4.604   0.445   3.786  0.2105 -2.6856  0.6220
 5409TIP3   OH216232   2.358   4.600   3.398  0.5140 -0.0232 -0.3891
 5409TIP3    H116233   2.316   4.543   3.334  1.7632 -2.8498  1.1074
 5409TIP3    H216234   2.408   4.662   3.346  0.3527 -1.2809 -2.1478
 5410TIP3   OH216235   1.262   4.260   0.757 -0.0047  0.3714  0.3351
 5410TIP3    H116236   1.191   4.319   0.734  2.0420  2.0989 -1.9302
 5410TIP3    H216237   1.239   4.177   0.715 -1.5936  0.2692  1.3210
 5411TIP3   OH216238   2.782   1.633   4.737  0.1403 -0.0343  0.4141
 5411TIP3    H116239   2.817   1.717   4.707  0.6844 -0.9518 -1.6760
 5411TIP3    H216240   2.747   1.652   4.824 -1.7746  2.8901 -0.8257
 5412TIP3   OH216241   4.985   1.560   3.096  0.5731  0.2795  0.5415
 5412TIP3    H116242   4.949   1.496   3.158 -0.2235  1.7806  1.7044
 5412TIP3    H216243   5.077   1.535   3.087 -0.0042 -1.8386 -0.1336
 5413TIP3   OH216244   4.007   4.393   3.849 -0.2510  0.0163 -0.2698
 5413TIP3    H116245   3.973   4.456   3.912 -2.9124 -0.9831 -0.6109
 5413TIP3    H216246   3.949   4.317   3.855  2.6305 -2.3786 -0.0991
 5414TIP3   OH216247   1.099   4.524   0.065 -0.0862  0.8191  0.5841
 5414TIP3    H116248   1.086   4.606   0.114 -0.7754  1.7403 -1.0722
 5414TIP3    H216249   1.020   4.514   0.013 -0.5056 -1.5324  1.5601
 5415TIP3   OH216250   4.620   5.084   4.265 -0.1357 -0.1800  0.7371
 5415TIP3    H116251   4.666   5.147   4.210  0.5426 -0.9389  0.4168
 5415TIP3    H216252   4.685   5.017   4.285 -1.3454 -1.8887 -0.6838
 5416TIP3   OH216253   5.608   0.232   0.567 -0.2942  0.9507  0.1973
 5416TIP3    H116254   5.515   0.248   0.584 -0.1907  1.7874  0.0330
 5416TIP3    H216255   5.613   0.218   0.472 -0.5823 -1.6231  0.4991
 5417TIP3   OH216256   4.101   5.652   3.794 -0.6153  0.8956 -0.2135
 5417TIP3    H116257   4.184   5.698   3.806  0.6806 -1.2111 -0.5820
 5417TIP3    H216258   4.061   5.694   3.717  1.9069 -0.3506 -2.3711
 5418TIP3   OH216259   2.887   1.865   1.030  0.0182 -0.2289  0.0638
 5418TIP3    H116260   2.891   1.928   0.957  0.5965  0.3330  0.5704
 5418TIP3    H216261   2.800   1.878   1.068 -0.6771 -1.2094 -1.1090
 5419TIP3   OH216262   3.428   0.945   0.411  0.6053 -0.2208  0.5440
 5419TIP3    H116263   3.456   0.893   0.336  0.7710  0.0477  0.4192
 5419TIP3    H216264   3.380   0.883   0.466 -1.4110  0.0327 -0.8208
 5420TIP3   OH216265   1.850   5.263   3.750  0.1470  0.0651  0.2805
 5420TIP3    H116266   1.790   5.319   3.701  0.9140  0.6500 -0.0201
 5420TIP3    H216267   1.796   5.189   3.779 -0.6705  0.4920 -0.1149
 5421TIP3   OH216268   5.748   4.405   0.590 -0.0144  0.1693  0.4533
 5421TIP3    H116269   5.736   4.319   0.548  1.7985 -0.4299  1.0517
 5421TIP3    H216270   5.745   4.386   0.683 -2.8572  1.3185  0.7140
 5422TIP3   OH216271   3.529   4.710   4.067 -0.6583 -0.1639  0.7043
 5422TIP3    H116272   3.446   4.666   4.055 -0.7141  0.6321 -2.8956
 5422TIP3    H216273   3.595   4.643   4.050 -0.6294 -0.0955  0.5450
 5423TIP3   OH216274   4.896   0.027   2.200  0.6867 -0.0860 -0.0636
 5423TIP3    H116275   4.880  -0.024   2.280 -0.6653  0.0863 -0.1940
 5423TIP3    H216276   4.809   0.041   2.164  1.2886 -0.3857 -1.7219
 5424TIP3   OH216277   3.220   5.781   2.814  0.1147  0.0199  0.3158
 5424TIP3    H116278   3.159   5.837   2.861 -1.5221 -1.2679 -0.2034
 5424TIP3    H216279   3.244   5.831   2.736  1.1156  1.2345  1.3510
 5425TIP3   OH216280   1.249   5.736   4.160  0.1179 -0.0253 -0.0104
 5425TIP3    H116281   1.278   5.651   4.126 -0.7964 -0.2841 -0.1669
 5425TIP3    H216282   1.284   5.800   4.097  0.6819 -0.2914  0.0276
 5426TIP3   OH216283   2.756   4.294   2.029  0.0440  0.2356  0.3883
 5426TIP3    H116284   2.681   4.254   1.984  0.9342 -1.9999  0.7673
 5426TIP3    H216285   2.737   4.283   2.122  1.6503 -2.1382  0.5098
 5427TIP3   OH216286   0.961   0.991   2.132 -0.1251 -0.6415  0.0452
 5427TIP3    H116287   1.047   0.978   2.171 -0.5258 -0.3166  1.0605
 5427TIP3    H216288   0.928   0.903   2.115  0.9241 -0.7650 -1.5596
 5428TIP3   OH216289   3.858   0.040   2.272 -0.1133  0.5242 -0.0850
 5428TIP3    H116290   3.869   0.136   2.272  0.7125  0.4845 -1.8869
 5428TIP3    H216291   3.947   0.006   2.271 -0.3995 -0.2982  1.0656
 5429TIP3   OH216292   4.964   4.921   1.161  0.5018 -0.2425 -0.1413
 5429TIP3    H116293   4.999   4.853   1.103 -1.4986 -1.0443 -0.4643
 5429TIP3    H216294   5.014   5.000   1.138  1.7510 -1.2197 -0.8852
 5430TIP3   OH216295   4.199   1.170   2.396  0.6091 -0.0779 -0.1390
 5430TIP3    H116296   4.108   1.198   2.398  0.6829  0.1625 -0.2036
 5430TIP3    H216297   4.246   1.242   2.356  0.8989 -0.0101  0.3174
 5431TIP3   OH216298   1.993   0.019   2.863  0.5449  0.3564 -0.3495
 5431TIP3    H116299   2.079   0.020   2.904  1.0358  1.1365 -1.3351
 5431TIP3    H216300   1.957   0.106   2.881 -0.4448 -0.2869  0.8546
 5432TIP3   OH216301   4.191   0.209   1.635  0.2358  0.3805 -0.3444
 5432TIP3    H116302   4.235   0.191   1.551  0.7392  0.6200 -0.1346
 5432TIP3    H216303   4.258   0.251   1.689  0.3553 -1.0761  0.6925
 5433TIP3   OH216304   4.397   3.582   4.746 -0.2803 -0.4105 -0.3073
 5433TIP3    H116305   4.332   3.615   4.808 -1.4089 -0.8542 -1.2252
 5433TIP3    H216306   4.414   3.492   4.775  2.1467  0.5681  1.6693
 5434TIP3   OH216307   1.967   1.528   2.568  0.7182  0.0330 -0.6561
 5434TIP3    H116308   1.987   1.514   2.476  1.8097 -0.3111 -0.3775
 5434TIP3    H216309   2.049   1.557   2.607  0.3748 -0.2182  0.2858
 5435TIP3   OH216310   1.070   0.327   3.410  0.2069 -0.1840 -0.0034
 5435TIP3    H116311   1.160   0.328   3.377  0.4189  0.0985  0.5754
 5435TIP3    H216312   1.060   0.411   3.455  0.0993 -0.7926  1.1419
 5436TIP3   OH216313   4.485   0.790   2.326  0.5815 -0.1786 -0.0001
 5436TIP3    H116314   4.404   0.796   2.276  0.6005 -1.7425 -0.2524
 5436TIP3    H216315   4.464   0.831   2.411 -1.5029 -3.2860  1.1504
 5437TIP3   OH216316   1.605   5.320   4.717 -0.4344 -0.7161 -0.4941
 5437TIP3    H116317   1.573   5.262   4.786 -1.4478 -0.3351 -0.6356
 5437TIP3    H216318   1.531   5.332   4.659 -0.5173  1.3765 -0.0326
 5438TIP3   OH216319   5.585   4.419   2.733 -0.3530 -0.3218  0.2689
 5438TIP3    H116320   5.568   4.511   2.753  0.3915 -0.5939  2.3567
 5438TIP3    H216321   5.504   4.373   2.755 -0.6442 -0.2308 -0.5527
 5439TIP3   OH216322   4.198   3.617   0.453 -0.1623 -0.8192 -0.0894
 5439TIP3    H116323   4.158   3.679   0.392 -0.3347 -0.9193 -0.0788
 5439TIP3    H216324   4.192   3.659   0.538 -0.4657 -0.9366 -0.0502
 5440TIP3   OH216325   1.125   4.478   0.981  0.1848 -0.4949 -0.1643
 5440TIP3    H116326   1.039   4.441   1.002 -0.6599  0.1281 -2.2131
 5440TIP3    H216327   1.184   4.442   1.048 -1.4736 -1.7172  0.7247
 5441TIP3   OH216328   2.298   5.469   0.097 -0.1303  1.0598  1.1960
 5441TIP3    H116329   2.229   5.527   0.064 -0.3423  0.2243  0.1000
 5441TIP3    H216330   2.380   5.515   0.076 -0.0038 -0.8736 -3.9221
 5442TIP3   OH216331   1.759   4.774   3.153 -0.5836 -0.9986  0.3980
 5442TIP3    H116332   1.709   4.811   3.225  1.2900  0.3603  1.1083
 5442TIP3    H216333   1.839   4.741   3.195  0.5820 -0.0950 -1.0215
 5443TIP3   OH216334   0.147   3.972   4.024  0.0248 -0.0408 -0.8405
 5443TIP3    H116335   0.060   3.932   4.028  0.3653 -0.7126  1.1044
 5443TIP3    H216336   0.147   4.036   4.094  0.7425  0.7572 -1.5581
 5444TIP3   OH216337   4.929   4.262   0.086 -0.1732  0.0725  0.4402
 5444TIP3    H116338   4.948   4.356   0.091  0.3631  0.0154 -0.4308
 5444TIP3    H216339   4.870   4.246   0.160 -0.0980  1.0508  0.7269
 5445TIP3   OH216340   0.629   5.823   1.179  0.6902  0.5685  0.3093
 5445TIP3    H116341   0.664   5.736   1.201 -0.4528  0.1549  0.5623
 5445TIP3    H216342   0.548   5.830   1.229 -0.5621  0.7276 -1.6209
 5446TIP3   OH216343   6.098   3.406   1.966  0.1020 -0.0034 -0.3421
 5446TIP3    H116344   6.120   3.397   1.874 -0.5179 -0.3641 -0.4594
 5446TIP3    H216345   6.005   3.432   1.967  0.0373 -0.2335  0.1819
 5447TIP3   OH216346   2.986   2.719   5.125 -0.1564  0.2785  0.1952
 5447TIP3    H116347   2.967   2.629   5.152 -2.6870  0.3485 -1.0747
 5447TIP3    H216348   3.071   2.714   5.082 -0.2968 -1.5431  0.0541
 5448TIP3   OH216349   2.976   1.020   4.956 -0.1550 -0.4553  0.0233
 5448TIP3    H116350   2.989   1.024   4.862  0.9463  0.3124  0.1868
 5448TIP3    H216351   2.984   1.111   4.985 -1.3748 -0.5630  0.7572
 5449TIP3   OH216352   2.712   5.060   5.171  0.5954 -0.4288 -0.0114
 5449TIP3    H116353   2.636   5.014   5.135  1.0114 -0.2378 -1.1785
 5449TIP3    H216354   2.738   5.120   5.102  0.4742  1.1012  1.2257
 5450TIP3   OH216355   1.537   1.012   1.206 -0.1380  0.0175 -0.1323
 5450TIP3    H116356   1.493   0.999   1.122  1.0206 -0.3451 -0.6985
 5450TIP3    H216357   1.624   0.976   1.194  1.0252  2.4672  0.3162
 5451TIP3   OH216358   5.288   0.755   4.680 -0.2310  0.8133  0.6568
 5451TIP3    H116359   5.254   0.811   4.610 -0.6259  1.1654  1.1297
 5451TIP3    H216360   5.334   0.815   4.739 -0.7592  0.6662  1.2300
 5452TIP3   OH216361   0.682   2.202   2.424 -0.7047  0.0157 -0.1063
 5452TIP3    H116362   0.684   2.276   2.484 -1.1380 -0.0592  0.0061
 5452TIP3    H216363   0.763   2.210   2.373 -1.3660  1.3203 -1.0058
 5453TIP3   OH216364   1.385   3.884   4.105  0.2639 -0.1971 -0.3325
 5453TIP3    H116365   1.418   3.794   4.109  1.9056  0.3431 -0.9688
 5453TIP3    H216366   1.306   3.878   4.051 -0.5492 -1.4838  0.9426
 5454TIP3   OH216367   3.142   4.132   2.808 -0.1250  0.3164 -0.1896
 5454TIP3    H116368   3.126   4.184   2.729  1.4922 -0.4371 -1.0640
 5454TIP3    H216369   3.101   4.048   2.791 -1.0201  0.6101  0.4074
 5455TIP3   OH216370   1.601   2.605   2.406  0.2005  0.1173 -0.0494
 5455TIP3    H116371   1.669   2.614   2.472  0.2417  1.0049 -0.2008
 5455TIP3    H216372   1.552   2.687   2.411 -0.3306 -0.1620 -0.5304
 5456TIP3   OH216373   3.656   4.978   3.612 -0.2557  0.4026 -0.2148
 5456TIP3    H116374   3.687   4.940   3.530  2.3882  0.8920  0.4615
 5456TIP3    H216375   3.613   4.906   3.657 -2.0260  0.1883 -2.0905
 5457TIP3   OH216376   1.202   3.161   4.181  0.0758 -0.3076  0.1741
 5457TIP3    H116377   1.174   3.082   4.227 -1.6600  0.3719  0.3816
 5457TIP3    H216378   1.143   3.229   4.214 -0.0330  0.5847 -1.7399
 5458TIP3   OH216379   3.935   2.860   4.782 -0.1068 -0.4655 -0.7168
 5458TIP3    H116380   3.867   2.869   4.715  0.9708  0.9276 -1.7025
 5458TIP3    H216381   4.014   2.835   4.733  0.4919 -0.3317  0.1458
 5459TIP3   OH216382   2.607   4.720   4.574 -0.0256 -0.0245  0.1955
 5459TIP3    H116383   2.608   4.654   4.642 -0.6582 -0.2818 -0.0386
 5459TIP3    H216384   2.519   4.715   4.536 -0.2032  1.1849  0.4055
 5460TIP3   OH216385   1.766   1.955   2.409 -0.1019  0.1435  0.4930
 5460TIP3    H116386   1.732   1.981   2.323  3.7000  1.8667 -0.7306
 5460TIP3    H216387   1.708   1.997   2.472 -1.4473  1.0729 -1.2816
 5461TIP3   OH216388   2.134   1.787   1.966 -0.0962 -0.2802 -0.1676
 5461TIP3    H116389   2.100   1.868   2.004 -1.1271 -1.3310  1.2339
 5461TIP3    H216390   2.083   1.718   2.007  0.1577 -1.6150 -1.9803
 5462TIP3   OH216391   0.445   3.997   2.483 -0.3181 -0.2448  0.2866
 5462TIP3    H116392   0.366   3.948   2.505  0.8728 -1.5935  1.8168
 5462TIP3    H216393   0.475   3.958   2.401 -0.9366 -0.1104 -0.0054
 5463TIP3   OH216394   0.598   1.509   2.383 -0.0252 -0.1200 -0.2329
 5463TIP3    H116395   0.577   1.603   2.381  1.1551  0.1513 -0.3245
 5463TIP3    H216396   0.635   1.491   2.296 -1.2569 -0.9410 -0.6324
 5464TIP3   OH216397   1.061   1.330   0.264 -0.4480 -0.2640  0.0416
 5464TIP3    H116398   1.058   1.417   0.224  0.4260 -0.2978 -0.1123
 5464TIP3    H216399   1.127   1.337   0.333 -0.8766 -0.6221  0.4993
 5465TIP3   OH216400   1.753   2.669   3.320 -0.5019 -0.1054 -0.2476
 5465TIP3    H116401   1.766   2.578   3.292  1.2727 -0.6376  2.0539
 5465TIP3    H216402   1.667   2.669   3.361 -0.1170 -1.0043  0.5953
 5466TIP3   OH216403   0.212   3.183   3.676 -0.0143 -0.2335  0.0159
 5466TIP3    H116404   0.295   3.135   3.671 -0.4565 -1.0819  0.6835
 5466TIP3    H216405   0.158   3.133   3.736 -0.3255  1.3773  1.1640
 5467TIP3   OH216406   0.047   5.578   0.574 -0.1362  0.0217 -0.4883
 5467TIP3    H116407  -0.020   5.645   0.560  0.1928  0.6071  0.6206
 5467TIP3    H216408   0.029   5.544   0.662  1.8127  1.1345  0.3799
 5468TIP3   OH216409   3.514   0.919   3.577 -0.0536 -0.0666  0.4606
 5468TIP3    H116410   3.562   0.991   3.616 -0.0364 -0.1850  0.6603
 5468TIP3    H216411   3.451   0.893   3.644 -0.8217  0.4899 -0.0242
 5469TIP3   OH216412   5.630   5.138   0.190 -0.0920  0.7642 -0.6026
 5469TIP3    H116413   5.606   5.166   0.278  0.3184  2.0546 -0.8697
 5469TIP3    H216414   5.658   5.047   0.200 -0.0001  0.9084  0.6100
 5470TIP3   OH216415   2.641   1.109   0.641  0.6248  0.6397 -0.4300
 5470TIP3    H116416   2.560   1.143   0.603  1.0137  0.4921 -1.4247
 5470TIP3    H216417   2.668   1.175   0.705 -2.0538 -0.7996  2.4955
 5471TIP3   OH216418   5.966   4.203   1.578 -0.1728 -0.1064  0.1263
 5471TIP3    H116419   6.058   4.226   1.583 -0.4320  0.9252  0.4699
 5471TIP3    H216420   5.934   4.247   1.499 -0.6346  0.5791  0.6799
 5472TIP3   OH216421   1.946   0.295   0.075  0.4771 -0.4673 -0.2341
 5472TIP3    H116422   1.873   0.272   0.018  0.8788  1.1472 -1.4665
 5472TIP3    H216423   1.971   0.212   0.116  0.8814 -2.0173 -3.2942
 5473TIP3   OH216424   5.221   3.655   1.851 -0.5120 -0.4053  0.0479
 5473TIP3    H116425   5.128   3.678   1.856 -1.3005 -2.9835 -0.8432
 5473TIP3    H216426   5.240   3.652   1.758  0.4650 -0.0173  0.2218
 5474TIP3   OH216427   2.184   2.951   1.083 -0.0354  0.3368  0.3629
 5474TIP3    H116428   2.198   3.040   1.053 -0.5807 -0.0604 -1.1216
 5474TIP3    H216429   2.141   2.961   1.168 -0.9528  1.4834 -0.2211
 5475TIP3   OH216430   1.351   1.686   4.118 -0.2492 -0.3470 -0.3061
 5475TIP3    H116431   1.365   1.780   4.131  0.6747 -0.4090 -0.7701
 5475TIP3    H216432   1.274   1.666   4.171 -0.1275  0.5594  0.2360
 5476TIP3   OH216433   2.194   0.865   4.199 -0.2205 -0.1720  0.3812
 5476TIP3    H116434   2.141   0.906   4.267 -1.9994  0.2484 -1.1792
 5476TIP3    H216435   2.246   0.936   4.162 -0.5582 -0.0458  0.1445
 5477TIP3   OH216436   1.997   1.997   1.679 -0.1382  0.0040 -0.7805
 5477TIP3    H116437   1.952   1.925   1.634 -1.2181  0.6511 -0.7767
 5477TIP3    H216438   1.967   1.990   1.770 -1.5359  1.3882 -1.0895
 5478TIP3   OH216439   4.950   3.462   4.322 -0.1924 -0.3201  0.1298
 5478TIP3    H116440   4.966   3.514   4.243 -0.1479 -0.3744  0.1037
 5478TIP3    H216441   4.983   3.517   4.393  1.5247 -1.0698 -0.0418
 5479TIP3   OH216442   1.708   3.738   4.265 -0.5934 -0.2238 -0.4560
 5479TIP3    H116443   1.752   3.665   4.220  0.0922  0.9749 -1.8091
 5479TIP3    H216444   1.620   3.704   4.283 -0.0299 -1.6781 -0.2601
 5480TIP3   OH216445   5.100   5.534   1.325  0.4019 -0.4565  0.3208
 5480TIP3    H116446   5.056   5.572   1.402 -1.4604  0.0881 -0.9356
 5480TIP3    H216447   5.167   5.599   1.302 -0.3010  0.3108  0.3728
 5481TIP3   OH216448   2.479   4.103   0.732  0.3970 -0.1565  0.1316
 5481TIP3    H116449   2.510   4.032   0.675 -0.1428 -1.0997  0.9624
 5481TIP3    H216450   2.462   4.176   0.673 -0.6565 -1.2688 -1.0142
 5482TIP3   OH216451   3.400   4.486   2.201  0.2092 -0.5364  0.0842
 5482TIP3    H116452   3.324   4.457   2.152  0.2247 -1.2768  0.4784
 5482TIP3    H216453   3.465   4.506   2.134 -0.7862  1.5101 -0.3205
 5483TIP3   OH216454   1.509   0.109   2.723 -0.1234 -0.4508  0.4631
 5483TIP3    H116455   1.530   0.115   2.630  0.9151  1.0084  0.7550
 5483TIP3    H216456   1.451   0.034   2.730 -0.7190 -0.2192 -1.4565
 5484TIP3   OH216457   0.289   1.797   0.130  0.2551 -0.0025 -0.1917
 5484TIP3    H116458   0.248   1.751   0.204  2.2877 -1.5573  0.0808
 5484TIP3    H216459   0.238   1.770   0.054 -0.3417 -0.3887  0.3275
 5485TIP3   OH216460   0.190   4.612   0.470  0.2245 -0.1337 -0.0980
 5485TIP3    H116461   0.173   4.613   0.376 -0.5556  1.3240  0.0245
 5485TIP3    H216462   0.194   4.519   0.493 -2.6722 -0.6090 -1.0718
 5486TIP3   OH216463   1.833   5.318   4.936  0.1805  0.3353  0.0661
 5486TIP3    H116464   1.779   5.292   5.010  0.5510 -1.0376 -0.1114
 5486TIP3    H216465   1.771   5.339   4.867 -0.1482  0.1808  0.3122
 5487TIP3   OH216466   4.684   3.386   4.422 -0.6624  0.2510  0.6383
 5487TIP3    H116467   4.639   3.452   4.369 -1.0868 -0.3903  0.1871
 5487TIP3    H216468   4.776   3.397   4.400 -0.6303  1.2501  1.2030
 5488TIP3   OH216469   1.049   2.390   3.555  0.4900  0.3855 -0.0566
 5488TIP3    H116470   1.058   2.372   3.649 -1.0400 -1.6971 -0.2375
 5488TIP3    H216471   1.091   2.475   3.543  0.1058  1.0431  2.6253
 5489TIP3   OH216472   0.288   0.924   4.074 -0.1930  0.4209 -0.1101
 5489TIP3    H116473   0.303   0.925   3.980  0.5325  1.9021 -0.0076
 5489TIP3    H216474   0.211   0.978   4.088 -0.4246  0.0363  0.1349
 5490TIP3   OH216475   0.526   4.447   2.465 -0.2535 -0.1673  0.4391
 5490TIP3    H116476   0.523   4.516   2.531 -0.1515  1.4809 -1.1896
 5490TIP3    H216477   0.434   4.429   2.445 -0.2956 -0.9520  1.2675
 5491TIP3   OH216478   0.949   1.078   3.572  0.1468 -0.1351  0.2182
 5491TIP3    H116479   1.017   1.144   3.561  1.6082 -1.7910 -1.4232
 5491TIP3    H216480   0.889   1.091   3.498 -0.8113  0.6814  1.1045
 5492TIP3   OH216481   4.138   1.983   3.498  0.1059 -0.0642  0.1622
 5492TIP3    H116482   4.109   2.039   3.426  1.5693  0.3513 -0.1400
 5492TIP3    H216483   4.120   2.035   3.577 -2.2601 -0.8580  0.1981
 5493TIP3   OH216484   3.764   1.157   0.655  0.1692 -0.5510  0.1574
 5493TIP3    H116485   3.700   1.210   0.607  1.5310  1.3215  0.3365
 5493TIP3    H216486   3.710   1.102   0.713 -1.3738 -0.9425 -1.5448
 5494TIP3   OH216487   2.427   5.493   4.267 -0.3567 -1.1977 -0.4099
 5494TIP3    H116488   2.360   5.471   4.203 -0.0910 -0.1397 -1.0667
 5494TIP3    H216489   2.392   5.569   4.313  0.5145 -0.4410 -0.9717
 5495TIP3   OH216490   3.346   0.587   0.735 -0.2723 -0.6331 -0.1727
 5495TIP3    H116491   3.401   0.593   0.656 -1.7712 -1.1546 -1.2868
 5495TIP3    H216492   3.360   0.671   0.779  1.3803 -0.7331 -0.4250
 5496TIP3   OH216493   5.655   1.158   1.214 -0.3353  0.1834  0.5135
 5496TIP3    H116494   5.608   1.080   1.242  1.6915 -0.7763  1.4698
 5496TIP3    H216495   5.651   1.156   1.119 -2.3654  0.2905  0.5439
 5497TIP3   OH216496   1.470   5.314   0.533  0.1289 -0.0520  0.4864
 5497TIP3    H116497   1.432   5.342   0.449  1.8190  0.0101 -0.2912
 5497TIP3    H216498   1.533   5.246   0.510 -0.6588 -1.3417  1.9183
 5498TIP3   OH216499   2.097   4.228  -0.005  0.5088  0.3295  0.0645
 5498TIP3    H116500   2.102   4.133  -0.009 -0.0678  0.2510  0.9705
 5498TIP3    H216501   2.186   4.256   0.015  0.2807 -0.1720  2.0023
 5499TIP3   OH216502   2.930   3.529   1.166  0.4956  0.2965  0.5095
 5499TIP3    H116503   2.933   3.617   1.127  2.4963  0.0446 -0.0143
 5499TIP3    H216504   3.013   3.522   1.214  0.1390 -1.1421  0.9421
 5500TIP3   OH216505   0.013   3.352   3.783 -0.3394  0.3437 -0.3767
 5500TIP3    H116506   0.047   3.344   3.872  0.9227  0.8355 -0.7918
 5500TIP3    H216507   0.085   3.323   3.727 -0.5812  1.4363 -1.2938
 5501TIP3   OH216508   5.221   3.731   2.671  0.5795  0.0149 -0.1423
 5501TIP3    H116509   5.228   3.636   2.677  1.9156  0.1017 -0.1314
 5501TIP3    H216510   5.249   3.751   2.582 -2.0728  0.2262 -1.0250
 5502TIP3   OH216511   3.530   1.027   5.061 -0.1067 -0.0047  0.0861
 5502TIP3    H116512   3.485   0.952   5.021 -0.4980 -0.0983  0.6955
 5502TIP3    H216513   3.573   1.070   4.987  2.5171 -2.3875  0.0434
 5503TIP3   OH216514   1.658   1.657   4.558 -0.1117  0.2847  0.3534
 5503TIP3    H116515   1.714   1.732   4.578 -0.4994  0.1107  2.3208
 5503TIP3    H216516   1.640   1.664   4.464  1.6062  1.4230  0.0674
 5504TIP3   OH216517   1.246   1.303   3.810  0.6259  0.6977 -0.5302
 5504TIP3    H116518   1.333   1.329   3.840  1.1842 -1.3433 -0.2021
 5504TIP3    H216519   1.186   1.339   3.875  1.2106  2.1386 -0.7638
 5505TIP3   OH216520   1.488   2.266   3.562  0.1956  0.2461  0.2610
 5505TIP3    H116521   1.414   2.265   3.501 -1.5624 -0.4357  2.2767
 5505TIP3    H216522   1.477   2.346   3.613 -0.6358 -1.0043  2.1786
 5506TIP3   OH216523   4.498   0.346   0.360  0.0779  0.4879  0.9152
 5506TIP3    H116524   4.461   0.354   0.272  2.3493  0.9058 -0.0693
 5506TIP3    H216525   4.468   0.425   0.406  1.1154  1.7122 -0.4188
 5507TIP3   OH216526   5.567   5.308   1.837  0.8504  0.4840  0.5134
 5507TIP3    H116527   5.623   5.341   1.907 -0.7035  0.5832  1.7583
 5507TIP3    H216528   5.574   5.375   1.768  2.2733  0.4614  0.6036
 5508TIP3   OH216529   2.079   5.628   1.508 -0.0090  0.4958 -0.0824
 5508TIP3    H116530   2.064   5.719   1.535  0.7489 -0.1371  2.8696
 5508TIP3    H216531   2.007   5.579   1.550 -0.2743 -0.3183 -1.4398
 5509TIP3   OH216532   5.748   2.945   4.943 -0.3046  0.1686  0.1350
 5509TIP3    H116533   5.769   2.885   4.872 -2.2957 -1.5182  0.8817
 5509TIP3    H216534   5.655   2.967   4.931 -0.0935  1.7007  0.9112
 5510TIP3   OH216535   3.567   1.016   0.794  0.3780 -0.2505 -0.2777
 5510TIP3    H116536   3.557   1.032   0.888 -0.9705 -0.3302 -0.3773
 5510TIP3    H216537   3.621   0.937   0.789  1.8098  0.6606  0.3706
 5511TIP3   OH216538   2.463   5.018   2.449 -0.1384 -0.9761  0.2011
 5511TIP3    H116539   2.375   5.032   2.485 -0.6650 -1.1970 -0.9272
 5511TIP3    H216540   2.449   4.959   2.374  0.6813  0.5308 -1.2090
 5512TIP3   OH216541   3.965   3.654   5.155 -0.7784  0.5961  0.8194
 5512TIP3    H116542   4.055   3.688   5.152 -0.1147 -1.1273 -0.2461
 5512TIP3    H216543   3.954   3.623   5.245 -0.5571  1.4353  1.1436
 5513TIP3   OH216544   5.944   1.029   0.334  0.4372  0.3204  0.2701
 5513TIP3    H116545   5.996   1.108   0.346  0.1926  0.7770 -1.4160
 5513TIP3    H216546   5.888   1.048   0.260 -0.6974 -0.9106  0.7641
 5514TIP3   OH216547   2.593   4.368   0.213 -0.3821  0.3927 -0.5320
 5514TIP3    H116548   2.645   4.314   0.274  0.9550  1.6373 -0.5172
 5514TIP3    H216549   2.579   4.450   0.260 -1.7021  0.3844 -0.8720
 5515TIP3   OH216550   3.879   0.931   0.547 -0.4731 -0.1846  0.4333
 5515TIP3    H116551   3.849   1.014   0.585  1.9356  0.0174  2.1294
 5515TIP3    H216552   3.939   0.958   0.477 -1.0515 -0.5373 -0.2083
 5516TIP3   OH216553   1.733   3.951   4.448  0.9099 -0.3213 -0.3593
 5516TIP3    H116554   1.731   4.029   4.392  2.8632  0.5527  0.6943
 5516TIP3    H216555   1.717   3.878   4.389 -1.4931  0.8701 -1.3005
 5517TIP3   OH216556   0.609   3.371   0.324 -0.2695 -0.2221  0.4588
 5517TIP3    H116557   0.588   3.358   0.416 -0.8126 -1.5293  0.1818
 5517TIP3    H216558   0.524   3.383   0.281 -0.3849 -3.0085 -0.3094
 5518TIP3   OH216559   0.256   1.452   2.571 -0.5694  0.2403  0.3863
 5518TIP3    H116560   0.207   1.405   2.639  0.1787 -0.5795  0.3685
 5518TIP3    H216561   0.342   1.412   2.571 -0.8355 -0.4178 -1.6960
 5519TIP3   OH216562   0.749   0.845   2.235  0.7127  0.2667  0.1689
 5519TIP3    H116563   0.751   0.937   2.264 -0.7324 -0.5160  3.1445
 5519TIP3    H216564   0.795   0.798   2.304  1.6867 -1.2840 -1.4602
 5520TIP3   OH216565   1.445   3.774   4.828  0.2070  0.0050 -0.2495
 5520TIP3    H116566   1.377   3.837   4.805  1.2449  0.6975 -1.5079
 5520TIP3    H216567   1.470   3.733   4.745  1.5567  0.0014  0.1396
 5521TIP3   OH216568   4.605   0.485   1.245 -0.2020  0.1091 -0.3096
 5521TIP3    H116569   4.547   0.479   1.321  0.2325 -1.4311 -0.0656
 5521TIP3    H216570   4.692   0.462   1.278  0.0295 -0.3950 -1.2090
 5522TIP3   OH216571   0.376   0.762   2.178  0.2495  0.3092 -0.2372
 5522TIP3    H116572   0.300   0.745   2.122 -0.3615  0.1445  0.6109
 5522TIP3    H216573   0.368   0.854   2.202  0.4472  0.3499 -0.3256
 5523TIP3   OH216574   3.671   2.024   4.784  0.2036  0.6975 -0.0997
 5523TIP3    H116575   3.652   2.092   4.849 -1.2132  1.0705 -0.8543
 5523TIP3    H216576   3.756   1.989   4.810  0.1062  1.4807  1.3925
 5524TIP3   OH216577   5.404   3.053   0.368 -0.5285  0.2188  0.0834
 5524TIP3    H116578   5.450   2.980   0.410  0.7958  0.7053 -0.4628
 5524TIP3    H216579   5.335   3.011   0.315 -1.2871 -0.4766  1.5568
 5525TIP3   OH216580   5.133   2.570   3.267 -0.1615  0.1595  1.0828
 5525TIP3    H116581   5.056   2.588   3.212 -0.5101 -0.8473  1.2261
 5525TIP3    H216582   5.099   2.574   3.356 -0.5142 -2.1671  1.1156
 5526TIP3   OH216583   0.432   0.849   4.325  0.4180 -0.2702  0.5124
 5526TIP3    H116584   0.397   0.813   4.244 -1.3396  0.3791  0.9331
 5526TIP3    H216585   0.380   0.927   4.341  1.6717  0.4004  1.5505
 5527TIP3   OH216586   3.284   3.118   3.779 -0.3601 -0.3384  0.0634
 5527TIP3    H116587   3.301   3.046   3.839 -1.9703 -0.2000  0.7324
 5527TIP3    H216588   3.320   3.195   3.822 -1.5654 -0.2295  0.9184
 5528TIP3   OH216589   4.516   5.464   1.757 -0.0853  0.2299 -0.7336
 5528TIP3    H116590   4.592   5.427   1.711 -0.7861  0.7921 -2.4349
 5528TIP3    H216591   4.516   5.556   1.734 -1.1031  0.3064 -0.4955
 5529TIP3   OH216592   3.894   3.354   0.223 -0.9179 -0.3310 -0.3495
 5529TIP3    H116593   3.923   3.325   0.136  1.1284  2.0241 -0.6052
 5529TIP3    H216594   3.964   3.326   0.282 -0.6444  0.8790 -0.0590
 5530TIP3   OH216595   1.411   0.432   3.578 -0.4974 -0.4101  0.0930
 5530TIP3    H116596   1.490   0.386   3.605 -0.3648 -0.1341  0.1706
 5530TIP3    H216597   1.366   0.453   3.661  0.1906  0.9454  0.1403
 5531TIP3   OH216598   4.307   1.650   4.431 -0.0496  0.0895 -0.0834
 5531TIP3    H116599   4.342   1.632   4.518  1.1502  0.5878 -0.4388
 5531TIP3    H216600   4.262   1.569   4.406  2.3041 -1.2285 -0.2833
 5532TIP3   OH216601   4.501   3.564   4.296  0.3412 -0.4038  0.2055
 5532TIP3    H116602   4.516   3.658   4.301 -0.5948 -0.2677  0.6506
 5532TIP3    H216603   4.429   3.548   4.357 -0.0093 -1.2908 -0.4235
 5533TIP3   OH216604   3.372   3.365   3.926  0.2017  0.4154 -0.7306
 5533TIP3    H116605   3.403   3.427   3.861  0.1819 -0.4658 -1.5956
 5533TIP3    H216606   3.277   3.376   3.926  0.1236 -0.2133 -1.5086
 5534TIP3   OH216607   0.237   5.872   4.528  0.0875  0.0902 -0.3694
 5534TIP3    H116608   0.173   5.929   4.572  0.6509  0.4334  0.0164
 5534TIP3    H216609   0.300   5.933   4.489  1.4658 -0.2726  1.1992
 5535TIP3   OH216610   1.090   3.049   2.003 -0.4224 -0.0779  0.7528
 5535TIP3    H116611   1.073   3.137   1.967  2.7915  0.1640 -0.5024
 5535TIP3    H216612   1.004   3.016   2.026 -1.8109  3.2394  0.8765
 5536TIP3   OH216613   4.301   3.127   4.962  0.6590 -0.0654  0.3378
 5536TIP3    H116614   4.284   3.208   4.912 -0.0556 -1.2764 -1.5070
 5536TIP3    H216615   4.359   3.154   5.032  0.2522  2.1047 -0.0861
 5537TIP3   OH216616   5.328   0.494   3.836 -0.2648  0.0463  0.7551
 5537TIP3    H116617   5.328   0.409   3.880 -1.9023 -1.5361 -1.9800
 5537TIP3    H216618   5.239   0.527   3.847 -1.1233 -0.9592 -2.0286
 5538TIP3   OH216619   5.010   3.150   3.740  0.1602  0.5905  0.1339
 5538TIP3    H116620   4.936   3.164   3.682 -0.6710  0.9441  1.2436
 5538TIP3    H216621   5.078   3.209   3.707  1.5099 -2.5569 -3.3649
 5539TIP3   OH216622   1.462   0.930   3.728 -0.1715  0.4359 -0.1372
 5539TIP3    H116623   1.370   0.955   3.736 -0.7342 -0.4382 -2.9777
 5539TIP3    H216624   1.470   0.851   3.782 -0.8321  1.0251  0.8543
 5540TIP3   OH216625   6.181   2.794   2.992 -0.2806  0.4766 -0.5038
 5540TIP3    H116626   6.127   2.805   2.914  0.5782 -2.0834 -1.5546
 5540TIP3    H216627   6.265   2.834   2.970 -0.1960  0.1842 -0.7150
 5541TIP3   OH216628   5.267   1.069   3.839 -0.4865  0.1402  0.1087
 5541TIP3    H116629   5.267   1.153   3.793 -0.3395 -0.8954 -1.8816
 5541TIP3    H216630   5.221   1.087   3.922 -1.3926  1.9235 -0.7267
 5542TIP3   OH216631   5.865   2.215   2.642 -0.3086 -0.6290  0.0546
 5542TIP3    H116632   5.945   2.265   2.659  0.1365 -1.5951  0.9256
 5542TIP3    H216633   5.794   2.269   2.677  0.1449 -0.5190  0.8188
 5543TIP3   OH216634   1.360   5.860   0.295  0.8585 -0.6234 -0.7559
 5543TIP3    H116635   1.394   5.944   0.325  1.5664 -1.3881  0.6847
 5543TIP3    H216636   1.415   5.795   0.339 -2.3644 -1.9433  1.6468
 5544TIP3   OH216637   2.796   0.419   1.028 -0.3156 -0.0649  0.3259
 5544TIP3    H116638   2.701   0.411   1.016 -0.1093 -0.3973 -1.3714
 5544TIP3    H216639   2.822   0.337   1.068 -0.5450 -0.6389 -0.6825
 5545TIP3   OH216640   2.407   4.545   3.669 -0.5019  0.5646 -0.3628
 5545TIP3    H116641   2.502   4.532   3.664 -0.5288 -0.0118  0.4609
 5545TIP3    H216642   2.384   4.583   3.584  0.2691 -0.5758 -1.1097
 5546TIP3   OH216643   4.371   3.069   0.536 -0.0954 -0.0548 -0.1476
 5546TIP3    H116644   4.342   3.125   0.608  2.7418 -0.4976  1.5323
 5546TIP3    H216645   4.393   3.130   0.465 -3.2009  0.3675 -0.8718
 5547TIP3   OH216646   0.365   1.733   1.063 -0.9199  0.2157 -0.3166
 5547TIP3    H116647   0.387   1.663   1.001  0.5179  0.5941 -0.2564
 5547TIP3    H216648   0.271   1.748   1.049 -0.7458 -0.0706 -2.0339
 5548TIP3   OH216649   1.905   3.207   3.762  0.3040  0.2142 -0.1027
 5548TIP3    H116650   1.988   3.160   3.755  0.2066  0.0830 -0.3813
 5548TIP3    H216651   1.929   3.299   3.768  0.3886  0.5086 -3.2572
 5549TIP3   OH216652   0.910   2.809   4.652 -0.1763  0.0211  0.2546
 5549TIP3    H116653   0.994   2.794   4.696 -1.0236 -0.4115  1.7700
 5549TIP3    H216654   0.926   2.886   4.597  1.7690 -1.2203 -1.0374
 5550TIP3   OH216655   5.015   2.641   3.532  0.1487 -0.5335  0.3907
 5550TIP3    H116656   4.930   2.660   3.493  0.6752  1.1691 -0.0177
 5550TIP3    H216657   5.001   2.559   3.580 -1.8772 -0.0074  0.8169
 5551TIP3   OH216658   2.628   2.949   3.530  0.1562 -0.5373  0.2630
 5551TIP3    H116659   2.621   2.855   3.512  0.2583 -0.7321  1.1749
 5551TIP3    H216660   2.699   2.980   3.474  0.5983 -1.1494  0.4775
 5552TIP3   OH216661   2.101   5.315   2.876  0.2272  0.2623  0.0086
 5552TIP3    H116662   2.147   5.345   2.955 -0.0157  0.7864 -0.0418
 5552TIP3    H216663   2.141   5.365   2.805 -0.9025  1.2727  0.0525
 5553TIP3   OH216664   0.641   5.348   0.129  0.4990 -0.0284 -0.0472
 5553TIP3    H116665   0.698   5.303   0.193 -0.5788 -1.1757  0.1356
 5553TIP3    H216666   0.567   5.378   0.181 -0.2220 -0.6712 -0.6887
 5554TIP3   OH216667   0.657   5.964   0.949  0.2796  0.0701  0.1846
 5554TIP3    H116668   0.666   5.910   1.027  0.5607 -1.8957 -1.1323
 5554TIP3    H216669   0.738   5.951   0.900  0.7393  2.4148  0.1962
 5555TIP3   OH216670   3.434   2.458   4.042 -0.5335 -0.0661 -0.4935
 5555TIP3    H116671   3.412   2.402   3.968 -0.4750 -0.2448 -0.3745
 5555TIP3    H216672   3.351   2.475   4.086 -0.7104  0.7928 -1.1310
 5556TIP3   OH216673   0.712   4.871   3.966 -0.5593 -0.3772 -0.0457
 5556TIP3    H116674   0.786   4.819   3.995 -0.8303 -0.5777  0.2879
 5556TIP3    H216675   0.636   4.813   3.972 -0.8324 -0.0126  0.1307
 5557TIP3   OH216676   3.154   4.478   2.040 -0.2804 -0.0033  0.4936
 5557TIP3    H116677   3.116   4.392   2.056  0.6058 -0.7355 -1.0623
 5557TIP3    H216678   3.178   4.476   1.947  0.7699  1.5194  0.7013
 5558TIP3   OH216679   3.999   2.739   0.755 -0.2588 -0.9491  0.0197
 5558TIP3    H116680   3.904   2.738   0.769 -0.7240  1.9650 -1.8879
 5558TIP3    H216681   4.034   2.789   0.829 -0.4509 -0.4876 -0.1997
 5559TIP3   OH216682   6.231   4.501   4.017  0.5664  0.2647  0.0570
 5559TIP3    H116683   6.258   4.457   4.098 -0.6424  0.5931  0.6688
 5559TIP3    H216684   6.151   4.456   3.991  1.2883 -0.2572 -1.3302
 5560TIP3   OH216685   2.328   1.331   1.440 -0.0643  0.1586  0.0914
 5560TIP3    H116686   2.372   1.414   1.458 -0.2800  0.1274  0.7838
 5560TIP3    H216687   2.360   1.305   1.353 -0.1724  1.0787 -0.2360
 5561TIP3   OH216688   2.167   4.796   2.723  0.3480  0.1960 -0.1258
 5561TIP3    H116689   2.199   4.838   2.803 -2.1050  1.4722  0.2973
 5561TIP3    H216690   2.156   4.704   2.748 -0.1874  0.5354  0.9853
 5562TIP3   OH216691   4.682   0.564   2.890  0.0467 -0.2595 -0.0306
 5562TIP3    H116692   4.598   0.586   2.930 -0.4633 -1.4486 -0.4149
 5562TIP3    H216693   4.724   0.649   2.874 -1.9892  0.5128 -1.7849
 5563TIP3   OH216694   1.968   1.035   1.209  0.0088 -0.1616 -0.3303
 5563TIP3    H116695   1.879   0.999   1.219  0.2577 -0.7999 -0.3442
 5563TIP3    H216696   2.016   0.966   1.163  1.0893 -0.7763  1.5902
 5564TIP3   OH216697   5.506   5.582   2.718  0.2814 -0.3113  0.0655
 5564TIP3    H116698   5.422   5.547   2.688  0.4287 -0.2136 -0.4689
 5564TIP3    H216699   5.519   5.542   2.804  1.1992 -2.8682 -1.1567
 5565TIP3   OH216700   0.304   1.049   2.171 -1.0786  0.1378  0.0273
 5565TIP3    H116701   0.259   1.058   2.087 -0.1735 -0.6669 -0.5732
 5565TIP3    H216702   0.359   1.127   2.178 -0.6040 -0.1428 -0.4894
 5566TIP3   OH216703   2.051   2.997   2.571 -0.3797 -0.2300  0.1127
 5566TIP3    H116704   2.038   3.014   2.665 -0.5691 -0.5899  0.1524
 5566TIP3    H216705   1.969   3.023   2.530 -0.4624 -0.5057  0.1029
 5567TIP3   OH216706   3.360   3.018   1.501 -0.3885 -0.3796  0.1992
 5567TIP3    H116707   3.357   2.925   1.478  0.1228 -0.8775  1.9956
 5567TIP3    H216708   3.389   3.019   1.592 -1.0647  1.5199  0.4347
 5568TIP3   OH216709   0.116   2.514   2.953 -0.0568 -0.3858 -0.1132
 5568TIP3    H116710   0.142   2.423   2.937  0.3799 -0.2667 -0.0815
 5568TIP3    H216711   0.026   2.518   2.921  0.2892 -0.5523 -1.1430
 5569TIP3   OH216712   3.967   5.379   1.370 -0.3365 -0.1560 -0.3159
 5569TIP3    H116713   3.925   5.435   1.436 -1.7882  1.5535 -2.5415
 5569TIP3    H216714   4.049   5.424   1.349 -0.3899 -0.1145 -0.4370
 5570TIP3   OH216715   0.569   1.708   0.514  0.6022  0.0516 -0.0459
 5570TIP3    H116716   0.614   1.790   0.496  0.5885 -0.1086 -0.8248
 5570TIP3    H216717   0.630   1.658   0.569  0.0519  1.1202  1.6120
 5571TIP3   OH216718   0.458   4.724   3.945  0.5330  0.5422 -0.0463
 5571TIP3    H116719   0.458   4.749   3.852  2.0317  1.8795  0.2720
 5571TIP3    H216720   0.486   4.632   3.945  1.9993  0.9537 -0.8648
 5572TIP3   OH216721   0.569   4.135   2.689 -0.1309 -0.0515  0.4702
 5572TIP3    H116722   0.522   4.102   2.765 -1.0471  1.4357  0.5730
 5572TIP3    H216723   0.517   4.105   2.614 -1.1826  1.4289  0.5770
 5573TIP3   OH216724   1.014   3.754   2.334  0.4258 -0.6950 -0.1501
 5573TIP3    H116725   1.030   3.813   2.260  0.5928  0.9201  1.1179
 5573TIP3    H216726   1.009   3.667   2.294  2.1179 -0.0867 -1.8829
 5574TIP3   OH216727   4.435   4.089   3.007  0.4820 -0.1288  0.1784
 5574TIP3    H116728   4.502   4.095   3.075  0.0216 -1.0828  0.7431
 5574TIP3    H216729   4.485   4.080   2.926  1.0575  2.4176  0.1795
 5575TIP3   OH216730   3.990   5.285   0.433  0.2778  0.1126  0.3515
 5575TIP3    H116731   4.060   5.279   0.368 -0.1191  0.4938 -0.1167
 5575TIP3    H216732   4.015   5.221   0.500  1.1817  0.3973  0.2999
 5576TIP3   OH216733   4.555   3.360   4.821 -0.4179 -0.5082 -0.7876
 5576TIP3    H116734   4.638   3.389   4.784  0.1613 -1.3046 -0.1579
 5576TIP3    H216735   4.529   3.285   4.768 -0.0726 -1.0571 -0.1936
 5577TIP3   OH216736   1.632   2.852   0.782  0.2985  0.0590 -0.1320
 5577TIP3    H116737   1.648   2.918   0.714  1.9245  0.2428  0.3860
 5577TIP3    H216738   1.653   2.897   0.864  1.6610 -1.1371  0.2219
 5578TIP3   OH216739   5.375   2.684   1.791 -0.2240 -0.2561  0.5036
 5578TIP3    H116740   5.336   2.712   1.874 -0.0287  0.6718  0.2856
 5578TIP3    H216741   5.376   2.762   1.736  0.6747 -0.5937  0.0123
 5579TIP3   OH216742   0.537   4.599   2.697 -0.4494  0.4493  0.3137
 5579TIP3    H116743   0.517   4.683   2.655  3.6207  0.7456 -1.4750
 5579TIP3    H216744   0.591   4.622   2.773  0.6369 -0.5093 -0.1455
 5580TIP3   OH216745   2.269   4.599   2.099  0.6847 -1.0537  0.0974
 5580TIP3    H116746   2.310   4.686   2.099 -0.3742 -0.5454  0.0309
 5580TIP3    H216747   2.177   4.616   2.079  0.2443 -2.0832  1.1548
 5581TIP3   OH216748   1.854   2.841   1.731 -0.4167  0.4225  0.3063
 5581TIP3    H116749   1.845   2.763   1.785  2.0245  1.0686  1.7507
 5581TIP3    H216750   1.825   2.913   1.787  1.0238  0.9731  0.3689
 5582TIP3   OH216751   5.293   1.844   2.056  0.1003 -0.3429  0.5468
 5582TIP3    H116752   5.322   1.901   1.985 -0.8546  0.3102  0.6653
 5582TIP3    H216753   5.365   1.845   2.119 -0.6303  2.2731  1.4337
 5583TIP3   OH216754   0.697   3.687   2.934 -0.4646 -0.4208 -0.5624
 5583TIP3    H116755   0.640   3.635   2.992  0.5357 -0.7832  0.1343
 5583TIP3    H216756   0.664   3.776   2.942  0.5320 -0.1916  1.7684
 5584TIP3   OH216757   3.903   0.374   3.961  0.3272  0.1620  0.3128
 5584TIP3    H116758   3.860   0.455   3.989  1.8573  0.7762  1.0189
 5584TIP3    H216759   3.956   0.400   3.886 -1.6547 -0.9187 -1.5800
 5585TIP3   OH216760   2.322   4.893   2.109  1.0350  0.6903 -0.1106
 5585TIP3    H116761   2.294   4.963   2.168  1.3148  1.1853 -0.5516
 5585TIP3    H216762   2.283   4.917   2.025 -1.4357 -1.2744  0.3409
 5586TIP3   OH216763   2.065   3.435   3.774  0.2575 -0.5649 -0.3617
 5586TIP3    H116764   2.086   3.494   3.846  1.4673  1.0134 -1.9216
 5586TIP3    H216765   2.139   3.374   3.771 -0.3360 -1.3589  0.3850
 5587TIP3   OH216766   1.953   2.224   2.379 -0.1030 -0.0316  0.1667
 5587TIP3    H116767   2.046   2.213   2.398  0.0384 -0.5023 -0.7590
 5587TIP3    H216768   1.930   2.148   2.325 -0.9793  0.1838  0.2211
 5588TIP3   OH216769   0.689   3.483   1.204  0.4330 -0.5194  0.2838
 5588TIP3    H116770   0.741   3.558   1.234 -0.4064  0.2548 -0.1573
 5588TIP3    H216771   0.705   3.479   1.110 -0.0609 -0.4582  0.1928
 5589TIP3   OH216772   0.855   0.899   1.800  0.2657  0.3815 -0.7080
 5589TIP3    H116773   0.767   0.865   1.813  0.1206  1.5793  2.4549
 5589TIP3    H216774   0.912   0.831   1.836  0.5130  0.2580 -1.3377
 5590TIP3   OH216775   6.157   4.551   0.887 -0.0911  0.1529  0.0001
 5590TIP3    H116776   6.108   4.607   0.827 -0.7593 -0.3611  0.0555
 5590TIP3    H216777   6.249   4.562   0.861 -0.4880 -2.5529 -3.3887
 5591TIP3   OH216778   2.238   3.939   0.477 -0.5928  0.4225  0.4842
 5591TIP3    H116779   2.174   4.006   0.501  0.8041  0.9961  3.0388
 5591TIP3    H216780   2.227   3.870   0.542  0.7495  0.1091  0.4185
 5592TIP3   OH216781   0.965   5.904   0.994  0.4263 -0.7415 -0.7704
 5592TIP3    H116782   1.061   5.896   0.993  0.3801 -1.4529 -0.2145
 5592TIP3    H216783   0.942   5.933   0.906  1.3669  2.0997 -0.1969
 5593TIP3   OH216784   3.857   5.417   1.625 -0.0708 -0.1576  0.3740
 5593TIP3    H116785   3.869   5.332   1.667 -0.3483 -0.6000 -0.4303
 5593TIP3    H216786   3.935   5.467   1.650  1.3259 -1.4734 -1.1145
 5594TIP3   OH216787   0.570   0.176   0.171 -0.0242 -0.5178  0.0324
 5594TIP3    H116788   0.526   0.196   0.254  2.7433  0.3519  1.3923
 5594TIP3    H216789   0.625   0.252   0.154  1.2173 -1.6824 -1.4003
 5595TIP3   OH216790   0.944   3.576   2.985  0.1719 -0.6148  0.1472
 5595TIP3    H116791   0.964   3.670   2.986 -0.9587 -0.3688 -0.0674
 5595TIP3    H216792   0.870   3.567   2.926  0.2666 -1.6512  0.1678
 5596TIP3   OH216793   5.257   4.882   2.077 -0.1084  0.0199  0.3668
 5596TIP3    H116794   5.188   4.816   2.076  1.5031 -1.7462  0.3983
 5596TIP3    H216795   5.219   4.957   2.031 -2.3825 -0.4844  1.2900
 5597TIP3   OH216796   1.778   5.247   3.218 -0.3390  0.8033  0.2554
 5597TIP3    H116797   1.797   5.252   3.124  0.7571 -2.0631  0.2164
 5597TIP3    H216798   1.831   5.317   3.257  0.9745  0.6051 -1.0694
 5598TIP3   OH216799   0.557   0.783   1.775  0.4489 -0.7530 -0.2429
 5598TIP3    H116800   0.510   0.866   1.780  1.0418 -0.1595 -2.7360
 5598TIP3    H216801   0.557   0.749   1.864 -1.8131  0.7922  0.4164
 5599TIP3   OH216802   5.061   4.461   3.510 -0.9730  0.0475 -0.6593
 5599TIP3    H116803   5.054   4.546   3.468 -2.2031 -0.1545 -0.8885
 5599TIP3    H216804   5.017   4.401   3.451  1.2736 -1.0847 -1.3191
 5600TIP3   OH216805   4.719   2.697   5.097  0.3338 -0.0337  0.4872
 5600TIP3    H116806   4.631   2.698   5.060  0.8712 -0.2782 -0.8275
 5600TIP3    H216807   4.706   2.666   5.187 -0.9294  0.0342  0.3482
 5601TIP3   OH216808   3.128   3.434   1.369  0.1633  0.0155  0.0492
 5601TIP3    H116809   3.202   3.418   1.427 -0.3236 -0.4611  0.5509
 5601TIP3    H216810   3.052   3.402   1.417 -0.2382 -0.5014 -0.9028
 5602TIP3   OH216811   5.453   3.661   3.914 -0.4113 -0.5003  0.0173
 5602TIP3    H116812   5.499   3.625   3.838  0.2013  0.2645  0.0064
 5602TIP3    H216813   5.484   3.752   3.919 -0.0564 -0.6895  1.4762
 5603TIP3   OH216814   1.355   0.938   1.394  0.3367 -0.4866  0.5216
 5603TIP3    H116815   1.428   0.960   1.337 -0.3156 -2.7332 -1.3379
 5603TIP3    H216816   1.373   0.985   1.476  2.9336  0.3638 -0.4440
 5604TIP3   OH216817   2.978   5.531   3.413  0.2880 -0.0426  0.2050
 5604TIP3    H116818   2.995   5.597   3.346  0.7947 -1.0369 -0.6882
 5604TIP3    H216819   3.011   5.569   3.494 -0.2951  1.1682 -0.1074
 5605TIP3   OH216820   2.231   2.436   2.009  0.1608  0.0906  0.0488
 5605TIP3    H116821   2.284   2.383   2.069 -4.5730 -2.7978  2.2525
 5605TIP3    H216822   2.179   2.493   2.066 -0.3404  1.6320 -1.8180
 5606TIP3   OH216823   1.264   0.253   0.244  0.0839 -0.3545 -0.4311
 5606TIP3    H116824   1.277   0.176   0.300  0.0615  0.2753  0.4574
 5606TIP3    H216825   1.237   0.322   0.304  1.0320  0.6080 -1.0780
 5607TIP3   OH216826   4.693   5.859   3.974  0.4125  0.5374  1.1198
 5607TIP3    H116827   4.774   5.908   3.982  0.5303  0.6011 -0.2081
 5607TIP3    H216828   4.627   5.925   3.953  0.0979  0.4269  1.7350
 5608TIP3   OH216829   1.979   2.345   1.094  0.2510 -0.3205  0.1279
 5608TIP3    H116830   1.963   2.264   1.144  2.7772 -1.4715 -0.7621
 5608TIP3    H216831   2.020   2.315   1.013  0.0870  1.8001 -0.7985
 5609TIP3   OH216832   3.569   4.952   0.030  0.4972  0.2763 -0.9763
 5609TIP3    H116833   3.531   4.901   0.102  1.6416 -0.2510 -0.7176
 5609TIP3    H216834   3.499   4.957  -0.035  0.6745 -2.7113 -1.5628
 5610TIP3   OH216835   5.555   4.961   4.004  0.1808 -0.0678  0.2860
 5610TIP3    H116836   5.486   4.992   4.062 -1.6652  0.1149 -1.8590
 5610TIP3    H216837   5.630   5.016   4.025 -0.5074  0.2197  2.1992
 5611TIP3   OH216838   0.611   4.673   0.270  0.2280  0.1696 -0.2970
 5611TIP3    H116839   0.592   4.645   0.359  1.2958  0.2827 -0.0237
 5611TIP3    H216840   0.706   4.678   0.266  0.1876  0.2830 -1.4100
 5612TIP3   OH216841   2.031   5.094   3.981 -0.3487  0.4529 -0.2995
 5612TIP3    H116842   1.937   5.100   3.962 -0.4390 -3.3443 -1.9377
 5612TIP3    H216843   2.034   5.052   4.067 -0.2591 -1.2464 -1.0952
 5613TIP3   OH216844   2.166   2.680   3.784  0.2599 -0.1699 -0.1641
 5613TIP3    H116845   2.166   2.722   3.870  1.3834  0.3324 -0.3992
 5613TIP3    H216846   2.073   2.661   3.767  0.1038 -1.0312  1.4990
 5614TIP3   OH216847   3.440   1.481   0.993 -0.2542 -0.6981  0.0922
 5614TIP3    H116848   3.434   1.454   1.085  1.8848 -1.2858  0.0970
 5614TIP3    H216849   3.528   1.455   0.965 -0.6256  0.0383 -1.9528
 5615TIP3   OH216850   3.909   5.865   0.856  0.4134  0.1217  0.1278
 5615TIP3    H116851   3.915   5.957   0.880  2.8486  0.1687 -0.4789
 5615TIP3    H216852   3.948   5.860   0.769  1.3087 -1.6258  0.5830
 5616TIP3   OH216853   5.080   5.376   2.829  0.3570  0.1343  0.2389
 5616TIP3    H116854   5.080   5.290   2.871 -2.1960 -0.0142  0.0671
 5616TIP3    H216855   4.990   5.389   2.801  0.8934  2.4773 -0.5969
 5617TIP3   OH216856   4.374   4.773   1.259 -0.0933 -0.0133 -0.3447
 5617TIP3    H116857   4.425   4.821   1.323 -1.3308 -1.7973  2.1807
 5617TIP3    H216858   4.300   4.830   1.238  0.7689  0.9245 -0.8625
 5618TIP3   OH216859   1.029   5.022   3.797 -0.1925 -0.6833 -0.0989
 5618TIP3    H116860   1.053   5.100   3.746 -0.0792 -0.2961  0.5456
 5618TIP3    H216861   1.107   5.002   3.849  0.4573 -2.3227 -1.5773
 5619TIP3   OH216862   1.273   0.925   3.467  0.8116  0.7340 -0.2578
 5619TIP3    H116863   1.336   0.996   3.466  1.2863  0.3194 -0.6843
 5619TIP3    H216864   1.189   0.967   3.487  1.3866  1.1339  1.4254
 5620TIP3   OH216865   3.192   0.704   0.388  0.2842 -0.2728 -0.0891
 5620TIP3    H116866   3.172   0.613   0.411  0.7376  0.0219  1.6110
 5620TIP3    H216867   3.173   0.753   0.467 -0.9542  1.2935 -1.3008
 5621TIP3   OH216868   5.689   0.460   0.689 -0.0280  0.6311 -0.0644
 5621TIP3    H116869   5.661   0.381   0.643 -0.3513  0.9139 -0.3582
 5621TIP3    H216870   5.758   0.430   0.747 -1.3189 -0.1924  1.1057
 5622TIP3   OH216871   4.250   5.092   1.311 -0.3005  0.0523 -0.4787
 5622TIP3    H116872   4.197   5.078   1.233 -1.3907  2.1130 -0.1514
 5622TIP3    H216873   4.187   5.097   1.383  0.4763  0.7468  0.1795
 5623TIP3   OH216874   3.780   5.918   3.103  1.0464 -0.4587 -0.0788
 5623TIP3    H116875   3.874   5.903   3.110  0.7564 -1.6802  3.7586
 5623TIP3    H216876   3.745   5.887   3.187 -2.6095  1.3147 -0.7542
 5624TIP3   OH216877   3.849   1.553   0.622  0.0106  0.2156 -0.4167
 5624TIP3    H116878   3.836   1.502   0.542 -2.4564  2.1564 -1.3763
 5624TIP3    H216879   3.854   1.643   0.592  0.2509  0.8961  1.5395
 5625TIP3   OH216880   5.997   4.301   2.900 -0.6211 -0.3029 -0.4298
 5625TIP3    H116881   6.088   4.278   2.879  0.0020  1.2807  0.3718
 5625TIP3    H216882   6.001   4.336   2.989 -1.8314  0.8098 -0.7838
 5626TIP3   OH216883   4.128   0.765   2.596  0.2153 -0.9425  0.1026
 5626TIP3    H116884   4.118   0.671   2.581 -3.3725 -0.9581  1.6199
 5626TIP3    H216885   4.048   0.804   2.560  1.0759  1.3926  0.5305
 5627TIP3   OH216886   3.774   5.709   3.308  0.1237 -0.0687  0.5605
 5627TIP3    H116887   3.786   5.677   3.398  2.6614 -1.0081 -0.0235
 5627TIP3    H216888   3.695   5.664   3.277  0.5827 -1.6459  1.5392
 5628TIP3   OH216889   2.792   0.957   1.691  0.0758  0.0803 -0.3191
 5628TIP3    H116890   2.733   0.882   1.687  0.3806 -0.1866  0.0564
 5628TIP3    H216891   2.735   1.033   1.697 -0.2338 -0.1508 -0.3570
 5629TIP3   OH216892   1.999   0.882   4.933  0.5959  0.0233 -0.1964
 5629TIP3    H116893   1.905   0.869   4.939  0.5209  1.1821  2.0682
 5629TIP3    H216894   2.032   0.800   4.895 -1.1066 -1.2873  0.9826
 5630TIP3   OH216895   2.225   3.104   4.241  0.5193  0.1785  0.3934
 5630TIP3    H116896   2.182   3.032   4.287  0.3608 -1.1086 -1.6347
 5630TIP3    H216897   2.166   3.125   4.169  0.2345  2.8638  1.3096
 5631TIP3   OH216898   1.541   5.613   0.427  0.0715  0.2917 -0.0854
 5631TIP3    H116899   1.547   5.527   0.468 -0.6622  0.6673  0.8545
 5631TIP3    H216900   1.613   5.615   0.364  2.0382  0.1390  2.0440
 5632TIP3   OH216901   1.967   0.956   3.448 -0.0327 -0.5163 -0.5564
 5632TIP3    H116902   1.894   0.926   3.503  0.3438  1.7215  1.2864
 5632TIP3    H216903   1.979   0.885   3.384 -1.2994 -2.6927  1.4564
 5633TIP3   OH216904   3.421   2.338   3.787 -0.4107  0.1272 -0.0257
 5633TIP3    H116905   3.465   2.281   3.724 -0.5021  1.4833 -1.3751
 5633TIP3    H216906   3.328   2.326   3.770 -0.4275  0.7269 -0.3720
 5634TIP3   OH216907   0.456   0.321   4.573  0.3700  0.4369 -0.1499
 5634TIP3    H116908   0.407   0.315   4.656  1.3948 -0.9662  0.3989
 5634TIP3    H216909   0.412   0.259   4.515  1.0503 -0.3248  0.1269
 5635TIP3   OH216910   2.555   2.385   0.097 -0.3050 -0.1504 -0.4378
 5635TIP3    H116911   2.477   2.356   0.145 -1.3205  1.4236 -1.0708
 5635TIP3    H216912   2.593   2.304   0.063 -2.5290 -0.8696 -1.3752
 5636TIP3   OH216913   0.345   1.565   2.255 -0.5125  0.0732 -0.0452
 5636TIP3    H116914   0.339   1.647   2.207 -1.2281 -0.4341 -0.8487
 5636TIP3    H216915   0.409   1.582   2.324 -1.4650  1.6531  0.5015
 5637TIP3   OH216916   2.005   2.025   3.932 -0.2624 -0.7249  0.1777
 5637TIP3    H116917   2.012   1.936   3.898  0.5582 -0.7084  0.2818
 5637TIP3    H216918   2.002   2.014   4.027  3.4019 -0.5282  0.4536
 5638TIP3   OH216919   2.493   4.737   3.906 -0.2853 -0.1120  0.2136
 5638TIP3    H116920   2.586   4.724   3.923 -0.0454  0.9881 -0.1691
 5638TIP3    H216921   2.486   4.742   3.811 -0.9570 -1.6129  0.1551
 5639TIP3   OH216922   0.131   1.031   3.031  0.3454  0.4571 -0.1718
 5639TIP3    H116923   0.140   1.056   2.939  1.0588 -0.0480 -0.2515
 5639TIP3    H216924   0.166   1.105   3.080  0.1486  0.6452 -0.3163
 5640TIP3   OH216925   1.484   4.625   2.057  0.1710  0.4938 -0.5161
 5640TIP3    H116926   1.441   4.541   2.069  1.4546 -0.0781  0.4180
 5640TIP3    H216927   1.416   4.684   2.025 -0.5344 -1.1246 -2.0910
 5641TIP3   OH216928   3.311   1.045   4.857  0.0297 -0.6331  0.3970
 5641TIP3    H116929   3.290   1.001   4.939 -0.4208 -0.5045  0.3509
 5641TIP3    H216930   3.281   1.135   4.869  0.8637 -0.3566  0.4558
 5642TIP3   OH216931   2.877   5.920   1.735  0.0562 -0.3697 -0.3922
 5642TIP3    H116932   2.971   5.918   1.716  0.4290  0.6392  1.2222
 5642TIP3    H216933   2.836   5.892   1.653  1.7156  0.2271 -1.4733
 5643TIP3   OH216934   5.959   4.956   1.695  0.5489  0.0931 -0.3645
 5643TIP3    H116935   5.952   5.050   1.679  1.2247  0.6984  2.3673
 5643TIP3    H216936   6.050   4.942   1.719 -0.1505 -0.6334  2.2314
 5644TIP3   OH216937   2.753   4.955   1.283  0.1850 -1.2134  0.2861
 5644TIP3    H116938   2.847   4.970   1.295  0.2998 -0.8477 -1.0165
 5644TIP3    H216939   2.746   4.860   1.268  0.5956 -0.9491 -1.7382
 5645TIP3   OH216940   4.113   1.576   3.713  0.4025 -0.3414  0.2386
 5645TIP3    H116941   4.168   1.618   3.778 -0.3506  0.1450  0.5711
 5645TIP3    H216942   4.169   1.508   3.674  0.8513 -0.6626  1.4051
 5646TIP3   OH216943   4.334   5.789   0.049 -0.8388 -0.1113 -0.0666
 5646TIP3    H116944   4.336   5.850   0.122  0.3108 -0.0173 -0.1575
 5646TIP3    H216945   4.262   5.730   0.070 -1.2451  0.5936  0.5786
 5647TIP3   OH216946   4.497   2.866   1.621  0.1486 -0.6892  0.1673
 5647TIP3    H116947   4.429   2.919   1.661  0.0506 -0.6589 -0.0381
 5647TIP3    H216948   4.577   2.891   1.668  0.0566 -0.5632  0.2587
 5648TIP3   OH216949   2.476   5.084   1.397  0.6543  0.1914  0.2190
 5648TIP3    H116950   2.490   5.152   1.462 -0.6552 -1.3690  2.2370
 5648TIP3    H216951   2.562   5.045   1.382  0.8022 -0.2049  1.9577
 5649TIP3   OH216952   0.844   3.840   3.695  0.1697 -0.5835 -0.1670
 5649TIP3    H116953   0.872   3.930   3.679  0.1743 -0.6122 -0.3186
 5649TIP3    H216954   0.767   3.829   3.639 -0.6479 -0.2413  0.8367
 5650TIP3   OH216955   3.790   0.492   1.815  0.4858  0.2901  0.2888
 5650TIP3    H116956   3.808   0.483   1.722  0.4423  0.2009  0.2889
 5650TIP3    H216957   3.862   0.546   1.848  0.3202  0.6013  0.1441
 5651TIP3   OH216958   0.404   0.840   1.009 -0.0510  0.2774 -0.2230
 5651TIP3    H116959   0.342   0.798   0.950  0.8416 -3.4337  1.1676
 5651TIP3    H216960   0.477   0.867   0.952 -0.5875 -0.2724 -1.1973
 5652TIP3   OH216961   5.580   1.788   0.407  0.2757 -0.2779  0.5710
 5652TIP3    H116962   5.612   1.736   0.334 -0.2016  0.0344  0.1381
 5652TIP3    H216963   5.650   1.784   0.472  0.9676 -0.0432 -0.1500
 5653TIP3   OH216964   5.179   5.292   0.234 -0.1559 -0.0374  0.0886
 5653TIP3    H116965   5.093   5.250   0.229 -0.9389  1.5040 -0.2552
 5653TIP3    H216966   5.172   5.352   0.308  1.2970 -1.2256  1.2542
 5654TIP3   OH216967   2.929   0.332   4.300  0.0432  0.3122 -0.2247
 5654TIP3    H116968   2.905   0.254   4.350  1.1004  0.8958  1.2293
 5654TIP3    H216969   3.024   0.327   4.290 -0.0813  0.4840 -1.7510
 5655TIP3   OH216970   2.673   5.681   2.139 -0.3688  0.3238 -0.1079
 5655TIP3    H116971   2.758   5.714   2.169 -0.4162  0.1321  0.2470
 5655TIP3    H216972   2.673   5.695   2.045  0.1862  0.0409 -0.1539
 5656TIP3   OH216973   2.419   2.082   1.363  0.1238  0.4268 -0.1921
 5656TIP3    H116974   2.387   2.172   1.374  1.1232  0.9255 -1.1887
 5656TIP3    H216975   2.513   2.087   1.380 -0.1142 -0.8729  1.9180
 5657TIP3   OH216976   1.635   0.173   2.267 -0.1791  0.2968 -0.1060
 5657TIP3    H116977   1.578   0.181   2.190  1.6539  1.0863 -1.4291
 5657TIP3    H216978   1.675   0.259   2.276  2.2107 -0.7180 -0.3664
 5658TIP3   OH216979   2.680   4.741   4.934 -0.2396 -0.4126 -0.7809
 5658TIP3    H116980   2.706   4.680   4.865  2.1722  1.5737 -1.7920
 5658TIP3    H216981   2.678   4.827   4.891  0.2932  0.7518  1.3686
 5659TIP3   OH216982   6.112   0.520   3.981  0.1090 -0.0050  0.7845
 5659TIP3    H116983   6.083   0.604   4.017  1.0151  0.1176  1.2322
 5659TIP3    H216984   6.042   0.459   4.004 -0.1741  0.4535  1.1625
 5660TIP3   OH216985   1.478   2.189   4.789 -0.6322  1.0185 -0.2328
 5660TIP3    H116986   1.398   2.166   4.741 -1.0739  0.3790  0.7835
 5660TIP3    H216987   1.525   2.106   4.799 -0.6832  1.0915  0.6710
 5661TIP3   OH216988   5.969   3.520   4.795  0.5600  0.6935  0.5262
 5661TIP3    H116989   5.938   3.575   4.867 -2.5110  0.9707 -0.8621
 5661TIP3    H216990   6.016   3.581   4.738  0.7739  0.9933  1.0069
 5662TIP3   OH216991   4.113   4.859   1.765  0.0394 -0.2664 -0.0980
 5662TIP3    H116992   4.152   4.857   1.678  0.0218 -0.1463 -0.1083
 5662TIP3    H216993   4.186   4.874   1.824  0.3918 -2.4244  0.1074
 5663TIP3   OH216994   2.703   3.233   2.788  0.0184  0.8100 -0.4095
 5663TIP3    H116995   2.733   3.181   2.714 -1.2944  1.3210 -1.3310
 5663TIP3    H216996   2.708   3.324   2.758  0.2311  1.0824  0.4168
 5664TIP3   OH216997   0.501   1.558   1.403 -0.0708 -0.6074 -0.3427
 5664TIP3    H116998   0.503   1.493   1.332 -4.5246  0.4357 -1.7253
 5664TIP3    H216999   0.486   1.641   1.358 -1.1435  0.3752  1.7239
 5665TIP3   OH217000   0.693   0.296   5.057 -0.7895 -0.0498  0.6279
 5665TIP3    H117001   0.724   0.287   4.967 -0.7330 -0.9146  0.7319
 5665TIP3    H217002   0.772   0.307   5.109 -0.8000  0.0251  0.6292
 5666TIP3   OH217003   2.686   0.022   4.278 -0.9271  0.0967  0.3658
 5666TIP3    H117004   2.774   0.021   4.316 -0.1976  0.2324 -1.2414
 5666TIP3    H217005   2.630   0.056   4.348  0.6029  1.8926  0.7870
 5667TIP3   OH217006   5.743   3.116   2.840  0.2166  0.0866 -0.2936
 5667TIP3    H117007   5.769   3.163   2.920  1.9845  1.0285 -1.3517
 5667TIP3    H217008   5.656   3.151   2.819  0.5529  1.2621  0.1696
 5668TIP3   OH217009   0.313   4.308   0.987 -0.0653  0.1929 -0.1203
 5668TIP3    H117010   0.239   4.249   0.973 -0.1871 -0.0078  1.2291
 5668TIP3    H217011   0.282   4.393   0.955 -0.7478  0.0299  0.0899
 5669TIP3   OH217012   3.670   4.382   3.485 -0.0828 -0.1496 -0.0311
 5669TIP3    H117013   3.714   4.354   3.405  2.3508  2.8013  0.0768
 5669TIP3    H217014   3.592   4.429   3.454  1.1623  1.5130 -0.8108
 5670TIP3   OH217015   3.322   4.299   4.669  0.3398  0.0527  0.3141
 5670TIP3    H117016   3.397   4.243   4.648 -0.4132 -1.0769  0.5715
 5670TIP3    H217017   3.288   4.326   4.583  1.2350  0.8566  0.1993
 5671TIP3   OH217018   1.321   1.065   3.112  0.1510  0.4491 -0.6120
 5671TIP3    H117019   1.356   0.991   3.162  0.3672  0.4163 -0.8123
 5671TIP3    H217020   1.309   1.031   3.024  1.3865  0.9777 -1.0090
 5672TIP3   OH217021   2.337   4.202   0.323 -0.7889  0.3132 -0.3572
 5672TIP3    H117022   2.362   4.117   0.286  0.1123  1.4199 -2.4997
 5672TIP3    H217023   2.339   4.261   0.248 -0.8319  2.3422  1.1800
 5673TIP3   OH217024   5.749   3.905   0.447 -0.2288  0.4040 -0.2399
 5673TIP3    H117025   5.703   3.987   0.465  0.7323  0.9437 -0.2306
 5673TIP3    H217026   5.752   3.861   0.532  2.0137  1.7900  0.4911
 5674TIP3   OH217027   5.495   5.799   0.596 -0.3691  0.3361  0.1339
 5674TIP3    H117028   5.584   5.806   0.560 -0.5125  0.9117 -0.1307
 5674TIP3    H217029   5.451   5.736   0.539 -0.0028 -0.3063  0.5445
 5675TIP3   OH217030   3.730   0.911   3.259  0.2990  0.1395 -0.0713
 5675TIP3    H117031   3.651   0.963   3.274  1.0924  1.4272 -0.2307
 5675TIP3    H217032   3.788   0.933   3.331  0.5186 -0.8153  0.0547
 5676TIP3   OH217033   3.123   2.223   3.422  0.2282 -0.6803  0.4732
 5676TIP3    H117034   3.119   2.187   3.333 -0.9501 -0.8215  0.5602
 5676TIP3    H217035   3.141   2.147   3.478 -0.7051 -0.8890  0.5056
 5677TIP3   OH217036   1.179   1.172   1.889 -0.1276  0.1093 -0.2580
 5677TIP3    H117037   1.087   1.148   1.904 -0.1301 -1.2231 -2.0591
 5677TIP3    H217038   1.175   1.264   1.863 -1.4208 -0.6701 -3.3445
 5678TIP3   OH217039   4.895   1.796   3.620 -0.4039 -0.3590 -0.2488
 5678TIP3    H117040   4.886   1.877   3.669 -0.3567  0.2944 -1.2864
 5678TIP3    H217041   4.807   1.778   3.587 -0.0392  0.3751 -1.6861
 5679TIP3   OH217042   0.265   2.632   2.197  0.7609 -0.1618 -0.2495
 5679TIP3    H117043   0.213   2.598   2.125  0.8803  0.5961 -0.7073
 5679TIP3    H217044   0.322   2.697   2.157  1.8076 -0.7127  0.3100
 5680TIP3   OH217045   5.383   0.929   1.557  0.6291 -0.0738 -0.6491
 5680TIP3    H117046   5.406   0.846   1.515  3.9224  0.7173 -0.6521
 5680TIP3    H217047   5.393   0.912   1.651  0.3226  0.0880 -0.5822
 5681TIP3   OH217048   4.227   5.830   0.866  0.0879 -0.2569  0.3379
 5681TIP3    H117049   4.264   5.787   0.943 -0.8027 -0.4216  0.6874
 5681TIP3    H217050   4.180   5.761   0.821 -0.4651  0.1143  0.3349
 5682TIP3   OH217051   6.094   0.061   2.787 -0.1210  0.1546 -0.0522
 5682TIP3    H117052   6.149   0.087   2.712  0.0916 -1.0661 -0.3336
 5682TIP3    H217053   6.096   0.137   2.845  1.3377  0.3880 -0.3684
 5683TIP3   OH217054   1.191   5.474   2.391 -0.1846  0.1274 -0.4477
 5683TIP3    H117055   1.271   5.427   2.369  0.2943  1.1101 -0.8248
 5683TIP3    H217056   1.131   5.405   2.422  0.6125 -0.6818 -0.6645
 5684TIP3   OH217057   3.975   3.891   3.514 -0.6240 -0.1502 -0.5555
 5684TIP3    H117058   3.910   3.825   3.537  0.1999 -0.9029 -0.3060
 5684TIP3    H217059   4.002   3.929   3.598  0.2574 -0.8260 -0.5202
 5685TIP3   OH217060   3.199   5.559   2.056  0.4703  0.3429  0.0881
 5685TIP3    H117061   3.157   5.531   2.137 -3.2034  0.1169 -1.6528
 5685TIP3    H217062   3.235   5.645   2.075 -0.5526  0.4155  1.8907
 5686TIP3   OH217063   2.135   2.243   0.864 -0.1678  0.4299 -0.0448
 5686TIP3    H117064   2.134   2.304   0.789  3.3802  0.8499  0.0793
 5686TIP3    H217065   2.160   2.159   0.826  0.2955  0.3264  0.4856
 5687TIP3   OH217066   6.343   2.276   4.009  0.0336 -1.0381 -0.0824
 5687TIP3    H117067   6.365   2.203   3.951 -1.2861 -0.7833 -0.9731
 5687TIP3    H217068   6.305   2.342   3.950  1.6024  0.5728  0.6207
 5688TIP3   OH217069   1.552   1.261   1.514 -0.8700  0.4906 -0.0753
 5688TIP3    H117070   1.514   1.314   1.443  1.8690  1.7280 -0.7468
 5688TIP3    H217071   1.476   1.233   1.565 -2.9479  0.0457 -3.0933
 5689TIP3   OH217072   4.084   3.060   2.308  0.1933  0.1545  0.0521
 5689TIP3    H117073   4.090   3.147   2.268  0.0350 -1.0357 -2.7654
 5689TIP3    H217074   3.991   3.037   2.303  0.2277 -0.1898  0.8209
 5690TIP3   OH217075   1.832   1.141   4.703  0.2883 -0.5054 -0.0950
 5690TIP3    H117076   1.761   1.199   4.677  0.9923 -0.1833 -1.3763
 5690TIP3    H217077   1.911   1.182   4.669  0.9920 -1.3390  0.4794
 5691TIP3   OH217078   2.629   1.346   2.370  0.1734  0.5756  0.2354
 5691TIP3    H117079   2.717   1.310   2.369 -0.3658 -0.9549  1.9762
 5691TIP3    H217080   2.638   1.433   2.410  1.1722  1.5192 -1.8870
 5692TIP3   OH217081   5.642   1.725   3.228 -0.2255 -0.2948  0.3620
 5692TIP3    H117082   5.654   1.725   3.133 -0.9504  1.2486  0.2379
 5692TIP3    H217083   5.730   1.713   3.263  0.4949  1.8944 -0.5208
 5693TIP3   OH217084   2.758   3.515   1.668  0.2632 -0.2449 -0.4551
 5693TIP3    H117085   2.794   3.444   1.721 -0.0959 -0.2468 -0.2086
 5693TIP3    H217086   2.672   3.482   1.640  0.3082 -0.1079 -0.7555
 5694TIP3   OH217087   4.817   3.106   3.012 -0.4166  0.3245  0.2266
 5694TIP3    H117088   4.769   3.039   2.963  0.4884 -2.0160  2.3121
 5694TIP3    H217089   4.874   3.147   2.947 -0.7422 -1.2063 -1.0991
 5695TIP3   OH217090   1.636   2.876   0.154  0.2667  0.0231 -0.3683
 5695TIP3    H117091   1.681   2.959   0.169  0.0223  0.0833  0.0485
 5695TIP3    H217092   1.617   2.875   0.060  2.4014 -0.6548 -0.8468
 5696TIP3   OH217093   2.875   0.458   0.336  0.4253 -0.3282  0.4739
 5696TIP3    H117094   2.937   0.491   0.271 -1.2528 -1.3304 -1.7740
 5696TIP3    H217095   2.928   0.407   0.397  2.0206  0.3021 -0.3368
 5697TIP3   OH217096   3.827   4.765   4.349 -0.1768  0.2869 -0.4877
 5697TIP3    H117097   3.918   4.758   4.377 -0.9075  1.7531  2.6240
 5697TIP3    H217098   3.789   4.680   4.371  0.3803 -0.3633 -1.8765
 5698TIP3   OH217099   1.846   1.770   4.212 -0.3753 -0.3194  0.0467
 5698TIP3    H117100   1.754   1.750   4.229 -0.5465 -2.5520 -2.6399
 5698TIP3    H217101   1.862   1.852   4.258 -3.2828 -0.5850  1.7864
 5699TIP3   OH217102   3.528   0.176   4.974  0.1365  0.6797  0.2801
 5699TIP3    H117103   3.503   0.084   4.982 -0.7546  0.8701 -0.1898
 5699TIP3    H217104   3.457   0.225   5.016 -0.4851  1.2454 -1.3167
 5700TIP3   OH217105   1.089   3.809   2.635 -0.1179  0.0511  0.5945
 5700TIP3    H117106   0.994   3.816   2.644 -0.0874 -0.1561  1.1363
 5700TIP3    H217107   1.104   3.803   2.541 -0.7103 -0.7402  0.5343
 5701TIP3   OH217108   0.376   1.549   0.419 -0.0496  0.5463 -0.1451
 5701TIP3    H117109   0.448   1.612   0.424  0.5108 -0.0474 -0.6598
 5701TIP3    H217110   0.418   1.464   0.422 -0.8035  0.1894  0.4685
 5702TIP3   OH217111   1.568   1.907   2.973  0.2171  0.1520  0.3907
 5702TIP3    H117112   1.509   1.850   2.924  0.6418 -1.1172  1.3154
 5702TIP3    H217113   1.569   1.989   2.923 -1.3486 -0.2231 -0.2975
 5703TIP3   OH217114   4.437   1.926   1.931 -0.4005 -0.3781 -0.3168
 5703TIP3    H117115   4.375   1.903   1.862  0.0491  2.9888 -2.0739
 5703TIP3    H217116   4.389   1.987   1.987  0.6014  0.5945 -0.4591
 5704TIP3   OH217117   1.272   0.423   2.941 -0.4970 -0.0766 -0.0017
 5704TIP3    H117118   1.320   0.442   2.860 -2.3913 -0.2050 -1.2319
 5704TIP3    H217119   1.249   0.331   2.934 -0.5142 -0.1412  0.8029
 5705TIP3   OH217120   1.729   0.931   1.626  0.5324 -0.1938  0.2991
 5705TIP3    H117121   1.788   0.971   1.690  0.3225 -0.1287  0.4516
 5705TIP3    H217122   1.649   0.915   1.674 -0.6725  2.4826 -0.6042
 5706TIP3   OH217123   2.350   4.914   4.670  0.2272  0.7926  0.2231
 5706TIP3    H117124   2.348   4.871   4.585  0.6902  0.6621  0.2783
 5706TIP3    H217125   2.327   4.846   4.733 -1.7929  1.2545  0.0719
 5707TIP3   OH217126   5.114   4.224   0.764  0.3133  0.2637 -0.0212
 5707TIP3    H117127   5.058   4.149   0.742 -1.1379  0.5591  2.2802
 5707TIP3    H217128   5.201   4.201   0.731 -0.4828 -1.6113 -0.9299
 5708TIP3   OH217129   4.940   1.602   4.562 -0.0355  0.5179  0.0890
 5708TIP3    H117130   4.932   1.527   4.504  3.4320 -0.6608  0.9153
 5708TIP3    H217131   5.005   1.659   4.520  2.2481 -0.1737  2.4271
 5709TIP3   OH217132   6.137   4.212   3.721  0.3284  0.5485 -0.2762
 5709TIP3    H117133   6.071   4.256   3.775  1.1292  0.7872  0.5282
 5709TIP3    H217134   6.168   4.140   3.775  0.3429  0.0986 -0.8714
 5710TIP3   OH217135   1.902   1.145   4.992 -0.2834 -0.2333 -0.1776
 5710TIP3    H117136   1.889   1.165   4.899  0.6543  0.2165 -0.2207
 5710TIP3    H217137   1.910   1.049   4.995  0.1529 -0.2170 -0.6337
 5711TIP3   OH217138   3.057   2.007   0.431  0.2579  0.5866 -0.0428
 5711TIP3    H117139   3.136   1.981   0.384  0.4987  1.1777  0.0191
 5711TIP3    H217140   2.994   2.028   0.363 -0.1810 -0.8327 -0.0959
 5712TIP3   OH217141   2.725   1.526   3.650 -0.0927 -0.2959 -0.0178
 5712TIP3    H117142   2.671   1.529   3.571 -0.7337 -0.1277  0.4163
 5712TIP3    H217143   2.709   1.610   3.694  2.7105  1.0396 -1.2644
 5713TIP3   OH217144   4.587   5.602   0.136  0.1110  0.0383 -0.3373
 5713TIP3    H117145   4.520   5.640   0.079 -0.2923 -1.3341 -0.8376
 5713TIP3    H217146   4.578   5.649   0.218 -2.3733 -0.9249  0.0357
 5714TIP3   OH217147   1.259   3.024   0.364  0.1074 -0.1712 -0.0274
 5714TIP3    H117148   1.210   3.095   0.323  0.2374 -0.4696 -0.7144
 5714TIP3    H217149   1.236   2.946   0.312  0.6371 -0.4695  0.1803
 5715TIP3   OH217150   0.890   2.497   2.031  0.1643  0.1414  0.3840
 5715TIP3    H117151   0.973   2.451   2.042  1.4621  1.7587 -1.8553
 5715TIP3    H217152   0.904   2.583   2.072 -0.1839  0.6103 -0.4479
 5716TIP3   OH217153   1.384   4.194   2.297  0.2855 -0.0115  0.1795
 5716TIP3    H117154   1.457   4.138   2.323  1.0255  1.2652  0.9554
 5716TIP3    H217155   1.310   4.134   2.286  1.5849 -1.4542 -1.3259
 5717TIP3   OH217156   1.101   2.058   1.515 -0.6129 -0.6083  0.0595
 5717TIP3    H117157   1.090   2.126   1.449  0.4174 -1.1391 -0.6811
 5717TIP3    H217158   1.083   1.976   1.469  1.1259 -1.0692  0.1413
 5718TIP3   OH217159   4.914   1.110   0.972  0.1294 -0.2782 -0.8229
 5718TIP3    H117160   4.882   1.069   0.891 -2.1090 -2.4152  0.9624
 5718TIP3    H217161   4.841   1.164   1.002  0.9613  0.5550 -0.2408
 5719TIP3   OH217162   3.543   2.209   1.249  0.2065 -0.4310  0.2743
 5719TIP3    H117163   3.495   2.128   1.232 -0.5905  0.2035 -0.6139
 5719TIP3    H217164   3.530   2.225   1.343  0.1335 -1.1816  0.3958
 5720TIP3   OH217165   4.234   4.397   2.513  0.3319  0.4789 -0.1501
 5720TIP3    H117166   4.147   4.409   2.475  0.1828 -0.2662 -0.0738
 5720TIP3    H217167   4.291   4.382   2.437  0.1557 -0.3200 -0.1388
 5721TIP3   OH217168   2.217   3.520   4.586 -0.3140 -0.5479 -0.1990
 5721TIP3    H117169   2.303   3.511   4.626 -0.1932  2.0592  0.3000
 5721TIP3    H217170   2.216   3.610   4.553 -2.6003 -0.7481 -0.8045
 5722TIP3   OH217171   3.956   5.121   3.503 -0.0633 -0.1214 -0.0271
 5722TIP3    H117172   3.959   5.208   3.463 -1.0587  0.7508  1.6425
 5722TIP3    H217173   4.040   5.111   3.546  0.6356 -0.6568 -1.4567
 5723TIP3   OH217174   4.154   1.900   1.150  0.3699  0.0026 -0.4191
 5723TIP3    H117175   4.139   1.806   1.163  0.5141 -0.1455 -1.2595
 5723TIP3    H217176   4.116   1.919   1.064 -0.1216  0.8252 -0.0284
 5724TIP3   OH217177   1.016   3.708   4.428  0.1191  0.5841 -0.1203
 5724TIP3    H117178   0.953   3.638   4.446  1.1043 -0.4982 -0.7757
 5724TIP3    H217179   0.968   3.789   4.449 -0.8676 -0.2901  1.1436
 5725TIP3   OH217180   0.890   3.197   1.913  0.1067 -0.0479 -0.2520
 5725TIP3    H117181   0.852   3.281   1.888 -2.4644 -1.2579 -0.7879
 5725TIP3    H217182   0.856   3.180   2.001  1.5625 -0.0402  0.3432
 5726TIP3   OH217183   5.911   1.754   1.470 -0.3893  0.0759 -0.1729
 5726TIP3    H117184   5.852   1.684   1.500  0.5207 -1.0288 -0.8666
 5726TIP3    H217185   5.944   1.723   1.386  0.1991  1.2591 -0.3975
 5727TIP3   OH217186   1.148   4.038   2.308 -0.5779 -0.1111 -0.8480
 5727TIP3    H117187   1.090   4.020   2.234 -0.2300  2.5015 -1.8283
 5727TIP3    H217188   1.100   4.102   2.361  0.1422 -0.2488 -0.0198
 5728TIP3   OH217189   1.016   0.658   2.881 -0.1132  0.1970 -0.4275
 5728TIP3    H117190   1.087   0.651   2.945 -0.0467 -0.2608 -0.5472
 5728TIP3    H217191   0.979   0.745   2.895 -0.6151 -0.1917  0.7817
 5729TIP3   OH217192   6.191   3.409   1.660 -0.4269  0.5712 -0.1088
 5729TIP3    H117193   6.263   3.351   1.688 -0.8014  1.2993  2.7203
 5729TIP3    H217194   6.122   3.349   1.631 -0.4480 -0.4495  1.8383
 5730TIP3   OH217195   3.909   1.556   3.346  0.3096 -0.3869  0.0850
 5730TIP3    H117196   3.962   1.632   3.321  0.1970 -0.3329  0.0054
 5730TIP3    H217197   3.952   1.482   3.305 -0.1426 -0.2396 -0.6850
 5731TIP3   OH217198   0.521   1.815   1.264 -0.2779 -0.5111  0.0200
 5731TIP3    H117199   0.534   1.907   1.243 -0.8484 -0.4400 -0.0403
 5731TIP3    H217200   0.472   1.779   1.190  0.8965 -1.1370 -0.4808
 5732TIP3   OH217201   5.858   1.021   3.504 -0.2601  0.4689 -0.4028
 5732TIP3    H117202   5.929   1.084   3.490  1.0606 -0.8461  0.0361
 5732TIP3    H217203   5.791   1.044   3.440 -0.0010  2.5350  0.0093
 5733TIP3   OH217204   1.384   2.123   0.966  0.5666 -0.7381 -0.2709
 5733TIP3    H117205   1.378   2.093   1.057  0.8333 -0.7623 -0.2621
 5733TIP3    H217206   1.330   2.202   0.963  1.1399 -0.3256  0.0781
 5734TIP3   OH217207   0.992   2.030   0.807 -0.5516 -0.5484  0.2033
 5734TIP3    H117208   1.041   2.105   0.775  1.9512 -2.2241 -0.1912
 5734TIP3    H217209   0.909   2.067   0.839 -0.3552  2.0499 -1.9180
 5735TIP3   OH217210   5.198   2.340   0.660 -0.0946 -0.2097 -0.0804
 5735TIP3    H117211   5.108   2.315   0.679  0.4815 -1.4672  1.1745
 5735TIP3    H217212   5.208   2.324   0.566 -1.0891 -0.3307 -0.1747
 5736TIP3   OH217213   3.036   5.847   0.860 -0.6058 -0.6268  0.0743
 5736TIP3    H117214   3.113   5.855   0.916 -2.1148  0.0203  2.1833
 5736TIP3    H217215   2.969   5.899   0.903 -2.2551 -1.1717 -1.6728
 5737TIP3   OH217216   3.674   3.293   2.704  0.4642 -0.0827 -0.5960
 5737TIP3    H117217   3.679   3.363   2.769  0.7125 -1.2001  0.6534
 5737TIP3    H217218   3.628   3.332   2.630  1.0325  1.5269 -0.1425
 5738TIP3   OH217219   2.466   3.288   2.491 -0.3163 -0.1718 -0.5955
 5738TIP3    H117220   2.545   3.236   2.504  0.7605  1.3549 -0.7633
 5738TIP3    H217221   2.456   3.293   2.396  0.0279  0.5361 -0.6026
 5739TIP3   OH217222   5.579   5.491   0.689 -0.2927 -0.0473 -0.5439
 5739TIP3    H117223   5.646   5.520   0.628 -0.0901  0.2233 -0.1993
 5739TIP3    H217224   5.581   5.556   0.759  0.4065 -1.0747  0.4209
 5740TIP3   OH217225   1.303   5.792   0.794 -0.2093  0.3181  0.2046
 5740TIP3    H117226   1.234   5.792   0.728  0.4949  0.2580 -0.5541
 5740TIP3    H217227   1.342   5.879   0.788 -1.7924  1.2560  2.3641
 5741TIP3   OH217228   1.578   0.657   1.048  0.7673 -0.4906 -0.1660
 5741TIP3    H117229   1.500   0.625   1.093  0.5432 -0.6203 -0.6380
 5741TIP3    H217230   1.557   0.649   0.955  1.5150 -0.9571 -0.3022
 5742TIP3   OH217231   4.091   5.050   0.557 -0.1577  0.1692 -0.8070
 5742TIP3    H117232   4.179   5.018   0.540 -0.3473 -1.8500  1.4933
 5742TIP3    H217233   4.034   4.977   0.535 -0.9485  0.2371  0.8746
 5743TIP3   OH217234   4.480   0.827   1.341 -0.3542  0.0695 -0.5834
 5743TIP3    H117235   4.557   0.821   1.286 -1.5110 -1.6360 -2.1601
 5743TIP3    H217236   4.470   0.920   1.360 -0.0316  0.7944 -3.5153
 5744TIP3   OH217237   0.284   5.736   3.313 -1.0695  0.2722  0.0112
 5744TIP3    H117238   0.216   5.804   3.316 -0.3071  1.0198  1.7273
 5744TIP3    H217239   0.355   5.771   3.367 -0.5106 -1.7616  0.6823
 5745TIP3   OH217240   4.547   3.885   3.811 -0.5839  0.0222 -0.5529
 5745TIP3    H117241   4.582   3.829   3.742 -0.8839  0.2335 -0.8830
 5745TIP3    H217242   4.455   3.899   3.785 -0.5766  0.4578 -0.3437
 5746TIP3   OH217243   5.339   5.785   1.962  0.0071 -0.1108 -0.3516
 5746TIP3    H117244   5.423   5.782   1.917 -0.4109 -2.5728 -1.1404
 5746TIP3    H217245   5.290   5.853   1.917  1.6913  1.7573  0.4777
 5747TIP3   OH217246   1.425   4.023   3.430 -0.5068  0.2839  0.4208
 5747TIP3    H117247   1.449   4.006   3.339 -1.5950  2.9120 -0.4501
 5747TIP3    H217248   1.454   4.113   3.446 -0.4014 -0.1018  2.6807
 5748TIP3   OH217249   0.600   5.461   1.935 -0.0995  0.0056  0.0788
 5748TIP3    H117250   0.522   5.465   1.990 -1.4316  2.0237 -1.7926
 5748TIP3    H217251   0.570   5.418   1.854  0.4054  1.6193 -1.0220
 5749TIP3   OH217252   0.949   3.988   4.148 -0.0776 -0.7605  0.0619
 5749TIP3    H117253   0.861   4.024   4.161  0.7579  2.0179 -1.2479
 5749TIP3    H217254   0.935   3.911   4.093 -1.6047  0.9757 -2.1830
 5750TIP3   OH217255   3.895   5.291   2.881 -0.2688  0.0767  0.7307
 5750TIP3    H117256   3.886   5.273   2.974  1.0974  0.0826  0.8848
 5750TIP3    H217257   3.917   5.384   2.877 -0.8660  0.2052  0.3617
 5751TIP3   OH217258   0.497   0.067   2.744 -0.2202  0.2225 -0.3960
 5751TIP3    H117259   0.507   0.137   2.808  0.3808 -0.4122  0.2204
 5751TIP3    H217260   0.454  -0.003   2.792  0.5621 -0.3953 -0.5737
 5752TIP3   OH217261   4.701   2.082   5.110 -0.1403 -0.1539  0.3633
 5752TIP3    H117262   4.775   2.142   5.117 -0.4339  0.2564  0.0050
 5752TIP3    H217263   4.729   2.003   5.156  1.0144 -0.4813 -0.8576
 5753TIP3   OH217264   4.929   4.786   3.182  0.3611 -0.2364  0.4489
 5753TIP3    H117265   4.850   4.819   3.224  1.1269 -0.1849  1.9119
 5753TIP3    H217266   4.900   4.759   3.094 -0.7877  1.9172  0.1056
 5754TIP3   OH217267   4.500   2.412   3.831  0.0097 -0.4654  0.0638
 5754TIP3    H117268   4.456   2.368   3.904 -1.9152 -0.9004 -1.2761
 5754TIP3    H217269   4.466   2.369   3.753  0.3925  1.3739 -1.1882
 5755TIP3   OH217270   1.483   5.797   4.877  0.0675  0.1581  0.3359
 5755TIP3    H117271   1.396   5.779   4.840 -1.0246  1.2322  2.2054
 5755TIP3    H217272   1.528   5.713   4.874 -1.1464 -0.4987 -0.4144
 5756TIP3   OH217273   3.131   1.907   1.328  0.2223 -0.2308  0.8567
 5756TIP3    H117274   3.073   1.836   1.356  0.7604 -0.9429  0.2170
 5756TIP3    H217275   3.099   1.930   1.241  0.9620 -0.7275  0.4372
 5757TIP3   OH217276   3.516   2.751   4.027  0.0391 -0.2668  0.3499
 5757TIP3    H117277   3.609   2.729   4.028  0.3413  0.8484 -0.5177
 5757TIP3    H217278   3.471   2.667   4.026  1.0281 -0.8257  0.9851
 5758TIP3   OH217279   3.265   2.616   2.666 -0.3734 -0.1212  0.1398
 5758TIP3    H117280   3.305   2.634   2.751 -1.4649 -1.7301  1.0449
 5758TIP3    H217281   3.193   2.556   2.685 -0.6109 -0.5863 -1.9348
 5759TIP3   OH217282   5.236   0.000   2.637 -0.1028  0.0588 -0.2822
 5759TIP3    H117283   5.162  -0.049   2.602  0.3769 -0.7756 -0.1474
 5759TIP3    H217284   5.198   0.080   2.674 -0.8830 -0.1989 -0.5267
 5760TIP3   OH217285   0.134   0.292   1.650  0.0393  0.6969  0.1781
 5760TIP3    H117286   0.065   0.239   1.610  1.6112 -0.4324 -1.2153
 5760TIP3    H217287   0.120   0.380   1.615 -0.3388  0.3388 -0.6036
 5761TIP3   OH217288   0.359   4.091   3.550  0.0935  0.3412  0.3051
 5761TIP3    H117289   0.310   4.167   3.520 -0.5355  0.1160  0.7210
 5761TIP3    H217290   0.324   4.073   3.637  0.7640  0.0317  0.5153
 5762TIP3   OH217291   5.229   4.192   2.436  0.0345  0.2306 -0.1959
 5762TIP3    H117292   5.318   4.173   2.409  0.1345  1.1137 -0.5214
 5762TIP3    H217293   5.189   4.106   2.451  0.7530 -0.1868 -0.6313
 5763TIP3   OH217294   1.470   1.870   3.485 -0.1653 -0.0301  0.4484
 5763TIP3    H117295   1.376   1.855   3.483  0.0468 -1.4382 -1.1925
 5763TIP3    H217296   1.486   1.936   3.418 -0.0058  0.3292  0.8399
 5764TIP3   OH217297   1.608   2.207   2.421  0.2576 -0.5346 -0.4713
 5764TIP3    H117298   1.585   2.297   2.446  0.1296 -0.3973 -1.0827
 5764TIP3    H217299   1.658   2.216   2.340  0.7799 -0.9738 -0.2029
 5765TIP3   OH217300   5.418   1.772   1.445  0.2012  0.0632 -0.4344
 5765TIP3    H117301   5.448   1.847   1.496 -0.0999  1.3754 -2.0794
 5765TIP3    H217302   5.330   1.753   1.479  0.3006  0.4171  0.0303
 5766TIP3   OH217303   2.355   5.276   0.275 -0.4418  0.2364 -1.0576
 5766TIP3    H117304   2.359   5.338   0.348  1.4791  1.0576 -1.7831
 5766TIP3    H217305   2.316   5.326   0.203 -2.5461 -0.6383 -0.5965
 5767TIP3   OH217306   0.549   2.863   3.472 -0.1916  0.1274 -0.2614
 5767TIP3    H117307   0.612   2.933   3.490 -0.2084  0.2842 -0.8136
 5767TIP3    H217308   0.475   2.907   3.431 -0.3495 -0.1684 -0.2976
 5768TIP3   OH217309   1.847   5.282   2.953 -0.2952 -0.1896  0.5113
 5768TIP3    H117310   1.798   5.235   2.885 -0.4559  1.7775 -0.7865
 5768TIP3    H217311   1.939   5.266   2.933 -0.2957 -2.5904  2.0315
 5769TIP3   OH217312   2.942   2.701   2.897  0.0963  0.5800  0.2263
 5769TIP3    H117313   3.023   2.729   2.855  0.0863  0.4178  0.0960
 5769TIP3    H217314   2.874   2.718   2.831  0.0033  0.8543  0.3895
 5770TIP3   OH217315   0.256   0.763   0.792  0.0195 -0.2428  0.1360
 5770TIP3    H117316   0.278   0.734   0.703  1.2497 -1.2997  0.7480
 5770TIP3    H217317   0.230   0.855   0.781 -0.6397 -0.5661 -1.4112
 5771TIP3   OH217318   3.850   0.346   4.372  0.4660 -0.0866 -0.3039
 5771TIP3    H117319   3.803   0.377   4.295  0.0995  0.3158  0.0738
 5771TIP3    H217320   3.938   0.382   4.363 -0.1434  1.6965  0.4794
 5772TIP3   OH217321   1.873   4.905   2.688 -0.4800  0.8202 -0.2874
 5772TIP3    H117322   1.925   4.846   2.742 -0.7594 -1.4395 -2.3294
 5772TIP3    H217323   1.934   4.936   2.620 -0.4249  2.7053  0.5548
 5773TIP3   OH217324   2.991   3.851   0.101  0.0414  0.1566  0.1621
 5773TIP3    H117325   2.956   3.907   0.031  0.2185 -2.0644 -1.8647
 5773TIP3    H217326   2.953   3.765   0.082  0.4330 -0.6207  2.6292
 5774TIP3   OH217327   0.998   0.302   3.742 -0.1334 -0.3445 -0.0462
 5774TIP3    H117328   1.035   0.376   3.694  0.3982 -0.1703  0.6057
 5774TIP3    H217329   0.988   0.233   3.677  0.1138  0.0446 -0.5002
 5775TIP3   OH217330   2.603   4.771   1.517 -0.4072 -0.6762  0.4148
 5775TIP3    H117331   2.650   4.850   1.541 -1.0414 -0.0217 -0.4352
 5775TIP3    H217332   2.666   4.719   1.468 -0.5002  0.1374 -0.6005
 5776TIP3   OH217333   4.038   5.041   2.459  0.0808  0.3527 -0.1934
 5776TIP3    H117334   4.084   5.016   2.379  1.6152  0.0821  0.7281
 5776TIP3    H217335   4.011   5.132   2.443 -0.4313  0.0179 -1.3465
 5777TIP3   OH217336   4.275   4.464   4.183  0.3313  0.0863 -0.2841
 5777TIP3    H117337   4.226   4.410   4.246  0.9478  1.4336  1.4556
 5777TIP3    H217338   4.288   4.407   4.108 -0.7532 -1.5111  0.6570
 5778TIP3   OH217339   1.731   4.855   0.136 -0.4261  0.2795 -0.3967
 5778TIP3    H117340   1.653   4.867   0.082 -0.1515 -1.3841 -1.2047
 5778TIP3    H217341   1.699   4.810   0.214 -0.5488  1.2204  0.1130
 5779TIP3   OH217342   2.847   0.479   2.732  0.1719  0.2885 -0.0171
 5779TIP3    H117343   2.863   0.472   2.638 -0.2556 -0.3223 -0.0482
 5779TIP3    H217344   2.929   0.512   2.768  0.7732 -0.6730 -0.4540
 5780TIP3   OH217345   4.171   4.952   0.099  0.2086 -0.6216 -1.1718
 5780TIP3    H117346   4.233   4.879   0.110 -0.1609 -0.6119  1.3785
 5780TIP3    H217347   4.091   4.922   0.141 -0.0762  1.0998 -0.4059
 5781TIP3   OH217348   5.717   4.195   0.870 -0.4497 -0.1257  0.1922
 5781TIP3    H117349   5.765   4.277   0.881 -0.9036  0.4223 -1.6914
 5781TIP3    H217350   5.786   4.128   0.866  0.0201  0.3565  0.0850
 5782TIP3   OH217351   0.200   1.715   2.529  0.0823 -0.0202 -0.2783
 5782TIP3    H117352   0.221   1.646   2.591 -0.4995 -0.6565 -0.7744
 5782TIP3    H217353   0.106   1.729   2.539  0.5910  2.7970  1.9298
 5783TIP3   OH217354   1.090   1.213   2.841 -0.0809 -0.3631  0.1610
 5783TIP3    H117355   1.019   1.196   2.902  0.9003 -1.5973  1.0160
 5783TIP3    H217356   1.156   1.260   2.893 -0.7892  2.0655 -0.9737
 5784TIP3   OH217357   0.886   1.799   1.930  0.3019  0.2569 -0.3752
 5784TIP3    H117358   0.889   1.761   1.842 -1.0330 -1.6945  0.3564
 5784TIP3    H217359   0.804   1.767   1.968  0.7031  1.2739  1.4847
 5785TIP3   OH217360   1.190   5.109   2.191 -0.0275 -0.4397  0.4360
 5785TIP3    H117361   1.277   5.071   2.203 -0.6168 -2.2783 -0.6976
 5785TIP3    H217362   1.194   5.153   2.105  0.0268  0.2364  0.7791
 5786TIP3   OH217363   1.496   3.591   2.078 -0.6195 -0.1217  0.0834
 5786TIP3    H117364   1.470   3.513   2.029  1.8593  0.2536 -2.0517
 5786TIP3    H217365   1.444   3.661   2.038  0.0139 -0.1178 -0.7724
 5787TIP3   OH217366   2.869   3.736   0.372 -0.5622 -0.0649 -0.7292
 5787TIP3    H117367   2.860   3.817   0.423  2.8248  0.1170 -0.2053
 5787TIP3    H217368   2.864   3.765   0.281 -1.5814  0.3614 -0.5520
 5788TIP3   OH217369   1.564   2.954   4.855 -0.5005  0.0460 -0.2393
 5788TIP3    H117370   1.554   2.881   4.916 -0.9408  0.3639  0.0726
 5788TIP3    H217371   1.651   2.990   4.874  0.4417 -1.4199 -1.5347
 5789TIP3   OH217372   0.846   0.639   0.376 -0.0064 -0.0443 -0.3971
 5789TIP3    H117373   0.888   0.555   0.393  0.5104  0.5823  1.8182
 5789TIP3    H217374   0.918   0.701   0.368 -0.4121  0.4201 -0.4995
 5790TIP3   OH217375   0.460   3.085   3.109 -0.4660 -0.1989  0.4104
 5790TIP3    H117376   0.398   3.055   3.043 -0.2676  1.0236 -0.3631
 5790TIP3    H217377   0.421   3.058   3.192 -0.9253 -1.3975 -0.1630
 5791TIP3   OH217378   3.918   0.727   4.118  0.7195 -0.3898 -0.4171
 5791TIP3    H117379   3.871   0.798   4.163  2.3706 -0.2270  1.1598
 5791TIP3    H217380   3.887   0.732   4.028 -1.5070  0.3316  0.3141
 5792TIP3   OH217381   2.129   3.335   1.382 -0.2584  0.2392 -1.0555
 5792TIP3    H117382   2.036   3.343   1.361 -0.5397 -1.9643 -0.8309
 5792TIP3    H217383   2.170   3.309   1.299  0.1359  0.8434 -1.0646
 5793TIP3   OH217384   5.584   2.289   1.507  0.0212 -0.3335 -0.9777
 5793TIP3    H117385   5.660   2.334   1.469  0.0094 -0.3385 -1.0070
 5793TIP3    H217386   5.509   2.342   1.481  0.2336  1.3910  1.5628
 5794TIP3   OH217387   1.151   2.798   4.138  0.1379 -0.6484  0.8247
 5794TIP3    H117388   1.150   2.714   4.091  0.2777 -0.8273  1.1365
 5794TIP3    H217389   1.223   2.847   4.098  0.1667 -0.7446  0.7579
 5795TIP3   OH217390   3.466   4.550   2.542 -0.6336 -0.0382 -0.1564
 5795TIP3    H117391   3.528   4.487   2.577 -1.6847  0.0997  2.1324
 5795TIP3    H217392   3.416   4.500   2.476 -1.7134 -1.8266  1.8748
 5796TIP3   OH217393   4.711   4.987   1.253 -0.1353  0.1428  0.3644
 5796TIP3    H117394   4.668   4.988   1.167 -0.3233  1.4658  0.4408
 5796TIP3    H217395   4.790   4.936   1.240 -0.5090 -0.2674 -0.4146
 5797TIP3   OH217396   1.527   5.547   4.064  0.4203  0.3247  0.0477
 5797TIP3    H117397   1.618   5.522   4.083 -0.0478 -1.0073  0.6802
 5797TIP3    H217398   1.532   5.590   3.979  1.3683 -1.8696 -1.0979
 5798TIP3   OH217399   0.448   1.733   0.778  0.2664  0.6540 -0.2735
 5798TIP3    H117400   0.502   1.724   0.700 -0.7783  0.9423 -1.0423
 5798TIP3    H217401   0.359   1.715   0.748 -0.1329  0.6285  0.8805
 5799TIP3   OH217402   0.090   0.351   1.320  0.1280  0.3751 -0.1531
 5799TIP3    H117403   0.081   0.258   1.345  1.9982  0.0553 -0.5555
 5799TIP3    H217404   0.171   0.355   1.270  0.1085  2.2590 -0.1050
 5800TIP3   OH217405   1.439   2.570   4.133 -0.4058 -0.4322 -0.0383
 5800TIP3    H117406   1.466   2.655   4.098 -2.8014  0.4443  0.0248
 5800TIP3    H217407   1.508   2.546   4.194  0.6378  1.1689 -0.5185
 5801TIP3   OH217408   0.700   3.150   0.603  0.2375  0.1368 -0.1785
 5801TIP3    H117409   0.704   3.238   0.640 -3.5282  0.8611 -1.0710
 5801TIP3    H217410   0.632   3.106   0.653  1.3505 -1.9722 -0.4076
 5802TIP3   OH217411   0.795   3.696   4.718  0.2359 -0.5172 -0.0666
 5802TIP3    H117412   0.731   3.630   4.695 -0.3724 -0.1588  0.5679
 5802TIP3    H217413   0.754   3.779   4.693  0.9155 -0.3574 -0.6897
 5803TIP3   OH217414   1.273   0.015   2.420 -0.5655 -0.3699  0.9493
 5803TIP3    H117415   1.256  -0.032   2.339 -0.2087 -2.0579  1.8009
 5803TIP3    H217416   1.256   0.106   2.399 -0.4492 -0.7594 -1.0179
 5804TIP3   OH217417   2.547   5.600   0.450 -0.0035 -0.2085  0.2366
 5804TIP3    H117418   2.484   5.530   0.464  0.3845 -0.5211  0.4319
 5804TIP3    H217419   2.612   5.563   0.391 -1.0403  0.7388 -1.5871
 5805TIP3   OH217420   5.604   2.036   3.380 -0.4009  0.0111 -0.6315
 5805TIP3    H117421   5.544   2.109   3.367 -0.3882 -0.2290 -2.2430
 5805TIP3    H217422   5.677   2.072   3.429 -0.7950  0.8725 -0.6656
 5806TIP3   OH217423   1.133   1.102   4.451  0.2396 -1.0054 -0.4932
 5806TIP3    H117424   1.195   1.032   4.431  0.3509 -0.7035 -1.2566
 5806TIP3    H217425   1.168   1.145   4.529  0.2228 -1.7396 -0.0835
 5807TIP3   OH217426   1.438   4.470   2.784  1.2485 -0.0912  0.2601
 5807TIP3    H117427   1.395   4.397   2.828 -0.7179  1.5177  1.1795
 5807TIP3    H217428   1.483   4.517   2.855 -0.7696  1.7205  0.4651
 5808TIP3   OH217429   0.064   1.253   4.781  0.0512  0.1714 -0.1235
 5808TIP3    H117430   0.082   1.160   4.795  0.6249  0.2020 -0.6029
 5808TIP3    H217431  -0.018   1.269   4.826 -1.4205 -1.1598 -2.1818
 5809TIP3   OH217432   3.944   5.676   2.315  0.1531 -0.6952 -0.3088
 5809TIP3    H117433   3.939   5.607   2.381 -0.1881  0.0346  0.4520
 5809TIP3    H217434   3.866   5.729   2.331  0.4312 -0.1132 -0.8577
 5810TIP3   OH217435   0.586   0.890   0.804  0.4127 -0.0741  0.5075
 5810TIP3    H117436   0.653   0.956   0.787  0.9872 -0.9688 -0.9262
 5810TIP3    H217437   0.539   0.882   0.721 -1.2145  0.2161  1.3632
 5811TIP3   OH217438   3.953   2.448   2.039  0.1473 -0.1435 -0.3658
 5811TIP3    H117439   3.927   2.437   2.130  0.4120  0.8086 -0.1641
 5811TIP3    H217440   4.044   2.419   2.036 -0.0452 -0.7615 -0.4697
 5812TIP3   OH217441   1.659   4.759   2.277  0.1214  0.0855 -0.9192
 5812TIP3    H117442   1.619   4.712   2.204 -0.5906  0.6952 -0.9278
 5812TIP3    H217443   1.708   4.691   2.324 -0.9466 -0.6841 -0.8853
 5813TIP3   OH217444   3.187   0.175   1.748 -0.3038 -0.3187  0.2658
 5813TIP3    H117445   3.172   0.226   1.668 -0.0098  0.1187  0.4861
 5813TIP3    H217446   3.118   0.202   1.808  0.5651  0.7420  0.8200
 5814TIP3   OH217447   2.342   2.986   2.418 -0.6744  0.1501  0.0133
 5814TIP3    H117448   2.283   3.055   2.447  1.7286  1.8702  1.2218
 5814TIP3    H217449   2.391   3.026   2.345  2.5091  0.8574  2.3072
 5815TIP3   OH217450   3.904   4.385   0.331  0.0385 -0.2120 -0.0517
 5815TIP3    H117451   3.997   4.379   0.353  0.3164  0.7667 -0.8758
 5815TIP3    H217452   3.870   4.297   0.343  1.3018 -0.8064 -0.7593
 5816TIP3   OH217453   5.719   0.613   3.301  0.3154 -0.1783 -0.3893
 5816TIP3    H117454   5.800   0.658   3.275  0.1667 -0.1548 -0.8226
 5816TIP3    H217455   5.717   0.535   3.246  1.0549 -1.2292  1.0202
 5817TIP3   OH217456   3.898   2.262   3.887  0.2034 -0.2700  0.1516
 5817TIP3    H117457   3.875   2.173   3.916  0.6575 -0.5650 -0.3665
 5817TIP3    H217458   3.814   2.306   3.875 -0.0406 -0.7461  0.0619
 5818TIP3   OH217459   1.398   2.790   1.824 -0.4071  0.3660 -0.4569
 5818TIP3    H117460   1.306   2.776   1.800 -0.8259  0.0248  1.2284
 5818TIP3    H217461   1.424   2.707   1.865  0.2938  0.8746  0.1405
 5819TIP3   OH217462   0.387   0.142   4.875  0.3552 -0.2606 -0.1741
 5819TIP3    H117463   0.427   0.228   4.882 -1.1542  0.5307 -0.9506
 5819TIP3    H217464   0.413   0.097   4.955 -0.4295  1.6031  1.2000
 5820TIP3   OH217465   4.934   5.616   3.784 -0.0684 -0.0575 -0.3286
 5820TIP3    H117466   4.895   5.687   3.733  0.5015  1.5121  1.2993
 5820TIP3    H217467   5.025   5.643   3.796  0.5047 -1.7069 -0.7205
 5821TIP3   OH217468   4.977   1.534   1.636  0.0171  0.2681 -0.4791
 5821TIP3    H117469   4.952   1.623   1.613  1.5926  0.5078 -1.4235
 5821TIP3    H217470   4.897   1.494   1.671 -0.4975  2.3077  0.8131
 5822TIP3   OH217471   5.563   0.822   2.718  0.7980  0.0904 -0.1319
 5822TIP3    H117472   5.618   0.750   2.750 -0.4665 -0.9952 -0.3155
 5822TIP3    H217473   5.542   0.873   2.797  0.7460 -0.4273  0.1956
 5823TIP3   OH217474   0.509   3.248   2.217 -0.6422 -0.1775 -0.1986
 5823TIP3    H117475   0.539   3.212   2.134  1.7606 -0.1909  0.6101
 5823TIP3    H217476   0.425   3.205   2.232 -0.5517 -1.0894 -2.0139
 5824TIP3   OH217477   3.218   3.044   5.168  0.2147 -0.3390  0.1356
 5824TIP3    H117478   3.126   3.051   5.195  0.0578  0.4918 -0.5711
 5824TIP3    H217479   3.240   3.132   5.136  0.6347 -1.0559 -1.6510
 5825TIP3   OH217480   4.827   4.206   3.905  0.3226  0.1944 -0.1855
 5825TIP3    H117481   4.853   4.268   3.973  0.8779  1.4514 -1.4686
 5825TIP3    H217482   4.894   4.216   3.837 -1.3208  0.5725 -1.8318
 5826TIP3   OH217483   2.080   3.084   4.883  0.3327  1.1727  0.0669
 5826TIP3    H117484   2.005   3.036   4.916  1.0673 -0.1078 -0.0678
 5826TIP3    H217485   2.086   3.059   4.790  1.0514  1.0769  0.1345
 5827TIP3   OH217486   2.720   4.157   4.320  0.0320 -0.0283  0.2591
 5827TIP3    H117487   2.790   4.092   4.313 -0.1116 -0.2999  1.1980
 5827TIP3    H217488   2.644   4.113   4.282 -0.3376 -0.8518  1.8673
 5828TIP3   OH217489   2.443   5.865   1.785  0.7329  0.4179  0.0062
 5828TIP3    H117490   2.397   5.928   1.840  1.4132  2.1404 -1.3146
 5828TIP3    H217491   2.516   5.835   1.839 -1.4993 -1.9938  1.9465
 5829TIP3   OH217492   4.845   2.068   2.266  0.3643 -0.0371  0.4415
 5829TIP3    H117493   4.847   2.164   2.270  0.8435 -0.0779  2.2860
 5829TIP3    H217494   4.922   2.045   2.215 -1.0665  0.5696 -2.1544
 5830TIP3   OH217495   4.073   3.705   1.213 -0.2108 -0.4368  0.3349
 5830TIP3    H117496   4.054   3.798   1.222  0.1020 -0.3557  0.1471
 5830TIP3    H217497   4.166   3.701   1.190 -0.0624 -0.8216  0.9659
 5831TIP3   OH217498   4.564   3.292   0.329  0.0119 -0.3824  0.4748
 5831TIP3    H117499   4.477   3.318   0.361  0.1351  0.8466 -0.1157
 5831TIP3    H217500   4.578   3.345   0.251  0.8889 -1.2956 -0.0137
 5832TIP3   OH217501   0.550   1.758   4.776 -0.1212  0.0947 -0.1874
 5832TIP3    H117502   0.477   1.819   4.791  0.3257  0.3005  1.2066
 5832TIP3    H217503   0.620   1.812   4.739 -0.8590 -0.2283 -2.2401
 5833TIP3   OH217504   4.143   3.001   0.140  0.4913  0.5550  0.1440
 5833TIP3    H117505   4.179   2.967   0.222 -0.4258  0.0924  0.3773
 5833TIP3    H217506   4.056   3.033   0.164  1.0898  2.5554 -0.1939
 5834TIP3   OH217507   2.636   3.756   4.220 -0.4637  0.3280 -0.3276
 5834TIP3    H117508   2.591   3.830   4.261 -0.5615 -1.6283  3.5542
 5834TIP3    H217509   2.566   3.696   4.195 -0.3007 -0.5690  1.2167
 5835TIP3   OH217510   1.504   1.072   4.965  0.3131 -0.3006 -0.0161
 5835TIP3    H117511   1.418   1.087   4.926  0.6685  0.5971 -0.4960
 5835TIP3    H217512   1.565   1.115   4.905  1.0312 -0.3311  0.6762
 5836TIP3   OH217513   2.540   2.760   4.793  0.3148 -0.1184 -0.0994
 5836TIP3    H117514   2.615   2.758   4.735 -0.4616  3.7554 -1.5084
 5836TIP3    H217515   2.465   2.775   4.736 -0.9524  0.3772  1.5887
 5837TIP3   OH217516   1.459   5.463   1.742  0.4937 -0.3266  0.2419
 5837TIP3    H117517   1.488   5.516   1.668  0.0381  0.3136  0.5015
 5837TIP3    H217518   1.363   5.473   1.742  0.5531  0.4624  1.4680
 5838TIP3   OH217519   3.648   0.424   4.193  0.0761  0.4432  0.2600
 5838TIP3    H117520   3.620   0.513   4.173  0.6101  0.6290  0.3214
 5838TIP3    H217521   3.600   0.369   4.130  0.2288  0.8356 -0.2093
 5839TIP3   OH217522   3.710   5.826   1.126 -0.4384 -0.1621  0.1533
 5839TIP3    H117523   3.798   5.863   1.139 -0.2346 -0.8674  0.8518
 5839TIP3    H217524   3.710   5.746   1.177 -1.8735  0.3924  1.0854
 5840TIP3   OH217525   5.740   1.116   0.127 -0.0527 -0.3886  0.8795
 5840TIP3    H117526   5.684   1.194   0.131  1.5485  0.9469 -0.7072
 5840TIP3    H217527   5.680   1.043   0.120 -1.6886  1.0478 -2.1047
 5841TIP3   OH217528   6.213   2.948   2.506 -0.0350  0.1396  0.1716
 5841TIP3    H117529   6.154   3.019   2.530  0.6970  1.5640 -1.9700
 5841TIP3    H217530   6.300   2.980   2.531  0.1229 -0.8573  0.9704
 5842TIP3   OH217531   6.294   2.620   4.085 -0.2397 -0.0867  0.1121
 5842TIP3    H117532   6.362   2.579   4.138  1.1351  3.1726  1.1206
 5842TIP3    H217533   6.300   2.713   4.106 -3.2830  0.6854 -1.7946
 5843TIP3   OH217534   5.308   2.410   3.082 -0.5677  0.4919  0.2525
 5843TIP3    H117535   5.357   2.488   3.053 -0.6744  0.4497 -0.0426
 5843TIP3    H217536   5.252   2.442   3.153 -0.7200  0.7186  0.0332
 5844TIP3   OH217537   1.341   1.082   1.636 -0.2094 -0.0141 -0.0576
 5844TIP3    H117538   1.282   1.122   1.701 -0.3534 -0.6036  0.1802
 5844TIP3    H217539   1.401   1.029   1.689 -0.7266 -1.0094 -0.4480
 5845TIP3   OH217540   3.407   2.112   2.094 -0.1892  0.1254  0.3282
 5845TIP3    H117541   3.439   2.098   2.005 -0.9239  2.6545 -0.4228
 5845TIP3    H217542   3.380   2.025   2.124 -1.6041 -0.5897 -2.6011
 5846TIP3   OH217543   5.910   0.059   4.978  0.2631  0.1330 -0.1539
 5846TIP3    H117544   5.853  -0.003   5.023  0.9574 -2.0946 -2.1331
 5846TIP3    H217545   5.851   0.114   4.927 -0.4212  1.7749  2.2304
 5847TIP3   OH217546   1.368   1.514   5.153  0.1291  0.2805  0.3040
 5847TIP3    H117547   1.439   1.569   5.122  0.4984 -0.0570  0.5464
 5847TIP3    H217548   1.295   1.575   5.168  0.8949  0.8727  1.7138
 5848TIP3   OH217549   2.356   0.582   2.887  0.6616  0.2934 -0.0555
 5848TIP3    H117550   2.334   0.627   2.806 -0.8560 -2.1921 -1.1295
 5848TIP3    H217551   2.450   0.567   2.881  0.5036 -0.2469 -1.5979
 5849TIP3   OH217552   4.206   5.588   0.598 -0.2102  0.2251 -0.1336
 5849TIP3    H117553   4.297   5.608   0.622 -1.0300  1.8238  1.9910
 5849TIP3    H217554   4.174   5.534   0.670 -0.8153 -0.8663 -1.1799
 5850TIP3   OH217555   3.352   2.841   1.067  0.4149  0.2791  0.1556
 5850TIP3    H117556   3.261   2.845   1.037  0.0123 -0.6397  1.1628
 5850TIP3    H217557   3.387   2.761   1.028 -0.0486 -0.8067  1.8606
 5851TIP3   OH217558   3.768   2.218   0.399  0.0924  0.0668  0.2963
 5851TIP3    H117559   3.764   2.158   0.324  0.5982  0.4499 -0.0458
 5851TIP3    H217560   3.731   2.300   0.366  0.0574  0.1546  0.5517
 5852TIP3   OH217561   3.724   3.345   1.877  0.6049  0.2265 -0.0867
 5852TIP3    H117562   3.818   3.349   1.860  0.7038  1.0729  0.5705
 5852TIP3    H217563   3.704   3.252   1.888  1.3073  0.0239 -0.5488
 5853TIP3   OH217564   2.903   1.368   3.176  0.4962  0.0168 -0.3082
 5853TIP3    H117565   2.988   1.326   3.193  0.4580  0.1876  0.3221
 5853TIP3    H217566   2.839   1.302   3.200  0.4233  0.6456  1.3400
 5854TIP3   OH217567   3.259   3.594   0.121 -0.1152 -0.6526 -0.8208
 5854TIP3    H117568   3.207   3.579   0.200  0.0291 -0.5686 -0.7079
 5854TIP3    H217569   3.270   3.507   0.083  0.2049 -0.7607 -0.4938
 5855TIP3   OH217570   5.064   4.113   2.769  0.2716  0.1980  0.3078
 5855TIP3    H117571   5.151   4.097   2.804  0.8254  1.7443 -0.2771
 5855TIP3    H217572   5.009   4.127   2.846  0.8921  0.8296  0.6468
 5856TIP3   OH217573   5.070   2.323   1.064  0.1456  1.0660 -0.1079
 5856TIP3    H117574   4.978   2.297   1.061 -0.1766  2.2415 -1.2451
 5856TIP3    H217575   5.077   2.380   1.141 -0.1666  1.2619 -0.2233
 5857TIP3   OH217576   0.158   2.699   1.637  0.2439  0.6917 -0.2227
 5857TIP3    H117577   0.190   2.622   1.589  0.3823 -0.0099  0.9528
 5857TIP3    H217578   0.220   2.768   1.616  1.1140  0.0112  0.0656
 5858TIP3   OH217579   5.254   1.133   1.439 -0.2700 -0.8748 -0.0591
 5858TIP3    H117580   5.322   1.070   1.462  2.9827  1.9683 -0.9735
 5858TIP3    H217581   5.278   1.213   1.487 -1.4905  1.0096 -2.3695
 5859TIP3   OH217582   4.356   0.594   0.414  0.0880 -0.1556  0.4970
 5859TIP3    H117583   4.328   0.666   0.472 -1.1708  0.7827 -1.1945
 5859TIP3    H217584   4.275   0.564   0.372  1.1330  0.3846 -2.0829
 5860TIP3   OH217585   4.703   3.887   1.041  0.5328  0.2623 -0.0907
 5860TIP3    H117586   4.717   3.960   1.102  0.9331 -0.9068  1.2576
 5860TIP3    H217587   4.632   3.917   0.984  0.0671  1.3571  1.0207
 5861TIP3   OH217588   2.329   3.330   4.339 -0.3883  0.4400 -0.4680
 5861TIP3    H117589   2.285   3.399   4.289  1.3710  2.2277  0.3045
 5861TIP3    H217590   2.275   3.252   4.325 -1.3981  1.4733 -2.9921
 5862TIP3   OH217591   2.292   0.050   1.732  0.4562 -0.0594 -0.0225
 5862TIP3    H117592   2.338  -0.033   1.737 -0.4532 -0.6795 -1.3800
 5862TIP3    H217593   2.343   0.102   1.670 -0.0696 -0.3510 -0.7052
 5863TIP3   OH217594   5.316   3.257   4.939 -0.4797  0.4019 -0.1111
 5863TIP3    H117595   5.351   3.313   4.870 -1.0758  0.7190 -0.1680
 5863TIP3    H217596   5.238   3.218   4.900 -1.1745  1.0599  0.5691
 5864TIP3   OH217597   2.765   2.456   4.897 -0.0735 -0.3738 -0.3224
 5864TIP3    H117598   2.752   2.481   4.805  1.8036  0.9662 -0.2839
 5864TIP3    H217599   2.847   2.499   4.922  1.6143 -3.9080  0.8223
 5865TIP3   OH217600   0.646   3.344   1.777 -0.6667  0.0838 -0.4138
 5865TIP3    H117601   0.574   3.310   1.830 -1.1540 -1.3522 -1.9216
 5865TIP3    H217602   0.627   3.438   1.769 -1.3418  0.0694  0.7160
 5866TIP3   OH217603   0.051   1.384   3.100  0.1605 -0.2028 -0.1714
 5866TIP3    H117604   0.100   1.427   3.031 -0.6748  0.9867 -0.0683
 5866TIP3    H217605   0.113   1.323   3.141  1.6235  1.4323  0.1389
 5867TIP3   OH217606   0.348   4.529   2.057 -0.2322 -0.0951 -0.3454
 5867TIP3    H117607   0.313   4.445   2.085  0.9057 -0.6303 -0.4488
 5867TIP3    H217608   0.272   4.579   2.029 -1.1772 -0.3142  1.6490
 5868TIP3   OH217609   5.224   0.193   3.363  0.1379 -0.1467  0.4943
 5868TIP3    H117610   5.301   0.192   3.308  0.1967 -1.0565  0.5751
 5868TIP3    H217611   5.151   0.210   3.303  0.3668  0.4562  0.3821
 5869TIP3   OH217612   0.664   3.230   4.773  0.5915  0.1237 -0.4313
 5869TIP3    H117613   0.725   3.288   4.728 -0.5325  0.6225 -1.3619
 5869TIP3    H217614   0.613   3.190   4.703 -2.0002  1.7879  0.3878
 5870TIP3   OH217615   2.839   0.311   2.172 -0.3259  0.0858  0.2365
 5870TIP3    H117616   2.780   0.334   2.243  0.4162 -0.2050  0.9643
 5870TIP3    H217617   2.793   0.338   2.092 -2.7826 -2.7546  0.5149
 5871TIP3   OH217618   4.750   4.122   1.741  0.5076  0.3868 -0.7174
 5871TIP3    H117619   4.819   4.072   1.697  1.1899 -1.2487  1.9511
 5871TIP3    H217620   4.672   4.068   1.731  0.7937 -0.2803  0.4717
 5872TIP3   OH217621   4.675   4.812   4.854 -0.1468 -0.2748  0.1258
 5872TIP3    H117622   4.763   4.831   4.887  0.2409 -0.3989 -0.8043
 5872TIP3    H217623   4.620   4.879   4.894 -0.0126 -1.3707  2.2949
 5873TIP3   OH217624   6.236   0.724   1.352 -0.1701 -0.1477 -0.0835
 5873TIP3    H117625   6.181   0.761   1.421 -0.6789 -0.1019 -0.5023
 5873TIP3    H217626   6.303   0.674   1.398  0.0085  0.5746  0.4728
 5874TIP3   OH217627   0.550   5.449   3.739  0.7822 -0.1703  0.0654
 5874TIP3    H117628   0.469   5.401   3.756  0.4043 -0.1324 -1.4773
 5874TIP3    H217629   0.522   5.540   3.728  0.7884 -0.3638 -1.9187
 5875TIP3   OH217630   6.321   1.264   4.433 -0.0145  0.4727  0.0171
 5875TIP3    H117631   6.290   1.190   4.485  0.1715  0.6713  0.4143
 5875TIP3    H217632   6.298   1.341   4.485 -1.3672  0.7821 -0.9733
 5876TIP3   OH217633   0.459   2.596   3.548 -0.3137  0.8456  0.3366
 5876TIP3    H117634   0.457   2.682   3.506 -1.9475  0.4755 -0.4036
 5876TIP3    H217635   0.549   2.565   3.534  0.4003  2.5482  0.9227
 5877TIP3   OH217636   4.449   3.164   3.177 -0.4992  0.2699  0.4663
 5877TIP3    H117637   4.363   3.207   3.183 -0.9891 -0.6044 -0.0802
 5877TIP3    H217638   4.511   3.237   3.177 -1.2547  0.9393  0.5225
 5878TIP3   OH217639   5.926   5.672   4.894  0.3679 -0.0097  0.7964
 5878TIP3    H117640   5.844   5.722   4.902 -0.2068 -0.9191  0.7319
 5878TIP3    H217641   5.942   5.637   4.981 -0.6930 -1.9121  0.2906
 5879TIP3   OH217642   2.102   1.519   3.660  0.0185  0.6584  0.3704
 5879TIP3    H117643   2.180   1.547   3.709 -0.2049  1.8552  0.0857
 5879TIP3    H217644   2.131   1.442   3.611  0.8965  0.8125  0.6198
 5880TIP3   OH217645   2.164   5.715   0.276 -0.0709 -0.3971  0.1007
 5880TIP3    H117646   2.238   5.690   0.221  0.2305 -1.1135  0.8102
 5880TIP3    H217647   2.134   5.798   0.240  0.4924 -0.5607 -0.7709
 5881TIP3   OH217648   6.251   5.813   0.532 -0.0931 -0.1639  0.5454
 5881TIP3    H117649   6.302   5.879   0.577  0.1557  0.9209 -1.2201
 5881TIP3    H217650   6.161   5.829   0.559  0.0009  0.7510  0.3474
 5882TIP3   OH217651   1.930   1.691   5.060  0.2340 -0.2274  0.2101
 5882TIP3    H117652   1.870   1.667   4.989 -1.0515  2.2416  0.3477
 5882TIP3    H217653   1.888   1.657   5.139  0.4283 -0.8647  0.0452
 5883TIP3   OH217654   2.138   0.478   5.129  0.1471 -0.2985 -0.2834
 5883TIP3    H117655   2.150   0.550   5.067 -1.0536  1.4771  1.4235
 5883TIP3    H217656   2.046   0.484   5.155  0.5381 -1.1283  1.4571
 5884TIP3   OH217657   3.015   3.998   3.647  0.5564 -0.8019 -0.1419
 5884TIP3    H117658   3.043   4.054   3.575  0.1130 -0.7965 -0.3134
 5884TIP3    H217659   3.036   4.049   3.726  0.1006 -0.3656 -0.2993
 5885TIP3   OH217660   5.815   1.674   4.507  0.0867  0.6221 -0.3681
 5885TIP3    H117661   5.856   1.655   4.591  1.9038 -0.2911 -1.3971
 5885TIP3    H217662   5.817   1.590   4.460  1.8961  1.7168 -2.4273
 5886TIP3   OH217663   1.856   5.678   3.511 -0.0800  0.2375 -0.1857
 5886TIP3    H117664   1.788   5.743   3.492 -0.6902  0.1619  1.5410
 5886TIP3    H217665   1.924   5.728   3.556 -0.1907 -0.1555  0.4300
 5887TIP3   OH217666   4.471   2.351   4.285  0.3896  0.1494 -0.5187
 5887TIP3    H117667   4.549   2.404   4.268  2.8761 -3.3273 -0.9786
 5887TIP3    H217668   4.472   2.334   4.379 -1.4441  2.1946 -0.0364
 5888TIP3   OH217669  -0.014   4.504   2.143 -0.1570 -0.3140  0.1662
 5888TIP3    H117670  -0.002   4.599   2.145 -0.0408 -0.2305 -1.7825
 5888TIP3    H217671   0.034   4.476   2.064 -1.6865 -1.7341 -0.3152
 5889TIP3   OH217672   3.522   3.807   3.823 -0.1317 -0.5067  0.0102
 5889TIP3    H117673   3.471   3.816   3.904  0.8103  0.9529  0.4745
 5889TIP3    H217674   3.483   3.872   3.764  2.4808  2.2838  1.1127
 5890TIP3   OH217675   5.489   2.061   2.478 -0.0735 -0.4254 -0.0877
 5890TIP3    H117676   5.567   2.083   2.427 -0.1021  0.5738  0.2894
 5890TIP3    H217677   5.509   2.088   2.567 -0.0627 -2.0837  0.4427
 5891TIP3   OH217678   4.449   5.495   0.926  0.1380  0.2411  0.4419
 5891TIP3    H117679   4.477   5.572   0.976  1.8877 -1.0089  1.5419
 5891TIP3    H217680   4.423   5.431   0.993 -0.6102 -0.3627 -0.4063
 5892TIP3   OH217681   1.050   0.098   3.561  0.2156 -0.3357  0.0423
 5892TIP3    H117682   1.051   0.175   3.503 -1.9907 -0.2118  0.1060
 5892TIP3    H217683   1.136   0.058   3.547  0.8736  1.3286 -1.0885
 5893TIP3   OH217684   5.577   4.453   3.530 -0.2302  0.0735  0.1553
 5893TIP3    H117685   5.490   4.474   3.564 -0.3211  3.1506 -1.6236
 5893TIP3    H217686   5.572   4.475   3.437  2.4136  0.1400 -0.0340
 5894TIP3   OH217687   0.193   3.359   4.270 -0.2384  0.5340  0.0045
 5894TIP3    H117688   0.240   3.419   4.213 -3.1788  3.1154  0.0319
 5894TIP3    H217689   0.240   3.363   4.353  1.6526 -0.0397 -0.9733
 5895TIP3   OH217690   5.885   4.644   4.338 -0.2595  0.2745 -0.5191
 5895TIP3    H117691   5.956   4.689   4.293 -0.2756 -0.2769 -1.1119
 5895TIP3    H217692   5.809   4.701   4.326  0.4309  1.7661  1.6445
 5896TIP3   OH217693   2.112   0.187   0.361 -0.6793 -0.1302 -0.1555
 5896TIP3    H117694   2.165   0.127   0.414 -1.7236 -1.7116 -0.8098
 5896TIP3    H217695   2.084   0.134   0.287  1.2970  2.1904 -2.7368
 5897TIP3   OH217696   1.693   0.943   3.019  0.5894 -0.4029  0.0680
 5897TIP3    H117697   1.656   0.988   3.095  0.5681  0.8683 -0.6516
 5897TIP3    H217698   1.729   1.014   2.965 -0.5903 -1.1125 -1.7428
 5898TIP3   OH217699   2.568   1.600   4.522 -0.0754  0.2263 -0.3879
 5898TIP3    H117700   2.596   1.653   4.597 -0.2741  1.0613 -0.8820
 5898TIP3    H217701   2.650   1.567   4.485  0.0496  0.1346 -0.0345
 5899TIP3   OH217702   2.471   1.073   4.069 -0.0297  0.6062  0.3475
 5899TIP3    H117703   2.532   1.128   4.019  0.6529  0.3532  0.8769
 5899TIP3    H217704   2.506   0.984   4.060 -0.5259  0.4093  0.3586
 5900TIP3   OH217705   5.115   1.775   1.205 -0.1119  0.1714 -0.0271
 5900TIP3    H117706   5.135   1.724   1.126  0.1865  0.3231 -0.0518
 5900TIP3    H217707   5.117   1.711   1.276  0.4187  0.1750 -0.0374
 5901TIP3   OH217708   0.820   4.845   1.017  0.0140 -0.1563 -0.3192
 5901TIP3    H117709   0.835   4.770   0.958 -0.1511  1.1049 -2.0283
 5901TIP3    H217710   0.730   4.872   1.000 -0.2725 -0.1590  1.0383
 5902TIP3   OH217711   2.196   5.000   2.913 -0.2803 -0.3218  0.3087
 5902TIP3    H117712   2.168   5.087   2.885  0.1381 -0.2287  0.1727
 5902TIP3    H217713   2.287   4.993   2.884 -0.1599 -0.6220  0.7397
 5903TIP3   OH217714   4.228   3.350   0.687  0.5455  0.1879 -0.1598
 5903TIP3    H117715   4.144   3.350   0.733  0.1571 -2.0877 -0.7709
 5903TIP3    H217716   4.281   3.286   0.734  0.6676 -1.0714 -1.9254
 5904TIP3   OH217717   4.065   0.613   1.846  0.3380 -0.0378  0.0624
 5904TIP3    H117718   4.063   0.637   1.939  1.2040  2.1779 -0.4427
 5904TIP3    H217719   4.157   0.611   1.823  0.0874  0.8804 -1.0899
 5905TIP3   OH217720   3.189   1.479   2.192 -0.1266  0.0140 -0.0445
 5905TIP3    H117721   3.207   1.530   2.113 -0.3450  2.2492  1.2466
 5905TIP3    H217722   3.176   1.545   2.260  0.6065 -1.8355  1.9989
 5906TIP3   OH217723   6.201   4.968   2.455 -0.0768 -0.2115 -0.2544
 5906TIP3    H117724   6.283   4.921   2.441  0.5190  1.2265 -2.1835
 5906TIP3    H217725   6.228   5.057   2.478 -1.0533  0.3193 -1.0576
 5907TIP3   OH217726   0.781   1.063   2.798  0.3728  0.3913 -0.4249
 5907TIP3    H117727   0.795   1.134   2.860  1.2970 -0.3159  0.2136
 5907TIP3    H217728   0.757   0.988   2.853  0.1946  0.0140 -1.0117
 5908TIP3   OH217729   3.232   3.079   1.182  0.1615  0.1851 -0.0513
 5908TIP3    H117730   3.271   3.050   1.099 -1.9818  0.1194 -1.0971
 5908TIP3    H217731   3.267   3.018   1.247  0.1462 -1.2191 -1.2847
 5909TIP3   OH217732   0.365   3.505   5.169 -0.4608  0.2372 -0.2605
 5909TIP3    H117733   0.402   3.512   5.257 -0.4184 -0.7718 -0.1913
 5909TIP3    H217734   0.438   3.477   5.114 -0.2385  1.8030 -0.8255
 5910TIP3   OH217735   3.669   1.453   3.396  0.2339  0.0445 -0.4134
 5910TIP3    H117736   3.753   1.498   3.405  0.0962  0.3013 -0.4179
 5910TIP3    H217737   3.689   1.362   3.419  0.3531  0.2539  0.3679
 5911TIP3   OH217738   4.908   1.541   1.321  0.4606  0.5643  0.0385
 5911TIP3    H117739   4.917   1.636   1.329  1.8701  0.4679 -0.2362
 5911TIP3    H217740   4.964   1.505   1.390  0.0484 -0.0797  0.0523
 5912TIP3   OH217741   0.942   3.476   2.280 -0.6387  0.3544  0.0962
 5912TIP3    H117742   1.019   3.426   2.252 -0.3582  0.3334  0.8885
 5912TIP3    H217743   0.873   3.449   2.219 -1.0338 -2.4952  1.6324
 5913TIP3   OH217744   4.502   4.970   0.454 -0.4064 -0.0139 -0.5149
 5913TIP3    H117745   4.436   4.955   0.521 -0.3022  1.4663 -0.0483
 5913TIP3    H217746   4.582   4.930   0.490 -0.3165  0.8870  0.3201
 5914TIP3   OH217747   1.555   5.110   4.921 -1.2414  0.2329  0.5923
 5914TIP3    H117748   1.540   5.016   4.908 -0.5227  0.1894  0.0489
 5914TIP3    H217749   1.624   5.114   4.987  0.5905  0.2991 -1.2178
 5915TIP3   OH217750   4.265   2.251   0.016  0.2593 -0.0895 -0.1763
 5915TIP3    H117751   4.207   2.301  -0.042  0.6814 -0.1001 -0.6186
 5915TIP3    H217752   4.216   2.241   0.097 -1.2721 -1.9269 -1.2329
 5916TIP3   OH217753   1.930   4.046   1.976  0.5332 -0.5660  0.5431
 5916TIP3    H117754   1.878   4.113   1.931  0.4534 -1.0084 -0.0344
 5916TIP3    H217755   1.954   4.087   2.060  2.5316  1.1379 -0.7519
 5917TIP3   OH217756   5.187   2.693   0.090  0.6560  0.1275 -0.3382
 5917TIP3    H117757   5.107   2.643   0.102  0.6623 -0.3318 -1.9673
 5917TIP3    H217758   5.188   2.755   0.162 -0.3320 -0.9396  0.6326
 5918TIP3   OH217759   5.097   1.998   4.384  0.5067  0.2326  0.0887
 5918TIP3    H117760   5.020   2.055   4.380  1.8083  2.0673 -0.3297
 5918TIP3    H217761   5.153   2.039   4.451  0.7050 -1.6257  1.1143
 5919TIP3   OH217762   6.086   0.294   2.938 -0.3461  0.2820 -0.0863
 5919TIP3    H117763   6.086   0.285   3.033  1.7340 -0.1343 -0.0785
 5919TIP3    H217764   6.179   0.299   2.914 -0.8411  1.3787 -2.0065
 5920TIP3   OH217765   2.225   4.042   3.187  0.5758 -0.3753  0.3065
 5920TIP3    H117766   2.317   4.048   3.160  0.5921  0.5090  0.5389
 5920TIP3    H217767   2.227   3.994   3.270  0.8513 -0.1592  0.4248
 5921TIP3   OH217768   3.166   5.441   0.864 -0.7051  0.3691 -0.4083
 5921TIP3    H117769   3.102   5.430   0.794  0.0294  0.0251 -1.0407
 5921TIP3    H217770   3.234   5.496   0.826 -0.2357  0.0714 -0.0149
 5922TIP3   OH217771   4.384   0.106   2.946  0.4641 -0.0517  0.3572
 5922TIP3    H117772   4.389   0.189   2.995  0.5729  0.6244 -0.7570
 5922TIP3    H217773   4.345   0.131   2.862  1.7384 -0.8815 -0.5169
 5923TIP3   OH217774   3.320   2.607   3.640 -0.0377 -0.5418  0.2458
 5923TIP3    H117775   3.413   2.622   3.621 -0.2652 -0.9304 -1.3219
 5923TIP3    H217776   3.317   2.521   3.680  0.3474 -0.2064  1.0165
 5924TIP3   OH217777   1.292   1.993   1.205 -0.6410  0.2910 -0.4199
 5924TIP3    H117778   1.205   2.033   1.200 -1.2925 -0.9921  0.1240
 5924TIP3    H217779   1.275   1.901   1.228  0.8064 -0.2411 -1.3160
 5925TIP3   OH217780   5.868   3.132   1.100  0.0592 -0.1591  0.1832
 5925TIP3    H117781   5.942   3.117   1.159  0.2525 -0.6088 -0.1692
 5925TIP3    H217782   5.846   3.045   1.066 -0.7504 -0.0619  0.4194
 5926TIP3   OH217783   4.267   2.019   1.519 -0.5360  0.3438  0.1111
 5926TIP3    H117784   4.307   2.027   1.433  1.6364 -0.1126  1.0244
 5926TIP3    H217785   4.310   2.085   1.573 -1.2348  0.0412  1.0736
 5927TIP3   OH217786   5.039   1.241   2.993  0.2746  0.2100  0.9485
 5927TIP3    H117787   5.020   1.272   2.905 -1.4250 -0.7418  0.9457
 5927TIP3    H217788   5.130   1.266   3.008  0.6018  0.3909 -1.0678
 5928TIP3   OH217789   1.108   2.227   1.761  0.1239 -0.1566 -0.3770
 5928TIP3    H117790   1.070   2.168   1.826  0.0448  0.2287 -0.0728
 5928TIP3    H217791   1.085   2.187   1.677  0.0243 -0.5301 -0.1774
 5929TIP3   OH217792   2.742   1.063   4.430  0.5078 -0.2378  0.0402
 5929TIP3    H117793   2.752   0.978   4.387  1.8482 -0.0032 -0.1394
 5929TIP3    H217794   2.806   1.062   4.501 -0.2611  0.1907  0.7662
 5930TIP3   OH217795   1.715   4.975   2.055 -0.7808  0.1233 -0.4297
 5930TIP3    H117796   1.785   4.923   2.095 -0.4014 -0.4711 -1.8105
 5930TIP3    H217797   1.756   5.059   2.034 -0.0797 -0.6416 -2.3516
 5931TIP3   OH217798   3.497   0.880   4.050  0.3867 -0.0149 -0.4158
 5931TIP3    H117799   3.446   0.874   4.131  1.1363 -1.2691 -0.0085
 5931TIP3    H217800   3.579   0.835   4.069  0.2266 -1.1340 -2.1487
 5932TIP3   OH217801   1.196   0.596   4.332 -0.1630  0.6271  0.3157
 5932TIP3    H117802   1.115   0.640   4.307  1.3248  1.7090 -3.0192
 5932TIP3    H217803   1.205   0.524   4.269  0.6064 -0.6567  1.8031
 5933TIP3   OH217804   5.381   2.412   1.706  0.1246 -0.3436 -0.2641
 5933TIP3    H117805   5.412   2.488   1.656 -0.2452  1.2964  1.8811
 5933TIP3    H217806   5.376   2.443   1.796  0.8386 -3.2105  0.8590
 5934TIP3   OH217807   5.021   4.471   0.734  0.3178 -0.2176  0.3365
 5934TIP3    H117808   5.109   4.507   0.746  1.1868 -1.4756 -1.8230
 5934TIP3    H217809   5.026   4.383   0.772  0.2588 -0.6087 -0.5463
 5935TIP3   OH217810   3.387   3.765   3.274  0.0143  0.0980 -0.0815
 5935TIP3    H117811   3.419   3.708   3.344  1.7120  1.2297  0.1343
 5935TIP3    H217812   3.342   3.707   3.213  1.1486 -1.3684  0.4314
 5936TIP3   OH217813   2.453   5.399   4.995 -0.0963  0.0475  0.5283
 5936TIP3    H117814   2.394   5.462   4.953  0.3561  1.2777  1.6565
 5936TIP3    H217815   2.461   5.327   4.932 -2.2626  0.1501  0.0585
 5937TIP3   OH217816   4.890   5.002   4.308 -0.3827 -0.3430  0.4453
 5937TIP3    H117817   4.926   4.944   4.241  0.7259  0.4352  0.3383
 5937TIP3    H217818   4.964   5.017   4.368 -1.4904 -1.5097  2.2096
 5938TIP3   OH217819   2.770   5.236   2.825 -0.1377  0.1057  0.0196
 5938TIP3    H117820   2.796   5.314   2.875 -1.5818  0.8930 -0.3781
 5938TIP3    H217821   2.675   5.245   2.815 -0.2078 -1.2584 -0.8215
 5939TIP3   OH217822   4.707   0.840   1.187 -0.0196 -0.4264 -0.3480
 5939TIP3    H117823   4.696   0.761   1.134  2.0323  0.3536 -2.0936
 5939TIP3    H217824   4.801   0.861   1.180  0.0427  0.6265  2.3565
 5940TIP3   OH217825   2.085   5.250   0.055 -0.2944  0.3017  0.3655
 5940TIP3    H117826   2.175   5.277   0.069 -0.5465  1.1584  0.3780
 5940TIP3    H217827   2.037   5.332   0.041 -0.9323 -0.1913 -0.4262
 5941TIP3   OH217828   0.297   1.386   4.760 -0.3501  0.8380  0.0334
 5941TIP3    H117829   0.222   1.326   4.762  0.3280 -0.0105  0.6639
 5941TIP3    H217830   0.283   1.444   4.835  0.0136  0.1762  0.6261
 5942TIP3   OH217831   4.913   0.620   0.325 -0.0964 -0.3544  0.3312
 5942TIP3    H117832   4.942   0.551   0.265  0.2660  1.4161 -1.6479
 5942TIP3    H217833   4.831   0.652   0.287  0.0793  0.7579  0.8496
 5943TIP3   OH217834   1.646   2.600   4.309 -0.0625  0.0405 -0.5180
 5943TIP3    H117835   1.723   2.648   4.277  0.9913  0.2022  1.9998
 5943TIP3    H217836   1.650   2.611   4.404 -2.9279 -0.4203 -0.2650
 5944TIP3   OH217837   1.721   3.846   3.800 -0.0269 -0.2698  0.2426
 5944TIP3    H117838   1.657   3.903   3.841 -0.2715 -0.4457  0.1085
 5944TIP3    H217839   1.686   3.830   3.712 -0.2172 -1.0275  0.4467
 5945TIP3   OH217840   3.059   3.104   4.050 -0.0315 -0.1034  0.6634
 5945TIP3    H117841   2.993   3.036   4.035  3.2578 -3.3364 -0.6841
 5945TIP3    H217842   3.081   3.136   3.963  0.7934  0.2396  0.9879
 5946TIP3   OH217843   1.343   3.791   2.802 -0.2352 -0.1728  0.2599
 5946TIP3    H117844   1.400   3.854   2.845 -0.8237  0.0326  0.7548
 5946TIP3    H217845   1.270   3.843   2.770 -0.3460 -0.4899 -0.0038
 5947TIP3   OH217846   0.669   5.399   4.346  0.7096 -0.6181  0.1944
 5947TIP3    H117847   0.729   5.408   4.420 -0.0999 -0.7956  0.8798
 5947TIP3    H217848   0.586   5.371   4.385 -0.1370  0.6592 -0.6045
 5948TIP3   OH217849   3.029   0.209   1.491  0.1978  0.4788 -0.0170
 5948TIP3    H117850   3.080   0.275   1.445 -0.3114 -0.7529 -2.5695
 5948TIP3    H217851   2.945   0.208   1.444 -0.1055 -1.3420  0.4906
 5949TIP3   OH217852   1.953   0.511   0.239 -0.4781  0.3327 -0.1965
 5949TIP3    H117853   1.954   0.444   0.171  0.3336 -0.1295  0.2643
 5949TIP3    H217854   2.040   0.508   0.278 -0.9609  0.5179  0.9392
 5950TIP3   OH217855   0.899   3.790   3.972  0.0074  0.3311  0.4692
 5950TIP3    H117856   0.929   3.700   3.971  0.1867  0.3472  1.8299
 5950TIP3    H217857   0.881   3.811   3.881  0.9434 -0.7415  0.0179
 5951TIP3   OH217858   5.858   4.786   5.150  0.3330 -0.1332 -0.1822
 5951TIP3    H117859   5.778   4.735   5.157  0.3567 -0.1686 -0.1732
 5951TIP3    H217860   5.921   4.728   5.107  0.3754 -0.1304 -0.1246
 5952TIP3   OH217861   1.729   2.085   1.230  0.1697  0.1089  0.8109
 5952TIP3    H117862   1.709   2.078   1.137 -1.0086 -1.3686  1.1470
 5952TIP3    H217863   1.646   2.111   1.270  0.5761  0.3736  1.4952
 5953TIP3   OH217864   1.327   0.428   0.586 -0.4894 -0.6903  0.0034
 5953TIP3    H117865   1.354   0.505   0.636 -0.8049 -0.2697 -0.4587
 5953TIP3    H217866   1.364   0.354   0.634 -0.0187 -0.2407  0.3523
 5954TIP3   OH217867   0.683   2.636   3.092 -0.6619 -0.0697  0.3141
 5954TIP3    H117868   0.712   2.626   3.182 -1.4482  0.2831  0.6118
 5954TIP3    H217869   0.755   2.682   3.049 -0.1259 -0.5691  0.6664
 5955TIP3   OH217870   3.855   4.226   4.012  0.5798  0.1933 -0.2806
 5955TIP3    H117871   3.803   4.155   3.975 -0.6565  0.8567  0.1371
 5955TIP3    H217872   3.895   4.187   4.091  1.5283 -0.5995 -1.1250
 5956TIP3   OH217873   4.031   2.739   1.157  0.2486 -0.4703 -1.1157
 5956TIP3    H117874   4.098   2.672   1.168  1.4330  0.8802  0.5782
 5956TIP3    H217875   4.050   2.779   1.073  2.7642  1.0136  0.0360
 5957TIP3   OH217876   1.361   2.496   0.801 -0.8865 -0.5507  0.0148
 5957TIP3    H117877   1.355   2.589   0.778  2.4973  0.0358  0.9764
 5957TIP3    H217878   1.413   2.457   0.731 -2.5716 -1.8888 -0.5703
 5958TIP3   OH217879   3.261   5.915   4.556 -0.2770  0.2852 -0.0241
 5958TIP3    H117880   3.273   5.971   4.632 -0.8989  0.9325 -0.3806
 5958TIP3    H217881   3.336   5.855   4.557 -0.8855 -0.5050  1.7433
 5959TIP3   OH217882   5.923   2.457   0.589  0.1849  0.0587  0.8851
 5959TIP3    H117883   5.933   2.550   0.568  1.7848 -0.4797 -1.0691
 5959TIP3    H217884   5.995   2.438   0.649 -0.5292  0.1875  1.8070
 5960TIP3   OH217885   3.063   4.558   0.121 -0.1953  0.0751 -0.0173
 5960TIP3    H117886   3.141   4.594   0.162 -0.8123  0.4720  0.8435
 5960TIP3    H217887   3.015   4.635   0.089  1.3130 -0.2447 -3.6099
 5961TIP3   OH217888   4.374   3.885   0.134  0.2213 -0.0385  0.2638
 5961TIP3    H117889   4.296   3.875   0.189 -1.0510  0.9954 -1.2802
 5961TIP3    H217890   4.415   3.965   0.166 -0.5937  0.6404 -0.3519
 5962TIP3   OH217891   5.595   4.717   5.023 -0.4304 -0.0645  0.3933
 5962TIP3    H117892   5.577   4.666   4.944  1.3126  0.1218 -0.1580
 5962TIP3    H217893   5.563   4.661   5.095  0.5350 -1.5070 -0.2590
 5963TIP3   OH217894   3.706   0.569   3.012 -0.4946  0.3510 -0.1198
 5963TIP3    H117895   3.722   0.595   2.922  0.2440 -1.1559 -0.4551
 5963TIP3    H217896   3.793   0.568   3.053 -0.8247  1.0444  0.6316
 5964TIP3   OH217897   2.667   1.693   1.819  0.1875 -0.3401 -0.1479
 5964TIP3    H117898   2.582   1.654   1.797  0.0133 -0.1895  0.2458
 5964TIP3    H217899   2.666   1.779   1.778 -0.3899  0.1924  0.9309
 5965TIP3   OH217900   3.728   2.399   1.459 -0.4055 -0.4967  0.1110
 5965TIP3    H117901   3.655   2.459   1.444  0.3959  0.7175  0.8627
 5965TIP3    H217902   3.688   2.312   1.461 -1.6854  0.0604 -0.4050
 5966TIP3   OH217903   2.038   4.809   4.108  0.0900 -0.3489  0.3600
 5966TIP3    H117904   2.041   4.834   4.201 -1.8185 -0.2529  0.4441
 5966TIP3    H217905   2.126   4.776   4.089  0.9940  1.1126  1.7713
 5967TIP3   OH217906   3.107   1.360   3.489  0.1398  0.1821 -0.0897
 5967TIP3    H117907   3.125   1.436   3.545  0.0013  0.8205 -0.8989
 5967TIP3    H217908   3.036   1.389   3.432 -1.1006 -1.1325  0.7267
 5968TIP3   OH217909   1.663   2.399   0.976 -0.2437 -0.0824 -0.0833
 5968TIP3    H117910   1.670   2.307   0.952 -1.3068 -0.6949  1.7364
 5968TIP3    H217911   1.571   2.411   1.001 -0.1761  1.5220 -0.4820
 5969TIP3   OH217912   3.717   5.568   4.976 -0.0452  0.4953 -0.2075
 5969TIP3    H117913   3.775   5.591   5.049  0.1660 -0.6515 -0.0014
 5969TIP3    H217914   3.771   5.578   4.898  0.1290  0.4130 -0.0984
 5970TIP3   OH217915   5.106   2.039   1.247  0.4564 -0.3551  0.0305
 5970TIP3    H117916   5.098   1.951   1.210 -1.8608 -0.2081  0.0099
 5970TIP3    H217917   5.151   2.090   1.179 -1.1124 -0.7754 -1.4007
 5971TIP3   OH217918   3.963   4.484   4.281  0.0035  1.1200  0.5703
 5971TIP3    H117919   4.036   4.422   4.277  1.3367  2.6830 -1.4964
 5971TIP3    H217920   3.901   4.444   4.341  1.2777 -1.6743  0.1888
 5972TIP3   OH217921   3.989   3.404   4.116 -0.1131 -0.1700  0.0353
 5972TIP3    H117922   3.983   3.317   4.076  1.2005  0.4861 -1.7432
 5972TIP3    H217923   3.907   3.447   4.092 -0.0559 -0.3626 -0.5213
 5973TIP3   OH217924   5.628   4.423   0.184 -0.1359  0.5227 -0.3889
 5973TIP3    H117925   5.677   4.506   0.189 -0.0608  0.4779 -0.3825
 5973TIP3    H217926   5.622   4.406   0.090  3.6853 -1.7181 -0.4383
 5974TIP3   OH217927   6.357   3.395   0.757  0.4781 -0.2115  0.1503
 5974TIP3    H117928   6.401   3.463   0.808 -1.2732  2.9183 -2.2177
 5974TIP3    H217929   6.264   3.415   0.766 -0.2341 -3.2361  0.4725
 5975TIP3   OH217930   4.811   5.650  -0.014 -0.4285  0.4403 -0.2862
 5975TIP3    H117931   4.898   5.622   0.015 -0.3519 -0.2195 -1.1358
 5975TIP3    H217932   4.751   5.616   0.053 -0.1789 -0.3844 -0.4806
 5976TIP3   OH217933   2.808   3.979   2.070  0.1195 -0.2347  0.2920
 5976TIP3    H117934   2.891   4.019   2.096 -0.1967 -0.0480  1.0491
 5976TIP3    H217935   2.744   4.016   2.130 -0.2792 -1.4286  0.6322
 5977TIP3   OH217936   3.980   2.595   3.053 -0.7966  0.0058  0.5786
 5977TIP3    H117937   4.018   2.570   3.137 -0.1236  0.0064  0.2845
 5977TIP3    H217938   4.002   2.522   2.995 -0.5531  0.3725  0.2054
 5978TIP3   OH217939   2.843   4.091   2.644  0.5093  0.7672 -0.1480
 5978TIP3    H117940   2.787   4.032   2.694  1.8890 -1.1985 -0.8106
 5978TIP3    H217941   2.931   4.053   2.651  1.1258  1.6601 -2.1860
 5979TIP3   OH217942   2.879   0.791   5.036  0.6230  0.3870  0.0781
 5979TIP3    H117943   2.891   0.884   5.015  0.7875  0.6508  1.2522
 5979TIP3    H217944   2.809   0.791   5.102 -0.9843 -0.5263 -1.5346
 5980TIP3   OH217945   4.389   0.232   0.915  0.4825 -0.0259 -0.1360
 5980TIP3    H117946   4.461   0.179   0.882 -0.5084 -1.8975  0.5867
 5980TIP3    H217947   4.382   0.305   0.853  1.1178 -1.3641 -1.8536
 5981TIP3   OH217948   1.509   4.338   2.556 -0.0355  0.1734 -0.6217
 5981TIP3    H117949   1.522   4.403   2.624 -0.4928 -1.1180  0.7525
 5981TIP3    H217950   1.442   4.279   2.591  1.1516 -1.6821 -1.2998
 5982TIP3   OH217951   5.469   4.518   0.998 -0.3171 -0.2724  0.4489
 5982TIP3    H117952   5.552   4.566   0.997  0.4695 -1.5310 -1.6457
 5982TIP3    H217953   5.472   4.466   1.078 -0.0588  1.2422  1.4652
 5983TIP3   OH217954   4.345   1.311   1.318  0.2050 -0.1812 -0.3556
 5983TIP3    H117955   4.253   1.294   1.339  0.4837  0.8993  2.1077
 5983TIP3    H217956   4.394   1.245   1.366  0.7979  1.0647  0.8339
 5984TIP3   OH217957   1.664   0.180   3.215  0.3158 -0.4353 -0.1109
 5984TIP3    H117958   1.678   0.092   3.180  0.5611 -0.8254  0.9292
 5984TIP3    H217959   1.579   0.207   3.180  0.5791 -0.7859 -1.0302
 5985TIP3   OH217960   5.047   1.247   0.273 -0.0545  0.3892 -0.2661
 5985TIP3    H117961   5.029   1.225   0.364  1.7682  2.0494  0.5758
 5985TIP3    H217962   4.984   1.315   0.251  0.3906  0.9781  0.2430
 5986TIP3   OH217963   4.763   4.955   2.578  0.1826  0.4113  0.0878
 5986TIP3    H117964   4.707   5.000   2.641  0.5728  0.8343  0.1360
 5986TIP3    H217965   4.805   4.886   2.629  0.0649  0.3911  0.1586
 5987TIP3   OH217966   0.787   4.226   3.805 -0.2589  0.3423  0.5589
 5987TIP3    H117967   0.832   4.166   3.746  1.8379  0.7416  1.6492
 5987TIP3    H217968   0.773   4.305   3.753  0.9463  0.4452  0.3537
 5988TIP3   OH217969   5.191   1.305   3.585 -0.4324  0.3405 -0.1414
 5988TIP3    H117970   5.096   1.317   3.591 -0.3591  2.1145 -1.6093
 5988TIP3    H217971   5.206   1.274   3.496  0.2823 -1.6705  0.6140
 5989TIP3   OH217972   1.211   5.671   3.141 -0.8231 -0.0050  0.1333
 5989TIP3    H117973   1.221   5.577   3.121  0.0139  0.2538 -0.7544
 5989TIP3    H217974   1.177   5.708   3.060 -1.5323  0.4052  0.6151
 5990TIP3   OH217975   1.114   5.052   3.125  0.1934  0.0160  0.5596
 5990TIP3    H117976   1.121   5.121   3.192 -0.7035 -0.8341  1.5598
 5990TIP3    H217977   1.156   4.976   3.165  1.7567  0.1074 -0.7856
 5991TIP3   OH217978   5.798   5.529   3.190 -0.3393  0.0010 -0.5973
 5991TIP3    H117979   5.764   5.604   3.238 -0.2443  0.2364 -0.8990
 5991TIP3    H217980   5.726   5.465   3.193  0.4663 -0.9216  1.8627
 5992TIP3   OH217981   0.189   2.350   3.251  0.6324 -0.3472  0.1284
 5992TIP3    H117982   0.209   2.257   3.265  0.9750 -0.2315  0.4430
 5992TIP3    H217983   0.273   2.388   3.224  0.4570 -0.1563 -0.1491
 5993TIP3   OH217984   2.299   5.387   2.202 -0.1723  0.2337 -0.0200
 5993TIP3    H117985   2.271   5.298   2.180 -0.4235  0.4008 -0.3730
 5993TIP3    H217986   2.395   5.384   2.196 -0.2098  0.1486 -0.6554
 5994TIP3   OH217987   5.043   3.953   4.849 -0.2228 -0.2964  0.0980
 5994TIP3    H117988   5.112   3.981   4.789 -0.4382  1.3869  0.6082
 5994TIP3    H217989   5.003   4.034   4.880  0.0617 -1.0807  2.7428
 5995TIP3   OH217990   0.828   4.101   2.993  0.3210 -0.2472 -0.4099
 5995TIP3    H117991   0.736   4.078   2.981  0.1339  0.2980 -0.0038
 5995TIP3    H217992   0.845   4.166   2.925  0.1589  0.3410  0.1118
 5996TIP3   OH217993   3.034   3.123   4.747  0.3261 -0.1532 -0.3117
 5996TIP3    H117994   3.082   3.043   4.728  2.1376 -0.1708  3.3834
 5996TIP3    H217995   2.956   3.093   4.795 -0.6495  0.2138 -1.5913
 5997TIP3   OH217996   3.939   2.993   5.023 -0.1916 -0.5456 -0.8075
 5997TIP3    H117997   4.025   2.953   5.038 -0.7905 -1.5946 -0.0876
 5997TIP3    H217998   3.906   2.949   4.945 -0.4767 -0.8304 -0.5278
 5998TIP3   OH217999   2.279   0.347   4.681  0.2905 -0.3629  0.1782
 5998TIP3    H118000   2.354   0.342   4.622  1.5924  0.2618  1.7209
 5998TIP3    H218001   2.306   0.408   4.750 -0.8837 -1.6133  1.8246
 5999TIP3   OH218002   3.917   5.096   2.083  0.3967  0.4527  0.2491
 5999TIP3    H118003   3.836   5.132   2.119  0.3777  0.3473  0.3110
 5999TIP3    H218004   3.891   5.015   2.040  0.5410  0.1879  0.6636
 6000TIP3   OH218005   3.654   3.564   4.241 -0.7888 -0.4718  0.2863
 6000TIP3    H118006   3.704   3.642   4.216  0.3065 -1.3863 -0.5190
 6000TIP3    H218007   3.710   3.518   4.304 -0.5358 -1.5489 -0.6828
 6001TIP3   OH218008   2.869   2.737   3.757 -0.3393 -0.6175 -0.3325
 6001TIP3    H118009   2.910   2.719   3.841  2.1073 -0.2101 -1.3387
 6001TIP3    H218010   2.816   2.816   3.773  1.0894  0.2113  0.5729
 6002TIP3   OH218011   3.932   3.060   0.328 -0.3521 -0.2466 -0.0305
 6002TIP3    H118012   3.946   3.132   0.390 -0.8437 -0.4256  0.2919
 6002TIP3    H218013   3.952   2.981   0.378 -0.3503 -0.3667 -0.2220
 6003TIP3   OH218014   4.262   0.840   1.171 -0.0082 -0.0592 -0.3372
 6003TIP3    H118015   4.323   0.849   1.244 -0.1818 -1.3756  0.0002
 6003TIP3    H218016   4.183   0.885   1.200  0.1949  0.1146 -0.0522
 6004TIP3   OH218017   2.880   1.201   2.363  0.0592  0.1618  0.4334
 6004TIP3    H118018   2.918   1.146   2.432  0.8027  0.6169  0.3972
 6004TIP3    H218019   2.854   1.139   2.295  0.0752 -0.2199  0.7700
 6005TIP3   OH218020   1.019   3.525   2.560 -0.0791  0.6924  0.0052
 6005TIP3    H118021   0.988   3.501   2.473  0.9537  0.3748 -0.2881
 6005TIP3    H218022   0.940   3.526   2.614 -0.3997 -1.9627 -0.2826
 6006TIP3   OH218023   3.553   1.892   2.535 -0.3700 -0.2024  0.4626
 6006TIP3    H118024   3.547   1.949   2.611  1.7272 -2.2584  2.3037
 6006TIP3    H218025   3.534   1.804   2.568  0.7045 -1.1865 -1.3494
 6007TIP3   OH218026   0.459   5.553   2.138  0.6124 -0.4577  0.4262
 6007TIP3    H118027   0.493   5.520   2.221  0.4440 -0.2029  0.5974
 6007TIP3    H218028   0.434   5.643   2.156 -0.8318 -0.8469  0.5096
 6008TIP3   OH218029   3.495   2.620   0.940  0.3961 -0.4953  0.1400
 6008TIP3    H118030   3.563   2.684   0.918 -0.0114 -0.2163 -0.3327
 6008TIP3    H218031   3.486   2.567   0.861  0.8250 -1.2401  0.5735
 6009TIP3   OH218032   2.712   5.880   2.776  0.6447  0.3982 -0.1474
 6009TIP3    H118033   2.660   5.947   2.820  0.8971  0.7522 -0.3770
 6009TIP3    H218034   2.690   5.891   2.683 -2.9476 -2.9008  0.0647
 6010TIP3   OH218035   2.236   4.662   3.991  0.2690 -0.0318  0.3144
 6010TIP3    H118036   2.191   4.620   3.918  1.8090 -0.9828 -0.1507
 6010TIP3    H218037   2.324   4.682   3.957  0.7020  0.3722  1.6044
 6011TIP3   OH218038   3.848   4.969   1.148 -0.0498 -0.2317 -0.1288
 6011TIP3    H118039   3.790   4.909   1.101 -0.8027 -0.2129  0.7459
 6011TIP3    H218040   3.792   5.043   1.171  0.5181  0.1491  0.0376
 6012TIP3   OH218041   3.833   2.959   4.027 -0.1544  0.5591  0.2028
 6012TIP3    H118042   3.784   2.880   4.049  0.0811  0.5016  0.5313
 6012TIP3    H218043   3.899   2.966   4.096  0.2087  0.7120 -0.1630
 6013TIP3   OH218044   5.481   0.767   3.275  0.4737  0.6964  0.4768
 6013TIP3    H118045   5.553   0.730   3.326 -0.0433 -2.1308 -0.6977
 6013TIP3    H218046   5.460   0.700   3.210 -0.7230  3.0003 -1.7065
 6014TIP3   OH218047   1.945   4.722   4.930 -0.9433  0.3234 -0.1749
 6014TIP3    H118048   1.931   4.710   5.024  1.2576 -0.1381  0.1520
 6014TIP3    H218049   1.936   4.816   4.916 -2.6420  0.2406  0.2235
 6015TIP3   OH218050   0.808   0.134   4.509 -0.9246  0.7937 -0.4723
 6015TIP3    H118051   0.774   0.076   4.578  0.6248  0.0664 -0.2617
 6015TIP3    H218052   0.888   0.091   4.480 -0.5275  2.0905 -1.3803
 6016TIP3   OH218053   3.982   3.829   3.952  0.3416  0.8018 -0.4126
 6016TIP3    H118054   4.048   3.771   3.990  0.1457  0.3473 -0.7382
 6016TIP3    H218055   4.014   3.917   3.969  1.8844  0.6093 -1.9666
 6017TIP3   OH218056   1.708   4.255   4.655  0.3992  0.7108 -0.0942
 6017TIP3    H118057   1.662   4.181   4.695  0.3655  2.0449  2.5321
 6017TIP3    H218058   1.736   4.222   4.569 -2.3745 -1.2758 -0.3767
 6018TIP3   OH218059   0.295   0.566   1.819  0.3099 -0.6789 -0.4921
 6018TIP3    H118060   0.368   0.530   1.869  1.4452  0.9517 -0.8985
 6018TIP3    H218061   0.274   0.648   1.863 -0.3069 -0.4121 -1.2603
 6019TIP3   OH218062   1.307   4.088   1.653  0.3516  0.4285  0.0654
 6019TIP3    H118063   1.255   4.128   1.723  0.0051 -1.0376  0.6661
 6019TIP3    H218064   1.357   4.019   1.697 -0.9266 -1.4711 -1.3311
 6020TIP3   OH218065   3.635   5.945   1.610  0.0056 -0.0935 -0.2263
 6020TIP3    H118066   3.562   5.929   1.670  0.4130 -0.4985  0.1654
 6020TIP3    H218067   3.600   6.008   1.547 -0.9150 -0.7975 -0.4523
 6021TIP3   OH218068   2.479   1.762   0.959 -0.1586  0.3044  0.3989
 6021TIP3    H118069   2.517   1.769   0.871 -2.7052  0.8949 -0.7422
 6021TIP3    H218070   2.422   1.839   0.966 -1.1478 -0.5314  1.9826
 6022TIP3   OH218071   2.934   1.030   0.853  0.0057 -0.5766 -0.6205
 6022TIP3    H118072   2.892   1.112   0.828 -0.4672 -0.3029  0.9741
 6022TIP3    H218073   2.868   0.963   0.833 -0.8203 -0.2520  0.8304
 6023TIP3   OH218074   2.510   3.178   2.210 -0.7541  0.0163 -0.2001
 6023TIP3    H118075   2.535   3.120   2.137  1.9371  1.0389 -0.1832
 6023TIP3    H218076   2.444   3.236   2.173 -0.1701 -0.1385 -1.5249
 6024TIP3   OH218077   3.375   4.113   0.061  0.4707 -0.0386 -0.3204
 6024TIP3    H118078   3.350   4.022   0.044  0.7574 -0.1689 -0.0671
 6024TIP3    H218079   3.467   4.107   0.088  0.8919  0.4562 -1.5846
 6025TIP3   OH218080   1.864   1.796   1.865 -0.6366  0.3212 -0.1075
 6025TIP3    H118081   1.866   1.782   1.960 -1.4512  0.7120 -0.0242
 6025TIP3    H218082   1.830   1.714   1.830  0.7240 -0.2487 -0.1763
 6026TIP3   OH218083   4.821   2.644   4.000 -0.5172 -0.1031  0.1061
 6026TIP3    H118084   4.826   2.738   3.984 -0.4276  0.0803  1.1213
 6026TIP3    H218085   4.760   2.612   3.934  0.0871  0.5279 -0.7873
 6027TIP3   OH218086   4.612   5.927   0.149  0.3891 -0.3957  0.3612
 6027TIP3    H118087   4.705   5.927   0.126 -0.0676  0.0819 -1.6373
 6027TIP3    H218088   4.574   5.858   0.096 -0.7081  0.6686 -0.2898
 6028TIP3   OH218089   5.438   4.853   1.247 -0.0581  0.5038 -0.3750
 6028TIP3    H118090   5.391   4.787   1.196 -1.0907  1.6026 -0.8854
 6028TIP3    H218091   5.440   4.930   1.191  0.5387  1.1311  0.4844
 6029TIP3   OH218092   2.731   5.858   3.494  0.5410  0.3115 -0.5617
 6029TIP3    H118093   2.818   5.880   3.462 -0.5678  1.6157 -2.9921
 6029TIP3    H218094   2.734   5.764   3.510  2.0131  0.0783 -2.0074
 6030TIP3   OH218095   5.282   2.739   2.054 -0.6593  0.1647  0.1798
 6030TIP3    H118096   5.196   2.709   2.085 -0.3318  0.3958  1.3681
 6030TIP3    H218097   5.293   2.825   2.095 -0.5016  0.8197 -1.1931
 6031TIP3   OH218098   0.153   1.138   1.974 -0.4106  0.4558  0.2164
 6031TIP3    H118099   0.073   1.126   1.922 -0.8117 -0.6112  1.0495
 6031TIP3    H218100   0.195   1.215   1.935 -2.1055  1.3654  0.1096
 6032TIP3   OH218101   5.480   5.437   2.953 -0.2740 -0.1869  0.6121
 6032TIP3    H118102   5.474   5.348   2.919  3.7388 -0.5221  0.2408
 6032TIP3    H218103   5.522   5.427   3.039 -2.1698  1.2496  1.7884
 6033TIP3   OH218104   4.576   5.546   1.450 -0.4013  0.1843  0.2456
 6033TIP3    H118105   4.642   5.549   1.380 -0.4004  1.9995  0.2677
 6033TIP3    H218106   4.521   5.471   1.428 -0.3879  0.6768 -1.7002
 6034TIP3   OH218107   2.837   3.062   3.361  0.3655  0.0763  0.1132
 6034TIP3    H118108   2.778   3.108   3.301 -0.7281 -0.9817  0.3372
 6034TIP3    H218109   2.921   3.060   3.315 -0.3411 -0.3530 -1.2067
 6035TIP3   OH218110   4.995   4.282   1.326 -0.1835 -0.2033 -0.2068
 6035TIP3    H118111   4.987   4.298   1.420 -0.6704 -0.9086 -0.1178
 6035TIP3    H218112   4.959   4.360   1.284  2.0939  1.1393  0.1526
 6036TIP3   OH218113   4.749   0.830   2.854 -0.3131 -0.0730  0.0215
 6036TIP3    H118114   4.746   0.833   2.758 -0.2053 -1.1712 -0.0338
 6036TIP3    H218115   4.748   0.922   2.881  4.3961  0.5595 -1.1565
 6037TIP3   OH218116   3.502   3.984   3.462 -0.1150 -0.1066 -0.1290
 6037TIP3    H118117   3.432   3.929   3.426 -1.8552  1.7205  0.3108
 6037TIP3    H218118   3.540   4.028   3.386  1.1349 -1.6495 -0.4573
 6038TIP3   OH218119   4.530   2.127   0.724 -0.0038 -0.2549 -0.1982
 6038TIP3    H118120   4.456   2.066   0.731 -0.8186  0.5144 -1.5785
 6038TIP3    H218121   4.490   2.213   0.733  0.8674  0.1480 -0.1022
 6039TIP3   OH218122   3.734   0.417   2.547  0.0167  0.5320 -0.1257
 6039TIP3    H118123   3.645   0.410   2.513 -0.3019 -2.1692  1.0547
 6039TIP3    H218124   3.790   0.409   2.470 -0.7229  1.5575 -0.7949
 6040TIP3   OH218125   0.680   0.506   3.326 -0.4448 -0.1052  0.7044
 6040TIP3    H118126   0.761   0.512   3.275  0.5383 -2.0484  1.9069
 6040TIP3    H218127   0.700   0.551   3.408 -0.6524 -0.4481  0.9430
 6041TIP3   OH218128   5.946   5.583   0.601  0.0639  0.1671  0.0655
 6041TIP3    H118129   5.969   5.652   0.663 -0.0638  0.6414 -0.4121
 6041TIP3    H218130   5.887   5.625   0.539  0.2961 -0.2678 -0.4581
 6042TIP3   OH218131   5.598   1.737   2.471 -0.2369  0.1141 -0.2846
 6042TIP3    H118132   5.682   1.709   2.435 -0.3575  3.6176 -3.9017
 6042TIP3    H218133   5.621   1.796   2.543  0.4510  0.7212 -0.9817
 6043TIP3   OH218134   2.918   2.127   4.199  0.4776 -0.1675 -0.1513
 6043TIP3    H118135   2.944   2.215   4.224  0.4383  0.1480 -1.2005
 6043TIP3    H218136   2.830   2.136   4.164 -0.2933 -0.9239  1.4875
 6044TIP3   OH218137   2.436   0.396   1.900 -0.3257  0.4600 -0.2576
 6044TIP3    H118138   2.448   0.478   1.947 -1.6249 -0.1976  1.3386
 6044TIP3    H218139   2.392   0.421   1.819  0.8479  1.4946 -0.6079
 6045TIP3   OH218140   2.966   2.534   3.589  0.0216 -0.0328 -0.1927
 6045TIP3    H118141   2.930   2.610   3.635  0.8973  0.3748 -0.1662
 6045TIP3    H218142   2.890   2.493   3.547 -0.3417  1.3890 -0.9885
 6046TIP3   OH218143   1.345   2.987   2.105 -0.4657 -0.1777  0.1535
 6046TIP3    H118144   1.281   3.002   2.035 -1.8718  2.2571  1.8296
 6046TIP3    H218145   1.292   2.971   2.183  0.9956  0.0343  1.2275
 6047TIP3   OH218146   3.803   0.591   1.528 -0.3373 -0.1124 -0.0656
 6047TIP3    H118147   3.759   0.509   1.505 -0.1122 -0.4583  0.7102
 6047TIP3    H218148   3.732   0.656   1.531 -0.3833 -0.0647 -1.6371
 6048TIP3   OH218149   0.598   1.798   2.224 -0.2336  0.2026  0.2028
 6048TIP3    H118150   0.573   1.871   2.167 -1.7831  0.0968  0.7037
 6048TIP3    H218151   0.551   1.815   2.306  2.0763  0.4381  1.5415
 6049TIP3   OH218152   4.449   3.506   0.678 -0.0182  0.0466  0.5826
 6049TIP3    H118153   4.382   3.445   0.706 -0.3998  0.6660  1.0547
 6049TIP3    H218154   4.409   3.592   0.689  0.0884  0.3543 -1.1549
 6050TIP3   OH218155   2.322   4.738   0.705 -0.2616  0.1214 -0.3683
 6050TIP3    H118156   2.319   4.671   0.773 -2.2648  0.7048  0.2077
 6050TIP3    H218157   2.300   4.820   0.751  0.7834  0.9591 -1.3006
 6051TIP3   OH218158   5.902   3.637   3.684  0.7002  0.2810 -0.0597
 6051TIP3    H118159   5.905   3.545   3.709 -1.5362  0.4315  1.0271
 6051TIP3    H218160   5.860   3.637   3.598 -0.3886  0.3138  0.4511
 6052TIP3   OH218161   1.211   3.294   1.778 -0.3199  0.5749  0.0264
 6052TIP3    H118162   1.288   3.337   1.815 -0.1183 -0.3378  0.7195
 6052TIP3    H218163   1.235   3.201   1.775 -1.3186  0.3026  0.0481
 6053TIP3   OH218164   5.627   2.148   4.222  0.4930 -0.0541 -0.4740
 6053TIP3    H118165   5.718   2.145   4.191  0.5034 -1.3713 -0.3855
 6053TIP3    H218166   5.583   2.079   4.173 -0.8916  1.6261 -1.7149
 6054TIP3   OH218167   1.727   5.765   1.844  0.1190  0.3182  0.1655
 6054TIP3    H118168   1.767   5.732   1.924 -0.7626  1.8239  1.2755
 6054TIP3    H218169   1.760   5.854   1.835 -0.0737  0.2961 -0.9610
 6055TIP3   OH218170   5.823   3.964   4.635 -0.3803  0.0295 -0.4247
 6055TIP3    H118171   5.853   3.888   4.585 -0.1716  0.8156 -1.5243
 6055TIP3    H218172   5.794   3.928   4.719  1.2366 -1.0593 -0.2992
 6056TIP3   OH218173   3.922   5.254   4.729 -0.1161 -0.2588  0.0473
 6056TIP3    H118174   3.957   5.322   4.786  0.2855 -1.7171  1.6564
 6056TIP3    H218175   3.904   5.181   4.789 -2.5945 -0.8221 -1.2428
 6057TIP3   OH218176   2.371   1.573   5.075 -0.6660 -0.0207 -0.3465
 6057TIP3    H118177   2.461   1.560   5.105 -1.2655 -1.4383  0.9726
 6057TIP3    H218178   2.354   1.498   5.017 -1.9451 -1.5702  1.8814
 6058TIP3   OH218179   5.512   2.692   0.626  0.4771  0.8071  0.4619
 6058TIP3    H118180   5.420   2.665   0.626  0.3575  1.2057  0.3850
 6058TIP3    H218181   5.547   2.657   0.707  0.0089  1.4727  0.9628
 6059TIP3   OH218182   2.256   1.469   0.468 -0.3265 -0.6468  0.1319
 6059TIP3    H118183   2.327   1.503   0.414 -0.3393 -0.7644  0.0428
 6059TIP3    H218184   2.192   1.434   0.406  0.3843 -2.2574  0.2570
 6060TIP3   OH218185   1.342   2.232   2.171 -0.0882 -0.2371 -0.2854
 6060TIP3    H118186   1.395   2.308   2.195 -1.3174  0.5832 -0.0597
 6060TIP3    H218187   1.406   2.163   2.153  1.0234  0.1957  1.6648
 6061TIP3   OH218188   1.537   2.438   2.962  0.5013  0.0687 -0.0953
 6061TIP3    H118189   1.454   2.419   2.918  0.3461 -1.7855  0.8919
 6061TIP3    H218190   1.599   2.453   2.891 -0.2892 -0.2799 -0.8848
 6062TIP3   OH218191   2.024   4.593   3.036  0.2592 -0.1707 -0.0827
 6062TIP3    H118192   2.011   4.679   3.077  1.3952  0.4507 -0.9772
 6062TIP3    H218193   2.057   4.537   3.107  3.8694  1.3293 -0.3833
 6063TIP3   OH218194   2.340   1.912   3.771  0.1953 -0.1458  0.1175
 6063TIP3    H118195   2.347   1.869   3.686  0.1128 -1.2798  0.6664
 6063TIP3    H218196   2.428   1.942   3.790  0.4156 -0.7586  0.0741
 6064TIP3   OH218197   3.628   3.934   1.762 -0.0843  0.1034 -0.1009
 6064TIP3    H118198   3.595   3.846   1.780 -0.5056 -0.0503 -1.5062
 6064TIP3    H218199   3.598   3.986   1.836  0.0069 -0.8778  0.6622
 6065TIP3   OH218200   0.216   3.052   4.612  0.4566  0.0647 -0.4461
 6065TIP3    H118201   0.194   3.139   4.581  4.6418  0.5837 -2.7313
 6065TIP3    H218202   0.277   3.067   4.685  0.1005 -0.9973  0.0975
 6066TIP3   OH218203   0.421   3.004   3.779  0.3950  0.1097  0.8026
 6066TIP3    H118204   0.494   3.057   3.812  2.3293 -0.9716 -1.4164
 6066TIP3    H218205   0.457   2.915   3.773 -0.8502 -0.3333 -0.9982
 6067TIP3   OH218206   1.093   4.536   4.576 -0.4309  0.0851  1.0609
 6067TIP3    H118207   1.037   4.613   4.565  0.1476  0.2955 -0.7656
 6067TIP3    H218208   1.179   4.565   4.546 -0.6089 -1.7708 -1.5326
 6068TIP3   OH218209   3.277   0.433   0.075  0.3725  0.8264 -0.3702
 6068TIP3    H118210   3.270   0.520   0.114  0.6426  0.6900 -0.0185
 6068TIP3    H218211   3.214   0.380   0.124 -0.3166  0.9947 -1.0629
 6069TIP3   OH218212   1.753   1.039   0.149  0.3752  0.0584  0.1929
 6069TIP3    H118213   1.847   1.026   0.162  0.6689 -0.2396 -1.8562
 6069TIP3    H218214   1.711   0.968   0.197  1.3937 -1.7821 -1.5086
 6070TIP3   OH218215   3.274   0.318   3.028  0.3054 -0.2022 -0.4055
 6070TIP3    H118216   3.274   0.395   3.085  2.6129 -0.7203  0.3858
 6070TIP3    H218217   3.232   0.250   3.081  0.1910 -0.0400 -0.2847
 6071TIP3   OH218218   4.071   5.876   3.185 -0.7303 -0.3085  0.4669
 6071TIP3    H118219   4.086   5.858   3.278  0.4776  1.0966  0.5923
 6071TIP3    H218220   4.150   5.844   3.142 -1.8112 -2.0863 -0.2711
 6072TIP3   OH218221   5.305   1.757   2.962  0.2792  0.2718  0.1516
 6072TIP3    H118222   5.360   1.812   3.017  0.0333 -0.0938  0.7634
 6072TIP3    H218223   5.254   1.819   2.909  1.4663  0.6210 -0.6252
 6073TIP3   OH218224   4.064   5.273   5.179  0.4194 -0.0044 -0.2839
 6073TIP3    H118225   4.127   5.331   5.136 -0.7416  0.7041 -1.0834
 6073TIP3    H218226   4.118   5.205   5.219  1.5969 -0.6941 -2.8207
 6074TIP3   OH218227   3.559   4.354   3.790  0.5173  0.0090  0.1668
 6074TIP3    H118228   3.569   4.423   3.725 -0.7008  0.6446  0.6384
 6074TIP3    H218229   3.469   4.361   3.820  1.0966 -0.1285  2.0766
 6075TIP3   OH218230   3.792   3.806   4.145  0.7557 -0.5402  0.0044
 6075TIP3    H118231   3.847   3.812   4.067  0.3348  0.0507 -0.2547
 6075TIP3    H218232   3.738   3.885   4.142  1.3151 -0.0892  1.3358
 6076TIP3   OH218233   1.241   0.017   3.350  0.3120  0.0712 -0.3308
 6076TIP3    H118234   1.228   0.081   3.280  0.7922 -0.4461 -0.9089
 6076TIP3    H218235   1.198  -0.062   3.317 -1.2264  0.3682  0.8379
 6077TIP3   OH218236   2.841   3.403   0.159  0.1436  0.1584 -0.1959
 6077TIP3    H118237   2.747   3.384   0.163  0.3253 -0.6174  0.6622
 6077TIP3    H218238   2.877   3.334   0.103  0.1245  0.8262 -1.0527
 6078TIP3   OH218239   2.862   3.924   4.064 -0.1752 -0.7071 -0.1621
 6078TIP3    H118240   2.933   3.862   4.051 -1.0846 -1.5961 -1.1622
 6078TIP3    H218241   2.827   3.903   4.151  1.1377  0.1348  0.5844
 6079TIP3   OH218242   6.006   5.636   3.779 -0.3962 -0.1060 -0.2592
 6079TIP3    H118243   6.050   5.710   3.737  0.6820 -0.4860  0.1762
 6079TIP3    H218244   6.075   5.574   3.798 -0.6996  0.2529  2.5104
 6080TIP3   OH218245   0.784   2.506   1.775  0.2181 -0.4871 -0.3492
 6080TIP3    H118246   0.841   2.477   1.847  1.4199  1.6355 -0.3590
 6080TIP3    H218247   0.703   2.534   1.818  0.2369 -0.9227 -0.0256
 6081TIP3   OH218248   4.093   4.852   1.195  0.5350 -0.4680 -0.3844
 6081TIP3    H118249   4.027   4.920   1.208  0.4612 -0.6026 -0.0622
 6081TIP3    H218250   4.060   4.800   1.122  1.0342  0.3875 -1.2655
 6082TIP3   OH218251   4.829   4.620   3.761  0.2873  0.0212 -0.3282
 6082TIP3    H118252   4.921   4.642   3.749  0.2991 -0.1808 -0.6209
 6082TIP3    H218253   4.816   4.623   3.856  0.8699 -1.0210 -0.1990
 6083TIP3   OH218254   5.258   2.612   2.382  0.4813 -0.2612  0.3507
 6083TIP3    H118255   5.205   2.539   2.349 -0.2219  0.6012 -0.5028
 6083TIP3    H218256   5.338   2.571   2.414 -0.7871 -1.6600  1.9392
 6084TIP3   OH218257   4.083   2.732   2.834 -0.1085  0.1536  0.3100
 6084TIP3    H118258   4.110   2.811   2.881 -1.2000  0.5526  0.2944
 6084TIP3    H218259   4.046   2.675   2.903 -0.4120  0.1535  0.1497
 6085TIP3   OH218260   0.771   2.761   0.634  0.3265 -0.1033 -0.0004
 6085TIP3    H118261   0.679   2.776   0.655  0.5404 -1.7169  2.5799
 6085TIP3    H218262   0.779   2.785   0.542 -3.0587 -1.5614 -0.8176
 6086TIP3   OH218263   2.199   4.380   0.990 -0.5245  0.3850 -0.6866
 6086TIP3    H118264   2.133   4.441   0.958 -0.5490 -0.0134 -1.4011
 6086TIP3    H218265   2.165   4.349   1.074  0.5203  3.0648  0.8705
 6087TIP3   OH218266   2.771   0.542   3.088  0.4735  0.1984  0.4131
 6087TIP3    H118267   2.737   0.618   3.041 -2.1434  0.4976  2.5718
 6087TIP3    H218268   2.856   0.571   3.122  0.5216  1.3653 -0.6186
 6088TIP3   OH218269   0.397   2.701   4.043  0.4334 -0.4716  0.8447
 6088TIP3    H118270   0.339   2.672   3.973 -0.3208  0.8273  0.9049
 6088TIP3    H218271   0.480   2.658   4.024  0.2395 -0.1784 -0.8538
 6089TIP3   OH218272   1.554   4.157   0.376 -0.4364 -0.6925 -0.0871
 6089TIP3    H118273   1.544   4.175   0.470 -0.5885 -0.3227 -0.1698
 6089TIP3    H218274   1.648   4.162   0.360 -0.5313  1.1129 -0.2996
 6090TIP3   OH218275   3.531   4.048   3.095  0.5829  0.1591  0.3236
 6090TIP3    H118276   3.574   4.096   3.025 -0.0684 -1.5932 -1.3693
 6090TIP3    H218277   3.461   4.106   3.125  0.7714  0.8821 -0.5967
 6091TIP3   OH218278   4.488   0.047   5.146 -0.0054  0.4991 -0.3361
 6091TIP3    H118279   4.395   0.065   5.127 -0.5841 -1.2062  0.6427
 6091TIP3    H218280   4.513   0.116   5.208 -0.6234  0.9749 -0.5996
 6092TIP3   OH218281   0.283   0.947   3.735  0.1623 -0.3038 -0.5697
 6092TIP3    H118282   0.364   0.898   3.722 -0.2757 -1.4571  0.8023
 6092TIP3    H218283   0.310   1.039   3.733  1.0675 -0.5609 -2.7525
 6093TIP3   OH218284   4.303   5.576   1.154 -0.2169  0.4507 -0.2710
 6093TIP3    H118285   4.295   5.540   1.242 -0.1289  2.2196  0.5126
 6093TIP3    H218286   4.257   5.660   1.158  1.9285  1.7702 -1.1722
 6094TIP3   OH218287   3.569   5.322   0.848 -0.8146 -0.2079 -0.4427
 6094TIP3    H118288   3.576   5.234   0.885 -2.4122 -1.5616 -3.0687
 6094TIP3    H218289   3.489   5.358   0.888 -0.1558  0.1006  0.6380
 6095TIP3   OH218290   2.077   0.490   0.975 -0.3889  0.4315  0.2792
 6095TIP3    H118291   1.999   0.510   1.027  0.6995 -0.3249  2.3010
 6095TIP3    H218292   2.150   0.523   1.027  0.6544  2.4919 -2.2369
 6096TIP3   OH218293   4.562   4.161   3.853 -0.2507 -0.1476  0.0852
 6096TIP3    H118294   4.537   4.069   3.839 -1.8018  0.2041  0.3344
 6096TIP3    H218295   4.656   4.158   3.866 -0.1652 -1.6334 -0.5926
 6097TIP3   OH218296   0.725   4.104   2.216  0.4638  0.1113  0.4460
 6097TIP3    H118297   0.741   4.151   2.298  0.1026  1.3735 -0.1654
 6097TIP3    H218298   0.702   4.015   2.242 -1.1816  0.8698  1.8225
 6098TIP3   OH218299   3.696   0.121   2.741  0.2040 -0.2406  0.2966
 6098TIP3    H118300   3.664   0.079   2.662 -0.6532  1.4096 -0.2615
 6098TIP3    H218301   3.618   0.150   2.787  0.7584  1.8460  0.0254
 6099TIP3   OH218302   0.733   1.878   3.052 -0.1533  0.1065 -0.2126
 6099TIP3    H118303   0.730   1.787   3.022  1.6332 -0.2635  0.6006
 6099TIP3    H218304   0.659   1.920   3.008 -1.3428 -1.8400 -0.2101
 6100TIP3   OH218305   3.336   2.701   4.613 -0.3704  0.5234 -0.0147
 6100TIP3    H118306   3.424   2.717   4.579 -0.0127  2.7820  1.7047
 6100TIP3    H218307   3.339   2.612   4.647  0.9359  0.2282 -0.8149
 6101TIP3   OH218308   2.200   0.733   3.063  0.9640  0.5851  0.2846
 6101TIP3    H118309   2.156   0.667   3.116  1.4016  0.5560  0.6125
 6101TIP3    H218310   2.264   0.684   3.012  0.1403  0.5218 -0.7380
 6102TIP3   OH218311   3.312   2.952   0.386  0.6153 -0.7444  0.0472
 6102TIP3    H118312   3.268   2.943   0.470 -0.5893  0.4750 -0.4062
 6102TIP3    H218313   3.288   3.040   0.356  2.1368 -0.6308 -0.9429
 6103TIP3   OH218314   2.793   5.963   1.225 -0.8561 -0.8484  0.1730
 6103TIP3    H118315   2.699   5.973   1.236 -0.7705  0.2490  0.0849
 6103TIP3    H218316   2.812   6.008   1.142 -0.2402 -0.9465  0.2544
 6104TIP3   OH218317   5.401   3.516   2.396  0.4952  0.5371  0.0052
 6104TIP3    H118318   5.443   3.574   2.332  1.9167 -0.1839  0.2379
 6104TIP3    H218319   5.458   3.521   2.473  0.3050 -0.6927  0.2384
 6105TIP3   OH218320   4.616   1.629   3.901  0.1964  0.4647 -0.6414
 6105TIP3    H118321   4.538   1.573   3.901 -1.4225  2.5817 -0.0549
 6105TIP3    H218322   4.582   1.717   3.890  2.6557  1.3692 -1.6731
 6106TIP3   OH218323   4.330   0.972   5.215 -0.0598 -0.3765  0.5219
 6106TIP3    H118324   4.379   0.943   5.138  0.8912 -1.9624  1.6533
 6106TIP3    H218325   4.259   1.025   5.180 -0.6547 -2.4087 -1.6282
 6107TIP3   OH218326   1.619   4.756   0.794  0.0488  0.1569  0.4689
 6107TIP3    H118327   1.656   4.678   0.752  0.8388  0.5621  0.3987
 6107TIP3    H218328   1.669   4.829   0.757  0.3593  0.5726  1.6756
 6108TIP3   OH218329   2.218   5.658   4.389  0.0001  0.0534  0.2813
 6108TIP3    H118330   2.217   5.607   4.470  1.1091  0.9355  0.8833
 6108TIP3    H218331   2.129   5.692   4.381  0.4310  2.0002  2.5157
 6109TIP3   OH218332   4.627   2.983   0.520 -0.0582 -0.1045 -0.1374
 6109TIP3    H118333   4.693   3.051   0.511 -0.1561  0.0972  0.6565
 6109TIP3    H218334   4.569   3.014   0.590  0.9275 -1.8302  1.5360
 6110TIP3   OH218335   4.524   1.072   2.167  0.1193 -0.1890 -1.1817
 6110TIP3    H118336   4.589   1.132   2.203  0.9149 -0.7031 -1.7155
 6110TIP3    H218337   4.440   1.108   2.194  0.6466 -0.8469  1.6424
 6111TIP3   OH218338   5.131   5.196   0.672  0.3318  0.4365 -0.7500
 6111TIP3    H118339   5.136   5.292   0.672  1.5784  0.4139  0.7242
 6111TIP3    H218340   5.175   5.170   0.591 -0.0527  1.1022 -1.1852
 6112TIP3   OH218341   2.134   2.532   4.463  0.3735 -0.0558  0.0400
 6112TIP3    H118342   2.070   2.462   4.452 -0.7944  0.8622  0.7996
 6112TIP3    H218343   2.118   2.591   4.389  1.4184 -0.6131 -0.6525
 6113TIP3   OH218344   4.936   5.345   1.616  0.0518  0.0969 -0.7676
 6113TIP3    H118345   4.957   5.276   1.554 -2.0449  0.2058 -1.6971
 6113TIP3    H218346   4.862   5.311   1.666 -0.5219  1.3434 -0.7212
 6114TIP3   OH218347   1.817   1.172   4.303 -0.4301 -0.0957 -0.4779
 6114TIP3    H118348   1.816   1.263   4.333 -1.7172 -0.0992 -0.4716
 6114TIP3    H218349   1.905   1.160   4.266  0.1752  0.7733  0.6220
 6115TIP3   OH218350   5.482   5.713   4.361 -0.1777 -0.2963  0.4686
 6115TIP3    H118351   5.399   5.715   4.409  0.0096 -2.1363  0.9368
 6115TIP3    H218352   5.457   5.712   4.269 -0.7338 -1.7537  0.6145
 6116TIP3   OH218353   3.403   1.973   1.635  0.3766  0.1277 -0.0329
 6116TIP3    H118354   3.344   2.016   1.574 -0.9482  0.3158  1.3204
 6116TIP3    H218355   3.359   1.891   1.657  1.6950 -0.7985 -0.6747
 6117TIP3   OH218356   4.602   3.869   0.437  0.2920  0.5776 -0.7151
 6117TIP3    H118357   4.666   3.862   0.508 -1.5578  1.9412  1.1845
 6117TIP3    H218358   4.587   3.778   0.410 -0.6601 -0.2925  2.3040
 6118TIP3   OH218359   4.071   0.476   3.378  0.2115  0.6674 -0.0901
 6118TIP3    H118360   4.017   0.542   3.423  1.0914 -0.3464  2.6701
 6118TIP3    H218361   4.161   0.506   3.391  0.7727 -1.7704  2.8013
 6119TIP3   OH218362   0.921   2.323   2.747  0.1583 -0.1649  0.2898
 6119TIP3    H118363   0.907   2.381   2.822  0.6265  0.9470 -0.4515
 6119TIP3    H218364   0.986   2.368   2.694  0.9746 -1.6629 -0.0371
 6120TIP3   OH218365   2.221   2.203   2.445 -0.9178  0.0232  0.2355
 6120TIP3    H118366   2.262   2.148   2.512 -1.1025  0.0040  0.3310
 6120TIP3    H218367   2.245   2.292   2.470 -1.0635  0.0225  0.3797
 6121TIP3   OH218368   2.635   2.373   2.197  0.0306  0.0936 -0.3406
 6121TIP3    H118369   2.554   2.324   2.181  0.5729 -0.8937 -0.1445
 6121TIP3    H218370   2.663   2.345   2.284 -0.2961  1.7123  0.3160
 6122TIP3   OH218371   1.195   2.439   4.256  0.2444 -0.1802  0.0064
 6122TIP3    H118372   1.267   2.502   4.250 -0.4870  0.6977  0.1550
 6122TIP3    H218373   1.131   2.482   4.314 -0.8118 -0.5208 -0.8670
 6123TIP3   OH218374   1.410   4.649   0.232 -0.2298 -0.0560 -0.8183
 6123TIP3    H118375   1.484   4.653   0.293 -0.3466 -1.7601 -0.5230
 6123TIP3    H218376   1.428   4.718   0.168  0.5646  0.9001  0.3962
 6124TIP3   OH218377   4.399   4.269   2.297 -0.2498 -0.3853 -0.0335
 6124TIP3    H118378   4.357   4.226   2.222  1.6910  0.2682 -1.6173
 6124TIP3    H218379   4.472   4.317   2.258 -1.1921  2.8849  1.8624
 6125TIP3   OH218380   4.829   3.323   0.735 -0.3163 -1.1863  0.1756
 6125TIP3    H118381   4.803   3.313   0.644 -0.4882  1.3673 -0.1345
 6125TIP3    H218382   4.911   3.275   0.742  0.5875 -0.0400 -1.8060
 6126TIP3   OH218383   1.452   2.848   4.359  0.4397  0.1371  0.0463
 6126TIP3    H118384   1.490   2.912   4.419  0.0922 -0.1779  0.6061
 6126TIP3    H218385   1.528   2.814   4.310  0.7643  0.1454  0.5396
 6127TIP3   OH218386   1.162   5.286   0.534 -0.3260  0.0024  0.0612
 6127TIP3    H118387   1.248   5.270   0.494  0.0776  2.5123 -0.2380
 6127TIP3    H218388   1.181   5.305   0.626 -0.6832 -0.4214  0.2261
 6128TIP3   OH218389   6.251   0.713   1.070 -0.4863 -0.5138  0.4160
 6128TIP3    H118390   6.172   0.737   1.022 -0.1454 -0.1188  0.0411
 6128TIP3    H218391   6.228   0.727   1.162 -1.3738 -1.9526  0.4329
 6129TIP3   OH218392   2.043   0.028   1.217 -0.1132 -0.2267  0.2032
 6129TIP3    H118393   2.099   0.009   1.293 -0.8283 -2.3922  0.2632
 6129TIP3    H218394   1.979   0.091   1.250 -0.8082 -1.6165  1.6416
 6130TIP3   OH218395   0.736   3.407   0.688  0.2638  0.0707 -0.0323
 6130TIP3    H118396   0.693   3.478   0.641  0.6563  0.3463  0.0221
 6130TIP3    H218397   0.746   3.441   0.778  1.0782  0.2221 -0.1738
 6131TIP3   OH218398   4.447   4.704   4.615  0.3013  0.1464 -0.0858
 6131TIP3    H118399   4.475   4.669   4.531 -1.6940  0.9091 -1.1516
 6131TIP3    H218400   4.489   4.789   4.621  1.7383 -0.5782  0.4882
 6132TIP3   OH218401   6.122   0.959   4.703  0.4966 -0.3258 -0.5675
 6132TIP3    H118402   6.042   0.998   4.738  1.6858  1.4992  0.3162
 6132TIP3    H218403   6.149   0.895   4.768  0.7601  0.4579  0.1130
 6133TIP3   OH218404   1.867   2.632   1.915 -0.0673 -0.5369 -0.6026
 6133TIP3    H118405   1.842   2.589   1.996 -0.3061 -0.8585 -0.8448
 6133TIP3    H218406   1.922   2.568   1.869 -0.3111 -0.5312 -0.9042
 6134TIP3   OH218407   3.373   4.230   1.451  0.1956 -0.1085  0.4588
 6134TIP3    H118408   3.368   4.167   1.523 -0.6905 -0.6041 -0.0068
 6134TIP3    H218409   3.394   4.313   1.493 -3.1467  0.2620  1.7657
 6135TIP3   OH218410   2.831   5.879   5.104 -0.5238 -0.0355 -0.1603
 6135TIP3    H118411   2.899   5.896   5.038 -0.7993  1.7475 -0.0205
 6135TIP3    H218412   2.878   5.833   5.174  0.1640 -0.3140 -0.7766
 6136TIP3   OH218413   2.750   5.322   4.468  0.0681 -0.0495  0.5698
 6136TIP3    H118414   2.804   5.246   4.488  0.2699  0.4820  2.1709
 6136TIP3    H218415   2.708   5.344   4.550 -0.4611  1.2059 -0.0083
 6137TIP3   OH218416   2.476   3.972   4.239 -0.7110 -0.1555 -0.4148
 6137TIP3    H118417   2.415   4.025   4.289 -0.4203  0.8378 -1.0834
 6137TIP3    H218418   2.466   4.003   4.149  1.7711  1.0757 -0.3557
 6138TIP3   OH218419   6.119   2.329   2.640 -0.0499 -0.1178 -0.2897
 6138TIP3    H118420   6.154   2.289   2.720 -0.0727  0.0251 -0.2086
 6138TIP3    H218421   6.194   2.334   2.581  0.4162  1.5407  0.4049
 6139TIP3   OH218422   3.666   4.753   3.187  0.1113  0.7574 -0.0066
 6139TIP3    H118423   3.590   4.778   3.135 -0.2292  1.2043  0.7021
 6139TIP3    H218424   3.697   4.672   3.146  0.2953  1.4760 -1.3637
 6140TIP3   OH218425   0.885   1.309   4.943 -0.4752  0.4316  0.0031
 6140TIP3    H118426   0.840   1.393   4.942 -0.8279  0.2416 -0.2769
 6140TIP3    H218427   0.963   1.324   4.997 -1.3516  0.5219  1.2910
 6141TIP3   OH218428   0.576   0.352   0.927 -0.1582 -0.1413 -0.1411
 6141TIP3    H118429   0.655   0.387   0.887  2.2405 -1.5522  2.9708
 6141TIP3    H218430   0.534   0.427   0.969 -0.6162  0.6247 -1.8825
 6142TIP3   OH218431   6.336   2.711   3.832  0.2056  0.4948  0.5188
 6142TIP3    H118432   6.261   2.771   3.826 -0.8271 -0.7977  0.0904
 6142TIP3    H218433   6.340   2.686   3.924  0.5660  1.0989  0.6769
 6143TIP3   OH218434   1.096   5.127   4.388 -0.4637  0.1671  0.3303
 6143TIP3    H118435   1.163   5.093   4.329  0.2738  1.4194  0.3936
 6143TIP3    H218436   1.021   5.146   4.332 -1.1640 -2.1070  0.3910
 6144TIP3   OH218437   4.730   2.717   3.559  0.3222  0.2169 -0.1760
 6144TIP3    H118438   4.654   2.776   3.558 -0.8863 -1.2827 -1.5117
 6144TIP3    H218439   4.724   2.672   3.643  0.3378  0.8408  0.1659
 6145TIP3   OH218440   0.481   5.156   1.512  0.4607  0.2578  0.0459
 6145TIP3    H118441   0.552   5.177   1.453 -0.8251  2.8784 -0.7024
 6145TIP3    H218442   0.406   5.204   1.478 -1.7626 -2.4532  0.7278
 6146TIP3   OH218443   5.731   5.488   4.698  0.1256 -0.5904  0.3481
 6146TIP3    H118444   5.725   5.464   4.790 -0.8656 -0.8563  0.2199
 6146TIP3    H218445   5.674   5.426   4.653  0.6248 -0.4809 -0.4514
 6147TIP3   OH218446   1.696   2.469   1.276 -0.1867 -0.5367 -0.1277
 6147TIP3    H118447   1.601   2.477   1.274 -0.1377  0.0583 -0.1328
 6147TIP3    H218448   1.715   2.427   1.360 -0.5272 -1.7616 -0.6397
 6148TIP3   OH218449   4.316   3.416   1.149 -0.9815  0.2141 -0.3516
 6148TIP3    H118450   4.404   3.385   1.170 -0.6713  1.2308 -0.0894
 6148TIP3    H218451   4.322   3.511   1.158 -1.9258  0.3463 -1.0320
 6149TIP3   OH218452   5.227   3.052   3.121 -0.0571  0.4287  0.1739
 6149TIP3    H118453   5.311   3.006   3.124 -0.0366  0.3806 -0.7917
 6149TIP3    H218454   5.176   3.013   3.192 -0.0600 -1.1563 -0.6428
 6150TIP3   OH218455   4.964   3.666   1.586  0.5611 -0.1861 -0.3116
 6150TIP3    H118456   4.958   3.610   1.663  0.4186  1.5942  1.0440
 6150TIP3    H218457   4.875   3.670   1.552  0.7037 -1.3224 -0.8433
 6151TIP3   OH218458   3.968   5.569   3.118  0.1179 -0.1595 -0.1030
 6151TIP3    H118459   4.053   5.558   3.161  0.1671  1.7078  0.3961
 6151TIP3    H218460   3.929   5.645   3.162 -0.9563  0.2351 -1.6501
 6152TIP3   OH218461   2.307   2.001   0.845  0.4669 -0.0089 -0.5185
 6152TIP3    H118462   2.366   2.072   0.817  0.5797  0.5514  1.0660
 6152TIP3    H218463   2.309   2.004   0.940 -2.0550 -0.0659 -0.4130
 6153TIP3   OH218464   3.661   0.769   4.400  0.3350 -0.2306  0.0641
 6153TIP3    H118465   3.651   0.693   4.457  0.6681 -0.6864 -0.4880
 6153TIP3    H218466   3.616   0.840   4.447 -0.0348 -0.7784  0.5411
 6154TIP3   OH218467   1.093   2.999   2.901  0.5658  0.4808  0.7960
 6154TIP3    H118468   1.036   3.052   2.957  0.1028  0.6978  0.1399
 6154TIP3    H218469   1.134   2.936   2.960  0.2911  0.8767  1.4143
 6155TIP3   OH218470   2.806   1.817   3.319  0.0626  0.4602 -0.5872
 6155TIP3    H118471   2.780   1.870   3.244  1.6582  1.4136 -0.5366
 6155TIP3    H218472   2.746   1.844   3.389 -1.1865 -0.1534 -1.3892
 6156TIP3   OH218473   0.165   0.272   3.293 -0.4491  0.4043  0.3226
 6156TIP3    H118474   0.100   0.247   3.359  1.5313  0.7100  2.5240
 6156TIP3    H218475   0.180   0.365   3.308  0.4523  0.3445 -0.1803
 6157TIP3   OH218476   5.180   0.955   0.411  0.1670 -0.6412 -0.3941
 6157TIP3    H118477   5.132   0.950   0.329 -0.3676  1.6895 -0.2830
 6157TIP3    H218478   5.247   1.022   0.396 -0.0162 -0.0862  1.0876
 6158TIP3   OH218479   0.478   3.614   4.860  0.0696  0.2409 -0.6216
 6158TIP3    H118480   0.516   3.594   4.946  0.6838 -1.1336 -1.1844
 6158TIP3    H218481   0.442   3.702   4.870 -1.0138 -0.3701  1.4198
 6159TIP3   OH218482   5.663   1.562   1.729  0.0644  0.0299  0.0450
 6159TIP3    H118483   5.737   1.506   1.751  0.7374 -0.6033 -3.2755
 6159TIP3    H218484   5.604   1.554   1.804  1.1779 -3.2626  0.7426
 6160TIP3   OH218485   2.507   0.250   5.026 -0.1920  0.3945  0.1684
 6160TIP3    H118486   2.548   0.332   4.996  0.6918 -0.1533 -0.1533
 6160TIP3    H218487   2.487   0.266   5.118  1.4657  0.4370  0.5638
 6161TIP3   OH218488   2.973   0.748   2.545 -0.0772  0.0019  0.0120
 6161TIP3    H118489   3.057   0.777   2.508  0.5958 -0.4508  1.1178
 6161TIP3    H218490   2.966   0.794   2.629 -0.5347 -0.5763  0.3039
 6162TIP3   OH218491   2.884   4.820   0.299 -0.2002  0.0176 -0.1639
 6162TIP3    H118492   2.849   4.907   0.319 -0.3954  0.2365 -1.3816
 6162TIP3    H218493   2.979   4.832   0.296 -0.2744  0.4510 -1.4005
 6163TIP3   OH218494   4.079   3.345   1.009  0.3876  0.0586 -0.0860
 6163TIP3    H118495   4.011   3.381   1.065  0.2035 -0.1466 -0.1787
 6163TIP3    H218496   4.158   3.346   1.064  1.1571  3.5078 -1.0424
 6164TIP3   OH218497   4.328   0.787   0.127  0.4189  0.6949 -0.0718
 6164TIP3    H118498   4.288   0.737   0.198  0.9238 -1.7983 -1.4395
 6164TIP3    H218499   4.254   0.811   0.071  0.4036 -0.8607 -0.7668
 6165TIP3   OH218500   5.062   0.901   1.587 -0.6820  0.5571  0.0729
 6165TIP3    H118501   5.144   0.945   1.563 -0.7930  0.5220 -0.3810
 6165TIP3    H218502   5.089   0.830   1.645 -0.4782  1.0802  0.6305
 6166TIP3   OH218503   0.044   0.474   3.948  0.7143 -0.0404  0.0071
 6166TIP3    H118504  -0.048   0.451   3.961  0.9149 -1.1925 -0.4896
 6166TIP3    H218505   0.088   0.444   4.027  0.5314  1.3981  0.6768
 6167TIP3   OH218506   3.626   5.444   2.193 -0.3951 -0.0449  0.3840
 6167TIP3    H118507   3.668   5.454   2.108 -0.8257  0.3932  0.2232
 6167TIP3    H218508   3.572   5.365   2.184 -0.4518  0.0091  0.2495
 6168TIP3   OH218509   2.292   0.872   0.868 -0.3764  0.0508  0.2822
 6168TIP3    H118510   2.198   0.886   0.884 -0.3077  0.3996  0.3846
 6168TIP3    H218511   2.329   0.960   0.866  0.0895 -0.1238  1.0706
 6169TIP3   OH218512   1.426   5.734   5.124  0.2084 -0.8630  0.5271
 6169TIP3    H118513   1.443   5.761   5.034  0.1217 -0.3360  0.6644
 6169TIP3    H218514   1.501   5.765   5.174 -0.2197 -0.2662  0.8031
 6170TIP3   OH218515   2.233   0.924   2.176  0.0813  0.0869 -0.3583
 6170TIP3    H118516   2.159   0.877   2.214  1.7306 -0.7153  2.1509
 6170TIP3    H218517   2.236   0.895   2.084 -0.9851 -2.1261  0.2380
 6171TIP3   OH218518   0.104   5.370   1.207  0.1880 -0.2482 -0.1762
 6171TIP3    H118519   0.151   5.431   1.150  1.8252 -0.6878  0.6286
 6171TIP3    H218520   0.102   5.288   1.158 -0.9860  0.1001 -0.7676
 6172TIP3   OH218521   2.230   2.759   2.388 -0.5414 -0.4181  0.1025
 6172TIP3    H118522   2.187   2.756   2.473  0.3537 -1.0314  0.5539
 6172TIP3    H218523   2.273   2.844   2.386 -1.3429 -0.0140 -0.1382
 6173TIP3   OH218524   5.574   3.244   0.264  0.4037 -0.3480  0.0785
 6173TIP3    H118525   5.534   3.168   0.307 -0.8578 -0.4875 -1.2541
 6173TIP3    H218526   5.617   3.207   0.187 -0.5792  0.3093 -0.8129
 6174TIP3   OH218527   3.298   0.545   2.579  0.0651 -0.1042 -0.5759
 6174TIP3    H118528   3.207   0.522   2.600  0.3591 -3.0460 -2.0624
 6174TIP3    H218529   3.346   0.528   2.660 -0.1417 -2.7305 -0.9168
 6175TIP3   OH218530   0.129   0.534   1.541 -0.3899 -0.2207 -0.0603
 6175TIP3    H118531   0.203   0.593   1.553 -0.1272 -0.1279 -1.9535
 6175TIP3    H218532   0.147   0.488   1.460 -2.1620 -0.5662 -0.2972
 6176TIP3   OH218533   0.886   1.143   1.931 -0.1206  0.4177 -0.4834
 6176TIP3    H118534   0.905   1.088   2.008  1.0228 -0.4476 -1.3464
 6176TIP3    H218535   0.860   1.080   1.864  1.8525  0.8316 -1.6942
 6177TIP3   OH218536   1.495   5.118   4.501 -0.6273  0.2727  0.1958
 6177TIP3    H118537   1.539   5.183   4.556 -2.9325  1.6426  0.5702
 6177TIP3    H218538   1.534   5.034   4.527 -0.3089  1.0711  2.5803
 6178TIP3   OH218539   1.530   5.197   3.954 -0.5886 -0.4097 -0.2574
 6178TIP3    H118540   1.468   5.211   4.026 -1.4062 -0.7992 -0.8711
 6178TIP3    H218541   1.508   5.110   3.921 -0.5250 -0.0531 -1.2660
 6179TIP3   OH218542   6.150   1.789   3.884 -0.3742 -0.3265  0.0642
 6179TIP3    H118543   6.162   1.751   3.972 -0.3533  1.4261  0.8634
 6179TIP3    H218544   6.064   1.831   3.888  0.5155  1.5880 -0.0134
 6180TIP3   OH218545   6.184   1.255   4.923  0.0088  0.2064  0.0131
 6180TIP3    H118546   6.113   1.191   4.928 -1.2580  1.5547  0.0591
 6180TIP3    H218547   6.223   1.255   5.011 -1.0054  0.5911  0.4795
 6181TIP3   OH218548   4.601   4.956   4.570  0.1816  0.0482 -0.5206
 6181TIP3    H118549   4.604   4.965   4.475 -0.1446  2.8687 -0.3411
 6181TIP3    H218550   4.616   5.044   4.603 -0.9910 -0.6082  2.0250
 6182TIP3   OH218551   4.738   2.844   4.672  0.0369  0.0092  0.2495
 6182TIP3    H118552   4.704   2.928   4.703  1.5718  0.9230 -0.4336
 6182TIP3    H218553   4.669   2.811   4.614  0.0198  1.5523 -0.6769
 6183TIP3   OH218554   0.630   1.659   3.315  0.1070 -0.5767  0.1791
 6183TIP3    H118555   0.659   1.702   3.234  1.2390 -1.1965  0.2360
 6183TIP3    H218556   0.665   1.714   3.385  1.2807 -1.3766  0.2491
 6184TIP3   OH218557   3.189   3.314   4.173 -0.1821  0.3254  0.5357
 6184TIP3    H118558   3.139   3.245   4.129  1.8599 -0.8694 -0.0595
 6184TIP3    H218559   3.127   3.387   4.181 -1.0493  0.2496 -3.3740
 6185TIP3   OH218560   4.946   3.934   1.901 -0.1146 -0.3820 -0.3362
 6185TIP3    H118561   5.000   3.974   1.969 -0.8821  0.2023 -0.0576
 6185TIP3    H218562   4.964   3.985   1.822 -0.0334 -0.3792 -0.3152
 6186TIP3   OH218563   0.568   2.579   1.432  0.2723  0.3551 -0.4155
 6186TIP3    H118564   0.590   2.540   1.347  0.2783  1.2369 -0.8334
 6186TIP3    H218565   0.475   2.562   1.443  0.4604 -0.5403 -0.1764
 6187TIP3   OH218566   3.624   2.680   1.454 -0.0352  0.2388  0.1944
 6187TIP3    H118567   3.600   2.771   1.444  0.3137  0.2391 -0.6867
 6187TIP3    H218568   3.720   2.680   1.456 -0.0383  0.0058  1.3842
 6188TIP3   OH218569   3.134   4.629   1.525  0.0350 -0.2551 -0.7539
 6188TIP3    H118570   3.070   4.559   1.510 -1.8203  1.1781 -0.0002
 6188TIP3    H218571   3.143   4.671   1.439  0.4156 -0.8141 -0.9920
 6189TIP3   OH218572   0.192   1.036   0.739  0.7429 -0.1086 -0.1056
 6189TIP3    H118573   0.262   1.067   0.681  1.7286  1.3605  1.7441
 6189TIP3    H218574   0.146   1.116   0.766  2.8095 -0.0735  4.1333
 6190TIP3   OH218575   4.276   3.598   4.493 -0.2280  0.1559 -0.4411
 6190TIP3    H118576   4.312   3.568   4.577  0.0531  0.2363 -0.5304
 6190TIP3    H218577   4.219   3.527   4.464 -1.9391  0.9653  0.7895
 6191TIP3   OH218578   5.468   5.595   0.022 -0.0868 -0.6014 -0.0531
 6191TIP3    H118579   5.534   5.656   0.055  0.5959 -0.6656 -1.2558
 6191TIP3    H218580   5.410   5.649  -0.032 -1.3915 -0.4356  1.4256
 6192TIP3   OH218581   0.879   3.334   0.042 -0.0223  0.5681  0.0676
 6192TIP3    H118582   0.807   3.390   0.015  0.1262  0.9857  0.5211
 6192TIP3    H218583   0.843   3.278   0.110 -0.7824 -1.4645 -1.9062
 6193TIP3   OH218584   4.986   0.106   0.962  0.2799 -0.3662 -0.0726
 6193TIP3    H118585   4.919   0.146   0.906  0.1414 -0.0070  0.3424
 6193TIP3    H218586   5.029   0.180   1.004 -0.3881 -0.6597  1.1760
 6194TIP3   OH218587   1.152   2.434   2.094  0.0120 -0.3019  0.1778
 6194TIP3    H118588   1.209   2.362   2.121 -1.3032 -1.9953 -1.2230
 6194TIP3    H218589   1.203   2.483   2.030 -0.0339 -1.7657 -1.0298
 6195TIP3   OH218590   4.106   3.880   4.261  0.2673  0.4724  0.2380
 6195TIP3    H118591   4.091   3.819   4.188 -1.1426 -1.0539  1.7253
 6195TIP3    H218592   4.040   3.948   4.249 -0.3594 -0.0958  0.3948
 6196TIP3   OH218593   5.512   5.709   0.983 -0.5535 -0.1443  0.1143
 6196TIP3    H118594   5.515   5.778   1.048 -1.3516 -0.2721  0.2890
 6196TIP3    H218595   5.483   5.631   1.031 -3.1553  0.2060 -0.7390
 6197TIP3   OH218596   3.258   3.713   4.377 -0.4417 -0.1080  0.0357
 6197TIP3    H118597   3.193   3.661   4.424 -0.5246  0.0781  0.1290
 6197TIP3    H218598   3.281   3.660   4.301 -0.8436 -0.0925 -0.0979
 6198TIP3   OH218599   0.257   0.138   1.415 -0.8412  0.0844 -0.4222
 6198TIP3    H118600   0.227   0.156   1.504 -0.1747  1.1839 -0.3997
 6198TIP3    H218601   0.320   0.207   1.396  0.2871 -1.0913 -1.1427
 6199TIP3   OH218602   0.355   3.447   2.444  0.5887 -0.1750 -0.7753
 6199TIP3    H118603   0.278   3.406   2.485 -0.2020  0.9850 -1.0319
 6199TIP3    H218604   0.422   3.445   2.511 -0.4371  0.9592  0.3340
 6200TIP3   OH218605   5.761   1.278   4.679  0.6434  0.5252 -0.1985
 6200TIP3    H118606   5.713   1.210   4.631  0.3254 -1.2433  2.4596
 6200TIP3    H218607   5.693   1.326   4.726  1.1045  1.0930 -0.1057
 6201TIP3   OH218608   5.309   3.042   1.244 -0.3578  0.2688  0.4475
 6201TIP3    H118609   5.268   3.022   1.160 -0.0819 -0.2518  0.4342
 6201TIP3    H218610   5.374   3.109   1.223  1.1563 -1.3034 -0.1484
 6202TIP3   OH218611   1.320   2.702   2.133 -0.1679  0.3560  0.1107
 6202TIP3    H118612   1.309   2.695   2.227  0.8628 -0.8126  0.1747
 6202TIP3    H218613   1.398   2.757   2.121 -1.4637  2.2476 -0.1483
 6203TIP3   OH218614   4.992   1.394   0.550 -0.0075  0.6582  0.0199
 6203TIP3    H118615   5.009   1.339   0.627  0.6773  1.1472  0.2281
 6203TIP3    H218616   4.901   1.422   0.560 -0.4135 -0.5095 -0.1445
 6204TIP3   OH218617   4.853   3.208   1.500  0.1730 -0.5406 -0.0973
 6204TIP3    H118618   4.921   3.191   1.435 -0.8117 -0.6090 -1.1359
 6204TIP3    H218619   4.822   3.121   1.526  0.6372 -0.5171  0.5553
 6205TIP3   OH218620   5.058   0.790   0.613  0.5512  0.4966  0.2178
 6205TIP3    H118621   5.011   0.723   0.563  1.4194 -0.3462  0.5018
 6205TIP3    H218622   5.072   0.861   0.551  0.4172  0.0299 -0.3535
 6206TIP3   OH218623   6.024   4.275   4.427  0.3512 -0.1560  0.1365
 6206TIP3    H118624   6.036   4.285   4.333  0.7069  2.3520  0.3843
 6206TIP3    H218625   6.110   4.294   4.465 -0.2951  1.1092  1.0536
 6207TIP3   OH218626   3.546   1.444   2.343 -0.0024  0.2881 -0.3442
 6207TIP3    H118627   3.552   1.476   2.253  0.8616 -1.2405 -0.8597
 6207TIP3    H218628   3.614   1.377   2.350 -0.9231 -0.5707  1.0486
 6208TIP3   OH218629   1.762   1.066   0.816 -0.1971 -0.6499 -0.0272
 6208TIP3    H118630   1.850   1.103   0.808  0.0192 -0.8033  1.5114
 6208TIP3    H218631   1.708   1.139   0.846 -0.7949 -0.3384 -1.7518
 6209TIP3   OH218632   3.703   1.812   1.973  0.4691  0.1543 -0.1483
 6209TIP3    H118633   3.657   1.824   2.056  0.9076 -2.0472  0.4725
 6209TIP3    H218634   3.721   1.718   1.969  1.4514  0.3810 -2.2197
 6210TIP3   OH218635   4.494   4.626   2.543 -0.5682  0.4608 -0.3649
 6210TIP3    H118636   4.473   4.707   2.589 -2.7968  0.4042 -1.1864
 6210TIP3    H218637   4.421   4.613   2.482  0.7041 -1.1503 -1.6353
 6211TIP3   OH218638   1.252   4.388   1.222 -0.5594 -0.3309 -0.4186
 6211TIP3    H118639   1.173   4.400   1.275  0.6742 -0.2153  1.5015
 6211TIP3    H218640   1.316   4.351   1.283  1.6486  1.9042 -1.2378
 6212TIP3   OH218641   1.948   5.760   2.876 -0.0649  0.5871 -0.0931
 6212TIP3    H118642   1.913   5.690   2.931 -1.6470  0.4325 -1.2374
 6212TIP3    H218643   1.871   5.807   2.844  0.6436 -0.0862 -3.1514
 6213TIP3   OH218644   3.952   4.476   4.803 -0.1329 -0.5203  0.2619
 6213TIP3    H118645   3.892   4.533   4.755  0.7316 -1.2560 -1.8172
 6213TIP3    H218646   3.912   4.466   4.890 -1.2863  1.6316  0.0414
 6214TIP3   OH218647   2.231   3.771   1.550  0.4004 -0.1548 -0.4176
 6214TIP3    H118648   2.264   3.790   1.462 -0.7820 -2.0908 -1.3496
 6214TIP3    H218649   2.249   3.678   1.563 -3.5035 -1.0829 -0.5363
 6215TIP3   OH218650   4.538   4.325   1.948  0.2370 -0.3051  0.0671
 6215TIP3    H118651   4.526   4.231   1.963  0.7370 -0.1853  1.3634
 6215TIP3    H218652   4.597   4.353   2.017 -1.5785  1.3940  1.0443
 6216TIP3   OH218653   0.221   5.897   4.235  0.0570  0.1369 -0.5554
 6216TIP3    H118654   0.270   5.834   4.181 -0.2687 -1.2324  0.6644
 6216TIP3    H218655   0.210   5.852   4.319 -0.3710  1.7750  0.3058
 6217TIP3   OH218656   0.196   5.210   2.185 -0.3366 -1.1296 -0.1906
 6217TIP3    H118657   0.101   5.198   2.196 -0.8127  2.4329  0.8111
 6217TIP3    H218658   0.223   5.258   2.264  1.3339  2.0854 -2.4908
 6218TIP3   OH218659   2.084   4.412   5.033  0.3376  0.0368 -0.4263
 6218TIP3    H118660   2.157   4.351   5.024  0.6155  0.1886  0.7554
 6218TIP3    H218661   2.026   4.389   4.960  0.1133 -2.0762  0.3495
 6219TIP3   OH218662   0.201   4.248   4.664  0.5740  0.2258  0.6530
 6219TIP3    H118663   0.156   4.177   4.710  1.8768 -1.7637 -0.9857
 6219TIP3    H218664   0.226   4.309   4.734 -1.8718 -0.1196  1.9447
 6220TIP3   OH218665   3.729   3.193   4.236 -0.6776 -0.2072 -0.1427
 6220TIP3    H118666   3.821   3.198   4.264 -0.7088 -2.6192  0.6383
 6220TIP3    H218667   3.679   3.191   4.318 -1.3945  0.5933 -0.5488
 6221TIP3   OH218668   3.827   0.513   4.889 -0.0154 -0.0134  0.1212
 6221TIP3    H118669   3.834   0.464   4.971  0.4158  1.3430  0.9169
 6221TIP3    H218670   3.844   0.448   4.821 -0.0786 -1.0976  1.1064
 6222TIP3   OH218671   2.613   1.030   2.056  0.1509  0.1589 -0.0695
 6222TIP3    H118672   2.561   0.967   2.106  0.8614  0.4394  1.0424
 6222TIP3    H218673   2.552   1.102   2.037 -0.5160 -0.6013 -0.8825
 6223TIP3   OH218674   3.044   2.044   2.152 -0.2749 -0.0126  0.1277
 6223TIP3    H118675   3.063   2.128   2.108 -1.3751 -0.3443 -1.0456
 6223TIP3    H218676   2.979   2.066   2.218  0.1631  0.2207  0.4835
 6224TIP3   OH218677   3.348   1.664   3.105 -0.0031  0.4902 -0.2198
 6224TIP3    H118678   3.409   1.664   3.031 -0.9369  1.1419 -1.0073
 6224TIP3    H218679   3.405   1.657   3.182  1.0750  1.1082 -0.9291
 6225TIP3   OH218680   1.950   0.950   1.957  0.2810 -0.3449  0.0785
 6225TIP3    H118681   2.034   0.917   1.924  0.4123  0.9592 -0.9612
 6225TIP3    H218682   1.934   1.030   1.907 -0.2787  0.9047  2.1388
 6226TIP3   OH218683   2.833   2.331   3.424 -0.1238 -0.2328  0.1174
 6226TIP3    H118684   2.772   2.257   3.428  1.0186 -1.2051  0.2708
 6226TIP3    H218685   2.905   2.304   3.480 -0.9064  2.2123  2.4627
 6227TIP3   OH218686   0.076   5.559   3.599 -0.4337 -0.4073 -0.4192
 6227TIP3    H118687   0.091   5.650   3.624 -0.2502 -0.1969 -1.2592
 6227TIP3    H218688   0.147   5.510   3.640 -0.7119 -0.2246  0.2955
 6228TIP3   OH218689   4.058   2.013   2.829  0.8324  0.2846  0.4812
 6228TIP3    H118690   4.153   2.023   2.829  0.6929  1.7280  0.4326
 6228TIP3    H218691   4.039   1.971   2.745  1.2918  1.5245 -0.2717
 6229TIP3   OH218692   6.114   5.402   1.297 -0.0591  0.3911  0.2651
 6229TIP3    H118693   6.117   5.357   1.212  1.3546  0.0865  0.4622
 6229TIP3    H218694   6.172   5.477   1.287 -1.2107  1.3428  0.4431
 6230TIP3   OH218695   1.245   0.203   3.809 -0.0296  0.2921 -0.2101
 6230TIP3    H118696   1.311   0.231   3.745 -0.8116  1.0862 -0.6992
 6230TIP3    H218697   1.162   0.227   3.769 -0.8973 -3.6031 -1.0724
 6231TIP3   OH218698   3.912   2.304   4.320  0.6110 -0.3647  0.1813
 6231TIP3    H118699   3.916   2.385   4.270 -0.3317 -0.2677  0.2364
 6231TIP3    H218700   3.831   2.311   4.370  1.7135 -0.2904  2.0300
 6232TIP3   OH218701   0.137   4.991   4.414 -0.1550  0.4408 -0.0262
 6232TIP3    H118702   0.078   4.938   4.360 -2.4610  1.0420  1.7180
 6232TIP3    H218703   0.079   5.055   4.456  1.3799 -0.1592  3.3266
 6233TIP3   OH218704   4.149   4.136   5.037 -0.2962 -0.3813  0.0911
 6233TIP3    H118705   4.113   4.047   5.032 -2.9591  0.5948  0.4630
 6233TIP3    H218706   4.150   4.167   4.946 -0.4901 -0.3753  0.0911
 6234TIP3   OH218707   5.699   5.588   0.444  0.2210  0.3241 -0.4665
 6234TIP3    H118708   5.610   5.584   0.411 -0.0873 -1.1170  0.4439
 6234TIP3    H218709   5.725   5.680   0.433 -2.3705  1.4660  1.8242
 6235TIP3   OH218710   2.486   4.788   2.890 -0.3903  0.4078 -0.3451
 6235TIP3    H118711   2.459   4.867   2.843 -0.8927  0.5746  0.2111
 6235TIP3    H218712   2.429   4.785   2.967 -0.9834 -0.9798 -0.8079
 6236TIP3   OH218713   3.141   5.602   3.612  0.0935  0.3062 -0.6970
 6236TIP3    H118714   3.108   5.587   3.701 -0.1125  0.0773 -0.8109
 6236TIP3    H218715   3.210   5.668   3.623  0.3383 -0.0098 -0.3178
 6237TIP3   OH218716   4.283   3.017   1.721 -0.0259 -0.1235 -0.0818
 6237TIP3    H118717   4.300   3.035   1.814  0.6521  2.9049 -0.6956
 6237TIP3    H218718   4.190   3.033   1.710  0.2044  1.3191 -0.2035
 6238TIP3   OH218719   4.337   3.079   2.701  0.5120  0.2902 -0.0201
 6238TIP3    H118720   4.252   3.073   2.658  0.0634  1.9668  0.5645
 6238TIP3    H218721   4.382   2.998   2.676 -0.9263 -0.2450 -1.0145
 6239TIP3   OH218722   2.387   5.239   4.501 -1.1680 -0.0409 -0.4398
 6239TIP3    H118723   2.448   5.311   4.484  0.1698 -0.7753  0.9533
 6239TIP3    H218724   2.402   5.177   4.430 -0.5205 -0.0474 -0.3013
 6240TIP3   OH218725   2.632   1.525   5.127 -0.5188 -0.3300 -0.1117
 6240TIP3    H118726   2.654   1.455   5.065  1.1759 -1.1015  1.2527
 6240TIP3    H218727   2.717   1.550   5.165 -1.3481  1.0587  0.8982
 6241TIP3   OH218728   3.627   4.098   3.922  0.1390 -0.6467 -0.0927
 6241TIP3    H118729   3.553   4.077   3.865 -0.4411  1.0356  0.0007
 6241TIP3    H218730   3.608   4.053   4.004 -2.1699  1.7957  0.8451
 6242TIP3   OH218731   0.229   3.115   1.934  0.0517 -0.0494 -0.7329
 6242TIP3    H118732   0.189   3.170   2.002 -1.3831 -0.1037 -1.4967
 6242TIP3    H218733   0.157   3.060   1.902  0.8108 -0.3602 -1.9667
 6243TIP3   OH218734   2.744   4.346   2.784 -0.2266 -0.8339  0.2111
 6243TIP3    H118735   2.824   4.377   2.742 -0.8016 -1.9138 -1.8558
 6243TIP3    H218736   2.674   4.399   2.746 -0.7307 -1.6114  0.0072
 6244TIP3   OH218737   1.139   4.353   3.305 -0.4179 -0.7927 -0.5391
 6244TIP3    H118738   1.112   4.269   3.269 -0.0472 -0.3102 -2.0057
 6244TIP3    H218739   1.059   4.405   3.308 -0.5199 -0.9612 -0.2829
 6245TIP3   OH218740   4.612   1.660   4.171 -0.4833 -0.4370  0.3459
 6245TIP3    H118741   4.639   1.616   4.091  0.2807  0.7425 -0.0690
 6245TIP3    H218742   4.691   1.667   4.223 -0.0730  2.1301 -0.4455
 6246TIP3   OH218743   5.269   4.651   1.156 -0.0810 -0.1102  0.0364
 6246TIP3    H118744   5.182   4.665   1.118  0.3490  1.3114 -0.4980
 6246TIP3    H218745   5.316   4.601   1.089 -0.4664 -0.8767  0.3239
 6247TIP3   OH218746   0.439   5.695   3.639 -0.5882  0.0253  0.4050
 6247TIP3    H118747   0.465   5.780   3.604 -0.3505 -0.0002  0.5186
 6247TIP3    H218748   0.368   5.714   3.699 -0.3720  0.1718  0.6158
 6248TIP3   OH218749   4.332   1.602   1.321  0.3811  0.1331  0.7411
 6248TIP3    H118750   4.245   1.619   1.285 -0.1357 -0.7841  1.5233
 6248TIP3    H218751   4.334   1.508   1.337  0.9074  0.3754  2.2734
 6249TIP3   OH218752   2.344   1.547   0.203 -0.2387 -0.0414  0.4865
 6249TIP3    H118753   2.366   1.509   0.118 -0.8786  1.2155 -0.2854
 6249TIP3    H218754   2.407   1.619   0.213 -0.3086 -0.0486  0.9752
 6250TIP3   OH218755   4.111   0.940   0.384  0.0406  0.0279 -0.1011
 6250TIP3    H118756   4.114   0.853   0.343  1.9937  0.0675 -0.1190
 6250TIP3    H218757   4.199   0.975   0.373  0.2514  0.6646  2.8048
 6251TIP3   OH218758   4.953   0.279   1.760  0.1275 -0.0022 -0.0548
 6251TIP3    H118759   4.897   0.219   1.710 -1.0592 -0.2508  1.5191
 6251TIP3    H218760   5.021   0.222   1.797 -0.5743 -0.2652  0.8395
 6252TIP3   OH218761   5.259   0.132   3.615 -0.1547  0.1231  0.0757
 6252TIP3    H118762   5.238   0.159   3.525 -0.7090 -0.5654 -0.0068
 6252TIP3    H218763   5.177   0.142   3.662 -0.1587 -0.6381  0.2337
 6253TIP3   OH218764   4.638   1.296   0.265  0.0007  0.4544 -0.2782
 6253TIP3    H118765   4.711   1.345   0.228 -0.1485  0.2792 -0.8104
 6253TIP3    H218766   4.594   1.359   0.322  0.7768  0.4552  0.3472
 6254TIP3   OH218767   4.516   2.931   3.063  0.0157 -0.0267  0.5975
 6254TIP3    H118768   4.497   3.017   3.099  2.3129  0.5299  0.6667
 6254TIP3    H218769   4.549   2.949   2.975 -2.0731 -1.0911 -0.4758
 6255TIP3   OH218770   0.519   4.803   0.501  0.4134  0.3103 -0.1681
 6255TIP3    H118771   0.568   4.884   0.493  0.1261  0.3660 -1.9156
 6255TIP3    H218772   0.427   4.831   0.505  0.3139  0.0917 -0.7754
 6256TIP3   OH218773   4.963   4.360   1.587  0.1128 -0.0789  0.2628
 6256TIP3    H118774   4.942   4.452   1.601 -0.1328 -0.0166 -0.4837
 6256TIP3    H218775   5.055   4.360   1.559  0.4788 -0.1706  1.4016
 6257TIP3   OH218776   3.856   1.723   0.859  0.1103  0.1572 -0.0008
 6257TIP3    H118777   3.809   1.805   0.841  1.2172  0.7629 -0.2594
 6257TIP3    H218778   3.827   1.663   0.791  0.8007  0.9867 -1.0518
 6258TIP3   OH218779   6.133   3.185   3.870 -0.8422  0.2380  0.2752
 6258TIP3    H118780   6.211   3.239   3.852 -0.0234 -0.1603  2.3429
 6258TIP3    H218781   6.152   3.101   3.828 -1.4689  1.0145 -1.6797
 6259TIP3   OH218782   0.032   3.521   2.239  0.0828 -0.6011 -0.4259
 6259TIP3    H118783  -0.021   3.572   2.177  0.9283 -2.2271 -2.6193
 6259TIP3    H218784   0.114   3.569   2.244  0.3260 -0.9050 -1.2886
 6260TIP3   OH218785   5.859   0.331   1.859 -0.1663  0.5264  0.4879
 6260TIP3    H118786   5.902   0.374   1.933 -0.0604 -0.9045  1.2918
 6260TIP3    H218787   5.837   0.244   1.891  0.4196 -0.3587 -1.3493
 6261TIP3   OH218788   1.758   4.616   2.531  0.0389 -0.1864 -0.2380
 6261TIP3    H118789   1.831   4.649   2.479 -0.6444  0.3452 -0.8864
 6261TIP3    H218790   1.791   4.614   2.621  1.5809 -2.0756 -0.7666
 6262TIP3   OH218791   4.324   2.784   3.584  0.2452  0.1550 -0.4370
 6262TIP3    H118792   4.290   2.861   3.539  1.5374  1.0206  0.0316
 6262TIP3    H218793   4.256   2.717   3.571 -0.8052  1.2952 -1.0124
 6263TIP3   OH218794   2.903   5.333   0.430 -0.4921  0.0934  0.6533
 6263TIP3    H118795   2.981   5.347   0.378 -1.3697 -0.4813 -0.8791
 6263TIP3    H218796   2.935   5.293   0.511  1.0348  2.3102  1.2124
 6264TIP3   OH218797   6.137   0.929   0.051 -0.3722 -0.0076  0.1489
 6264TIP3    H118798   6.046   0.900   0.056 -0.2664 -0.1666  1.8553
 6264TIP3    H218799   6.187   0.850   0.030 -0.5375 -0.1140  0.1599
 6265TIP3   OH218800   0.226   0.778   5.069  0.5065 -0.0770  0.0320
 6265TIP3    H118801   0.233   0.793   4.975  0.2784  0.3954  0.0882
 6265TIP3    H218802   0.141   0.736   5.081  0.9760 -1.1068 -0.0805
 6266TIP3   OH218803   0.598   5.594   2.356 -0.6768  0.5740  0.4709
 6266TIP3    H118804   0.657   5.670   2.348 -1.7289  1.4537  0.7680
 6266TIP3    H218805   0.631   5.547   2.432 -0.2039  0.9183  0.4897
 6267TIP3   OH218806   2.074   2.158   3.294 -0.4316  0.5230 -0.5029
 6267TIP3    H118807   2.057   2.153   3.388 -0.3391  0.7566 -0.4728
 6267TIP3    H218808   1.999   2.114   3.254  0.2269 -0.8827 -0.2733
 6268TIP3   OH218809   5.781   2.556   3.335  0.7875 -0.2942 -0.1264
 6268TIP3    H118810   5.870   2.579   3.308  0.9281 -1.1919 -0.4679
 6268TIP3    H218811   5.754   2.628   3.393  2.6043 -1.1005  1.8722
 6269TIP3   OH218812   6.302   4.442   3.292  0.5878 -0.3035 -0.5406
 6269TIP3    H118813   6.280   4.364   3.241  1.2998 -1.1199  0.3683
 6269TIP3    H218814   6.261   4.428   3.377 -0.7034  1.1084 -0.8909
 6270TIP3   OH218815   1.058   1.867   3.802 -0.7596  0.6668 -0.0411
 6270TIP3    H118816   1.104   1.950   3.788 -1.8718  1.3795  0.3717
 6270TIP3    H218817   1.128   1.802   3.812  0.1645  1.7327  0.6790
 6271TIP3   OH218818   2.729   0.970   3.797  0.4788  0.2350 -0.5489
 6271TIP3    H118819   2.710   1.049   3.848  0.3765 -1.2263  1.8388
 6271TIP3    H218820   2.655   0.912   3.815  0.7866 -0.6165 -1.8682
 6272TIP3   OH218821   1.111   4.465   1.645 -0.1687 -0.3182 -0.4608
 6272TIP3    H118822   1.147   4.535   1.701  2.0747 -0.7793 -1.2412
 6272TIP3    H218823   1.021   4.455   1.676 -0.3212  2.3169  0.2534
 6273TIP3   OH218824   3.841   0.289   0.105  0.4422  0.0800  0.1258
 6273TIP3    H118825   3.883   0.352   0.163 -1.5218  1.1136  0.5168
 6273TIP3    H218826   3.875   0.309   0.018  2.3290 -0.5360  0.6841
 6274TIP3   OH218827   5.044   0.178   2.979  0.1011  0.3975  0.7043
 6274TIP3    H118828   5.081   0.266   2.991 -3.3001  1.8120  1.9539
 6274TIP3    H218829   4.967   0.192   2.925 -1.3814 -1.5562  2.1753
 6275TIP3   OH218830   5.398   4.447   3.015 -0.4282 -0.0332 -0.4030
 6275TIP3    H118831   5.472   4.494   2.975  0.0748  1.0243  1.6434
 6275TIP3    H218832   5.324   4.507   3.008 -0.4124  0.0327  0.0020
 6276TIP3   OH218833   2.787   3.412   5.140 -0.6046  0.5844 -0.1419
 6276TIP3    H118834   2.693   3.410   5.156 -1.1682 -3.3059 -2.6790
 6276TIP3    H218835   2.795   3.429   5.046  0.8172 -3.1212 -0.8716
 6277TIP3   OH218836   0.368   3.487   2.824 -0.0693 -0.0649  0.1038
 6277TIP3    H118837   0.306   3.541   2.776 -1.3514 -0.3941  1.3181
 6277TIP3    H218838   0.325   3.469   2.908  1.4819 -0.6786  0.8211
 6278TIP3   OH218839   3.819   5.595   4.717  0.6218 -0.3748 -0.1245
 6278TIP3    H118840   3.797   5.528   4.652 -0.6850 -0.6935  0.5949
 6278TIP3    H218841   3.859   5.665   4.667 -1.6686  0.0292 -1.5531
 6279TIP3   OH218842   2.927   2.678   2.519  0.5104  0.9917  0.4398
 6279TIP3    H118843   2.853   2.638   2.565  0.7901  0.8941  0.8101
 6279TIP3    H218844   2.996   2.612   2.524 -0.5639 -0.6882 -3.3927
 6280TIP3   OH218845   3.917   4.733   5.025 -0.3595 -0.3918  0.3848
 6280TIP3    H118846   3.921   4.664   5.092 -0.7531  0.5397  1.3883
 6280TIP3    H218847   4.003   4.774   5.028 -0.7661  0.4185  1.1593
 6281TIP3   OH218848   3.316   5.251   4.017 -0.0566 -0.0888  0.1653
 6281TIP3    H118849   3.222   5.261   4.030 -0.2154 -0.7735 -0.3599
 6281TIP3    H218850   3.350   5.340   4.018 -0.7790  0.2017 -0.1092
 6282TIP3   OH218851   0.696   3.179   0.181 -0.0711  0.3680  0.2498
 6282TIP3    H118852   0.712   3.105   0.240  0.1697  0.0677 -0.1924
 6282TIP3    H218853   0.655   3.245   0.237 -1.7940 -0.6879  0.3057
 6283TIP3   OH218854   1.805   2.419   0.724 -0.3600  0.3021  0.7687
 6283TIP3    H118855   1.775   2.448   0.810 -0.1416  0.1200  0.9057
 6283TIP3    H218856   1.881   2.474   0.705  0.1140 -0.2439  1.0708
 6284TIP3   OH218857   3.483   1.449   2.039 -0.0489  0.3367 -0.5674
 6284TIP3    H118858   3.471   1.446   1.944  0.0933 -1.1256 -0.5567
 6284TIP3    H218859   3.465   1.360   2.069 -1.5038  1.0787  0.9607
 6285TIP3   OH218860   5.358   0.537   2.848  0.8949  0.1852  0.3233
 6285TIP3    H118861   5.448   0.555   2.823  0.4054  1.7524 -0.4722
 6285TIP3    H218862   5.318   0.624   2.859 -1.1997 -0.3862 -1.8890
 6286TIP3   OH218863   0.400   5.571   2.797 -0.2676  0.2588 -0.2751
 6286TIP3    H118864   0.392   5.514   2.874 -0.9755 -0.6415 -0.9795
 6286TIP3    H218865   0.333   5.638   2.810  0.2403  0.6631  0.3281
 6287TIP3   OH218866   2.628   2.884   0.042  0.1379 -0.2580 -0.0147
 6287TIP3    H118867   2.705   2.879  -0.015 -0.7244  0.7244 -1.3294
 6287TIP3    H218868   2.563   2.828  -0.001 -0.1143 -0.5325  0.7069
 6288TIP3   OH218869   3.055   2.793   3.122 -0.3388 -0.0948 -0.1295
 6288TIP3    H118870   2.995   2.816   3.051  0.6224 -0.2619 -1.0101
 6288TIP3    H218871   3.013   2.719   3.165 -0.9785  0.0678 -0.4596
 6289TIP3   OH218872   0.390   0.087   0.859 -0.1124 -0.1790  0.3345
 6289TIP3    H118873   0.473   0.073   0.905 -0.0577  0.7300  0.5348
 6289TIP3    H218874   0.415   0.103   0.768 -0.2124 -1.8461 -0.0228
 6290TIP3   OH218875   5.697   5.817   4.983 -0.1674 -0.2919 -0.3283
 6290TIP3    H118876   5.616   5.842   4.939  1.0864  2.1451 -1.5198
 6290TIP3    H218877   5.686   5.846   5.073 -1.5658 -2.4279  0.2512
 6291TIP3   OH218878   5.141   1.705   4.398  1.1280 -0.3920  0.1408
 6291TIP3    H118879   5.107   1.794   4.384  1.1768 -0.5213 -0.8752
 6291TIP3    H218880   5.199   1.690   4.324 -1.3841 -2.4840 -1.5992
 6292TIP3   OH218881   5.835   4.935   4.642 -0.5702 -0.1288 -0.1601
 6292TIP3    H118882   5.803   4.934   4.732 -1.7998 -0.0189 -0.5719
 6292TIP3    H218883   5.865   4.845   4.627 -0.8591 -0.2916  0.1970
 6293TIP3   OH218884   0.098   3.044   2.583  0.1153  0.4107  0.1840
 6293TIP3    H118885   0.152   3.070   2.658  1.5879 -1.5254 -0.1365
 6293TIP3    H218886   0.158   3.042   2.509 -0.4278 -1.4584 -0.2688
 6294TIP3   OH218887   1.457   5.752   1.162 -0.3039 -0.3570  0.0881
 6294TIP3    H118888   1.482   5.810   1.234 -0.4117  0.6161 -0.6407
 6294TIP3    H218889   1.539   5.713   1.133 -0.1014  0.1636 -0.0390
 6295TIP3   OH218890   5.934   1.274   4.108  0.3073 -0.0742  0.7602
 6295TIP3    H118891   6.008   1.303   4.161 -0.4307  0.4919  1.5095
 6295TIP3    H218892   5.974   1.227   4.035  1.4635  1.1547  0.5530
 6296TIP3   OH218893   3.387   2.108   3.618  0.2722 -0.6301  0.4021
 6296TIP3    H118894   3.378   2.123   3.524 -0.5453  0.3153  0.6195
 6296TIP3    H218895   3.477   2.133   3.638  0.0834  0.3256  0.0785
 6297TIP3   OH218896   6.214   2.113   2.841  0.0317 -0.1137 -0.5665
 6297TIP3    H118897   6.293   2.084   2.885  0.6109  1.4094 -0.5248
 6297TIP3    H218898   6.163   2.157   2.909 -1.3584 -1.9346 -0.3584
 6298TIP3   OH218899   3.007   4.125   1.187 -0.0772 -0.0086 -0.7175
 6298TIP3    H118900   3.052   4.175   1.255  0.0077 -0.6188 -0.3111
 6298TIP3    H218901   3.040   4.161   1.105  0.0957  0.4928 -0.4348
 6299TIP3   OH218902   0.739   0.499   1.221  0.0914 -0.1870  0.7965
 6299TIP3    H118903   0.646   0.513   1.201  0.1938 -0.5572  0.0291
 6299TIP3    H218904   0.781   0.495   1.135  0.5504 -1.8188  1.0671
 6300TIP3   OH218905   4.241   3.440   3.422  0.5603 -0.0678 -0.1864
 6300TIP3    H118906   4.212   3.460   3.333 -0.4114 -2.2639 -0.4258
 6300TIP3    H218907   4.168   3.392   3.461  0.9141  0.9536  1.8803
 6301TIP3   OH218908   4.509   1.584   0.258  0.1264 -0.0754 -0.3714
 6301TIP3    H118909   4.562   1.659   0.232 -0.0378 -0.1617 -0.9623
 6301TIP3    H218910   4.456   1.616   0.331  1.0353 -0.0094  0.2772
 6302TIP3   OH218911   3.910   1.033   3.460 -0.4921 -0.1187  0.1587
 6302TIP3    H118912   3.911   1.071   3.548 -1.1743 -0.5738  0.3705
 6302TIP3    H218913   3.989   1.067   3.418 -0.0917 -0.0064  0.9912
 6303TIP3   OH218914   0.593   4.180   4.502  0.6796 -0.0032 -0.0333
 6303TIP3    H118915   0.654   4.248   4.531 -0.7598  1.6164 -0.6761
 6303TIP3    H218916   0.535   4.166   4.577  1.3031 -0.9525  0.2901
 6304TIP3   OH218917   3.759   2.295   3.441 -0.5410  0.2914 -0.3320
 6304TIP3    H118918   3.751   2.347   3.361  0.0393  0.4874 -0.2705
 6304TIP3    H218919   3.853   2.277   3.448 -0.8817 -2.6210 -1.5456
 6305TIP3   OH218920   1.471   1.432   2.338  0.1098  0.4165  0.1960
 6305TIP3    H118921   1.452   1.403   2.427 -1.2966  3.7111  1.1203
 6305TIP3    H218922   1.412   1.380   2.283 -0.6401 -0.0742  1.4254
 6306TIP3   OH218923   1.770   4.978   1.611  0.2788 -0.0075  0.4390
 6306TIP3    H118924   1.703   4.981   1.544 -0.0877 -0.7369  0.7520
 6306TIP3    H218925   1.840   5.035   1.579  0.8887 -1.6879 -1.4096
 6307TIP3   OH218926   1.543   3.047   2.650 -0.1322 -0.0636  0.1387
 6307TIP3    H118927   1.498   2.968   2.621 -0.6733  1.0340 -2.2217
 6307TIP3    H218928   1.476   3.098   2.696 -0.8243  0.6751 -1.6340
 6308TIP3   OH218929   4.549   5.225   0.547 -0.3059 -0.2988 -0.7690
 6308TIP3    H118930   4.495   5.235   0.625  0.8391 -1.7550  0.2671
 6308TIP3    H218931   4.531   5.135   0.517  2.1129 -1.1448  0.1111
 6309TIP3   OH218932   5.567   5.367   4.515 -0.7307 -0.5835  0.5957
 6309TIP3    H118933   5.638   5.382   4.451  0.8214 -0.1769  2.3261
 6309TIP3    H218934   5.487   5.390   4.468  0.5321  1.8496 -0.5471
 6310TIP3   OH218935   0.778   1.241   4.637 -0.0341  0.3126 -0.2378
 6310TIP3    H118936   0.722   1.258   4.713  0.5404  0.3016  0.1866
 6310TIP3    H218937   0.795   1.147   4.639 -0.1927  0.2753 -0.5079
 6311TIP3   OH218938   6.084   5.171   2.937 -0.0542 -0.0390 -0.0351
 6311TIP3    H118939   6.166   5.220   2.930 -0.9822  1.4841 -1.0509
 6311TIP3    H218940   6.106   5.083   2.909  1.0450  0.5868 -1.2632
 6312TIP3   OH218941   4.407   4.004   1.199  0.7946  0.2398 -0.1593
 6312TIP3    H118942   4.382   4.001   1.292 -0.7676 -0.5240 -0.5666
 6312TIP3    H218943   4.462   4.082   1.192  0.5099  0.6161  1.3092
 6313TIP3   OH218944   5.249   0.846   5.042 -0.0567  0.0025  0.3910
 6313TIP3    H118945   5.169   0.865   4.993  0.4685 -0.2604 -0.5731
 6313TIP3    H218946   5.219   0.793   5.116 -0.8352  0.3414  0.3328
 6314TIP3   OH218947   2.658   1.481   0.639 -0.0716 -0.0008 -0.3255
 6314TIP3    H118948   2.691   1.490   0.728 -0.8768 -2.8294  0.3678
 6314TIP3    H218949   2.570   1.445   0.650  0.8068 -3.0690 -2.2234
 6315TIP3   OH218950   4.869   0.117   3.643  0.0242 -0.4919  0.4709
 6315TIP3    H118951   4.861   0.107   3.738  1.7589  0.5719  0.7705
 6315TIP3    H218952   4.876   0.027   3.611  0.6769 -0.8361  1.5033
 6316TIP3   OH218953   3.216   5.565   0.597 -0.7506 -0.4342 -0.2090
 6316TIP3    H118954   3.231   5.650   0.556 -0.5035  0.5974  1.9172
 6316TIP3    H218955   3.127   5.571   0.633 -1.1648 -1.5133 -0.9786
 6317TIP3   OH218956   5.962   3.456   3.140 -0.0228 -0.2405  0.1458
 6317TIP3    H118957   6.037   3.497   3.182  0.6821  0.4662 -1.6984
 6317TIP3    H218958   5.907   3.530   3.112 -0.7830 -0.7096  0.3677
 6318TIP3   OH218959   5.781   2.883   3.904 -0.2484  0.4269  0.5129
 6318TIP3    H118960   5.778   2.958   3.964 -0.2463  1.0618 -0.2659
 6318TIP3    H218961   5.792   2.807   3.961 -1.3161  0.9114  1.3931
 6319TIP3   OH218962   2.603   0.583   3.947  0.6107  0.5460  0.4461
 6319TIP3    H118963   2.683   0.545   3.982  1.6052  0.2650 -1.9834
 6319TIP3    H218964   2.537   0.515   3.958  1.5962 -0.6695 -0.8507
 6320TIP3   OH218965   4.968   0.871   4.409 -0.0832  0.0161  0.0490
 6320TIP3    H118966   4.938   0.787   4.377 -1.4653  0.2400  0.6459
 6320TIP3    H218967   5.033   0.900   4.346  0.4109 -1.4841 -0.1619
 6321TIP3   OH218968   2.612   2.479   3.735  0.2177  0.5976 -0.4613
 6321TIP3    H118969   2.529   2.495   3.780 -1.3694 -1.2054 -2.5480
 6321TIP3    H218970   2.632   2.562   3.692  0.1039  1.3627  0.9057
 6322TIP3   OH218971   6.049   5.032   3.927  0.8695  0.0335  0.0148
 6322TIP3    H118972   6.035   5.115   3.882 -0.5605  0.1883  0.7212
 6322TIP3    H218973   6.144   5.029   3.943  0.7584  2.3243  1.5054
 6323TIP3   OH218974   1.111   4.638   3.956  0.9458 -0.3078 -0.3343
 6323TIP3    H118975   1.021   4.660   3.982  1.0054 -0.3901 -0.0481
 6323TIP3    H218976   1.101   4.587   3.876  0.7093 -0.7211 -0.0449
 6324TIP3   OH218977   1.169   1.995   2.508 -0.3178  0.4199  0.6465
 6324TIP3    H118978   1.090   1.956   2.546 -0.0589 -0.2999  0.4494
 6324TIP3    H218979   1.239   1.933   2.529 -0.1392  0.0777 -0.8715
 6325TIP3   OH218980   5.113   1.932   3.535  0.7817 -0.0068  0.4973
 6325TIP3    H118981   5.031   1.884   3.548  1.6304 -2.0796 -1.1704
 6325TIP3    H218982   5.178   1.885   3.587  1.0224  1.5032  1.6533
 6326TIP3   OH218983   4.095   0.996   1.315  0.2330 -0.8845 -0.2933
 6326TIP3    H118984   4.077   0.998   1.409 -1.4157 -1.6445 -0.5616
 6326TIP3    H218985   4.108   1.088   1.291 -0.0234 -0.6191  0.5373
 6327TIP3   OH218986   5.771   5.842   0.565  0.4486 -0.1106  0.5821
 6327TIP3    H118987   5.792   5.822   0.656 -0.3169 -0.3299  0.7125
 6327TIP3    H218988   5.843   5.899   0.536  0.6515  0.0298  1.3442
 6328TIP3   OH218989   4.972   5.138   3.475  0.4532  0.6803 -0.2171
 6328TIP3    H118990   4.975   5.120   3.381  1.9924 -0.4946  0.0165
 6328TIP3    H218991   5.040   5.204   3.489  1.4915 -0.4608  0.2967
 6329TIP3   OH218992   3.652   3.493   1.414  0.4022 -0.3811 -0.4932
 6329TIP3    H118993   3.712   3.492   1.488  2.2460  3.7664 -1.6927
 6329TIP3    H218994   3.573   3.536   1.448  0.6395  0.0898 -0.5337
 6330TIP3   OH218995   2.894   5.737   2.309 -0.0115  0.4859  0.2364
 6330TIP3    H118996   2.895   5.658   2.364 -1.1307 -0.2331 -0.7170
 6330TIP3    H218997   2.896   5.810   2.371 -0.1973 -0.2961  1.1871
 6331TIP3   OH218998   4.940   3.013   1.820 -0.2883 -0.6163  0.2928
 6331TIP3    H118999   5.004   3.082   1.805 -0.3594  0.1113  3.0024
 6331TIP3    H219000   4.924   2.977   1.732  0.3510  2.2042 -1.0998
 6332TIP3   OH219001   4.772   2.039   3.757  0.3110  0.0075 -0.6187
 6332TIP3    H119002   4.763   2.125   3.798  1.1895  0.3336 -1.1038
 6332TIP3    H219003   4.812   1.985   3.825  1.6506  0.5156 -0.9774
 6333TIP3   OH219004   6.066   5.239   1.056  0.1066  0.0850  0.0648
 6333TIP3    H119005   5.994   5.187   1.020 -0.6052  0.3316  1.1131
 6333TIP3    H219006   6.087   5.301   0.986 -1.6382  0.9235  0.2264
 6334TIP3   OH219007   4.594   0.579   1.822 -0.1670  0.2996 -0.1120
 6334TIP3    H119008   4.619   0.614   1.908 -0.3335  1.0686 -0.3767
 6334TIP3    H219009   4.585   0.485   1.837 -1.1647  0.5524  0.9477
 6335TIP3   OH219010   1.745   2.502   4.819 -0.7230 -1.0024 -0.1448
 6335TIP3    H119011   1.725   2.562   4.747 -0.7903 -0.3019  0.4580
 6335TIP3    H219012   1.663   2.494   4.867 -0.4550 -0.7936  0.3518
 6336TIP3   OH219013   4.576   5.478   2.569  0.6649 -0.2779  0.1087
 6336TIP3    H119014   4.498   5.475   2.624  0.6830 -1.6315  0.0936
 6336TIP3    H219015   4.544   5.464   2.480  1.0616 -2.7132  0.2881
 6337TIP3   OH219016   4.087   2.721   3.781  0.6380 -0.2297 -0.0290
 6337TIP3    H119017   4.088   2.712   3.686 -0.9276 -0.2688 -0.0714
 6337TIP3    H219018   4.005   2.680   3.808  0.9687 -0.0549  1.3239
 6338TIP3   OH219019   1.501   1.253   4.023  0.4885  0.4733  0.2763
 6338TIP3    H119020   1.544   1.236   3.939 -0.5426 -0.6985 -0.0419
 6338TIP3    H219021   1.490   1.348   4.025 -0.2656  0.4549 -1.3430
 6339TIP3   OH219022   2.590   0.199   2.869 -0.1647 -0.0053  0.1899
 6339TIP3    H119023   2.576   0.163   2.957  1.4974  0.5730  0.7164
 6339TIP3    H219024   2.585   0.294   2.881  0.0583  0.0748 -0.3576
 6340TIP3   OH219025   1.091   3.234   4.504  0.3993 -0.5705  0.9920
 6340TIP3    H119026   1.030   3.161   4.515 -0.4013  0.0928  1.0969
 6340TIP3    H219027   1.060   3.279   4.426  0.0909  0.3854  1.6429
 6341TIP3   OH219028   2.175   0.816   3.583 -0.3232 -0.0343  0.1414
 6341TIP3    H119029   2.112   0.835   3.653 -0.1679 -0.7929  0.5034
 6341TIP3    H219030   2.175   0.894   3.528 -2.6752 -0.5293 -0.7012
 6342TIP3   OH219031   5.280   3.465   2.720 -0.5508  0.5267  0.4184
 6342TIP3    H119032   5.198   3.476   2.769 -0.1134 -0.3714  1.3722
 6342TIP3    H219033   5.348   3.460   2.787  0.2797  1.0439 -0.3574
 6343TIP3   OH219034   5.642   0.805   3.712 -0.4356 -0.0173  0.2623
 6343TIP3    H119035   5.707   0.748   3.670  1.4233  1.6133  0.7717
 6343TIP3    H219036   5.632   0.879   3.652 -1.0536  0.2477  0.6782
 6344TIP3   OH219037   3.479   3.700   1.793  0.1023 -0.2566  0.0087
 6344TIP3    H119038   3.475   3.680   1.700  0.4373  0.9973 -0.2939
 6344TIP3    H219039   3.401   3.659   1.830  0.6369 -1.9047 -0.5719
 6345TIP3   OH219040   4.267   5.435   5.092 -0.5054 -0.0111  0.0959
 6345TIP3    H119041   4.282   5.460   5.183  1.2078 -1.2137  0.1924
 6345TIP3    H219042   4.354   5.438   5.052 -0.7712 -2.1728 -0.7815
 6346TIP3   OH219043   1.366   4.447   3.230  0.2845  0.0079  0.0789
 6346TIP3    H119044   1.344   4.540   3.224 -0.8810 -0.2796 -0.2650
 6346TIP3    H219045   1.306   4.412   3.295  1.4022 -0.3241  0.9667
 6347TIP3   OH219046   0.536   5.942   2.462  0.0980 -0.0479  0.3105
 6347TIP3    H119047   0.525   5.869   2.523  0.4550  1.4939  2.3597
 6347TIP3    H219048   0.568   6.014   2.517  2.1539  0.9769 -2.0329
 6348TIP3   OH219049   4.168   4.564   4.644  0.0872  0.0247 -0.7014
 6348TIP3    H119050   4.097   4.538   4.703  1.1096 -1.8735 -0.1917
 6348TIP3    H219051   4.211   4.637   4.689 -0.9416  0.5393 -0.5401
 6349TIP3   OH219052   5.631   0.398   4.192 -0.3708  0.0322 -0.3152
 6349TIP3    H119053   5.559   0.376   4.251  1.7659 -0.8193  2.1811
 6349TIP3    H219054   5.653   0.316   4.149 -0.4081  0.1284 -0.5200
 6350TIP3   OH219055   1.916   0.243   4.864 -0.0653  0.2982  0.2333
 6350TIP3    H119056   1.839   0.188   4.875 -0.3806  0.7265  0.1937
 6350TIP3    H219057   1.893   0.303   4.794 -0.5071  1.8130  1.6065
 6351TIP3   OH219058   3.782   5.781   3.893  0.4854  0.0194 -0.9059
 6351TIP3    H119059   3.829   5.828   3.961  0.7817  0.8073 -1.6346
 6351TIP3    H219060   3.715   5.842   3.863 -2.3549 -1.6977  1.3909
 6352TIP3   OH219061   1.984   5.451   1.817 -0.6036  0.0901  0.1151
 6352TIP3    H119062   2.066   5.418   1.779  0.2628  1.8290  0.3661
 6352TIP3    H219063   2.002   5.453   1.911 -1.8582 -1.8313  0.4652
 6353TIP3   OH219064   0.086   4.343   1.932  0.3782 -0.1121 -0.1450
 6353TIP3    H119065   0.006   4.292   1.917 -0.7815  1.1885  1.3301
 6353TIP3    H219066   0.090   4.403   1.858 -1.7363  1.8614  1.2205
 6354TIP3   OH219067   2.698   1.653   1.310  0.2254  0.0141 -0.3230
 6354TIP3    H119068   2.728   1.736   1.346  0.0793 -0.3740  0.7247
 6354TIP3    H219069   2.776   1.614   1.271  0.4574  0.2948 -0.1394
 6355TIP3   OH219070   1.716   0.476   1.371  0.2687  0.1180  0.2840
 6355TIP3    H119071   1.638   0.444   1.416  0.0567  0.3854  0.1114
 6355TIP3    H219072   1.720   0.569   1.395  0.6345  0.0648  0.4376
 6356TIP3   OH219073   4.300   2.539   4.332  0.2947 -0.0963  0.0509
 6356TIP3    H119074   4.260   2.484   4.399  1.1473 -1.5672 -0.6030
 6356TIP3    H219075   4.357   2.480   4.283 -2.4855  0.1014 -3.9002
 6357TIP3   OH219076   2.496   1.569   2.570 -0.1584  0.3391 -0.5219
 6357TIP3    H119077   2.589   1.569   2.550  0.1000  0.4628  0.5872
 6357TIP3    H219078   2.492   1.562   2.666 -1.3183 -2.3153 -0.6687
 6358TIP3   OH219079   1.186   3.809   1.901  0.0703 -0.2109 -0.1542
 6358TIP3    H119080   1.159   3.747   1.833 -2.4681 -0.1386  0.6626
 6358TIP3    H219081   1.173   3.895   1.862  1.8541 -0.1332 -0.6653
 6359TIP3   OH219082   0.545   0.605   4.721  0.3278  0.0284 -0.2393
 6359TIP3    H119083   0.526   0.687   4.675  0.9020  0.2857 -0.0247
 6359TIP3    H219084   0.500   0.538   4.669  3.1553 -0.0918 -2.8492
 6360TIP3   OH219085   1.261   4.728   0.447  0.3650 -0.4032  0.4905
 6360TIP3    H119086   1.291   4.819   0.452 -0.0665 -0.2290 -0.0140
 6360TIP3    H219087   1.237   4.715   0.355 -0.5583 -0.7096  0.7606
 6361TIP3   OH219088   4.511   1.077   3.622 -0.0130  0.7252 -0.8691
 6361TIP3    H119089   4.518   1.127   3.540 -0.1489  2.7836  0.3018
 6361TIP3    H219090   4.558   1.130   3.686 -2.6887  0.8923  1.1145
 6362TIP3   OH219091   2.050   3.819   0.953 -0.3685 -0.3402  0.5442
 6362TIP3    H119092   2.105   3.832   1.030  0.0267  0.1714  0.1813
 6362TIP3    H219093   1.971   3.871   0.971  0.0722  0.4494  0.2593
 6363TIP3   OH219094   3.849   4.116   3.414  0.3803  0.3019 -0.5835
 6363TIP3    H119095   3.913   4.049   3.436 -1.4924 -2.0883 -1.8998
 6363TIP3    H219096   3.819   4.150   3.498  1.2871 -0.6158  0.1265
 6364TIP3   OH219097   4.896   2.877   3.345 -0.4691 -0.0564 -0.4253
 6364TIP3    H119098   4.864   2.807   3.288 -1.1097 -0.0378 -0.0911
 6364TIP3    H219099   4.823   2.938   3.352 -0.9232 -0.7572  1.5425
 6365TIP3   OH219100   5.689   3.396   2.739 -0.1629 -0.2804 -0.2342
 6365TIP3    H119101   5.642   3.464   2.691 -0.5539 -1.4738 -1.6436
 6365TIP3    H219102   5.661   3.314   2.697  0.7765 -1.2631  0.9770
 6366TIP3   OH219103   3.010   5.105   2.178 -0.2494  0.2474  0.1702
 6366TIP3    H119104   3.058   5.046   2.236 -2.7510  1.0314  3.3309
 6366TIP3    H219105   2.945   5.049   2.135 -0.4251  0.1210  0.5899
 6367TIP3   OH219106   5.222   1.560   1.748  0.2167 -0.2619  0.3317
 6367TIP3    H119107   5.144   1.569   1.692  0.8280  0.2206 -0.4677
 6367TIP3    H219108   5.277   1.496   1.703  0.1943 -0.7661  1.0092
 6368TIP3   OH219109   4.178   2.645   0.417 -0.3554 -0.2843 -0.7992
 6368TIP3    H119110   4.212   2.725   0.377 -1.9511  1.6474  1.4501
 6368TIP3    H219111   4.253   2.607   0.463 -0.2251  1.7354  0.7855
 6369TIP3   OH219112   3.085   0.575   2.842  0.2152 -0.3013  0.3723
 6369TIP3    H119113   3.180   0.581   2.832  0.2195 -0.8603  0.0034
 6369TIP3    H219114   3.069   0.597   2.934  0.5378  1.3761  0.0564
 6370TIP3   OH219115   3.138   0.470   0.479  0.1133  0.2570  0.3367
 6370TIP3    H119116   3.133   0.441   0.570 -1.7804  0.2657  0.2686
 6370TIP3    H219117   3.148   0.389   0.429  0.5865  0.2088  0.5011
 6371TIP3   OH219118   2.534   0.563   1.274 -0.1988  0.1935 -0.0759
 6371TIP3    H119119   2.526   0.488   1.332  3.8589 -2.1168 -2.0244
 6371TIP3    H219120   2.564   0.634   1.330  2.4066 -1.6220  1.0500
 6372TIP3   OH219121   2.813   1.681   4.126 -0.5393  0.1603 -0.1451
 6372TIP3    H119122   2.879   1.698   4.194  0.6273 -0.7625 -1.0161
 6372TIP3    H219123   2.827   1.750   4.061 -0.1732 -0.2627 -0.5166
 6373TIP3   OH219124   5.395   3.492   4.793  0.7445  0.0177  0.5154
 6373TIP3    H119125   5.459   3.471   4.725  1.3491 -3.7292  2.0172
 6373TIP3    H219126   5.448   3.516   4.869  0.1976  0.7388  0.6788
 6374TIP3   OH219127   0.990   0.881   3.011  0.0748 -0.5156 -0.2933
 6374TIP3    H119128   0.944   0.964   2.999  1.0283  0.0472 -0.1784
 6374TIP3    H219129   1.040   0.893   3.092  1.2938 -0.6790 -1.0037
 6375TIP3   OH219130   4.223   0.991   2.124 -0.1043  0.3628 -0.1419
 6375TIP3    H119131   4.247   1.079   2.154 -2.9434  1.1771  0.0115
 6375TIP3    H219132   4.179   1.006   2.040 -0.8266 -0.8884  0.0036
 6376TIP3   OH219133   6.002   4.372   2.617  0.3304 -0.4424  0.0969
 6376TIP3    H119134   6.049   4.437   2.668  1.3150 -1.5256  0.6305
 6376TIP3    H219135   5.958   4.317   2.682 -0.6432 -0.2241 -0.3504
 6377TIP3   OH219136   6.037   5.174   3.530  0.0622  0.8177 -0.5463
 6377TIP3    H119137   6.058   5.258   3.489  1.1340  0.0214 -1.6812
 6377TIP3    H219138   5.993   5.124   3.461 -0.6586  0.4738  0.1538
 6378TIP3   OH219139   6.336   5.161   3.639 -0.8157  0.4497 -0.3929
 6378TIP3    H119140   6.293   5.240   3.606 -1.6515 -0.1811 -0.8517
 6378TIP3    H219141   6.307   5.091   3.581 -0.6362 -0.3191  0.4154
 6379TIP3   OH219142   2.574   1.900   3.459  0.3816  0.8113  0.0912
 6379TIP3    H119143   2.483   1.929   3.458  0.6155  1.5717 -1.0665
 6379TIP3    H219144   2.599   1.902   3.551 -0.3761  1.8921  0.2935
 6380TIP3   OH219145   0.245   5.345   1.440 -0.2469 -0.4419  0.4938
 6380TIP3    H119146   0.326   5.380   1.402 -0.1024 -0.0872  1.1125
 6380TIP3    H219147   0.181   5.352   1.369 -0.0901  0.6071  0.4334
 6381TIP3   OH219148   4.238   5.364   1.853  0.0870  0.3424  0.2656
 6381TIP3    H119149   4.289   5.436   1.815 -0.2457 -0.0905 -1.0532
 6381TIP3    H219150   4.259   5.289   1.797  0.2599 -0.5384  1.4915
 6382TIP3   OH219151   4.243   5.396   0.197  0.2856  0.8844  0.1862
 6382TIP3    H119152   4.238   5.487   0.168  1.3851  1.1714  0.8499
 6382TIP3    H219153   4.281   5.400   0.285  1.1331 -0.2466 -0.0947
 6383TIP3   OH219154   5.905   0.204   3.858  0.4304 -0.0285 -0.2672
 6383TIP3    H119155   5.875   0.199   3.768 -0.4926 -0.1027  0.0370
 6383TIP3    H219156   5.891   0.296   3.883 -0.1585 -0.2088  0.0809
 6384TIP3   OH219157   6.174   5.465   4.328  0.2496  0.6588  0.2392
 6384TIP3    H119158   6.224   5.395   4.287 -0.1821 -0.1238  1.0334
 6384TIP3    H219159   6.241   5.527   4.357  0.7643 -0.2631  1.0816
 6385TIP3   OH219160   1.650   4.212   0.902 -0.2266  0.5934 -0.1097
 6385TIP3    H119161   1.581   4.270   0.869  0.9563  0.7925 -2.3498
 6385TIP3    H219162   1.666   4.150   0.831 -0.5813 -1.7928  1.7393
 6386TIP3   OH219163   3.662   4.549   4.505  0.8903  0.2476  0.4614
 6386TIP3    H119164   3.616   4.631   4.486 -1.3544 -1.6659 -3.5195
 6386TIP3    H219165   3.647   4.534   4.599 -1.8735  2.5311  0.4860
 6387TIP3   OH219166   3.037   0.669   1.700 -0.0667 -0.3880  0.1699
 6387TIP3    H119167   2.989   0.588   1.685 -0.7887  0.0534  0.0527
 6387TIP3    H219168   2.997   0.732   1.640 -1.1329  0.6872  1.9506
 6388TIP3   OH219169   0.278   0.378   2.720 -0.2872  0.4485  0.1953
 6388TIP3    H119170   0.320   0.459   2.691 -0.7553  1.0401  1.1113
 6388TIP3    H219171   0.253   0.333   2.640 -0.7678  1.6148 -0.3233
 6389TIP3   OH219172   5.012   2.614   2.135  0.4704 -0.2631  0.5771
 6389TIP3    H119173   4.921   2.640   2.144 -0.0500 -0.7952 -2.1971
 6389TIP3    H219174   5.031   2.565   2.215 -1.9936 -0.9704  0.8159
 6390TIP3   OH219175   2.230   0.347   1.172  0.0703 -0.3918 -0.2224
 6390TIP3    H119176   2.143   0.344   1.131  0.4806  0.4016 -1.1948
 6390TIP3    H219177   2.248   0.256   1.195 -0.2932 -0.8552 -1.6283
 6391TIP3   OH219178   3.808   2.309   1.858  0.3502 -0.4584 -0.2063
 6391TIP3    H119179   3.863   2.372   1.905  0.7519 -0.4496 -0.6776
 6391TIP3    H219180   3.831   2.224   1.896 -0.8767 -0.2437  1.0896
 6392TIP3   OH219181   0.343   2.472   4.266 -0.3772 -0.2235 -0.7438
 6392TIP3    H119182   0.311   2.487   4.178 -1.0382 -0.7429 -0.5969
 6392TIP3    H219183   0.412   2.406   4.256  1.0038  1.1905 -1.1106
 6393TIP3   OH219184   1.774   2.105   3.559  0.1540  0.0607 -0.0920
 6393TIP3    H119185   1.681   2.110   3.580  0.4771 -2.9693  2.9299
 6393TIP3    H219186   1.816   2.153   3.631  0.9689 -1.1581  0.2752
 6394TIP3   OH219187   4.751   1.235   2.330 -0.2013 -0.1902  0.6586
 6394TIP3    H119188   4.729   1.325   2.305 -0.8587 -0.5637 -0.1730
 6394TIP3    H219189   4.843   1.225   2.302 -0.7386 -0.4071 -1.1939
 6395TIP3   OH219190   2.134   3.791   0.216  0.1185  0.2351  0.3554
 6395TIP3    H119191   2.076   3.822   0.286 -1.5461  0.2128 -0.9420
 6395TIP3    H219192   2.190   3.726   0.258  0.0778  1.1895  1.9521
 6396TIP3   OH219193   3.567   4.612   0.637 -0.1292  0.0571 -0.1516
 6396TIP3    H119194   3.654   4.606   0.599 -0.3032 -2.2863 -0.2974
 6396TIP3    H219195   3.548   4.524   0.669 -1.8384  0.8738  1.2697
 6397TIP3   OH219196   0.833   3.590   4.185 -0.1978  0.1220  0.1073
 6397TIP3    H119197   0.799   3.593   4.275 -1.9224 -0.2513 -0.5059
 6397TIP3    H219198   0.792   3.664   4.141 -1.6231 -1.3263 -1.1078
 6398TIP3   OH219199   2.236   1.788   1.370 -0.4937  0.1586 -0.1305
 6398TIP3    H119200   2.310   1.727   1.363 -1.7910 -1.4458 -0.5490
 6398TIP3    H219201   2.276   1.875   1.363  1.2187 -0.6689 -1.6023
 6399TIP3   OH219202   1.371   3.943   2.485 -0.1234  0.1125 -0.1439
 6399TIP3    H119203   1.305   3.994   2.438 -0.9065 -0.8259 -0.0792
 6399TIP3    H219204   1.346   3.852   2.470  0.5181 -0.2311  0.8122
 6400TIP3   OH219205   0.840   3.500   4.442  0.5082 -0.1896 -0.1353
 6400TIP3    H119206   0.823   3.469   4.531  2.0309  0.9601  0.6030
 6400TIP3    H219207   0.807   3.430   4.385 -0.9318 -0.7357  1.2949
 6401TIP3   OH219208   1.484   5.484   3.474  0.2924  0.1005 -0.1168
 6401TIP3    H119209   1.491   5.564   3.421  0.1944  0.7245  0.7853
 6401TIP3    H219210   1.487   5.413   3.410  1.8011  0.7652 -0.8493
 6402TIP3   OH219211   0.910   1.284   3.895  0.4698 -0.1631 -0.2973
 6402TIP3    H119212   0.921   1.209   3.954  0.8785 -0.0743 -0.2577
 6402TIP3    H219213   0.889   1.357   3.953  2.7544  0.3556 -0.0364
 6403TIP3   OH219214   5.998   4.793   2.543 -0.2367 -0.4455 -0.9541
 6403TIP3    H119215   5.926   4.853   2.563  0.4804 -0.0807  0.6437
 6403TIP3    H219216   6.068   4.850   2.512  0.3957 -0.4592  0.4232
 6404TIP3   OH219217   6.147   1.490   1.027 -0.0840  0.6365  0.1459
 6404TIP3    H119218   6.212   1.430   0.992  0.5365  0.8279  0.9570
 6404TIP3    H219219   6.127   1.550   0.954 -2.1239 -1.6397 -1.3306
 6405TIP3   OH219220   0.177   1.953   4.047  0.2222 -0.0090  0.0210
 6405TIP3    H119221   0.225   2.025   4.006 -0.7469 -0.2101 -1.5646
 6405TIP3    H219222   0.097   1.944   3.995 -0.0506 -1.7416  0.6426
 6406TIP3   OH219223   5.630   2.147   5.110  0.2205  0.4243  0.1421
 6406TIP3    H119224   5.722   2.120   5.107  0.3398  0.8659 -0.4650
 6406TIP3    H219225   5.605   2.138   5.202  1.5357  2.4325  0.7506
 6407TIP3   OH219226   3.822   2.809   2.939  0.0078  0.6307 -0.2560
 6407TIP3    H119227   3.831   2.898   2.973 -3.5522  0.0948  2.7403
 6407TIP3    H219228   3.858   2.754   3.008 -1.4289 -0.3372 -0.2518
 6408TIP3   OH219229   0.192   2.087   1.823  0.0615  0.3374  0.8727
 6408TIP3    H119230   0.269   2.099   1.878  0.4639 -0.5926  0.5184
 6408TIP3    H219231   0.225   2.048   1.743 -0.6222  1.0115  0.2409
 6409TIP3   OH219232   5.972   2.451   2.383 -0.9498 -0.6022  0.5643
 6409TIP3    H119233   5.974   2.463   2.478 -2.0728  0.0914  0.5151
 6409TIP3    H219234   6.014   2.530   2.349  0.1295 -1.1847  0.4790
 6410TIP3   OH219235   0.533   3.124   1.968 -0.1927 -0.6837 -0.5165
 6410TIP3    H119236   0.565   3.085   1.887  0.9637 -0.9495  0.0489
 6410TIP3    H219237   0.439   3.138   1.953  0.0130 -0.6936 -1.9010
 6411TIP3   OH219238   1.169   4.663   4.268  0.4357  0.1777  0.1879
 6411TIP3    H119239   1.240   4.619   4.223  1.5336  2.2770 -0.2887
 6411TIP3    H219240   1.170   4.752   4.232 -1.2649  0.7867  1.4939
 6412TIP3   OH219241   5.651   1.588   4.921  1.0485 -0.2379  0.5666
 6412TIP3    H119242   5.695   1.671   4.942 -0.1143  0.7738 -0.8256
 6412TIP3    H219243   5.567   1.614   4.884  0.6207 -2.0650  0.1549
 6413TIP3   OH219244   0.727   3.025   4.239  0.3624 -0.5951  0.5953
 6413TIP3    H119245   0.650   3.079   4.228  0.6975 -0.1040  0.6172
 6413TIP3    H219246   0.726   2.964   4.165  1.7262  1.5892 -1.3548
 6414TIP3   OH219247   2.480   3.977   1.749 -0.6045  0.2346 -0.2697
 6414TIP3    H119248   2.406   3.978   1.810 -0.3178  2.1030  0.1318
 6414TIP3    H219249   2.449   4.029   1.674  0.1870  0.8326 -0.1975
 6415TIP3   OH219250   2.303   3.300   1.170  0.2313  0.2227 -0.0881
 6415TIP3    H119251   2.375   3.268   1.226  0.2030  0.0931 -0.1260
 6415TIP3    H219252   2.347   3.345   1.098  0.2647  0.5421  0.1313
 6416TIP3   OH219253   6.348   4.769   2.149 -0.6515 -0.3040  0.5408
 6416TIP3    H119254   6.283   4.832   2.120 -0.8006 -0.4764  0.4978
 6416TIP3    H219255   6.388   4.809   2.227  0.0672  0.3617 -0.1531
 6417TIP3   OH219256   0.572   3.288   2.911 -0.3294 -0.0127  0.4240
 6417TIP3    H119257   0.494   3.343   2.898  0.6265  1.7502  1.6821
 6417TIP3    H219258   0.550   3.233   2.987 -0.2765  0.6897  0.9619
 6418TIP3   OH219259   5.640   2.326   0.363  0.0488  0.2619  0.3022
 6418TIP3    H119260   5.549   2.300   0.350  0.3803 -0.0174 -1.6742
 6418TIP3    H219261   5.637   2.422   0.365 -0.2416  0.2675 -0.2179
 6419TIP3   OH219262   0.040   0.887   3.883  0.7379  0.1319 -0.0811
 6419TIP3    H119263   0.087   0.814   3.843  0.9211 -0.4485  1.1610
 6419TIP3    H219264  -0.005   0.929   3.809  0.2856 -1.4778 -0.7788
 6420TIP3   OH219265   4.056   4.967   4.148  0.2744  0.4485  0.0888
 6420TIP3    H119266   3.973   4.920   4.151 -0.7635  2.2272  0.9407
 6420TIP3    H219267   4.123   4.899   4.159 -1.0614 -0.9901 -0.4108
 6421TIP3   OH219268   2.389   0.572   4.830 -0.3616  0.1233  0.0969
 6421TIP3    H119269   2.327   0.598   4.897 -0.1789  0.9387 -0.0377
 6421TIP3    H219270   2.418   0.655   4.791  2.8215  0.0404  1.9524
 6422TIP3   OH219271   6.202   2.072   5.039 -0.1719  0.1376  0.0094
 6422TIP3    H119272   6.214   2.094   4.947 -1.3186  0.1556 -0.1494
 6422TIP3    H219273   6.252   2.139   5.087  0.7081 -0.0723 -0.5910
 6423TIP3   OH219274   4.197   5.616   1.652  0.6752 -0.1233 -0.0267
 6423TIP3    H119275   4.158   5.623   1.740  2.4884 -2.2600  1.0588
 6423TIP3    H219276   4.257   5.690   1.646  0.0115  0.4525  0.2047
 6424TIP3   OH219277   0.239   2.808   0.873  0.0965 -0.0038 -0.1567
 6424TIP3    H119278   0.159   2.851   0.841  0.8033  2.0141  0.6077
 6424TIP3    H219279   0.243   2.831   0.966  1.3659 -0.3781 -0.0998
 6425TIP3   OH219280   2.906   4.843   4.720 -0.1153  0.5141  0.2963
 6425TIP3    H119281   2.950   4.760   4.699  0.7817  0.7626  1.1210
 6425TIP3    H219282   2.907   4.892   4.638 -1.9477 -0.8286 -0.6065
 6426TIP3   OH219283   4.333   0.484   0.799 -0.5333 -0.1309  0.5213
 6426TIP3    H119284   4.408   0.536   0.770 -0.1721 -0.2015  1.2850
 6426TIP3    H219285   4.305   0.527   0.880 -2.4693  0.9924 -0.6628
 6427TIP3   OH219286   6.189   5.949   4.528  0.1417  0.2526  0.6730
 6427TIP3    H119287   6.188   5.920   4.437 -1.5191  2.4353 -0.1066
 6427TIP3    H219288   6.119   5.899   4.570 -2.3536  2.4334 -0.5295
 6428TIP3   OH219289   3.731   2.203   4.573 -0.1363  0.3443  0.0748
 6428TIP3    H119290   3.676   2.281   4.575  0.3045  0.7435 -1.7916
 6428TIP3    H219291   3.697   2.148   4.644 -1.5483  1.4908  0.3378
 6429TIP3   OH219292   0.695   5.792   4.898  0.5472 -0.4485  0.0886
 6429TIP3    H119293   0.684   5.876   4.944 -0.3112 -0.7695  0.4946
 6429TIP3    H219294   0.765   5.809   4.835  1.1469  0.2642  0.9070
 6430TIP3   OH219295   5.231   1.151   1.867  0.5629  1.0701  0.0397
 6430TIP3    H119296   5.263   1.217   1.807 -0.5686  0.9781 -0.7076
 6430TIP3    H219297   5.142   1.180   1.889  0.0074 -0.2260 -0.3899
 6431TIP3   OH219298   0.479   5.304   2.350 -0.0645  0.3607 -0.4815
 6431TIP3    H119299   0.537   5.296   2.274  0.7631  3.4549 -0.3453
 6431TIP3    H219300   0.537   5.335   2.421 -0.9144 -1.9066  1.3418
 6432TIP3   OH219301   2.392   3.529   2.612  0.0443 -0.7752 -0.0939
 6432TIP3    H119302   2.393   3.440   2.577  0.3235 -0.6854 -0.3158
 6432TIP3    H219303   2.483   3.549   2.632  0.0498 -0.3624 -0.5006
 6433TIP3   OH219304   4.787   5.607   2.330 -0.2531 -0.0390 -0.2537
 6433TIP3    H119305   4.778   5.536   2.266 -0.7945 -1.7034  1.5790
 6433TIP3    H219306   4.726   5.583   2.400  2.0151  0.4466  1.9828
 6434TIP3   OH219307   3.627   5.429   2.725  0.1035 -0.5729 -0.2703
 6434TIP3    H119308   3.670   5.449   2.808 -1.1448 -1.4068  0.6228
 6434TIP3    H219309   3.633   5.333   2.718 -0.3155 -0.5590 -0.8438
 6435TIP3   OH219310   3.387   5.114   3.444  0.1238 -0.3594 -0.0309
 6435TIP3    H119311   3.359   5.024   3.426 -1.1900 -0.1021  0.5668
 6435TIP3    H219312   3.376   5.124   3.539  1.5756  0.0232  0.1228
 6436TIP3   OH219313   4.925   4.160   0.508  0.7632 -0.5165 -0.1443
 6436TIP3    H119314   5.009   4.204   0.493  0.8044 -1.4514 -3.4012
 6436TIP3    H219315   4.949   4.078   0.550  1.4480 -0.5708 -0.6204
 6437TIP3   OH219316   2.942   0.622   1.295 -0.5024 -1.0198  0.1054
 6437TIP3    H119317   2.936   0.710   1.330  0.1908 -1.0819  0.3894
 6437TIP3    H219318   2.856   0.605   1.257 -0.7078 -0.3107  0.2530
 6438TIP3   OH219319   2.733  -0.017   5.105 -0.9756  0.0578 -0.2444
 6438TIP3    H119320   2.800   0.044   5.075 -1.2577  0.4247 -0.1462
 6438TIP3    H219321   2.708   0.015   5.192 -2.1934  0.7143 -0.8008
 6439TIP3   OH219322   0.192   1.546   3.816 -0.5033 -0.4561  0.7429
 6439TIP3    H119323   0.195   1.495   3.897  1.5499 -0.3545  0.7968
 6439TIP3    H219324   0.255   1.616   3.830 -1.4456  0.6371 -0.2836
 6440TIP3   OH219325   0.770   5.967   1.589  0.1055 -0.3741 -0.3797
 6440TIP3    H119326   0.818   5.887   1.612  0.7803 -0.1122 -0.8567
 6440TIP3    H219327   0.837   6.034   1.579 -0.6073  1.0343  2.9268
 6441TIP3   OH219328   6.205   3.542   3.245  0.3882  0.1834  0.4402
 6441TIP3    H119329   6.216   3.618   3.302 -4.2630  1.5529 -0.0510
 6441TIP3    H219330   6.236   3.468   3.297  0.4633  1.8661  2.9462
 6442TIP3   OH219331   5.122   4.052   1.321 -0.1297  0.4653  0.1601
 6442TIP3    H119332   5.081   4.138   1.325 -0.1326  0.4847 -0.2078
 6442TIP3    H219333   5.055   3.996   1.281  0.1372  0.4589 -0.2808
 6443TIP3   OH219334   2.783   2.383   3.927 -0.2210  0.3200 -0.2130
 6443TIP3    H119335   2.718   2.332   3.975  1.8245 -2.5328 -0.2673
 6443TIP3    H219336   2.747   2.392   3.839 -0.9386 -0.4362 -0.0056
 6444TIP3   OH219337   1.403   5.711   2.193  0.3685  0.6079 -0.3769
 6444TIP3    H119338   1.459   5.774   2.149 -1.1039  1.5027 -1.0627
 6444TIP3    H219339   1.416   5.630   2.145  0.6653  0.9412 -0.8696
 6445TIP3   OH219340   3.176   4.105   3.402 -0.4564  0.0147  0.2613
 6445TIP3    H119341   3.248   4.161   3.432  0.4575 -0.1484 -1.5105
 6445TIP3    H219342   3.212   4.056   3.328 -1.7250 -1.7567  0.7451
 6446TIP3   OH219343   5.145   2.960   0.980  0.4714 -0.4979 -0.2632
 6446TIP3    H119344   5.201   2.900   0.930  0.3121 -0.7078 -0.1941
 6446TIP3    H219345   5.076   2.985   0.919  0.2978 -0.7246 -0.1610
 6447TIP3   OH219346   2.969   3.598   2.854 -0.5273 -0.7509 -0.0501
 6447TIP3    H119347   2.901   3.549   2.900 -1.4734  1.0407  0.5431
 6447TIP3    H219348   2.988   3.546   2.776 -3.0592 -0.9778 -0.5821
 6448TIP3   OH219349   3.147   2.568   4.106  0.0427 -0.0402 -0.4667
 6448TIP3    H119350   3.071   2.585   4.050  0.2516  0.8455 -0.4836
 6448TIP3    H219351   3.115   2.585   4.195  0.4659  1.2109 -0.5478
 6449TIP3   OH219352   6.145   4.550   3.018 -0.7481  0.0522  0.1720
 6449TIP3    H119353   6.146   4.610   3.093 -0.1088 -0.5663  0.6748
 6449TIP3    H219354   6.237   4.525   3.006 -1.1748 -2.3987  1.2966
 6450TIP3   OH219355   2.803   4.623   5.187  0.0397 -0.5806  0.4309
 6450TIP3    H119356   2.756   4.678   5.124  1.4045 -0.8731 -0.9014
 6450TIP3    H219357   2.869   4.680   5.224 -0.1824 -0.6571  0.9581
 6451TIP3   OH219358   3.332   2.070   4.300 -0.2430 -0.0641 -0.1757
 6451TIP3    H119359   3.359   2.025   4.220  0.8155 -0.6086  0.4624
 6451TIP3    H219360   3.357   2.010   4.370 -0.0213  0.9464  0.6243
 6452TIP3   OH219361   2.292   0.975   2.547  0.1177  0.1010 -0.1682
 6452TIP3    H119362   2.215   0.989   2.493  0.2361  2.0559  0.1015
 6452TIP3    H219363   2.348   1.050   2.529  2.2208 -1.4962 -0.7275
 6453TIP3   OH219364   0.430   0.985   0.215 -0.5011 -0.0967 -0.2286
 6453TIP3    H119365   0.446   1.047   0.144  0.1601 -2.1029 -1.9293
 6453TIP3    H219366   0.351   1.018   0.258 -0.3052  1.7629 -1.1908
 6454TIP3   OH219367   1.034   3.896   2.115 -0.1787 -0.2981 -0.3349
 6454TIP3    H119368   0.948   3.882   2.075 -0.2198 -0.6260 -0.1357
 6454TIP3    H219369   1.096   3.863   2.050 -0.2687 -1.3608  0.0840
 6455TIP3   OH219370   3.487   5.625   2.627  0.2932  0.3567 -0.0625
 6455TIP3    H119371   3.511   5.677   2.704  0.4929 -2.1206  1.6561
 6455TIP3    H219372   3.551   5.554   2.624 -0.8678 -0.7053 -1.3576
 6456TIP3   OH219373   2.330   3.734   3.788  0.0604 -0.5174  0.1959
 6456TIP3    H119374   2.270   3.808   3.785  0.2193 -0.3435  1.0272
 6456TIP3    H219375   2.279   3.663   3.828  0.9822  0.2461  2.9623
 6457TIP3   OH219376   1.320   2.829   2.646 -0.1395 -0.1609 -1.0943
 6457TIP3    H119377   1.239   2.871   2.674 -0.6272 -0.6325 -1.7567
 6457TIP3    H219378   1.351   2.781   2.723 -0.6964 -0.2979 -0.9536
 6458TIP3   OH219379   3.405   1.016   2.343  1.1053  0.0568 -0.1319
 6458TIP3    H119380   3.459   0.957   2.290  1.0596  1.0023 -1.2682
 6458TIP3    H219381   3.378   1.085   2.282 -0.9407 -0.0941  0.5473
 6459TIP3   OH219382   1.510   0.676   4.085  0.5560  0.0491  0.3694
 6459TIP3    H119383   1.440   0.613   4.105  0.0772  0.4826  0.0884
 6459TIP3    H219384   1.591   0.627   4.099  0.1999 -0.4185  0.8380
 6460TIP3   OH219385   0.868   4.863   3.440  0.2641 -0.6684  0.1976
 6460TIP3    H119386   0.785   4.861   3.393  0.3084  1.5121 -0.0849
 6460TIP3    H219387   0.862   4.791   3.503 -0.6680 -2.3169 -1.6522
 6461TIP3   OH219388   3.250   1.334   4.821  0.1067  0.8114  0.3520
 6461TIP3    H119389   3.215   1.315   4.734  1.1206 -0.3841  0.1818
 6461TIP3    H219390   3.191   1.401   4.856 -0.4756  1.1255 -1.1418
 6462TIP3   OH219391   5.620   0.812   4.510  0.3722 -0.0071 -0.3515
 6462TIP3    H119392   5.686   0.751   4.477  1.3138  0.9236 -0.2225
 6462TIP3    H219393   5.540   0.788   4.463  0.7386 -1.2693 -0.3840
 6463TIP3   OH219394   0.294   3.983   0.875 -0.0061  0.0800 -0.0288
 6463TIP3    H119395   0.203   3.966   0.896  0.1110 -0.9358 -0.3235
 6463TIP3    H219396   0.329   4.028   0.953 -1.5849  3.6537 -1.1582
 6464TIP3   OH219397   1.653   3.304   3.878 -0.2260  0.9929 -0.1181
 6464TIP3    H119398   1.739   3.268   3.856 -0.2816  1.0981 -0.5228
 6464TIP3    H219399   1.670   3.397   3.895 -0.0428  0.7367  1.1715
 6465TIP3   OH219400   5.119   5.310   4.225 -0.9627  0.3198 -0.2299
 6465TIP3    H119401   5.197   5.340   4.177 -0.4076 -1.1681 -0.3181
 6465TIP3    H219402   5.130   5.215   4.231 -1.7942  0.2894  1.4878
 6466TIP3   OH219403   4.538   2.962   1.316  0.7023 -0.6675  0.5199
 6466TIP3    H119404   4.613   2.928   1.365  1.5215 -0.0908 -0.2923
 6466TIP3    H219405   4.480   2.887   1.305  0.7762 -0.9457  1.8259
 6467TIP3   OH219406   4.850   5.779   1.748  0.2284  0.1199 -0.0375
 6467TIP3    H119407   4.758   5.759   1.728  0.0422  1.2643 -0.4129
 6467TIP3    H219408   4.876   5.712   1.812 -0.9805  0.0194  0.3748
 6468TIP3   OH219409   5.495   2.947   4.870  0.5055  0.2553  0.0139
 6468TIP3    H119410   5.413   2.901   4.887  0.5696 -0.3802 -1.2934
 6468TIP3    H219411   5.471   3.017   4.809  0.9775 -0.1390 -0.6374
 6469TIP3   OH219412   2.710   4.122   0.871  0.1636 -0.0419 -0.5962
 6469TIP3    H119413   2.630   4.154   0.828 -1.0447 -0.3065  1.3273
 6469TIP3    H219414   2.688   4.033   0.898  0.1677  0.6826  2.0703
 6470TIP3   OH219415   4.699   4.960   3.185 -0.3525  0.2627  0.6237
 6470TIP3    H119416   4.660   4.988   3.268 -2.6385 -1.1193  0.1029
 6470TIP3    H219417   4.626   4.923   3.136  1.6838 -2.8404 -0.3427
 6471TIP3   OH219418   1.630   1.696   3.610  0.3406 -0.1083 -0.2035
 6471TIP3    H119419   1.576   1.768   3.575 -0.5375 -0.8207 -0.3504
 6471TIP3    H219420   1.639   1.716   3.703 -1.1693 -0.5601  0.0718
 6472TIP3   OH219421   4.306   5.184   2.308  0.4802  0.2626 -0.8093
 6472TIP3    H119422   4.291   5.259   2.250 -1.1564  1.4787  1.0275
 6472TIP3    H219423   4.255   5.113   2.269 -2.5227  1.6820  0.1790
 6473TIP3   OH219424   2.112   5.937   0.125  0.5957 -0.7413  0.0269
 6473TIP3    H119425   2.052   6.009   0.148  0.7804 -0.8985  1.0677
 6473TIP3    H219426   2.188   5.981   0.088 -0.5996 -0.5971 -2.4450
 6474TIP3   OH219427   5.325   3.787   5.064 -0.6413  0.3553  0.2545
 6474TIP3    H119428   5.412   3.749   5.052 -0.3114  0.0798  2.9613
 6474TIP3    H219429   5.266   3.713   5.064 -0.7232  0.4157 -0.1721
 6475TIP3   OH219430   3.606   0.094   3.438  0.2715  0.4805  0.3290
 6475TIP3    H119431   3.673   0.026   3.427  0.5543  0.6689  0.8741
 6475TIP3    H219432   3.640   0.151   3.506 -0.8165  0.1273  1.1956
 6476TIP3   OH219433   1.751   3.164   1.604 -0.0144  0.0235 -0.4381
 6476TIP3    H119434   1.839   3.137   1.631 -0.0569 -0.6712 -0.9564
 6476TIP3    H219435   1.708   3.082   1.578 -1.1237  0.2265  0.6599
 6477TIP3   OH219436   3.882   0.336   2.777  0.1175  0.3263  0.2282
 6477TIP3    H119437   3.808   0.275   2.773  0.6214 -0.3869  1.2119
 6477TIP3    H219438   3.868   0.396   2.704 -0.4645 -0.8957 -0.6982
 6478TIP3   OH219439   5.241   0.756   2.060 -0.3041  0.0030 -0.4999
 6478TIP3    H119440   5.316   0.784   2.111 -1.7655  0.3747  1.5679
 6478TIP3    H219441   5.228   0.664   2.084  0.7831 -0.7707 -2.5953
 6479TIP3   OH219442   4.124   3.861   4.773  0.6327 -0.3023  0.0539
 6479TIP3    H119443   4.184   3.806   4.823  1.2695 -1.0299 -1.4410
 6479TIP3    H219444   4.053   3.881   4.834  1.3761 -1.1331  1.2359
 6480TIP3   OH219445   5.271   4.841   3.236 -0.0841 -0.1342 -0.1730
 6480TIP3    H119446   5.297   4.912   3.177 -1.3927 -0.1707 -0.8416
 6480TIP3    H219447   5.323   4.855   3.315 -1.3949  2.5734  0.3605
 6481TIP3   OH219448   2.442   1.095   0.280 -0.3157 -0.9382  0.0738
 6481TIP3    H119449   2.463   1.008   0.246  1.4817  0.0983 -1.6179
 6481TIP3    H219450   2.375   1.129   0.220  1.2825  0.0348 -1.2364
 6482TIP3   OH219451   3.181   5.338   0.313  0.0890  0.1150  0.2211
 6482TIP3    H119452   3.260   5.392   0.321 -0.6964  1.1464  1.6680
 6482TIP3    H219453   3.209   5.251   0.340  0.4046  0.8600  2.6183
 6483TIP3   OH219454   2.124   2.633   3.503  0.6739  0.2507 -0.7666
 6483TIP3    H119455   2.127   2.539   3.520  0.1222  0.0256 -1.8135
 6483TIP3    H219456   2.085   2.670   3.582  2.0173 -0.2443  0.1542
 6484TIP3   OH219457   4.100   4.095   0.158 -0.5072  0.2169  0.1578
 6484TIP3    H119458   4.154   4.088   0.079  0.9897 -1.0174  1.2533
 6484TIP3    H219459   4.117   4.183   0.191 -0.9213  0.6366 -0.7126
 6485TIP3   OH219460   1.845   1.945   1.420 -0.6573 -0.0924 -0.3943
 6485TIP3    H119461   1.838   1.995   1.339  0.2869  3.1282  1.3547
 6485TIP3    H219462   1.755   1.935   1.450 -0.8201  2.4975  0.2046
 6486TIP3   OH219463   4.557   4.902   1.704 -0.1056  0.1508 -0.9706
 6486TIP3    H119464   4.483   4.907   1.765  1.7258  1.9287  1.3141
 6486TIP3    H219465   4.598   4.818   1.724 -0.0418  0.3197 -0.3555
 6487TIP3   OH219466   2.923   1.977   5.131 -0.1080  0.2195  0.0449
 6487TIP3    H119467   2.992   1.980   5.197 -0.0425 -1.0160  0.0598
 6487TIP3    H219468   2.895   2.068   5.121  0.3456  0.5165  1.2765
 6488TIP3   OH219469   0.739   1.618   1.502 -0.5012  0.1416 -1.1412
 6488TIP3    H119470   0.795   1.555   1.457 -0.8441 -1.2990  0.3565
 6488TIP3    H219471   0.650   1.584   1.490 -0.5604 -0.6569  1.0794
 6489TIP3   OH219472   5.655   5.280   1.471  0.3207  0.5374  0.0282
 6489TIP3    H119473   5.586   5.337   1.506 -0.2896 -0.6819  0.9058
 6489TIP3    H219474   5.728   5.340   1.451 -0.7727  1.7799 -0.3872
 6490TIP3   OH219475   5.607   2.718   3.476  0.3758  0.1675  0.0285
 6490TIP3    H119476   5.538   2.780   3.497  0.8543  0.2993  1.2990
 6490TIP3    H219477   5.565   2.654   3.419 -0.7757  0.2905  0.7034
 6491TIP3   OH219478   1.693   3.829   1.719  0.1447  0.6459  0.2252
 6491TIP3    H119479   1.667   3.865   1.634  0.8027 -1.9855 -1.2236
 6491TIP3    H219480   1.784   3.801   1.706 -0.2264 -1.2151  1.2419
 6492TIP3   OH219481   2.368   1.501   1.043 -0.3080  0.0456 -0.0407
 6492TIP3    H119482   2.420   1.461   1.113 -4.1314 -0.0615  3.0697
 6492TIP3    H219483   2.353   1.590   1.072 -1.3176  0.2652 -1.1434
 6493TIP3   OH219484   6.156   0.412   0.671 -0.3404  0.1432  0.4853
 6493TIP3    H119485   6.161   0.493   0.619  0.8001 -0.6003 -0.6013
 6493TIP3    H219486   6.247   0.390   0.690 -0.7149  0.2815  2.6981
 6494TIP3   OH219487   1.129   4.715   0.678 -0.5111  0.0089 -0.3901
 6494TIP3    H119488   1.109   4.683   0.590  0.0406 -0.1958 -0.4488
 6494TIP3    H219489   1.220   4.743   0.673 -0.4225 -0.1663  0.1614
 6495TIP3   OH219490   1.145   0.030   4.006 -0.5112  0.0001  0.3510
 6495TIP3    H119491   1.134   0.079   4.087 -0.9484  0.2373  0.1525
 6495TIP3    H219492   1.190   0.091   3.947  0.0615 -0.2698  0.5045
 6496TIP3   OH219493   2.242   4.702   4.775 -0.7286 -0.2315 -0.1808
 6496TIP3    H119494   2.222   4.639   4.706 -2.5111  1.3790 -1.2688
 6496TIP3    H219495   2.158   4.716   4.819  0.4212 -1.4586  2.6310
 6497TIP3   OH219496   5.302   4.522   3.615  0.0086 -0.1117 -0.0558
 6497TIP3    H119497   5.315   4.578   3.691  1.0098 -1.8623  1.1511
 6497TIP3    H219498   5.207   4.523   3.601 -0.1456  0.6369  0.9041
 6498TIP3   OH219499   1.132   1.540   0.870 -0.0634 -0.2950  0.0020
 6498TIP3    H119500   1.223   1.569   0.866  0.2413 -1.2351 -0.1845
 6498TIP3    H219501   1.082   1.611   0.830  0.8307 -0.7262 -2.0049
 6499TIP3   OH219502   4.926   2.987   5.033 -0.1021 -0.3174  0.1971
 6499TIP3    H119503   4.841   3.027   5.048  0.2474  0.2101  0.8331
 6499TIP3    H219504   4.906   2.895   5.013 -0.8937  0.1405 -1.1664
 6500TIP3   OH219505   5.694   0.486   0.151  0.5736  0.7180  0.0441
 6500TIP3    H119506   5.750   0.521   0.082 -0.3289  1.4847 -0.3211
 6500TIP3    H219507   5.628   0.434   0.104 -0.4616  1.8048  0.2378
 6501TIP3   OH219508   0.966   5.642   2.323  0.4941  0.4715  0.6725
 6501TIP3    H119509   1.049   5.619   2.366  0.4937 -0.5922  0.1498
 6501TIP3    H219510   0.943   5.564   2.273  0.6691  1.7526 -1.5304
 6502TIP3   OH219511   3.581   1.751   3.818 -0.4639  0.1522 -0.5225
 6502TIP3    H119512   3.555   1.726   3.907  0.9855  0.0777 -0.0823
 6502TIP3    H219513   3.575   1.670   3.768 -1.4149  0.2219 -0.5317
 6503TIP3   OH219514   3.453   1.438   0.414  0.4059 -0.1369  0.4986
 6503TIP3    H119515   3.498   1.482   0.486 -1.1610 -1.2690  2.2534
 6503TIP3    H219516   3.471   1.345   0.427  1.7584 -0.2918 -1.8107
 6504TIP3   OH219517   1.482   5.375   1.384  0.0405 -0.4522 -0.0873
 6504TIP3    H119518   1.462   5.468   1.400  0.5883 -0.5446  1.2752
 6504TIP3    H219519   1.397   5.336   1.361 -0.2864  0.2849 -0.1712
 6505TIP3   OH219520   0.722   2.075   1.972 -0.2179 -0.1351  0.1245
 6505TIP3    H119521   0.816   2.056   1.967 -0.1467  0.4031 -1.3341
 6505TIP3    H219522   0.689   2.053   1.884 -1.6819 -1.3942  0.9500
 6506TIP3   OH219523   6.331   4.825   4.263 -0.2022  1.1313 -0.2541
 6506TIP3    H119524   6.325   4.802   4.171 -1.0536 -0.1022  0.0990
 6506TIP3    H219525   6.261   4.776   4.306  0.2060  1.6425  1.0601
 6507TIP3   OH219526   2.131   0.749   0.014  0.4168  0.1688 -0.0668
 6507TIP3    H119527   2.154   0.842   0.025 -2.0566  0.8824 -0.1684
 6507TIP3    H219528   2.207   0.701   0.047  1.3634  2.2361  0.9696
 6508TIP3   OH219529   3.890   1.726   3.774  0.1403 -0.4739  0.2501
 6508TIP3    H119530   3.970   1.678   3.753 -0.7618 -3.0534  2.2007
 6508TIP3    H219531   3.824   1.658   3.786 -2.0220  1.4975  0.1073
 6509TIP3   OH219532   1.875   5.084   0.239  0.1627  0.4150 -0.2487
 6509TIP3    H119533   1.961   5.047   0.259  0.3602 -0.4478 -2.3828
 6509TIP3    H219534   1.826   5.011   0.201 -0.5393  1.5437 -1.6108
 6510TIP3   OH219535   4.197   3.718   4.074  0.1054  0.1058 -0.1072
 6510TIP3    H119536   4.225   3.627   4.070 -1.8235 -0.6344  1.3860
 6510TIP3    H219537   4.273   3.765   4.107 -0.1864 -1.7753  3.7391
 6511TIP3   OH219538   5.041   0.477   1.319  0.8040 -0.1481 -0.7438
 6511TIP3    H119539   5.012   0.565   1.342 -0.3154 -0.2165 -1.8090
 6511TIP3    H219540   4.971   0.419   1.350  0.9151 -0.5446 -1.2249
 6512TIP3   OH219541   2.304   0.680   4.549 -0.4006  0.2658 -0.4138
 6512TIP3    H119542   2.327   0.772   4.554 -0.3263  0.2872 -1.0452
 6512TIP3    H219543   2.379   0.633   4.586  0.1382  0.3940 -1.3255
 6513TIP3   OH219544   3.248   0.252   2.172  0.5612  0.0122 -0.6441
 6513TIP3    H119545   3.255   0.332   2.120  2.1951  0.7033  0.5439
 6513TIP3    H219546   3.337   0.216   2.173 -0.0134 -1.4648 -0.6068
 6514TIP3   OH219547   5.567   4.408   4.417  0.3390 -0.2606  0.5699
 6514TIP3    H119548   5.596   4.451   4.337 -0.0631 -0.1827  0.4635
 6514TIP3    H219549   5.644   4.361   4.448  1.1271  1.4064  1.2772
 6515TIP3   OH219550   1.059   4.237   4.195  0.3011  0.8787 -0.3427
 6515TIP3    H119551   1.024   4.148   4.193  1.5717  0.3591 -0.4733
 6515TIP3    H219552   0.995   4.289   4.146 -1.1804  0.3325  0.9311
 6516TIP3   OH219553   0.210   3.860   0.538  0.0647  0.1157  0.0817
 6516TIP3    H119554   0.210   3.953   0.559  0.6565  0.1884 -0.2069
 6516TIP3    H219555   0.185   3.855   0.446 -2.0357 -0.1693  0.6130
 6517TIP3   OH219556   3.988   0.180   0.847  0.2635 -0.0710  0.1341
 6517TIP3    H119557   3.974   0.156   0.939  0.7070  0.6450  0.3998
 6517TIP3    H219558   4.008   0.274   0.850  2.2047 -0.4236 -0.4698
 6518TIP3   OH219559   3.899   4.028   0.757 -0.2133  0.7825  0.3687
 6518TIP3    H119560   3.854   3.999   0.678  0.2710  0.2765  0.2736
 6518TIP3    H219561   3.853   3.984   0.829  0.6475 -0.3999  0.2101
 6519TIP3   OH219562   4.133   4.048   3.977 -0.4791  0.2100 -0.2965
 6519TIP3    H119563   4.166   4.133   4.008 -0.3342 -0.1976  0.7032
 6519TIP3    H219564   4.211   3.993   3.971 -0.7521 -0.2699  0.4609
 6520TIP3   OH219565   3.113   4.392   4.149  0.1557 -0.2189  0.3196
 6520TIP3    H119566   3.021   4.365   4.154  0.1949 -0.1582  1.4925
 6520TIP3    H219567   3.143   4.393   4.239  1.5272 -0.9505 -0.0999
 6521TIP3   OH219568   4.962   2.574   2.792 -0.0348 -0.1792 -0.2641
 6521TIP3    H119569   5.047   2.571   2.836  0.3587  0.3633 -0.9699
 6521TIP3    H219570   4.949   2.667   2.773 -0.3254 -0.3814 -1.0645
 6522TIP3   OH219571   0.763   5.837   3.198 -0.0413 -0.0373  0.3721
 6522TIP3    H119572   0.807   5.757   3.226 -2.2631 -1.4419  0.0144
 6522TIP3    H219573   0.721   5.814   3.115 -1.7264  1.1254  0.8667
 6523TIP3   OH219574   6.116   1.414   4.264  0.0310 -0.4400  0.0091
 6523TIP3    H119575   6.190   1.360   4.294 -0.1362 -0.9667 -0.4996
 6523TIP3    H219576   6.126   1.497   4.311  2.6167  0.6025 -2.1045
 6524TIP3   OH219577   1.523   3.336   1.578  0.0352  0.2868 -0.3176
 6524TIP3    H119578   1.463   3.370   1.644 -0.2659 -0.8421  0.0199
 6524TIP3    H219579   1.590   3.289   1.629  0.4246  0.3495 -0.7642
 6525TIP3   OH219580   4.814   5.525   3.261  0.0458 -0.7548 -0.1975
 6525TIP3    H119581   4.861   5.606   3.278 -0.9526 -0.2645  0.2684
 6525TIP3    H219582   4.828   5.508   3.168 -0.2921  0.3131 -0.4553
 6526TIP3   OH219583   1.850   4.318   2.804  0.1799 -0.1342 -0.1098
 6526TIP3    H119584   1.940   4.285   2.813  0.2674  0.3668  1.0631
 6526TIP3    H219585   1.860   4.412   2.788 -0.1277 -0.2168 -0.8412
 6527TIP3   OH219586   5.621   2.448   4.606 -0.0160 -0.0868 -0.2726
 6527TIP3    H119587   5.628   2.506   4.683  0.1038  0.8644 -0.9783
 6527TIP3    H219588   5.538   2.402   4.617 -0.2713  0.4643  0.1431
 6528TIP3   OH219589   0.976   0.722   4.260 -0.1035  0.1288  0.2161
 6528TIP3    H119590   0.948   0.805   4.299 -0.9780 -0.7988  1.6799
 6528TIP3    H219591   0.895   0.679   4.232 -0.0203 -1.4913  2.2051
 6529TIP3   OH219592   5.777   5.148   2.119 -0.3865 -0.1201  0.2446
 6529TIP3    H119593   5.732   5.233   2.115  1.1891  0.7245 -0.4013
 6529TIP3    H219594   5.825   5.150   2.201 -0.7421 -0.6147  0.4697
 6530TIP3   OH219595   4.399   1.727   1.001 -0.6336  0.3739 -0.2911
 6530TIP3    H119596   4.413   1.743   1.094  0.2201 -0.5028 -0.2551
 6530TIP3    H219597   4.333   1.791   0.976 -0.0294  1.4062  0.6497
 6531TIP3   OH219598   2.479   2.539   4.946 -0.0369 -0.1771 -0.4600
 6531TIP3    H119599   2.464   2.622   4.900  0.1615  1.2854  1.9423
 6531TIP3    H219600   2.572   2.521   4.932  0.8215  1.9649  1.8800
 6532TIP3   OH219601   3.965   4.631   2.974  0.3230  1.0485 -0.1374
 6532TIP3    H119602   4.058   4.624   2.951 -0.4424  0.7676 -3.6709
 6532TIP3    H219603   3.927   4.550   2.941 -1.1801  1.0158  1.5499
 6533TIP3   OH219604   0.809   4.518   2.321 -0.8989  0.5860  0.2002
 6533TIP3    H119605   0.830   4.475   2.404  0.7479  0.2902 -0.3313
 6533TIP3    H219606   0.721   4.553   2.333 -0.8488  0.1843  1.9189
 6534TIP3   OH219607   4.130   2.188   3.699  0.2511 -0.1813 -0.4599
 6534TIP3    H119608   4.140   2.104   3.746 -1.0073  0.0200  0.1955
 6534TIP3    H219609   4.057   2.231   3.743 -0.7672  0.1635 -2.4282
 6535TIP3   OH219610   0.994   1.698   2.248  0.2884  0.1318  0.1766
 6535TIP3    H119611   0.969   1.731   2.162  1.1652  1.6951  0.4905
 6535TIP3    H219612   0.937   1.744   2.309 -1.0862 -1.7622  0.4170
 6536TIP3   OH219613   5.573   5.714   1.648  0.0177 -0.6316  0.3987
 6536TIP3    H119614   5.661   5.753   1.653 -0.3663  0.7075 -1.6927
 6536TIP3    H219615   5.522   5.779   1.599 -1.7126 -2.1045  0.1659
 6537TIP3   OH219616   3.192   3.571   5.106 -0.2255 -0.4493  0.1059
 6537TIP3    H119617   3.228   3.657   5.125  0.1977 -1.0800  2.4097
 6537TIP3    H219618   3.105   3.571   5.147 -1.2186 -0.3545 -1.8878
 6538TIP3   OH219619   4.166   1.842   2.413  0.0884  0.3225 -0.7842
 6538TIP3    H119620   4.152   1.768   2.473 -3.5611  1.2106 -0.3048
 6538TIP3    H219621   4.235   1.812   2.354  1.2434 -2.0463  1.5253
 6539TIP3   OH219622   6.068   1.300   2.808  0.0361 -0.2587  0.9253
 6539TIP3    H119623   6.098   1.278   2.896  1.2915  0.4886  0.7030
 6539TIP3    H219624   6.093   1.225   2.754  1.1665  0.1733  0.8249
 6540TIP3   OH219625   5.359   0.978   2.535  0.1819 -0.0669  0.2261
 6540TIP3    H119626   5.266   0.989   2.515  0.4193 -0.8787 -1.5832
 6540TIP3    H219627   5.366   0.888   2.567  0.2820  0.1732  0.8955
 6541TIP3   OH219628   2.438   4.130   1.522  0.3818 -0.0808  0.4946
 6541TIP3    H119629   2.455   4.063   1.456 -1.4759 -1.1639  1.0689
 6541TIP3    H219630   2.518   4.183   1.523  1.2275 -1.2432 -1.1762
 6542TIP3   OH219631   3.813   4.208   3.153  0.3195 -0.1943 -0.0615
 6542TIP3    H119632   3.823   4.167   3.239  1.2185  0.1099 -0.0088
 6542TIP3    H219633   3.849   4.145   3.091  0.5636 -0.0096 -0.1098
 6543TIP3   OH219634   1.243   3.329   3.581 -0.4456  0.0448  0.1320
 6543TIP3    H119635   1.330   3.310   3.614 -0.8041 -0.7269  0.6703
 6543TIP3    H219636   1.257   3.394   3.512  0.4610  0.5590  0.7803
 6544TIP3   OH219637   1.585   1.546   1.338  0.2242  0.3373  0.4933
 6544TIP3    H119638   1.520   1.534   1.407  1.5491  0.9761  1.9187
 6544TIP3    H219639   1.598   1.641   1.333 -0.0138  0.3259 -0.8259
 6545TIP3   OH219640   0.665   2.527   0.160 -0.1486  0.2801  0.6820
 6545TIP3    H119641   0.580   2.541   0.204 -0.4675  2.6837 -0.4893
 6545TIP3    H219642   0.641   2.495   0.073  0.2322 -0.2961  0.7894
 6546TIP3   OH219643   1.506   3.301   0.192 -0.2688  0.2069  0.0153
 6546TIP3    H119644   1.600   3.293   0.210 -0.1593  0.5278 -0.4029
 6546TIP3    H219645   1.494   3.392   0.168 -0.5363 -0.0462 -0.8191
 6547TIP3   OH219646   1.812   4.046   4.104  0.8660  0.0372  0.0952
 6547TIP3    H119647   1.824   4.100   4.182  1.8060 -0.2660  0.1836
 6547TIP3    H219648   1.718   4.038   4.094  0.7290  0.6635  0.7950
 6548TIP3   OH219649   2.180   0.995   2.786  0.1521  0.0837 -0.5742
 6548TIP3    H119650   2.127   1.074   2.777  0.4744  0.4169  0.2816
 6548TIP3    H219651   2.216   0.980   2.699 -2.3283 -0.8879 -1.5172
 6549TIP3   OH219652   0.697   2.513   0.509 -0.1510  0.2433 -0.5969
 6549TIP3    H119653   0.649   2.579   0.558  0.1541  0.9580 -1.2385
 6549TIP3    H219654   0.764   2.562   0.461 -0.2275 -0.4660 -1.4662
 6550TIP3   OH219655   3.688   2.312   2.515 -0.3239  0.3960 -0.2433
 6550TIP3    H119656   3.749   2.309   2.588 -0.3955  0.3409 -0.1860
 6550TIP3    H219657   3.629   2.384   2.535 -0.0697  0.6663 -0.4637
 6551TIP3   OH219658   5.383   2.528   4.466  0.3237  0.2875 -0.2051
 6551TIP3    H119659   5.345   2.503   4.550 -0.9672 -0.7372 -1.0713
 6551TIP3    H219660   5.478   2.518   4.479  0.2264  1.1331  1.4196
 6552TIP3   OH219661   0.624   2.533   4.561 -0.7110  0.4993 -0.1105
 6552TIP3    H119662   0.607   2.443   4.532  0.8380 -0.3107  1.3080
 6552TIP3    H219663   0.647   2.580   4.482  1.4718 -1.1419 -0.5470
 6553TIP3   OH219664   6.026   2.772   1.316 -0.4412  0.2694  0.8652
 6553TIP3    H119665   5.975   2.719   1.377 -1.8759 -0.0932 -0.5847
 6553TIP3    H219666   6.117   2.750   1.336 -0.9684 -2.1551  0.8528
 6554TIP3   OH219667   5.210   5.927   3.812 -0.0880 -0.0595 -0.0553
 6554TIP3    H119668   5.252   5.967   3.735 -1.3242  1.3982 -0.0154
 6554TIP3    H219669   5.255   5.965   3.887 -1.2523  1.2922 -0.0177
 6555TIP3   OH219670   0.501   0.748   4.989 -0.1097 -0.3229 -0.4342
 6555TIP3    H119671   0.482   0.736   4.896  0.7369 -2.0585 -0.4240
 6555TIP3    H219672   0.415   0.762   5.029 -0.5786 -0.4868 -1.3456
 6556TIP3   OH219673   1.635   0.287  -0.003  0.4180 -0.5878 -0.0435
 6556TIP3    H119674   1.599   0.208   0.038  0.1339 -0.3170  0.2465
 6556TIP3    H219675   1.562   0.350  -0.000  0.8392 -0.1017  0.3416
 6557TIP3   OH219676   0.902   0.603   4.497  0.1715  0.0825  0.0585
 6557TIP3    H119677   0.875   0.668   4.432 -0.5876 -1.0235 -0.7837
 6557TIP3    H219678   0.828   0.543   4.503  1.7028 -2.0889 -1.0329
 6558TIP3   OH219679   0.633   3.235   3.807 -0.7950  0.2790 -0.1851
 6558TIP3    H119680   0.703   3.241   3.872 -0.3756 -0.4922 -0.5591
 6558TIP3    H219681   0.562   3.289   3.843 -0.2750  0.4932  0.5312
 6559TIP3   OH219682   5.628   3.076   3.416  0.3628 -0.5104 -0.2925
 6559TIP3    H119683   5.649   3.036   3.501  0.6896  0.3281  0.0242
 6559TIP3    H219684   5.668   3.017   3.352 -0.5500 -1.5787  0.0871
 6560TIP3   OH219685   4.141   4.268   4.796  0.4022  0.4477  0.0328
 6560TIP3    H119686   4.219   4.310   4.761  0.7179  2.2330  2.6127
 6560TIP3    H219687   4.073   4.335   4.790 -0.6533 -0.6527 -0.9906
 6561TIP3   OH219688   0.406   4.575   3.391 -0.2686 -0.0413  0.1370
 6561TIP3    H119689   0.388   4.485   3.416  2.0843 -0.2088  1.5468
 6561TIP3    H219690   0.425   4.571   3.297  2.2618 -1.5354  0.6217
 6562TIP3   OH219691   4.305   3.375   0.412  0.3317 -0.2426  0.0059
 6562TIP3    H119692   4.259   3.454   0.385  1.2931 -0.0088 -1.0159
 6562TIP3    H219693   4.299   3.375   0.508 -1.1478  0.1453 -0.0601
 6563TIP3   OH219694   0.646   1.999   3.314 -0.0209  0.1965 -0.2291
 6563TIP3    H119695   0.683   1.950   3.241 -2.0306  0.1456 -1.2637
 6563TIP3    H219696   0.648   2.090   3.285  2.1555  0.6215  1.0200
 6564TIP3   OH219697   5.636   2.822   0.224 -0.0920 -0.1735 -0.0270
 6564TIP3    H119698   5.577   2.882   0.179 -1.4470 -0.8860  0.7187
 6564TIP3    H219699   5.657   2.866   0.307  1.7649  0.7893 -0.9634
 6565TIP3   OH219700   0.694   2.003   4.745  0.0183  0.1693  0.4195
 6565TIP3    H119701   0.675   2.016   4.838 -2.4688  1.1933 -0.1513
 6565TIP3    H219702   0.782   2.040   4.733  0.3016  0.1866  2.2987
 6566TIP3   OH219703   0.030   0.260   3.040  0.6495  0.0492  0.2966
 6566TIP3    H119704   0.044   0.166   3.029  1.9805 -0.0153  2.0913
 6566TIP3    H219705   0.097   0.287   3.103  2.3232  2.7706 -2.3404
 6567TIP3   OH219706   4.181   0.507   4.590 -0.5700 -0.5975  0.7555
 6567TIP3    H119707   4.146   0.548   4.670 -1.2183 -0.6206  0.4838
 6567TIP3    H219708   4.220   0.580   4.542 -0.7948 -0.4719  0.7641
 6568TIP3   OH219709   1.480   3.246   2.961 -0.1430  0.9678 -0.0123
 6568TIP3    H119710   1.447   3.335   2.964 -0.5758  0.8040  0.2755
 6568TIP3    H219711   1.429   3.204   2.892  0.0674  0.9467 -0.1549
 6569TIP3   OH219712   2.655   2.043   4.778  0.1896 -0.0202  0.3412
 6569TIP3    H119713   2.658   2.123   4.726  2.0735 -0.5173 -0.4284
 6569TIP3    H219714   2.645   1.973   4.713  1.0825 -0.5491  0.7494
 6570TIP3   OH219715   2.627   0.254   2.328 -0.6172 -0.2006 -0.2002
 6570TIP3    H119716   2.594   0.206   2.404  2.6330 -1.1017  0.8090
 6570TIP3    H219717   2.644   0.186   2.262 -1.5423  0.3346 -1.0094
 6571TIP3   OH219718   5.278   4.436   2.358  0.1577  0.1460  0.1349
 6571TIP3    H119719   5.248   4.348   2.383 -3.8347  1.1156 -0.4665
 6571TIP3    H219720   5.293   4.481   2.441 -0.9926 -0.2074  0.5590
 6572TIP3   OH219721   5.379   4.254   2.831 -0.4336  0.0595 -0.5123
 6572TIP3    H119722   5.419   4.308   2.900 -0.2259  0.1890 -0.7321
 6572TIP3    H219723   5.324   4.192   2.878 -0.1854  0.0577 -0.2188
 6573TIP3   OH219724   6.035   1.364   2.006  0.1301  0.3494 -0.2322
 6573TIP3    H119725   6.100   1.394   2.070 -0.1418 -0.1483  0.2855
 6573TIP3    H219726   5.978   1.305   2.056 -0.7968  0.8779 -0.6420
 6574TIP3   OH219727   6.007   2.832   3.235 -0.2204  0.0834  0.0401
 6574TIP3    H119728   6.087   2.865   3.194 -0.4803 -0.4931 -0.9844
 6574TIP3    H219729   6.037   2.787   3.314  0.3104  1.1333  0.4576
 6575TIP3   OH219730   2.263   1.335   3.922  0.0258  0.1216  0.0444
 6575TIP3    H119731   2.301   1.356   3.837 -0.4821 -0.4203 -0.3199
 6575TIP3    H219732   2.328   1.367   3.986  0.1081  1.1334 -0.5194
 6576TIP3   OH219733   3.574   1.651   4.406  0.3462 -0.4090 -0.4034
 6576TIP3    H119734   3.662   1.659   4.442  0.2626  0.0214 -0.2931
 6576TIP3    H219735   3.517   1.638   4.482  0.0223  1.6308 -0.2361
 6577TIP3   OH219736   4.297   1.779   2.976  0.3155  0.4265  0.3204
 6577TIP3    H119737   4.304   1.850   3.040  0.2808  1.5703 -0.8937
 6577TIP3    H219738   4.382   1.736   2.978 -0.0462 -0.2815  1.9193
 6578TIP3   OH219739   5.235   2.825   4.910  0.1728 -0.1472 -0.7436
 6578TIP3    H119740   5.167   2.784   4.963  0.3417  0.8940  0.3226
 6578TIP3    H219741   5.199   2.910   4.886  0.5842 -0.1177 -1.2678
 6579TIP3   OH219742   2.500   0.380   4.523  0.2623 -0.2093 -0.0495
 6579TIP3    H119743   2.520   0.412   4.435 -1.2532  2.6168  0.5371
 6579TIP3    H219744   2.586   0.356   4.559  0.8322 -2.6374 -2.5929
 6580TIP3   OH219745   5.181   5.734   0.729  0.4380  0.3458 -0.0960
 6580TIP3    H119746   5.107   5.788   0.700 -0.1544  0.3949  1.4200
 6580TIP3    H219747   5.248   5.797   0.756  0.4635  0.3035 -0.0602
 6581TIP3   OH219748   0.535   3.874   3.616 -0.4250 -0.2059  0.6567
 6581TIP3    H119749   0.478   3.802   3.645  0.6757 -1.2617  0.2574
 6581TIP3    H219750   0.475   3.949   3.607 -1.8281 -1.3432 -0.0461
 6582TIP3   OH219751   0.236   4.330   3.443 -0.0292 -0.4007 -0.1578
 6582TIP3    H119752   0.157   4.368   3.407  0.9367  1.1498 -0.7473
 6582TIP3    H219753   0.284   4.296   3.368  0.9068  0.7540 -0.1263
 6583TIP3   OH219754   3.577   0.539   0.249 -0.3406  0.1093 -0.9996
 6583TIP3    H119755   3.573   0.449   0.217 -3.2632 -0.3758  0.3209
 6583TIP3    H219756   3.511   0.585   0.198  1.4103  1.6887 -1.9486
 6584TIP3   OH219757   2.011   1.014   0.254 -0.6590  0.1832 -0.1593
 6584TIP3    H119758   1.986   1.056   0.336 -0.1462  1.1959 -0.5047
 6584TIP3    H219759   2.007   0.920   0.273 -0.0501  0.4098  1.1747
 6585TIP3   OH219760   4.593   1.703   0.612  0.0586  0.3587  0.1619
 6585TIP3    H119761   4.527   1.724   0.545  1.5806 -0.2029 -1.5917
 6585TIP3    H219762   4.551   1.636   0.666 -1.4346  1.2646  0.2060
 6586TIP3   OH219763   0.359   2.275   1.336 -0.4817 -0.8960 -0.0777
 6586TIP3    H119764   0.316   2.261   1.252 -0.2696 -1.5144 -0.0907
 6586TIP3    H219765   0.420   2.201   1.344  0.5917 -0.0310 -0.0772
 6587TIP3   OH219766   5.988   0.315   2.589  1.0982  0.2925 -0.4536
 6587TIP3    H119767   5.920   0.325   2.522  0.0958 -0.5764  0.3933
 6587TIP3    H219768   6.032   0.233   2.567  0.7244 -0.0269 -0.0124
 6588TIP3   OH219769   5.884   3.329   3.788  0.0738  0.1400 -0.3786
 6588TIP3    H119770   5.811   3.319   3.726  2.0195 -0.4898 -2.7562
 6588TIP3    H219771   5.919   3.240   3.798  0.7225  0.4758  0.4417
 6589TIP3   OH219772   2.994   0.315   3.218 -0.8403  0.7941  0.1385
 6589TIP3    H119773   2.904   0.308   3.250 -0.7675 -0.2895  0.1212
 6589TIP3    H219774   3.009   0.234   3.170  0.1973  0.9167  0.2409
 6590TIP3   OH219775   1.624   2.057   4.262 -0.1570 -0.1814 -0.0926
 6590TIP3    H119776   1.578   1.992   4.315 -1.7367  0.4303 -0.6499
 6590TIP3    H219777   1.611   2.028   4.172  0.4818  0.0586 -0.2686
 6591TIP3   OH219778   2.357   2.000   4.909 -0.0034 -0.1297 -0.0672
 6591TIP3    H119779   2.294   1.938   4.944  0.1827  0.6569  1.7691
 6591TIP3    H219780   2.430   1.999   4.971  2.6232 -2.1409 -2.8642
 6592TIP3   OH219781   0.127   1.828   3.243 -0.0914 -0.3210  0.1318
 6592TIP3    H119782   0.093   1.768   3.309  1.3551 -0.4700  0.7856
 6592TIP3    H219783   0.206   1.785   3.210  1.1857  1.3407  0.8705
 6593TIP3   OH219784   1.286   1.395   0.440  0.2679 -0.2048  0.6707
 6593TIP3    H119785   1.287   1.488   0.421 -1.2369 -0.0645  1.1845
 6593TIP3    H219786   1.362   1.381   0.497  2.0242  0.2032 -1.4656
 6594TIP3   OH219787   3.489   4.544   1.910 -0.1851 -0.1930  0.0255
 6594TIP3    H119788   3.415   4.501   1.866 -0.2281  1.6141 -1.8608
 6594TIP3    H219789   3.565   4.491   1.886 -0.2878  0.4446 -1.9293
 6595TIP3   OH219790   1.536   1.248   4.311  0.5449  0.8326 -0.0771
 6595TIP3    H119791   1.622   1.207   4.303  1.0139  1.7265  0.2522
 6595TIP3    H219792   1.507   1.259   4.220  1.0378  1.0529 -0.2129
 6596TIP3   OH219793   4.221   2.353   2.513 -0.2454  0.3988 -0.3472
 6596TIP3    H119794   4.273   2.404   2.452  0.5344 -0.9398 -0.8353
 6596TIP3    H219795   4.234   2.262   2.487 -0.0436 -0.2129  1.6663
 6597TIP3   OH219796   1.623   4.117   2.004 -0.5997 -0.1684  0.0992
 6597TIP3    H119797   1.682   4.053   1.965 -0.1848  0.4214 -0.2573
 6597TIP3    H219798   1.548   4.066   2.034 -0.1851 -0.8420 -0.0002
 6598TIP3   OH219799   4.785   3.393   1.691 -0.2938  0.1808  0.4707
 6598TIP3    H119800   4.794   3.345   1.608 -1.7736  1.1290 -0.2822
 6598TIP3    H219801   4.700   3.436   1.685 -1.2917 -1.1589  3.2865
 6599TIP3   OH219802   4.509   3.595   0.421  0.0569 -0.4644  0.2568
 6599TIP3    H119803   4.497   3.547   0.503  0.6699 -0.8516  0.1341
 6599TIP3    H219804   4.422   3.623   0.396 -0.1118 -0.1597  1.1515
 6600TIP3   OH219805   1.712   2.297   3.353  0.1954  0.2711  0.0891
 6600TIP3    H119806   1.713   2.204   3.329  2.2648 -0.1275  1.4593
 6600TIP3    H219807   1.692   2.297   3.447 -1.2508  1.3547 -0.1870
 6601TIP3   OH219808   5.582   3.593   0.004  0.2474  0.3115  0.3197
 6601TIP3    H119809   5.676   3.610  -0.002  0.2334  0.2209 -0.1965
 6601TIP3    H219810   5.547   3.670   0.050  0.4694  0.7086 -0.1665
 6602TIP3   OH219811   3.294   4.827   4.618 -0.0387 -0.4942 -0.6988
 6602TIP3    H119812   3.235   4.789   4.684 -3.6441  1.7558 -2.2998
 6602TIP3    H219813   3.348   4.889   4.667 -1.0507 -0.5022  0.4754
 6603TIP3   OH219814   0.279   4.655   4.450 -0.0108  0.4430 -0.3305
 6603TIP3    H119815   0.237   4.607   4.378 -0.0110  0.3463 -0.2667
 6603TIP3    H219816   0.233   4.625   4.529 -0.7173  1.3317 -0.3915
 6604TIP3   OH219817   5.271   4.317   3.407  0.4165 -0.1555 -0.7073
 6604TIP3    H119818   5.224   4.365   3.339 -0.4970 -0.3656 -0.2468
 6604TIP3    H219819   5.243   4.358   3.489 -0.4956 -1.5286 -0.2907
 6605TIP3   OH219820   0.305   2.492   4.929  0.3084 -0.3924 -0.5437
 6605TIP3    H119821   0.265   2.549   4.864  1.2434  1.3092  0.2767
 6605TIP3    H219822   0.251   2.504   5.007  1.3081  0.5323  0.0423
 6606TIP3   OH219823   4.138   0.245   4.570 -0.2106 -0.4444  0.2901
 6606TIP3    H119824   4.078   0.210   4.636 -0.3524  0.9514  0.9316
 6606TIP3    H219825   4.132   0.340   4.580  0.3507 -0.2248 -1.2238
 6607TIP3   OH219826   3.999   1.931   4.598  0.1280  0.0820  0.3086
 6607TIP3    H119827   3.991   1.954   4.691 -0.5628  0.9773  0.0457
 6607TIP3    H219828   4.069   1.988   4.566  1.6447 -1.5046  0.6543
 6608TIP3   OH219829   1.335   4.276   4.285 -0.0986  0.0996  0.2701
 6608TIP3    H119830   1.246   4.278   4.250  0.1210 -1.5809 -0.4688
 6608TIP3    H219831   1.324   4.294   4.378 -1.3520 -1.2207  0.4040
 6609TIP3   OH219832   6.336   4.560   4.950  0.2516  0.6756 -0.1953
 6609TIP3    H119833   6.396   4.534   5.019  0.3289  0.6870 -0.2577
 6609TIP3    H219834   6.250   4.562   4.991 -0.3959 -3.2878 -0.9580
 6610TIP3   OH219835   3.159   0.394   0.755 -0.8087 -0.2328  0.4079
 6610TIP3    H119836   3.169   0.322   0.817  0.4502 -0.9648 -0.5832
 6610TIP3    H219837   3.221   0.461   0.784 -0.5005 -0.4116  0.1630
 6611TIP3   OH219838   0.963   3.384   3.243 -0.0752  0.5488 -0.0568
 6611TIP3    H119839   0.882   3.333   3.248 -0.9618  1.8326 -0.7330
 6611TIP3    H219840   0.938   3.473   3.266  1.5629  0.6226  1.7020
 6612TIP3   OH219841   5.511   0.763   0.475  0.2669 -0.1574  0.4117
 6612TIP3    H119842   5.526   0.854   0.500  0.0676 -0.0550  0.1685
 6612TIP3    H219843   5.542   0.711   0.550  0.8333  0.0872  0.3468
 6613TIP3   OH219844   1.245  -0.010   1.115 -0.0974  0.0179  0.0672
 6613TIP3    H119845   1.224   0.069   1.066  0.4673  0.4150  0.4587
 6613TIP3    H219846   1.174  -0.020   1.178 -1.4514 -1.1242 -1.5320
 6614TIP3   OH219847   1.168   0.555   4.596  0.5302  0.1945  0.5991
 6614TIP3    H119848   1.234   0.541   4.528  0.9939 -0.1250  1.1059
 6614TIP3    H219849   1.089   0.581   4.548  0.6552 -0.7006 -0.1126
 6615TIP3   OH219850   1.144   1.834   1.714 -0.1544 -0.1227 -0.2628
 6615TIP3    H119851   1.096   1.916   1.711  0.2936  0.2027  0.9143
 6615TIP3    H219852   1.077   1.766   1.705 -0.5641  0.3562 -0.8788
 6616TIP3   OH219853   5.669   0.172   4.028  0.0663 -0.0550  0.4330
 6616TIP3    H119854   5.623   0.100   3.986 -0.3124  0.7861 -0.6540
 6616TIP3    H219855   5.752   0.179   3.979  0.8668 -0.8178  1.6253
 6617TIP3   OH219856   3.356   2.680   0.282  0.0273 -0.2000 -0.0716
 6617TIP3    H119857   3.426   2.626   0.316 -1.0697 -1.7308 -0.1401
 6617TIP3    H219858   3.364   2.763   0.329  1.5346 -0.5231  0.2829
 6618TIP3   OH219859   0.373   3.396   1.932  0.1075  0.6726 -0.1335
 6618TIP3    H119860   0.289   3.354   1.951  0.1258  0.3615 -0.7314
 6618TIP3    H219861   0.364   3.429   1.843  1.1529 -0.7512 -0.8147
 6619TIP3   OH219862   6.130   2.952   0.338 -0.1566 -0.0250  0.3363
 6619TIP3    H119863   6.163   2.866   0.311 -2.7527 -0.8423 -0.5054
 6619TIP3    H219864   6.051   2.965   0.285 -0.7565  2.1467  1.6427
 6620TIP3   OH219865   4.801   3.471   0.494 -0.1612 -0.2518 -0.1363
 6620TIP3    H119866   4.720   3.521   0.481 -0.6021 -0.3816  1.8254
 6620TIP3    H219867   4.863   3.510   0.432 -1.6371  0.0063 -1.5256
 6621TIP3   OH219868   2.496   3.595   1.735  0.1845 -0.4098 -0.4755
 6621TIP3    H119869   2.409   3.576   1.771 -0.1348  1.9228  0.1210
 6621TIP3    H219870   2.555   3.584   1.809 -0.0727  1.3074  0.0211
 6622TIP3   OH219871   2.446   0.635   2.029  0.3970  0.3227 -0.2294
 6622TIP3    H119872   2.393   0.680   1.963 -1.2532  0.2070  0.9531
 6622TIP3    H219873   2.460   0.701   2.097  0.4553 -0.0977  0.1727
 6623TIP3   OH219874   2.833   1.379   1.699 -0.8307  0.2990  0.0666
 6623TIP3    H119875   2.899   1.347   1.760  1.6883  1.5255 -1.8112
 6623TIP3    H219876   2.757   1.401   1.754  0.0663 -1.7165  2.2460
 6624TIP3   OH219877   1.190   1.531   1.145 -0.0366 -0.3110  0.0827
 6624TIP3    H119878   1.233   1.447   1.131  2.1532  0.5390  1.1367
 6624TIP3    H219879   1.171   1.564   1.057  2.1207 -0.4825 -0.5040
 6625TIP3   OH219880   2.465   1.139   4.493  0.4262  0.1729  0.3470
 6625TIP3    H119881   2.556   1.127   4.467  0.4355  1.4725 -0.3121
 6625TIP3    H219882   2.466   1.216   4.549 -0.0493 -0.8143  1.7640
 6626TIP3   OH219883   0.706   3.078   2.644 -0.0022 -0.0307 -0.0243
 6626TIP3    H119884   0.662   3.089   2.559 -1.3354  1.3483  0.7992
 6626TIP3    H219885   0.728   3.167   2.672  0.6841 -0.4871  0.9650
 6627TIP3   OH219886   5.058   0.272   0.690  0.3207  0.0058 -0.2544
 6627TIP3    H119887   5.075   0.182   0.662  0.8232  0.2038 -0.6135
 6627TIP3    H219888   5.009   0.311   0.618 -1.1413 -0.3818  0.5115
 6628TIP3   OH219889   1.187   0.491   1.714 -0.3036  0.3451 -0.8282
 6628TIP3    H119890   1.180   0.579   1.678 -1.2316  1.5900  2.0421
 6628TIP3    H219891   1.271   0.490   1.760 -1.4263  0.7938  1.4062
 6629TIP3   OH219892   1.795   3.001   4.966 -0.2982  0.3459 -0.4011
 6629TIP3    H119893   1.784   2.916   5.010  1.2497 -0.9141 -2.2782
 6629TIP3    H219894   1.818   3.061   5.036  1.0693 -1.3465  0.7079
 6630TIP3   OH219895   3.054   5.269   3.486 -0.5046 -0.3200  0.3679
 6630TIP3    H119896   2.979   5.224   3.447  1.0256 -0.7669 -2.2906
 6630TIP3    H219897   3.044   5.361   3.460 -0.0196 -0.4321 -0.2480
 6631TIP3   OH219898   1.011   2.007   4.120 -0.4154  0.0109 -0.0378
 6631TIP3    H119899   1.094   2.034   4.161  0.4831 -2.2182 -0.2250
 6631TIP3    H219900   1.031   2.004   4.027 -0.1042 -2.2566  0.0533
 6632TIP3   OH219901   4.678   2.348   1.609  0.0597  0.0907  0.3796
 6632TIP3    H119902   4.632   2.268   1.584  0.4647  0.0023 -0.0829
 6632TIP3    H219903   4.748   2.317   1.667 -1.3340  0.3578  2.3262
 6633TIP3   OH219904   2.516   2.169   3.130  0.1919  0.2885 -0.4334
 6633TIP3    H119905   2.568   2.118   3.067 -0.8736 -0.6716 -0.5775
 6633TIP3    H219906   2.443   2.111   3.153 -0.1994  1.1632  0.6256
 6634TIP3   OH219907   2.343   4.331   0.071  0.0364 -0.2867  0.1002
 6634TIP3    H119908   2.293   4.411   0.088 -1.1767 -1.1266  0.6388
 6634TIP3    H219909   2.434   4.357   0.079 -0.3040  1.2362 -0.6155
 6635TIP3   OH219910   1.506   1.342   0.605  0.5945 -0.0701  0.0431
 6635TIP3    H119911   1.505   1.312   0.696 -0.2829  2.4301  0.9480
 6635TIP3    H219912   1.572   1.411   0.603  0.3896  0.1142 -1.1664
 6636TIP3   OH219913   4.213   2.918   3.916  0.2787  0.5261  0.2925
 6636TIP3    H119914   4.154   2.855   3.873  1.1972  0.6033 -1.1494
 6636TIP3    H219915   4.297   2.905   3.872  0.9143  1.6004  1.1560
 6637TIP3   OH219916   6.232   3.922   4.078  1.0758 -0.6428 -0.7709
 6637TIP3    H119917   6.162   3.986   4.075  0.6676 -1.0802 -2.8990
 6637TIP3    H219918   6.212   3.866   4.153  0.6982  0.8764  0.2891
 6638TIP3   OH219919   5.709   4.206   4.107  0.0564 -0.0956 -0.3733
 6638TIP3    H119920   5.737   4.150   4.035  0.3094 -2.3324  1.3483
 6638TIP3    H219921   5.707   4.148   4.183 -0.2281  2.1443  1.4380
 6639TIP3   OH219922   5.943   0.255   0.590 -0.1645  0.4517 -0.2154
 6639TIP3    H119923   6.020   0.306   0.616 -0.0736  0.8463 -1.2041
 6639TIP3    H219924   5.943   0.259   0.495  0.9717 -3.0830 -0.4951
 6640TIP3   OH219925   0.002   1.618   1.837  0.0925  0.6362  0.5652
 6640TIP3    H119926   0.079   1.634   1.782  1.4661 -1.9013  1.5722
 6640TIP3    H219927  -0.071   1.648   1.785  1.7035  2.7605 -0.6272
   6.34883   5.98574   5.18381   0.00000   0.00000  -2.11628   0.00000  -2.11628  -2.99287
