Title
19942
    1ASP      N    1   4.288   3.552   2.907
    1ASP    HT1    2   4.368   3.520   2.849
    1ASP    HT2    3   4.316   3.641   2.953
    1ASP    HT3    4   4.206   3.569   2.846
    1ASP     CA    5   4.251   3.453   3.012
    1ASP     HA    6   4.343   3.413   3.052
    1ASP     CB    7   4.167   3.535   3.114
    1ASP    HB1    8   4.060   3.542   3.086
    1ASP    HB2    9   4.206   3.638   3.128
    1ASP     CG   10   4.179   3.473   3.251
    1ASP    OD1   11   4.281   3.403   3.274
    1ASP    OD2   12   4.096   3.505   3.338
    1ASP      C   13   4.173   3.341   2.944
    1ASP      O   14   4.080   3.369   2.870
    2ALA      N   15   4.211   3.211   2.955
    2ALA     HN   16   4.283   3.180   3.017
    2ALA     CA   17   4.145   3.110   2.873
    2ALA     HA   18   4.127   3.152   2.775
    2ALA     CB   19   4.233   2.987   2.852
    2ALA    HB1   20   4.243   2.929   2.946
    2ALA    HB2   21   4.334   3.018   2.817
    2ALA    HB3   22   4.189   2.921   2.774
    2ALA      C   23   4.007   3.071   2.924
    2ALA      O   24   3.915   3.048   2.846
    3ASP      N   25   3.989   3.076   3.057
    3ASP     HN   26   4.065   3.089   3.120
    3ASP     CA   27   3.858   3.077   3.117
    3ASP     HA   28   3.786   3.028   3.054
    3ASP     CB   29   3.856   3.013   3.258
    3ASP    HB1   30   3.753   3.018   3.299
    3ASP    HB2   31   3.923   3.074   3.323
    3ASP     CG   32   3.902   2.868   3.270
    3ASP    OD1   33   3.914   2.794   3.170
    3ASP    OD2   34   3.921   2.828   3.389
    3ASP      C   35   3.818   3.224   3.130
    3ASP      O   36   3.810   3.279   3.240
    4GLY      N   37   3.793   3.294   3.016
    4GLY     HN   38   3.813   3.249   2.929
    4GLY     CA   39   3.728   3.426   3.012
    4GLY    HA1   40   3.702   3.446   2.910
    4GLY    HA2   41   3.797   3.497   3.055
    4GLY      C   42   3.601   3.431   3.094
    4GLY      O   43   3.548   3.324   3.127
    5PRO      N   44   3.552   3.550   3.130
    5PRO     CD   45   3.554   3.664   3.038
    5PRO    HD1   46   3.555   3.632   2.932
    5PRO    HD2   47   3.643   3.727   3.061
    5PRO     CA   48   3.459   3.573   3.242
    5PRO     HA   49   3.518   3.568   3.333
    5PRO     CB   50   3.403   3.715   3.219
    5PRO    HB1   51   3.464   3.787   3.277
    5PRO    HB2   52   3.297   3.725   3.248
    5PRO     CG   53   3.424   3.739   3.069
    5PRO    HG1   54   3.341   3.692   3.013
    5PRO    HG2   55   3.429   3.847   3.043
    5PRO      C   56   3.354   3.466   3.257
    5PRO      O   57   3.281   3.441   3.161
    6GLY      N   58   3.349   3.399   3.375
    6GLY     HN   59   3.410   3.426   3.449
    6GLY     CA   60   3.264   3.282   3.401
    6GLY    HA1   61   3.264   3.266   3.507
    6GLY    HA2   62   3.304   3.199   3.344
    6GLY      C   63   3.121   3.300   3.360
    6GLY      O   64   3.066   3.408   3.381
    7ASP      N   65   3.058   3.195   3.304
    7ASP     HN   66   3.106   3.109   3.288
    7ASP     CA   67   2.921   3.199   3.254
    7ASP     HA   68   2.922   3.263   3.167
    7ASP     CB   69   2.878   3.059   3.201
    7ASP    HB1   70   2.880   2.986   3.285
    7ASP    HB2   71   2.951   3.025   3.124
    7ASP     CG   72   2.740   3.052   3.137
    7ASP    OD1   73   2.667   3.155   3.129
    7ASP    OD2   74   2.706   2.940   3.092
    7ASP      C   75   2.824   3.254   3.361
    7ASP      O   76   2.810   3.192   3.466
    8PRO      N   77   2.758   3.369   3.342
    8PRO     CD   78   2.780   3.459   3.229
    8PRO    HD1   79   2.723   3.420   3.142
    8PRO    HD2   80   2.888   3.465   3.203
    8PRO     CA   81   2.681   3.432   3.449
    8PRO     HA   82   2.744   3.436   3.536
    8PRO     CB   83   2.642   3.571   3.395
    8PRO    HB1   84   2.661   3.649   3.472
    8PRO    HB2   85   2.536   3.575   3.364
    8PRO     CG   86   2.731   3.597   3.273
    8PRO    HG1   87   2.674   3.647   3.192
    8PRO    HG2   88   2.818   3.659   3.301
    8PRO      C   89   2.560   3.349   3.481
    8PRO      O   90   2.504   3.363   3.591
    9ASP      N   91   2.516   3.266   3.386
    9ASP     HN   92   2.567   3.258   3.300
    9ASP     CA   93   2.396   3.188   3.392
    9ASP     HA   94   2.330   3.227   3.468
    9ASP     CB   95   2.327   3.195   3.253
    9ASP    HB1   96   2.235   3.134   3.253
    9ASP    HB2   97   2.396   3.157   3.175
    9ASP     CG   98   2.288   3.338   3.220
    9ASP    OD1   99   2.242   3.412   3.311
    9ASP    OD2  100   2.294   3.372   3.099
    9ASP      C  101   2.426   3.043   3.429
    9ASP      O  102   2.336   2.958   3.428
   10ALA      N  103   2.551   3.011   3.469
   10ALA     HN  104   2.624   3.078   3.463
   10ALA     CA  105   2.588   2.881   3.523
   10ALA     HA  106   2.541   2.805   3.463
   10ALA     CB  107   2.741   2.861   3.516
   10ALA    HB1  108   2.795   2.944   3.568
   10ALA    HB2  109   2.774   2.858   3.410
   10ALA    HB3  110   2.771   2.765   3.564
   10ALA      C  111   2.538   2.860   3.666
   10ALA      O  112   2.613   2.871   3.764
   11GLY      N  113   2.409   2.828   3.681
   11GLY     HN  114   2.347   2.825   3.603
   11GLY     CA  115   2.349   2.794   3.808
   11GLY    HA1  116   2.357   2.879   3.875
   11GLY    HA2  117   2.398   2.705   3.846
   11GLY      C  118   2.200   2.761   3.793
   11GLY    OT1  119   2.142   2.777   3.682
   11GLY    OT2  120   2.140   2.720   3.897
   12LIT    LIT  121   1.085   3.235   1.395
   13LIT    LIT  122   5.449   5.405   3.197
   14LIT    LIT  123   2.152   3.399   4.898
   15LIT    LIT  124   4.992   2.171   5.208
   16LIT    LIT  125   4.867   0.418   2.974
   17LIT    LIT  126   4.999   4.248   3.828
   18LIT    LIT  127   3.865   4.810   0.733
   19LIT    LIT  128   1.401   3.180   3.739
   20LIT    LIT  129   5.425   2.734   4.244
   21LIT    LIT  130   0.177   4.083   3.837
   22LIT    LIT  131   4.906   5.836   3.965
   23LIT    LIT  132   4.441   0.262   5.165
   24LIT    LIT  133   6.392   1.764   4.782
   25LIT    LIT  134   0.517   1.821   4.142
   26LIT    LIT  135   5.376   1.398   0.591
   27LIT    LIT  136   2.897   5.909   1.640
   28LIT    LIT  137   3.430   2.168   3.351
   29LIT    LIT  138   1.401   0.771   4.151
   30LIT    LIT  139   5.248   5.790   0.558
   31LIT    LIT  140   2.324   3.810   4.005
   32LIT    LIT  141   0.149   0.900   5.222
   33LIT    LIT  142   4.121   0.665   2.308
   34CLA    CLA  143   5.230   4.976   3.947
   35CLA    CLA  144   2.461   0.717   0.841
   36CLA    CLA  145   1.423   4.811   1.693
   37CLA    CLA  146   3.204   0.299   5.291
   38CLA    CLA  147   1.248   1.279   4.454
   39CLA    CLA  148   5.432   0.028   1.028
   40CLA    CLA  149   0.958   2.269   3.617
   41CLA    CLA  150   6.332   1.970   4.840
   42CLA    CLA  151   5.483   4.078   1.085
   43CLA    CLA  152   4.485   5.628   5.085
   44CLA    CLA  153   5.492   4.949   2.749
   45CLA    CLA  154   0.312   0.150   1.678
   46CLA    CLA  155   0.559   3.214   5.187
   47CLA    CLA  156   2.168   3.555   4.739
   48CLA    CLA  157   1.298   2.678   0.344
   49CLA    CLA  158   4.704   4.028   2.843
   50CLA    CLA  159   5.584   2.599   4.584
   51CLA    CLA  160   2.451   4.877   5.224
   52TIP3   OH2  161   1.564   0.587   2.290
   52TIP3    H1  162   1.551   0.492   2.282
   52TIP3    H2  163   1.489   0.616   2.343
   53TIP3   OH2  164   1.281   0.923   2.380
   53TIP3    H1  165   1.278   0.952   2.289
   53TIP3    H2  166   1.357   0.969   2.417
   54TIP3   OH2  167   1.404   0.698   2.077
   54TIP3    H1  168   1.420   0.647   1.997
   54TIP3    H2  169   1.476   0.673   2.135
   55TIP3   OH2  170   1.449   0.383   2.622
   55TIP3    H1  171   1.380   0.396   2.686
   55TIP3    H2  172   1.497   0.466   2.622
   56TIP3   OH2  173   1.317   0.652   2.397
   56TIP3    H1  174   1.244   0.618   2.345
   56TIP3    H2  175   1.306   0.747   2.395
   57TIP3   OH2  176   2.853   0.278   1.230
   57TIP3    H1  177   2.855   0.241   1.319
   57TIP3    H2  178   2.882   0.369   1.242
   58TIP3   OH2  179   2.633   0.834   1.270
   58TIP3    H1  180   2.653   0.768   1.205
   58TIP3    H2  181   2.544   0.815   1.298
   59TIP3   OH2  182   2.431   0.204   1.630
   59TIP3    H1  183   2.398   0.235   1.546
   59TIP3    H2  184   2.516   0.248   1.641
   60TIP3   OH2  185   1.193   5.755   1.604
   60TIP3    H1  186   1.258   5.823   1.622
   60TIP3    H2  187   1.224   5.712   1.525
   61TIP3   OH2  188   1.317   5.979   1.724
   61TIP3    H1  189   1.224   5.999   1.733
   61TIP3    H2  190   1.355   6.004   1.808
   62TIP3   OH2  191   2.237   0.175   1.822
   62TIP3    H1  192   2.177   0.250   1.832
   62TIP3    H2  193   2.293   0.200   1.749
   63TIP3   OH2  194   2.072   0.392   1.881
   63TIP3    H1  195   2.056   0.485   1.862
   63TIP3    H2  196   1.997   0.366   1.935
   64TIP3   OH2  197   2.902   0.566   1.371
   64TIP3    H1  198   2.812   0.561   1.403
   64TIP3    H2  199   2.907   0.651   1.327
   65TIP3   OH2  200   2.628   0.623   1.088
   65TIP3    H1  201   2.630   0.528   1.091
   65TIP3    H2  202   2.571   0.644   1.014
   66TIP3   OH2  203   3.138   0.489   1.715
   66TIP3    H1  204   3.123   0.415   1.656
   66TIP3    H2  205   3.117   0.566   1.662
   67TIP3   OH2  206   3.326   0.143   1.555
   67TIP3    H1  207   3.244   0.193   1.560
   67TIP3    H2  208   3.357   0.156   1.466
   68TIP3   OH2  209   3.009   0.042   1.874
   68TIP3    H1  210   2.997   0.123   1.923
   68TIP3    H2  211   2.930   0.032   1.822
   69TIP3   OH2  212   2.652   0.557   1.491
   69TIP3    H1  213   2.647   0.645   1.528
   69TIP3    H2  214   2.655   0.499   1.567
   70TIP3   OH2  215   2.278   0.487   2.041
   70TIP3    H1  216   2.218   0.544   2.090
   70TIP3    H2  217   2.221   0.437   1.983
   71TIP3   OH2  218   2.023   0.059   2.163
   71TIP3    H1  219   2.033   0.148   2.195
   71TIP3    H2  220   1.942   0.028   2.202
   72TIP3   OH2  221   2.072   0.642   2.144
   72TIP3    H1  222   2.049   0.661   2.053
   72TIP3    H2  223   1.988   0.628   2.187
   73TIP3   OH2  224   3.367   0.856   1.771
   73TIP3    H1  225   3.374   0.761   1.779
   73TIP3    H2  226   3.286   0.878   1.816
   74TIP3   OH2  227   2.476   0.623   1.907
   74TIP3    H1  228   2.469   0.715   1.930
   74TIP3    H2  229   2.405   0.580   1.954
   75TIP3   OH2  230   1.082   6.128   2.065
   75TIP3    H1  231   0.999   6.146   2.023
   75TIP3    H2  232   1.100   6.035   2.047
   76TIP3   OH2  233   1.865   0.366   2.063
   76TIP3    H1  234   1.922   0.362   2.140
   76TIP3    H2  235   1.792   0.308   2.083
   77TIP3   OH2  236   0.828   5.919   1.980
   77TIP3    H1  237   0.800   5.915   2.072
   77TIP3    H2  238   0.824   6.012   1.958
   78TIP3   OH2  239   0.574   6.114   2.197
   78TIP3    H1  240   0.549   6.041   2.253
   78TIP3    H2  241   0.667   6.127   2.213
   79TIP3   OH2  242   0.611   6.097   1.745
   79TIP3    H1  243   0.608   6.028   1.678
   79TIP3    H2  244   0.560   6.062   1.818
   80TIP3   OH2  245   3.072   1.188   1.867
   80TIP3    H1  246   3.065   1.209   1.773
   80TIP3    H2  247   3.149   1.237   1.896
   81TIP3   OH2  248   2.012   0.307   2.292
   81TIP3    H1  249   2.095   0.324   2.336
   81TIP3    H2  250   1.946   0.313   2.362
   82TIP3   OH2  251   3.091   0.284   1.539
   82TIP3    H1  252   3.119   0.335   1.463
   82TIP3    H2  253   3.009   0.244   1.513
   83TIP3   OH2  254   2.593   0.364   1.930
   83TIP3    H1  255   2.619   0.347   2.021
   83TIP3    H2  256   2.553   0.451   1.933
   84TIP3   OH2  257   2.500   0.115   2.220
   84TIP3    H1  258   2.454   0.087   2.140
   84TIP3    H2  259   2.589   0.083   2.208
   85TIP3   OH2  260   2.746   0.626   1.823
   85TIP3    H1  261   2.650   0.622   1.830
   85TIP3    H2  262   2.773   0.677   1.900
   86TIP3   OH2  263   3.385   0.578   1.795
   86TIP3    H1  264   3.290   0.566   1.796
   86TIP3    H2  265   3.413   0.540   1.711
   87TIP3   OH2  266   2.857   0.147   1.476
   87TIP3    H1  267   2.790   0.149   1.544
   87TIP3    H2  268   2.872   0.054   1.459
   88TIP3   OH2  269   2.274   0.695   1.720
   88TIP3    H1  270   2.302   0.764   1.661
   88TIP3    H2  271   2.356   0.658   1.753
   89TIP3   OH2  272   2.678   0.332   1.673
   89TIP3    H1  273   2.642   0.339   1.761
   89TIP3    H2  274   2.773   0.333   1.685
   90TIP3   OH2  275   2.889   0.871   1.703
   90TIP3    H1  276   2.811   0.816   1.701
   90TIP3    H2  277   2.876   0.934   1.632
   91TIP3   OH2  278   1.699   0.558   1.937
   91TIP3    H1  279   1.767   0.499   1.969
   91TIP3    H2  280   1.747   0.632   1.899
   92TIP3   OH2  281   1.636   5.817   0.729
   92TIP3    H1  282   1.590   5.873   0.667
   92TIP3    H2  283   1.600   5.730   0.714
   93TIP3   OH2  284   0.497   5.984   1.965
   93TIP3    H1  285   0.512   6.035   2.045
   93TIP3    H2  286   0.540   5.900   1.982
   94TIP3   OH2  287   1.097   5.871   1.970
   94TIP3    H1  288   1.002   5.859   1.961
   94TIP3    H2  289   1.135   5.792   1.932
   95TIP3   OH2  290   0.725   6.003   1.433
   95TIP3    H1  291   0.704   5.973   1.344
   95TIP3    H2  292   0.817   5.980   1.445
   96TIP3   OH2  293   2.941   0.830   1.303
   96TIP3    H1  294   2.893   0.883   1.239
   96TIP3    H2  295   3.033   0.853   1.290
   97TIP3   OH2  296   1.702   0.899   2.275
   97TIP3    H1  297   1.783   0.904   2.325
   97TIP3    H2  298   1.693   0.806   2.254
   98TIP3   OH2  299   2.168   0.824   2.327
   98TIP3    H1  300   2.263   0.815   2.332
   98TIP3    H2  301   2.141   0.762   2.260
   99TIP3   OH2  302   2.799   0.752   2.063
   99TIP3    H1  303   2.806   0.683   2.129
   99TIP3    H2  304   2.872   0.810   2.081
  100TIP3   OH2  305   1.817   0.266   2.493
  100TIP3    H1  306   1.861   0.183   2.474
  100TIP3    H2  307   1.737   0.241   2.539
  101TIP3   OH2  308   2.424   0.381   2.248
  101TIP3    H1  309   2.381   0.402   2.165
  101TIP3    H2  310   2.457   0.292   2.236
  102TIP3   OH2  311   2.906   0.401   1.839
  102TIP3    H1  312   2.987   0.440   1.804
  102TIP3    H2  313   2.843   0.473   1.839
  103TIP3   OH2  314   1.949   0.023   2.463
  103TIP3    H1  315   2.027  -0.018   2.427
  103TIP3    H2  316   1.973   0.046   2.553
  104TIP3   OH2  317   0.076   6.030   2.114
  104TIP3    H1  318  -0.001   6.086   2.120
  104TIP3    H2  319   0.133   6.075   2.052
  105TIP3   OH2  320   2.789   0.305   2.236
  105TIP3    H1  321   2.859   0.266   2.184
  105TIP3    H2  322   2.782   0.247   2.312
  106TIP3   OH2  323   0.203   5.850   2.263
  106TIP3    H1  324   0.152   5.774   2.234
  106TIP3    H2  325   0.170   5.923   2.209
  107TIP3   OH2  326   2.423   0.041   1.966
  107TIP3    H1  327   2.491   0.011   1.906
  107TIP3    H2  328   2.362   0.091   1.911
  108TIP3   OH2  329   0.837   6.141   2.282
  108TIP3    H1  330   0.852   6.059   2.328
  108TIP3    H2  331   0.924   6.175   2.263
  109TIP3   OH2  332   3.023   0.263   2.042
  109TIP3    H1  333   2.965   0.315   1.986
  109TIP3    H2  334   3.111   0.282   2.010
  110TIP3   OH2  335   0.092   5.968   2.496
  110TIP3    H1  336   0.034   5.895   2.514
  110TIP3    H2  337   0.130   5.948   2.411
  111TIP3   OH2  338   0.474   5.891   2.327
  111TIP3    H1  339   0.459   5.900   2.421
  111TIP3    H2  340   0.386   5.884   2.290
  112TIP3   OH2  341   0.734   5.866   2.233
  112TIP3    H1  342   0.648   5.858   2.275
  112TIP3    H2  343   0.792   5.812   2.286
  113TIP3   OH2  344   6.419   5.760   2.549
  113TIP3    H1  345   6.392   5.684   2.499
  113TIP3    H2  346   6.436   5.727   2.637
  114TIP3   OH2  347   3.198   0.920   1.283
  114TIP3    H1  348   3.210   0.952   1.373
  114TIP3    H2  349   3.216   0.996   1.228
  115TIP3   OH2  350   3.199   0.951   1.557
  115TIP3    H1  351   3.151   0.869   1.550
  115TIP3    H2  352   3.271   0.932   1.618
  116TIP3   OH2  353   3.252   0.640   2.117
  116TIP3    H1  354   3.179   0.646   2.179
  116TIP3    H2  355   3.294   0.726   2.121
  117TIP3   OH2  356   1.091   6.080   0.897
  117TIP3    H1  357   1.003   6.071   0.933
  117TIP3    H2  358   1.142   6.120   0.968
  118TIP3   OH2  359   3.254   0.413   1.360
  118TIP3    H1  360   3.313   0.357   1.310
  118TIP3    H2  361   3.237   0.488   1.302
  119TIP3   OH2  362   3.065   0.705   1.562
  119TIP3    H1  363   2.995   0.752   1.608
  119TIP3    H2  364   3.021   0.664   1.487
  120TIP3   OH2  365   3.264   0.322   1.931
  120TIP3    H1  366   3.334   0.261   1.910
  120TIP3    H2  367   3.264   0.385   1.859
  121TIP3   OH2  368   3.445   0.127   1.926
  121TIP3    H1  369   3.374   0.086   1.975
  121TIP3    H2  370   3.522   0.072   1.943
  122TIP3   OH2  371   0.996   5.950   1.455
  122TIP3    H1  372   1.078   5.978   1.413
  122TIP3    H2  373   1.006   5.979   1.546
  123TIP3   OH2  374   1.042   6.068   1.705
  123TIP3    H1  375   0.978   6.109   1.763
  123TIP3    H2  376   1.084   6.142   1.660
  124TIP3   OH2  377   2.828   0.759   0.914
  124TIP3    H1  378   2.774   0.735   0.838
  124TIP3    H2  379   2.768   0.804   0.973
  125TIP3   OH2  380   1.840   0.614   2.297
  125TIP3    H1  381   1.746   0.597   2.289
  125TIP3    H2  382   1.856   0.613   2.391
  126TIP3   OH2  383   2.048   0.668   1.869
  126TIP3    H1  384   2.000   0.744   1.837
  126TIP3    H2  385   2.135   0.676   1.829
  127TIP3   OH2  386   2.461   0.891   1.980
  127TIP3    H1  387   2.500   0.886   2.067
  127TIP3    H2  388   2.522   0.943   1.928
  128TIP3   OH2  389   2.648   1.046   1.849
  128TIP3    H1  390   2.711   0.998   1.795
  128TIP3    H2  391   2.701   1.102   1.905
  129TIP3   OH2  392   1.708   0.924   1.880
  129TIP3    H1  393   1.617   0.943   1.855
  129TIP3    H2  394   1.726   0.985   1.952
  130TIP3   OH2  395   1.955   0.905   1.766
  130TIP3    H1  396   1.865   0.916   1.796
  130TIP3    H2  397   1.946   0.877   1.675
  131TIP3   OH2  398   2.378   0.900   1.561
  131TIP3    H1  399   2.327   0.910   1.480
  131TIP3    H2  400   2.388   0.989   1.594
  132TIP3   OH2  401   2.641   0.823   1.574
  132TIP3    H1  402   2.548   0.843   1.574
  132TIP3    H2  403   2.677   0.875   1.502
  133TIP3   OH2  404   2.850   1.031   1.482
  133TIP3    H1  405   2.832   1.114   1.438
  133TIP3    H2  406   2.868   0.969   1.411
  134TIP3   OH2  407   2.199   0.531   1.449
  134TIP3    H1  408   2.216   0.542   1.356
  134TIP3    H2  409   2.146   0.608   1.473
  135TIP3   OH2  410   2.975   0.822   0.621
  135TIP3    H1  411   2.987   0.737   0.663
  135TIP3    H2  412   2.883   0.823   0.594
  136TIP3   OH2  413   3.114   0.915   1.868
  136TIP3    H1  414   3.039   0.884   1.817
  136TIP3    H2  415   3.100   1.009   1.876
  137TIP3   OH2  416   3.683   0.174   1.393
  137TIP3    H1  417   3.711   0.123   1.469
  137TIP3    H2  418   3.757   0.230   1.372
  138TIP3   OH2  419   3.662   0.585   1.104
  138TIP3    H1  420   3.645   0.491   1.106
  138TIP3    H2  421   3.754   0.592   1.079
  139TIP3   OH2  422   3.481   0.077   1.059
  139TIP3    H1  423   3.554   0.018   1.076
  139TIP3    H2  424   3.520   0.153   1.016
  140TIP3   OH2  425   4.301   1.030   0.726
  140TIP3    H1  426   4.371   0.967   0.745
  140TIP3    H2  427   4.261   1.049   0.811
  141TIP3   OH2  428   4.179   0.541   1.040
  141TIP3    H1  429   4.205   0.511   0.953
  141TIP3    H2  430   4.260   0.570   1.082
  142TIP3   OH2  431   4.050   0.448   1.272
  142TIP3    H1  432   3.990   0.513   1.307
  142TIP3    H2  433   4.089   0.490   1.195
  143TIP3   OH2  434   3.875   0.641   1.370
  143TIP3    H1  435   3.858   0.728   1.334
  143TIP3    H2  436   3.795   0.619   1.417
  144TIP3   OH2  437   3.349   0.372   0.646
  144TIP3    H1  438   3.261   0.368   0.608
  144TIP3    H2  439   3.337   0.345   0.737
  145TIP3   OH2  440   4.700   0.882   0.869
  145TIP3    H1  441   4.615   0.843   0.890
  145TIP3    H2  442   4.679   0.963   0.823
  146TIP3   OH2  443   4.928   0.727   1.171
  146TIP3    H1  444   4.930   0.676   1.089
  146TIP3    H2  445   4.907   0.816   1.143
  147TIP3   OH2  446   4.748   0.222   1.378
  147TIP3    H1  447   4.771   0.297   1.433
  147TIP3    H2  448   4.700   0.261   1.304
  148TIP3   OH2  449   3.910   0.630   0.984
  148TIP3    H1  450   3.887   0.617   0.892
  148TIP3    H2  451   4.001   0.603   0.991
  149TIP3   OH2  452   3.911   0.223   1.201
  149TIP3    H1  453   3.978   0.172   1.156
  149TIP3    H2  454   3.957   0.301   1.233
  150TIP3   OH2  455   4.447   0.832   0.969
  150TIP3    H1  456   4.440   0.913   1.019
  150TIP3    H2  457   4.433   0.762   1.033
  151TIP3   OH2  458   4.072   0.748   1.532
  151TIP3    H1  459   4.012   0.810   1.573
  151TIP3    H2  460   4.016   0.695   1.475
  152TIP3   OH2  461   3.816   0.330   1.629
  152TIP3    H1  462   3.811   0.416   1.671
  152TIP3    H2  463   3.729   0.292   1.642
  153TIP3   OH2  464   4.134   0.826   0.615
  153TIP3    H1  465   4.183   0.904   0.642
  153TIP3    H2  466   4.095   0.850   0.531
  154TIP3   OH2  467   3.864   0.907   1.620
  154TIP3    H1  468   3.839   0.917   1.528
  154TIP3    H2  469   3.782   0.889   1.665
  155TIP3   OH2  470   3.447   0.458   1.559
  155TIP3    H1  471   3.379   0.440   1.494
  155TIP3    H2  472   3.481   0.372   1.583
  156TIP3   OH2  473   3.301   0.661   1.229
  156TIP3    H1  474   3.397   0.670   1.226
  156TIP3    H2  475   3.271   0.741   1.271
  157TIP3   OH2  476   5.160   1.080   1.292
  157TIP3    H1  477   5.150   0.992   1.327
  157TIP3    H2  478   5.077   1.123   1.311
  158TIP3   OH2  479   4.263   0.882   1.384
  158TIP3    H1  480   4.259   0.974   1.411
  158TIP3    H2  481   4.194   0.840   1.436
  159TIP3   OH2  482   4.073   1.037   0.356
  159TIP3    H1  483   4.018   0.997   0.289
  159TIP3    H2  484   4.030   1.120   0.375
  160TIP3   OH2  485   3.497   0.886   0.746
  160TIP3    H1  486   3.540   0.864   0.828
  160TIP3    H2  487   3.451   0.806   0.720
  161TIP3   OH2  488   3.646   0.644   1.527
  161TIP3    H1  489   3.694   0.630   1.609
  161TIP3    H2  490   3.573   0.581   1.531
  162TIP3   OH2  491   3.952  -0.014   1.349
  162TIP3    H1  492   3.886  -0.038   1.414
  162TIP3    H2  493   3.915   0.060   1.302
  163TIP3   OH2  494   4.535   0.254   1.675
  163TIP3    H1  495   4.510   0.175   1.724
  163TIP3    H2  496   4.629   0.263   1.693
  164TIP3   OH2  497   3.802   0.025   1.590
  164TIP3    H1  498   3.885   0.067   1.612
  164TIP3    H2  499   3.807  -0.061   1.631
  165TIP3   OH2  500   4.867   1.445   1.360
  165TIP3    H1  501   4.856   1.471   1.268
  165TIP3    H2  502   4.947   1.490   1.388
  166TIP3   OH2  503   3.798   0.574   1.756
  166TIP3    H1  504   3.864   0.636   1.787
  166TIP3    H2  505   3.736   0.566   1.829
  167TIP3   OH2  506   4.382   0.617   1.414
  167TIP3    H1  507   4.421   0.604   1.500
  167TIP3    H2  508   4.343   0.705   1.419
  168TIP3   OH2  509   3.674   0.297   1.072
  168TIP3    H1  510   3.725   0.316   0.993
  168TIP3    H2  511   3.739   0.265   1.135
  169TIP3   OH2  512   3.557   0.238   1.690
  169TIP3    H1  513   3.561   0.222   1.784
  169TIP3    H2  514   3.490   0.177   1.659
  170TIP3   OH2  515   4.289   0.372   1.716
  170TIP3    H1  516   4.237   0.341   1.642
  170TIP3    H2  517   4.378   0.342   1.697
  171TIP3   OH2  518   4.538   0.874   1.312
  171TIP3    H1  519   4.443   0.873   1.318
  171TIP3    H2  520   4.566   0.929   1.386
  172TIP3   OH2  521   5.171   0.774   1.294
  172TIP3    H1  522   5.081   0.771   1.263
  172TIP3    H2  523   5.223   0.794   1.215
  173TIP3   OH2  524   3.796   0.622   0.728
  173TIP3    H1  525   3.794   0.705   0.682
  173TIP3    H2  526   3.733   0.567   0.682
  174TIP3   OH2  527   4.072   0.961   1.177
  174TIP3    H1  528   4.108   1.033   1.125
  174TIP3    H2  529   4.147   0.927   1.226
  175TIP3   OH2  530   3.716   0.850   0.582
  175TIP3    H1  531   3.635   0.869   0.629
  175TIP3    H2  532   3.754   0.936   0.565
  176TIP3   OH2  533   4.430   0.605   1.145
  176TIP3    H1  534   4.412   0.605   1.239
  176TIP3    H2  535   4.522   0.582   1.137
  177TIP3   OH2  536   4.669   1.127   1.202
  177TIP3    H1  537   4.592   1.073   1.188
  177TIP3    H2  538   4.664   1.194   1.134
  178TIP3   OH2  539   1.619   5.885   1.817
  178TIP3    H1  540   1.531   5.851   1.800
  178TIP3    H2  541   1.677   5.834   1.761
  179TIP3   OH2  542   3.509   0.838   1.348
  179TIP3    H1  543   3.559   0.775   1.399
  179TIP3    H2  544   3.522   0.922   1.393
  180TIP3   OH2  545   4.439   0.109   1.456
  180TIP3    H1  546   4.474   0.170   1.521
  180TIP3    H2  547   4.511   0.049   1.438
  181TIP3   OH2  548   4.655   1.134   0.773
  181TIP3    H1  549   4.614   1.175   0.697
  181TIP3    H2  550   4.745   1.166   0.772
  182TIP3   OH2  551   3.364   0.666   0.651
  182TIP3    H1  552   3.288   0.608   0.654
  182TIP3    H2  553   3.395   0.662   0.561
  183TIP3   OH2  554   3.488   1.148   1.758
  183TIP3    H1  555   3.571   1.149   1.805
  183TIP3    H2  556   3.463   1.056   1.755
  184TIP3   OH2  557   3.955   1.045   1.845
  184TIP3    H1  558   4.048   1.067   1.835
  184TIP3    H2  559   3.931   1.004   1.762
  185TIP3   OH2  560   4.591   1.009   1.547
  185TIP3    H1  561   4.595   0.939   1.612
  185TIP3    H2  562   4.666   1.065   1.568
  186TIP3   OH2  563   3.609   0.549   1.958
  186TIP3    H1  564   3.628   0.456   1.961
  186TIP3    H2  565   3.523   0.555   1.916
  187TIP3   OH2  566   4.212   0.639   1.742
  187TIP3    H1  567   4.169   0.662   1.659
  187TIP3    H2  568   4.246   0.551   1.728
  188TIP3   OH2  569   4.710   0.652   1.336
  188TIP3    H1  570   4.783   0.682   1.283
  188TIP3    H2  571   4.645   0.721   1.330
  189TIP3   OH2  572   3.735   0.300   1.947
  189TIP3    H1  573   3.797   0.237   1.913
  189TIP3    H2  574   3.766   0.319   2.036
  190TIP3   OH2  575   4.035   0.175   1.615
  190TIP3    H1  576   3.963   0.238   1.621
  190TIP3    H2  577   4.091   0.208   1.545
  191TIP3   OH2  578   4.592   0.559   1.722
  191TIP3    H1  579   4.657   0.518   1.666
  191TIP3    H2  580   4.579   0.496   1.794
  192TIP3   OH2  581   2.030   6.117   1.722
  192TIP3    H1  582   2.048   6.046   1.659
  192TIP3    H2  583   1.976   6.179   1.673
  193TIP3   OH2  584   4.212   0.297   1.452
  193TIP3    H1  585   4.280   0.246   1.409
  193TIP3    H2  586   4.175   0.351   1.382
  194TIP3   OH2  587   4.789   0.263   1.779
  194TIP3    H1  588   4.809   0.176   1.813
  194TIP3    H2  589   4.873   0.297   1.750
  195TIP3   OH2  590   4.835   0.499   1.527
  195TIP3    H1  591   4.780   0.552   1.469
  195TIP3    H2  592   4.922   0.505   1.489
  196TIP3   OH2  593   4.096   0.124   1.957
  196TIP3    H1  594   4.022   0.065   1.972
  196TIP3    H2  595   4.121   0.109   1.866
  197TIP3   OH2  596   4.462   0.027   1.805
  197TIP3    H1  597   4.441   0.047   1.896
  197TIP3    H2  598   4.378   0.001   1.766
  198TIP3   OH2  599   2.547   6.081   1.714
  198TIP3    H1  600   2.459   6.104   1.743
  198TIP3    H2  601   2.583   6.030   1.787
  199TIP3   OH2  602   1.730   6.070   1.983
  199TIP3    H1  603   1.710   5.984   1.945
  199TIP3    H2  604   1.761   6.050   2.072
  200TIP3   OH2  605   3.133   0.980   0.805
  200TIP3    H1  606   3.055   0.948   0.760
  200TIP3    H2  607   3.148   0.918   0.876
  201TIP3   OH2  608   3.216   0.814   1.004
  201TIP3    H1  609   3.199   0.764   1.084
  201TIP3    H2  610   3.287   0.873   1.027
  202TIP3   OH2  611   4.889   1.260   0.763
  202TIP3    H1  612   4.966   1.245   0.818
  202TIP3    H2  613   4.924   1.302   0.684
  203TIP3   OH2  614   4.926   1.238   1.096
  203TIP3    H1  615   4.897   1.148   1.107
  203TIP3    H2  616   5.001   1.232   1.036
  204TIP3   OH2  617   5.054   0.894   1.601
  204TIP3    H1  618   4.982   0.900   1.664
  204TIP3    H2  619   5.096   0.980   1.604
  205TIP3   OH2  620   4.857   0.968   1.071
  205TIP3    H1  621   4.780   1.002   1.117
  205TIP3    H2  622   4.823   0.932   0.989
  206TIP3   OH2  623   3.432   0.206   1.303
  206TIP3    H1  624   3.445   0.177   1.212
  206TIP3    H2  625   3.520   0.206   1.341
  207TIP3   OH2  626   5.094   0.533   1.415
  207TIP3    H1  627   5.121   0.463   1.355
  207TIP3    H2  628   5.115   0.614   1.369
  208TIP3   OH2  629   1.448   6.059   1.969
  208TIP3    H1  630   1.542   6.051   1.954
  208TIP3    H2  631   1.423   5.974   2.006
  209TIP3   OH2  632   1.253   6.005   1.382
  209TIP3    H1  633   1.324   5.966   1.331
  209TIP3    H2  634   1.297   6.068   1.439
  210TIP3   OH2  635   3.645   0.862   1.787
  210TIP3    H1  636   3.554   0.850   1.762
  210TIP3    H2  637   3.644   0.861   1.883
  211TIP3   OH2  638   3.848   0.918   1.335
  211TIP3    H1  639   3.790   0.987   1.301
  211TIP3    H2  640   3.930   0.930   1.286
  212TIP3   OH2  641   4.256   1.150   1.459
  212TIP3    H1  642   4.294   1.146   1.547
  212TIP3    H2  643   4.319   1.202   1.408
  213TIP3   OH2  644   4.446   1.304   1.333
  213TIP3    H1  645   4.514   1.253   1.289
  213TIP3    H2  646   4.495   1.363   1.391
  214TIP3   OH2  647   3.505   1.159   1.375
  214TIP3    H1  648   3.415   1.174   1.347
  214TIP3    H2  649   3.522   1.229   1.438
  215TIP3   OH2  650   3.735   1.144   1.222
  215TIP3    H1  651   3.651   1.150   1.267
  215TIP3    H2  652   3.716   1.173   1.132
  216TIP3   OH2  653   4.163   1.164   0.998
  216TIP3    H1  654   4.084   1.176   0.946
  216TIP3    H2  655   4.175   1.247   1.043
  217TIP3   OH2  656   4.423   1.095   1.062
  217TIP3    H1  657   4.332   1.117   1.043
  217TIP3    H2  658   4.473   1.171   1.029
  218TIP3   OH2  659   4.607   1.297   0.990
  218TIP3    H1  660   4.603   1.386   0.956
  218TIP3    H2  661   4.631   1.243   0.914
  219TIP3   OH2  662   3.431   0.956   1.104
  219TIP3    H1  663   3.445   0.925   1.194
  219TIP3    H2  664   3.501   0.916   1.053
  220TIP3   OH2  665   3.627   0.826   0.976
  220TIP3    H1  666   3.636   0.741   1.019
  220TIP3    H2  667   3.717   0.860   0.971
  221TIP3   OH2  668   3.892   0.919   0.966
  221TIP3    H1  669   3.910   0.827   0.944
  221TIP3    H2  670   3.942   0.934   1.046
  222TIP3   OH2  671   3.146   0.614   0.472
  222TIP3    H1  672   3.058   0.651   0.477
  222TIP3    H2  673   3.190   0.666   0.403
  223TIP3   OH2  674   3.229   0.681   0.213
  223TIP3    H1  675   3.184   0.763   0.233
  223TIP3    H2  676   3.160   0.623   0.180
  224TIP3   OH2  677   4.900   1.167   1.377
  224TIP3    H1  678   4.827   1.138   1.322
  224TIP3    H2  679   4.899   1.262   1.370
  225TIP3   OH2  680   5.586   1.339   1.155
  225TIP3    H1  681   5.606   1.323   1.063
  225TIP3    H2  682   5.523   1.272   1.178
  226TIP3   OH2  683   5.599   0.849   1.303
  226TIP3    H1  684   5.659   0.775   1.314
  226TIP3    H2  685   5.526   0.829   1.363
  227TIP3   OH2  686   5.114   1.190   0.915
  227TIP3    H1  687   5.160   1.110   0.943
  227TIP3    H2  688   5.179   1.259   0.923
  228TIP3   OH2  689   5.281   1.408   1.249
  228TIP3    H1  690   5.358   1.410   1.306
  228TIP3    H2  691   5.265   1.315   1.232
  229TIP3   OH2  692   5.745   1.331   1.381
  229TIP3    H1  693   5.834   1.360   1.361
  229TIP3    H2  694   5.700   1.329   1.296
  230TIP3   OH2  695   5.390   0.806   1.479
  230TIP3    H1  696   5.404   0.728   1.534
  230TIP3    H2  697   5.306   0.789   1.436
  231TIP3   OH2  698   5.427   1.139   1.258
  231TIP3    H1  699   5.336   1.112   1.261
  231TIP3    H2  700   5.469   1.091   1.330
  232TIP3   OH2  701   5.303   1.381   0.929
  232TIP3    H1  702   5.260   1.434   0.862
  232TIP3    H2  703   5.348   1.444   0.985
  233TIP3   OH2  704   5.505   1.321   0.709
  233TIP3    H1  705   5.486   1.333   0.802
  233TIP3    H2  706   5.593   1.355   0.697
  234TIP3   OH2  707   1.344   1.322   1.906
  234TIP3    H1  708   1.269   1.366   1.865
  234TIP3    H2  709   1.370   1.380   1.978
  235TIP3   OH2  710   0.768   2.174   1.544
  235TIP3    H1  711   0.682   2.146   1.576
  235TIP3    H2  712   0.749   2.249   1.488
  236TIP3   OH2  713   0.970   2.047   1.873
  236TIP3    H1  714   0.957   1.976   1.810
  236TIP3    H2  715   0.957   2.127   1.822
  237TIP3   OH2  716   1.156   1.692   1.723
  237TIP3    H1  717   1.073   1.739   1.727
  237TIP3    H2  718   1.191   1.712   1.637
  238TIP3   OH2  719   0.856   1.571   2.028
  238TIP3    H1  720   0.860   1.643   2.091
  238TIP3    H2  721   0.788   1.596   1.965
  239TIP3   OH2  722   0.532   2.133   1.675
  239TIP3    H1  723   0.509   2.224   1.693
  239TIP3    H2  724   0.519   2.087   1.758
  240TIP3   OH2  725   0.117   2.044   2.188
  240TIP3    H1  726   0.062   2.120   2.209
  240TIP3    H2  727   0.056   1.980   2.150
  241TIP3   OH2  728   6.441   2.250   2.236
  241TIP3    H1  729   6.376   2.295   2.182
  241TIP3    H2  730   6.390   2.215   2.310
  242TIP3   OH2  731   1.208   2.409   1.923
  242TIP3    H1  732   1.213   2.313   1.933
  242TIP3    H2  733   1.127   2.433   1.968
  243TIP3   OH2  734   0.321   2.185   2.067
  243TIP3    H1  735   0.306   2.276   2.092
  243TIP3    H2  736   0.249   2.136   2.106
  244TIP3   OH2  737   1.094   1.526   2.207
  244TIP3    H1  738   1.021   1.526   2.145
  244TIP3    H2  739   1.118   1.433   2.215
  245TIP3   OH2  740   0.870   1.302   2.107
  245TIP3    H1  741   0.814   1.279   2.180
  245TIP3    H2  742   0.840   1.389   2.080
  246TIP3   OH2  743   0.574   1.530   2.349
  246TIP3    H1  744   0.551   1.445   2.386
  246TIP3    H2  745   0.669   1.536   2.359
  247TIP3   OH2  746   0.911   2.751   2.021
  247TIP3    H1  747   0.910   2.764   1.926
  247TIP3    H2  748   0.991   2.795   2.050
  248TIP3   OH2  749   6.384   1.808   2.467
  248TIP3    H1  750   6.459   1.841   2.516
  248TIP3    H2  751   6.310   1.861   2.497
  249TIP3   OH2  752   0.929   1.847   1.685
  249TIP3    H1  753   0.973   1.895   1.615
  249TIP3    H2  754   0.839   1.836   1.654
  250TIP3   OH2  755   0.471   1.946   2.130
  250TIP3    H1  756   0.508   1.935   2.218
  250TIP3    H2  757   0.432   2.034   2.131
  251TIP3   OH2  758   0.342   1.673   2.380
  251TIP3    H1  759   0.281   1.626   2.323
  251TIP3    H2  760   0.428   1.636   2.360
  252TIP3   OH2  761   0.581   2.200   1.965
  252TIP3    H1  762   0.487   2.190   1.981
  252TIP3    H2  763   0.615   2.238   2.046
  253TIP3   OH2  764   1.222   2.127   1.950
  253TIP3    H1  765   1.128   2.113   1.953
  253TIP3    H2  766   1.249   2.093   1.864
  254TIP3   OH2  767   0.116   2.282   1.872
  254TIP3    H1  768   0.157   2.338   1.806
  254TIP3    H2  769   0.189   2.235   1.912
  255TIP3   OH2  770   0.412   1.850   1.878
  255TIP3    H1  771   0.427   1.888   1.965
  255TIP3    H2  772   0.433   1.757   1.890
  256TIP3   OH2  773   0.728   2.433   1.866
  256TIP3    H1  774   0.661   2.365   1.870
  256TIP3    H2  775   0.704   2.487   1.792
  257TIP3   OH2  776   1.136   1.258   2.116
  257TIP3    H1  777   1.041   1.256   2.114
  257TIP3    H2  778   1.161   1.278   2.025
  258TIP3   OH2  779   0.752   2.434   1.433
  258TIP3    H1  780   0.706   2.479   1.362
  258TIP3    H2  781   0.845   2.453   1.417
  259TIP3   OH2  782   6.083   2.398   2.429
  259TIP3    H1  783   6.169   2.426   2.460
  259TIP3    H2  784   6.042   2.479   2.397
  260TIP3   OH2  785   0.050   2.389   2.454
  260TIP3    H1  786   0.135   2.351   2.472
  260TIP3    H2  787   0.023   2.349   2.371
  261TIP3   OH2  788   0.642   2.308   2.210
  261TIP3    H1  789   0.643   2.238   2.276
  261TIP3    H2  790   0.717   2.363   2.232
  262TIP3   OH2  791   0.279   1.948   2.394
  262TIP3    H1  792   0.231   1.967   2.313
  262TIP3    H2  793   0.313   1.860   2.381
  263TIP3   OH2  794   0.751   1.930   2.005
  263TIP3    H1  795   0.816   1.986   1.964
  263TIP3    H2  796   0.670   1.981   2.003
  264TIP3   OH2  797   0.626   1.860   2.381
  264TIP3    H1  798   0.699   1.823   2.330
  264TIP3    H2  799   0.620   1.803   2.458
  265TIP3   OH2  800   0.843   1.535   2.441
  265TIP3    H1  801   0.878   1.446   2.445
  265TIP3    H2  802   0.915   1.587   2.406
  266TIP3   OH2  803   0.884   1.793   2.194
  266TIP3    H1  804   0.828   1.844   2.136
  266TIP3    H2  805   0.973   1.809   2.163
  267TIP3   OH2  806   0.505   1.299   2.492
  267TIP3    H1  807   0.529   1.304   2.585
  267TIP3    H2  808   0.413   1.274   2.492
  268TIP3   OH2  809   0.736   1.250   2.339
  268TIP3    H1  810   0.659   1.254   2.395
  268TIP3    H2  811   0.808   1.227   2.398
  269TIP3   OH2  812   0.958   1.218   2.505
  269TIP3    H1  813   0.981   1.126   2.511
  269TIP3    H2  814   0.959   1.249   2.595
  270TIP3   OH2  815   0.522   1.018   2.687
  270TIP3    H1  816   0.517   0.988   2.596
  270TIP3    H2  817   0.450   1.080   2.697
  271TIP3   OH2  818   1.016   2.513   1.422
  271TIP3    H1  819   1.048   2.521   1.512
  271TIP3    H2  820   1.093   2.532   1.367
  272TIP3   OH2  821   1.063   2.516   1.699
  272TIP3    H1  822   1.013   2.435   1.701
  272TIP3    H2  823   1.136   2.501   1.759
  273TIP3   OH2  824   1.088   2.201   2.267
  273TIP3    H1  825   1.019   2.209   2.334
  273TIP3    H2  826   1.134   2.285   2.271
  274TIP3   OH2  827   1.091   1.968   1.504
  274TIP3    H1  828   1.147   1.904   1.459
  274TIP3    H2  829   1.049   2.017   1.433
  275TIP3   OH2  830   0.923   2.282   1.735
  275TIP3    H1  831   0.854   2.324   1.786
  275TIP3    H2  832   0.878   2.241   1.661
  276TIP3   OH2  833   1.130   1.852   2.086
  276TIP3    H1  834   1.198   1.786   2.070
  276TIP3    H2  835   1.139   1.914   2.014
  277TIP3   OH2  836   1.309   1.646   2.081
  277TIP3    H1  837   1.234   1.602   2.122
  277TIP3    H2  838   1.384   1.590   2.102
  278TIP3   OH2  839   1.104   1.467   1.882
  278TIP3    H1  840   1.015   1.485   1.911
  278TIP3    H2  841   1.125   1.539   1.823
  279TIP3   OH2  842   1.527   1.065   2.404
  279TIP3    H1  843   1.590   1.008   2.359
  279TIP3    H2  844   1.490   1.119   2.334
  280TIP3   OH2  845   1.387   1.192   2.209
  280TIP3    H1  846   1.300   1.231   2.218
  280TIP3    H2  847   1.375   1.118   2.150
  281TIP3   OH2  848   6.309   2.159   2.450
  281TIP3    H1  849   6.217   2.134   2.452
  281TIP3    H2  850   6.338   2.148   2.541
  282TIP3   OH2  851   0.307   2.455   2.131
  282TIP3    H1  852   0.346   2.448   2.218
  282TIP3    H2  853   0.370   2.504   2.080
  283TIP3   OH2  854   0.495   2.605   1.996
  283TIP3    H1  855   0.561   2.548   1.957
  283TIP3    H2  856   0.545   2.663   2.054
  284TIP3   OH2  857   1.306   0.953   2.091
  284TIP3    H1  858   1.216   0.945   2.058
  284TIP3    H2  859   1.341   0.864   2.086
  285TIP3   OH2  860   0.218   2.467   1.687
  285TIP3    H1  861   0.172   2.477   1.603
  285TIP3    H2  862   0.223   2.556   1.722
  286TIP3   OH2  863   0.482   2.402   1.723
  286TIP3    H1  864   0.388   2.418   1.715
  286TIP3    H2  865   0.522   2.478   1.680
  287TIP3   OH2  866   0.680   2.599   1.641
  287TIP3    H1  867   0.666   2.683   1.598
  287TIP3    H2  868   0.706   2.539   1.571
  288TIP3   OH2  869   1.047   0.962   2.536
  288TIP3    H1  870   1.063   0.925   2.622
  288TIP3    H2  871   1.124   0.938   2.485
  289TIP3   OH2  872   0.957   2.478   2.023
  289TIP3    H1  873   0.879   2.449   1.977
  289TIP3    H2  874   0.944   2.572   2.034
  290TIP3   OH2  875   2.264   1.870   0.833
  290TIP3    H1  876   2.256   1.963   0.811
  290TIP3    H2  877   2.179   1.833   0.810
  291TIP3   OH2  878   2.241   1.865   1.188
  291TIP3    H1  879   2.287   1.860   1.272
  291TIP3    H2  880   2.202   1.779   1.177
  292TIP3   OH2  881   1.527   1.731   1.560
  292TIP3    H1  882   1.553   1.652   1.606
  292TIP3    H2  883   1.593   1.796   1.584
  293TIP3   OH2  884   2.486   2.154   0.863
  293TIP3    H1  885   2.477   2.091   0.935
  293TIP3    H2  886   2.512   2.235   0.906
  294TIP3   OH2  887   1.518   2.166   1.247
  294TIP3    H1  888   1.515   2.080   1.289
  294TIP3    H2  889   1.611   2.184   1.234
  295TIP3   OH2  890   2.134   2.607   0.874
  295TIP3    H1  891   2.175   2.544   0.815
  295TIP3    H2  892   2.130   2.561   0.958
  296TIP3   OH2  893   2.039   2.079   1.212
  296TIP3    H1  894   2.074   2.003   1.165
  296TIP3    H2  895   2.116   2.129   1.238
  297TIP3   OH2  896   3.060   1.394   1.209
  297TIP3    H1  897   3.080   1.480   1.246
  297TIP3    H2  898   3.079   1.403   1.116
  298TIP3   OH2  899   2.468   1.580   1.260
  298TIP3    H1  900   2.498   1.490   1.266
  298TIP3    H2  901   2.412   1.581   1.182
  299TIP3   OH2  902   1.688   1.325   1.204
  299TIP3    H1  903   1.662   1.360   1.119
  299TIP3    H2  904   1.672   1.231   1.197
  300TIP3   OH2  905   2.602   1.445   0.905
  300TIP3    H1  906   2.641   1.384   0.969
  300TIP3    H2  907   2.675   1.466   0.846
  301TIP3   OH2  908   1.444   1.391   1.326
  301TIP3    H1  909   1.485   1.377   1.411
  301TIP3    H2  910   1.510   1.361   1.263
  302TIP3   OH2  911   1.811   1.589   1.187
  302TIP3    H1  912   1.898   1.570   1.152
  302TIP3    H2  913   1.777   1.504   1.214
  303TIP3   OH2  914   3.125   1.615   1.375
  303TIP3    H1  915   3.036   1.650   1.364
  303TIP3    H2  916   3.154   1.650   1.460
  304TIP3   OH2  917   1.779   1.192   1.662
  304TIP3    H1  918   1.730   1.238   1.594
  304TIP3    H2  919   1.731   1.211   1.743
  305TIP3   OH2  920   2.168   2.089   0.700
  305TIP3    H1  921   2.112   2.047   0.634
  305TIP3    H2  922   2.126   2.174   0.716
  306TIP3   OH2  923   1.890   2.010   1.430
  306TIP3    H1  924   1.827   2.078   1.455
  306TIP3    H2  925   1.938   2.048   1.356
  307TIP3   OH2  926   2.731   1.304   1.095
  307TIP3    H1  927   2.664   1.299   1.163
  307TIP3    H2  928   2.769   1.392   1.105
  308TIP3   OH2  929   1.669   1.346   1.475
  308TIP3    H1  930   1.724   1.420   1.501
  308TIP3    H2  931   1.681   1.340   1.380
  309TIP3   OH2  932   1.711   2.200   1.522
  309TIP3    H1  933   1.695   2.287   1.485
  309TIP3    H2  934   1.633   2.182   1.575
  310TIP3   OH2  935   2.536   2.403   1.000
  310TIP3    H1  936   2.449   2.393   1.039
  310TIP3    H2  937   2.532   2.486   0.953
  311TIP3   OH2  938   2.858   1.295   1.382
  311TIP3    H1  939   2.769   1.310   1.348
  311TIP3    H2  940   2.916   1.317   1.309
  312TIP3   OH2  941   2.152   0.954   1.391
  312TIP3    H1  942   2.158   0.859   1.378
  312TIP3    H2  943   2.076   0.965   1.449
  313TIP3   OH2  944   2.251   2.447   0.686
  313TIP3    H1  945   2.303   2.368   0.670
  313TIP3    H2  946   2.297   2.516   0.638
  314TIP3   OH2  947   2.408   2.239   0.612
  314TIP3    H1  948   2.414   2.162   0.556
  314TIP3    H2  949   2.431   2.207   0.699
  315TIP3   OH2  950   2.767   2.301   1.347
  315TIP3    H1  951   2.752   2.226   1.290
  315TIP3    H2  952   2.750   2.377   1.290
  316TIP3   OH2  953   2.045   1.799   0.682
  316TIP3    H1  954   1.982   1.839   0.622
  316TIP3    H2  955   2.115   1.766   0.626
  317TIP3   OH2  956   2.957   1.955   1.208
  317TIP3    H1  957   2.872   2.000   1.209
  317TIP3    H2  958   2.990   1.969   1.119
  318TIP3   OH2  959   2.465   1.855   0.646
  318TIP3    H1  960   2.420   1.879   0.728
  318TIP3    H2  961   2.545   1.812   0.675
  319TIP3   OH2  962   2.643   1.820   1.511
  319TIP3    H1  963   2.642   1.902   1.560
  319TIP3    H2  964   2.559   1.818   1.466
  320TIP3   OH2  965   1.576   1.636   1.021
  320TIP3    H1  966   1.534   1.722   1.023
  320TIP3    H2  967   1.657   1.647   1.071
  321TIP3   OH2  968   1.787   2.197   1.188
  321TIP3    H1  969   1.775   2.184   1.094
  321TIP3    H2  970   1.876   2.166   1.205
  322TIP3   OH2  971   1.776   1.767   1.391
  322TIP3    H1  972   1.803   1.727   1.308
  322TIP3    H2  973   1.825   1.849   1.395
  323TIP3   OH2  974   2.299   2.394   1.133
  323TIP3    H1  975   2.287   2.473   1.186
  323TIP3    H2  976   2.287   2.322   1.195
  324TIP3   OH2  977   1.916   2.303   1.678
  324TIP3    H1  978   1.857   2.362   1.725
  324TIP3    H2  979   1.858   2.250   1.623
  325TIP3   OH2  980   2.280   1.718   0.311
  325TIP3    H1  981   2.266   1.733   0.405
  325TIP3    H2  982   2.203   1.668   0.283
  326TIP3   OH2  983   1.662   1.863   1.787
  326TIP3    H1  984   1.670   1.951   1.822
  326TIP3    H2  985   1.571   1.839   1.803
  327TIP3   OH2  986   2.012   2.317   0.675
  327TIP3    H1  987   2.088   2.376   0.678
  327TIP3    H2  988   1.940   2.373   0.648
  328TIP3   OH2  989   1.706   2.463   1.762
  328TIP3    H1  990   1.679   2.470   1.670
  328TIP3    H2  991   1.625   2.446   1.809
  329TIP3   OH2  992   2.643   2.263   0.083
  329TIP3    H1  993   2.585   2.297   0.015
  329TIP3    H2  994   2.710   2.214   0.036
  330TIP3   OH2  995   1.287   2.011   1.711
  330TIP3    H1  996   1.223   1.991   1.643
  330TIP3    H2  997   1.321   1.925   1.737
  331TIP3   OH2  998   1.154   2.217   1.333
  331TIP3    H1  999   1.248   2.199   1.331
  331TIP3    H2 1000   1.140   2.263   1.416
  332TIP3   OH2 1001   3.001   2.659   1.407
  332TIP3    H1 1002   3.006   2.564   1.419
  332TIP3    H2 1003   2.921   2.685   1.453
  333TIP3   OH2 1004   2.107   2.439   1.537
  333TIP3    H1 1005   2.103   2.530   1.565
  333TIP3    H2 1006   2.040   2.395   1.588
  334TIP3   OH2 1007   1.878   2.543   0.522
  334TIP3    H1 1008   1.842   2.513   0.438
  334TIP3    H2 1009   1.847   2.633   0.530
  335TIP3   OH2 1010   1.360   2.503   0.904
  335TIP3    H1 1011   1.411   2.480   0.981
  335TIP3    H2 1012   1.324   2.419   0.873
  336TIP3   OH2 1013   2.081   2.534   0.144
  336TIP3    H1 1014   2.094   2.474   0.070
  336TIP3    H2 1015   2.146   2.507   0.209
  337TIP3   OH2 1016   2.136   2.557   0.431
  337TIP3    H1 1017   2.051   2.549   0.474
  337TIP3    H2 1018   2.167   2.466   0.423
  338TIP3   OH2 1019   2.889   1.776   1.679
  338TIP3    H1 1020   2.807   1.787   1.630
  338TIP3    H2 1021   2.908   1.682   1.671
  339TIP3   OH2 1022   1.491   2.195   1.687
  339TIP3    H1 1023   1.542   2.185   1.767
  339TIP3    H2 1024   1.420   2.131   1.696
  340TIP3   OH2 1025   1.903   1.007   1.501
  340TIP3    H1 1026   1.827   0.970   1.458
  340TIP3    H2 1027   1.867   1.069   1.565
  341TIP3   OH2 1028   2.430   1.136   1.694
  341TIP3    H1 1029   2.497   1.108   1.756
  341TIP3    H2 1030   2.347   1.120   1.738
  342TIP3   OH2 1031   2.655   1.558   1.607
  342TIP3    H1 1032   2.609   1.556   1.691
  342TIP3    H2 1033   2.634   1.643   1.570
  343TIP3   OH2 1034   2.410   1.589   0.094
  343TIP3    H1 1035   2.339   1.595   0.030
  343TIP3    H2 1036   2.428   1.680   0.118
  344TIP3   OH2 1037   1.838   1.549   1.534
  344TIP3    H1 1038   1.789   1.561   1.615
  344TIP3    H2 1039   1.822   1.629   1.484
  345TIP3   OH2 1040   2.163   1.523   0.809
  345TIP3    H1 1041   2.111   1.595   0.773
  345TIP3    H2 1042   2.221   1.498   0.737
  346TIP3   OH2 1043   2.369   1.769   1.831
  346TIP3    H1 1044   2.343   1.699   1.891
  346TIP3    H2 1045   2.462   1.783   1.850
  347TIP3   OH2 1046   2.348   1.582   1.015
  347TIP3    H1 1047   2.265   1.595   0.969
  347TIP3    H2 1048   2.374   1.493   0.993
  348TIP3   OH2 1049   1.648   1.547   1.732
  348TIP3    H1 1050   1.668   1.602   1.808
  348TIP3    H2 1051   1.634   1.460   1.769
  349TIP3   OH2 1052   2.378   1.779   1.417
  349TIP3    H1 1053   2.411   1.714   1.355
  349TIP3    H2 1054   2.338   1.727   1.487
  350TIP3   OH2 1055   2.103   1.180   1.061
  350TIP3    H1 1056   2.024   1.149   1.105
  350TIP3    H2 1057   2.165   1.197   1.132
  351TIP3   OH2 1058   2.544   1.310   1.294
  351TIP3    H1 1059   2.511   1.332   1.381
  351TIP3    H2 1060   2.488   1.237   1.265
  352TIP3   OH2 1061   2.708   3.003   1.506
  352TIP3    H1 1062   2.705   3.022   1.412
  352TIP3    H2 1063   2.787   3.049   1.537
  353TIP3   OH2 1064   1.654   2.113   1.916
  353TIP3    H1 1065   1.736   2.135   1.961
  353TIP3    H2 1066   1.588   2.117   1.985
  354TIP3   OH2 1067   2.133   1.617   1.230
  354TIP3    H1 1068   2.114   1.554   1.160
  354TIP3    H2 1069   2.130   1.565   1.310
  355TIP3   OH2 1070   2.096   1.480   1.471
  355TIP3    H1 1071   2.009   1.514   1.492
  355TIP3    H2 1072   2.156   1.534   1.523
  356TIP3   OH2 1073   1.727   1.852   0.508
  356TIP3    H1 1074   1.760   1.762   0.507
  356TIP3    H2 1075   1.714   1.872   0.600
  357TIP3   OH2 1076   2.720   2.092   1.173
  357TIP3    H1 1077   2.752   2.141   1.097
  357TIP3    H2 1078   2.637   2.055   1.144
  358TIP3   OH2 1079   2.227   2.173   1.570
  358TIP3    H1 1080   2.272   2.162   1.654
  358TIP3    H2 1081   2.188   2.260   1.575
  359TIP3   OH2 1082   2.269   1.412   0.558
  359TIP3    H1 1083   2.317   1.437   0.479
  359TIP3    H2 1084   2.207   1.346   0.529
  360TIP3   OH2 1085   1.550   1.905   1.309
  360TIP3    H1 1086   1.613   1.904   1.236
  360TIP3    H2 1087   1.590   1.849   1.375
  361TIP3   OH2 1088   2.012   2.054   0.459
  361TIP3    H1 1089   1.969   2.135   0.431
  361TIP3    H2 1090   2.085   2.042   0.398
  362TIP3   OH2 1091   1.396   1.789   1.849
  362TIP3    H1 1092   1.409   1.769   1.941
  362TIP3    H2 1093   1.328   1.727   1.820
  363TIP3   OH2 1094   2.131   1.914   1.868
  363TIP3    H1 1095   2.064   1.856   1.832
  363TIP3    H2 1096   2.213   1.877   1.838
  364TIP3   OH2 1097   2.379   2.449   1.455
  364TIP3    H1 1098   2.284   2.438   1.464
  364TIP3    H2 1099   2.405   2.492   1.536
  365TIP3   OH2 1100   2.820   1.538   0.425
  365TIP3    H1 1101   2.749   1.475   0.413
  365TIP3    H2 1102   2.785   1.621   0.392
  366TIP3   OH2 1103   3.015   2.376   1.436
  366TIP3    H1 1104   2.920   2.365   1.433
  366TIP3    H2 1105   3.046   2.344   1.351
  367TIP3   OH2 1106   2.466   2.328   0.278
  367TIP3    H1 1107   2.467   2.263   0.349
  367TIP3    H2 1108   2.531   2.296   0.215
  368TIP3   OH2 1109   2.483   1.970   1.080
  368TIP3    H1 1110   2.393   1.944   1.099
  368TIP3    H2 1111   2.526   1.889   1.053
  369TIP3   OH2 1112   1.651   2.303   0.942
  369TIP3    H1 1113   1.676   2.341   0.858
  369TIP3    H2 1114   1.586   2.236   0.920
  370TIP3   OH2 1115   1.667   1.886   0.784
  370TIP3    H1 1116   1.615   1.966   0.779
  370TIP3    H2 1117   1.755   1.917   0.805
  371TIP3   OH2 1118   1.916   2.511   1.336
  371TIP3    H1 1119   1.951   2.585   1.286
  371TIP3    H2 1120   1.991   2.478   1.386
  372TIP3   OH2 1121   1.560   2.477   0.710
  372TIP3    H1 1122   1.473   2.494   0.745
  372TIP3    H2 1123   1.606   2.561   0.719
  373TIP3   OH2 1124   2.282   2.172   1.301
  373TIP3    H1 1125   2.269   2.166   1.396
  373TIP3    H2 1126   2.357   2.115   1.283
  374TIP3   OH2 1127   2.216   2.004   0.307
  374TIP3    H1 1128   2.304   2.011   0.343
  374TIP3    H2 1129   2.230   1.986   0.213
  375TIP3   OH2 1130   2.526   2.683   1.342
  375TIP3    H1 1131   2.452   2.622   1.348
  375TIP3    H2 1132   2.503   2.742   1.270
  376TIP3   OH2 1133   4.768   5.613   5.283
  376TIP3    H1 1134   4.808   5.700   5.284
  376TIP3    H2 1135   4.674   5.630   5.292
  377TIP3   OH2 1136   1.617   1.297   1.863
  377TIP3    H1 1137   1.521   1.298   1.866
  377TIP3    H2 1138   1.642   1.244   1.939
  378TIP3   OH2 1139   2.452   2.027   0.445
  378TIP3    H1 1140   2.443   1.964   0.516
  378TIP3    H2 1141   2.546   2.028   0.425
  379TIP3   OH2 1142   1.338   2.390   1.511
  379TIP3    H1 1143   1.390   2.321   1.551
  379TIP3    H2 1144   1.367   2.470   1.556
  380TIP3   OH2 1145   1.560   2.074   0.549
  380TIP3    H1 1146   1.607   2.004   0.504
  380TIP3    H2 1147   1.534   2.135   0.480
  381TIP3   OH2 1148   2.459   1.367   1.548
  381TIP3    H1 1149   2.539   1.409   1.581
  381TIP3    H2 1150   2.449   1.288   1.601
  382TIP3   OH2 1151   2.330   1.136   0.672
  382TIP3    H1 1152   2.322   1.151   0.577
  382TIP3    H2 1153   2.403   1.191   0.699
  383TIP3   OH2 1154   1.804   2.224   0.381
  383TIP3    H1 1155   1.713   2.251   0.397
  383TIP3    H2 1156   1.844   2.300   0.339
  384TIP3   OH2 1157   2.051   1.273   0.809
  384TIP3    H1 1158   2.079   1.365   0.816
  384TIP3    H2 1159   2.052   1.240   0.898
  385TIP3   OH2 1160   2.296   1.604   1.612
  385TIP3    H1 1161   2.325   1.648   1.692
  385TIP3    H2 1162   2.349   1.524   1.609
  386TIP3   OH2 1163   2.303   1.029   0.944
  386TIP3    H1 1164   2.236   1.094   0.965
  386TIP3    H2 1165   2.343   1.060   0.863
  387TIP3   OH2 1166   1.554   2.331   0.433
  387TIP3    H1 1167   1.522   2.369   0.352
  387TIP3    H2 1168   1.502   2.373   0.502
  388TIP3   OH2 1169   2.918   1.503   1.590
  388TIP3    H1 1170   2.823   1.512   1.602
  388TIP3    H2 1171   2.928   1.449   1.512
  389TIP3   OH2 1172   2.587   1.724   1.012
  389TIP3    H1 1173   2.504   1.677   1.019
  389TIP3    H2 1174   2.651   1.665   1.052
  390TIP3   OH2 1175   2.553   2.673   0.921
  390TIP3    H1 1176   2.509   2.722   0.851
  390TIP3    H2 1177   2.646   2.686   0.904
  391TIP3   OH2 1178   1.262   2.250   0.867
  391TIP3    H1 1179   1.327   2.226   0.933
  391TIP3    H2 1180   1.269   2.181   0.801
  392TIP3   OH2 1181   1.335   2.708   1.913
  392TIP3    H1 1182   1.417   2.715   1.961
  392TIP3    H2 1183   1.316   2.614   1.910
  393TIP3   OH2 1184   1.800   2.640   1.952
  393TIP3    H1 1185   1.893   2.625   1.966
  393TIP3    H2 1186   1.775   2.580   1.882
  394TIP3   OH2 1187   2.435   2.566   1.697
  394TIP3    H1 1188   2.438   2.497   1.762
  394TIP3    H2 1189   2.511   2.622   1.717
  395TIP3   OH2 1190   4.279   5.413   5.258
  395TIP3    H1 1191   4.318   5.328   5.280
  395TIP3    H2 1192   4.339   5.451   5.194
  396TIP3   OH2 1193   1.451   2.105   2.107
  396TIP3    H1 1194   1.470   2.011   2.114
  396TIP3    H2 1195   1.365   2.109   2.065
  397TIP3   OH2 1196   2.064   2.192   1.883
  397TIP3    H1 1197   2.022   2.213   1.800
  397TIP3    H2 1198   2.098   2.103   1.871
  398TIP3   OH2 1199   2.546   2.223   1.495
  398TIP3    H1 1200   2.623   2.255   1.449
  398TIP3    H2 1201   2.479   2.289   1.478
  399TIP3   OH2 1202   1.573   1.846   2.104
  399TIP3    H1 1203   1.654   1.816   2.062
  399TIP3    H2 1204   1.599   1.872   2.192
  400TIP3   OH2 1205   1.914   1.738   1.765
  400TIP3    H1 1206   1.832   1.786   1.766
  400TIP3    H2 1207   1.957   1.763   1.684
  401TIP3   OH2 1208   2.423   2.117   1.871
  401TIP3    H1 1209   2.494   2.080   1.819
  401TIP3    H2 1210   2.417   2.060   1.948
  402TIP3   OH2 1211   4.699   4.890   5.286
  402TIP3    H1 1212   4.670   4.916   5.198
  402TIP3    H2 1213   4.686   4.968   5.340
  403TIP3   OH2 1214   2.028   1.511   1.875
  403TIP3    H1 1215   2.030   1.438   1.814
  403TIP3    H2 1216   1.991   1.584   1.824
  404TIP3   OH2 1217   2.032   1.305   1.683
  404TIP3    H1 1218   2.057   1.344   1.599
  404TIP3    H2 1219   1.945   1.269   1.668
  405TIP3   OH2 1220   2.056   1.833   1.555
  405TIP3    H1 1221   2.144   1.848   1.523
  405TIP3    H2 1222   2.003   1.902   1.514
  406TIP3   OH2 1223   2.636   1.797   1.929
  406TIP3    H1 1224   2.678   1.711   1.935
  406TIP3    H2 1225   2.706   1.856   1.904
  407TIP3   OH2 1226   2.674   2.055   1.666
  407TIP3    H1 1227   2.618   2.114   1.615
  407TIP3    H2 1228   2.762   2.072   1.633
  408TIP3   OH2 1229   1.909   1.603   2.114
  408TIP3    H1 1230   1.843   1.536   2.134
  408TIP3    H2 1231   1.941   1.579   2.026
  409TIP3   OH2 1232   2.169   1.082   1.774
  409TIP3    H1 1233   2.125   1.162   1.743
  409TIP3    H2 1234   2.102   1.014   1.767
  410TIP3   OH2 1235   2.286   1.550   1.974
  410TIP3    H1 1236   2.273   1.538   2.068
  410TIP3    H2 1237   2.200   1.530   1.935
  411TIP3   OH2 1238   2.530   1.509   1.841
  411TIP3    H1 1239   2.451   1.506   1.896
  411TIP3    H2 1240   2.600   1.480   1.898
  412TIP3   OH2 1241   2.767   1.463   1.989
  412TIP3    H1 1242   2.779   1.369   1.997
  412TIP3    H2 1243   2.760   1.495   2.079
  413TIP3   OH2 1244   1.749   1.382   2.180
  413TIP3    H1 1245   1.753   1.294   2.144
  413TIP3    H2 1246   1.788   1.374   2.268
  414TIP3   OH2 1247   2.237   1.056   2.037
  414TIP3    H1 1248   2.306   0.990   2.029
  414TIP3    H2 1249   2.206   1.069   1.947
  415TIP3   OH2 1250   2.320   1.275   2.180
  415TIP3    H1 1251   2.294   1.203   2.123
  415TIP3    H2 1252   2.247   1.336   2.177
  416TIP3   OH2 1253   1.507   2.488   0.203
  416TIP3    H1 1254   1.573   2.557   0.211
  416TIP3    H2 1255   1.426   2.529   0.232
  417TIP3   OH2 1256   0.916   2.477   0.930
  417TIP3    H1 1257   0.850   2.411   0.912
  417TIP3    H2 1258   0.961   2.445   1.008
  418TIP3   OH2 1259   1.070   2.388   1.135
  418TIP3    H1 1260   1.068   2.321   1.204
  418TIP3    H2 1261   1.136   2.450   1.164
  419TIP3   OH2 1262   2.821   2.735   0.903
  419TIP3    H1 1263   2.841   2.765   0.992
  419TIP3    H2 1264   2.879   2.787   0.847
  420TIP3   OH2 1265   2.842   2.763   1.185
  420TIP3    H1 1266   2.793   2.681   1.178
  420TIP3    H2 1267   2.911   2.744   1.248
  421TIP3   OH2 1268   2.885   2.454   1.755
  421TIP3    H1 1269   2.813   2.462   1.818
  421TIP3    H2 1270   2.929   2.539   1.758
  422TIP3   OH2 1271   2.709   2.001   0.377
  422TIP3    H1 1272   2.778   2.058   0.343
  422TIP3    H2 1273   2.752   1.950   0.446
  423TIP3   OH2 1274   2.839   1.864   0.573
  423TIP3    H1 1275   2.780   1.827   0.637
  423TIP3    H2 1276   2.910   1.902   0.625
  424TIP3   OH2 1277   2.889   2.229   1.000
  424TIP3    H1 1278   2.941   2.160   0.959
  424TIP3    H2 1279   2.887   2.299   0.934
  425TIP3   OH2 1280   2.701   2.521   1.192
  425TIP3    H1 1281   2.633   2.563   1.245
  425TIP3    H2 1282   2.654   2.478   1.121
  426TIP3   OH2 1283   2.779   1.865   0.145
  426TIP3    H1 1284   2.706   1.836   0.091
  426TIP3    H2 1285   2.741   1.880   0.231
  427TIP3   OH2 1286   2.589   1.405   0.146
  427TIP3    H1 1287   2.524   1.470   0.118
  427TIP3    H2 1288   2.647   1.396   0.070
  428TIP3   OH2 1289   2.688   1.744   0.759
  428TIP3    H1 1290   2.710   1.653   0.740
  428TIP3    H2 1291   2.660   1.744   0.851
  429TIP3   OH2 1292   1.267   1.749   1.480
  429TIP3    H1 1293   1.284   1.724   1.389
  429TIP3    H2 1294   1.355   1.758   1.519
  430TIP3   OH2 1295   2.927   2.111   1.569
  430TIP3    H1 1296   2.994   2.044   1.553
  430TIP3    H2 1297   2.945   2.178   1.503
  431TIP3   OH2 1298   3.104   1.902   1.565
  431TIP3    H1 1299   3.029   1.860   1.607
  431TIP3    H2 1300   3.178   1.844   1.586
  432TIP3   OH2 1301   2.754   1.492   0.686
  432TIP3    H1 1302   2.780   1.401   0.698
  432TIP3    H2 1303   2.794   1.518   0.603
  433TIP3   OH2 1304   2.799   1.570   1.119
  433TIP3    H1 1305   2.878   1.592   1.070
  433TIP3    H2 1306   2.811   1.613   1.204
  434TIP3   OH2 1307   2.866   1.727   1.340
  434TIP3    H1 1308   2.790   1.756   1.389
  434TIP3    H2 1309   2.897   1.806   1.295
  435TIP3   OH2 1310   1.485   1.443   2.136
  435TIP3    H1 1311   1.580   1.439   2.145
  435TIP3    H2 1312   1.453   1.362   2.175
  436TIP3   OH2 1313   3.325   1.327   1.885
  436TIP3    H1 1314   3.382   1.265   1.840
  436TIP3    H2 1315   3.284   1.377   1.815
  437TIP3   OH2 1316   2.774   1.226   0.703
  437TIP3    H1 1317   2.810   1.159   0.761
  437TIP3    H2 1318   2.701   1.183   0.659
  438TIP3   OH2 1319   1.285   1.425   1.567
  438TIP3    H1 1320   1.276   1.404   1.475
  438TIP3    H2 1321   1.262   1.518   1.573
  439TIP3   OH2 1322   3.177   1.446   1.692
  439TIP3    H1 1323   3.095   1.489   1.719
  439TIP3    H2 1324   3.148   1.375   1.634
  440TIP3   OH2 1325   2.799   1.058   0.241
  440TIP3    H1 1326   2.874   1.016   0.283
  440TIP3    H2 1327   2.822   1.151   0.238
  441TIP3   OH2 1328   2.410   2.626   0.559
  441TIP3    H1 1329   2.453   2.615   0.474
  441TIP3    H2 1330   2.455   2.701   0.599
  442TIP3   OH2 1331   1.450   1.024   1.857
  442TIP3    H1 1332   1.401   1.006   1.937
  442TIP3    H2 1333   1.406   1.100   1.819
  443TIP3   OH2 1334   1.484   2.428   1.927
  443TIP3    H1 1335   1.390   2.411   1.921
  443TIP3    H2 1336   1.505   2.416   2.019
  444TIP3   OH2 1337   1.682   2.473   1.478
  444TIP3    H1 1338   1.634   2.548   1.444
  444TIP3    H2 1339   1.768   2.479   1.436
  445TIP3   OH2 1340   2.098   2.707   1.614
  445TIP3    H1 1341   2.136   2.699   1.701
  445TIP3    H2 1342   2.162   2.759   1.564
  446TIP3   OH2 1343   2.286   2.862   1.483
  446TIP3    H1 1344   2.350   2.807   1.439
  446TIP3    H2 1345   2.338   2.918   1.541
  447TIP3   OH2 1346   3.083   1.205   1.577
  447TIP3    H1 1347   2.996   1.202   1.537
  447TIP3    H2 1348   3.115   1.115   1.571
  448TIP3   OH2 1349   1.343   2.733   1.518
  448TIP3    H1 1350   1.251   2.757   1.504
  448TIP3    H2 1351   1.371   2.787   1.592
  449TIP3   OH2 1352   1.577   2.705   1.373
  449TIP3    H1 1353   1.491   2.713   1.415
  449TIP3    H2 1354   1.562   2.726   1.281
  450TIP3   OH2 1355   2.003   2.720   1.169
  450TIP3    H1 1356   1.932   2.733   1.106
  450TIP3    H2 1357   2.015   2.806   1.210
  451TIP3   OH2 1358   2.268   2.660   1.216
  451TIP3    H1 1359   2.175   2.676   1.198
  451TIP3    H2 1360   2.314   2.728   1.167
  452TIP3   OH2 1361   2.471   2.845   1.121
  452TIP3    H1 1362   2.462   2.930   1.078
  452TIP3    H2 1363   2.499   2.786   1.050
  453TIP3   OH2 1364   1.265   2.524   1.279
  453TIP3    H1 1365   1.286   2.486   1.364
  453TIP3    H2 1366   1.334   2.492   1.220
  454TIP3   OH2 1367   1.464   2.410   1.141
  454TIP3    H1 1368   1.474   2.322   1.177
  454TIP3    H2 1369   1.554   2.442   1.130
  455TIP3   OH2 1370   1.731   2.499   1.124
  455TIP3    H1 1371   1.733   2.417   1.073
  455TIP3    H2 1372   1.789   2.482   1.198
  456TIP3   OH2 1373   2.274   1.187   1.267
  456TIP3    H1 1374   2.230   1.152   1.344
  456TIP3    H2 1375   2.337   1.120   1.242
  457TIP3   OH2 1376   2.861   1.030   1.140
  457TIP3    H1 1377   2.899   1.105   1.094
  457TIP3    H2 1378   2.774   1.020   1.100
  458TIP3   OH2 1379   2.999   1.185   0.950
  458TIP3    H1 1380   3.065   1.141   0.896
  458TIP3    H2 1381   2.995   1.274   0.916
  459TIP3   OH2 1382   2.462   1.032   1.172
  459TIP3    H1 1383   2.438   1.023   1.080
  459TIP3    H2 1384   2.539   0.977   1.183
  460TIP3   OH2 1385   1.846   2.461   0.247
  460TIP3    H1 1386   1.935   2.483   0.222
  460TIP3    H2 1387   1.803   2.438   0.165
  461TIP3   OH2 1388   2.538   2.592   0.312
  461TIP3    H1 1389   2.517   2.498   0.305
  461TIP3    H2 1390   2.495   2.632   0.237
  462TIP3   OH2 1391   1.751   1.110   2.097
  462TIP3    H1 1392   1.716   1.042   2.154
  462TIP3    H2 1393   1.844   1.115   2.118
  463TIP3   OH2 1394   2.004   1.110   2.215
  463TIP3    H1 1395   2.083   1.089   2.166
  463TIP3    H2 1396   1.997   1.040   2.280
  464TIP3   OH2 1397   2.829   1.191   2.006
  464TIP3    H1 1398   2.845   1.162   2.095
  464TIP3    H2 1399   2.914   1.186   1.963
  465TIP3   OH2 1400   2.752   2.730   1.504
  465TIP3    H1 1401   2.675   2.699   1.455
  465TIP3    H2 1402   2.736   2.823   1.515
  466TIP3   OH2 1403   4.021   2.101   0.268
  466TIP3    H1 1404   3.995   2.192   0.255
  466TIP3    H2 1405   3.947   2.049   0.237
  467TIP3   OH2 1406   4.027   2.106   0.666
  467TIP3    H1 1407   4.070   2.088   0.750
  467TIP3    H2 1408   3.981   2.025   0.644
  468TIP3   OH2 1409   3.325   1.991   1.022
  468TIP3    H1 1410   3.354   1.924   1.084
  468TIP3    H2 1411   3.406   2.024   0.983
  469TIP3   OH2 1412   4.290   2.400   0.344
  469TIP3    H1 1413   4.271   2.339   0.415
  469TIP3    H2 1414   4.311   2.483   0.388
  470TIP3   OH2 1415   3.308   2.408   0.723
  470TIP3    H1 1416   3.293   2.313   0.728
  470TIP3    H2 1417   3.402   2.417   0.712
  471TIP3   OH2 1418   3.037   1.670   0.542
  471TIP3    H1 1419   2.976   1.743   0.554
  471TIP3    H2 1420   2.986   1.603   0.497
  472TIP3   OH2 1421   3.073   1.916   0.708
  472TIP3    H1 1422   3.113   1.832   0.732
  472TIP3    H2 1423   3.143   1.964   0.663
  473TIP3   OH2 1424   3.924   2.854   0.358
  473TIP3    H1 1425   3.959   2.785   0.301
  473TIP3    H2 1426   3.925   2.816   0.446
  474TIP3   OH2 1427   3.824   2.333   0.684
  474TIP3    H1 1428   3.861   2.256   0.643
  474TIP3    H2 1429   3.899   2.384   0.714
  475TIP3   OH2 1430   4.824   1.656   0.716
  475TIP3    H1 1431   4.852   1.747   0.726
  475TIP3    H2 1432   4.854   1.632   0.628
  476TIP3   OH2 1433   4.243   1.822   0.722
  476TIP3    H1 1434   4.277   1.736   0.745
  476TIP3    H2 1435   4.200   1.809   0.638
  477TIP3   OH2 1436   3.593   1.489   0.678
  477TIP3    H1 1437   3.569   1.565   0.625
  477TIP3    H2 1438   3.545   1.416   0.639
  478TIP3   OH2 1439   4.288   1.593   0.328
  478TIP3    H1 1440   4.357   1.569   0.390
  478TIP3    H2 1441   4.335   1.627   0.252
  479TIP3   OH2 1442   3.213   1.695   0.807
  479TIP3    H1 1443   3.297   1.672   0.846
  479TIP3    H2 1444   3.208   1.642   0.728
  480TIP3   OH2 1445   3.648   1.897   0.611
  480TIP3    H1 1446   3.741   1.876   0.618
  480TIP3    H2 1447   3.608   1.817   0.577
  481TIP3   OH2 1448   4.911   1.882   0.873
  481TIP3    H1 1449   4.822   1.913   0.857
  481TIP3    H2 1450   4.935   1.918   0.958
  482TIP3   OH2 1451   3.574   1.483   1.131
  482TIP3    H1 1452   3.522   1.512   1.056
  482TIP3    H2 1453   3.517   1.498   1.207
  483TIP3   OH2 1454   3.901   2.325   0.166
  483TIP3    H1 1455   3.883   2.303   0.074
  483TIP3    H2 1456   3.854   2.406   0.181
  484TIP3   OH2 1457   3.674   2.256   0.904
  484TIP3    H1 1458   3.616   2.324   0.938
  484TIP3    H2 1459   3.719   2.297   0.830
  485TIP3   OH2 1460   4.480   1.573   0.531
  485TIP3    H1 1461   4.424   1.559   0.607
  485TIP3    H2 1462   4.522   1.657   0.547
  486TIP3   OH2 1463   3.460   1.587   0.901
  486TIP3    H1 1464   3.516   1.661   0.923
  486TIP3    H2 1465   3.502   1.546   0.826
  487TIP3   OH2 1466   3.510   2.454   1.006
  487TIP3    H1 1467   3.492   2.542   0.972
  487TIP3    H2 1468   3.433   2.432   1.058
  488TIP3   OH2 1469   2.900   2.161   0.263
  488TIP3    H1 1470   2.860   2.171   0.176
  488TIP3    H2 1471   2.922   2.250   0.290
  489TIP3   OH2 1472   4.330   2.637   0.491
  489TIP3    H1 1473   4.243   2.633   0.531
  489TIP3    H2 1474   4.333   2.722   0.448
  490TIP3   OH2 1475   4.629   1.551   0.876
  490TIP3    H1 1476   4.544   1.572   0.838
  490TIP3    H2 1477   4.693   1.581   0.812
  491TIP3   OH2 1478   3.921   1.180   0.850
  491TIP3    H1 1479   3.906   1.088   0.869
  491TIP3    H2 1480   3.847   1.225   0.891
  492TIP3   OH2 1481   4.024   2.687   0.161
  492TIP3    H1 1482   4.076   2.608   0.148
  492TIP3    H2 1483   4.077   2.758   0.125
  493TIP3   OH2 1484   4.187   2.482   0.098
  493TIP3    H1 1485   4.189   2.410   0.034
  493TIP3    H2 1486   4.223   2.444   0.178
  494TIP3   OH2 1487   4.563   2.551   0.837
  494TIP3    H1 1488   4.548   2.476   0.780
  494TIP3    H2 1489   4.545   2.627   0.782
  495TIP3   OH2 1490   3.848   1.953   0.104
  495TIP3    H1 1491   3.767   2.002   0.095
  495TIP3    H2 1492   3.881   1.944   0.015
  496TIP3   OH2 1493   5.982   4.773   5.159
  496TIP3    H1 1494   6.066   4.817   5.169
  496TIP3    H2 1495   6.002   4.680   5.171
  497TIP3   OH2 1496   4.753   2.209   0.690
  497TIP3    H1 1497   4.669   2.254   0.694
  497TIP3    H2 1498   4.785   2.225   0.601
  498TIP3   OH2 1499   4.196   2.027   0.075
  498TIP3    H1 1500   4.139   2.056   0.146
  498TIP3    H2 1501   4.280   2.009   0.118
  499TIP3   OH2 1502   4.437   2.076   0.997
  499TIP3    H1 1503   4.435   2.159   1.046
  499TIP3    H2 1504   4.353   2.074   0.951
  500TIP3   OH2 1505   3.434   2.025   0.482
  500TIP3    H1 1506   3.399   1.966   0.415
  500TIP3    H2 1507   3.511   1.979   0.517
  501TIP3   OH2 1508   3.568   2.453   0.615
  501TIP3    H1 1509   3.545   2.430   0.525
  501TIP3    H2 1510   3.655   2.414   0.628
  502TIP3   OH2 1511   3.554   2.016   0.844
  502TIP3    H1 1512   3.589   1.984   0.761
  502TIP3    H2 1513   3.601   2.098   0.859
  503TIP3   OH2 1514   4.093   2.647   0.621
  503TIP3    H1 1515   4.079   2.727   0.672
  503TIP3    H2 1516   4.077   2.576   0.683
  504TIP3   OH2 1517   3.710   2.559   1.166
  504TIP3    H1 1518   3.651   2.619   1.213
  504TIP3    H2 1519   3.652   2.507   1.111
  505TIP3   OH2 1520   6.206   4.967   5.196
  505TIP3    H1 1521   6.258   5.019   5.258
  505TIP3    H2 1522   6.193   5.026   5.121
  506TIP3   OH2 1523   3.467   2.107   1.294
  506TIP3    H1 1524   3.472   2.199   1.319
  506TIP3    H2 1525   3.373   2.088   1.290
  507TIP3   OH2 1526   3.774   2.577   0.166
  507TIP3    H1 1527   3.861   2.615   0.173
  507TIP3    H2 1528   3.723   2.642   0.117
  508TIP3   OH2 1529   3.500   2.720   1.251
  508TIP3    H1 1530   3.473   2.726   1.159
  508TIP3    H2 1531   3.420   2.701   1.299
  509TIP3   OH2 1532   3.316   1.874   0.276
  509TIP3    H1 1533   3.250   1.935   0.244
  509TIP3    H2 1534   3.268   1.795   0.298
  510TIP3   OH2 1535   3.088   2.266   1.198
  510TIP3    H1 1536   3.019   2.250   1.133
  510TIP3    H2 1537   3.123   2.179   1.217
  511TIP3   OH2 1538   2.940   2.457   0.834
  511TIP3    H1 1539   3.036   2.462   0.832
  511TIP3    H2 1540   2.913   2.534   0.883
  512TIP3   OH2 1541   4.800   2.914   0.905
  512TIP3    H1 1542   4.803   2.819   0.915
  512TIP3    H2 1543   4.719   2.940   0.948
  513TIP3   OH2 1544   3.900   2.694   1.022
  513TIP3    H1 1545   3.897   2.786   1.049
  513TIP3    H2 1546   3.833   2.651   1.074
  514TIP3   OH2 1547   5.834   5.884   5.289
  514TIP3    H1 1548   5.755   5.864   5.239
  514TIP3    H2 1549   5.818   5.972   5.324
  515TIP3   OH2 1550   3.114   2.659   0.358
  515TIP3    H1 1551   3.157   2.652   0.443
  515TIP3    H2 1552   3.064   2.578   0.349
  516TIP3   OH2 1553   6.075   5.818   5.168
  516TIP3    H1 1554   5.996   5.843   5.215
  516TIP3    H2 1555   6.129   5.774   5.233
  517TIP3   OH2 1556   4.685   2.036   1.169
  517TIP3    H1 1557   4.603   2.049   1.122
  517TIP3    H2 1558   4.703   1.942   1.161
  518TIP3   OH2 1559   3.291   2.449   1.172
  518TIP3    H1 1560   3.340   2.438   1.254
  518TIP3    H2 1561   3.219   2.387   1.179
  519TIP3   OH2 1562   3.693   1.277   0.981
  519TIP3    H1 1563   3.609   1.241   0.953
  519TIP3    H2 1564   3.671   1.357   1.030
  520TIP3   OH2 1565   4.222   1.374   1.171
  520TIP3    H1 1566   4.291   1.355   1.235
  520TIP3    H2 1567   4.141   1.361   1.219
  521TIP3   OH2 1568   4.442   1.811   1.089
  521TIP3    H1 1569   4.398   1.808   1.174
  521TIP3    H2 1570   4.425   1.900   1.056
  522TIP3   OH2 1571   5.985   4.468   5.239
  522TIP3    H1 1572   5.968   4.430   5.326
  522TIP3    H2 1573   5.904   4.452   5.190
  523TIP3   OH2 1574   3.621   1.793   0.991
  523TIP3    H1 1575   3.570   1.801   1.072
  523TIP3    H2 1576   3.600   1.873   0.942
  524TIP3   OH2 1577   3.502   1.687   0.513
  524TIP3    H1 1578   3.415   1.658   0.542
  524TIP3    H2 1579   3.513   1.647   0.427
  525TIP3   OH2 1580   3.984   1.761   0.244
  525TIP3    H1 1581   3.932   1.830   0.203
  525TIP3    H2 1582   4.041   1.728   0.174
  526TIP3   OH2 1583   4.166   2.024   1.314
  526TIP3    H1 1584   4.139   1.956   1.376
  526TIP3    H2 1585   4.258   2.039   1.335
  527TIP3   OH2 1586   4.140   1.776   0.474
  527TIP3    H1 1587   4.075   1.803   0.409
  527TIP3    H2 1588   4.185   1.702   0.433
  528TIP3   OH2 1589   3.446   1.811   1.204
  528TIP3    H1 1590   3.455   1.876   1.273
  528TIP3    H2 1591   3.427   1.729   1.250
  529TIP3   OH2 1592   5.688   4.433   5.237
  529TIP3    H1 1593   5.667   4.422   5.329
  529TIP3    H2 1594   5.684   4.344   5.201
  530TIP3   OH2 1595   3.036   1.424   0.816
  530TIP3    H1 1596   3.120   1.428   0.860
  530TIP3    H2 1597   3.052   1.370   0.738
  531TIP3   OH2 1598   3.106   1.446   0.371
  531TIP3    H1 1599   3.091   1.479   0.283
  531TIP3    H2 1600   3.022   1.407   0.397
  532TIP3   OH2 1601   4.175   2.022   0.892
  532TIP3    H1 1602   4.204   1.955   0.830
  532TIP3    H2 1603   4.135   1.972   0.963
  533TIP3   OH2 1604   3.852   1.487   0.572
  533TIP3    H1 1605   3.769   1.485   0.620
  533TIP3    H2 1606   3.919   1.485   0.641
  534TIP3   OH2 1607   3.280   1.546   0.582
  534TIP3    H1 1608   3.195   1.566   0.543
  534TIP3    H2 1609   3.305   1.461   0.546
  535TIP3   OH2 1610   3.530   1.554   0.279
  535TIP3    H1 1611   3.623   1.570   0.262
  535TIP3    H2 1612   3.485   1.585   0.200
  536TIP3   OH2 1613   4.318   1.555   0.759
  536TIP3    H1 1614   4.301   1.571   0.852
  536TIP3    H2 1615   4.246   1.498   0.731
  537TIP3   OH2 1616   3.390   1.615   0.054
  537TIP3    H1 1617   3.303   1.605   0.016
  537TIP3    H2 1618   3.448   1.633  -0.020
  538TIP3   OH2 1619   4.508   3.256   1.015
  538TIP3    H1 1620   4.499   3.274   0.922
  538TIP3    H2 1621   4.588   3.303   1.041
  539TIP3   OH2 1622   3.452   2.368   1.404
  539TIP3    H1 1623   3.531   2.392   1.452
  539TIP3    H2 1624   3.382   2.372   1.470
  540TIP3   OH2 1625   3.915   1.832   0.669
  540TIP3    H1 1626   3.981   1.784   0.619
  540TIP3    H2 1627   3.914   1.790   0.754
  541TIP3   OH2 1628   3.441   1.312   0.533
  541TIP3    H1 1629   3.407   1.250   0.598
  541TIP3    H2 1630   3.448   1.260   0.453
  542TIP3   OH2 1631   3.888   1.735   0.939
  542TIP3    H1 1632   3.799   1.765   0.958
  542TIP3    H2 1633   3.944   1.791   0.992
  543TIP3   OH2 1634   3.615   2.096   0.056
  543TIP3    H1 1635   3.542   2.038   0.037
  543TIP3    H2 1636   3.593   2.135   0.140
  544TIP3   OH2 1637   4.514   2.343   0.662
  544TIP3    H1 1638   4.546   2.393   0.587
  544TIP3    H2 1639   4.430   2.307   0.632
  545TIP3   OH2 1640   6.260   4.491   5.258
  545TIP3    H1 1641   6.168   4.476   5.236
  545TIP3    H2 1642   6.268   4.586   5.269
  546TIP3   OH2 1643   4.022   2.428   1.057
  546TIP3    H1 1644   4.066   2.422   1.142
  546TIP3    H2 1645   3.980   2.514   1.058
  547TIP3   OH2 1646   4.146   1.688   0.028
  547TIP3    H1 1647   4.240   1.699   0.044
  547TIP3    H2 1648   4.123   1.762  -0.028
  548TIP3   OH2 1649   3.318   2.126   0.711
  548TIP3    H1 1650   3.353   2.101   0.626
  548TIP3    H2 1651   3.372   2.080   0.775
  549TIP3   OH2 1652   5.959   5.318   5.226
  549TIP3    H1 1653   5.906   5.393   5.201
  549TIP3    H2 1654   5.897   5.258   5.269
  550TIP3   OH2 1655   3.197   2.038   1.332
  550TIP3    H1 1656   3.201   2.018   1.425
  550TIP3    H2 1657   3.122   1.988   1.300
  551TIP3   OH2 1658   3.927   2.171   1.354
  551TIP3    H1 1659   3.859   2.113   1.320
  551TIP3    H2 1660   4.009   2.133   1.323
  552TIP3   OH2 1661   4.174   2.702   0.946
  552TIP3    H1 1662   4.079   2.694   0.951
  552TIP3    H2 1663   4.199   2.746   1.028
  553TIP3   OH2 1664   4.810   2.629   0.927
  553TIP3    H1 1665   4.714   2.620   0.924
  553TIP3    H2 1666   4.840   2.597   0.842
  554TIP3   OH2 1667   4.278   2.214   0.567
  554TIP3    H1 1668   4.187   2.191   0.588
  554TIP3    H2 1669   4.315   2.134   0.530
  555TIP3   OH2 1670   3.426   2.445   0.362
  555TIP3    H1 1671   3.427   2.522   0.305
  555TIP3    H2 1672   3.334   2.423   0.370
  556TIP3   OH2 1673   3.031   1.788   0.107
  556TIP3    H1 1674   3.074   1.871   0.127
  556TIP3    H2 1675   2.938   1.807   0.113
  557TIP3   OH2 1676   3.535   2.200   0.291
  557TIP3    H1 1677   3.511   2.290   0.313
  557TIP3    H2 1678   3.501   2.147   0.363
  558TIP3   OH2 1679   3.707   2.773   0.818
  558TIP3    H1 1680   3.745   2.844   0.767
  558TIP3    H2 1681   3.781   2.737   0.867
  559TIP3   OH2 1682   3.340   2.681   0.201
  559TIP3    H1 1683   3.256   2.677   0.248
  559TIP3    H2 1684   3.367   2.773   0.209
  560TIP3   OH2 1685   4.068   2.423   0.786
  560TIP3    H1 1686   4.057   2.419   0.881
  560TIP3    H2 1687   4.145   2.369   0.768
  561TIP3   OH2 1688   4.323   2.928   0.842
  561TIP3    H1 1689   4.252   2.865   0.852
  561TIP3    H2 1690   4.298   2.982   0.767
  562TIP3   OH2 1691   3.399   1.559   1.335
  562TIP3    H1 1692   3.304   1.569   1.339
  562TIP3    H2 1693   3.421   1.506   1.412
  563TIP3   OH2 1694   6.389   5.326   5.237
  563TIP3    H1 1695   6.372   5.246   5.288
  563TIP3    H2 1696   6.467   5.305   5.186
  564TIP3   OH2 1697   3.136   2.650   0.978
  564TIP3    H1 1698   3.186   2.582   1.022
  564TIP3    H2 1699   3.152   2.729   1.030
  565TIP3   OH2 1700   5.522   5.377   5.272
  565TIP3    H1 1701   5.607   5.340   5.297
  565TIP3    H2 1702   5.539   5.471   5.262
  566TIP3   OH2 1703   3.122   2.034   0.166
  566TIP3    H1 1704   3.047   2.068   0.215
  566TIP3    H2 1705   3.130   2.091   0.090
  567TIP3   OH2 1706   4.265   1.605   1.020
  567TIP3    H1 1707   4.335   1.657   1.061
  567TIP3    H2 1708   4.252   1.531   1.080
  568TIP3   OH2 1709   4.113   1.395   0.225
  568TIP3    H1 1710   4.109   1.398   0.129
  568TIP3    H2 1711   4.167   1.469   0.250
  569TIP3   OH2 1712   5.788   5.529   5.169
  569TIP3    H1 1713   5.714   5.578   5.203
  569TIP3    H2 1714   5.839   5.593   5.119
  570TIP3   OH2 1715   3.806   1.564   0.308
  570TIP3    H1 1716   3.869   1.632   0.286
  570TIP3    H2 1717   3.819   1.549   0.402
  571TIP3   OH2 1718   4.089   1.859   1.096
  571TIP3    H1 1719   4.110   1.912   1.173
  571TIP3    H2 1720   4.139   1.779   1.107
  572TIP3   OH2 1721   3.953   1.284   0.411
  572TIP3    H1 1722   3.923   1.357   0.465
  572TIP3    H2 1723   4.012   1.323   0.347
  573TIP3   OH2 1724   5.558   5.661   5.254
  573TIP3    H1 1725   5.477   5.690   5.212
  573TIP3    H2 1726   5.547   5.684   5.346
  574TIP3   OH2 1727   3.503   1.289   0.202
  574TIP3    H1 1728   3.485   1.374   0.243
  574TIP3    H2 1729   3.598   1.280   0.205
  575TIP3   OH2 1730   4.708   1.771   1.081
  575TIP3    H1 1731   4.613   1.771   1.088
  575TIP3    H2 1732   4.727   1.721   1.002
  576TIP3   OH2 1733   4.368   1.960   0.474
  576TIP3    H1 1734   4.288   1.909   0.487
  576TIP3    H2 1735   4.433   1.915   0.528
  577TIP3   OH2 1736   5.282   5.251   5.240
  577TIP3    H1 1737   5.354   5.312   5.257
  577TIP3    H2 1738   5.319   5.186   5.180
  578TIP3   OH2 1739   3.001   1.520   0.123
  578TIP3    H1 1740   3.015   1.615   0.129
  578TIP3    H2 1741   2.984   1.504   0.030
  579TIP3   OH2 1742   4.346   2.901   0.424
  579TIP3    H1 1743   4.289   2.947   0.363
  579TIP3    H2 1744   4.434   2.935   0.405
  580TIP3   OH2 1745   3.433   1.195   0.967
  580TIP3    H1 1746   3.407   1.170   0.878
  580TIP3    H2 1747   3.422   1.115   1.018
  581TIP3   OH2 1748   2.956   2.427   0.339
  581TIP3    H1 1749   2.900   2.456   0.411
  581TIP3    H2 1750   2.913   2.461   0.260
  582TIP3   OH2 1751   3.130   2.967   1.398
  582TIP3    H1 1752   3.212   2.970   1.446
  582TIP3    H2 1753   3.109   2.873   1.392
  583TIP3   OH2 1754   3.598   2.894   1.442
  583TIP3    H1 1755   3.692   2.876   1.450
  583TIP3    H2 1756   3.569   2.836   1.372
  584TIP3   OH2 1757   4.229   2.823   1.186
  584TIP3    H1 1758   4.234   2.753   1.252
  584TIP3    H2 1759   4.304   2.879   1.205
  585TIP3   OH2 1760   3.245   2.362   1.592
  585TIP3    H1 1761   3.263   2.268   1.601
  585TIP3    H2 1762   3.159   2.366   1.551
  586TIP3   OH2 1763   5.430   5.067   5.102
  586TIP3    H1 1764   5.480   5.040   5.179
  586TIP3    H2 1765   5.492   5.117   5.049
  587TIP3   OH2 1766   3.862   2.449   1.369
  587TIP3    H1 1767   3.816   2.470   1.287
  587TIP3    H2 1768   3.893   2.360   1.356
  588TIP3   OH2 1769   4.340   2.477   0.983
  588TIP3    H1 1770   4.418   2.509   0.937
  588TIP3    H2 1771   4.273   2.543   0.968
  589TIP3   OH2 1772   3.363   2.105   1.594
  589TIP3    H1 1773   3.441   2.079   1.544
  589TIP3    H2 1774   3.397   2.129   1.681
  590TIP3   OH2 1775   3.417   1.913   0.004
  590TIP3    H1 1776   3.393   1.880   0.091
  590TIP3    H2 1777   3.461   1.839  -0.039
  591TIP3   OH2 1778   3.720   1.992   1.252
  591TIP3    H1 1779   3.634   2.034   1.258
  591TIP3    H2 1780   3.755   2.020   1.168
  592TIP3   OH2 1781   5.709   4.780   5.155
  592TIP3    H1 1782   5.697   4.715   5.085
  592TIP3    H2 1783   5.804   4.791   5.161
  593TIP3   OH2 1784   4.220   2.373   1.358
  593TIP3    H1 1785   4.289   2.334   1.305
  593TIP3    H2 1786   4.214   2.316   1.435
  594TIP3   OH2 1787   3.828   1.765   1.362
  594TIP3    H1 1788   3.828   1.692   1.300
  594TIP3    H2 1789   3.790   1.838   1.312
  595TIP3   OH2 1790   3.835   1.559   1.165
  595TIP3    H1 1791   3.860   1.598   1.081
  595TIP3    H2 1792   3.742   1.537   1.154
  596TIP3   OH2 1793   3.849   2.091   1.035
  596TIP3    H1 1794   3.937   2.122   1.013
  596TIP3    H2 1795   3.790   2.153   0.991
  597TIP3   OH2 1796   4.433   2.051   1.415
  597TIP3    H1 1797   4.479   1.968   1.425
  597TIP3    H2 1798   4.502   2.113   1.390
  598TIP3   OH2 1799   4.469   2.310   1.153
  598TIP3    H1 1800   4.413   2.369   1.103
  598TIP3    H2 1801   4.558   2.328   1.121
  599TIP3   OH2 1802   3.708   1.856   1.602
  599TIP3    H1 1803   3.637   1.795   1.621
  599TIP3    H2 1804   3.736   1.835   1.513
  600TIP3   OH2 1805   3.956   1.323   1.255
  600TIP3    H1 1806   3.915   1.404   1.224
  600TIP3    H2 1807   3.888   1.256   1.242
  601TIP3   OH2 1808   4.083   1.808   1.462
  601TIP3    H1 1809   4.070   1.797   1.556
  601TIP3    H2 1810   3.998   1.788   1.423
  602TIP3   OH2 1811   4.322   1.758   1.324
  602TIP3    H1 1812   4.245   1.761   1.381
  602TIP3    H2 1813   4.394   1.734   1.382
  603TIP3   OH2 1814   4.560   1.721   1.474
  603TIP3    H1 1815   4.573   1.627   1.483
  603TIP3    H2 1816   4.554   1.753   1.564
  604TIP3   OH2 1817   3.542   1.637   1.665
  604TIP3    H1 1818   3.545   1.548   1.629
  604TIP3    H2 1819   3.579   1.629   1.753
  605TIP3   OH2 1820   4.031   1.311   1.520
  605TIP3    H1 1821   4.102   1.248   1.510
  605TIP3    H2 1822   3.995   1.320   1.431
  606TIP3   OH2 1823   4.116   1.530   1.664
  606TIP3    H1 1824   4.088   1.460   1.606
  606TIP3    H2 1825   4.044   1.593   1.663
  607TIP3   OH2 1826   5.019   5.194   5.286
  607TIP3    H1 1827   5.109   5.217   5.263
  607TIP3    H2 1828   5.013   5.100   5.266
  608TIP3   OH2 1829   2.740   2.751   0.405
  608TIP3    H1 1830   2.675   2.695   0.362
  608TIP3    H2 1831   2.783   2.692   0.467
  609TIP3   OH2 1832   2.877   2.592   0.585
  609TIP3    H1 1833   2.863   2.523   0.650
  609TIP3    H2 1834   2.929   2.658   0.632
  610TIP3   OH2 1835   4.584   3.026   0.392
  610TIP3    H1 1836   4.617   3.041   0.480
  610TIP3    H2 1837   4.663   3.022   0.337
  611TIP3   OH2 1838   4.616   3.012   0.692
  611TIP3    H1 1839   4.576   2.925   0.680
  611TIP3    H2 1840   4.696   2.995   0.741
  612TIP3   OH2 1841   4.683   2.711   1.242
  612TIP3    H1 1842   4.612   2.719   1.305
  612TIP3    H2 1843   4.727   2.796   1.244
  613TIP3   OH2 1844   4.642   2.057   0.073
  613TIP3    H1 1845   4.563   2.026   0.117
  613TIP3    H2 1846   4.652   2.147   0.104
  614TIP3   OH2 1847   4.687   2.475   0.491
  614TIP3    H1 1848   4.737   2.407   0.445
  614TIP3    H2 1849   4.688   2.550   0.432
  615TIP3   OH2 1850   4.491   2.765   0.683
  615TIP3    H1 1851   4.422   2.809   0.733
  615TIP3    H2 1852   4.446   2.724   0.610
  616TIP3   OH2 1853   4.426   1.953   0.207
  616TIP3    H1 1854   4.423   1.857   0.197
  616TIP3    H2 1855   4.410   1.968   0.300
  617TIP3   OH2 1856   3.060   2.014   0.961
  617TIP3    H1 1857   3.052   1.982   0.871
  617TIP3    H2 1858   3.154   2.015   0.977
  618TIP3   OH2 1859   4.723   2.367   1.057
  618TIP3    H1 1860   4.790   2.302   1.039
  618TIP3    H2 1861   4.739   2.437   0.993
  619TIP3   OH2 1862   4.899   2.158   1.052
  619TIP3    H1 1863   4.825   2.117   1.096
  619TIP3    H2 1864   4.975   2.104   1.076
  620TIP3   OH2 1865   4.425   1.691   0.099
  620TIP3    H1 1866   4.449   1.598   0.101
  620TIP3    H2 1867   4.489   1.731   0.039
  621TIP3   OH2 1868   4.577   1.824   0.604
  621TIP3    H1 1869   4.657   1.852   0.559
  621TIP3    H2 1870   4.585   1.861   0.692
  622TIP3   OH2 1871   4.654   1.983   0.826
  622TIP3    H1 1872   4.581   2.016   0.878
  622TIP3    H2 1873   4.687   2.060   0.779
  623TIP3   OH2 1874   3.277   1.694   1.615
  623TIP3    H1 1875   3.371   1.691   1.628
  623TIP3    H2 1876   3.245   1.612   1.653
  624TIP3   OH2 1877   5.115   1.584   1.374
  624TIP3    H1 1878   5.174   1.521   1.331
  624TIP3    H2 1879   5.080   1.636   1.302
  625TIP3   OH2 1880   4.474   1.425   0.116
  625TIP3    H1 1881   4.519   1.367   0.177
  625TIP3    H2 1882   4.412   1.368   0.070
  626TIP3   OH2 1883   3.258   1.407   0.972
  626TIP3    H1 1884   3.312   1.329   0.980
  626TIP3    H2 1885   3.320   1.477   0.950
  627TIP3   OH2 1886   3.036   1.668   1.026
  627TIP3    H1 1887   3.078   1.653   0.942
  627TIP3    H2 1888   3.065   1.756   1.052
  628TIP3   OH2 1889   4.973   1.716   1.184
  628TIP3    H1 1890   4.899   1.758   1.227
  628TIP3    H2 1891   4.933   1.649   1.128
  629TIP3   OH2 1892   3.042   1.232   0.631
  629TIP3    H1 1893   2.948   1.220   0.645
  629TIP3    H2 1894   3.055   1.217   0.537
  630TIP3   OH2 1895   4.164   2.885   0.044
  630TIP3    H1 1896   4.165   2.907  -0.049
  630TIP3    H2 1897   4.239   2.932   0.080
  631TIP3   OH2 1898   3.240   1.227   1.339
  631TIP3    H1 1899   3.192   1.231   1.422
  631TIP3    H2 1900   3.186   1.279   1.278
  632TIP3   OH2 1901   3.278   2.683   1.416
  632TIP3    H1 1902   3.185   2.666   1.404
  632TIP3    H2 1903   3.293   2.671   1.510
  633TIP3   OH2 1904   3.478   2.729   0.966
  633TIP3    H1 1905   3.426   2.801   0.933
  633TIP3    H2 1906   3.563   2.739   0.923
  634TIP3   OH2 1907   3.895   2.962   1.099
  634TIP3    H1 1908   3.932   2.956   1.188
  634TIP3    H2 1909   3.959   3.014   1.050
  635TIP3   OH2 1910   4.083   3.117   0.970
  635TIP3    H1 1911   4.148   3.063   0.926
  635TIP3    H2 1912   4.134   3.174   1.028
  636TIP3   OH2 1913   4.854   1.493   1.069
  636TIP3    H1 1914   4.769   1.496   1.024
  636TIP3    H2 1915   4.873   1.400   1.079
  637TIP3   OH2 1916   3.143   2.984   1.005
  637TIP3    H1 1917   3.051   3.001   0.983
  637TIP3    H2 1918   3.163   3.045   1.076
  638TIP3   OH2 1919   3.373   2.959   0.856
  638TIP3    H1 1920   3.290   2.968   0.904
  638TIP3    H2 1921   3.352   2.986   0.767
  639TIP3   OH2 1922   3.795   2.976   0.649
  639TIP3    H1 1923   3.727   2.992   0.583
  639TIP3    H2 1924   3.807   3.061   0.693
  640TIP3   OH2 1925   4.056   2.906   0.712
  640TIP3    H1 1926   3.966   2.930   0.687
  640TIP3    H2 1927   4.111   2.971   0.668
  641TIP3   OH2 1928   4.257   3.076   0.623
  641TIP3    H1 1929   4.235   3.164   0.590
  641TIP3    H2 1930   4.288   3.029   0.545
  642TIP3   OH2 1931   3.057   2.760   0.734
  642TIP3    H1 1932   3.078   2.731   0.822
  642TIP3    H2 1933   3.127   2.725   0.679
  643TIP3   OH2 1934   3.257   2.643   0.592
  643TIP3    H1 1935   3.266   2.559   0.638
  643TIP3    H2 1936   3.344   2.681   0.594
  644TIP3   OH2 1937   3.525   2.730   0.607
  644TIP3    H1 1938   3.544   2.637   0.594
  644TIP3    H2 1939   3.575   2.753   0.686
  645TIP3   OH2 1940   4.101   1.382   0.698
  645TIP3    H1 1941   4.050   1.314   0.742
  645TIP3    H2 1942   4.159   1.335   0.638
  646TIP3   OH2 1943   4.568   1.293   0.568
  646TIP3    H1 1944   4.587   1.384   0.545
  646TIP3    H2 1945   4.473   1.285   0.559
  647TIP3   OH2 1946   3.358   1.131   0.716
  647TIP3    H1 1947   3.265   1.111   0.716
  647TIP3    H2 1948   3.401   1.047   0.702
  648TIP3   OH2 1949   3.123   0.904   0.344
  648TIP3    H1 1950   3.186   0.959   0.298
  648TIP3    H2 1951   3.157   0.897   0.433
  649TIP3   OH2 1952   3.805   1.113   0.577
  649TIP3    H1 1953   3.851   1.170   0.515
  649TIP3    H2 1954   3.826   1.150   0.663
  650TIP3   OH2 1955   4.293   1.241   0.546
  650TIP3    H1 1956   4.262   1.208   0.462
  650TIP3    H2 1957   4.298   1.163   0.602
  651TIP3   OH2 1958   2.834   2.532   0.123
  651TIP3    H1 1959   2.755   2.489   0.091
  651TIP3    H2 1960   2.823   2.624   0.101
  652TIP3   OH2 1961   3.287   1.136   0.284
  652TIP3    H1 1962   3.247   1.159   0.200
  652TIP3    H2 1963   3.380   1.155   0.273
  653TIP3   OH2 1964   3.772   1.316   0.197
  653TIP3    H1 1965   3.824   1.264   0.258
  653TIP3    H2 1966   3.782   1.406   0.228
  654TIP3   OH2 1967   3.544   1.362   1.582
  654TIP3    H1 1968   3.508   1.294   1.638
  654TIP3    H2 1969   3.636   1.368   1.608
  655TIP3   OH2 1970   3.795   1.370   1.701
  655TIP3    H1 1971   3.875   1.346   1.654
  655TIP3    H2 1972   3.784   1.300   1.766
  656TIP3   OH2 1973   5.097   5.665   5.137
  656TIP3    H1 1974   5.029   5.706   5.190
  656TIP3    H2 1975   5.102   5.575   5.169
  657TIP3   OH2 1976   4.623   1.449   1.494
  657TIP3    H1 1977   4.638   1.421   1.585
  657TIP3    H2 1978   4.709   1.443   1.453
  658TIP3   OH2 1979   4.550   2.983   1.000
  658TIP3    H1 1980   4.474   2.953   0.949
  658TIP3    H2 1981   4.535   3.076   1.013
  659TIP3   OH2 1982   5.115   2.242   0.511
  659TIP3    H1 1983   5.147   2.188   0.583
  659TIP3    H2 1984   5.192   2.292   0.484
  660TIP3   OH2 1985   5.021   2.651   0.295
  660TIP3    H1 1986   5.057   2.566   0.269
  660TIP3    H2 1987   5.080   2.715   0.254
  661TIP3   OH2 1988   0.460   4.906   5.301
  661TIP3    H1 1989   0.407   4.981   5.328
  661TIP3    H2 1990   0.468   4.916   5.206
  662TIP3   OH2 1991   4.899   2.227   0.166
  662TIP3    H1 1992   4.927   2.137   0.185
  662TIP3    H2 1993   4.875   2.225   0.073
  663TIP3   OH2 1994   4.985   1.978   0.233
  663TIP3    H1 1995   5.016   1.922   0.304
  663TIP3    H2 1996   4.953   1.917   0.167
  664TIP3   OH2 1997   5.233   1.752   0.595
  664TIP3    H1 1998   5.237   1.828   0.537
  664TIP3    H2 1999   5.206   1.787   0.680
  665TIP3   OH2 2000   5.521   2.542   0.438
  665TIP3    H1 2001   5.438   2.584   0.460
  665TIP3    H2 2002   5.586   2.611   0.448
  666TIP3   OH2 2003   5.277   1.882   0.355
  666TIP3    H1 2004   5.337   1.952   0.380
  666TIP3    H2 2005   5.333   1.819   0.309
  667TIP3   OH2 2006   5.303   2.686   0.511
  667TIP3    H1 2007   5.293   2.777   0.480
  667TIP3    H2 2008   5.222   2.667   0.557
  668TIP3   OH2 2009   5.351   2.319   0.372
  668TIP3    H1 2010   5.354   2.276   0.287
  668TIP3    H2 2011   5.416   2.389   0.367
  669TIP3   OH2 2012   5.505   2.805   0.663
  669TIP3    H1 2013   5.452   2.871   0.707
  669TIP3    H2 2014   5.442   2.753   0.613
  670TIP3   OH2 2015   5.255   2.371   0.769
  670TIP3    H1 2016   5.262   2.461   0.800
  670TIP3    H2 2017   5.161   2.351   0.774
  671TIP3   OH2 2018   5.303   2.974   0.746
  671TIP3    H1 2019   5.280   2.975   0.653
  671TIP3    H2 2020   5.220   2.956   0.791
  672TIP3   OH2 2021   4.880   2.516   0.690
  672TIP3    H1 2022   4.812   2.505   0.623
  672TIP3    H2 2023   4.914   2.428   0.705
  673TIP3   OH2 2024   4.755   2.693   0.336
  673TIP3    H1 2025   4.845   2.668   0.314
  673TIP3    H2 2026   4.765   2.770   0.393
  674TIP3   OH2 2027   5.676   2.962   0.504
  674TIP3    H1 2028   5.670   3.047   0.546
  674TIP3    H2 2029   5.627   2.903   0.563
  675TIP3   OH2 2030   5.080   2.700   0.670
  675TIP3    H1 2031   5.129   2.692   0.751
  675TIP3    H2 2032   5.009   2.636   0.678
  676TIP3   OH2 2033   5.410   1.549   0.480
  676TIP3    H1 2034   5.453   1.525   0.399
  676TIP3    H2 2035   5.357   1.625   0.458
  677TIP3   OH2 2036   5.410   2.083   0.495
  677TIP3    H1 2037   5.355   2.088   0.573
  677TIP3    H2 2038   5.392   2.164   0.447
  678TIP3   OH2 2039   5.238   2.071   0.708
  678TIP3    H1 2040   5.243   2.145   0.769
  678TIP3    H2 2041   5.215   1.996   0.763
  679TIP3   OH2 2042   5.002   1.703   0.104
  679TIP3    H1 2043   4.917   1.732   0.071
  679TIP3    H2 2044   5.065   1.739   0.043
  680TIP3   OH2 2045   5.249   2.622   0.894
  680TIP3    H1 2046   5.329   2.649   0.939
  680TIP3    H2 2047   5.181   2.628   0.961
  681TIP3   OH2 2048   5.710   1.926   0.126
  681TIP3    H1 2049   5.747   2.013   0.145
  681TIP3    H2 2050   5.719   1.878   0.208
  682TIP3   OH2 2051   5.691   2.045   0.486
  682TIP3    H1 2052   5.598   2.069   0.481
  682TIP3    H2 2053   5.736   2.128   0.497
  683TIP3   OH2 2054   5.777   2.659   0.520
  683TIP3    H1 2055   5.820   2.637   0.603
  683TIP3    H2 2056   5.828   2.733   0.485
  684TIP3   OH2 2057   5.119   2.410   0.212
  684TIP3    H1 2058   5.047   2.356   0.180
  684TIP3    H2 2059   5.172   2.351   0.265
  685TIP3   OH2 2060   4.995   2.288   0.818
  685TIP3    H1 2061   4.999   2.272   0.912
  685TIP3    H2 2062   4.919   2.238   0.788
  686TIP3   OH2 2063   5.709   2.418   0.847
  686TIP3    H1 2064   5.637   2.366   0.811
  686TIP3    H2 2065   5.779   2.355   0.861
  687TIP3   OH2 2066   5.933   2.889   0.454
  687TIP3    H1 2067   5.844   2.923   0.458
  687TIP3    H2 2068   5.986   2.955   0.498
  688TIP3   OH2 2069   5.492   3.010   0.306
  688TIP3    H1 2070   5.519   3.077   0.243
  688TIP3    H2 2071   5.570   2.995   0.359
  689TIP3   OH2 2072   5.181   1.831   0.846
  689TIP3    H1 2073   5.087   1.837   0.861
  689TIP3    H2 2074   5.215   1.781   0.920
  690TIP3   OH2 2075   4.925   2.880   0.503
  690TIP3    H1 2076   4.972   2.806   0.540
  690TIP3    H2 2077   4.977   2.957   0.528
  691TIP3   OH2 2078   4.921   3.205   0.899
  691TIP3    H1 2079   5.005   3.207   0.944
  691TIP3    H2 2080   4.899   3.112   0.893
  692TIP3   OH2 2081   5.396   3.151   0.935
  692TIP3    H1 2082   5.491   3.140   0.939
  692TIP3    H2 2083   5.369   3.091   0.865
  693TIP3   OH2 2084   6.017   3.070   0.676
  693TIP3    H1 2085   6.005   3.000   0.740
  693TIP3    H2 2086   6.112   3.083   0.672
  694TIP3   OH2 2087   5.042   2.616   1.081
  694TIP3    H1 2088   5.058   2.522   1.089
  694TIP3    H2 2089   4.955   2.622   1.040
  695TIP3   OH2 2090   5.665   2.697   0.857
  695TIP3    H1 2091   5.619   2.724   0.777
  695TIP3    H2 2092   5.685   2.604   0.843
  696TIP3   OH2 2093   5.163   2.356   1.080
  696TIP3    H1 2094   5.245   2.332   1.035
  696TIP3    H2 2095   5.191   2.383   1.167
  697TIP3   OH2 2096   5.505   2.261   0.731
  697TIP3    H1 2097   5.419   2.304   0.735
  697TIP3    H2 2098   5.540   2.285   0.646
  698TIP3   OH2 2099   5.638   2.066   0.865
  698TIP3    H1 2100   5.710   2.030   0.813
  698TIP3    H2 2101   5.594   2.127   0.805
  699TIP3   OH2 2102   5.704   1.801   0.695
  699TIP3    H1 2103   5.781   1.843   0.658
  699TIP3    H2 2104   5.638   1.806   0.625
  700TIP3   OH2 2105   5.684   2.342   0.532
  700TIP3    H1 2106   5.773   2.371   0.551
  700TIP3    H2 2107   5.636   2.422   0.511
  701TIP3   OH2 2108   5.497   2.130   1.097
  701TIP3    H1 2109   5.432   2.061   1.111
  701TIP3    H2 2110   5.532   2.113   1.009
  702TIP3   OH2 2111   5.691   1.523   0.707
  702TIP3    H1 2112   5.735   1.602   0.675
  702TIP3    H2 2113   5.608   1.554   0.742
  703TIP3   OH2 2114   5.860   2.209   0.967
  703TIP3    H1 2115   5.935   2.158   0.936
  703TIP3    H2 2116   5.785   2.151   0.956
  704TIP3   OH2 2117   5.345   1.903   1.151
  704TIP3    H1 2118   5.344   1.813   1.119
  704TIP3    H2 2119   5.377   1.896   1.241
  705TIP3   OH2 2120   5.886   1.790   1.063
  705TIP3    H1 2121   5.940   1.745   1.127
  705TIP3    H2 2122   5.834   1.852   1.114
  706TIP3   OH2 2123   4.655   2.832   0.109
  706TIP3    H1 2124   4.642   2.775   0.185
  706TIP3    H2 2125   4.711   2.903   0.142
  707TIP3   OH2 2126   4.856   2.258   0.437
  707TIP3    H1 2127   4.856   2.253   0.341
  707TIP3    H2 2128   4.948   2.260   0.461
  708TIP3   OH2 2129   5.077   1.958   1.108
  708TIP3    H1 2130   5.172   1.954   1.120
  708TIP3    H2 2131   5.045   1.875   1.143
  709TIP3   OH2 2132   4.969   1.524   0.514
  709TIP3    H1 2133   5.060   1.497   0.519
  709TIP3    H2 2134   4.969   1.597   0.451
  710TIP3   OH2 2135   4.813   1.932   0.519
  710TIP3    H1 2136   4.869   1.902   0.448
  710TIP3    H2 2137   4.834   2.025   0.529
  711TIP3   OH2 2138   5.027   1.521   0.845
  711TIP3    H1 2139   4.988   1.506   0.931
  711TIP3    H2 2140   4.957   1.564   0.795
  712TIP3   OH2 2141   5.077   2.934   0.905
  712TIP3    H1 2142   4.984   2.918   0.893
  712TIP3    H2 2143   5.091   2.929   0.999
  713TIP3   OH2 2144   5.281   2.953   0.468
  713TIP3    H1 2145   5.209   2.998   0.424
  713TIP3    H2 2146   5.358   2.974   0.414
  714TIP3   OH2 2147   5.674   3.217   0.605
  714TIP3    H1 2148   5.711   3.212   0.693
  714TIP3    H2 2149   5.742   3.258   0.553
  715TIP3   OH2 2150   5.893   3.334   0.496
  715TIP3    H1 2151   5.930   3.347   0.409
  715TIP3    H2 2152   5.949   3.386   0.554
  716TIP3   OH2 2153   4.941   3.247   0.516
  716TIP3    H1 2154   4.846   3.235   0.516
  716TIP3    H2 2155   4.959   3.297   0.595
  717TIP3   OH2 2156   5.085   3.094   0.349
  717TIP3    H1 2157   5.034   3.147   0.410
  717TIP3    H2 2158   5.120   3.158   0.287
  718TIP3   OH2 2159   4.827   2.993   0.266
  718TIP3    H1 2160   4.870   2.948   0.339
  718TIP3    H2 2161   4.891   3.058   0.237
  719TIP3   OH2 2162   5.329   1.631   1.086
  719TIP3    H1 2163   5.286   1.560   1.135
  719TIP3    H2 2164   5.417   1.634   1.123
  720TIP3   OH2 2165   5.565   1.627   1.224
  720TIP3    H1 2166   5.626   1.605   1.154
  720TIP3    H2 2167   5.555   1.546   1.274
  721TIP3   OH2 2168   0.091   3.403   1.329
  721TIP3    H1 2169   0.131   3.400   1.416
  721TIP3    H2 2170   0.045   3.320   1.320
  722TIP3   OH2 2171   0.332   3.690   1.026
  722TIP3    H1 2172   0.324   3.634   1.103
  722TIP3    H2 2173   0.361   3.774   1.060
  723TIP3   OH2 2174   6.379   3.615   1.403
  723TIP3    H1 2175   6.396   3.553   1.333
  723TIP3    H2 2176   6.465   3.652   1.424
  724TIP3   OH2 2177   0.889   2.945   1.351
  724TIP3    H1 2178   0.890   3.035   1.384
  724TIP3    H2 2179   0.934   2.949   1.267
  725TIP3   OH2 2180   0.299   3.127   1.384
  725TIP3    H1 2181   0.330   3.038   1.397
  725TIP3    H2 2182   0.246   3.124   1.304
  726TIP3   OH2 2183   0.319   2.907   1.032
  726TIP3    H1 2184   0.403   2.885   1.073
  726TIP3    H2 2185   0.329   2.876   0.942
  727TIP3   OH2 2186   0.937   3.196   1.512
  727TIP3    H1 2187   0.845   3.223   1.508
  727TIP3    H2 2188   0.955   3.185   1.605
  728TIP3   OH2 2189   6.098   2.772   1.734
  728TIP3    H1 2190   6.061   2.785   1.647
  728TIP3    H2 2191   6.047   2.829   1.791
  729TIP3   OH2 2192   6.263   3.686   1.643
  729TIP3    H1 2193   6.226   3.769   1.612
  729TIP3    H2 2194   6.317   3.655   1.571
  730TIP3   OH2 2195   0.534   2.863   1.211
  730TIP3    H1 2196   0.477   2.873   1.288
  730TIP3    H2 2197   0.584   2.945   1.208
  731TIP3   OH2 2198   0.397   3.933   1.170
  731TIP3    H1 2199   0.311   3.926   1.211
  731TIP3    H2 2200   0.393   4.015   1.121
  732TIP3   OH2 2201   0.681   2.851   1.520
  732TIP3    H1 2202   0.595   2.872   1.486
  732TIP3    H2 2203   0.741   2.870   1.448
  733TIP3   OH2 2204   0.611   3.850   1.504
  733TIP3    H1 2205   0.594   3.777   1.445
  733TIP3    H2 2206   0.594   3.928   1.452
  734TIP3   OH2 2207   0.798   3.513   1.346
  734TIP3    H1 2208   0.716   3.562   1.346
  734TIP3    H2 2209   0.840   3.536   1.263
  735TIP3   OH2 2210   0.213   3.307   0.896
  735TIP3    H1 2211   0.202   3.401   0.883
  735TIP3    H2 2212   0.302   3.289   0.864
  736TIP3   OH2 2213   0.491   3.383   1.664
  736TIP3    H1 2214   0.486   3.464   1.713
  736TIP3    H2 2215   0.408   3.377   1.617
  737TIP3   OH2 2216   6.320   3.298   1.535
  737TIP3    H1 2217   6.324   3.245   1.456
  737TIP3    H2 2218   6.254   3.364   1.517
  738TIP3   OH2 2219   0.155   3.942   1.289
  738TIP3    H1 2220   0.129   4.024   1.330
  738TIP3    H2 2221   0.136   3.875   1.356
  739TIP3   OH2 2222   0.845   4.212   1.568
  739TIP3    H1 2223   0.849   4.117   1.580
  739TIP3    H2 2224   0.765   4.239   1.614
  740TIP3   OH2 2225   6.441   3.992   1.686
  740TIP3    H1 2226   6.470   4.076   1.720
  740TIP3    H2 2227   6.347   4.002   1.673
  741TIP3   OH2 2228   0.726   3.328   1.834
  741TIP3    H1 2229   0.647   3.342   1.782
  741TIP3    H2 2230   0.742   3.234   1.829
  742TIP3   OH2 2231   0.278   2.695   1.841
  742TIP3    H1 2232   0.349   2.668   1.900
  742TIP3    H2 2233   0.198   2.679   1.891
  743TIP3   OH2 2234   0.498   3.121   1.758
  743TIP3    H1 2235   0.454   3.112   1.842
  743TIP3    H2 2236   0.473   3.208   1.727
  744TIP3   OH2 2237   6.188   3.047   1.650
  744TIP3    H1 2238   6.151   3.105   1.716
  744TIP3    H2 2239   6.163   3.087   1.567
  745TIP3   OH2 2240   0.248   3.310   1.976
  745TIP3    H1 2241   0.212   3.243   2.035
  745TIP3    H2 2242   0.339   3.320   2.003
  746TIP3   OH2 2243   0.186   3.124   1.128
  746TIP3    H1 2244   0.165   3.181   1.054
  746TIP3    H2 2245   0.221   3.044   1.088
  747TIP3   OH2 2246   0.247   3.330   1.554
  747TIP3    H1 2247   0.264   3.256   1.496
  747TIP3    H2 2248   0.189   3.296   1.621
  748TIP3   OH2 2249   0.380   2.865   1.437
  748TIP3    H1 2250   0.354   2.887   1.527
  748TIP3    H2 2251   0.317   2.798   1.410
  749TIP3   OH2 2252   0.551   4.558   1.666
  749TIP3    H1 2253   0.549   4.571   1.571
  749TIP3    H2 2254   0.631   4.603   1.695
  750TIP3   OH2 2255   6.476   3.149   1.341
  750TIP3    H1 2256   6.519   3.102   1.269
  750TIP3    H2 2257   6.465   3.084   1.409
  751TIP3   OH2 2258   6.455   3.011   1.600
  751TIP3    H1 2259   6.364   3.037   1.610
  751TIP3    H2 2260   6.504   3.080   1.645
  752TIP3   OH2 2261   0.562   3.651   1.321
  752TIP3    H1 2262   0.583   3.705   1.245
  752TIP3    H2 2263   0.479   3.609   1.299
  753TIP3   OH2 2264   0.074   3.755   1.725
  753TIP3    H1 2265   0.100   3.747   1.817
  753TIP3    H2 2266   0.020   3.834   1.723
  754TIP3   OH2 2267   0.056   3.497   1.964
  754TIP3    H1 2268   0.028   3.499   1.873
  754TIP3    H2 2269   0.130   3.438   1.966
  755TIP3   OH2 2270   0.221   4.012   1.600
  755TIP3    H1 2271   0.127   3.993   1.611
  755TIP3    H2 2272   0.246   4.054   1.682
  756TIP3   OH2 2273   0.556   3.045   0.557
  756TIP3    H1 2274   0.573   2.963   0.512
  756TIP3    H2 2275   0.596   3.112   0.502
  757TIP3   OH2 2276   0.859   3.924   1.587
  757TIP3    H1 2277   0.764   3.916   1.583
  757TIP3    H2 2278   0.890   3.893   1.502
  758TIP3   OH2 2279   0.334   3.512   1.241
  758TIP3    H1 2280   0.245   3.487   1.265
  758TIP3    H2 2281   0.373   3.433   1.204
  759TIP3   OH2 2282   0.132   3.713   1.462
  759TIP3    H1 2283   0.118   3.720   1.556
  759TIP3    H2 2284   0.213   3.662   1.453
  760TIP3   OH2 2285   0.371   4.232   1.498
  760TIP3    H1 2286   0.304   4.165   1.512
  760TIP3    H2 2287   0.334   4.290   1.431
  761TIP3   OH2 2288   0.309   2.925   1.692
  761TIP3    H1 2289   0.382   2.975   1.728
  761TIP3    H2 2290   0.298   2.851   1.752
  762TIP3   OH2 2291   0.134   3.165   1.753
  762TIP3    H1 2292   0.163   3.218   1.828
  762TIP3    H2 2293   0.189   3.087   1.757
  763TIP3   OH2 2294   0.754   3.053   1.708
  763TIP3    H1 2295   0.663   3.074   1.728
  763TIP3    H2 2296   0.750   2.978   1.649
  764TIP3   OH2 2297   0.430   3.267   1.145
  764TIP3    H1 2298   0.345   3.224   1.150
  764TIP3    H2 2299   0.489   3.211   1.195
  765TIP3   OH2 2300   0.429   4.217   1.132
  765TIP3    H1 2301   0.388   4.211   1.046
  765TIP3    H2 2302   0.523   4.227   1.113
  766TIP3   OH2 2303   0.291   4.127   1.836
  766TIP3    H1 2304   0.284   4.058   1.902
  766TIP3    H2 2305   0.362   4.184   1.868
  767TIP3   OH2 2306   6.496   3.765   2.046
  767TIP3    H1 2307   6.421   3.737   1.992
  767TIP3    H2 2308   6.560   3.695   2.036
  768TIP3   OH2 2309   0.385   3.778   1.647
  768TIP3    H1 2310   0.461   3.814   1.602
  768TIP3    H2 2311   0.316   3.843   1.633
  769TIP3   OH2 2312   6.180   3.182   1.899
  769TIP3    H1 2313   6.163   3.216   1.987
  769TIP3    H2 2314   6.214   3.258   1.850
  770TIP3   OH2 2315   0.288   3.673   2.031
  770TIP3    H1 2316   0.345   3.638   1.962
  770TIP3    H2 2317   0.299   3.612   2.104
  771TIP3   OH2 2318   6.405   3.042   1.992
  771TIP3    H1 2319   6.414   2.961   1.941
  771TIP3    H2 2320   6.338   3.092   1.945
  772TIP3   OH2 2321   6.365   2.833   1.800
  772TIP3    H1 2322   6.407   2.884   1.731
  772TIP3    H2 2323   6.276   2.818   1.767
  773TIP3   OH2 2324   6.499   3.444   1.695
  773TIP3    H1 2325   6.472   3.370   1.640
  773TIP3    H2 2326   6.418   3.494   1.709
  774TIP3   OH2 2327   0.505   3.338   2.080
  774TIP3    H1 2328   0.550   3.255   2.096
  774TIP3    H2 2329   0.572   3.395   2.044
  775TIP3   OH2 2330   0.512   3.615   1.820
  775TIP3    H1 2331   0.455   3.672   1.767
  775TIP3    H2 2332   0.600   3.632   1.787
  776TIP3   OH2 2333   6.217   3.152   2.179
  776TIP3    H1 2334   6.188   3.061   2.191
  776TIP3    H2 2335   6.302   3.144   2.136
  777TIP3   OH2 2336   6.514   2.631   1.909
  777TIP3    H1 2337   6.465   2.700   1.865
  777TIP3    H2 2338   6.478   2.549   1.874
  778TIP3   OH2 2339   0.141   3.106   2.122
  778TIP3    H1 2340   0.123   3.092   2.215
  778TIP3    H2 2341   0.060   3.082   2.078
  779TIP3   OH2 2342   0.378   3.045   1.987
  779TIP3    H1 2343   0.301   3.052   2.043
  779TIP3    H2 2344   0.450   3.027   2.047
  780TIP3   OH2 2345   0.614   3.023   2.138
  780TIP3    H1 2346   0.625   2.929   2.147
  780TIP3    H2 2347   0.606   3.055   2.228
  781TIP3   OH2 2348   0.086   2.615   2.171
  781TIP3    H1 2349   0.155   2.549   2.169
  781TIP3    H2 2350   0.057   2.622   2.080
  782TIP3   OH2 2351   0.177   2.823   2.325
  782TIP3    H1 2352   0.148   2.752   2.268
  782TIP3    H2 2353   0.106   2.887   2.321
  783TIP3   OH2 2354   0.679   4.304   1.063
  783TIP3    H1 2355   0.714   4.330   1.149
  783TIP3    H2 2356   0.747   4.329   1.001
  784TIP3   OH2 2357   0.692   4.318   1.346
  784TIP3    H1 2358   0.643   4.236   1.342
  784TIP3    H2 2359   0.761   4.302   1.410
  785TIP3   OH2 2360   0.728   4.014   1.902
  785TIP3    H1 2361   0.656   4.022   1.965
  785TIP3    H2 2362   0.772   4.099   1.906
  786TIP3   OH2 2363   0.584   3.523   0.487
  786TIP3    H1 2364   0.647   3.592   0.463
  786TIP3    H2 2365   0.608   3.499   0.576
  787TIP3   OH2 2366   0.661   3.413   0.728
  787TIP3    H1 2367   0.595   3.368   0.781
  787TIP3    H2 2368   0.728   3.441   0.792
  788TIP3   OH2 2369   0.738   3.788   1.145
  788TIP3    H1 2370   0.761   3.724   1.077
  788TIP3    H2 2371   0.731   3.871   1.098
  789TIP3   OH2 2372   0.553   4.074   1.360
  789TIP3    H1 2373   0.486   4.122   1.408
  789TIP3    H2 2374   0.506   4.031   1.289
  790TIP3   OH2 2375   0.544   3.274   0.393
  790TIP3    H1 2376   0.465   3.246   0.440
  790TIP3    H2 2377   0.557   3.365   0.420
  791TIP3   OH2 2378   0.491   3.253   0.876
  791TIP3    H1 2379   0.507   3.159   0.864
  791TIP3    H2 2380   0.476   3.263   0.970
  792TIP3   OH2 2381   0.768   3.668   1.725
  792TIP3    H1 2382   0.832   3.601   1.704
  792TIP3    H2 2383   0.784   3.737   1.661
  793TIP3   OH2 2384   0.934   3.451   1.707
  793TIP3    H1 2385   0.863   3.411   1.756
  793TIP3    H2 2386   1.011   3.398   1.727
  794TIP3   OH2 2387   0.556   2.984   0.823
  794TIP3    H1 2388   0.641   2.944   0.842
  794TIP3    H2 2389   0.563   3.013   0.732
  795TIP3   OH2 2390   0.637   3.118   1.261
  795TIP3    H1 2391   0.711   3.142   1.206
  795TIP3    H2 2392   0.647   3.172   1.339
  796TIP3   OH2 2393   0.685   3.293   1.472
  796TIP3    H1 2394   0.615   3.318   1.532
  796TIP3    H2 2395   0.716   3.375   1.435
  797TIP3   OH2 2396   1.159   2.885   2.030
  797TIP3    H1 2397   1.223   2.822   1.997
  797TIP3    H2 2398   1.130   2.933   1.952
  798TIP3   OH2 2399   1.015   3.011   1.834
  798TIP3    H1 2400   0.947   3.049   1.890
  798TIP3    H2 2401   0.970   2.943   1.784
  799TIP3   OH2 2402   6.495   4.244   1.757
  799TIP3    H1 2403   6.450   4.286   1.831
  799TIP3    H2 2404   6.546   4.314   1.716
  800TIP3   OH2 2405   0.170   4.412   1.621
  800TIP3    H1 2406   0.246   4.355   1.610
  800TIP3    H2 2407   0.200   4.482   1.678
  801TIP3   OH2 2408   0.923   2.753   1.733
  801TIP3    H1 2409   0.834   2.728   1.706
  801TIP3    H2 2410   0.973   2.671   1.727
  802TIP3   OH2 2411   0.099   4.220   1.362
  802TIP3    H1 2412   0.028   4.244   1.422
  802TIP3    H2 2413   0.143   4.303   1.343
  803TIP3   OH2 2414   0.309   4.410   1.287
  803TIP3    H1 2415   0.304   4.486   1.230
  803TIP3    H2 2416   0.348   4.341   1.233
  804TIP3   OH2 2417   6.095   0.328   5.008
  804TIP3    H1 2418   6.046   0.330   5.089
  804TIP3    H2 2419   6.066   0.247   4.964
  805TIP3   OH2 2420   0.631   2.598   1.247
  805TIP3    H1 2421   0.669   2.598   1.159
  805TIP3    H2 2422   0.580   2.679   1.251
  806TIP3   OH2 2423   0.724   2.662   0.996
  806TIP3    H1 2424   0.805   2.617   0.971
  806TIP3    H2 2425   0.748   2.754   0.998
  807TIP3   OH2 2426   6.067   2.654   2.317
  807TIP3    H1 2427   6.043   2.633   2.226
  807TIP3    H2 2428   6.162   2.665   2.314
  808TIP3   OH2 2429   6.335   2.611   2.285
  808TIP3    H1 2430   6.423   2.618   2.248
  808TIP3    H2 2431   6.349   2.607   2.379
  809TIP3   OH2 2432   0.670   2.751   2.158
  809TIP3    H1 2433   0.685   2.721   2.248
  809TIP3    H2 2434   0.756   2.747   2.116
  810TIP3   OH2 2435   0.594   4.285   1.662
  810TIP3    H1 2436   0.518   4.254   1.612
  810TIP3    H2 2437   0.578   4.379   1.674
  811TIP3   OH2 2438   1.868   3.681   0.401
  811TIP3    H1 2439   1.834   3.767   0.380
  811TIP3    H2 2440   1.798   3.620   0.376
  812TIP3   OH2 2441   1.865   3.662   0.817
  812TIP3    H1 2442   1.912   3.647   0.899
  812TIP3    H2 2443   1.825   3.578   0.797
  813TIP3   OH2 2444   2.119   3.978   0.481
  813TIP3    H1 2445   2.109   3.910   0.547
  813TIP3    H2 2446   2.147   4.056   0.530
  814TIP3   OH2 2447   1.155   3.955   0.874
  814TIP3    H1 2448   1.142   3.861   0.889
  814TIP3    H2 2449   1.249   3.964   0.864
  815TIP3   OH2 2450   0.833   3.188   0.727
  815TIP3    H1 2451   0.770   3.261   0.723
  815TIP3    H2 2452   0.823   3.144   0.643
  816TIP3   OH2 2453   0.904   3.457   0.860
  816TIP3    H1 2454   0.943   3.371   0.878
  816TIP3    H2 2455   0.962   3.497   0.796
  817TIP3   OH2 2456   1.751   4.419   0.486
  817TIP3    H1 2457   1.804   4.346   0.454
  817TIP3    H2 2458   1.743   4.402   0.580
  818TIP3   OH2 2459   1.668   3.884   0.837
  818TIP3    H1 2460   1.710   3.805   0.803
  818TIP3    H2 2461   1.741   3.939   0.866
  819TIP3   OH2 2462   2.690   3.211   0.844
  819TIP3    H1 2463   2.714   3.293   0.888
  819TIP3    H2 2464   2.706   3.228   0.751
  820TIP3   OH2 2465   2.084   3.380   0.868
  820TIP3    H1 2466   2.123   3.296   0.893
  820TIP3    H2 2467   2.044   3.363   0.783
  821TIP3   OH2 2468   1.440   3.049   0.842
  821TIP3    H1 2469   1.423   3.126   0.787
  821TIP3    H2 2470   1.387   2.980   0.802
  822TIP3   OH2 2471   2.125   3.138   0.462
  822TIP3    H1 2472   2.190   3.126   0.530
  822TIP3    H2 2473   2.174   3.169   0.386
  823TIP3   OH2 2474   1.055   3.238   0.965
  823TIP3    H1 2475   1.148   3.225   0.985
  823TIP3    H2 2476   1.044   3.200   0.878
  824TIP3   OH2 2477   1.502   3.464   0.763
  824TIP3    H1 2478   1.594   3.440   0.770
  824TIP3    H2 2479   1.458   3.384   0.736
  825TIP3   OH2 2480   2.759   3.426   1.011
  825TIP3    H1 2481   2.670   3.462   1.003
  825TIP3    H2 2482   2.788   3.455   1.097
  826TIP3   OH2 2483   1.417   3.034   1.277
  826TIP3    H1 2484   1.370   3.070   1.202
  826TIP3    H2 2485   1.349   3.020   1.343
  827TIP3   OH2 2486   1.770   3.908   0.260
  827TIP3    H1 2487   1.723   3.874   0.184
  827TIP3    H2 2488   1.713   3.975   0.296
  828TIP3   OH2 2489   1.519   3.807   1.059
  828TIP3    H1 2490   1.460   3.876   1.091
  828TIP3    H2 2491   1.565   3.847   0.985
  829TIP3   OH2 2492   2.299   3.155   0.669
  829TIP3    H1 2493   2.265   3.126   0.754
  829TIP3    H2 2494   2.355   3.229   0.690
  830TIP3   OH2 2495   1.300   3.148   1.056
  830TIP3    H1 2496   1.353   3.223   1.082
  830TIP3    H2 2497   1.349   3.107   0.985
  831TIP3   OH2 2498   1.350   4.007   1.153
  831TIP3    H1 2499   1.335   4.095   1.120
  831TIP3    H2 2500   1.272   3.987   1.206
  832TIP3   OH2 2501   0.752   3.725   0.385
  832TIP3    H1 2502   0.781   3.784   0.315
  832TIP3    H2 2503   0.752   3.780   0.464
  833TIP3   OH2 2504   2.173   4.215   0.631
  833TIP3    H1 2505   2.090   4.205   0.676
  833TIP3    H2 2506   2.169   4.303   0.592
  834TIP3   OH2 2507   2.487   3.108   1.014
  834TIP3    H1 2508   2.400   3.126   0.978
  834TIP3    H2 2509   2.547   3.133   0.944
  835TIP3   OH2 2510   1.768   2.746   1.007
  835TIP3    H1 2511   1.760   2.655   1.037
  835TIP3    H2 2512   1.692   2.790   1.045
  836TIP3   OH2 2513   1.887   4.233   0.314
  836TIP3    H1 2514   1.939   4.153   0.312
  836TIP3    H2 2515   1.948   4.302   0.287
  837TIP3   OH2 2516   2.035   3.989   0.216
  837TIP3    H1 2517   1.946   3.957   0.228
  837TIP3    H2 2518   2.075   3.985   0.302
  838TIP3   OH2 2519   2.404   4.115   0.983
  838TIP3    H1 2520   2.388   4.039   0.928
  838TIP3    H2 2521   2.387   4.190   0.927
  839TIP3   OH2 2522   1.708   3.509   0.240
  839TIP3    H1 2523   1.626   3.558   0.229
  839TIP3    H2 2524   1.746   3.507   0.152
  840TIP3   OH2 2525   6.054   0.214   5.257
  840TIP3    H1 2526   6.135   0.256   5.286
  840TIP3    H2 2527   6.081   0.126   5.230
  841TIP3   OH2 2528   2.596   3.768   0.838
  841TIP3    H1 2529   2.512   3.813   0.842
  841TIP3    H2 2530   2.628   3.782   0.749
  842TIP3   OH2 2531   2.054   3.595   0.223
  842TIP3    H1 2532   1.997   3.625   0.294
  842TIP3    H2 2533   2.132   3.562   0.268
  843TIP3   OH2 2534   2.279   3.634   1.148
  843TIP3    H1 2535   2.278   3.715   1.198
  843TIP3    H2 2536   2.195   3.633   1.101
  844TIP3   OH2 2537   1.290   3.608   0.655
  844TIP3    H1 2538   1.250   3.550   0.591
  844TIP3    H2 2539   1.368   3.561   0.685
  845TIP3   OH2 2540   1.414   4.003   0.771
  845TIP3    H1 2541   1.389   3.980   0.682
  845TIP3    H2 2542   1.501   3.964   0.783
  846TIP3   OH2 2543   1.396   3.572   0.990
  846TIP3    H1 2544   1.437   3.545   0.908
  846TIP3    H2 2545   1.441   3.652   1.015
  847TIP3   OH2 2546   1.943   4.204   0.770
  847TIP3    H1 2547   1.924   4.286   0.815
  847TIP3    H2 2548   1.923   4.136   0.834
  848TIP3   OH2 2549   1.554   4.108   1.313
  848TIP3    H1 2550   1.497   4.170   1.359
  848TIP3    H2 2551   1.493   4.057   1.259
  849TIP3   OH2 2552   1.915   3.456   0.036
  849TIP3    H1 2553   1.962   3.510   0.099
  849TIP3    H2 2554   1.942   3.490  -0.050
  850TIP3   OH2 2555   1.318   3.676   1.437
  850TIP3    H1 2556   1.316   3.768   1.466
  850TIP3    H2 2557   1.226   3.650   1.434
  851TIP3   OH2 2558   1.627   4.136   0.332
  851TIP3    H1 2559   1.711   4.180   0.343
  851TIP3    H2 2560   1.567   4.204   0.300
  852TIP3   OH2 2561   1.349   4.273   1.394
  852TIP3    H1 2562   1.321   4.284   1.303
  852TIP3    H2 2563   1.267   4.260   1.442
  853TIP3   OH2 2564   2.400   2.705   0.106
  853TIP3    H1 2565   2.316   2.722   0.149
  853TIP3    H2 2566   2.399   2.763   0.029
  854TIP3   OH2 2567   1.171   3.456   0.464
  854TIP3    H1 2568   1.096   3.499   0.424
  854TIP3    H2 2569   1.150   3.363   0.462
  855TIP3   OH2 2570   0.931   3.810   1.349
  855TIP3    H1 2571   0.863   3.800   1.283
  855TIP3    H2 2572   0.963   3.721   1.365
  856TIP3   OH2 2573   0.780   4.026   1.006
  856TIP3    H1 2574   0.875   4.036   1.011
  856TIP3    H2 2575   0.746   4.107   1.045
  857TIP3   OH2 2576   2.638   4.473   1.044
  857TIP3    H1 2577   2.644   4.379   1.056
  857TIP3    H2 2578   2.558   4.498   1.090
  858TIP3   OH2 2579   1.743   4.241   1.166
  858TIP3    H1 2580   1.746   4.331   1.197
  858TIP3    H2 2581   1.675   4.199   1.220
  859TIP3   OH2 2582   1.516   4.355   0.183
  859TIP3    H1 2583   1.482   4.399   0.105
  859TIP3    H2 2584   1.510   4.420   0.253
  860TIP3   OH2 2585   0.959   4.231   0.533
  860TIP3    H1 2586   1.004   4.221   0.617
  860TIP3    H2 2587   0.869   4.206   0.551
  861TIP3   OH2 2588   6.123   1.243   5.085
  861TIP3    H1 2589   6.046   1.188   5.073
  861TIP3    H2 2590   6.134   1.248   5.180
  862TIP3   OH2 2591   1.760   4.296   0.070
  862TIP3    H1 2592   1.673   4.318   0.103
  862TIP3    H2 2593   1.806   4.258   0.145
  863TIP3   OH2 2594   2.529   3.591   1.315
  863TIP3    H1 2595   2.445   3.600   1.270
  863TIP3    H2 2596   2.548   3.497   1.311
  864TIP3   OH2 2597   1.127   4.005   1.318
  864TIP3    H1 2598   1.175   4.004   1.400
  864TIP3    H2 2599   1.058   3.938   1.330
  865TIP3   OH2 2600   1.531   2.829   1.129
  865TIP3    H1 2601   1.445   2.797   1.099
  865TIP3    H2 2602   1.510   2.908   1.179
  866TIP3   OH2 2603   2.064   2.942   1.326
  866TIP3    H1 2604   2.135   2.917   1.385
  866TIP3    H2 2605   1.984   2.922   1.374
  867TIP3   OH2 2606   2.286   3.371   1.240
  867TIP3    H1 2607   2.244   3.367   1.326
  867TIP3    H2 2608   2.269   3.460   1.209
  868TIP3   OH2 2609   6.308   0.481   5.091
  868TIP3    H1 2610   6.238   0.429   5.050
  868TIP3    H2 2611   6.293   0.570   5.059
  869TIP3   OH2 2612   1.725   2.975   0.141
  869TIP3    H1 2613   1.670   2.976   0.219
  869TIP3    H2 2614   1.702   2.894   0.096
  870TIP3   OH2 2615   1.452   3.356   1.145
  870TIP3    H1 2616   1.469   3.397   1.230
  870TIP3    H2 2617   1.427   3.428   1.088
  871TIP3   OH2 2618   1.351   3.253   0.684
  871TIP3    H1 2619   1.259   3.228   0.691
  871TIP3    H2 2620   1.367   3.257   0.590
  872TIP3   OH2 2621   1.831   3.314   0.389
  872TIP3    H1 2622   1.782   3.383   0.344
  872TIP3    H2 2623   1.890   3.278   0.322
  873TIP3   OH2 2624   2.012   3.580   1.463
  873TIP3    H1 2625   1.983   3.511   1.523
  873TIP3    H2 2626   2.104   3.594   1.485
  874TIP3   OH2 2627   1.987   3.326   0.617
  874TIP3    H1 2628   1.922   3.349   0.552
  874TIP3    H2 2629   2.034   3.252   0.580
  875TIP3   OH2 2630   1.304   2.880   0.100
  875TIP3    H1 2631   1.342   2.825   0.169
  875TIP3    H2 2632   1.238   2.824   0.059
  876TIP3   OH2 2633   0.841   2.917   0.977
  876TIP3    H1 2634   0.915   2.949   1.029
  876TIP3    H2 2635   0.875   2.911   0.888
  877TIP3   OH2 2636   0.744   2.833   0.414
  877TIP3    H1 2637   0.833   2.819   0.382
  877TIP3    H2 2638   0.742   2.789   0.499
  878TIP3   OH2 2639   2.016   3.579   1.039
  878TIP3    H1 2640   2.046   3.512   0.977
  878TIP3    H2 2641   1.979   3.529   1.112
  879TIP3   OH2 2642   1.706   3.046   0.727
  879TIP3    H1 2643   1.625   3.037   0.778
  879TIP3    H2 2644   1.776   3.026   0.789
  880TIP3   OH2 2645   1.104   3.144   0.713
  880TIP3    H1 2646   1.010   3.142   0.692
  880TIP3    H2 2647   1.133   3.054   0.698
  881TIP3   OH2 2648   1.405   3.248   0.421
  881TIP3    H1 2649   1.490   3.204   0.426
  881TIP3    H2 2650   1.357   3.200   0.353
  882TIP3   OH2 2651   2.162   3.117   0.920
  882TIP3    H1 2652   2.139   3.133   1.011
  882TIP3    H2 2653   2.096   3.056   0.888
  883TIP3   OH2 2654   1.219   3.187   0.161
  883TIP3    H1 2655   1.144   3.131   0.145
  883TIP3    H2 2656   1.261   3.197   0.076
  884TIP3   OH2 2657   2.347   4.816   1.144
  884TIP3    H1 2658   2.341   4.836   1.051
  884TIP3    H2 2659   2.424   4.863   1.174
  885TIP3   OH2 2660   1.290   3.930   1.557
  885TIP3    H1 2661   1.371   3.953   1.601
  885TIP3    H2 2662   1.222   3.939   1.624
  886TIP3   OH2 2663   1.763   3.388   0.818
  886TIP3    H1 2664   1.825   3.338   0.765
  886TIP3    H2 2665   1.761   3.342   0.902
  887TIP3   OH2 2666   1.255   2.911   0.684
  887TIP3    H1 2667   1.304   2.829   0.681
  887TIP3    H2 2668   1.259   2.944   0.594
  888TIP3   OH2 2669   1.726   3.290   1.088
  888TIP3    H1 2670   1.640   3.325   1.108
  888TIP3    H2 2671   1.786   3.342   1.142
  889TIP3   OH2 2672   1.477   3.658   0.203
  889TIP3    H1 2673   1.413   3.587   0.199
  889TIP3    H2 2674   1.458   3.701   0.287
  890TIP3   OH2 2675   2.353   3.902   0.812
  890TIP3    H1 2676   2.388   3.950   0.737
  890TIP3    H2 2677   2.272   3.863   0.781
  891TIP3   OH2 2678   1.998   2.990   0.073
  891TIP3    H1 2679   1.905   2.965   0.065
  891TIP3    H2 2680   1.996   3.082   0.100
  892TIP3   OH2 2681   1.863   3.981   1.209
  892TIP3    H1 2682   1.910   3.977   1.293
  892TIP3    H2 2683   1.822   4.067   1.209
  893TIP3   OH2 2684   2.004   3.241   0.182
  893TIP3    H1 2685   2.099   3.243   0.191
  893TIP3    H2 2686   1.984   3.313   0.123
  894TIP3   OH2 2687   1.158   3.673   0.892
  894TIP3    H1 2688   1.186   3.661   0.801
  894TIP3    H2 2689   1.229   3.636   0.944
  895TIP3   OH2 2690   1.622   3.779   0.007
  895TIP3    H1 2691   1.596   3.871   0.011
  895TIP3    H2 2692   1.567   3.737   0.074
  896TIP3   OH2 2693   1.058   3.581   1.483
  896TIP3    H1 2694   1.090   3.593   1.573
  896TIP3    H2 2695   0.974   3.537   1.493
  897TIP3   OH2 2696   1.783   3.734   1.488
  897TIP3    H1 2697   1.735   3.710   1.409
  897TIP3    H2 2698   1.869   3.694   1.477
  898TIP3   OH2 2699   2.016   4.259   1.093
  898TIP3    H1 2700   1.922   4.248   1.101
  898TIP3    H2 2701   2.042   4.304   1.174
  899TIP3   OH2 2702   0.264   0.254   5.321
  899TIP3    H1 2703   0.196   0.212   5.268
  899TIP3    H2 2704   0.272   0.341   5.283
  900TIP3   OH2 2705   2.652   4.190   1.074
  900TIP3    H1 2706   2.557   4.180   1.073
  900TIP3    H2 2707   2.681   4.157   0.989
  901TIP3   OH2 2708   6.476   0.982   5.232
  901TIP3    H1 2709   6.436   1.002   5.316
  901TIP3    H2 2710   6.404   0.952   5.177
  902TIP3   OH2 2711   2.122   3.771   0.708
  902TIP3    H1 2712   2.032   3.749   0.733
  902TIP3    H2 2713   2.158   3.689   0.674
  903TIP3   OH2 2714   1.274   3.987   0.526
  903TIP3    H1 2715   1.271   4.069   0.478
  903TIP3    H2 2716   1.183   3.968   0.548
  904TIP3   OH2 2717   0.804   3.312   0.271
  904TIP3    H1 2718   0.859   3.371   0.321
  904TIP3    H2 2719   0.727   3.297   0.326
  905TIP3   OH2 2720   1.392   3.756   0.439
  905TIP3    H1 2721   1.363   3.845   0.458
  905TIP3    H2 2722   1.363   3.704   0.514
  906TIP3   OH2 2723   1.550   4.333   0.970
  906TIP3    H1 2724   1.585   4.409   0.923
  906TIP3    H2 2725   1.624   4.299   1.020
  907TIP3   OH2 2726   1.205   4.228   0.412
  907TIP3    H1 2727   1.117   4.234   0.449
  907TIP3    H2 2728   1.242   4.316   0.422
  908TIP3   OH2 2729   1.911   3.980   0.938
  908TIP3    H1 2730   1.897   3.977   1.033
  908TIP3    H2 2731   1.992   3.932   0.924
  909TIP3   OH2 2732   6.258   0.841   5.131
  909TIP3    H1 2733   6.286   0.780   5.199
  909TIP3    H2 2734   6.164   0.829   5.124
  910TIP3   OH2 2735   2.161   4.495   0.979
  910TIP3    H1 2736   2.087   4.435   0.984
  910TIP3    H2 2737   2.139   4.554   0.908
  911TIP3   OH2 2738   1.212   3.111   1.476
  911TIP3    H1 2739   1.175   3.029   1.510
  911TIP3    H2 2740   1.289   3.127   1.531
  912TIP3   OH2 2741   2.066   3.776   0.022
  912TIP3    H1 2742   2.053   3.700   0.079
  912TIP3    H2 2743   2.082   3.849   0.082
  913TIP3   OH2 2744   0.987   4.201   1.149
  913TIP3    H1 2745   1.036   4.135   1.196
  913TIP3    H2 2746   1.009   4.284   1.192
  914TIP3   OH2 2747   1.289   3.910   0.126
  914TIP3    H1 2748   1.305   3.817   0.141
  914TIP3    H2 2749   1.193   3.918   0.129
  915TIP3   OH2 2750   0.957   3.545   0.329
  915TIP3    H1 2751   0.882   3.603   0.341
  915TIP3    H2 2752   0.964   3.535   0.234
  916TIP3   OH2 2753   2.092   3.176   1.181
  916TIP3    H1 2754   2.170   3.220   1.215
  916TIP3    H2 2755   2.083   3.098   1.235
  917TIP3   OH2 2756   1.975   2.931   0.353
  917TIP3    H1 2757   1.958   2.952   0.261
  917TIP3    H2 2758   2.022   3.008   0.387
  918TIP3   OH2 2759   1.549   4.031   0.055
  918TIP3    H1 2760   1.469   4.030   0.107
  918TIP3    H2 2761   1.570   4.124   0.045
  919TIP3   OH2 2762   1.650   3.124   0.470
  919TIP3    H1 2763   1.719   3.186   0.444
  919TIP3    H2 2764   1.670   3.103   0.561
  920TIP3   OH2 2765   1.928   3.414   1.242
  920TIP3    H1 2766   1.955   3.460   1.322
  920TIP3    H2 2767   1.980   3.334   1.242
  921TIP3   OH2 2768   1.842   2.841   0.569
  921TIP3    H1 2769   1.827   2.923   0.616
  921TIP3    H2 2770   1.896   2.864   0.494
  922TIP3   OH2 2771   2.550   3.316   1.224
  922TIP3    H1 2772   2.456   3.326   1.236
  922TIP3    H2 2773   2.559   3.254   1.151
  923TIP3   OH2 2774   2.211   3.514   0.617
  923TIP3    H1 2775   2.134   3.459   0.631
  923TIP3    H2 2776   2.280   3.473   0.670
  924TIP3   OH2 2777   2.186   4.484   0.559
  924TIP3    H1 2778   2.146   4.533   0.486
  924TIP3    H2 2779   2.280   4.497   0.547
  925TIP3   OH2 2780   1.255   2.767   1.142
  925TIP3    H1 2781   1.220   2.733   1.059
  925TIP3    H2 2782   1.258   2.691   1.200
  926TIP3   OH2 2783   0.765   3.949   0.544
  926TIP3    H1 2784   0.767   3.969   0.638
  926TIP3    H2 2785   0.725   4.026   0.504
  927TIP3   OH2 2786   0.975   4.525   1.546
  927TIP3    H1 2787   1.053   4.534   1.601
  927TIP3    H2 2788   0.960   4.431   1.541
  928TIP3   OH2 2789   1.421   4.420   1.622
  928TIP3    H1 2790   1.489   4.486   1.612
  928TIP3    H2 2791   1.421   4.371   1.540
  929TIP3   OH2 2792   2.076   4.379   1.334
  929TIP3    H1 2793   2.081   4.310   1.401
  929TIP3    H2 2794   2.150   4.436   1.353
  930TIP3   OH2 2795   1.085   3.920   1.746
  930TIP3    H1 2796   1.102   3.826   1.757
  930TIP3    H2 2797   1.000   3.924   1.703
  931TIP3   OH2 2798   5.586   0.565   5.282
  931TIP3    H1 2799   5.612   0.496   5.343
  931TIP3    H2 2800   5.572   0.519   5.199
  932TIP3   OH2 2801   1.701   4.002   1.522
  932TIP3    H1 2802   1.658   4.025   1.439
  932TIP3    H2 2803   1.738   3.915   1.507
  933TIP3   OH2 2804   5.985   0.629   5.058
  933TIP3    H1 2805   5.977   0.654   5.151
  933TIP3    H2 2806   5.921   0.559   5.047
  934TIP3   OH2 2807   2.183   4.034   1.129
  934TIP3    H1 2808   2.261   4.068   1.085
  934TIP3    H2 2809   2.116   4.101   1.116
  935TIP3   OH2 2810   1.205   3.650   1.727
  935TIP3    H1 2811   1.288   3.638   1.681
  935TIP3    H2 2812   1.230   3.678   1.815
  936TIP3   OH2 2813   1.289   3.462   0.195
  936TIP3    H1 2814   1.264   3.464   0.287
  936TIP3    H2 2815   1.287   3.369   0.171
  937TIP3   OH2 2816   1.519   3.505   1.362
  937TIP3    H1 2817   1.451   3.564   1.394
  937TIP3    H2 2818   1.582   3.562   1.318
  938TIP3   OH2 2819   5.683   0.254   5.242
  938TIP3    H1 2820   5.694   0.172   5.194
  938TIP3    H2 2821   5.748   0.249   5.313
  939TIP3   OH2 2822   2.060   3.931   1.507
  939TIP3    H1 2823   2.133   3.895   1.458
  939TIP3    H2 2824   2.054   3.877   1.586
  940TIP3   OH2 2825   1.661   3.323   1.512
  940TIP3    H1 2826   1.673   3.246   1.457
  940TIP3    H2 2827   1.616   3.386   1.457
  941TIP3   OH2 2828   1.675   3.117   1.318
  941TIP3    H1 2829   1.705   3.152   1.234
  941TIP3    H2 2830   1.584   3.092   1.302
  942TIP3   OH2 2831   1.691   3.669   1.227
  942TIP3    H1 2832   1.776   3.678   1.185
  942TIP3    H2 2833   1.632   3.721   1.172
  943TIP3   OH2 2834   2.275   3.607   1.570
  943TIP3    H1 2835   2.317   3.524   1.592
  943TIP3    H2 2836   2.347   3.665   1.547
  944TIP3   OH2 2837   2.312   3.869   1.302
  944TIP3    H1 2838   2.255   3.927   1.251
  944TIP3    H2 2839   2.400   3.886   1.269
  945TIP3   OH2 2840   1.545   3.418   1.752
  945TIP3    H1 2841   1.478   3.353   1.771
  945TIP3    H2 2842   1.579   3.393   1.666
  946TIP3   OH2 2843   1.799   2.880   1.405
  946TIP3    H1 2844   1.757   2.961   1.376
  946TIP3    H2 2845   1.733   2.812   1.393
  947TIP3   OH2 2846   1.922   3.368   1.610
  947TIP3    H1 2847   1.915   3.355   1.704
  947TIP3    H2 2848   1.834   3.349   1.577
  948TIP3   OH2 2849   2.165   3.317   1.474
  948TIP3    H1 2850   2.088   3.317   1.532
  948TIP3    H2 2851   2.237   3.291   1.531
  949TIP3   OH2 2852   2.402   3.275   1.620
  949TIP3    H1 2853   2.416   3.181   1.632
  949TIP3    H2 2854   2.395   3.309   1.710
  950TIP3   OH2 2855   1.383   3.192   1.812
  950TIP3    H1 2856   1.387   3.101   1.783
  950TIP3    H2 2857   1.422   3.192   1.900
  951TIP3   OH2 2858   1.876   2.873   1.669
  951TIP3    H1 2859   1.945   2.808   1.665
  951TIP3    H2 2860   1.843   2.878   1.579
  952TIP3   OH2 2861   1.959   3.092   1.813
  952TIP3    H1 2862   1.933   3.019   1.757
  952TIP3    H2 2863   1.884   3.152   1.812
  953TIP3   OH2 2864   0.746   4.146   0.746
  953TIP3    H1 2865   0.715   4.087   0.815
  953TIP3    H2 2866   0.797   4.212   0.793
  954TIP3   OH2 2867   2.452   4.545   0.548
  954TIP3    H1 2868   2.473   4.571   0.637
  954TIP3    H2 2869   2.484   4.618   0.494
  955TIP3   OH2 2870   2.480   4.573   0.825
  955TIP3    H1 2871   2.430   4.491   0.820
  955TIP3    H2 2872   2.547   4.557   0.891
  956TIP3   OH2 2873   2.523   4.270   1.388
  956TIP3    H1 2874   2.452   4.276   1.452
  956TIP3    H2 2875   2.568   4.354   1.393
  957TIP3   OH2 2876   2.368   3.811   0.019
  957TIP3    H1 2877   2.463   3.809   0.031
  957TIP3    H2 2878   2.334   3.753   0.087
  958TIP3   OH2 2879   2.462   3.639   0.214
  958TIP3    H1 2880   2.400   3.592   0.270
  958TIP3    H2 2881   2.529   3.672   0.273
  959TIP3   OH2 2882   2.523   4.033   0.640
  959TIP3    H1 2883   2.579   3.968   0.596
  959TIP3    H2 2884   2.524   4.108   0.581
  960TIP3   OH2 2885   2.337   4.334   0.828
  960TIP3    H1 2886   2.268   4.376   0.881
  960TIP3    H2 2887   2.289   4.291   0.757
  961TIP3   OH2 2888   0.248   0.487   5.177
  961TIP3    H1 2889   0.191   0.463   5.104
  961TIP3    H2 2890   0.203   0.560   5.219
  962TIP3   OH2 2891   0.078   0.168   5.145
  962TIP3    H1 2892   0.036   0.194   5.063
  962TIP3    H2 2893   0.060   0.074   5.153
  963TIP3   OH2 2894   2.275   3.492   0.351
  963TIP3    H1 2895   2.281   3.397   0.339
  963TIP3    H2 2896   2.258   3.503   0.445
  964TIP3   OH2 2897   0.935   3.558   1.110
  964TIP3    H1 2898   0.910   3.521   1.025
  964TIP3    H2 2899   1.009   3.615   1.091
  965TIP3   OH2 2900   2.566   3.925   1.206
  965TIP3    H1 2901   2.633   3.858   1.191
  965TIP3    H2 2902   2.585   3.993   1.141
  966TIP3   OH2 2903   2.744   3.716   1.201
  966TIP3    H1 2904   2.669   3.674   1.243
  966TIP3    H2 2905   2.818   3.659   1.220
  967TIP3   OH2 2906   4.356   6.033   5.140
  967TIP3    H1 2907   4.437   5.983   5.156
  967TIP3    H2 2908   4.292   5.993   5.199
  968TIP3   OH2 2909   2.281   3.225   0.239
  968TIP3    H1 2910   2.318   3.138   0.254
  968TIP3    H2 2911   2.333   3.262   0.168
  969TIP3   OH2 2912   2.428   3.391   0.746
  969TIP3    H1 2913   2.510   3.409   0.700
  969TIP3    H2 2914   2.441   3.428   0.834
  970TIP3   OH2 2915   2.501   3.542   0.973
  970TIP3    H1 2916   2.428   3.571   1.027
  970TIP3    H2 2917   2.533   3.622   0.931
  971TIP3   OH2 2918   1.120   3.252   1.752
  971TIP3    H1 2919   1.214   3.252   1.773
  971TIP3    H2 2920   1.087   3.170   1.790
  972TIP3   OH2 2921   2.957   3.142   1.520
  972TIP3    H1 2922   3.019   3.080   1.481
  972TIP3    H2 2923   2.922   3.191   1.445
  973TIP3   OH2 2924   2.389   2.978   0.285
  973TIP3    H1 2925   2.431   2.958   0.369
  973TIP3    H2 2926   2.327   2.906   0.272
  974TIP3   OH2 2927   1.078   2.978   1.143
  974TIP3    H1 2928   1.132   2.899   1.149
  974TIP3    H2 2929   1.134   3.042   1.098
  975TIP3   OH2 2930   1.000   3.287   1.230
  975TIP3    H1 2931   1.012   3.256   1.140
  975TIP3    H2 2932   0.952   3.369   1.221
  976TIP3   OH2 2933   2.814   3.262   1.322
  976TIP3    H1 2934   2.733   3.302   1.354
  976TIP3    H2 2935   2.785   3.188   1.268
  977TIP3   OH2 2936   4.615   5.950   5.206
  977TIP3    H1 2937   4.652   5.889   5.142
  977TIP3    H2 2938   4.679   6.021   5.212
  978TIP3   OH2 2939   0.752   2.779   0.687
  978TIP3    H1 2940   0.732   2.689   0.711
  978TIP3    H2 2941   0.847   2.786   0.697
  979TIP3   OH2 2942   2.059   4.412   0.211
  979TIP3    H1 2943   2.082   4.433   0.121
  979TIP3    H2 2944   2.070   4.494   0.259
  980TIP3   OH2 2945   1.087   2.844   1.515
  980TIP3    H1 2946   1.040   2.810   1.592
  980TIP3    H2 2947   1.019   2.853   1.448
  981TIP3   OH2 2948   1.122   4.243   1.552
  981TIP3    H1 2949   1.029   4.223   1.561
  981TIP3    H2 2950   1.152   4.257   1.642
  982TIP3   OH2 2951   1.318   4.281   1.111
  982TIP3    H1 2952   1.264   4.352   1.076
  982TIP3    H2 2953   1.404   4.294   1.071
  983TIP3   OH2 2954   1.755   4.501   1.243
  983TIP3    H1 2955   1.784   4.504   1.334
  983TIP3    H2 2956   1.812   4.563   1.197
  984TIP3   OH2 2957   1.931   4.675   1.117
  984TIP3    H1 2958   2.002   4.621   1.082
  984TIP3    H2 2959   1.974   4.735   1.177
  985TIP3   OH2 2960   2.722   3.014   1.214
  985TIP3    H1 2961   2.633   3.003   1.181
  985TIP3    H2 2962   2.761   2.927   1.209
  986TIP3   OH2 2963   0.971   4.530   1.159
  986TIP3    H1 2964   0.882   4.560   1.139
  986TIP3    H2 2965   1.001   4.587   1.229
  987TIP3   OH2 2966   1.198   4.503   1.002
  987TIP3    H1 2967   1.116   4.516   1.048
  987TIP3    H2 2968   1.183   4.539   0.914
  988TIP3   OH2 2969   1.639   4.537   0.796
  988TIP3    H1 2970   1.568   4.553   0.733
  988TIP3    H2 2971   1.648   4.620   0.843
  989TIP3   OH2 2972   1.904   4.471   0.844
  989TIP3    H1 2973   1.811   4.491   0.832
  989TIP3    H2 2974   1.949   4.546   0.807
  990TIP3   OH2 2975   2.110   4.658   0.762
  990TIP3    H1 2976   2.094   4.744   0.722
  990TIP3    H2 2977   2.134   4.602   0.688
  991TIP3   OH2 2978   0.913   4.305   0.906
  991TIP3    H1 2979   0.941   4.278   0.993
  991TIP3    H2 2980   0.984   4.275   0.848
  992TIP3   OH2 2981   1.109   4.197   0.757
  992TIP3    H1 2982   1.121   4.111   0.798
  992TIP3    H2 2983   1.197   4.235   0.756
  993TIP3   OH2 2984   1.374   4.282   0.761
  993TIP3    H1 2985   1.395   4.189   0.749
  993TIP3    H2 2986   1.425   4.308   0.837
  994TIP3   OH2 2987   1.937   2.939   0.848
  994TIP3    H1 2988   1.901   2.869   0.902
  994TIP3    H2 2989   2.003   2.896   0.793
  995TIP3   OH2 2990   2.436   2.848   0.743
  995TIP3    H1 2991   2.472   2.894   0.667
  995TIP3    H2 2992   2.341   2.856   0.733
  996TIP3   OH2 2993   2.549   2.926   0.505
  996TIP3    H1 2994   2.618   2.869   0.472
  996TIP3    H2 2995   2.581   3.015   0.489
  997TIP3   OH2 2996   1.143   2.661   0.920
  997TIP3    H1 2997   1.076   2.592   0.911
  997TIP3    H2 2998   1.224   2.619   0.893
  998TIP3   OH2 2999   1.675   2.717   0.744
  998TIP3    H1 3000   1.744   2.753   0.688
  998TIP3    H2 3001   1.709   2.727   0.833
  999TIP3   OH2 3002   2.152   2.822   0.710
  999TIP3    H1 3003   2.157   2.783   0.622
  999TIP3    H2 3004   2.149   2.748   0.770
 1000TIP3   OH2 3005   2.203   2.779   0.288
 1000TIP3    H1 3006   2.117   2.821   0.294
 1000TIP3    H2 3007   2.192   2.696   0.336
 1001TIP3   OH2 3008   1.620   2.828   0.408
 1001TIP3    H1 3009   1.684   2.853   0.475
 1001TIP3    H2 3010   1.568   2.908   0.394
 1002TIP3   OH2 3011   6.490   1.325   5.243
 1002TIP3    H1 3012   6.476   1.236   5.212
 1002TIP3    H2 3013   6.409   1.371   5.220
 1003TIP3   OH2 3014   1.393   2.917   1.735
 1003TIP3    H1 3015   1.357   2.851   1.793
 1003TIP3    H2 3016   1.485   2.924   1.760
 1004TIP3   OH2 3017   1.642   2.924   1.853
 1004TIP3    H1 3018   1.723   2.903   1.807
 1004TIP3    H2 3019   1.635   2.856   1.921
 1005TIP3   OH2 3020   2.465   3.005   1.644
 1005TIP3    H1 3021   2.480   2.975   1.734
 1005TIP3    H2 3022   2.551   2.999   1.603
 1006TIP3   OH2 3023   2.389   4.543   1.138
 1006TIP3    H1 3024   2.311   4.512   1.092
 1006TIP3    H2 3025   2.373   4.636   1.152
 1007TIP3   OH2 3026   3.574   3.857   0.149
 1007TIP3    H1 3027   3.651   3.882   0.199
 1007TIP3    H2 3028   3.542   3.778   0.192
 1008TIP3   OH2 3029   2.961   3.800   0.662
 1008TIP3    H1 3030   2.987   3.730   0.722
 1008TIP3    H2 3031   3.030   3.865   0.670
 1009TIP3   OH2 3032   2.929   4.190   0.421
 1009TIP3    H1 3033   2.917   4.095   0.418
 1009TIP3    H2 3034   3.023   4.203   0.433
 1010TIP3   OH2 3035   2.651   3.435   0.139
 1010TIP3    H1 3036   2.603   3.514   0.165
 1010TIP3    H2 3037   2.583   3.372   0.115
 1011TIP3   OH2 3038   2.703   3.712   0.332
 1011TIP3    H1 3039   2.750   3.636   0.365
 1011TIP3    H2 3040   2.771   3.769   0.297
 1012TIP3   OH2 3041   3.469   4.152   0.412
 1012TIP3    H1 3042   3.537   4.087   0.393
 1012TIP3    H2 3043   3.517   4.234   0.420
 1013TIP3   OH2 3044   4.445   3.326   0.397
 1013TIP3    H1 3045   4.443   3.422   0.404
 1013TIP3    H2 3046   4.510   3.308   0.329
 1014TIP3   OH2 3047   3.871   3.595   0.456
 1014TIP3    H1 3048   3.858   3.530   0.526
 1014TIP3    H2 3049   3.953   3.569   0.414
 1015TIP3   OH2 3050   3.219   3.297   0.336
 1015TIP3    H1 3051   3.203   3.370   0.277
 1015TIP3    H2 3052   3.172   3.223   0.296
 1016TIP3   OH2 3053   2.850   3.501   0.430
 1016TIP3    H1 3054   2.929   3.486   0.481
 1016TIP3    H2 3055   2.863   3.451   0.350
 1017TIP3   OH2 3056   3.286   3.712   0.224
 1017TIP3    H1 3057   3.370   3.684   0.259
 1017TIP3    H2 3058   3.243   3.631   0.197
 1018TIP3   OH2 3059   4.578   3.670   0.606
 1018TIP3    H1 3060   4.493   3.665   0.651
 1018TIP3    H2 3061   4.636   3.711   0.670
 1019TIP3   OH2 3062   3.208   3.291   0.767
 1019TIP3    H1 3063   3.155   3.328   0.697
 1019TIP3    H2 3064   3.156   3.304   0.846
 1020TIP3   OH2 3065   3.312   4.043   0.596
 1020TIP3    H1 3066   3.243   4.107   0.615
 1020TIP3    H2 3067   3.366   4.086   0.529
 1021TIP3   OH2 3068   4.175   3.302   0.128
 1021TIP3    H1 3069   4.163   3.334   0.218
 1021TIP3    H2 3070   4.257   3.343   0.100
 1022TIP3   OH2 3071   3.086   3.407   0.548
 1022TIP3    H1 3072   3.141   3.481   0.571
 1022TIP3    H2 3073   3.133   3.362   0.478
 1023TIP3   OH2 3074   3.130   4.236   0.653
 1023TIP3    H1 3075   3.119   4.327   0.624
 1023TIP3    H2 3076   3.053   4.218   0.707
 1024TIP3   OH2 3077   0.332   0.951   5.179
 1024TIP3    H1 3078   0.407   0.919   5.129
 1024TIP3    H2 3079   0.365   1.027   5.227
 1025TIP3   OH2 3080   4.236   3.343   0.564
 1025TIP3    H1 3081   4.159   3.383   0.524
 1025TIP3    H2 3082   4.299   3.335   0.493
 1026TIP3   OH2 3083   3.546   2.986   0.477
 1026TIP3    H1 3084   3.543   2.895   0.506
 1026TIP3    H2 3085   3.474   3.029   0.523
 1027TIP3   OH2 3086   4.169   4.333   0.451
 1027TIP3    H1 3087   4.196   4.246   0.420
 1027TIP3    H2 3088   4.142   4.380   0.372
 1028TIP3   OH2 3089   4.432   3.988   0.320
 1028TIP3    H1 3090   4.339   4.008   0.332
 1028TIP3    H2 3091   4.454   4.023   0.234
 1029TIP3   OH2 3092   4.030   3.857   0.691
 1029TIP3    H1 3093   4.061   3.947   0.686
 1029TIP3    H2 3094   3.940   3.860   0.659
 1030TIP3   OH2 3095   3.066   3.867   0.149
 1030TIP3    H1 3096   3.018   3.810   0.089
 1030TIP3    H2 3097   3.150   3.824   0.161
 1031TIP3   OH2 3098   3.203   4.161   0.350
 1031TIP3    H1 3099   3.223   4.095   0.284
 1031TIP3    H2 3100   3.289   4.187   0.385
 1032TIP3   OH2 3101   3.202   3.824   0.470
 1032TIP3    H1 3102   3.236   3.809   0.382
 1032TIP3    H2 3103   3.246   3.904   0.499
 1033TIP3   OH2 3104   3.716   4.339   0.205
 1033TIP3    H1 3105   3.671   4.423   0.212
 1033TIP3    H2 3106   3.716   4.304   0.294
 1034TIP3   OH2 3107   3.320   4.342   0.824
 1034TIP3    H1 3108   3.259   4.403   0.866
 1034TIP3    H2 3109   3.265   4.292   0.764
 1035TIP3   OH2 3110   3.100   3.934   0.909
 1035TIP3    H1 3111   3.106   4.021   0.948
 1035TIP3    H2 3112   3.008   3.909   0.922
 1036TIP3   OH2 3113   3.131   4.525   0.902
 1036TIP3    H1 3114   3.096   4.520   0.814
 1036TIP3    H2 3115   3.056   4.513   0.959
 1037TIP3   OH2 3116   0.744   0.633   5.297
 1037TIP3    H1 3117   0.769   0.626   5.205
 1037TIP3    H2 3118   0.691   0.555   5.314
 1038TIP3   OH2 3119   2.721   4.076   0.837
 1038TIP3    H1 3120   2.652   4.056   0.773
 1038TIP3    H2 3121   2.756   3.990   0.861
 1039TIP3   OH2 3122   2.567   4.263   0.491
 1039TIP3    H1 3123   2.662   4.272   0.502
 1039TIP3    H2 3124   2.531   4.346   0.524
 1040TIP3   OH2 3125   4.471   4.738   0.508
 1040TIP3    H1 3126   4.433   4.650   0.509
 1040TIP3    H2 3127   4.405   4.792   0.552
 1041TIP3   OH2 3128   3.512   4.523   0.761
 1041TIP3    H1 3129   3.499   4.600   0.817
 1041TIP3    H2 3130   3.440   4.464   0.785
 1042TIP3   OH2 3131   5.858   0.092   0.931
 1042TIP3    H1 3132   5.937   0.138   0.960
 1042TIP3    H2 3133   5.788   0.156   0.942
 1043TIP3   OH2 3134   4.298   3.827   0.834
 1043TIP3    H1 3135   4.222   3.832   0.776
 1043TIP3    H2 3136   4.327   3.736   0.828
 1044TIP3   OH2 3137   2.916   4.264   0.821
 1044TIP3    H1 3138   2.968   4.254   0.901
 1044TIP3    H2 3139   2.847   4.198   0.829
 1045TIP3   OH2 3140   3.318   3.082   0.613
 1045TIP3    H1 3141   3.233   3.049   0.583
 1045TIP3    H2 3142   3.296   3.161   0.663
 1046TIP3   OH2 3143   3.858   3.190   0.816
 1046TIP3    H1 3144   3.929   3.166   0.875
 1046TIP3    H2 3145   3.778   3.169   0.865
 1047TIP3   OH2 3146   4.079   3.598   0.736
 1047TIP3    H1 3147   4.042   3.594   0.824
 1047TIP3    H2 3148   4.063   3.688   0.707
 1048TIP3   OH2 3149   3.255   3.608   0.628
 1048TIP3    H1 3150   3.207   3.622   0.710
 1048TIP3    H2 3151   3.236   3.686   0.576
 1049TIP3   OH2 3152   3.159   3.483   0.145
 1049TIP3    H1 3153   3.069   3.452   0.143
 1049TIP3    H2 3154   3.201   3.442   0.069
 1050TIP3   OH2 3155   3.802   3.838   0.955
 1050TIP3    H1 3156   3.779   3.772   1.021
 1050TIP3    H2 3157   3.895   3.853   0.968
 1051TIP3   OH2 3158   3.705   3.567   0.115
 1051TIP3    H1 3159   3.720   3.615   0.033
 1051TIP3    H2 3160   3.773   3.500   0.116
 1052TIP3   OH2 3161   3.080   3.621   0.843
 1052TIP3    H1 3162   3.108   3.681   0.912
 1052TIP3    H2 3163   3.064   3.538   0.888
 1053TIP3   OH2 3164   2.670   3.152   0.414
 1053TIP3    H1 3165   2.747   3.177   0.465
 1053TIP3    H2 3166   2.705   3.108   0.337
 1054TIP3   OH2 3167   0.445   0.050   5.244
 1054TIP3    H1 3168   0.506   0.076   5.176
 1054TIP3    H2 3169   0.390   0.127   5.259
 1055TIP3   OH2 3170   3.776   3.806   0.592
 1055TIP3    H1 3171   3.815   3.737   0.538
 1055TIP3    H2 3172   3.733   3.758   0.663
 1056TIP3   OH2 3173   3.479   3.282   0.221
 1056TIP3    H1 3174   3.405   3.286   0.282
 1056TIP3    H2 3175   3.556   3.273   0.277
 1057TIP3   OH2 3176   2.911   3.364   0.186
 1057TIP3    H1 3177   2.819   3.379   0.165
 1057TIP3    H2 3178   2.922   3.269   0.181
 1058TIP3   OH2 3179   3.924   3.287   0.462
 1058TIP3    H1 3180   3.894   3.316   0.548
 1058TIP3    H2 3181   3.846   3.251   0.420
 1059TIP3   OH2 3182   4.139   5.070   0.564
 1059TIP3    H1 3183   4.106   5.083   0.476
 1059TIP3    H2 3184   4.211   5.131   0.573
 1060TIP3   OH2 3185   3.090   4.185   1.041
 1060TIP3    H1 3186   3.171   4.206   1.088
 1060TIP3    H2 3187   3.022   4.187   1.109
 1061TIP3   OH2 3188   3.531   3.636   0.318
 1061TIP3    H1 3189   3.593   3.590   0.261
 1061TIP3    H2 3190   3.541   3.595   0.404
 1062TIP3   OH2 3191   3.088   3.099   0.191
 1062TIP3    H1 3192   3.032   3.035   0.236
 1062TIP3    H2 3193   3.164   3.048   0.162
 1063TIP3   OH2 3194   3.522   3.544   0.584
 1063TIP3    H1 3195   3.432   3.574   0.599
 1063TIP3    H2 3196   3.574   3.588   0.650
 1064TIP3   OH2 3197   4.201   4.110   0.275
 1064TIP3    H1 3198   4.177   4.171   0.205
 1064TIP3    H2 3199   4.120   4.064   0.296
 1065TIP3   OH2 3200   3.673   4.238   0.737
 1065TIP3    H1 3201   3.680   4.205   0.827
 1065TIP3    H2 3202   3.628   4.322   0.745
 1066TIP3   OH2 3203   2.938   3.918   0.381
 1066TIP3    H1 3204   2.983   3.907   0.297
 1066TIP3    H2 3205   2.994   3.874   0.445
 1067TIP3   OH2 3206   2.836   3.857   0.970
 1067TIP3    H1 3207   2.846   3.838   1.063
 1067TIP3    H2 3208   2.765   3.799   0.941
 1068TIP3   OH2 3209   3.568   3.987   0.986
 1068TIP3    H1 3210   3.502   3.926   0.953
 1068TIP3    H2 3211   3.651   3.947   0.961
 1069TIP3   OH2 3212   3.703   4.516   0.582
 1069TIP3    H1 3213   3.635   4.529   0.648
 1069TIP3    H2 3214   3.777   4.567   0.614
 1070TIP3   OH2 3215   4.387   4.483   0.548
 1070TIP3    H1 3216   4.316   4.421   0.532
 1070TIP3    H2 3217   4.463   4.445   0.505
 1071TIP3   OH2 3218   3.896   4.044   0.151
 1071TIP3    H1 3219   3.803   4.023   0.149
 1071TIP3    H2 3220   3.938   3.970   0.107
 1072TIP3   OH2 3221   3.341   4.596   0.390
 1072TIP3    H1 3222   3.407   4.650   0.346
 1072TIP3    H2 3223   3.390   4.520   0.421
 1073TIP3   OH2 3224   3.753   4.256   0.465
 1073TIP3    H1 3225   3.718   4.245   0.553
 1073TIP3    H2 3226   3.811   4.181   0.452
 1074TIP3   OH2 3227   3.946   4.903   0.412
 1074TIP3    H1 3228   3.925   4.822   0.458
 1074TIP3    H2 3229   3.997   4.875   0.336
 1075TIP3   OH2 3230   3.038   3.371   0.974
 1075TIP3    H1 3231   2.943   3.379   0.981
 1075TIP3    H2 3232   3.064   3.320   1.051
 1076TIP3   OH2 3233   2.778   4.439   0.638
 1076TIP3    H1 3234   2.830   4.375   0.686
 1076TIP3    H2 3235   2.766   4.511   0.700
 1077TIP3   OH2 3236   3.870   3.430   0.688
 1077TIP3    H1 3237   3.952   3.472   0.714
 1077TIP3    H2 3238   3.865   3.352   0.744
 1078TIP3   OH2 3239   1.186   0.291   5.292
 1078TIP3    H1 3240   1.254   0.334   5.240
 1078TIP3    H2 3241   1.231   0.266   5.373
 1079TIP3   OH2 3242   3.697   3.633   0.781
 1079TIP3    H1 3243   3.734   3.688   0.850
 1079TIP3    H2 3244   3.758   3.559   0.775
 1080TIP3   OH2 3245   3.603   3.090   0.049
 1080TIP3    H1 3246   3.572   3.161   0.105
 1080TIP3    H2 3247   3.673   3.128  -0.003
 1081TIP3   OH2 3248   0.943  -0.002   5.152
 1081TIP3    H1 3249   0.951   0.066   5.219
 1081TIP3    H2 3250   1.032  -0.015   5.120
 1082TIP3   OH2 3251   4.346   3.565   0.724
 1082TIP3    H1 3252   4.252   3.575   0.734
 1082TIP3    H2 3253   4.356   3.489   0.667
 1083TIP3   OH2 3254   4.028   3.824   0.044
 1083TIP3    H1 3255   3.957   3.773   0.004
 1083TIP3    H2 3256   4.098   3.761   0.059
 1084TIP3   OH2 3257   3.058   2.993   0.575
 1084TIP3    H1 3258   3.026   2.958   0.492
 1084TIP3    H2 3259   3.048   2.920   0.637
 1085TIP3   OH2 3260   2.584   4.236   0.001
 1085TIP3    H1 3261   2.561   4.277   0.084
 1085TIP3    H2 3262   2.589   4.309  -0.062
 1086TIP3   OH2 3263   2.764   4.778   1.039
 1086TIP3    H1 3264   2.846   4.782   1.088
 1086TIP3    H2 3265   2.744   4.685   1.034
 1087TIP3   OH2 3266   3.227   4.709   1.087
 1087TIP3    H1 3267   3.323   4.705   1.092
 1087TIP3    H2 3268   3.204   4.648   1.017
 1088TIP3   OH2 3269   3.882   4.682   0.881
 1088TIP3    H1 3270   3.863   4.594   0.913
 1088TIP3    H2 3271   3.966   4.704   0.922
 1089TIP3   OH2 3272   2.884   4.176   1.229
 1089TIP3    H1 3273   2.903   4.083   1.238
 1089TIP3    H2 3274   2.797   4.179   1.189
 1090TIP3   OH2 3275   3.504   4.259   1.006
 1090TIP3    H1 3276   3.444   4.273   0.933
 1090TIP3    H2 3277   3.529   4.167   0.998
 1091TIP3   OH2 3278   3.943   4.194   0.709
 1091TIP3    H1 3279   3.957   4.288   0.694
 1091TIP3    H2 3280   3.849   4.187   0.723
 1092TIP3   OH2 3281   3.006   3.919   1.226
 1092TIP3    H1 3282   3.084   3.877   1.190
 1092TIP3    H2 3283   3.032   3.944   1.315
 1093TIP3   OH2 3284   3.345   3.800   0.887
 1093TIP3    H1 3285   3.267   3.854   0.885
 1093TIP3    H2 3286   3.393   3.824   0.807
 1094TIP3   OH2 3287   3.855   4.179   0.997
 1094TIP3    H1 3288   3.943   4.159   0.967
 1094TIP3    H2 3289   3.844   4.127   1.076
 1095TIP3   OH2 3290   3.460   3.578   1.003
 1095TIP3    H1 3291   3.467   3.505   0.941
 1095TIP3    H2 3292   3.424   3.650   0.951
 1096TIP3   OH2 3293   3.469   3.369   0.806
 1096TIP3    H1 3294   3.495   3.409   0.723
 1096TIP3    H2 3295   3.377   3.346   0.793
 1097TIP3   OH2 3296   3.508   3.885   0.687
 1097TIP3    H1 3297   3.591   3.914   0.649
 1097TIP3    H2 3298   3.443   3.946   0.652
 1098TIP3   OH2 3299   4.068   3.862   1.055
 1098TIP3    H1 3300   4.121   3.784   1.070
 1098TIP3    H2 3301   4.119   3.915   0.995
 1099TIP3   OH2 3302   4.123   4.084   0.871
 1099TIP3    H1 3303   4.056   4.118   0.811
 1099TIP3    H2 3304   4.206   4.101   0.827
 1100TIP3   OH2 3305   3.342   3.674   1.239
 1100TIP3    H1 3306   3.275   3.610   1.261
 1100TIP3    H2 3307   3.373   3.648   1.152
 1101TIP3   OH2 3308   3.593   3.135   0.892
 1101TIP3    H1 3309   3.550   3.216   0.864
 1101TIP3    H2 3310   3.525   3.067   0.881
 1102TIP3   OH2 3311   3.717   3.625   1.102
 1102TIP3    H1 3312   3.706   3.612   1.196
 1102TIP3    H2 3313   3.632   3.603   1.064
 1103TIP3   OH2 3314   3.958   3.565   0.972
 1103TIP3    H1 3315   3.883   3.574   1.030
 1103TIP3    H2 3316   4.032   3.548   1.031
 1104TIP3   OH2 3317   4.201   3.533   1.113
 1104TIP3    H1 3318   4.212   3.439   1.123
 1104TIP3    H2 3319   4.194   3.566   1.203
 1105TIP3   OH2 3320   3.182   3.451   1.302
 1105TIP3    H1 3321   3.185   3.362   1.267
 1105TIP3    H2 3322   3.219   3.444   1.390
 1106TIP3   OH2 3323   3.674   3.130   1.154
 1106TIP3    H1 3324   3.742   3.063   1.149
 1106TIP3    H2 3325   3.637   3.134   1.066
 1107TIP3   OH2 3326   3.754   3.347   1.302
 1107TIP3    H1 3327   3.728   3.275   1.245
 1107TIP3    H2 3328   3.679   3.407   1.300
 1108TIP3   OH2 3329   2.367   4.536   0.043
 1108TIP3    H1 3330   2.295   4.485   0.005
 1108TIP3    H2 3331   2.402   4.481   0.113
 1109TIP3   OH2 3332   2.499   4.374   0.231
 1109TIP3    H1 3333   2.480   4.310   0.299
 1109TIP3    H2 3334   2.558   4.437   0.274
 1110TIP3   OH2 3335   4.320   4.505   0.968
 1110TIP3    H1 3336   4.237   4.516   1.015
 1110TIP3    H2 3337   4.312   4.564   0.893
 1111TIP3   OH2 3338   4.148   4.506   0.247
 1111TIP3    H1 3339   4.056   4.525   0.265
 1111TIP3    H2 3340   4.156   4.518   0.152
 1112TIP3   OH2 3341   2.698   3.825   0.587
 1112TIP3    H1 3342   2.690   3.792   0.497
 1112TIP3    H2 3343   2.792   3.826   0.604
 1113TIP3   OH2 3344   4.359   4.175   0.754
 1113TIP3    H1 3345   4.425   4.113   0.785
 1113TIP3    H2 3346   4.385   4.196   0.665
 1114TIP3   OH2 3347   4.517   3.983   0.870
 1114TIP3    H1 3348   4.441   3.926   0.857
 1114TIP3    H2 3349   4.593   3.927   0.855
 1115TIP3   OH2 3350   4.230   3.696   0.230
 1115TIP3    H1 3351   4.300   3.751   0.194
 1115TIP3    H2 3352   4.270   3.653   0.306
 1116TIP3   OH2 3353   4.264   3.789   0.523
 1116TIP3    H1 3354   4.182   3.837   0.529
 1116TIP3    H2 3355   4.331   3.851   0.550
 1117TIP3   OH2 3356   2.917   3.509   1.252
 1117TIP3    H1 3357   3.011   3.507   1.266
 1117TIP3    H2 3358   2.884   3.428   1.290
 1118TIP3   OH2 3359   4.764   3.391   1.021
 1118TIP3    H1 3360   4.820   3.325   0.979
 1118TIP3    H2 3361   4.722   3.437   0.948
 1119TIP3   OH2 3362   2.884   3.210   0.580
 1119TIP3    H1 3363   2.941   3.134   0.592
 1119TIP3    H2 3364   2.944   3.285   0.580
 1120TIP3   OH2 3365   2.674   3.477   0.655
 1120TIP3    H1 3366   2.723   3.472   0.573
 1120TIP3    H2 3367   2.706   3.557   0.697
 1121TIP3   OH2 3368   4.604   3.504   0.839
 1121TIP3    H1 3369   4.526   3.549   0.872
 1121TIP3    H2 3370   4.571   3.441   0.776
 1122TIP3   OH2 3371   2.654   2.985   0.174
 1122TIP3    H1 3372   2.565   2.971   0.207
 1122TIP3    H2 3373   2.642   3.033   0.092
 1123TIP3   OH2 3374   2.879   3.057   0.979
 1123TIP3    H1 3375   2.830   3.050   1.061
 1123TIP3    H2 3376   2.819   3.101   0.919
 1124TIP3   OH2 3377   2.914   4.495   1.066
 1124TIP3    H1 3378   2.820   4.479   1.052
 1124TIP3    H2 3379   2.925   4.483   1.161
 1125TIP3   OH2 3380   3.076   4.499   0.632
 1125TIP3    H1 3381   2.996   4.521   0.585
 1125TIP3    H2 3382   3.138   4.569   0.608
 1126TIP3   OH2 3383   4.480   3.253   0.739
 1126TIP3    H1 3384   4.392   3.249   0.703
 1126TIP3    H2 3385   4.511   3.162   0.734
 1127TIP3   OH2 3386   2.771   4.808   0.657
 1127TIP3    H1 3387   2.679   4.825   0.640
 1127TIP3    H2 3388   2.794   4.869   0.728
 1128TIP3   OH2 3389   2.915   4.670   0.478
 1128TIP3    H1 3390   2.860   4.707   0.547
 1128TIP3    H2 3391   2.885   4.715   0.398
 1129TIP3   OH2 3392   3.483   4.820   0.282
 1129TIP3    H1 3393   3.424   4.827   0.208
 1129TIP3    H2 3394   3.456   4.889   0.342
 1130TIP3   OH2 3395   3.749   4.782   0.240
 1130TIP3    H1 3396   3.669   4.823   0.272
 1130TIP3    H2 3397   3.791   4.850   0.186
 1131TIP3   OH2 3398   2.692   4.512   0.380
 1131TIP3    H1 3399   2.724   4.498   0.470
 1131TIP3    H2 3400   2.751   4.460   0.325
 1132TIP3   OH2 3401   2.857   4.367   0.231
 1132TIP3    H1 3402   2.863   4.297   0.296
 1132TIP3    H2 3403   2.948   4.382   0.203
 1133TIP3   OH2 3404   3.123   4.448   0.240
 1133TIP3    H1 3405   3.210   4.408   0.252
 1133TIP3    H2 3406   3.138   4.541   0.256
 1134TIP3   OH2 3407   3.711   3.175   0.332
 1134TIP3    H1 3408   3.669   3.100   0.373
 1134TIP3    H2 3409   3.778   3.137   0.275
 1135TIP3   OH2 3410   4.198   3.070   0.280
 1135TIP3    H1 3411   4.234   3.131   0.215
 1135TIP3    H2 3412   4.103   3.073   0.266
 1136TIP3   OH2 3413   2.968   2.893   0.332
 1136TIP3    H1 3414   2.877   2.862   0.340
 1136TIP3    H2 3415   3.020   2.813   0.328
 1137TIP3   OH2 3416   2.757   2.779   0.005
 1137TIP3    H1 3417   2.790   2.841  -0.060
 1137TIP3    H2 3418   2.722   2.834   0.075
 1138TIP3   OH2 3419   3.414   2.950   0.214
 1138TIP3    H1 3420   3.472   2.994   0.152
 1138TIP3    H2 3421   3.454   2.967   0.300
 1139TIP3   OH2 3422   3.925   3.066   0.187
 1139TIP3    H1 3423   3.964   3.035   0.105
 1139TIP3    H2 3424   3.922   2.988   0.243
 1140TIP3   OH2 3425   5.029   6.007   5.116
 1140TIP3    H1 3426   5.047   5.943   5.047
 1140TIP3    H2 3427   5.113   6.050   5.131
 1141TIP3   OH2 3428   3.185   3.177   1.219
 1141TIP3    H1 3429   3.148   3.110   1.277
 1141TIP3    H2 3430   3.277   3.183   1.245
 1142TIP3   OH2 3431   3.435   3.181   1.341
 1142TIP3    H1 3432   3.516   3.158   1.297
 1142TIP3    H2 3433   3.424   3.113   1.408
 1143TIP3   OH2 3434   4.258   3.261   1.133
 1143TIP3    H1 3435   4.270   3.233   1.224
 1143TIP3    H2 3436   4.346   3.257   1.095
 1144TIP3   OH2 3437   4.067   4.853   0.696
 1144TIP3    H1 3438   4.146   4.801   0.686
 1144TIP3    H2 3439   4.085   4.935   0.649
 1145TIP3   OH2 3440   4.901   4.143   0.450
 1145TIP3    H1 3441   4.929   4.234   0.459
 1145TIP3    H2 3442   4.812   4.149   0.415
 1146TIP3   OH2 3443   4.848   3.924   0.294
 1146TIP3    H1 3444   4.857   3.963   0.381
 1146TIP3    H2 3445   4.899   3.844   0.299
 1147TIP3   OH2 3446   4.892   4.410   0.500
 1147TIP3    H1 3447   4.963   4.436   0.558
 1147TIP3    H2 3448   4.816   4.402   0.557
 1148TIP3   OH2 3449   4.643   4.102   0.438
 1148TIP3    H1 3450   4.687   4.040   0.497
 1148TIP3    H2 3451   4.581   4.048   0.389
 1149TIP3   OH2 3452   4.897   3.658   0.559
 1149TIP3    H1 3453   4.828   3.608   0.517
 1149TIP3    H2 3454   4.977   3.609   0.541
 1150TIP3   OH2 3455   4.552   5.005   0.458
 1150TIP3    H1 3456   4.644   4.989   0.476
 1150TIP3    H2 3457   4.515   4.917   0.446
 1151TIP3   OH2 3458   4.662   4.436   0.826
 1151TIP3    H1 3459   4.702   4.349   0.827
 1151TIP3    H2 3460   4.646   4.453   0.733
 1152TIP3   OH2 3461   4.735   4.131   0.735
 1152TIP3    H1 3462   4.796   4.063   0.708
 1152TIP3    H2 3463   4.753   4.144   0.828
 1153TIP3   OH2 3464   5.130   3.840   0.514
 1153TIP3    H1 3465   5.158   3.765   0.566
 1153TIP3    H2 3466   5.210   3.869   0.469
 1154TIP3   OH2 3467   5.195   3.943   0.800
 1154TIP3    H1 3468   5.152   3.857   0.805
 1154TIP3    H2 3469   5.238   3.943   0.715
 1155TIP3   OH2 3470   5.308   3.368   0.440
 1155TIP3    H1 3471   5.366   3.420   0.385
 1155TIP3    H2 3472   5.260   3.312   0.378
 1156TIP3   OH2 3473   5.430   3.910   0.643
 1156TIP3    H1 3474   5.519   3.937   0.665
 1156TIP3    H2 3475   5.441   3.841   0.577
 1157TIP3   OH2 3476   5.957   3.784   0.671
 1157TIP3    H1 3477   5.883   3.727   0.690
 1157TIP3    H2 3478   5.978   3.826   0.754
 1158TIP3   OH2 3479   4.974   3.710   0.838
 1158TIP3    H1 3480   4.980   3.647   0.766
 1158TIP3    H2 3481   5.025   3.671   0.909
 1159TIP3   OH2 3482   5.455   3.371   0.665
 1159TIP3    H1 3483   5.528   3.312   0.646
 1159TIP3    H2 3484   5.400   3.368   0.587
 1160TIP3   OH2 3485   5.568   3.583   0.790
 1160TIP3    H1 3486   5.526   3.511   0.743
 1160TIP3    H2 3487   5.495   3.641   0.814
 1161TIP3   OH2 3488   4.711   3.782   0.835
 1161TIP3    H1 3489   4.806   3.770   0.827
 1161TIP3    H2 3490   4.679   3.698   0.866
 1162TIP3   OH2 3491   4.676   3.260   0.544
 1162TIP3    H1 3492   4.615   3.249   0.617
 1162TIP3    H2 3493   4.622   3.246   0.466
 1163TIP3   OH2 3494   4.688   4.664   0.647
 1163TIP3    H1 3495   4.612   4.718   0.623
 1163TIP3    H2 3496   4.700   4.680   0.740
 1164TIP3   OH2 3497   4.986   3.411   0.729
 1164TIP3    H1 3498   4.948   3.349   0.791
 1164TIP3    H2 3499   5.076   3.422   0.759
 1165TIP3   OH2 3500   5.243   3.425   0.832
 1165TIP3    H1 3501   5.320   3.390   0.788
 1165TIP3    H2 3502   5.223   3.361   0.900
 1166TIP3   OH2 3503   6.069   3.502   0.636
 1166TIP3    H1 3504   6.083   3.453   0.718
 1166TIP3    H2 3505   6.112   3.586   0.652
 1167TIP3   OH2 3506   0.634   4.927   1.156
 1167TIP3    H1 3507   0.545   4.959   1.137
 1167TIP3    H2 3508   0.663   4.982   1.229
 1168TIP3   OH2 3509   0.386   4.873   1.368
 1168TIP3    H1 3510   0.365   4.904   1.456
 1168TIP3    H2 3511   0.469   4.917   1.346
 1169TIP3   OH2 3512   0.137   5.143   1.782
 1169TIP3    H1 3513   0.178   5.066   1.741
 1169TIP3    H2 3514   0.143   5.212   1.716
 1170TIP3   OH2 3515   0.285   4.851   1.799
 1170TIP3    H1 3516   0.278   4.756   1.798
 1170TIP3    H2 3517   0.247   4.877   1.883
 1171TIP3   OH2 3518   0.614   5.339   1.488
 1171TIP3    H1 3519   0.566   5.405   1.437
 1171TIP3    H2 3520   0.704   5.344   1.455
 1172TIP3   OH2 3521   0.797   4.695   1.669
 1172TIP3    H1 3522   0.863   4.632   1.638
 1172TIP3    H2 3523   0.772   4.743   1.590
 1173TIP3   OH2 3524   0.654   4.820   1.474
 1173TIP3    H1 3525   0.595   4.855   1.541
 1173TIP3    H2 3526   0.606   4.746   1.437
 1174TIP3   OH2 3527   0.561   4.563   1.382
 1174TIP3    H1 3528   0.470   4.542   1.360
 1174TIP3    H2 3529   0.607   4.480   1.373
 1175TIP3   OH2 3530   0.309   4.573   1.802
 1175TIP3    H1 3531   0.317   4.538   1.891
 1175TIP3    H2 3532   0.396   4.564   1.765
 1176TIP3   OH2 3533   2.312   5.008   0.502
 1176TIP3    H1 3534   2.349   5.091   0.534
 1176TIP3    H2 3535   2.281   5.029   0.414
 1177TIP3   OH2 3536   1.750   5.209   0.531
 1177TIP3    H1 3537   1.784   5.125   0.563
 1177TIP3    H2 3538   1.683   5.185   0.467
 1178TIP3   OH2 3539   1.735   4.939   0.144
 1178TIP3    H1 3540   1.810   4.936   0.204
 1178TIP3    H2 3541   1.773   4.928   0.057
 1179TIP3   OH2 3542   2.389   5.227   0.673
 1179TIP3    H1 3543   2.306   5.268   0.648
 1179TIP3    H2 3544   2.394   5.240   0.768
 1180TIP3   OH2 3545   1.051   4.857   0.901
 1180TIP3    H1 3546   0.986   4.856   0.831
 1180TIP3    H2 3547   1.000   4.868   0.981
 1181TIP3   OH2 3548   1.942   4.960   0.319
 1181TIP3    H1 3549   1.907   4.937   0.405
 1181TIP3    H2 3550   2.005   5.030   0.336
 1182TIP3   OH2 3551   2.104   4.917   0.661
 1182TIP3    H1 3552   2.018   4.936   0.623
 1182TIP3    H2 3553   2.166   4.944   0.593
 1183TIP3   OH2 3554   1.391   4.539   0.640
 1183TIP3    H1 3555   1.385   4.450   0.674
 1183TIP3    H2 3556   1.318   4.586   0.681
 1184TIP3   OH2 3557   2.223   5.573   0.501
 1184TIP3    H1 3558   2.164   5.648   0.496
 1184TIP3    H2 3559   2.241   5.550   0.409
 1185TIP3   OH2 3560   1.922   5.449   0.767
 1185TIP3    H1 3561   1.929   5.544   0.777
 1185TIP3    H2 3562   1.833   5.435   0.734
 1186TIP3   OH2 3563   2.157   5.393   0.948
 1186TIP3    H1 3564   2.074   5.415   0.907
 1186TIP3    H2 3565   2.166   5.299   0.937
 1187TIP3   OH2 3566   1.158   4.630   0.761
 1187TIP3    H1 3567   1.072   4.601   0.730
 1187TIP3    H2 3568   1.144   4.721   0.788
 1188TIP3   OH2 3569   1.707   4.752   0.960
 1188TIP3    H1 3570   1.780   4.732   1.019
 1188TIP3    H2 3571   1.629   4.747   1.016
 1189TIP3   OH2 3572   1.929   5.194   0.887
 1189TIP3    H1 3573   1.882   5.188   0.971
 1189TIP3    H2 3574   1.905   5.280   0.853
 1190TIP3   OH2 3575   1.163   5.183   0.847
 1190TIP3    H1 3576   1.095   5.117   0.834
 1190TIP3    H2 3577   1.152   5.244   0.774
 1191TIP3   OH2 3578   1.653   5.382   1.105
 1191TIP3    H1 3579   1.631   5.313   1.167
 1191TIP3    H2 3580   1.742   5.407   1.128
 1192TIP3   OH2 3581   1.604   5.130   0.320
 1192TIP3    H1 3582   1.576   5.180   0.243
 1192TIP3    H2 3583   1.649   5.053   0.284
 1193TIP3   OH2 3584   0.939   5.170   1.106
 1193TIP3    H1 3585   1.001   5.215   1.163
 1193TIP3    H2 3586   0.947   5.078   1.131
 1194TIP3   OH2 3587   1.664   5.414   0.687
 1194TIP3    H1 3588   1.678   5.348   0.618
 1194TIP3    H2 3589   1.626   5.365   0.760
 1195TIP3   OH2 3590   1.811   4.933   0.571
 1195TIP3    H1 3591   1.782   4.950   0.661
 1195TIP3    H2 3592   1.746   4.873   0.536
 1196TIP3   OH2 3593   0.960   5.509   1.141
 1196TIP3    H1 3594   0.991   5.594   1.170
 1196TIP3    H2 3595   0.886   5.489   1.198
 1197TIP3   OH2 3596   1.371   5.165   0.493
 1197TIP3    H1 3597   1.451   5.180   0.444
 1197TIP3    H2 3598   1.400   5.125   0.575
 1198TIP3   OH2 3599   1.399   5.082   0.754
 1198TIP3    H1 3600   1.318   5.122   0.787
 1198TIP3    H2 3601   1.468   5.133   0.796
 1199TIP3   OH2 3602   1.996   5.743   0.501
 1199TIP3    H1 3603   1.993   5.813   0.436
 1199TIP3    H2 3604   1.933   5.678   0.469
 1200TIP3   OH2 3605   1.420   5.520   1.155
 1200TIP3    H1 3606   1.349   5.462   1.127
 1200TIP3    H2 3607   1.499   5.477   1.124
 1201TIP3   OH2 3608   1.810   5.553   0.425
 1201TIP3    H1 3609   1.757   5.513   0.494
 1201TIP3    H2 3610   1.842   5.479   0.373
 1202TIP3   OH2 3611   0.920   4.892   1.147
 1202TIP3    H1 3612   0.824   4.894   1.154
 1202TIP3    H2 3613   0.948   4.838   1.221
 1203TIP3   OH2 3614   1.734   4.994   0.829
 1203TIP3    H1 3615   1.812   5.030   0.872
 1203TIP3    H2 3616   1.717   4.912   0.875
 1204TIP3   OH2 3617   1.588   5.236   0.881
 1204TIP3    H1 3618   1.610   5.278   0.964
 1204TIP3    H2 3619   1.639   5.155   0.880
 1205TIP3   OH2 3620   1.498   4.641   0.243
 1205TIP3    H1 3621   1.486   4.736   0.250
 1205TIP3    H2 3622   1.484   4.621   0.151
 1206TIP3   OH2 3623   2.185   5.118   0.864
 1206TIP3    H1 3624   2.092   5.133   0.879
 1206TIP3    H2 3625   2.188   5.057   0.790
 1207TIP3   OH2 3626   1.888   5.318   0.309
 1207TIP3    H1 3627   1.814   5.278   0.356
 1207TIP3    H2 3628   1.965   5.272   0.342
 1208TIP3   OH2 3629   0.895   4.531   0.743
 1208TIP3    H1 3630   0.819   4.500   0.695
 1208TIP3    H2 3631   0.909   4.464   0.811
 1209TIP3   OH2 3632   1.330   5.782   1.171
 1209TIP3    H1 3633   1.268   5.782   1.098
 1209TIP3    H2 3634   1.378   5.700   1.161
 1210TIP3   OH2 3635   1.886   5.728   0.755
 1210TIP3    H1 3636   1.922   5.750   0.669
 1210TIP3    H2 3637   1.802   5.773   0.759
 1211TIP3   OH2 3638   0.883   5.392   1.403
 1211TIP3    H1 3639   0.972   5.371   1.374
 1211TIP3    H2 3640   0.896   5.461   1.469
 1212TIP3   OH2 3641   1.198   5.392   1.060
 1212TIP3    H1 3642   1.114   5.431   1.084
 1212TIP3    H2 3643   1.203   5.400   0.965
 1213TIP3   OH2 3644   1.717   5.727   1.128
 1213TIP3    H1 3645   1.813   5.728   1.132
 1213TIP3    H2 3646   1.689   5.697   1.214
 1214TIP3   OH2 3647   1.295   5.140   1.146
 1214TIP3    H1 3648   1.299   5.061   1.091
 1214TIP3    H2 3649   1.258   5.207   1.089
 1215TIP3   OH2 3650   1.310   4.915   0.962
 1215TIP3    H1 3651   1.348   4.953   0.882
 1215TIP3    H2 3652   1.218   4.899   0.940
 1216TIP3   OH2 3653   1.325   5.472   0.811
 1216TIP3    H1 3654   1.405   5.420   0.819
 1216TIP3    H2 3655   1.349   5.559   0.843
 1217TIP3   OH2 3656   1.914   5.422   1.206
 1217TIP3    H1 3657   1.964   5.342   1.222
 1217TIP3    H2 3658   1.971   5.476   1.152
 1218TIP3   OH2 3659   1.984   5.644   0.992
 1218TIP3    H1 3660   1.913   5.675   0.937
 1218TIP3    H2 3661   2.064   5.665   0.943
 1219TIP3   OH2 3662   1.147   5.247   1.373
 1219TIP3    H1 3663   1.108   5.165   1.404
 1219TIP3    H2 3664   1.209   5.221   1.305
 1220TIP3   OH2 3665   1.425   4.672   1.022
 1220TIP3    H1 3666   1.385   4.756   1.003
 1220TIP3    H2 3667   1.354   4.609   1.016
 1221TIP3   OH2 3668   1.554   5.173   1.252
 1221TIP3    H1 3669   1.539   5.149   1.344
 1221TIP3    H2 3670   1.470   5.156   1.209
 1222TIP3   OH2 3671   1.803   5.124   1.116
 1222TIP3    H1 3672   1.725   5.118   1.171
 1222TIP3    H2 3673   1.876   5.101   1.174
 1223TIP3   OH2 3674   2.045   5.092   1.262
 1223TIP3    H1 3675   2.056   4.997   1.270
 1223TIP3    H2 3676   2.036   5.123   1.352
 1224TIP3   OH2 3677   1.026   5.010   1.457
 1224TIP3    H1 3678   1.032   4.920   1.423
 1224TIP3    H2 3679   1.060   5.004   1.546
 1225TIP3   OH2 3680   1.589   4.726   1.232
 1225TIP3    H1 3681   1.629   4.642   1.256
 1225TIP3    H2 3682   1.516   4.703   1.175
 1226TIP3   OH2 3683   1.850   5.217   0.061
 1226TIP3    H1 3684   1.916   5.249  -0.001
 1226TIP3    H2 3685   1.880   5.250   0.146
 1227TIP3   OH2 3686   2.192   5.738   0.839
 1227TIP3    H1 3687   2.275   5.696   0.815
 1227TIP3    H2 3688   2.160   5.777   0.758
 1228TIP3   OH2 3689   2.386   5.529   0.914
 1228TIP3    H1 3690   2.303   5.484   0.929
 1228TIP3    H2 3691   2.452   5.460   0.921
 1229TIP3   OH2 3692   2.101   5.177   0.399
 1229TIP3    H1 3693   2.153   5.234   0.343
 1229TIP3    H2 3694   2.107   5.217   0.486
 1230TIP3   OH2 3695   2.136   5.342   0.616
 1230TIP3    H1 3696   2.061   5.368   0.669
 1230TIP3    H2 3697   2.166   5.423   0.575
 1231TIP3   OH2 3698   0.763   5.051   1.376
 1231TIP3    H1 3699   0.856   5.062   1.398
 1231TIP3    H2 3700   0.736   4.973   1.425
 1232TIP3   OH2 3701   2.594   4.958   1.158
 1232TIP3    H1 3702   2.655   4.895   1.119
 1232TIP3    H2 3703   2.558   5.005   1.083
 1233TIP3   OH2 3704   6.368   1.664   5.192
 1233TIP3    H1 3705   6.411   1.703   5.268
 1233TIP3    H2 3706   6.318   1.591   5.228
 1234TIP3   OH2 3707   2.450   5.072   0.957
 1234TIP3    H1 3708   2.370   5.113   0.990
 1234TIP3    H2 3709   2.420   4.998   0.904
 1235TIP3   OH2 3710   0.713   4.639   1.147
 1235TIP3    H1 3711   0.663   4.617   1.225
 1235TIP3    H2 3712   0.681   4.725   1.121
 1236TIP3   OH2 3713   2.354   4.823   0.856
 1236TIP3    H1 3714   2.264   4.809   0.828
 1236TIP3    H2 3715   2.394   4.736   0.850
 1237TIP3   OH2 3716   1.597   4.764   0.507
 1237TIP3    H1 3717   1.513   4.746   0.548
 1237TIP3    H2 3718   1.607   4.695   0.441
 1238TIP3   OH2 3719   2.080   4.644   0.364
 1238TIP3    H1 3720   2.115   4.698   0.293
 1238TIP3    H2 3721   1.985   4.657   0.361
 1239TIP3   OH2 3722   2.179   4.753   0.134
 1239TIP3    H1 3723   2.258   4.710   0.104
 1239TIP3    H2 3724   2.199   4.847   0.129
 1240TIP3   OH2 3725   1.293   4.502   0.380
 1240TIP3    H1 3726   1.346   4.563   0.329
 1240TIP3    H2 3727   1.314   4.520   0.471
 1241TIP3   OH2 3728   1.810   4.634   0.330
 1241TIP3    H1 3729   1.738   4.640   0.267
 1241TIP3    H2 3730   1.786   4.562   0.388
 1242TIP3   OH2 3731   6.233   1.445   5.278
 1242TIP3    H1 3732   6.159   1.489   5.237
 1242TIP3    H2 3733   6.194   1.376   5.331
 1243TIP3   OH2 3734   1.038   4.733   1.370
 1243TIP3    H1 3735   1.007   4.668   1.433
 1243TIP3    H2 3736   1.133   4.733   1.381
 1244TIP3   OH2 3737   2.104   4.822   1.280
 1244TIP3    H1 3738   2.117   4.792   1.370
 1244TIP3    H2 3739   2.190   4.815   1.239
 1245TIP3   OH2 3740   2.561   5.644   0.240
 1245TIP3    H1 3741   2.544   5.551   0.223
 1245TIP3    H2 3742   2.648   5.660   0.206
 1246TIP3   OH2 3743   2.714   5.090   0.361
 1246TIP3    H1 3744   2.764   5.168   0.338
 1246TIP3    H2 3745   2.690   5.104   0.452
 1247TIP3   OH2 3746   2.768   5.710   0.644
 1247TIP3    H1 3747   2.802   5.798   0.658
 1247TIP3    H2 3748   2.694   5.722   0.585
 1248TIP3   OH2 3749   2.299   5.871   0.410
 1248TIP3    H1 3750   2.319   5.881   0.317
 1248TIP3    H2 3751   2.384   5.856   0.452
 1249TIP3   OH2 3752   2.813   4.853   0.308
 1249TIP3    H1 3753   2.727   4.812   0.319
 1249TIP3    H2 3754   2.794   4.947   0.301
 1250TIP3   OH2 3755   3.522   5.035   0.483
 1250TIP3    H1 3756   3.538   5.093   0.556
 1250TIP3    H2 3757   3.431   5.052   0.457
 1251TIP3   OH2 3758   2.822   5.324   0.240
 1251TIP3    H1 3759   2.858   5.320   0.328
 1251TIP3    H2 3760   2.893   5.359   0.186
 1252TIP3   OH2 3761   3.429   5.643   0.590
 1252TIP3    H1 3762   3.422   5.591   0.670
 1252TIP3    H2 3763   3.517   5.624   0.556
 1253TIP3   OH2 3764   2.646   5.440   0.501
 1253TIP3    H1 3765   2.655   5.488   0.584
 1253TIP3    H2 3766   2.613   5.354   0.527
 1254TIP3   OH2 3767   2.284   4.999   0.067
 1254TIP3    H1 3768   2.349   5.025   0.132
 1254TIP3    H2 3769   2.328   4.933   0.014
 1255TIP3   OH2 3770   2.744   5.976   0.729
 1255TIP3    H1 3771   2.811   6.009   0.789
 1255TIP3    H2 3772   2.685   5.924   0.784
 1256TIP3   OH2 3773   2.417   5.654   0.678
 1256TIP3    H1 3774   2.426   5.604   0.759
 1256TIP3    H2 3775   2.351   5.606   0.628
 1257TIP3   OH2 3776   3.162   5.668   0.701
 1257TIP3    H1 3777   3.103   5.694   0.630
 1257TIP3    H2 3778   3.250   5.680   0.665
 1258TIP3   OH2 3779   2.659   5.164   0.630
 1258TIP3    H1 3780   2.565   5.180   0.638
 1258TIP3    H2 3781   2.681   5.113   0.708
 1259TIP3   OH2 3782   3.352   5.396   0.481
 1259TIP3    H1 3783   3.375   5.479   0.523
 1259TIP3    H2 3784   3.426   5.376   0.423
 1260TIP3   OH2 3785   2.569   4.738   0.308
 1260TIP3    H1 3786   2.582   4.735   0.213
 1260TIP3    H2 3787   2.610   4.657   0.340
 1261TIP3   OH2 3788   2.460   5.925   0.872
 1261TIP3    H1 3789   2.518   5.851   0.892
 1261TIP3    H2 3790   2.429   5.908   0.783
 1262TIP3   OH2 3791   3.061   5.974   0.682
 1262TIP3    H1 3792   3.070   6.058   0.638
 1262TIP3    H2 3793   3.140   5.925   0.658
 1263TIP3   OH2 3794   2.655   5.739   0.895
 1263TIP3    H1 3795   2.716   5.695   0.836
 1263TIP3    H2 3796   2.702   5.747   0.978
 1264TIP3   OH2 3797   3.051   5.715   0.453
 1264TIP3    H1 3798   2.955   5.716   0.446
 1264TIP3    H2 3799   3.081   5.718   0.362
 1265TIP3   OH2 3800   3.462   6.014   0.710
 1265TIP3    H1 3801   3.473   5.964   0.791
 1265TIP3    H2 3802   3.408   5.958   0.654
 1266TIP3   OH2 3803   3.131   5.367   0.705
 1266TIP3    H1 3804   3.133   5.292   0.646
 1266TIP3    H2 3805   3.073   5.430   0.663
 1267TIP3   OH2 3806   3.151   5.188   0.499
 1267TIP3    H1 3807   3.174   5.265   0.448
 1267TIP3    H2 3808   3.066   5.160   0.465
 1268TIP3   OH2 3809   3.748   5.664   0.771
 1268TIP3    H1 3810   3.770   5.602   0.840
 1268TIP3    H2 3811   3.832   5.698   0.742
 1269TIP3   OH2 3812   2.961   5.506   0.905
 1269TIP3    H1 3813   2.907   5.427   0.910
 1269TIP3    H2 3814   3.002   5.502   0.819
 1270TIP3   OH2 3815   3.184   4.961   0.658
 1270TIP3    H1 3816   3.148   5.021   0.593
 1270TIP3    H2 3817   3.178   4.875   0.618
 1271TIP3   OH2 3818   3.385   5.462   0.780
 1271TIP3    H1 3819   3.390   5.456   0.875
 1271TIP3    H2 3820   3.298   5.429   0.758
 1272TIP3   OH2 3821   3.605   5.235   0.662
 1272TIP3    H1 3822   3.515   5.227   0.693
 1272TIP3    H2 3823   3.635   5.321   0.692
 1273TIP3   OH2 3824   3.839   5.352   0.781
 1273TIP3    H1 3825   3.874   5.263   0.791
 1273TIP3    H2 3826   3.810   5.377   0.868
 1274TIP3   OH2 3827   2.825   5.263   0.940
 1274TIP3    H1 3828   2.829   5.173   0.906
 1274TIP3    H2 3829   2.862   5.257   1.028
 1275TIP3   OH2 3830   3.360   4.922   0.860
 1275TIP3    H1 3831   3.430   4.866   0.828
 1275TIP3    H2 3832   3.300   4.930   0.786
 1276TIP3   OH2 3833   3.398   5.175   0.965
 1276TIP3    H1 3834   3.387   5.102   0.904
 1276TIP3    H2 3835   3.323   5.232   0.948
 1277TIP3   OH2 3836   2.560   5.322   0.914
 1277TIP3    H1 3837   2.655   5.317   0.919
 1277TIP3    H2 3838   2.530   5.235   0.941
 1278TIP3   OH2 3839   4.390   5.165   0.599
 1278TIP3    H1 3840   4.448   5.117   0.540
 1278TIP3    H2 3841   4.450   5.218   0.652
 1279TIP3   OH2 3842   2.494   4.996   0.234
 1279TIP3    H1 3843   2.514   4.914   0.279
 1279TIP3    H2 3844   2.579   5.035   0.217
 1280TIP3   OH2 3845   2.256   5.368   0.279
 1280TIP3    H1 3846   2.284   5.365   0.188
 1280TIP3    H2 3847   2.329   5.333   0.329
 1281TIP3   OH2 3848   2.509   4.868   0.628
 1281TIP3    H1 3849   2.459   4.861   0.709
 1281TIP3    H2 3850   2.449   4.909   0.566
 1282TIP3   OH2 3851   2.822   4.990   0.865
 1282TIP3    H1 3852   2.787   4.923   0.924
 1282TIP3    H2 3853   2.915   4.996   0.889
 1283TIP3   OH2 3854   3.071   4.996   0.989
 1283TIP3    H1 3855   3.160   4.980   0.957
 1283TIP3    H2 3856   3.055   4.928   1.054
 1284TIP3   OH2 3857   1.330   0.331   3.406
 1284TIP3    H1 3858   1.287   0.415   3.420
 1284TIP3    H2 3859   1.274   0.268   3.451
 1285TIP3   OH2 3860   1.281   0.256   3.828
 1285TIP3    H1 3861   1.312   0.213   3.908
 1285TIP3    H2 3862   1.234   0.187   3.781
 1286TIP3   OH2 3863   1.493   0.552   3.517
 1286TIP3    H1 3864   1.500   0.473   3.571
 1286TIP3    H2 3865   1.530   0.621   3.571
 1287TIP3   OH2 3866   1.138   0.985   3.511
 1287TIP3    H1 3867   1.181   0.913   3.464
 1287TIP3    H2 3868   1.114   0.948   3.596
 1288TIP3   OH2 3869   1.065   0.446   3.833
 1288TIP3    H1 3870   1.047   0.371   3.776
 1288TIP3    H2 3871   1.150   0.427   3.872
 1289TIP3   OH2 3872   6.393   5.914   3.842
 1289TIP3    H1 3873   6.421   5.988   3.895
 1289TIP3    H2 3874   6.437   5.925   3.758
 1290TIP3   OH2 3875   5.761   6.054   3.917
 1290TIP3    H1 3876   5.800   5.968   3.933
 1290TIP3    H2 3877   5.745   6.056   3.822
 1291TIP3   OH2 3878   5.861   5.866   3.491
 1291TIP3    H1 3879   5.924   5.860   3.563
 1291TIP3    H2 3880   5.911   5.902   3.418
 1292TIP3   OH2 3881   2.125  -0.001   4.018
 1292TIP3    H1 3882   2.036   0.033   4.011
 1292TIP3    H2 3883   2.154   0.024   4.105
 1293TIP3   OH2 3884   1.129   0.522   3.299
 1293TIP3    H1 3885   1.130   0.532   3.203
 1293TIP3    H2 3886   1.072   0.593   3.329
 1294TIP3   OH2 3887   6.026   5.852   3.700
 1294TIP3    H1 3888   6.059   5.780   3.754
 1294TIP3    H2 3889   6.074   5.928   3.731
 1295TIP3   OH2 3890   1.545   0.777   3.676
 1295TIP3    H1 3891   1.467   0.778   3.732
 1295TIP3    H2 3892   1.539   0.857   3.625
 1296TIP3   OH2 3893   1.246   0.808   3.329
 1296TIP3    H1 3894   1.295   0.727   3.313
 1296TIP3    H2 3895   1.303   0.877   3.295
 1297TIP3   OH2 3896   1.416   0.603   3.256
 1297TIP3    H1 3897   1.395   0.519   3.217
 1297TIP3    H2 3898   1.456   0.582   3.341
 1298TIP3   OH2 3899   1.769   0.679   4.002
 1298TIP3    H1 3900   1.764   0.603   3.943
 1298TIP3    H2 3901   1.764   0.754   3.943
 1299TIP3   OH2 3902   1.060  -0.006   3.204
 1299TIP3    H1 3903   1.043   0.088   3.208
 1299TIP3    H2 3904   1.140  -0.014   3.151
 1300TIP3   OH2 3905   1.970   0.330   3.859
 1300TIP3    H1 3906   1.887   0.378   3.859
 1300TIP3    H2 3907   2.002   0.340   3.769
 1301TIP3   OH2 3908   1.450   0.182   3.216
 1301TIP3    H1 3909   1.410   0.236   3.284
 1301TIP3    H2 3910   1.525   0.141   3.259
 1302TIP3   OH2 3911   1.652   0.207   4.159
 1302TIP3    H1 3912   1.646   0.285   4.214
 1302TIP3    H2 3913   1.566   0.203   4.116
 1303TIP3   OH2 3914   0.807   0.547   3.840
 1303TIP3    H1 3915   0.802   0.563   3.746
 1303TIP3    H2 3916   0.900   0.527   3.855
 1304TIP3   OH2 3917   1.327   0.768   3.913
 1304TIP3    H1 3918   1.307   0.856   3.880
 1304TIP3    H2 3919   1.275   0.710   3.858
 1305TIP3   OH2 3920   0.900   0.658   4.336
 1305TIP3    H1 3921   0.883   0.739   4.384
 1305TIP3    H2 3922   0.844   0.664   4.258
 1306TIP3   OH2 3923   1.302  -0.014   3.078
 1306TIP3    H1 3924   1.354   0.065   3.096
 1306TIP3    H2 3925   1.321  -0.034   2.987
 1307TIP3   OH2 3926   0.972   0.750   3.342
 1307TIP3    H1 3927   1.064   0.777   3.348
 1307TIP3    H2 3928   0.931   0.814   3.284
 1308TIP3   OH2 3929   0.707   0.866   4.401
 1308TIP3    H1 3930   0.700   0.864   4.306
 1308TIP3    H2 3931   0.648   0.797   4.431
 1309TIP3   OH2 3932   1.586   0.617   2.661
 1309TIP3    H1 3933   1.584   0.712   2.647
 1309TIP3    H2 3934   1.677   0.593   2.643
 1310TIP3   OH2 3935   2.023   1.031   4.059
 1310TIP3    H1 3936   2.026   0.936   4.073
 1310TIP3    H2 3937   1.940   1.058   4.096
 1311TIP3   OH2 3938   0.886   0.940   3.154
 1311TIP3    H1 3939   0.843   0.931   3.070
 1311TIP3    H2 3940   0.861   1.026   3.186
 1312TIP3   OH2 3941   0.196   0.842   3.639
 1312TIP3    H1 3942   0.276   0.793   3.622
 1312TIP3    H2 3943   0.126   0.787   3.603
 1313TIP3   OH2 3944   1.100   0.855   2.785
 1313TIP3    H1 3945   1.150   0.783   2.746
 1313TIP3    H2 3946   1.134   0.862   2.874
 1314TIP3   OH2 3947   1.144   0.897   3.053
 1314TIP3    H1 3948   1.062   0.899   3.101
 1314TIP3    H2 3949   1.210   0.870   3.118
 1315TIP3   OH2 3950   1.913   0.157   4.339
 1315TIP3    H1 3951   1.823   0.165   4.308
 1315TIP3    H2 3952   1.937   0.066   4.321
 1316TIP3   OH2 3953   6.010   6.093   4.294
 1316TIP3    H1 3954   5.993   6.125   4.382
 1316TIP3    H2 3955   5.983   6.165   4.237
 1317TIP3   OH2 3956   1.351   0.073   2.774
 1317TIP3    H1 3957   1.257   0.086   2.766
 1317TIP3    H2 3958   1.385   0.157   2.806
 1318TIP3   OH2 3959   5.450   5.974   3.433
 1318TIP3    H1 3960   5.399   6.038   3.384
 1318TIP3    H2 3961   5.534   5.970   3.387
 1319TIP3   OH2 3962   1.404   0.137   4.466
 1319TIP3    H1 3963   1.367   0.169   4.548
 1319TIP3    H2 3964   1.497   0.121   4.486
 1320TIP3   OH2 3965   5.722   6.060   3.644
 1320TIP3    H1 3966   5.627   6.046   3.641
 1320TIP3    H2 3967   5.757   5.996   3.582
 1321TIP3   OH2 3968   1.391   0.148   4.067
 1321TIP3    H1 3969   1.409   0.067   4.018
 1321TIP3    H2 3970   1.353   0.118   4.150
 1322TIP3   OH2 3971   1.731   1.368   4.139
 1322TIP3    H1 3972   1.720   1.410   4.054
 1322TIP3    H2 3973   1.794   1.424   4.185
 1323TIP3   OH2 3974   0.835   0.168   3.254
 1323TIP3    H1 3975   0.742   0.179   3.271
 1323TIP3    H2 3976   0.878   0.226   3.318
 1324TIP3   OH2 3977   1.736   0.473   3.827
 1324TIP3    H1 3978   1.773   0.519   3.752
 1324TIP3    H2 3979   1.658   0.430   3.792
 1325TIP3   OH2 3980   5.585   5.821   3.182
 1325TIP3    H1 3981   5.668   5.778   3.200
 1325TIP3    H2 3982   5.605   5.888   3.118
 1326TIP3   OH2 3983   1.087   0.472   3.016
 1326TIP3    H1 3984   1.019   0.538   3.024
 1326TIP3    H2 3985   1.041   0.388   3.024
 1327TIP3   OH2 3986   6.148   6.013   3.045
 1327TIP3    H1 3987   6.083   5.959   2.998
 1327TIP3    H2 3988   6.147   6.096   2.998
 1328TIP3   OH2 3989   2.021   0.741   4.093
 1328TIP3    H1 3990   1.926   0.739   4.083
 1328TIP3    H2 3991   2.055   0.714   4.007
 1329TIP3   OH2 3992   1.514   0.695   2.929
 1329TIP3    H1 3993   1.491   0.626   2.992
 1329TIP3    H2 3994   1.527   0.648   2.847
 1330TIP3   OH2 3995   1.518   0.347   3.714
 1330TIP3    H1 3996   1.434   0.324   3.753
 1330TIP3    H2 3997   1.552   0.265   3.680
 1331TIP3   OH2 3998   0.774   0.593   3.578
 1331TIP3    H1 3999   0.805   0.644   3.503
 1331TIP3    H2 4000   0.681   0.579   3.560
 1332TIP3   OH2 4001   0.867   0.326   3.486
 1332TIP3    H1 4002   0.878   0.420   3.498
 1332TIP3    H2 4003   0.777   0.317   3.453
 1333TIP3   OH2 4004   0.924   0.921   3.992
 1333TIP3    H1 4005   0.960   0.981   3.927
 1333TIP3    H2 4006   0.964   0.948   4.075
 1334TIP3   OH2 4007   0.592   0.822   3.365
 1334TIP3    H1 4008   0.519   0.805   3.424
 1334TIP3    H2 4009   0.611   0.915   3.378
 1335TIP3   OH2 4010   1.292   0.449   2.836
 1335TIP3    H1 4011   1.357   0.427   2.903
 1335TIP3    H2 4012   1.210   0.458   2.885
 1336TIP3   OH2 4013   1.527   1.048   3.980
 1336TIP3    H1 4014   1.433   1.028   3.976
 1336TIP3    H2 4015   1.537   1.125   3.923
 1337TIP3   OH2 4016   1.592   0.893   2.638
 1337TIP3    H1 4017   1.619   0.956   2.571
 1337TIP3    H2 4018   1.520   0.936   2.683
 1338TIP3   OH2 4019   1.463   0.378   3.030
 1338TIP3    H1 4020   1.445   0.308   3.092
 1338TIP3    H2 4021   1.558   0.373   3.015
 1339TIP3   OH2 4022   0.541   0.409   3.135
 1339TIP3    H1 4023   0.618   0.390   3.081
 1339TIP3    H2 4024   0.530   0.504   3.129
 1340TIP3   OH2 4025   0.900   0.658   3.056
 1340TIP3    H1 4026   0.810   0.631   3.077
 1340TIP3    H2 4027   0.890   0.733   2.998
 1341TIP3   OH2 4028   0.551   0.693   3.132
 1341TIP3    H1 4029   0.545   0.748   3.053
 1341TIP3    H2 4030   0.550   0.755   3.204
 1342TIP3   OH2 4031   6.272   6.027   4.243
 1342TIP3    H1 4032   6.177   6.025   4.254
 1342TIP3    H2 4033   6.288   5.981   4.161
 1343TIP3   OH2 4034   1.604   0.097   3.634
 1343TIP3    H1 4035   1.528   0.041   3.645
 1343TIP3    H2 4036   1.674   0.052   3.682
 1344TIP3   OH2 4037   1.561   1.035   3.572
 1344TIP3    H1 4038   1.519   1.084   3.502
 1344TIP3    H2 4039   1.655   1.051   3.559
 1345TIP3   OH2 4040   0.824   1.031   4.590
 1345TIP3    H1 4041   0.908   0.987   4.602
 1345TIP3    H2 4042   0.782   0.983   4.518
 1346TIP3   OH2 4043   0.855   0.610   2.724
 1346TIP3    H1 4044   0.813   0.528   2.698
 1346TIP3    H2 4045   0.945   0.601   2.695
 1347TIP3   OH2 4046   1.431   0.886   4.301
 1347TIP3    H1 4047   1.406   0.854   4.387
 1347TIP3    H2 4048   1.496   0.954   4.318
 1348TIP3   OH2 4049   1.225   0.649   2.661
 1348TIP3    H1 4050   1.262   0.583   2.720
 1348TIP3    H2 4051   1.277   0.643   2.581
 1349TIP3   OH2 4052   1.098   0.592   4.518
 1349TIP3    H1 4053   1.032   0.600   4.449
 1349TIP3    H2 4054   1.138   0.506   4.503
 1350TIP3   OH2 4055   1.564   0.668   4.175
 1350TIP3    H1 4056   1.629   0.656   4.106
 1350TIP3    H2 4057   1.613   0.709   4.247
 1351TIP3   OH2 4058   1.452   0.483   4.516
 1351TIP3    H1 4059   1.521   0.450   4.458
 1351TIP3    H2 4060   1.457   0.427   4.593
 1352TIP3   OH2 4061   1.600   0.161   2.634
 1352TIP3    H1 4062   1.535   0.091   2.629
 1352TIP3    H2 4063   1.550   0.242   2.627
 1353TIP3   OH2 4064   1.669   0.108   4.541
 1353TIP3    H1 4065   1.680   0.069   4.628
 1353TIP3    H2 4066   1.717   0.190   4.545
 1354TIP3   OH2 4067   1.677   0.441   4.318
 1354TIP3    H1 4068   1.625   0.505   4.269
 1354TIP3    H2 4069   1.767   0.454   4.286
 1355TIP3   OH2 4070   0.573   0.880   2.927
 1355TIP3    H1 4071   0.666   0.877   2.907
 1355TIP3    H2 4072   0.534   0.931   2.857
 1356TIP3   OH2 4073   1.826   1.108   3.555
 1356TIP3    H1 4074   1.847   1.143   3.641
 1356TIP3    H2 4075   1.881   1.158   3.494
 1357TIP3   OH2 4076   1.849   1.147   3.833
 1357TIP3    H1 4077   1.811   1.059   3.832
 1357TIP3    H2 4078   1.923   1.140   3.892
 1358TIP3   OH2 4079   1.883   0.826   4.407
 1358TIP3    H1 4080   1.815   0.839   4.473
 1358TIP3    H2 4081   1.931   0.909   4.405
 1359TIP3   OH2 4082   1.731   0.336   3.006
 1359TIP3    H1 4083   1.791   0.406   2.979
 1359TIP3    H2 4084   1.767   0.303   3.088
 1360TIP3   OH2 4085   1.838   0.221   3.228
 1360TIP3    H1 4086   1.775   0.174   3.283
 1360TIP3    H2 4087   1.905   0.251   3.288
 1361TIP3   OH2 4088   1.897   0.605   3.650
 1361TIP3    H1 4089   1.951   0.536   3.611
 1361TIP3    H2 4090   1.902   0.677   3.587
 1362TIP3   OH2 4091   1.722   0.900   3.849
 1362TIP3    H1 4092   1.650   0.945   3.894
 1362TIP3    H2 4093   1.680   0.856   3.775
 1363TIP3   OH2 4094   1.760   0.107   2.857
 1363TIP3    H1 4095   1.706   0.125   2.780
 1363TIP3    H2 4096   1.746   0.182   2.914
 1364TIP3   OH2 4097   5.990   5.923   2.845
 1364TIP3    H1 4098   5.992   6.009   2.802
 1364TIP3    H2 4099   5.969   5.862   2.775
 1365TIP3   OH2 4100   1.656   0.067   3.364
 1365TIP3    H1 4101   1.682  -0.025   3.359
 1365TIP3    H2 4102   1.641   0.082   3.458
 1366TIP3   OH2 4103   1.929   0.498   4.222
 1366TIP3    H1 4104   1.995   0.430   4.206
 1366TIP3    H2 4105   1.958   0.572   4.168
 1367TIP3   OH2 4106   2.110   0.295   4.216
 1367TIP3    H1 4107   2.038   0.249   4.258
 1367TIP3    H2 4108   2.184   0.235   4.225
 1368TIP3   OH2 4109   6.060   5.929   3.304
 1368TIP3    H1 4110   6.086   5.837   3.308
 1368TIP3    H2 4111   6.094   5.960   3.220
 1369TIP3   OH2 4112   6.139   6.094   3.765
 1369TIP3    H1 4113   6.222   6.108   3.720
 1369TIP3    H2 4114   6.154   6.125   3.855
 1370TIP3   OH2 4115   1.868   0.112   3.996
 1370TIP3    H1 4116   1.794   0.144   4.047
 1370TIP3    H2 4117   1.901   0.189   3.950
 1371TIP3   OH2 4118   1.389   0.998   3.203
 1371TIP3    H1 4119   1.446   0.988   3.127
 1371TIP3    H2 4120   1.431   1.067   3.255
 1372TIP3   OH2 4121   0.698   0.836   4.130
 1372TIP3    H1 4122   0.650   0.911   4.095
 1372TIP3    H2 4123   0.779   0.834   4.079
 1373TIP3   OH2 4124   1.105   1.068   4.262
 1373TIP3    H1 4125   1.135   1.083   4.352
 1373TIP3    H2 4126   1.169   1.115   4.208
 1374TIP3   OH2 4127   1.300   1.237   4.154
 1374TIP3    H1 4128   1.395   1.236   4.141
 1374TIP3    H2 4129   1.288   1.260   4.246
 1375TIP3   OH2 4130   0.355   1.128   4.146
 1375TIP3    H1 4131   0.292   1.150   4.077
 1375TIP3    H2 4132   0.336   1.037   4.168
 1376TIP3   OH2 4133   0.602   1.075   4.024
 1376TIP3    H1 4134   0.527   1.110   4.071
 1376TIP3    H2 4135   0.588   1.100   3.933
 1377TIP3   OH2 4136   1.016   1.104   3.805
 1377TIP3    H1 4137   0.945   1.122   3.744
 1377TIP3    H2 4138   1.032   1.188   3.849
 1378TIP3   OH2 4139   1.280   1.025   3.838
 1378TIP3    H1 4140   1.189   1.055   3.828
 1378TIP3    H2 4141   1.332   1.098   3.806
 1379TIP3   OH2 4142   1.478   1.216   3.766
 1379TIP3    H1 4143   1.473   1.304   3.728
 1379TIP3    H2 4144   1.509   1.161   3.694
 1380TIP3   OH2 4145   0.468   0.758   3.744
 1380TIP3    H1 4146   0.468   0.688   3.809
 1380TIP3    H2 4147   0.552   0.802   3.756
 1381TIP3   OH2 4148   0.741   0.851   3.782
 1381TIP3    H1 4149   0.759   0.758   3.775
 1381TIP3    H2 4150   0.791   0.880   3.859
 1382TIP3   OH2 4151   0.840   0.849   2.867
 1382TIP3    H1 4152   0.925   0.886   2.844
 1382TIP3    H2 4153   0.826   0.779   2.803
 1383TIP3   OH2 4154   1.543   0.962   2.974
 1383TIP3    H1 4155   1.539   0.868   2.961
 1383TIP3    H2 4156   1.502   0.999   2.895
 1384TIP3   OH2 4157   1.770   1.101   4.133
 1384TIP3    H1 4158   1.686   1.071   4.099
 1384TIP3    H2 4159   1.759   1.195   4.144
 1385TIP3   OH2 4160   3.037   0.490   2.906
 1385TIP3    H1 4161   3.008   0.578   2.881
 1385TIP3    H2 4162   2.963   0.434   2.882
 1386TIP3   OH2 4163   3.030   0.496   3.302
 1386TIP3    H1 4164   3.080   0.477   3.381
 1386TIP3    H2 4165   2.992   0.412   3.276
 1387TIP3   OH2 4166   2.330   0.371   3.670
 1387TIP3    H1 4167   2.364   0.312   3.738
 1387TIP3    H2 4168   2.409   0.404   3.626
 1388TIP3   OH2 4169   3.297   0.788   2.997
 1388TIP3    H1 4170   3.281   0.724   3.066
 1388TIP3    H2 4171   3.320   0.868   3.043
 1389TIP3   OH2 4172   2.318   0.779   3.377
 1389TIP3    H1 4173   2.304   0.685   3.380
 1389TIP3    H2 4174   2.413   0.789   3.366
 1390TIP3   OH2 4175   2.023   0.025   3.156
 1390TIP3    H1 4176   1.968   0.100   3.178
 1390TIP3    H2 4177   1.962  -0.044   3.130
 1391TIP3   OH2 4178   2.074   0.279   3.359
 1391TIP3    H1 4179   2.122   0.200   3.385
 1391TIP3    H2 4180   2.139   0.333   3.315
 1392TIP3   OH2 4181   2.946   1.232   3.006
 1392TIP3    H1 4182   2.981   1.163   2.949
 1392TIP3    H2 4183   2.931   1.189   3.090
 1393TIP3   OH2 4184   2.837   0.708   3.336
 1393TIP3    H1 4185   2.878   0.629   3.300
 1393TIP3    H2 4186   2.911   0.761   3.366
 1394TIP3   OH2 4187   3.826   0.081   3.365
 1394TIP3    H1 4188   3.865   0.158   3.406
 1394TIP3    H2 4189   3.892   0.051   3.303
 1395TIP3   OH2 4190   3.248   0.189   3.376
 1395TIP3    H1 4191   3.276   0.098   3.385
 1395TIP3    H2 4192   3.205   0.192   3.290
 1396TIP3   OH2 4193   0.414   5.999   3.349
 1396TIP3    H1 4194   0.387   6.059   3.279
 1396TIP3    H2 4195   0.403   5.912   3.311
 1397TIP3   OH2 4196   1.124   6.127   2.944
 1397TIP3    H1 4197   1.192   6.065   2.971
 1397TIP3    H2 4198   1.167   6.185   2.881
 1398TIP3   OH2 4199   2.222   0.064   3.446
 1398TIP3    H1 4200   2.305   0.049   3.492
 1398TIP3    H2 4201   2.225   0.005   3.371
 1399TIP3   OH2 4202   2.643   0.265   3.261
 1399TIP3    H1 4203   2.738   0.258   3.258
 1399TIP3    H2 4204   2.611   0.180   3.230
 1400TIP3   OH2 4205   3.913   0.289   3.521
 1400TIP3    H1 4206   3.826   0.328   3.519
 1400TIP3    H2 4207   3.936   0.285   3.614
 1401TIP3   OH2 4208   0.363   5.955   3.790
 1401TIP3    H1 4209   0.335   5.997   3.709
 1401TIP3    H2 4210   0.315   6.002   3.859
 1402TIP3   OH2 4211   2.937   0.709   2.765
 1402TIP3    H1 4212   2.896   0.682   2.683
 1402TIP3    H2 4213   2.883   0.782   2.796
 1403TIP3   OH2 4214   2.685   0.632   3.554
 1403TIP3    H1 4215   2.629   0.701   3.589
 1403TIP3    H2 4216   2.731   0.674   3.481
 1404TIP3   OH2 4217   3.484   0.007   3.201
 1404TIP3    H1 4218   3.520  -0.046   3.272
 1404TIP3    H2 4219   3.522   0.094   3.214
 1405TIP3   OH2 4220   0.287   6.096   3.565
 1405TIP3    H1 4221   0.342   6.170   3.591
 1405TIP3    H2 4222   0.335   6.054   3.493
 1406TIP3   OH2 4223   2.520   0.828   3.658
 1406TIP3    H1 4224   2.503   0.917   3.626
 1406TIP3    H2 4225   2.443   0.807   3.711
 1407TIP3   OH2 4226   1.903   0.528   2.902
 1407TIP3    H1 4227   1.867   0.549   2.815
 1407TIP3    H2 4228   1.929   0.612   2.939
 1408TIP3   OH2 4229   3.345   1.033   3.139
 1408TIP3    H1 4230   3.260   1.022   3.182
 1408TIP3    H2 4231   3.340   1.118   3.095
 1409TIP3   OH2 4232   3.048   1.068   2.803
 1409TIP3    H1 4233   3.098   0.988   2.790
 1409TIP3    H2 4234   3.106   1.138   2.772
 1410TIP3   OH2 4235   3.186   0.839   2.747
 1410TIP3    H1 4236   3.113   0.778   2.744
 1410TIP3    H2 4237   3.235   0.814   2.826
 1411TIP3   OH2 4238   3.574   0.933   3.485
 1411TIP3    H1 4239   3.557   0.857   3.429
 1411TIP3    H2 4240   3.555   1.008   3.429
 1412TIP3   OH2 4241   2.859   0.336   2.755
 1412TIP3    H1 4242   2.777   0.382   2.738
 1412TIP3    H2 4243   2.905   0.337   2.671
 1413TIP3   OH2 4244   2.822   0.134   2.462
 1413TIP3    H1 4245   2.885   0.191   2.506
 1413TIP3    H2 4246   2.876   0.072   2.414
 1414TIP3   OH2 4247   3.764   0.593   3.345
 1414TIP3    H1 4248   3.680   0.638   3.346
 1414TIP3    H2 4249   3.797   0.606   3.256
 1415TIP3   OH2 4250   3.217   0.417   2.716
 1415TIP3    H1 4251   3.162   0.446   2.789
 1415TIP3    H2 4252   3.302   0.400   2.756
 1416TIP3   OH2 4253   3.436   0.487   3.632
 1416TIP3    H1 4254   3.431   0.565   3.688
 1416TIP3    H2 4255   3.354   0.488   3.583
 1417TIP3   OH2 4256   2.443   0.404   3.129
 1417TIP3    H1 4257   2.404   0.344   3.066
 1417TIP3    H2 4258   2.515   0.354   3.168
 1418TIP3   OH2 4259   2.580   0.822   3.269
 1418TIP3    H1 4260   2.559   0.801   3.178
 1418TIP3    H2 4261   2.667   0.785   3.282
 1419TIP3   OH2 4262   2.555   0.399   3.490
 1419TIP3    H1 4263   2.592   0.363   3.410
 1419TIP3    H2 4264   2.608   0.477   3.508
 1420TIP3   OH2 4265   3.112   1.022   3.275
 1420TIP3    H1 4266   3.095   1.102   3.326
 1420TIP3    H2 4267   3.095   0.951   3.337
 1421TIP3   OH2 4268   2.722   0.933   3.817
 1421TIP3    H1 4269   2.664   0.993   3.863
 1421TIP3    H2 4270   2.663   0.880   3.762
 1422TIP3   OH2 4271   3.038   0.295   2.545
 1422TIP3    H1 4272   3.100   0.348   2.595
 1422TIP3    H2 4273   3.068   0.302   2.454
 1423TIP3   OH2 4274   2.474   0.490   3.946
 1423TIP3    H1 4275   2.479   0.581   3.973
 1423TIP3    H2 4276   2.380   0.471   3.942
 1424TIP3   OH2 4277   2.800   0.946   2.816
 1424TIP3    H1 4278   2.882   0.997   2.820
 1424TIP3    H2 4279   2.739   1.002   2.768
 1425TIP3   OH2 4280   2.516   1.094   3.902
 1425TIP3    H1 4281   2.486   1.102   3.811
 1425TIP3    H2 4282   2.436   1.075   3.952
 1426TIP3   OH2 4283   2.316   0.245   2.934
 1426TIP3    H1 4284   2.242   0.292   2.894
 1426TIP3    H2 4285   2.289   0.154   2.934
 1427TIP3   OH2 4286   3.378   0.881   2.154
 1427TIP3    H1 4287   3.377   0.975   2.137
 1427TIP3    H2 4288   3.468   0.854   2.135
 1428TIP3   OH2 4289   2.095   0.642   3.851
 1428TIP3    H1 4290   2.031   0.623   3.782
 1428TIP3    H2 4291   2.134   0.557   3.872
 1429TIP3   OH2 4292   1.955   0.830   3.491
 1429TIP3    H1 4293   2.050   0.832   3.483
 1429TIP3    H2 4294   1.933   0.911   3.537
 1430TIP3   OH2 4295   3.809   1.292   3.548
 1430TIP3    H1 4296   3.815   1.197   3.560
 1430TIP3    H2 4297   3.729   1.317   3.593
 1431TIP3   OH2 4298   2.912   1.069   3.674
 1431TIP3    H1 4299   2.909   1.160   3.703
 1431TIP3    H2 4300   2.845   1.025   3.725
 1432TIP3   OH2 4301   2.688   1.184   2.630
 1432TIP3    H1 4302   2.640   1.164   2.550
 1432TIP3    H2 4303   2.653   1.268   2.659
 1433TIP3   OH2 4304   2.121   1.030   3.011
 1433TIP3    H1 4305   2.166   1.024   3.096
 1433TIP3    H2 4306   2.073   0.948   3.003
 1434TIP3   OH2 4307   2.889   1.102   2.262
 1434TIP3    H1 4308   2.941   1.030   2.226
 1434TIP3    H2 4309   2.923   1.114   2.351
 1435TIP3   OH2 4310   2.941   1.147   2.532
 1435TIP3    H1 4311   2.855   1.154   2.572
 1435TIP3    H2 4312   2.997   1.112   2.602
 1436TIP3   OH2 4313   3.702   0.438   3.843
 1436TIP3    H1 4314   3.608   0.453   3.837
 1436TIP3    H2 4315   3.712   0.344   3.828
 1437TIP3   OH2 4316   2.302   0.823   3.826
 1437TIP3    H1 4317   2.350   0.813   3.908
 1437TIP3    H2 4318   2.229   0.762   3.834
 1438TIP3   OH2 4319   3.449   0.241   3.751
 1438TIP3    H1 4320   3.410   0.232   3.838
 1438TIP3    H2 4321   3.427   0.330   3.724
 1439TIP3   OH2 4322   3.138   0.295   2.295
 1439TIP3    H1 4323   3.092   0.286   2.212
 1439TIP3    H2 4324   3.223   0.333   2.271
 1440TIP3   OH2 4325   2.616   0.176   3.635
 1440TIP3    H1 4326   2.576   0.187   3.722
 1440TIP3    H2 4327   2.595   0.256   3.588
 1441TIP3   OH2 4328   2.495   0.046   3.160
 1441TIP3    H1 4329   2.406   0.015   3.177
 1441TIP3    H2 4330   2.511   0.026   3.068
 1442TIP3   OH2 4331   3.001   0.147   2.890
 1442TIP3    H1 4332   2.944   0.214   2.852
 1442TIP3    H2 4333   3.052   0.114   2.816
 1443TIP3   OH2 4334   3.179   0.433   3.989
 1443TIP3    H1 4335   3.159   0.356   4.042
 1443TIP3    H2 4336   3.274   0.444   3.997
 1444TIP3   OH2 4337   3.168   0.189   3.112
 1444TIP3    H1 4338   3.092   0.215   3.060
 1444TIP3    H2 4339   3.199   0.109   3.069
 1445TIP3   OH2 4340   2.457   0.210   3.856
 1445TIP3    H1 4341   2.476   0.277   3.921
 1445TIP3    H2 4342   2.448   0.129   3.907
 1446TIP3   OH2 4343   0.361   5.923   2.571
 1446TIP3    H1 4344   0.359   5.877   2.654
 1446TIP3    H2 4345   0.270   5.947   2.554
 1447TIP3   OH2 4346   6.390   5.844   3.411
 1447TIP3    H1 4347   6.443   5.880   3.482
 1447TIP3    H2 4348   6.439   5.766   3.382
 1448TIP3   OH2 4349   6.373   5.846   3.000
 1448TIP3    H1 4350   6.394   5.877   2.911
 1448TIP3    H2 4351   6.294   5.894   3.024
 1449TIP3   OH2 4352   3.194   0.421   3.508
 1449TIP3    H1 4353   3.218   0.341   3.460
 1449TIP3    H2 4354   3.165   0.389   3.594
 1450TIP3   OH2 4355   0.668   6.109   3.253
 1450TIP3    H1 4356   0.599   6.082   3.313
 1450TIP3    H2 4357   0.729   6.035   3.252
 1451TIP3   OH2 4358   0.093   6.039   3.213
 1451TIP3    H1 4359   0.013   6.084   3.185
 1451TIP3    H2 4360   0.072   5.946   3.207
 1452TIP3   OH2 4361   0.359   6.066   2.909
 1452TIP3    H1 4362   0.450   6.093   2.897
 1452TIP3    H2 4363   0.313   6.100   2.832
 1453TIP3   OH2 4364   2.374   0.014   2.693
 1453TIP3    H1 4365   2.307  -0.038   2.649
 1453TIP3    H2 4366   2.437   0.036   2.624
 1454TIP3   OH2 4367   3.517   1.630   3.648
 1454TIP3    H1 4368   3.516   1.644   3.554
 1454TIP3    H2 4369   3.597   1.675   3.678
 1455TIP3   OH2 4370   2.461   0.744   4.060
 1455TIP3    H1 4371   2.542   0.767   4.105
 1455TIP3    H2 4372   2.393   0.750   4.127
 1456TIP3   OH2 4373   2.921   0.240   3.290
 1456TIP3    H1 4374   2.914   0.152   3.251
 1456TIP3    H2 4375   2.913   0.224   3.384
 1457TIP3   OH2 4376   2.873   0.152   3.538
 1457TIP3    H1 4377   2.782   0.158   3.566
 1457TIP3    H2 4378   2.922   0.132   3.618
 1458TIP3   OH2 4379   2.628   0.479   2.702
 1458TIP3    H1 4380   2.554   0.421   2.683
 1458TIP3    H2 4381   2.608   0.515   2.788
 1459TIP3   OH2 4382   3.524   0.722   3.313
 1459TIP3    H1 4383   3.552   0.772   3.236
 1459TIP3    H2 4384   3.440   0.684   3.287
 1460TIP3   OH2 4385   0.836   5.984   2.526
 1460TIP3    H1 4386   0.884   5.901   2.526
 1460TIP3    H2 4387   0.903   6.051   2.539
 1461TIP3   OH2 4388   3.035   0.804   3.710
 1461TIP3    H1 4389   3.075   0.792   3.796
 1461TIP3    H2 4390   2.993   0.890   3.715
 1462TIP3   OH2 4391   3.151   0.075   2.663
 1462TIP3    H1 4392   3.241   0.108   2.668
 1462TIP3    H2 4393   3.103   0.142   2.614
 1463TIP3   OH2 4394   2.323   0.498   3.359
 1463TIP3    H1 4395   2.358   0.476   3.273
 1463TIP3    H2 4396   2.385   0.459   3.421
 1464TIP3   OH2 4397   2.782   0.634   2.540
 1464TIP3    H1 4398   2.735   0.718   2.539
 1464TIP3    H2 4399   2.727   0.577   2.593
 1465TIP3   OH2 4400   2.207   0.422   3.984
 1465TIP3    H1 4401   2.213   0.404   4.078
 1465TIP3    H2 4402   2.136   0.366   3.953
 1466TIP3   OH2 4403   2.936   0.563   4.011
 1466TIP3    H1 4404   2.871   0.503   3.974
 1466TIP3    H2 4405   3.020   0.524   3.987
 1467TIP3   OH2 4406   3.185   1.079   3.596
 1467TIP3    H1 4407   3.090   1.068   3.605
 1467TIP3    H2 4408   3.212   1.122   3.677
 1468TIP3   OH2 4409   3.600   0.152   2.499
 1468TIP3    H1 4410   3.559   0.094   2.435
 1468TIP3    H2 4411   3.599   0.238   2.458
 1469TIP3   OH2 4412   3.820   1.010   3.574
 1469TIP3    H1 4413   3.725   1.002   3.568
 1469TIP3    H2 4414   3.852   0.976   3.490
 1470TIP3   OH2 4415   3.315   0.950   2.426
 1470TIP3    H1 4416   3.278   0.886   2.487
 1470TIP3    H2 4417   3.320   0.903   2.342
 1471TIP3   OH2 4418   3.286   0.600   3.217
 1471TIP3    H1 4419   3.195   0.577   3.236
 1471TIP3    H2 4420   3.323   0.522   3.176
 1472TIP3   OH2 4421   2.436   0.820   3.013
 1472TIP3    H1 4422   2.435   0.897   2.957
 1472TIP3    H2 4423   2.344   0.803   3.032
 1473TIP3   OH2 4424   2.002   0.106   2.720
 1473TIP3    H1 4425   2.047   0.189   2.740
 1473TIP3    H2 4426   1.924   0.107   2.774
 1474TIP3   OH2 4427   2.548   0.578   2.939
 1474TIP3    H1 4428   2.521   0.667   2.962
 1474TIP3    H2 4429   2.515   0.523   3.011
 1475TIP3   OH2 4430   2.718   1.146   3.472
 1475TIP3    H1 4431   2.754   1.218   3.421
 1475TIP3    H2 4432   2.792   1.112   3.522
 1476TIP3   OH2 4433   2.353   1.049   2.861
 1476TIP3    H1 4434   2.267   1.054   2.903
 1476TIP3    H2 4435   2.387   1.139   2.865
 1477TIP3   OH2 4436   3.081   0.798   3.440
 1477TIP3    H1 4437   3.069   0.794   3.535
 1477TIP3    H2 4438   3.155   0.740   3.423
 1478TIP3   OH2 4439   3.064   0.685   2.310
 1478TIP3    H1 4440   3.115   0.657   2.386
 1478TIP3    H2 4441   2.978   0.646   2.323
 1479TIP3   OH2 4442   3.333   1.313   3.481
 1479TIP3    H1 4443   3.258   1.254   3.487
 1479TIP3    H2 4444   3.310   1.373   3.410
 1480TIP3   OH2 4445   3.392   1.155   2.123
 1480TIP3    H1 4446   3.415   1.220   2.057
 1480TIP3    H2 4447   3.318   1.195   2.170
 1481TIP3   OH2 4448   0.252   6.099   3.996
 1481TIP3    H1 4449   0.159   6.091   4.014
 1481TIP3    H2 4450   0.295   6.068   4.076
 1482TIP3   OH2 4451   3.235   0.600   2.505
 1482TIP3    H1 4452   3.221   0.547   2.584
 1482TIP3    H2 4453   3.330   0.609   2.499
 1483TIP3   OH2 4454   2.143   1.030   3.632
 1483TIP3    H1 4455   2.197   0.966   3.678
 1483TIP3    H2 4456   2.164   1.114   3.674
 1484TIP3   OH2 4457   2.428   0.654   2.321
 1484TIP3    H1 4458   2.435   0.562   2.294
 1484TIP3    H2 4459   2.405   0.650   2.414
 1485TIP3   OH2 4460   2.366   0.669   2.592
 1485TIP3    H1 4461   2.438   0.640   2.649
 1485TIP3    H2 4462   2.367   0.765   2.600
 1486TIP3   OH2 4463   2.099   0.358   2.799
 1486TIP3    H1 4464   2.035   0.405   2.853
 1486TIP3    H2 4465   2.121   0.419   2.729
 1487TIP3   OH2 4466   4.114   0.124   2.426
 1487TIP3    H1 4467   4.171   0.188   2.384
 1487TIP3    H2 4468   4.164   0.043   2.426
 1488TIP3   OH2 4469   0.904   5.979   2.895
 1488TIP3    H1 4470   0.875   5.968   2.805
 1488TIP3    H2 4471   0.972   6.045   2.892
 1489TIP3   OH2 4472   2.638   0.863   2.539
 1489TIP3    H1 4473   2.552   0.886   2.574
 1489TIP3    H2 4474   2.659   0.935   2.479
 1490TIP3   OH2 4475   2.790  -0.004   2.983
 1490TIP3    H1 4476   2.870   0.031   2.943
 1490TIP3    H2 4477   2.807  -0.002   3.077
 1491TIP3   OH2 4478   3.129   0.322   3.747
 1491TIP3    H1 4479   3.145   0.361   3.833
 1491TIP3    H2 4480   3.074   0.246   3.765
 1492TIP3   OH2 4481   2.383   0.941   2.610
 1492TIP3    H1 4482   2.360   1.011   2.548
 1492TIP3    H2 4483   2.370   0.981   2.696
 1493TIP3   OH2 4484   0.291   5.802   2.818
 1493TIP3    H1 4485   0.292   5.884   2.867
 1493TIP3    H2 4486   0.279   5.735   2.886
 1494TIP3   OH2 4487   3.713   0.177   3.756
 1494TIP3    H1 4488   3.617   0.182   3.754
 1494TIP3    H2 4489   3.734   0.104   3.698
 1495TIP3   OH2 4490   3.379   0.359   3.116
 1495TIP3    H1 4491   3.301   0.304   3.124
 1495TIP3    H2 4492   3.444   0.316   3.171
 1496TIP3   OH2 4493   2.114   0.549   2.592
 1496TIP3    H1 4494   2.184   0.614   2.601
 1496TIP3    H2 4495   2.148   0.487   2.528
 1497TIP3   OH2 4496   6.381   5.963   2.750
 1497TIP3    H1 4497   6.375   6.058   2.741
 1497TIP3    H2 4498   6.377   5.929   2.660
 1498TIP3   OH2 4499   3.360   1.303   3.062
 1498TIP3    H1 4500   3.317   1.351   2.991
 1498TIP3    H2 4501   3.454   1.315   3.045
 1499TIP3   OH2 4502   1.954   0.797   2.984
 1499TIP3    H1 4503   1.906   0.832   3.059
 1499TIP3    H2 4504   1.915   0.840   2.908
 1500TIP3   OH2 4505   2.140   1.336   4.051
 1500TIP3    H1 4506   2.223   1.341   4.099
 1500TIP3    H2 4507   2.121   1.242   4.047
 1501TIP3   OH2 4508   2.609   1.267   4.097
 1501TIP3    H1 4509   2.703   1.251   4.107
 1501TIP3    H2 4510   2.582   1.210   4.026
 1502TIP3   OH2 4511   2.586   0.853   2.218
 1502TIP3    H1 4512   2.537   0.782   2.260
 1502TIP3    H2 4513   2.660   0.810   2.175
 1503TIP3   OH2 4514   3.244   1.196   3.838
 1503TIP3    H1 4515   3.248   1.126   3.904
 1503TIP3    H2 4516   3.318   1.252   3.858
 1504TIP3   OH2 4517   3.023   0.897   2.140
 1504TIP3    H1 4518   3.053   0.829   2.200
 1504TIP3    H2 4519   3.082   0.889   2.064
 1505TIP3   OH2 4520   2.254   0.733   4.248
 1505TIP3    H1 4521   2.276   0.640   4.256
 1505TIP3    H2 4522   2.169   0.735   4.205
 1506TIP3   OH2 4523   2.242   0.357   2.449
 1506TIP3    H1 4524   2.295   0.336   2.526
 1506TIP3    H2 4525   2.305   0.368   2.378
 1507TIP3   OH2 4526   2.870   0.831   4.024
 1507TIP3    H1 4527   2.826   0.849   3.941
 1507TIP3    H2 4528   2.902   0.741   4.015
 1508TIP3   OH2 4529   2.796   0.578   2.271
 1508TIP3    H1 4530   2.778   0.591   2.364
 1508TIP3    H2 4531   2.784   0.484   2.257
 1509TIP3   OH2 4532   3.350   0.852   3.630
 1509TIP3    H1 4533   3.428   0.886   3.586
 1509TIP3    H2 4534   3.283   0.918   3.615
 1510TIP3   OH2 4535   2.379   0.478   4.244
 1510TIP3    H1 4536   2.458   0.464   4.192
 1510TIP3    H2 4537   2.412   0.500   4.332
 1511TIP3   OH2 4538   2.422   0.303   2.656
 1511TIP3    H1 4539   2.397   0.258   2.737
 1511TIP3    H2 4540   2.467   0.235   2.605
 1512TIP3   OH2 4541   2.732   0.395   3.914
 1512TIP3    H1 4542   2.644   0.434   3.914
 1512TIP3    H2 4543   2.766   0.412   3.826
 1513TIP3   OH2 4544   2.545   0.113   2.498
 1513TIP3    H1 4545   2.518   0.110   2.406
 1513TIP3    H2 4546   2.641   0.112   2.495
 1514TIP3   OH2 4547   3.236   0.748   4.013
 1514TIP3    H1 4548   3.304   0.705   3.961
 1514TIP3    H2 4549   3.223   0.692   4.089
 1515TIP3   OH2 4550   3.366   0.402   2.174
 1515TIP3    H1 4551   3.344   0.359   2.091
 1515TIP3    H2 4552   3.337   0.492   2.163
 1516TIP3   OH2 4553   2.825   0.179   4.043
 1516TIP3    H1 4554   2.791   0.108   3.988
 1516TIP3    H2 4555   2.800   0.259   3.998
 1517TIP3   OH2 4556   0.556   6.140   3.857
 1517TIP3    H1 4557   0.597   6.171   3.776
 1517TIP3    H2 4558   0.505   6.064   3.831
 1518TIP3   OH2 4559   2.855   0.463   3.687
 1518TIP3    H1 4560   2.946   0.473   3.656
 1518TIP3    H2 4561   2.806   0.529   3.638
 1519TIP3   OH2 4562   3.451   0.459   4.042
 1519TIP3    H1 4563   3.462   0.390   4.107
 1519TIP3    H2 4564   3.530   0.513   4.050
 1520TIP3   OH2 4565   3.474   0.699   3.815
 1520TIP3    H1 4566   3.416   0.756   3.763
 1520TIP3    H2 4567   3.562   0.717   3.780
 1521TIP3   OH2 4568   2.716   0.295   4.272
 1521TIP3    H1 4569   2.633   0.246   4.277
 1521TIP3    H2 4570   2.757   0.264   4.192
 1522TIP3   OH2 4571   3.095   0.200   4.109
 1522TIP3    H1 4572   3.079   0.216   4.202
 1522TIP3    H2 4573   3.008   0.184   4.073
 1523TIP3   OH2 4574   3.343   0.177   3.995
 1523TIP3    H1 4575   3.259   0.172   4.041
 1523TIP3    H2 4576   3.407   0.148   4.059
 1524TIP3   OH2 4577   2.530   0.077   4.308
 1524TIP3    H1 4578   2.608   0.022   4.314
 1524TIP3    H2 4579   2.528   0.126   4.390
 1525TIP3   OH2 4580   2.370   1.145   2.422
 1525TIP3    H1 4581   2.461   1.129   2.398
 1525TIP3    H2 4582   2.334   1.194   2.349
 1526TIP3   OH2 4583   1.843   0.524   2.610
 1526TIP3    H1 4584   1.936   0.544   2.606
 1526TIP3    H2 4585   1.836   0.435   2.574
 1527TIP3   OH2 4586   1.752   1.120   3.061
 1527TIP3    H1 4587   1.687   1.065   3.017
 1527TIP3    H2 4588   1.796   1.060   3.121
 1528TIP3   OH2 4589   1.889   0.956   3.236
 1528TIP3    H1 4590   1.879   0.890   3.305
 1528TIP3    H2 4591   1.941   1.025   3.278
 1529TIP3   OH2 4592   3.631   1.357   3.044
 1529TIP3    H1 4593   3.648   1.390   3.132
 1529TIP3    H2 4594   3.680   1.415   2.987
 1530TIP3   OH2 4595   3.649   1.394   3.325
 1530TIP3    H1 4596   3.599   1.312   3.320
 1530TIP3    H2 4597   3.719   1.376   3.388
 1531TIP3   OH2 4598   3.695   1.085   3.896
 1531TIP3    H1 4599   3.623   1.092   3.958
 1531TIP3    H2 4600   3.738   1.171   3.900
 1532TIP3   OH2 4601   3.513   0.606   2.502
 1532TIP3    H1 4602   3.577   0.672   2.475
 1532TIP3    H2 4603   3.548   0.571   2.584
 1533TIP3   OH2 4604   3.630   0.492   2.718
 1533TIP3    H1 4605   3.567   0.450   2.776
 1533TIP3    H2 4606   3.695   0.530   2.776
 1534TIP3   OH2 4607   3.697   0.862   3.142
 1534TIP3    H1 4608   3.748   0.795   3.097
 1534TIP3    H2 4609   3.693   0.935   3.080
 1535TIP3   OH2 4610   3.508   1.153   3.332
 1535TIP3    H1 4611   3.440   1.195   3.384
 1535TIP3    H2 4612   3.461   1.110   3.261
 1536TIP3   OH2 4613   3.573   0.385   2.353
 1536TIP3    H1 4614   3.501   0.372   2.291
 1536TIP3    H2 4615   3.545   0.459   2.406
 1537TIP3   OH2 4616   3.435   0.060   2.298
 1537TIP3    H1 4617   3.404   0.072   2.208
 1537TIP3    H2 4618   3.375  -0.003   2.336
 1538TIP3   OH2 4619   3.448   0.342   2.852
 1538TIP3    H1 4620   3.446   0.249   2.830
 1538TIP3    H2 4621   3.426   0.346   2.945
 1539TIP3   OH2 4622   2.067   0.393   3.608
 1539TIP3    H1 4623   2.058   0.354   3.521
 1539TIP3    H2 4624   2.161   0.394   3.625
 1540TIP3   OH2 4625   3.719   0.761   3.710
 1540TIP3    H1 4626   3.784   0.694   3.686
 1540TIP3    H2 4627   3.735   0.832   3.648
 1541TIP3   OH2 4628   3.895   0.556   3.694
 1541TIP3    H1 4629   3.825   0.515   3.745
 1541TIP3    H2 4630   3.975   0.513   3.724
 1542TIP3   OH2 4631   1.103   6.002   2.408
 1542TIP3    H1 4632   1.132   5.977   2.496
 1542TIP3    H2 4633   1.140   5.936   2.350
 1543TIP3   OH2 4634   3.424   0.102   2.707
 1543TIP3    H1 4635   3.429   0.006   2.703
 1543TIP3    H2 4636   3.484   0.132   2.639
 1544TIP3   OH2 4637   3.594   0.253   3.249
 1544TIP3    H1 4638   3.674   0.278   3.203
 1544TIP3    H2 4639   3.599   0.298   3.333
 1545TIP3   OH2 4640   3.649   0.384   3.485
 1545TIP3    H1 4641   3.578   0.419   3.539
 1545TIP3    H2 4642   3.688   0.462   3.444
 1546TIP3   OH2 4643   2.260   0.067   4.256
 1546TIP3    H1 4644   2.355   0.072   4.266
 1546TIP3    H2 4645   2.230   0.018   4.333
 1547TIP3   OH2 4646   0.077   5.913   3.610
 1547TIP3    H1 4647   0.132   5.840   3.638
 1547TIP3    H2 4648   0.137   5.986   3.599
 1548TIP3   OH2 4649   2.046   0.053   3.665
 1548TIP3    H1 4650   2.096   0.047   3.584
 1548TIP3    H2 4651   2.094   0.117   3.718
 1549TIP3   OH2 4652   3.198   1.259   2.689
 1549TIP3    H1 4653   3.253   1.250   2.611
 1549TIP3    H2 4654   3.237   1.331   2.738
 1550TIP3   OH2 4655   2.298   1.053   4.070
 1550TIP3    H1 4656   2.204   1.039   4.059
 1550TIP3    H2 4657   2.312   1.050   4.164
 1551TIP3   OH2 4658   2.488   1.102   3.619
 1551TIP3    H1 4659   2.436   1.175   3.586
 1551TIP3    H2 4660   2.574   1.112   3.577
 1552TIP3   OH2 4661   2.905   1.335   3.754
 1552TIP3    H1 4662   2.943   1.328   3.842
 1552TIP3    H2 4663   2.968   1.389   3.706
 1553TIP3   OH2 4664   3.091   1.493   3.626
 1553TIP3    H1 4665   3.157   1.439   3.581
 1553TIP3    H2 4666   3.142   1.550   3.682
 1554TIP3   OH2 4667   2.154   1.346   3.663
 1554TIP3    H1 4668   2.065   1.367   3.635
 1554TIP3    H2 4669   2.175   1.413   3.729
 1555TIP3   OH2 4670   2.383   1.331   3.510
 1555TIP3    H1 4671   2.300   1.340   3.557
 1555TIP3    H2 4672   2.363   1.361   3.421
 1556TIP3   OH2 4673   2.806   1.348   3.301
 1556TIP3    H1 4674   2.735   1.363   3.239
 1556TIP3    H2 4675   2.818   1.432   3.345
 1557TIP3   OH2 4676   3.073   1.291   3.353
 1557TIP3    H1 4677   2.980   1.305   3.336
 1557TIP3    H2 4678   3.118   1.361   3.306
 1558TIP3   OH2 4679   3.282   1.479   3.261
 1558TIP3    H1 4680   3.269   1.564   3.218
 1558TIP3    H2 4681   3.308   1.420   3.191
 1559TIP3   OH2 4682   2.062   1.130   3.383
 1559TIP3    H1 4683   2.085   1.106   3.473
 1559TIP3    H2 4684   2.135   1.098   3.331
 1560TIP3   OH2 4685   2.266   1.014   3.246
 1560TIP3    H1 4686   2.278   0.931   3.292
 1560TIP3    H2 4687   2.352   1.055   3.246
 1561TIP3   OH2 4688   2.534   1.101   3.264
 1561TIP3    H1 4689   2.554   1.008   3.250
 1561TIP3    H2 4690   2.584   1.125   3.341
 1562TIP3   OH2 4691   1.838   0.922   2.770
 1562TIP3    H1 4692   1.753   0.889   2.738
 1562TIP3    H2 4693   1.841   1.012   2.739
 1563TIP3   OH2 4694   2.631   1.082   2.360
 1563TIP3    H1 4695   2.715   1.111   2.323
 1563TIP3    H2 4696   2.605   1.010   2.304
 1564TIP3   OH2 4697   3.348   1.219   2.456
 1564TIP3    H1 4698   3.340   1.124   2.449
 1564TIP3    H2 4699   3.299   1.253   2.381
 1565TIP3   OH2 4700   1.933   0.925   2.421
 1565TIP3    H1 4701   1.937   0.945   2.514
 1565TIP3    H2 4702   2.017   0.882   2.402
 1566TIP3   OH2 4703   3.558   1.357   3.644
 1566TIP3    H1 4704   3.482   1.326   3.595
 1566TIP3    H2 4705   3.542   1.450   3.658
 1567TIP3   OH2 4706   4.815   0.736   2.396
 1567TIP3    H1 4707   4.786   0.827   2.382
 1567TIP3    H2 4708   4.746   0.683   2.356
 1568TIP3   OH2 4709   4.818   0.748   2.774
 1568TIP3    H1 4710   4.858   0.724   2.858
 1568TIP3    H2 4711   4.815   0.666   2.725
 1569TIP3   OH2 4712   4.137   0.632   3.155
 1569TIP3    H1 4713   4.166   0.558   3.209
 1569TIP3    H2 4714   4.189   0.706   3.187
 1570TIP3   OH2 4715   5.088   1.047   2.480
 1570TIP3    H1 4716   5.079   0.986   2.553
 1570TIP3    H2 4717   5.115   1.129   2.521
 1571TIP3   OH2 4718   4.117   1.032   2.859
 1571TIP3    H1 4719   4.099   0.939   2.870
 1571TIP3    H2 4720   4.212   1.038   2.852
 1572TIP3   OH2 4721   3.793   0.284   2.652
 1572TIP3    H1 4722   3.742   0.362   2.675
 1572TIP3    H2 4723   3.729   0.224   2.615
 1573TIP3   OH2 4724   3.866   0.580   2.832
 1573TIP3    H1 4725   3.924   0.507   2.856
 1573TIP3    H2 4726   3.926   0.651   2.812
 1574TIP3   OH2 4727   4.742   1.488   2.492
 1574TIP3    H1 4728   4.776   1.418   2.435
 1574TIP3    H2 4729   4.733   1.447   2.578
 1575TIP3   OH2 4730   4.636   0.962   2.824
 1575TIP3    H1 4731   4.680   0.885   2.789
 1575TIP3    H2 4732   4.708   1.017   2.856
 1576TIP3   OH2 4733   5.586   0.299   2.888
 1576TIP3    H1 4734   5.657   0.361   2.907
 1576TIP3    H2 4735   5.609   0.261   2.803
 1577TIP3   OH2 4736   5.047   0.410   2.881
 1577TIP3    H1 4737   5.139   0.387   2.889
 1577TIP3    H2 4738   5.031   0.415   2.787
 1578TIP3   OH2 4739   4.393   0.162   2.782
 1578TIP3    H1 4740   4.334   0.227   2.745
 1578TIP3    H2 4741   4.335   0.097   2.822
 1579TIP3   OH2 4742   5.079   0.249   2.421
 1579TIP3    H1 4743   5.168   0.220   2.440
 1579TIP3    H2 4744   5.090   0.312   2.349
 1580TIP3   OH2 4745   4.037   0.396   2.926
 1580TIP3    H1 4746   4.120   0.365   2.963
 1580TIP3    H2 4747   3.993   0.317   2.896
 1581TIP3   OH2 4748   4.471   0.510   2.724
 1581TIP3    H1 4749   4.538   0.501   2.657
 1581TIP3    H2 4750   4.407   0.442   2.704
 1582TIP3   OH2 4751   5.720   0.513   3.013
 1582TIP3    H1 4752   5.639   0.561   2.998
 1582TIP3    H2 4753   5.725   0.504   3.108
 1583TIP3   OH2 4754   4.335   0.135   3.235
 1583TIP3    H1 4755   4.320   0.140   3.141
 1583TIP3    H2 4756   4.257   0.174   3.274
 1584TIP3   OH2 4757   4.687   0.952   2.263
 1584TIP3    H1 4758   4.765   0.990   2.221
 1584TIP3    H2 4759   4.636   1.026   2.293
 1585TIP3   OH2 4760   4.474   0.890   3.037
 1585TIP3    H1 4761   4.417   0.958   3.075
 1585TIP3    H2 4762   4.522   0.935   2.967
 1586TIP3   OH2 4763   5.281   0.280   2.704
 1586TIP3    H1 4764   5.325   0.219   2.762
 1586TIP3    H2 4765   5.338   0.357   2.702
 1587TIP3   OH2 4766   4.265   0.275   3.006
 1587TIP3    H1 4767   4.323   0.335   3.053
 1587TIP3    H2 4768   4.323   0.229   2.945
 1588TIP3   OH2 4769   4.314   1.086   3.145
 1588TIP3    H1 4770   4.299   1.175   3.114
 1588TIP3    H2 4771   4.238   1.067   3.199
 1589TIP3   OH2 4772   3.706   0.778   2.387
 1589TIP3    H1 4773   3.655   0.795   2.308
 1589TIP3    H2 4774   3.720   0.865   2.425
 1590TIP3   OH2 4775   5.137   1.288   2.624
 1590TIP3    H1 4776   5.052   1.280   2.665
 1590TIP3    H2 4777   5.136   1.374   2.581
 1591TIP3   OH2 4778   4.841   1.318   2.293
 1591TIP3    H1 4779   4.887   1.235   2.277
 1591TIP3    H2 4780   4.901   1.385   2.262
 1592TIP3   OH2 4781   4.962   1.077   2.233
 1592TIP3    H1 4782   5.004   1.021   2.168
 1592TIP3    H2 4783   5.014   1.063   2.313
 1593TIP3   OH2 4784   5.364   1.190   2.974
 1593TIP3    H1 4785   5.355   1.115   2.915
 1593TIP3    H2 4786   5.349   1.266   2.919
 1594TIP3   OH2 4787   4.650   0.578   2.230
 1594TIP3    H1 4788   4.562   0.580   2.192
 1594TIP3    H2 4789   4.709   0.589   2.155
 1595TIP3   OH2 4790   4.624   0.390   1.962
 1595TIP3    H1 4791   4.692   0.450   1.993
 1595TIP3    H2 4792   4.670   0.328   1.905
 1596TIP3   OH2 4793   5.554   0.841   2.827
 1596TIP3    H1 4794   5.472   0.890   2.826
 1596TIP3    H2 4795   5.591   0.853   2.739
 1597TIP3   OH2 4796   5.012   0.680   2.209
 1597TIP3    H1 4797   4.958   0.701   2.285
 1597TIP3    H2 4798   5.096   0.654   2.246
 1598TIP3   OH2 4799   5.223   0.757   3.108
 1598TIP3    H1 4800   5.242   0.824   3.174
 1598TIP3    H2 4801   5.160   0.798   3.050
 1599TIP3   OH2 4802   4.247   0.650   2.630
 1599TIP3    H1 4803   4.203   0.572   2.596
 1599TIP3    H2 4804   4.327   0.616   2.671
 1600TIP3   OH2 4805   4.381   1.074   2.750
 1600TIP3    H1 4806   4.366   1.052   2.658
 1600TIP3    H2 4807   4.469   1.042   2.769
 1601TIP3   OH2 4808   4.382   0.643   2.960
 1601TIP3    H1 4809   4.425   0.621   2.877
 1601TIP3    H2 4810   4.413   0.731   2.981
 1602TIP3   OH2 4811   4.903   1.279   2.760
 1602TIP3    H1 4812   4.888   1.361   2.805
 1602TIP3    H2 4813   4.884   1.211   2.825
 1603TIP3   OH2 4814   4.516   1.188   3.305
 1603TIP3    H1 4815   4.459   1.248   3.353
 1603TIP3    H2 4816   4.456   1.137   3.250
 1604TIP3   OH2 4817   4.841   0.556   2.033
 1604TIP3    H1 4818   4.905   0.607   2.084
 1604TIP3    H2 4819   4.870   0.565   1.943
 1605TIP3   OH2 4820   4.265   0.753   3.410
 1605TIP3    H1 4821   4.275   0.839   3.450
 1605TIP3    H2 4822   4.174   0.729   3.426
 1606TIP3   OH2 4823   4.588   1.207   2.304
 1606TIP3    H1 4824   4.673   1.252   2.308
 1606TIP3    H2 4825   4.531   1.268   2.258
 1607TIP3   OH2 4826   4.309   1.349   3.391
 1607TIP3    H1 4827   4.280   1.359   3.301
 1607TIP3    H2 4828   4.229   1.331   3.440
 1608TIP3   OH2 4829   4.114   0.492   2.394
 1608TIP3    H1 4830   4.028   0.464   2.427
 1608TIP3    H2 4831   4.152   0.412   2.357
 1609TIP3   OH2 4832   5.177   1.137   1.642
 1609TIP3    H1 4833   5.174   1.230   1.619
 1609TIP3    H2 4834   5.269   1.112   1.627
 1610TIP3   OH2 4835   3.895   0.897   3.338
 1610TIP3    H1 4836   3.824   0.882   3.275
 1610TIP3    H2 4837   3.925   0.808   3.360
 1611TIP3   OH2 4838   3.742   1.095   2.981
 1611TIP3    H1 4839   3.835   1.113   2.993
 1611TIP3    H2 4840   3.698   1.172   3.017
 1612TIP3   OH2 4841   5.601   1.546   3.034
 1612TIP3    H1 4842   5.606   1.451   3.046
 1612TIP3    H2 4843   5.520   1.571   3.079
 1613TIP3   OH2 4844   4.707   1.324   3.161
 1613TIP3    H1 4845   4.705   1.415   3.190
 1613TIP3    H2 4846   4.639   1.281   3.213
 1614TIP3   OH2 4847   4.486   1.436   2.122
 1614TIP3    H1 4848   4.439   1.416   2.041
 1614TIP3    H2 4849   4.451   1.521   2.150
 1615TIP3   OH2 4850   3.918   1.288   2.497
 1615TIP3    H1 4851   3.963   1.282   2.582
 1615TIP3    H2 4852   3.864   1.209   2.493
 1616TIP3   OH2 4853   4.683   1.360   1.750
 1616TIP3    H1 4854   4.733   1.286   1.715
 1616TIP3    H2 4855   4.718   1.373   1.839
 1617TIP3   OH2 4856   4.738   1.406   2.019
 1617TIP3    H1 4857   4.653   1.409   2.062
 1617TIP3    H2 4858   4.799   1.380   2.088
 1618TIP3   OH2 4859   5.520   0.687   3.337
 1618TIP3    H1 4860   5.425   0.699   3.330
 1618TIP3    H2 4861   5.535   0.596   3.312
 1619TIP3   OH2 4862   4.099   1.079   3.313
 1619TIP3    H1 4863   4.145   1.072   3.397
 1619TIP3    H2 4864   4.025   1.018   3.321
 1620TIP3   OH2 4865   5.272   0.538   3.268
 1620TIP3    H1 4866   5.231   0.530   3.354
 1620TIP3    H2 4867   5.236   0.619   3.232
 1621TIP3   OH2 4868   4.934   0.562   1.781
 1621TIP3    H1 4869   4.888   0.547   1.698
 1621TIP3    H2 4870   5.019   0.598   1.755
 1622TIP3   OH2 4871   4.434   0.442   3.132
 1622TIP3    H1 4872   4.383   0.452   3.213
 1622TIP3    H2 4873   4.410   0.518   3.079
 1623TIP3   OH2 4874   4.273   0.345   2.624
 1623TIP3    H1 4875   4.187   0.307   2.642
 1623TIP3    H2 4876   4.292   0.319   2.534
 1624TIP3   OH2 4877   4.817   0.415   2.372
 1624TIP3    H1 4878   4.755   0.474   2.329
 1624TIP3    H2 4879   4.858   0.367   2.300
 1625TIP3   OH2 4880   4.982   0.695   3.473
 1625TIP3    H1 4881   4.959   0.618   3.525
 1625TIP3    H2 4882   5.076   0.707   3.487
 1626TIP3   OH2 4883   4.980   0.449   2.595
 1626TIP3    H1 4884   4.910   0.470   2.534
 1626TIP3    H2 4885   5.013   0.364   2.566
 1627TIP3   OH2 4886   4.272   0.471   3.350
 1627TIP3    H1 4887   4.275   0.552   3.400
 1627TIP3    H2 4888   4.262   0.402   3.416
 1628TIP3   OH2 4889   4.357   0.078   2.054
 1628TIP3    H1 4890   4.354  -0.012   2.087
 1628TIP3    H2 4891   4.266   0.098   2.031
 1629TIP3   OH2 4892   1.708   6.057   2.789
 1629TIP3    H1 4893   1.758   6.010   2.856
 1629TIP3    H2 4894   1.632   6.091   2.836
 1630TIP3   OH2 4895   3.856   0.022   2.507
 1630TIP3    H1 4896   3.894   0.056   2.426
 1630TIP3    H2 4897   3.771   0.067   2.514
 1631TIP3   OH2 4898   4.951   0.647   2.989
 1631TIP3    H1 4899   5.036   0.607   2.972
 1631TIP3    H2 4900   4.942   0.642   3.085
 1632TIP3   OH2 4901   4.657   0.224   2.714
 1632TIP3    H1 4902   4.577   0.198   2.760
 1632TIP3    H2 4903   4.701   0.142   2.694
 1633TIP3   OH2 4904   4.049   0.205   2.678
 1633TIP3    H1 4905   3.960   0.240   2.677
 1633TIP3    H2 4906   4.051   0.141   2.607
 1634TIP3   OH2 4907   4.345   0.271   2.372
 1634TIP3    H1 4908   4.440   0.262   2.375
 1634TIP3    H2 4909   4.322   0.258   2.280
 1635TIP3   OH2 4910   4.161   0.293   2.168
 1635TIP3    H1 4911   4.112   0.229   2.116
 1635TIP3    H2 4912   4.225   0.330   2.107
 1636TIP3   OH2 4913   5.311   1.889   3.131
 1636TIP3    H1 4914   5.307   1.910   3.038
 1636TIP3    H2 4915   5.389   1.936   3.163
 1637TIP3   OH2 4916   4.260   0.997   3.545
 1637TIP3    H1 4917   4.340   1.020   3.594
 1637TIP3    H2 4918   4.191   1.000   3.611
 1638TIP3   OH2 4919   4.763   0.451   2.810
 1638TIP3    H1 4920   4.740   0.376   2.756
 1638TIP3    H2 4921   4.678   0.485   2.840
 1639TIP3   OH2 4922   4.699   0.450   3.076
 1639TIP3    H1 4923   4.606   0.426   3.079
 1639TIP3    H2 4924   4.705   0.529   3.131
 1640TIP3   OH2 4925   5.321   0.982   2.798
 1640TIP3    H1 4926   5.355   1.031   2.723
 1640TIP3    H2 4927   5.236   0.949   2.769
 1641TIP3   OH2 4928   4.817   0.095   2.012
 1641TIP3    H1 4929   4.745   0.071   2.071
 1641TIP3    H2 4930   4.854   0.175   2.052
 1642TIP3   OH2 4931   4.827   1.053   3.202
 1642TIP3    H1 4932   4.873   1.047   3.285
 1642TIP3    H2 4933   4.786   1.139   3.203
 1643TIP3   OH2 4934   4.946   0.322   2.133
 1643TIP3    H1 4935   5.040   0.340   2.134
 1643TIP3    H2 4936   4.908   0.398   2.089
 1644TIP3   OH2 4937   4.110   0.746   2.862
 1644TIP3    H1 4938   4.161   0.722   2.785
 1644TIP3    H2 4939   4.151   0.698   2.934
 1645TIP3   OH2 4940   4.563   0.879   2.021
 1645TIP3    H1 4941   4.514   0.961   2.014
 1645TIP3    H2 4942   4.600   0.880   2.109
 1646TIP3   OH2 4943   4.010   0.671   3.465
 1646TIP3    H1 4944   4.016   0.662   3.560
 1646TIP3    H2 4945   3.932   0.620   3.441
 1647TIP3   OH2 4946   4.734   0.820   3.497
 1647TIP3    H1 4947   4.669   0.760   3.461
 1647TIP3    H2 4948   4.819   0.780   3.475
 1648TIP3   OH2 4949   4.979   1.323   3.089
 1648TIP3    H1 4950   4.884   1.321   3.097
 1648TIP3    H2 4951   5.008   1.373   3.166
 1649TIP3   OH2 4952   5.392   0.400   1.991
 1649TIP3    H1 4953   5.346   0.338   1.934
 1649TIP3    H2 4954   5.390   0.483   1.942
 1650TIP3   OH2 4955   5.611   1.260   3.066
 1650TIP3    H1 4956   5.516   1.252   3.063
 1650TIP3    H2 4957   5.641   1.233   2.980
 1651TIP3   OH2 4958   5.103   1.206   1.902
 1651TIP3    H1 4959   5.072   1.130   1.951
 1651TIP3    H2 4960   5.124   1.172   1.815
 1652TIP3   OH2 4961   5.080   0.866   2.712
 1652TIP3    H1 4962   4.988   0.845   2.726
 1652TIP3    H2 4963   5.116   0.788   2.669
 1653TIP3   OH2 4964   4.231   1.057   2.477
 1653TIP3    H1 4965   4.235   1.135   2.421
 1653TIP3    H2 4966   4.150   1.067   2.527
 1654TIP3   OH2 4967   3.799   0.393   2.203
 1654TIP3    H1 4968   3.830   0.483   2.210
 1654TIP3    H2 4969   3.718   0.391   2.255
 1655TIP3   OH2 4970   4.240   0.789   2.390
 1655TIP3    H1 4971   4.254   0.884   2.391
 1655TIP3    H2 4972   4.264   0.760   2.478
 1656TIP3   OH2 4973   4.516   1.404   2.958
 1656TIP3    H1 4974   4.552   1.477   2.908
 1656TIP3    H2 4975   4.590   1.372   3.010
 1657TIP3   OH2 4976   4.150   1.299   2.344
 1657TIP3    H1 4977   4.064   1.306   2.386
 1657TIP3    H2 4978   4.185   1.388   2.347
 1658TIP3   OH2 4979   4.877   1.054   2.930
 1658TIP3    H1 4980   4.863   1.050   3.025
 1658TIP3    H2 4981   4.968   1.027   2.918
 1659TIP3   OH2 4982   4.874   0.934   1.806
 1659TIP3    H1 4983   4.920   0.918   1.888
 1659TIP3    H2 4984   4.785   0.902   1.821
 1660TIP3   OH2 4985   5.126   1.570   2.966
 1660TIP3    H1 4986   5.048   1.514   2.968
 1660TIP3    H2 4987   5.109   1.632   2.895
 1661TIP3   OH2 4988   5.188   1.412   1.613
 1661TIP3    H1 4989   5.219   1.475   1.549
 1661TIP3    H2 4990   5.113   1.455   1.654
 1662TIP3   OH2 4991   4.232   0.274   3.546
 1662TIP3    H1 4992   4.154   0.221   3.559
 1662TIP3    H2 4993   4.298   0.234   3.602
 1663TIP3   OH2 4994   5.038   0.891   2.031
 1663TIP3    H1 4995   5.024   0.817   2.090
 1663TIP3    H2 4996   5.131   0.885   2.007
 1664TIP3   OH2 4997   3.947   1.283   3.115
 1664TIP3    H1 4998   3.996   1.219   3.167
 1664TIP3    H2 4999   3.958   1.366   3.162
 1665TIP3   OH2 5000   4.234   0.914   1.803
 1665TIP3    H1 5001   4.234   0.822   1.775
 1665TIP3    H2 5002   4.257   0.911   1.896
 1666TIP3   OH2 5003   3.934   0.686   2.272
 1666TIP3    H1 5004   3.860   0.704   2.329
 1666TIP3    H2 5005   3.915   0.735   2.192
 1667TIP3   OH2 5006   4.893   0.245   3.076
 1667TIP3    H1 5007   4.970   0.271   3.126
 1667TIP3    H2 5008   4.892   0.150   3.080
 1668TIP3   OH2 5009   4.851   0.120   2.352
 1668TIP3    H1 5010   4.872   0.032   2.322
 1668TIP3    H2 5011   4.936   0.158   2.375
 1669TIP3   OH2 5012   4.417   1.106   2.015
 1669TIP3    H1 5013   4.331   1.124   2.053
 1669TIP3    H2 5014   4.441   1.187   1.969
 1670TIP3   OH2 5015   4.606   0.242   2.446
 1670TIP3    H1 5016   4.687   0.258   2.398
 1670TIP3    H2 5017   4.630   0.254   2.538
 1671TIP3   OH2 5018   4.907   0.584   3.242
 1671TIP3    H1 5019   4.936   0.635   3.317
 1671TIP3    H2 5020   4.880   0.500   3.280
 1672TIP3   OH2 5021   4.168   1.187   2.091
 1672TIP3    H1 5022   4.146   1.258   2.031
 1672TIP3    H2 5023   4.157   1.225   2.178
 1673TIP3   OH2 5024   2.131   6.077   2.361
 1673TIP3    H1 5025   2.198   6.097   2.426
 1673TIP3    H2 5026   2.171   6.009   2.306
 1674TIP3   OH2 5027   5.522   0.437   3.222
 1674TIP3    H1 5028   5.427   0.442   3.236
 1674TIP3    H2 5029   5.537   0.346   3.196
 1675TIP3   OH2 5030   5.177   0.632   2.604
 1675TIP3    H1 5031   5.107   0.567   2.608
 1675TIP3    H2 5032   5.250   0.591   2.651
 1676TIP3   OH2 5033   3.901   0.836   2.046
 1676TIP3    H1 5034   3.919   0.922   2.008
 1676TIP3    H2 5035   3.965   0.778   2.005
 1677TIP3   OH2 5036   3.765   0.117   2.245
 1677TIP3    H1 5037   3.778   0.211   2.233
 1677TIP3    H2 5038   3.799   0.077   2.165
 1678TIP3   OH2 5039   5.155   1.555   2.546
 1678TIP3    H1 5040   5.111   1.603   2.475
 1678TIP3    H2 5041   5.248   1.572   2.532
 1679TIP3   OH2 5042   3.747   1.046   2.470
 1679TIP3    H1 5043   3.699   1.082   2.545
 1679TIP3    H2 5044   3.709   1.091   2.394
 1680TIP3   OH2 5045   3.939   1.593   3.537
 1680TIP3    H1 5046   4.021   1.598   3.585
 1680TIP3    H2 5047   3.919   1.500   3.533
 1681TIP3   OH2 5048   4.406   1.523   3.584
 1681TIP3    H1 5049   4.500   1.507   3.593
 1681TIP3    H2 5050   4.378   1.465   3.513
 1682TIP3   OH2 5051   4.382   1.120   1.697
 1682TIP3    H1 5052   4.335   1.047   1.738
 1682TIP3    H2 5053   4.457   1.078   1.654
 1683TIP3   OH2 5054   5.039   1.452   3.324
 1683TIP3    H1 5055   5.042   1.384   3.391
 1683TIP3    H2 5056   5.114   1.509   3.344
 1684TIP3   OH2 5057   4.814   1.148   1.638
 1684TIP3    H1 5058   4.856   1.082   1.693
 1684TIP3    H2 5059   4.866   1.149   1.557
 1685TIP3   OH2 5060   4.051   0.994   3.731
 1685TIP3    H1 5061   4.068   0.900   3.742
 1685TIP3    H2 5062   3.964   0.999   3.692
 1686TIP3   OH2 5063   4.074   0.631   1.978
 1686TIP3    H1 5064   4.064   0.536   1.987
 1686TIP3    H2 5065   4.130   0.642   1.901
 1687TIP3   OH2 5066   4.669   1.088   3.511
 1687TIP3    H1 5067   4.623   1.107   3.429
 1687TIP3    H2 5068   4.700   0.998   3.501
 1688TIP3   OH2 5069   4.582   0.831   1.751
 1688TIP3    H1 5070   4.564   0.843   1.844
 1688TIP3    H2 5071   4.578   0.737   1.737
 1689TIP3   OH2 5072   5.142   1.096   3.107
 1689TIP3    H1 5073   5.221   1.133   3.067
 1689TIP3    H2 5074   5.078   1.167   3.104
 1690TIP3   OH2 5075   4.178   0.736   3.726
 1690TIP3    H1 5076   4.258   0.695   3.693
 1690TIP3    H2 5077   4.200   0.761   3.816
 1691TIP3   OH2 5078   4.529   0.665   3.387
 1691TIP3    H1 5079   4.441   0.700   3.389
 1691TIP3    H2 5080   4.558   0.677   3.296
 1692TIP3   OH2 5081   4.344   0.392   1.994
 1692TIP3    H1 5082   4.316   0.383   1.903
 1692TIP3    H2 5083   4.439   0.385   1.990
 1693TIP3   OH2 5084   5.030   1.005   3.498
 1693TIP3    H1 5085   5.109   0.970   3.456
 1693TIP3    H2 5086   5.016   0.948   3.574
 1694TIP3   OH2 5087   5.164   0.651   1.653
 1694TIP3    H1 5088   5.145   0.603   1.572
 1694TIP3    H2 5089   5.134   0.740   1.635
 1695TIP3   OH2 5090   4.618   0.455   3.531
 1695TIP3    H1 5091   4.601   0.382   3.471
 1695TIP3    H2 5092   4.592   0.533   3.482
 1696TIP3   OH2 5093   4.536   0.279   3.342
 1696TIP3    H1 5094   4.563   0.335   3.269
 1696TIP3    H2 5095   4.464   0.226   3.307
 1697TIP3   OH2 5096   4.650   0.715   3.149
 1697TIP3    H1 5097   4.736   0.758   3.152
 1697TIP3    H2 5098   4.592   0.780   3.110
 1698TIP3   OH2 5099   5.251   0.709   3.537
 1698TIP3    H1 5100   5.259   0.634   3.596
 1698TIP3    H2 5101   5.336   0.753   3.544
 1699TIP3   OH2 5102   5.282   0.954   3.293
 1699TIP3    H1 5103   5.224   1.012   3.244
 1699TIP3    H2 5104   5.370   0.974   3.260
 1700TIP3   OH2 5105   4.508   0.568   3.755
 1700TIP3    H1 5106   4.448   0.495   3.773
 1700TIP3    H2 5107   4.553   0.542   3.675
 1701TIP3   OH2 5108   4.895   0.469   3.600
 1701TIP3    H1 5109   4.872   0.486   3.691
 1701TIP3    H2 5110   4.813   0.445   3.558
 1702TIP3   OH2 5111   5.147   0.438   3.493
 1702TIP3    H1 5112   5.060   0.433   3.535
 1702TIP3    H2 5113   5.203   0.384   3.550
 1703TIP3   OH2 5114   4.373   0.334   3.804
 1703TIP3    H1 5115   4.439   0.274   3.839
 1703TIP3    H2 5116   4.337   0.378   3.881
 1704TIP3   OH2 5117   4.160   1.391   1.902
 1704TIP3    H1 5118   4.254   1.381   1.885
 1704TIP3    H2 5119   4.128   1.445   1.829
 1705TIP3   OH2 5120   3.634   0.783   2.104
 1705TIP3    H1 5121   3.726   0.805   2.084
 1705TIP3    H2 5122   3.621   0.698   2.062
 1706TIP3   OH2 5123   3.552   1.377   2.546
 1706TIP3    H1 5124   3.486   1.324   2.502
 1706TIP3    H2 5125   3.595   1.316   2.606
 1707TIP3   OH2 5126   3.692   1.212   2.719
 1707TIP3    H1 5127   3.678   1.145   2.787
 1707TIP3    H2 5128   3.741   1.281   2.763
 1708TIP3   OH2 5129   5.417   1.628   2.528
 1708TIP3    H1 5130   5.443   1.659   2.615
 1708TIP3    H2 5131   5.476   1.674   2.468
 1709TIP3   OH2 5132   5.441   1.652   2.812
 1709TIP3    H1 5133   5.395   1.568   2.803
 1709TIP3    H2 5134   5.513   1.634   2.872
 1710TIP3   OH2 5135   5.485   1.339   3.381
 1710TIP3    H1 5136   5.415   1.346   3.446
 1710TIP3    H2 5137   5.528   1.425   3.383
 1711TIP3   OH2 5138   5.309   0.860   1.991
 1711TIP3    H1 5139   5.370   0.926   1.958
 1711TIP3    H2 5140   5.353   0.824   2.068
 1712TIP3   OH2 5141   5.435   0.736   2.200
 1712TIP3    H1 5142   5.370   0.694   2.257
 1712TIP3    H2 5143   5.504   0.766   2.259
 1713TIP3   OH2 5144   5.490   1.113   2.622
 1713TIP3    H1 5145   5.545   1.046   2.581
 1713TIP3    H2 5146   5.493   1.187   2.562
 1714TIP3   OH2 5147   5.303   1.408   2.819
 1714TIP3    H1 5148   5.235   1.452   2.870
 1714TIP3    H2 5149   5.256   1.367   2.747
 1715TIP3   OH2 5150   5.354   0.629   1.847
 1715TIP3    H1 5151   5.285   0.631   1.781
 1715TIP3    H2 5152   5.339   0.708   1.900
 1716TIP3   OH2 5153   5.203   0.290   1.817
 1716TIP3    H1 5154   5.204   0.340   1.735
 1716TIP3    H2 5155   5.229   0.201   1.790
 1717TIP3   OH2 5156   5.243   0.594   2.338
 1717TIP3    H1 5157   5.252   0.500   2.326
 1717TIP3    H2 5158   5.227   0.605   2.431
 1718TIP3   OH2 5159   3.869   0.644   3.099
 1718TIP3    H1 5160   3.855   0.618   3.008
 1718TIP3    H2 5161   3.964   0.646   3.109
 1719TIP3   OH2 5162   5.532   1.004   3.192
 1719TIP3    H1 5163   5.600   0.938   3.180
 1719TIP3    H2 5164   5.559   1.077   3.137
 1720TIP3   OH2 5165   5.717   0.803   3.194
 1720TIP3    H1 5166   5.649   0.759   3.246
 1720TIP3    H2 5167   5.799   0.767   3.227
 1721TIP3   OH2 5168   5.214   0.349   2.190
 1721TIP3    H1 5169   5.234   0.256   2.199
 1721TIP3    H2 5170   5.276   0.381   2.125
 1722TIP3   OH2 5171   5.398   0.535   2.728
 1722TIP3    H1 5172   5.478   0.563   2.683
 1722TIP3    H2 5173   5.410   0.564   2.818
 1723TIP3   OH2 5174   5.452   0.640   2.978
 1723TIP3    H1 5175   5.385   0.683   3.032
 1723TIP3    H2 5176   5.497   0.713   2.934
 1724TIP3   OH2 5177   4.096   0.395   3.777
 1724TIP3    H1 5178   4.182   0.376   3.742
 1724TIP3    H2 5179   4.058   0.309   3.795
 1725TIP3   OH2 5180   4.063   0.059   3.084
 1725TIP3    H1 5181   4.146   0.029   3.048
 1725TIP3    H2 5182   4.087   0.129   3.145
 1726TIP3   OH2 5183   3.835   0.331   3.152
 1726TIP3    H1 5184   3.880   0.324   3.067
 1726TIP3    H2 5185   3.876   0.406   3.195
 1727TIP3   OH2 5186   4.988   1.509   2.175
 1727TIP3    H1 5187   5.044   1.505   2.097
 1727TIP3    H2 5188   5.025   1.580   2.227
 1728TIP3   OH2 5189   4.087   1.309   3.555
 1728TIP3    H1 5190   3.993   1.295   3.546
 1728TIP3    H2 5191   4.103   1.302   3.649
 1729TIP3   OH2 5192   4.287   1.359   3.106
 1729TIP3    H1 5193   4.233   1.431   3.073
 1729TIP3    H2 5194   4.372   1.371   3.063
 1730TIP3   OH2 5195   4.704   1.590   3.239
 1730TIP3    H1 5196   4.740   1.585   3.327
 1730TIP3    H2 5197   4.766   1.644   3.191
 1731TIP3   OH2 5198   4.890   1.748   3.112
 1731TIP3    H1 5199   4.958   1.697   3.067
 1731TIP3    H2 5200   4.939   1.807   3.170
 1732TIP3   OH2 5201   3.948   1.609   3.148
 1732TIP3    H1 5202   3.857   1.627   3.126
 1732TIP3    H2 5203   3.969   1.673   3.216
 1733TIP3   OH2 5204   4.178   1.588   2.997
 1733TIP3    H1 5205   4.096   1.597   3.044
 1733TIP3    H2 5206   4.158   1.616   2.908
 1734TIP3   OH2 5207   4.603   1.609   2.790
 1734TIP3    H1 5208   4.533   1.623   2.727
 1734TIP3    H2 5209   4.616   1.694   2.832
 1735TIP3   OH2 5210   4.869   1.543   2.839
 1735TIP3    H1 5211   4.777   1.564   2.822
 1735TIP3    H2 5212   4.917   1.613   2.795
 1736TIP3   OH2 5213   5.070   1.727   2.745
 1736TIP3    H1 5214   5.064   1.814   2.705
 1736TIP3    H2 5215   5.099   1.670   2.674
 1737TIP3   OH2 5216   3.863   1.388   2.868
 1737TIP3    H1 5217   3.884   1.361   2.958
 1737TIP3    H2 5218   3.935   1.354   2.815
 1738TIP3   OH2 5219   4.065   1.268   2.730
 1738TIP3    H1 5220   4.075   1.187   2.779
 1738TIP3    H2 5221   4.151   1.310   2.735
 1739TIP3   OH2 5222   4.331   1.354   2.752
 1739TIP3    H1 5223   4.353   1.262   2.741
 1739TIP3    H2 5224   4.382   1.381   2.828
 1740TIP3   OH2 5225   3.638   1.177   2.255
 1740TIP3    H1 5226   3.552   1.147   2.226
 1740TIP3    H2 5227   3.642   1.268   2.226
 1741TIP3   OH2 5228   4.427   1.339   1.853
 1741TIP3    H1 5229   4.511   1.370   1.818
 1741TIP3    H2 5230   4.401   1.269   1.793
 1742TIP3   OH2 5231   5.137   1.475   1.943
 1742TIP3    H1 5232   5.130   1.380   1.932
 1742TIP3    H2 5233   5.094   1.511   1.866
 1743TIP3   OH2 5234   3.724   1.184   1.901
 1743TIP3    H1 5235   3.720   1.212   1.992
 1743TIP3    H2 5236   3.805   1.133   1.895
 1744TIP3   OH2 5237   5.351   1.615   3.131
 1744TIP3    H1 5238   5.275   1.585   3.082
 1744TIP3    H2 5239   5.338   1.710   3.141
 1745TIP3   OH2 5240   5.942   0.902   2.628
 1745TIP3    H1 5241   5.962   0.827   2.684
 1745TIP3    H2 5242   5.990   0.975   2.667
 1746TIP3   OH2 5243   5.854   1.281   2.373
 1746TIP3    H1 5244   5.853   1.188   2.353
 1746TIP3    H2 5245   5.919   1.290   2.443
 1747TIP3   OH2 5246   5.596   0.513   2.130
 1747TIP3    H1 5247   5.565   0.600   2.154
 1747TIP3    H2 5248   5.517   0.467   2.100
 1748TIP3   OH2 5249   5.672   0.791   2.334
 1748TIP3    H1 5250   5.733   0.720   2.353
 1748TIP3    H2 5251   5.728   0.864   2.307
 1749TIP3   OH2 5252   5.878   0.620   2.408
 1749TIP3    H1 5253   5.959   0.605   2.458
 1749TIP3    H2 5254   5.885   0.559   2.334
 1750TIP3   OH2 5255   6.018   1.313   2.593
 1750TIP3    H1 5256   6.047   1.404   2.591
 1750TIP3    H2 5257   5.974   1.304   2.678
 1751TIP3   OH2 5258   5.494   1.037   1.884
 1751TIP3    H1 5259   5.464   1.054   1.795
 1751TIP3    H2 5260   5.521   1.122   1.918
 1752TIP3   OH2 5261   6.031   1.003   2.910
 1752TIP3    H1 5262   6.060   1.086   2.949
 1752TIP3    H2 5263   5.941   0.993   2.940
 1753TIP3   OH2 5264   6.071   1.667   2.889
 1753TIP3    H1 5265   6.052   1.632   2.802
 1753TIP3    H2 5266   6.002   1.631   2.945
 1754TIP3   OH2 5267   5.682   1.161   2.824
 1754TIP3    H1 5268   5.616   1.141   2.757
 1754TIP3    H2 5269   5.712   1.076   2.854
 1755TIP3   OH2 5270   5.555   1.337   2.462
 1755TIP3    H1 5271   5.649   1.337   2.442
 1755TIP3    H2 5272   5.543   1.417   2.514
 1756TIP3   OH2 5273   5.693   1.550   2.003
 1756TIP3    H1 5274   5.750   1.540   2.079
 1756TIP3    H2 5275   5.647   1.467   1.996
 1757TIP3   OH2 5276   5.880   1.350   2.826
 1757TIP3    H1 5277   5.935   1.330   2.902
 1757TIP3    H2 5278   5.809   1.286   2.831
 1758TIP3   OH2 5279   6.009   0.735   2.847
 1758TIP3    H1 5280   6.025   0.825   2.875
 1758TIP3    H2 5281   6.071   0.683   2.897
 1759TIP3   OH2 5282   5.586   0.159   2.354
 1759TIP3    H1 5283   5.625   0.247   2.353
 1759TIP3    H2 5284   5.658   0.101   2.379
 1760TIP3   OH2 5285   5.703   0.283   1.983
 1760TIP3    H1 5286   5.713   0.301   1.889
 1760TIP3    H2 5287   5.643   0.351   2.014
 1761TIP3   OH2 5288   5.857   0.442   2.190
 1761TIP3    H1 5289   5.779   0.467   2.140
 1761TIP3    H2 5290   5.887   0.361   2.150
 1762TIP3   OH2 5291   6.059   1.257   3.034
 1762TIP3    H1 5292   6.146   1.271   3.072
 1762TIP3    H2 5293   5.999   1.263   3.108
 1763TIP3   OH2 5294   5.888   0.981   2.360
 1763TIP3    H1 5295   5.966   0.974   2.304
 1763TIP3    H2 5296   5.916   0.946   2.445
 1764TIP3   OH2 5297   5.769   0.941   2.966
 1764TIP3    H1 5298   5.777   0.906   3.054
 1764TIP3    H2 5299   5.705   0.885   2.923
 1765TIP3   OH2 5300   5.951   1.347   1.986
 1765TIP3    H1 5301   5.954   1.413   1.918
 1765TIP3    H2 5302   5.872   1.297   1.968
 1766TIP3   OH2 5303   5.566   0.624   1.672
 1766TIP3    H1 5304   5.619   0.702   1.688
 1766TIP3    H2 5305   5.499   0.625   1.740
 1767TIP3   OH2 5306   5.898   1.565   1.819
 1767TIP3    H1 5307   5.817   1.566   1.869
 1767TIP3    H2 5308   5.925   1.657   1.815
 1768TIP3   OH2 5309   6.008   0.487   3.079
 1768TIP3    H1 5310   5.919   0.474   3.047
 1768TIP3    H2 5311   6.055   0.408   3.051
 1769TIP3   OH2 5312   5.725   1.549   2.609
 1769TIP3    H1 5313   5.778   1.488   2.660
 1769TIP3    H2 5314   5.742   1.635   2.649
 1770TIP3   OH2 5315   5.674   0.869   1.743
 1770TIP3    H1 5316   5.627   0.911   1.815
 1770TIP3    H2 5317   5.706   0.941   1.689
 1771TIP3   OH2 5318   5.708   1.090   1.558
 1771TIP3    H1 5319   5.722   1.184   1.544
 1771TIP3    H2 5320   5.762   1.047   1.492
 1772TIP3   OH2 5321   5.615   0.350   1.721
 1772TIP3    H1 5322   5.611   0.444   1.705
 1772TIP3    H2 5323   5.621   0.311   1.634
 1773TIP3   OH2 5324   5.546   1.306   1.961
 1773TIP3    H1 5325   5.491   1.337   2.034
 1773TIP3    H2 5326   5.509   1.349   1.884
 1774TIP3   OH2 5327   5.722   1.847   3.020
 1774TIP3    H1 5328   5.799   1.852   3.077
 1774TIP3    H2 5329   5.703   1.754   3.014
 1775TIP3   OH2 5330   6.172   1.770   3.133
 1775TIP3    H1 5331   6.243   1.832   3.117
 1775TIP3    H2 5332   6.155   1.729   3.048
 1776TIP3   OH2 5333   5.844   1.249   3.217
 1776TIP3    H1 5334   5.866   1.156   3.222
 1776TIP3    H2 5335   5.758   1.251   3.176
 1777TIP3   OH2 5336   5.956   0.995   3.217
 1777TIP3    H1 5337   6.005   0.916   3.195
 1777TIP3    H2 5338   5.987   1.019   3.304
 1778TIP3   OH2 5339   5.438   1.047   1.608
 1778TIP3    H1 5340   5.530   1.066   1.590
 1778TIP3    H2 5341   5.422   0.962   1.567
 1779TIP3   OH2 5342   5.340   1.633   2.037
 1779TIP3    H1 5343   5.276   1.578   1.992
 1779TIP3    H2 5344   5.386   1.573   2.096
 1780TIP3   OH2 5345   5.477   1.468   2.213
 1780TIP3    H1 5346   5.469   1.403   2.283
 1780TIP3    H2 5347   5.530   1.537   2.252
 1781TIP3   OH2 5348   5.667   0.899   2.586
 1781TIP3    H1 5349   5.655   0.861   2.499
 1781TIP3    H2 5350   5.762   0.910   2.595
 1782TIP3   OH2 5351   5.935   0.659   3.279
 1782TIP3    H1 5352   5.982   0.615   3.209
 1782TIP3    H2 5353   5.883   0.590   3.321
 1783TIP3   OH2 5354   5.857   0.311   2.593
 1783TIP3    H1 5355   5.874   0.221   2.619
 1783TIP3    H2 5356   5.933   0.361   2.625
 1784TIP3   OH2 5357   5.650   0.584   2.636
 1784TIP3    H1 5358   5.691   0.556   2.554
 1784TIP3    H2 5359   5.705   0.656   2.667
 1785TIP3   OH2 5360   5.876   1.579   3.068
 1785TIP3    H1 5361   5.785   1.555   3.049
 1785TIP3    H2 5362   5.889   1.552   3.159
 1786TIP3   OH2 5363   6.066   1.586   2.611
 1786TIP3    H1 5364   6.007   1.638   2.556
 1786TIP3    H2 5365   6.153   1.608   2.578
 1787TIP3   OH2 5366   5.736   1.853   2.638
 1787TIP3    H1 5367   5.647   1.878   2.613
 1787TIP3    H2 5368   5.764   1.922   2.699
 1788TIP3   OH2 5369   5.931   1.771   2.460
 1788TIP3    H1 5370   5.855   1.803   2.510
 1788TIP3    H2 5371   5.924   1.815   2.375
 1789TIP3   OH2 5372   5.652   1.646   2.357
 1789TIP3    H1 5373   5.673   1.619   2.447
 1789TIP3    H2 5374   5.726   1.615   2.305
 1790TIP3   OH2 5375   5.854   1.520   2.226
 1790TIP3    H1 5376   5.857   1.434   2.267
 1790TIP3    H2 5377   5.944   1.535   2.195
 1791TIP3   OH2 5378   5.432   1.434   1.747
 1791TIP3    H1 5379   5.349   1.401   1.715
 1791TIP3    H2 5380   5.433   1.526   1.722
 1792TIP3   OH2 5381   5.491   1.441   1.426
 1792TIP3    H1 5382   5.482   1.481   1.512
 1792TIP3    H2 5383   5.576   1.397   1.429
 1793TIP3   OH2 5384   0.873   2.041   3.058
 1793TIP3    H1 5385   0.843   2.129   3.037
 1793TIP3    H2 5386   0.801   1.984   3.030
 1794TIP3   OH2 5387   0.208   1.948   3.832
 1794TIP3    H1 5388   0.248   1.904   3.907
 1794TIP3    H2 5389   0.277   1.953   3.767
 1795TIP3   OH2 5390   1.132   2.341   3.153
 1795TIP3    H1 5391   1.130   2.276   3.223
 1795TIP3    H2 5392   1.159   2.422   3.197
 1796TIP3   OH2 5393   0.160   2.326   3.525
 1796TIP3    H1 5394   0.174   2.232   3.518
 1796TIP3    H2 5395   0.248   2.364   3.519
 1797TIP3   OH2 5396   6.379   1.515   3.315
 1797TIP3    H1 5397   6.396   1.607   3.335
 1797TIP3    H2 5398   6.377   1.472   3.400
 1798TIP3   OH2 5399   6.445   1.765   3.418
 1798TIP3    H1 5400   6.471   1.736   3.505
 1798TIP3    H2 5401   6.421   1.857   3.429
 1799TIP3   OH2 5402   0.787   2.787   3.158
 1799TIP3    H1 5403   0.819   2.720   3.097
 1799TIP3    H2 5404   0.782   2.742   3.242
 1800TIP3   OH2 5405   0.663   2.248   3.509
 1800TIP3    H1 5406   0.688   2.203   3.429
 1800TIP3    H2 5407   0.747   2.264   3.554
 1801TIP3   OH2 5408   1.704   1.584   3.497
 1801TIP3    H1 5409   1.725   1.666   3.543
 1801TIP3    H2 5410   1.723   1.603   3.405
 1802TIP3   OH2 5411   1.103   1.758   3.513
 1802TIP3    H1 5412   1.139   1.675   3.544
 1802TIP3    H2 5413   1.052   1.734   3.436
 1803TIP3   OH2 5414   0.444   1.422   3.479
 1803TIP3    H1 5415   0.430   1.501   3.427
 1803TIP3    H2 5416   0.402   1.352   3.429
 1804TIP3   OH2 5417   1.135   1.512   3.115
 1804TIP3    H1 5418   1.200   1.504   3.184
 1804TIP3    H2 5419   1.183   1.549   3.041
 1805TIP3   OH2 5420   0.083   1.610   3.615
 1805TIP3    H1 5421   0.166   1.592   3.658
 1805TIP3    H2 5422   0.087   1.561   3.533
 1806TIP3   OH2 5423   0.505   1.821   3.410
 1806TIP3    H1 5424   0.597   1.796   3.417
 1806TIP3    H2 5425   0.462   1.745   3.373
 1807TIP3   OH2 5426   1.768   1.794   3.673
 1807TIP3    H1 5427   1.686   1.841   3.659
 1807TIP3    H2 5428   1.808   1.837   3.749
 1808TIP3   OH2 5429   0.420   1.396   3.938
 1808TIP3    H1 5430   0.374   1.431   3.863
 1808TIP3    H2 5431   0.369   1.424   4.014
 1809TIP3   OH2 5432   0.749   2.253   2.932
 1809TIP3    H1 5433   0.724   2.240   2.841
 1809TIP3    H2 5434   0.708   2.336   2.957
 1810TIP3   OH2 5435   0.516   2.157   3.730
 1810TIP3    H1 5436   0.471   2.234   3.765
 1810TIP3    H2 5437   0.580   2.193   3.669
 1811TIP3   OH2 5438   1.307   1.525   3.328
 1811TIP3    H1 5439   1.268   1.507   3.413
 1811TIP3    H2 5440   1.363   1.600   3.342
 1812TIP3   OH2 5441   0.322   1.508   3.710
 1812TIP3    H1 5442   0.376   1.584   3.733
 1812TIP3    H2 5443   0.365   1.472   3.632
 1813TIP3   OH2 5444   0.373   2.374   3.820
 1813TIP3    H1 5445   0.359   2.461   3.783
 1813TIP3    H2 5446   0.297   2.359   3.875
 1814TIP3   OH2 5447   6.280   2.047   3.091
 1814TIP3    H1 5448   6.189   2.073   3.079
 1814TIP3    H2 5449   6.323   2.124   3.129
 1815TIP3   OH2 5450   1.179   2.591   3.286
 1815TIP3    H1 5451   1.095   2.583   3.330
 1815TIP3    H2 5452   1.176   2.677   3.243
 1816TIP3   OH2 5453   1.500   1.470   3.657
 1816TIP3    H1 5454   1.415   1.503   3.629
 1816TIP3    H2 5455   1.562   1.504   3.592
 1817TIP3   OH2 5456   0.776   1.109   3.650
 1817TIP3    H1 5457   0.765   1.017   3.674
 1817TIP3    H2 5458   0.703   1.154   3.693
 1818TIP3   OH2 5459   0.885   2.626   2.951
 1818TIP3    H1 5460   0.935   2.545   2.942
 1818TIP3    H2 5461   0.944   2.695   2.920
 1819TIP3   OH2 5462   1.034   2.404   2.902
 1819TIP3    H1 5463   1.018   2.322   2.856
 1819TIP3    H2 5464   1.072   2.377   2.986
 1820TIP3   OH2 5465   1.400   2.499   3.642
 1820TIP3    H1 5466   1.395   2.419   3.589
 1820TIP3    H2 5467   1.389   2.570   3.579
 1821TIP3   OH2 5468   0.700   1.885   2.902
 1821TIP3    H1 5469   0.623   1.939   2.882
 1821TIP3    H2 5470   0.751   1.885   2.821
 1822TIP3   OH2 5471   0.671   1.685   2.607
 1822TIP3    H1 5472   0.738   1.734   2.655
 1822TIP3    H2 5473   0.722   1.620   2.557
 1823TIP3   OH2 5474   1.607   2.130   3.495
 1823TIP3    H1 5475   1.528   2.183   3.501
 1823TIP3    H2 5476   1.644   2.153   3.409
 1824TIP3   OH2 5477   1.060   1.975   2.869
 1824TIP3    H1 5478   1.006   2.002   2.944
 1824TIP3    H2 5479   1.143   1.948   2.908
 1825TIP3   OH2 5480   1.289   2.003   3.792
 1825TIP3    H1 5481   1.291   2.083   3.845
 1825TIP3    H2 5482   1.218   2.017   3.730
 1826TIP3   OH2 5483   0.295   1.955   3.275
 1826TIP3    H1 5484   0.257   1.896   3.210
 1826TIP3    H2 5485   0.370   1.908   3.311
 1827TIP3   OH2 5486   0.416   2.389   3.429
 1827TIP3    H1 5487   0.409   2.361   3.338
 1827TIP3    H2 5488   0.498   2.350   3.460
 1828TIP3   OH2 5489   0.405   1.932   3.640
 1828TIP3    H1 5490   0.444   1.904   3.557
 1828TIP3    H2 5491   0.453   2.012   3.663
 1829TIP3   OH2 5492   0.951   2.583   3.439
 1829TIP3    H1 5493   0.948   2.653   3.505
 1829TIP3    H2 5494   0.946   2.502   3.490
 1830TIP3   OH2 5495   0.579   2.483   3.970
 1830TIP3    H1 5496   0.526   2.556   4.000
 1830TIP3    H2 5497   0.519   2.429   3.919
 1831TIP3   OH2 5498   0.891   1.837   2.703
 1831TIP3    H1 5499   0.951   1.892   2.754
 1831TIP3    H2 5500   0.918   1.849   2.612
 1832TIP3   OH2 5501   0.635   2.508   2.963
 1832TIP3    H1 5502   0.720   2.552   2.968
 1832TIP3    H2 5503   0.580   2.569   2.914
 1833TIP3   OH2 5504   0.405   2.687   4.020
 1833TIP3    H1 5505   0.362   2.676   3.935
 1833TIP3    H2 5506   0.338   2.662   4.084
 1834TIP3   OH2 5507   1.407   1.064   2.755
 1834TIP3    H1 5508   1.329   1.085   2.805
 1834TIP3    H2 5509   1.423   1.141   2.700
 1835TIP3   OH2 5510   0.166   1.802   3.073
 1835TIP3    H1 5511   0.095   1.849   3.029
 1835TIP3    H2 5512   0.123   1.727   3.115
 1836TIP3   OH2 5513   1.222   2.439   2.303
 1836TIP3    H1 5514   1.224   2.533   2.284
 1836TIP3    H2 5515   1.311   2.409   2.285
 1837TIP3   OH2 5516   0.006   2.126   3.970
 1837TIP3    H1 5517  -0.007   2.111   3.876
 1837TIP3    H2 5518   0.074   2.064   3.995
 1838TIP3   OH2 5519   6.345   2.435   3.689
 1838TIP3    H1 5520   6.405   2.433   3.614
 1838TIP3    H2 5521   6.397   2.472   3.760
 1839TIP3   OH2 5522   1.631   2.847   3.713
 1839TIP3    H1 5523   1.685   2.789   3.659
 1839TIP3    H2 5524   1.626   2.802   3.798
 1840TIP3   OH2 5525   0.757   2.622   3.814
 1840TIP3    H1 5526   0.749   2.710   3.849
 1840TIP3    H2 5527   0.699   2.569   3.868
 1841TIP3   OH2 5528   0.528   2.732   2.784
 1841TIP3    H1 5529   0.482   2.717   2.702
 1841TIP3    H2 5530   0.498   2.819   2.813
 1842TIP3   OH2 5531   6.478   2.588   3.140
 1842TIP3    H1 5532   6.535   2.587   3.217
 1842TIP3    H2 5533   6.401   2.537   3.167
 1843TIP3   OH2 5534   0.730   2.658   2.412
 1843TIP3    H1 5535   0.781   2.585   2.377
 1843TIP3    H2 5536   0.765   2.671   2.500
 1844TIP3   OH2 5537   0.781   2.704   2.682
 1844TIP3    H1 5538   0.696   2.708   2.725
 1844TIP3    H2 5539   0.840   2.669   2.749
 1845TIP3   OH2 5540   1.536   1.964   3.981
 1845TIP3    H1 5541   1.458   1.982   3.929
 1845TIP3    H2 5542   1.552   1.870   3.970
 1846TIP3   OH2 5543   0.164   2.349   3.993
 1846TIP3    H1 5544   0.191   2.346   4.084
 1846TIP3    H2 5545   0.096   2.282   3.986
 1847TIP3   OH2 5546   0.546   1.196   3.783
 1847TIP3    H1 5547   0.462   1.159   3.754
 1847TIP3    H2 5548   0.522   1.278   3.826
 1848TIP3   OH2 5549   1.091   1.311   3.978
 1848TIP3    H1 5550   1.162   1.293   4.040
 1848TIP3    H2 5551   1.011   1.292   4.028
 1849TIP3   OH2 5552   1.293   1.738   3.886
 1849TIP3    H1 5553   1.263   1.742   3.976
 1849TIP3    H2 5554   1.280   1.826   3.852
 1850TIP3   OH2 5555   0.973   1.858   2.448
 1850TIP3    H1 5556   0.934   1.840   2.363
 1850TIP3    H2 5557   1.057   1.899   2.427
 1851TIP3   OH2 5558   0.669   1.254   2.738
 1851TIP3    H1 5559   0.649   1.257   2.832
 1851TIP3    H2 5560   0.648   1.164   2.713
 1852TIP3   OH2 5561   0.462   1.725   3.806
 1852TIP3    H1 5562   0.414   1.752   3.885
 1852TIP3    H2 5563   0.449   1.797   3.745
 1853TIP3   OH2 5564   0.361   1.618   3.306
 1853TIP3    H1 5565   0.274   1.591   3.334
 1853TIP3    H2 5566   0.372   1.579   3.219
 1854TIP3   OH2 5567   0.837   1.686   3.034
 1854TIP3    H1 5568   0.787   1.757   2.994
 1854TIP3    H2 5569   0.897   1.656   2.966
 1855TIP3   OH2 5570   1.016   1.958   4.125
 1855TIP3    H1 5571   0.996   1.886   4.185
 1855TIP3    H2 5572   1.108   1.979   4.142
 1856TIP3   OH2 5573   0.982   1.695   3.273
 1856TIP3    H1 5574   0.927   1.726   3.201
 1856TIP3    H2 5575   1.035   1.625   3.234
 1857TIP3   OH2 5576   0.341   1.774   4.070
 1857TIP3    H1 5577   0.261   1.822   4.092
 1857TIP3    H2 5578   0.318   1.682   4.086
 1858TIP3   OH2 5579   0.330   1.210   2.729
 1858TIP3    H1 5580   0.335   1.207   2.825
 1858TIP3    H2 5581   0.250   1.258   2.711
 1859TIP3   OH2 5582   6.418   1.342   3.531
 1859TIP3    H1 5583   6.459   1.326   3.615
 1859TIP3    H2 5584   6.398   1.254   3.497
 1860TIP3   OH2 5585   6.334   1.297   3.132
 1860TIP3    H1 5586   6.364   1.314   3.042
 1860TIP3    H2 5587   6.356   1.376   3.180
 1861TIP3   OH2 5588   0.705   1.403   3.365
 1861TIP3    H1 5589   0.624   1.408   3.417
 1861TIP3    H2 5590   0.774   1.432   3.425
 1862TIP3   OH2 5591   0.144   1.478   3.375
 1862TIP3    H1 5592   0.055   1.472   3.340
 1862TIP3    H2 5593   0.185   1.396   3.348
 1863TIP3   OH2 5594   0.379   1.488   3.067
 1863TIP3    H1 5595   0.473   1.502   3.054
 1863TIP3    H2 5596   0.340   1.505   2.982
 1864TIP3   OH2 5597   1.171   1.493   3.577
 1864TIP3    H1 5598   1.146   1.513   3.667
 1864TIP3    H2 5599   1.102   1.435   3.545
 1865TIP3   OH2 5600   0.242   1.504   2.832
 1865TIP3    H1 5601   0.150   1.516   2.810
 1865TIP3    H2 5602   0.290   1.547   2.761
 1866TIP3   OH2 5603   0.308   2.266   4.263
 1866TIP3    H1 5604   0.398   2.290   4.287
 1866TIP3    H2 5605   0.260   2.349   4.264
 1867TIP3   OH2 5606   0.759   1.721   3.450
 1867TIP3    H1 5607   0.833   1.719   3.390
 1867TIP3    H2 5608   0.798   1.718   3.537
 1868TIP3   OH2 5609   0.298   1.259   3.306
 1868TIP3    H1 5610   0.280   1.180   3.357
 1868TIP3    H2 5611   0.311   1.228   3.216
 1869TIP3   OH2 5612   0.724   1.627   3.775
 1869TIP3    H1 5613   0.640   1.673   3.773
 1869TIP3    H2 5614   0.785   1.690   3.812
 1870TIP3   OH2 5615   0.472   2.037   2.844
 1870TIP3    H1 5616   0.402   1.974   2.829
 1870TIP3    H2 5617   0.453   2.073   2.930
 1871TIP3   OH2 5618   1.382   2.287   3.469
 1871TIP3    H1 5619   1.415   2.335   3.394
 1871TIP3    H2 5620   1.299   2.249   3.440
 1872TIP3   OH2 5621   0.932   1.346   2.750
 1872TIP3    H1 5622   0.837   1.336   2.740
 1872TIP3    H2 5623   0.945   1.440   2.760
 1873TIP3   OH2 5624   0.875   2.368   3.905
 1873TIP3    H1 5625   0.907   2.314   3.833
 1873TIP3    H2 5626   0.850   2.451   3.865
 1874TIP3   OH2 5627   1.002   1.605   2.820
 1874TIP3    H1 5628   1.097   1.610   2.832
 1874TIP3    H2 5629   0.980   1.683   2.768
 1875TIP3   OH2 5630   0.187   2.058   3.506
 1875TIP3    H1 5631   0.209   2.027   3.418
 1875TIP3    H2 5632   0.243   2.007   3.564
 1876TIP3   OH2 5633   0.626   2.192   2.681
 1876TIP3    H1 5634   0.579   2.275   2.682
 1876TIP3    H2 5635   0.574   2.134   2.736
 1877TIP3   OH2 5636   0.116   1.914   4.142
 1877TIP3    H1 5637   0.155   1.944   4.224
 1877TIP3    H2 5638   0.023   1.907   4.161
 1878TIP3   OH2 5639   1.021   2.681   3.731
 1878TIP3    H1 5640   0.936   2.640   3.743
 1878TIP3    H2 5641   1.055   2.692   3.820
 1879TIP3   OH2 5642   1.423   1.695   2.649
 1879TIP3    H1 5643   1.366   1.649   2.586
 1879TIP3    H2 5644   1.427   1.785   2.616
 1880TIP3   OH2 5645   1.655   2.545   3.733
 1880TIP3    H1 5646   1.560   2.544   3.723
 1880TIP3    H2 5647   1.688   2.520   3.647
 1881TIP3   OH2 5648   1.143   2.509   2.566
 1881TIP3    H1 5649   1.123   2.438   2.626
 1881TIP3    H2 5650   1.164   2.466   2.483
 1882TIP3   OH2 5651   1.149   2.169   3.382
 1882TIP3    H1 5652   1.084   2.185   3.450
 1882TIP3    H2 5653   1.141   2.075   3.363
 1883TIP3   OH2 5654   0.289   2.377   3.157
 1883TIP3    H1 5655   0.303   2.452   3.099
 1883TIP3    H2 5656   0.195   2.376   3.173
 1884TIP3   OH2 5657   6.351   1.669   2.866
 1884TIP3    H1 5658   6.389   1.755   2.881
 1884TIP3    H2 5659   6.256   1.685   2.864
 1885TIP3   OH2 5660   0.388   2.131   3.082
 1885TIP3    H1 5661   0.366   2.220   3.107
 1885TIP3    H2 5662   0.359   2.077   3.156
 1886TIP3   OH2 5663   0.577   2.699   3.614
 1886TIP3    H1 5664   0.612   2.774   3.566
 1886TIP3    H2 5665   0.651   2.665   3.665
 1887TIP3   OH2 5666   0.213   2.608   3.000
 1887TIP3    H1 5667   0.125   2.606   3.037
 1887TIP3    H2 5668   0.241   2.699   3.007
 1888TIP3   OH2 5669   0.911   2.243   2.474
 1888TIP3    H1 5670   0.965   2.224   2.550
 1888TIP3    H2 5671   0.824   2.209   2.498
 1889TIP3   OH2 5672   1.174   2.893   3.649
 1889TIP3    H1 5673   1.114   2.821   3.666
 1889TIP3    H2 5674   1.141   2.933   3.568
 1890TIP3   OH2 5675   1.237   2.716   2.275
 1890TIP3    H1 5676   1.282   2.790   2.233
 1890TIP3    H2 5677   1.158   2.755   2.313
 1891TIP3   OH2 5678   0.292   1.507   4.165
 1891TIP3    H1 5679   0.211   1.522   4.214
 1891TIP3    H2 5680   0.345   1.452   4.222
 1892TIP3   OH2 5681   1.080   2.181   2.683
 1892TIP3    H1 5682   1.065   2.111   2.747
 1892TIP3    H2 5683   1.175   2.179   2.668
 1893TIP3   OH2 5684   0.020   2.545   3.871
 1893TIP3    H1 5685   0.064   2.483   3.929
 1893TIP3    H2 5686   0.045   2.631   3.904
 1894TIP3   OH2 5687   0.272   2.215   2.476
 1894TIP3    H1 5688   0.283   2.125   2.445
 1894TIP3    H2 5689   0.253   2.206   2.569
 1895TIP3   OH2 5690   0.206   2.220   2.744
 1895TIP3    H1 5691   0.280   2.194   2.799
 1895TIP3    H2 5692   0.205   2.316   2.750
 1896TIP3   OH2 5693   6.457   1.917   2.930
 1896TIP3    H1 5694   6.397   1.967   2.986
 1896TIP3    H2 5695   6.475   1.976   2.857
 1897TIP3   OH2 5696   1.093   1.554   3.837
 1897TIP3    H1 5697   1.171   1.604   3.860
 1897TIP3    H2 5698   1.097   1.475   3.891
 1898TIP3   OH2 5699   0.991   1.294   3.017
 1898TIP3    H1 5700   0.971   1.314   2.926
 1898TIP3    H2 5701   1.034   1.373   3.050
 1899TIP3   OH2 5702   0.478   2.417   2.684
 1899TIP3    H1 5703   0.391   2.438   2.718
 1899TIP3    H2 5704   0.502   2.493   2.630
 1900TIP3   OH2 5705   0.656   1.493   3.105
 1900TIP3    H1 5706   0.718   1.562   3.082
 1900TIP3    H2 5707   0.671   1.477   3.198
 1901TIP3   OH2 5708   0.898   1.773   3.941
 1901TIP3    H1 5709   0.942   1.850   3.978
 1901TIP3    H2 5710   0.970   1.716   3.912
 1902TIP3   OH2 5711   0.814   1.202   3.207
 1902TIP3    H1 5712   0.790   1.279   3.260
 1902TIP3    H2 5713   0.881   1.234   3.147
 1903TIP3   OH2 5714   0.223   2.494   2.752
 1903TIP3    H1 5715   0.200   2.564   2.691
 1903TIP3    H2 5716   0.220   2.535   2.839
 1904TIP3   OH2 5717   0.346   1.218   3.014
 1904TIP3    H1 5718   0.335   1.311   3.032
 1904TIP3    H2 5719   0.441   1.205   3.012
 1905TIP3   OH2 5720   1.564   1.699   3.891
 1905TIP3    H1 5721   1.469   1.693   3.890
 1905TIP3    H2 5722   1.590   1.676   3.802
 1906TIP3   OH2 5723   1.227   1.879   3.266
 1906TIP3    H1 5724   1.147   1.839   3.302
 1906TIP3    H2 5725   1.297   1.846   3.322
 1907TIP3   OH2 5726   6.451   2.100   2.705
 1907TIP3    H1 5727   6.514   2.170   2.724
 1907TIP3    H2 5728   6.502   2.033   2.658
 1908TIP3   OH2 5729   6.374   1.399   2.877
 1908TIP3    H1 5730   6.377   1.494   2.874
 1908TIP3    H2 5731   6.296   1.376   2.827
 1909TIP3   OH2 5732   1.204   2.862   3.208
 1909TIP3    H1 5733   1.158   2.911   3.140
 1909TIP3    H2 5734   1.296   2.883   3.195
 1910TIP3   OH2 5735   0.286   1.106   3.739
 1910TIP3    H1 5736   0.276   1.116   3.644
 1910TIP3    H2 5737   0.265   1.014   3.755
 1911TIP3   OH2 5738   6.362   2.311   3.137
 1911TIP3    H1 5739   6.274   2.347   3.145
 1911TIP3    H2 5740   6.382   2.317   3.044
 1912TIP3   OH2 5741   0.062   2.868   4.172
 1912TIP3    H1 5742   0.131   2.890   4.235
 1912TIP3    H2 5743  -0.018   2.903   4.212
 1913TIP3   OH2 5744   0.501   2.837   4.228
 1913TIP3    H1 5745   0.586   2.797   4.248
 1913TIP3    H2 5746   0.471   2.793   4.149
 1914TIP3   OH2 5747   0.431   2.413   2.368
 1914TIP3    H1 5748   0.383   2.343   2.413
 1914TIP3    H2 5749   0.505   2.369   2.327
 1915TIP3   OH2 5750   1.087   2.758   3.989
 1915TIP3    H1 5751   1.086   2.684   4.050
 1915TIP3    H2 5752   1.165   2.807   4.012
 1916TIP3   OH2 5753   0.864   2.449   2.294
 1916TIP3    H1 5754   0.898   2.386   2.357
 1916TIP3    H2 5755   0.927   2.445   2.221
 1917TIP3   OH2 5756   0.098   2.200   4.433
 1917TIP3    H1 5757   0.177   2.217   4.382
 1917TIP3    H2 5758   0.027   2.229   4.376
 1918TIP3   OH2 5759   0.110   1.907   2.606
 1918TIP3    H1 5760   0.167   1.885   2.680
 1918TIP3    H2 5761   0.170   1.921   2.533
 1919TIP3   OH2 5762   0.742   2.383   4.167
 1919TIP3    H1 5763   0.694   2.404   4.086
 1919TIP3    H2 5764   0.829   2.357   4.137
 1920TIP3   OH2 5765   0.618   2.133   2.414
 1920TIP3    H1 5766   0.611   2.150   2.507
 1920TIP3    H2 5767   0.616   2.037   2.407
 1921TIP3   OH2 5768   1.197   2.376   3.802
 1921TIP3    H1 5769   1.251   2.434   3.749
 1921TIP3    H2 5770   1.123   2.353   3.745
 1922TIP3   OH2 5771   0.230   1.953   4.391
 1922TIP3    H1 5772   0.306   1.904   4.423
 1922TIP3    H2 5773   0.231   2.035   4.440
 1923TIP3   OH2 5774   0.280   1.842   2.815
 1923TIP3    H1 5775   0.256   1.813   2.904
 1923TIP3    H2 5776   0.324   1.766   2.777
 1924TIP3   OH2 5777   0.396   1.645   2.653
 1924TIP3    H1 5778   0.368   1.659   2.563
 1924TIP3    H2 5779   0.492   1.652   2.650
 1925TIP3   OH2 5780   1.043   2.310   4.191
 1925TIP3    H1 5781   1.070   2.276   4.106
 1925TIP3    H2 5782   1.070   2.243   4.254
 1926TIP3   OH2 5783   1.201   1.962   2.327
 1926TIP3    H1 5784   1.186   1.917   2.244
 1926TIP3    H2 5785   1.173   2.052   2.310
 1927TIP3   OH2 5786   0.669   1.723   4.083
 1927TIP3    H1 5787   0.674   1.628   4.075
 1927TIP3    H2 5788   0.751   1.755   4.043
 1928TIP3   OH2 5789   0.681   1.462   3.990
 1928TIP3    H1 5790   0.710   1.503   3.908
 1928TIP3    H2 5791   0.591   1.436   3.972
 1929TIP3   OH2 5792   1.285   1.993   4.218
 1929TIP3    H1 5793   1.326   1.907   4.213
 1929TIP3    H2 5794   1.349   2.053   4.179
 1930TIP3   OH2 5795   1.341   2.221   3.966
 1930TIP3    H1 5796   1.282   2.280   3.920
 1930TIP3    H2 5797   1.428   2.245   3.934
 1931TIP3   OH2 5798   0.521   1.800   4.332
 1931TIP3    H1 5799   0.461   1.745   4.382
 1931TIP3    H2 5800   0.607   1.783   4.370
 1932TIP3   OH2 5801   0.829   1.239   4.057
 1932TIP3    H1 5802   0.783   1.320   4.035
 1932TIP3    H2 5803   0.763   1.171   4.047
 1933TIP3   OH2 5804   0.958   1.743   4.288
 1933TIP3    H1 5805   1.007   1.738   4.370
 1933TIP3    H2 5806   0.873   1.706   4.308
 1934TIP3   OH2 5807   1.206   1.707   4.141
 1934TIP3    H1 5808   1.124   1.701   4.189
 1934TIP3    H2 5809   1.270   1.662   4.196
 1935TIP3   OH2 5810   1.407   1.611   4.312
 1935TIP3    H1 5811   1.395   1.522   4.346
 1935TIP3    H2 5812   1.404   1.667   4.390
 1936TIP3   OH2 5813   0.392   1.600   4.468
 1936TIP3    H1 5814   0.405   1.513   4.431
 1936TIP3    H2 5815   0.435   1.596   4.554
 1937TIP3   OH2 5816   0.891   1.251   4.324
 1937TIP3    H1 5817   0.964   1.190   4.333
 1937TIP3    H2 5818   0.869   1.247   4.230
 1938TIP3   OH2 5819   0.938   1.473   4.486
 1938TIP3    H1 5820   0.957   1.394   4.435
 1938TIP3    H2 5821   0.850   1.498   4.459
 1939TIP3   OH2 5822   0.214   2.709   2.577
 1939TIP3    H1 5823   0.305   2.690   2.555
 1939TIP3    H2 5824   0.179   2.749   2.498
 1940TIP3   OH2 5825   6.195   2.053   2.785
 1940TIP3    H1 5826   6.287   2.061   2.762
 1940TIP3    H2 5827   6.157   2.001   2.714
 1941TIP3   OH2 5828   1.460   2.960   3.184
 1941TIP3    H1 5829   1.500   2.963   3.271
 1941TIP3    H2 5830   1.533   2.966   3.123
 1942TIP3   OH2 5831   1.482   2.955   3.470
 1942TIP3    H1 5832   1.431   2.874   3.463
 1942TIP3    H2 5833   1.561   2.929   3.518
 1943TIP3   OH2 5834   1.526   2.659   4.037
 1943TIP3    H1 5835   1.460   2.661   4.107
 1943TIP3    H2 5836   1.582   2.735   4.055
 1944TIP3   OH2 5837   1.357   2.158   2.660
 1944TIP3    H1 5838   1.418   2.224   2.629
 1944TIP3    H2 5839   1.400   2.118   2.735
 1945TIP3   OH2 5840   1.484   2.016   2.861
 1945TIP3    H1 5841   1.419   1.978   2.919
 1945TIP3    H2 5842   1.550   2.053   2.919
 1946TIP3   OH2 5843   1.542   2.423   3.288
 1946TIP3    H1 5844   1.592   2.351   3.251
 1946TIP3    H2 5845   1.549   2.493   3.224
 1947TIP3   OH2 5846   1.342   2.715   3.477
 1947TIP3    H1 5847   1.266   2.738   3.531
 1947TIP3    H2 5848   1.304   2.668   3.403
 1948TIP3   OH2 5849   1.406   1.933   2.508
 1948TIP3    H1 5850   1.335   1.933   2.443
 1948TIP3    H2 5851   1.388   2.010   2.562
 1949TIP3   OH2 5852   1.267   1.594   2.449
 1949TIP3    H1 5853   1.222   1.629   2.372
 1949TIP3    H2 5854   1.253   1.500   2.445
 1950TIP3   OH2 5855   1.285   1.876   2.999
 1950TIP3    H1 5856   1.294   1.781   2.989
 1950TIP3    H2 5857   1.267   1.888   3.092
 1951TIP3   OH2 5858   6.447   1.939   3.758
 1951TIP3    H1 5859   6.442   2.017   3.702
 1951TIP3    H2 5860   6.541   1.927   3.774
 1952TIP3   OH2 5861   1.587   2.299   3.867
 1952TIP3    H1 5862   1.653   2.233   3.847
 1952TIP3    H2 5863   1.611   2.374   3.812
 1953TIP3   OH2 5864   1.748   2.080   3.850
 1953TIP3    H1 5865   1.677   2.041   3.901
 1953TIP3    H2 5866   1.825   2.027   3.873
 1954TIP3   OH2 5867   1.217   1.327   2.434
 1954TIP3    H1 5868   1.285   1.293   2.492
 1954TIP3    H2 5869   1.139   1.277   2.457
 1955TIP3   OH2 5870   1.284   1.598   2.885
 1955TIP3    H1 5871   1.329   1.515   2.899
 1955TIP3    H2 5872   1.332   1.638   2.812
 1956TIP3   OH2 5873   1.442   1.758   3.403
 1956TIP3    H1 5874   1.522   1.779   3.356
 1956TIP3    H2 5875   1.452   1.799   3.489
 1957TIP3   OH2 5876   1.514   1.910   3.631
 1957TIP3    H1 5877   1.439   1.942   3.681
 1957TIP3    H2 5878   1.547   1.987   3.585
 1958TIP3   OH2 5879   0.124   1.586   4.402
 1958TIP3    H1 5880   0.216   1.596   4.426
 1958TIP3    H2 5881   0.077   1.645   4.461
 1959TIP3   OH2 5882   1.979   1.519   4.177
 1959TIP3    H1 5883   2.035   1.455   4.133
 1959TIP3    H2 5884   1.936   1.567   4.106
 1960TIP3   OH2 5885   1.398   1.348   2.935
 1960TIP3    H1 5886   1.444   1.333   3.018
 1960TIP3    H2 5887   1.336   1.276   2.928
 1961TIP3   OH2 5888   0.101   1.319   3.754
 1961TIP3    H1 5889   0.162   1.246   3.763
 1961TIP3    H2 5890   0.156   1.394   3.732
 1962TIP3   OH2 5891   6.442   1.575   3.908
 1962TIP3    H1 5892   6.476   1.519   3.838
 1962TIP3    H2 5893   6.388   1.640   3.862
 1963TIP3   OH2 5894   1.821   1.630   3.984
 1963TIP3    H1 5895   1.736   1.672   4.001
 1963TIP3    H2 5896   1.801   1.560   3.922
 1964TIP3   OH2 5897   1.455   1.268   2.575
 1964TIP3    H1 5898   1.500   1.205   2.519
 1964TIP3    H2 5899   1.513   1.345   2.576
 1965TIP3   OH2 5900   6.375   1.124   3.356
 1965TIP3    H1 5901   6.285   1.095   3.368
 1965TIP3    H2 5902   6.375   1.168   3.271
 1966TIP3   OH2 5903   1.031   2.822   2.837
 1966TIP3    H1 5904   1.086   2.809   2.760
 1966TIP3    H2 5905   1.080   2.885   2.890
 1967TIP3   OH2 5906   0.248   2.634   4.233
 1967TIP3    H1 5907   0.154   2.639   4.251
 1967TIP3    H2 5908   0.289   2.623   4.319
 1968TIP3   OH2 5909   0.349   2.639   3.754
 1968TIP3    H1 5910   0.293   2.695   3.701
 1968TIP3    H2 5911   0.437   2.654   3.720
 1969TIP3   OH2 5912   0.741   2.880   3.908
 1969TIP3    H1 5913   0.782   2.875   3.995
 1969TIP3    H2 5914   0.802   2.931   3.855
 1970TIP3   OH2 5915   0.925   3.024   3.767
 1970TIP3    H1 5916   0.954   2.967   3.695
 1970TIP3    H2 5917   1.002   3.032   3.823
 1971TIP3   OH2 5918   1.733   1.403   3.849
 1971TIP3    H1 5919   1.646   1.401   3.809
 1971TIP3    H2 5920   1.762   1.312   3.847
 1972TIP3   OH2 5921   6.394   3.011   3.875
 1972TIP3    H1 5922   6.398   3.011   3.779
 1972TIP3    H2 5923   6.464   3.071   3.902
 1973TIP3   OH2 5924   0.323   2.880   3.603
 1973TIP3    H1 5925   0.242   2.900   3.652
 1973TIP3    H2 5926   0.301   2.899   3.512
 1974TIP3   OH2 5927   0.651   2.914   3.451
 1974TIP3    H1 5928   0.588   2.926   3.380
 1974TIP3    H2 5929   0.664   3.002   3.486
 1975TIP3   OH2 5930   0.916   2.874   3.513
 1975TIP3    H1 5931   0.826   2.876   3.482
 1975TIP3    H2 5932   0.965   2.927   3.449
 1976TIP3   OH2 5933   1.123   3.035   3.407
 1976TIP3    H1 5934   1.117   3.119   3.362
 1976TIP3    H2 5935   1.154   2.974   3.339
 1977TIP3   OH2 5936   6.370   2.670   3.472
 1977TIP3    H1 5937   6.362   2.684   3.566
 1977TIP3    H2 5938   6.463   2.653   3.458
 1978TIP3   OH2 5939   0.139   2.579   3.353
 1978TIP3    H1 5940   0.146   2.510   3.419
 1978TIP3    H2 5941   0.221   2.627   3.360
 1979TIP3   OH2 5942   0.397   2.669   3.400
 1979TIP3    H1 5943   0.416   2.575   3.395
 1979TIP3    H2 5944   0.440   2.698   3.481
 1980TIP3   OH2 5945   0.958   1.322   3.500
 1980TIP3    H1 5946   0.910   1.248   3.538
 1980TIP3    H2 5947   1.021   1.282   3.441
 1981TIP3   OH2 5948   1.446   1.204   3.388
 1981TIP3    H1 5949   1.491   1.252   3.319
 1981TIP3    H2 5950   1.359   1.242   3.392
 1982TIP3   OH2 5951   1.559   1.293   3.156
 1982TIP3    H1 5952   1.628   1.235   3.124
 1982TIP3    H2 5953   1.593   1.381   3.143
 1983TIP3   OH2 5954   0.212   1.060   3.473
 1983TIP3    H1 5955   0.120   1.071   3.450
 1983TIP3    H2 5956   0.215   0.977   3.520
 1984TIP3   OH2 5957   0.644   1.083   3.401
 1984TIP3    H1 5958   0.691   1.129   3.331
 1984TIP3    H2 5959   0.690   1.107   3.481
 1985TIP3   OH2 5960   1.159   1.204   3.353
 1985TIP3    H1 5961   1.185   1.171   3.267
 1985TIP3    H2 5962   1.157   1.127   3.409
 1986TIP3   OH2 5963   1.211   1.139   2.936
 1986TIP3    H1 5964   1.131   1.188   2.957
 1986TIP3    H2 5965   1.198   1.053   2.977
 1987TIP3   OH2 5966   0.620   1.242   3.009
 1987TIP3    H1 5967   0.677   1.195   3.069
 1987TIP3    H2 5968   0.628   1.334   3.034
 1988TIP3   OH2 5969   0.473   2.642   2.512
 1988TIP3    H1 5970   0.557   2.669   2.476
 1988TIP3    H2 5971   0.446   2.569   2.456
 1989TIP3   OH2 5972   1.181   2.777   2.606
 1989TIP3    H1 5973   1.173   2.682   2.598
 1989TIP3    H2 5974   1.138   2.812   2.528
 1990TIP3   OH2 5975   0.420   1.351   4.359
 1990TIP3    H1 5976   0.387   1.262   4.344
 1990TIP3    H2 5977   0.508   1.339   4.395
 1991TIP3   OH2 5978   0.664   1.309   4.472
 1991TIP3    H1 5979   0.744   1.283   4.425
 1991TIP3    H2 5980   0.669   1.261   4.555
 1992TIP3   OH2 5981   6.313   2.494   2.538
 1992TIP3    H1 5982   6.334   2.571   2.590
 1992TIP3    H2 5983   6.397   2.451   2.523
 1993TIP3   OH2 5984   1.397   2.992   3.770
 1993TIP3    H1 5985   1.320   2.944   3.740
 1993TIP3    H2 5986   1.471   2.934   3.751
 1994TIP3   OH2 5987   2.676   2.302   2.540
 1994TIP3    H1 5988   2.648   2.391   2.519
 1994TIP3    H2 5989   2.601   2.247   2.518
 1995TIP3   OH2 5990   2.677   2.271   2.935
 1995TIP3    H1 5991   2.713   2.280   3.023
 1995TIP3    H2 5992   2.628   2.189   2.937
 1996TIP3   OH2 5993   1.965   2.175   3.314
 1996TIP3    H1 5994   1.997   2.110   3.376
 1996TIP3    H2 5995   2.042   2.228   3.293
 1997TIP3   OH2 5996   2.927   2.604   2.638
 1997TIP3    H1 5997   2.918   2.536   2.704
 1997TIP3    H2 5998   2.937   2.685   2.688
 1998TIP3   OH2 5999   1.919   2.583   3.035
 1998TIP3    H1 6000   1.922   2.488   3.019
 1998TIP3    H2 6001   1.999   2.602   3.083
 1999TIP3   OH2 6002   1.648   1.792   2.792
 1999TIP3    H1 6003   1.609   1.876   2.817
 1999TIP3    H2 6004   1.576   1.744   2.751
 2000TIP3   OH2 6005   1.719   2.095   2.995
 2000TIP3    H1 6006   1.768   2.018   3.025
 2000TIP3    H2 6007   1.786   2.157   2.967
 2001TIP3   OH2 6008   2.552   3.086   2.660
 2001TIP3    H1 6009   2.580   2.994   2.660
 2001TIP3    H2 6010   2.531   3.103   2.752
 2002TIP3   OH2 6011   2.472   2.512   2.970
 2002TIP3    H1 6012   2.505   2.435   2.923
 2002TIP3    H2 6013   2.550   2.560   2.998
 2003TIP3   OH2 6014   3.498   1.817   2.963
 2003TIP3    H1 6015   3.525   1.900   3.002
 2003TIP3    H2 6016   3.522   1.825   2.871
 2004TIP3   OH2 6017   2.894   2.007   3.009
 2004TIP3    H1 6018   2.929   1.921   3.032
 2004TIP3    H2 6019   2.854   1.993   2.923
 2005TIP3   OH2 6020   2.238   1.670   2.969
 2005TIP3    H1 6021   2.218   1.744   2.912
 2005TIP3    H2 6022   2.184   1.598   2.936
 2006TIP3   OH2 6023   2.931   1.768   2.599
 2006TIP3    H1 6024   2.997   1.758   2.668
 2006TIP3    H2 6025   2.980   1.804   2.525
 2007TIP3   OH2 6026   1.860   1.878   3.094
 2007TIP3    H1 6027   1.943   1.864   3.140
 2007TIP3    H2 6028   1.867   1.827   3.014
 2008TIP3   OH2 6029   2.294   2.077   2.893
 2008TIP3    H1 6030   2.387   2.057   2.904
 2008TIP3    H2 6031   2.256   1.996   2.860
 2009TIP3   OH2 6032   3.585   2.025   3.123
 2009TIP3    H1 6033   3.533   2.098   3.092
 2009TIP3    H2 6034   3.585   2.034   3.218
 2010TIP3   OH2 6035   2.219   1.667   3.419
 2010TIP3    H1 6036   2.168   1.703   3.346
 2010TIP3    H2 6037   2.165   1.683   3.496
 2011TIP3   OH2 6038   2.577   2.523   2.400
 2011TIP3    H1 6039   2.534   2.497   2.319
 2011TIP3    H2 6040   2.525   2.598   2.432
 2012TIP3   OH2 6041   2.327   2.439   3.196
 2012TIP3    H1 6042   2.259   2.501   3.222
 2012TIP3    H2 6043   2.371   2.480   3.122
 2013TIP3   OH2 6044   3.106   1.776   2.810
 2013TIP3    H1 6045   3.066   1.755   2.894
 2013TIP3    H2 6046   3.161   1.853   2.827
 2014TIP3   OH2 6047   2.104   1.774   3.190
 2014TIP3    H1 6048   2.157   1.850   3.214
 2014TIP3    H2 6049   2.152   1.733   3.118
 2015TIP3   OH2 6050   2.118   2.610   3.263
 2015TIP3    H1 6051   2.139   2.701   3.241
 2015TIP3    H2 6052   2.067   2.616   3.344
 2016TIP3   OH2 6053   1.537   2.337   2.542
 2016TIP3    H1 6054   1.503   2.358   2.455
 2016TIP3    H2 6055   1.564   2.422   2.577
 2017TIP3   OH2 6056   2.938   2.842   2.796
 2017TIP3    H1 6057   2.863   2.854   2.854
 2017TIP3    H2 6058   2.943   2.925   2.747
 2018TIP3   OH2 6059   3.297   1.745   3.153
 2018TIP3    H1 6060   3.208   1.762   3.121
 2018TIP3    H2 6061   3.353   1.761   3.077
 2019TIP3   OH2 6062   2.564   1.365   3.140
 2019TIP3    H1 6063   2.553   1.273   3.164
 2019TIP3    H2 6064   2.490   1.409   3.182
 2020TIP3   OH2 6065   2.686   2.876   2.442
 2020TIP3    H1 6066   2.743   2.799   2.429
 2020TIP3    H2 6067   2.741   2.950   2.417
 2021TIP3   OH2 6068   2.830   2.648   2.380
 2021TIP3    H1 6069   2.753   2.591   2.381
 2021TIP3    H2 6070   2.875   2.627   2.462
 2022TIP3   OH2 6071   3.184   2.762   3.125
 2022TIP3    H1 6072   3.183   2.686   3.066
 2022TIP3    H2 6073   3.173   2.837   3.067
 2023TIP3   OH2 6074   2.500   2.142   2.391
 2023TIP3    H1 6075   2.419   2.189   2.372
 2023TIP3    H2 6076   2.548   2.142   2.308
 2024TIP3   OH2 6077   2.466   1.943   2.094
 2024TIP3    H1 6078   2.531   1.993   2.143
 2024TIP3    H2 6079   2.516   1.878   2.045
 2025TIP3   OH2 6080   3.381   2.363   2.949
 2025TIP3    H1 6081   3.303   2.417   2.963
 2025TIP3    H2 6082   3.425   2.403   2.874
 2026TIP3   OH2 6083   2.858   2.228   2.353
 2026TIP3    H1 6084   2.803   2.258   2.425
 2026TIP3    H2 6085   2.941   2.205   2.394
 2027TIP3   OH2 6086   3.081   2.266   3.257
 2027TIP3    H1 6087   3.088   2.342   3.314
 2027TIP3    H2 6088   2.992   2.270   3.221
 2028TIP3   OH2 6089   2.085   2.214   2.767
 2028TIP3    H1 6090   2.050   2.157   2.700
 2028TIP3    H2 6091   2.161   2.168   2.802
 2029TIP3   OH2 6092   2.228   2.646   2.907
 2029TIP3    H1 6093   2.210   2.618   2.818
 2029TIP3    H2 6094   2.313   2.607   2.927
 2030TIP3   OH2 6095   2.202   2.205   3.124
 2030TIP3    H1 6096   2.239   2.174   3.041
 2030TIP3    H2 6097   2.251   2.285   3.143
 2031TIP3   OH2 6098   2.689   2.090   2.186
 2031TIP3    H1 6099   2.749   2.147   2.234
 2031TIP3    H2 6100   2.715   2.101   2.094
 2032TIP3   OH2 6101   2.123   2.296   3.563
 2032TIP3    H1 6102   2.133   2.391   3.570
 2032TIP3    H2 6103   2.029   2.282   3.577
 2033TIP3   OH2 6104   2.440   2.760   2.451
 2033TIP3    H1 6105   2.522   2.808   2.460
 2033TIP3    H2 6106   2.378   2.825   2.416
 2034TIP3   OH2 6107   3.203   1.320   2.242
 2034TIP3    H1 6108   3.124   1.339   2.293
 2034TIP3    H2 6109   3.217   1.397   2.188
 2035TIP3   OH2 6110   1.960   2.060   2.561
 2035TIP3    H1 6111   1.885   2.107   2.525
 2035TIP3    H2 6112   1.925   1.974   2.584
 2036TIP3   OH2 6113   3.015   2.693   1.790
 2036TIP3    H1 6114   3.016   2.788   1.775
 2036TIP3    H2 6115   3.105   2.666   1.772
 2037TIP3   OH2 6116   1.741   2.459   3.493
 2037TIP3    H1 6117   1.679   2.442   3.423
 2037TIP3    H2 6118   1.780   2.374   3.512
 2038TIP3   OH2 6119   1.631   2.638   3.120
 2038TIP3    H1 6120   1.718   2.615   3.086
 2038TIP3    H2 6121   1.648   2.708   3.183
 2039TIP3   OH2 6122   3.417   3.078   3.158
 2039TIP3    H1 6123   3.460   3.004   3.200
 2039TIP3    H2 6124   3.480   3.150   3.168
 2040TIP3   OH2 6125   2.324   2.993   2.266
 2040TIP3    H1 6126   2.275   2.979   2.185
 2040TIP3    H2 6127   2.292   3.078   2.298
 2041TIP3   OH2 6128   1.755   2.845   2.646
 2041TIP3    H1 6129   1.801   2.838   2.730
 2041TIP3    H2 6130   1.711   2.760   2.636
 2042TIP3   OH2 6131   2.525   2.914   1.900
 2042TIP3    H1 6132   2.577   2.843   1.865
 2042TIP3    H2 6133   2.558   2.927   1.989
 2043TIP3   OH2 6134   2.579   2.961   2.170
 2043TIP3    H1 6135   2.493   2.964   2.212
 2043TIP3    H2 6136   2.639   2.933   2.239
 2044TIP3   OH2 6137   1.967   2.674   3.490
 2044TIP3    H1 6138   2.025   2.709   3.558
 2044TIP3    H2 6139   1.913   2.610   3.536
 2045TIP3   OH2 6140   2.329   1.456   3.269
 2045TIP3    H1 6141   2.245   1.424   3.237
 2045TIP3    H2 6142   2.307   1.537   3.317
 2046TIP3   OH2 6143   2.867   1.561   3.464
 2046TIP3    H1 6144   2.936   1.542   3.528
 2046TIP3    H2 6145   2.785   1.548   3.512
 2047TIP3   OH2 6146   3.125   2.039   3.410
 2047TIP3    H1 6147   3.060   2.016   3.475
 2047TIP3    H2 6148   3.086   2.111   3.361
 2048TIP3   OH2 6149   2.769   2.094   1.925
 2048TIP3    H1 6150   2.728   2.088   1.838
 2048TIP3    H2 6151   2.850   2.144   1.910
 2049TIP3   OH2 6152   2.480   1.496   2.237
 2049TIP3    H1 6153   2.445   1.501   2.326
 2049TIP3    H2 6154   2.441   1.416   2.201
 2050TIP3   OH2 6155   2.262   1.982   3.273
 2050TIP3    H1 6156   2.224   1.996   3.359
 2050TIP3    H2 6157   2.242   2.061   3.223
 2051TIP3   OH2 6158   2.148   1.861   2.796
 2051TIP3    H1 6159   2.059   1.839   2.821
 2051TIP3    H2 6160   2.158   1.825   2.708
 2052TIP3   OH2 6161   2.631   1.940   2.526
 2052TIP3    H1 6162   2.583   2.012   2.486
 2052TIP3    H2 6163   2.689   1.909   2.456
 2053TIP3   OH2 6164   2.822   2.199   3.585
 2053TIP3    H1 6165   2.801   2.138   3.656
 2053TIP3    H2 6166   2.901   2.245   3.615
 2054TIP3   OH2 6167   2.792   1.957   2.758
 2054TIP3    H1 6168   2.726   1.988   2.697
 2054TIP3    H2 6169   2.834   1.883   2.713
 2055TIP3   OH2 6170   2.085   1.994   3.492
 2055TIP3    H1 6171   2.119   2.058   3.554
 2055TIP3    H2 6172   2.074   1.914   3.543
 2056TIP3   OH2 6173   2.140   1.479   2.207
 2056TIP3    H1 6174   2.131   1.481   2.303
 2056TIP3    H2 6175   2.064   1.527   2.175
 2057TIP3   OH2 6176   1.685   1.517   3.079
 2057TIP3    H1 6177   1.756   1.554   3.132
 2057TIP3    H2 6178   1.726   1.500   2.994
 2058TIP3   OH2 6179   1.615   1.500   2.587
 2058TIP3    H1 6180   1.661   1.534   2.510
 2058TIP3    H2 6181   1.555   1.569   2.612
 2059TIP3   OH2 6182   2.815   2.206   3.176
 2059TIP3    H1 6183   2.847   2.141   3.114
 2059TIP3    H2 6184   2.779   2.155   3.249
 2060TIP3   OH2 6185   2.503   1.658   2.854
 2060TIP3    H1 6186   2.423   1.661   2.907
 2060TIP3    H2 6187   2.574   1.658   2.917
 2061TIP3   OH2 6188   1.910   1.740   2.861
 2061TIP3    H1 6189   1.820   1.744   2.827
 2061TIP3    H2 6190   1.938   1.650   2.843
 2062TIP3   OH2 6191   2.166   1.735   2.554
 2062TIP3    H1 6192   2.259   1.749   2.540
 2062TIP3    H2 6193   2.125   1.756   2.470
 2063TIP3   OH2 6194   2.977   1.745   3.062
 2063TIP3    H1 6195   2.962   1.761   3.155
 2063TIP3    H2 6196   2.904   1.689   3.035
 2064TIP3   OH2 6197   2.037   1.763   2.314
 2064TIP3    H1 6198   1.971   1.718   2.262
 2064TIP3    H2 6199   2.091   1.809   2.250
 2065TIP3   OH2 6200   2.559   2.009   2.960
 2065TIP3    H1 6201   2.631   1.966   2.914
 2065TIP3    H2 6202   2.558   1.969   3.047
 2066TIP3   OH2 6203   2.059   1.493   2.845
 2066TIP3    H1 6204   2.029   1.417   2.894
 2066TIP3    H2 6205   2.092   1.456   2.763
 2067TIP3   OH2 6206   2.531   1.917   3.230
 2067TIP3    H1 6207   2.443   1.951   3.248
 2067TIP3    H2 6208   2.589   1.973   3.282
 2068TIP3   OH2 6209   2.268   2.286   2.334
 2068TIP3    H1 6210   2.193   2.229   2.314
 2068TIP3    H2 6211   2.246   2.324   2.420
 2069TIP3   OH2 6212   3.164   2.534   2.952
 2069TIP3    H1 6213   3.197   2.586   2.878
 2069TIP3    H2 6214   3.082   2.497   2.921
 2070TIP3   OH2 6215   2.732   1.599   2.228
 2070TIP3    H1 6216   2.638   1.579   2.228
 2070TIP3    H2 6217   2.735   1.694   2.243
 2071TIP3   OH2 6218   2.710   2.604   3.318
 2071TIP3    H1 6219   2.720   2.580   3.411
 2071TIP3    H2 6220   2.654   2.681   3.320
 2072TIP3   OH2 6221   2.793   1.860   2.308
 2072TIP3    H1 6222   2.888   1.867   2.318
 2072TIP3    H2 6223   2.769   1.938   2.257
 2073TIP3   OH2 6224   1.954   2.296   2.998
 2073TIP3    H1 6225   1.995   2.282   2.913
 2073TIP3    H2 6226   2.018   2.264   3.062
 2074TIP3   OH2 6227   2.420   2.447   2.172
 2074TIP3    H1 6228   2.372   2.529   2.172
 2074TIP3    H2 6229   2.367   2.388   2.227
 2075TIP3   OH2 6230   1.858   2.242   3.632
 2075TIP3    H1 6231   1.889   2.235   3.723
 2075TIP3    H2 6232   1.788   2.177   3.625
 2076TIP3   OH2 6233   2.582   2.323   3.655
 2076TIP3    H1 6234   2.522   2.314   3.581
 2076TIP3    H2 6235   2.668   2.304   3.618
 2077TIP3   OH2 6236   3.221   1.950   2.134
 2077TIP3    H1 6237   3.165   1.902   2.072
 2077TIP3    H2 6238   3.223   2.039   2.101
 2078TIP3   OH2 6239   3.438   2.806   3.230
 2078TIP3    H1 6240   3.345   2.812   3.206
 2078TIP3    H2 6241   3.483   2.786   3.149
 2079TIP3   OH2 6242   2.948   2.768   2.063
 2079TIP3    H1 6243   2.916   2.705   2.128
 2079TIP3    H2 6244   2.956   2.716   1.983
 2080TIP3   OH2 6245   2.931   2.402   2.853
 2080TIP3    H1 6246   2.840   2.383   2.876
 2080TIP3    H2 6247   2.963   2.321   2.814
 2081TIP3   OH2 6248   2.071   2.630   2.636
 2081TIP3    H1 6249   2.071   2.711   2.584
 2081TIP3    H2 6250   1.987   2.632   2.682
 2082TIP3   OH2 6251   1.638   1.924   2.359
 2082TIP3    H1 6252   1.683   2.006   2.378
 2082TIP3    H2 6253   1.559   1.926   2.414
 2083TIP3   OH2 6254   2.181   2.387   2.569
 2083TIP3    H1 6255   2.154   2.477   2.589
 2083TIP3    H2 6256   2.153   2.337   2.645
 2084TIP3   OH2 6257   1.985   2.866   2.493
 2084TIP3    H1 6258   1.902   2.870   2.539
 2084TIP3    H2 6259   2.018   2.957   2.495
 2085TIP3   OH2 6260   2.733   2.550   3.051
 2085TIP3    H1 6261   2.728   2.571   3.145
 2085TIP3    H2 6262   2.826   2.559   3.030
 2086TIP3   OH2 6263   2.701   2.500   1.954
 2086TIP3    H1 6264   2.758   2.472   2.024
 2086TIP3    H2 6265   2.614   2.468   1.978
 2087TIP3   OH2 6266   3.031   2.970   1.763
 2087TIP3    H1 6267   3.069   3.041   1.712
 2087TIP3    H2 6268   2.953   3.008   1.804
 2088TIP3   OH2 6269   2.051   1.742   3.628
 2088TIP3    H1 6270   1.956   1.748   3.636
 2088TIP3    H2 6271   2.078   1.694   3.706
 2089TIP3   OH2 6272   2.878   2.407   2.139
 2089TIP3    H1 6273   2.862   2.357   2.219
 2089TIP3    H2 6274   2.973   2.417   2.136
 2090TIP3   OH2 6275   1.781   2.840   3.279
 2090TIP3    H1 6276   1.841   2.777   3.318
 2090TIP3    H2 6277   1.818   2.926   3.300
 2091TIP3   OH2 6278   2.057   2.469   1.958
 2091TIP3    H1 6279   2.070   2.378   1.933
 2091TIP3    H2 6280   2.041   2.466   2.052
 2092TIP3   OH2 6281   2.001   2.484   2.231
 2092TIP3    H1 6282   2.070   2.455   2.291
 2092TIP3    H2 6283   2.002   2.579   2.237
 2093TIP3   OH2 6284   1.737   2.173   2.438
 2093TIP3    H1 6285   1.672   2.218   2.492
 2093TIP3    H2 6286   1.756   2.235   2.367
 2094TIP3   OH2 6287   2.931   1.793   3.330
 2094TIP3    H1 6288   2.975   1.839   3.401
 2094TIP3    H2 6289   2.899   1.712   3.370
 2095TIP3   OH2 6290   2.786   1.551   2.500
 2095TIP3    H1 6291   2.766   1.570   2.408
 2095TIP3    H2 6292   2.827   1.631   2.532
 2096TIP3   OH2 6293   2.271   2.673   2.171
 2096TIP3    H1 6294   2.186   2.696   2.209
 2096TIP3    H2 6295   2.299   2.751   2.124
 2097TIP3   OH2 6296   2.447   1.745   2.593
 2097TIP3    H1 6297   2.509   1.814   2.569
 2097TIP3    H2 6298   2.465   1.730   2.686
 2098TIP3   OH2 6299   2.732   2.040   3.380
 2098TIP3    H1 6300   2.754   2.099   3.452
 2098TIP3    H2 6301   2.786   1.962   3.395
 2099TIP3   OH2 6302   2.603   1.452   2.687
 2099TIP3    H1 6303   2.580   1.529   2.739
 2099TIP3    H2 6304   2.670   1.485   2.626
 2100TIP3   OH2 6305   2.017   2.756   2.245
 2100TIP3    H1 6306   1.995   2.826   2.183
 2100TIP3    H2 6307   2.006   2.795   2.331
 2101TIP3   OH2 6308   2.118   1.465   2.486
 2101TIP3    H1 6309   2.108   1.555   2.517
 2101TIP3    H2 6310   2.212   1.448   2.491
 2102TIP3   OH2 6311   3.373   1.982   3.339
 2102TIP3    H1 6312   3.284   1.988   3.373
 2102TIP3    H2 6313   3.374   1.902   3.287
 2103TIP3   OH2 6314   3.017   2.144   2.753
 2103TIP3    H1 6315   2.936   2.095   2.768
 2103TIP3    H2 6316   3.082   2.097   2.806
 2104TIP3   OH2 6317   1.749   2.362   2.227
 2104TIP3    H1 6318   1.820   2.426   2.239
 2104TIP3    H2 6319   1.785   2.299   2.165
 2105TIP3   OH2 6320   1.671   1.648   2.363
 2105TIP3    H1 6321   1.681   1.743   2.368
 2105TIP3    H2 6322   1.601   1.634   2.299
 2106TIP3   OH2 6323   2.989   3.093   2.691
 2106TIP3    H1 6324   2.947   3.151   2.627
 2106TIP3    H2 6325   3.083   3.113   2.683
 2107TIP3   OH2 6326   2.068   1.368   3.230
 2107TIP3    H1 6327   2.038   1.337   3.144
 2107TIP3    H2 6328   2.056   1.294   3.288
 2108TIP3   OH2 6329   1.591   2.606   2.622
 2108TIP3    H1 6330   1.545   2.644   2.697
 2108TIP3    H2 6331   1.554   2.651   2.546
 2109TIP3   OH2 6332   1.776   3.146   3.696
 2109TIP3    H1 6333   1.857   3.155   3.746
 2109TIP3    H2 6334   1.762   3.051   3.691
 2110TIP3   OH2 6335   2.221   3.090   3.711
 2110TIP3    H1 6336   2.311   3.086   3.743
 2110TIP3    H2 6337   2.205   3.003   3.674
 2111TIP3   OH2 6338   2.220   2.667   1.853
 2111TIP3    H1 6339   2.171   2.598   1.898
 2111TIP3    H2 6340   2.296   2.623   1.816
 2112TIP3   OH2 6341   2.660   2.709   1.778
 2112TIP3    H1 6342   2.690   2.643   1.841
 2112TIP3    H2 6343   2.722   2.702   1.705
 2113TIP3   OH2 6344   1.849   2.535   3.929
 2113TIP3    H1 6345   1.928   2.506   3.883
 2113TIP3    H2 6346   1.782   2.539   3.860
 2114TIP3   OH2 6347   1.882   2.170   2.085
 2114TIP3    H1 6348   1.934   2.146   2.161
 2114TIP3    H2 6349   1.946   2.182   2.015
 2115TIP3   OH2 6350   2.415   2.391   1.902
 2115TIP3    H1 6351   2.405   2.405   1.996
 2115TIP3    H2 6352   2.409   2.297   1.890
 2116TIP3   OH2 6353   3.003   2.626   3.291
 2116TIP3    H1 6354   3.052   2.688   3.236
 2116TIP3    H2 6355   2.912   2.652   3.280
 2117TIP3   OH2 6356   2.028   2.264   3.867
 2117TIP3    H1 6357   2.118   2.262   3.834
 2117TIP3    H2 6358   2.034   2.303   3.954
 2118TIP3   OH2 6359   2.060   2.104   2.293
 2118TIP3    H1 6360   2.040   2.074   2.382
 2118TIP3    H2 6361   2.105   2.030   2.252
 2119TIP3   OH2 6362   2.347   2.145   3.516
 2119TIP3    H1 6363   2.275   2.206   3.534
 2119TIP3    H2 6364   2.402   2.191   3.452
 2120TIP3   OH2 6365   2.191   1.909   2.141
 2120TIP3    H1 6366   2.162   1.914   2.050
 2120TIP3    H2 6367   2.287   1.916   2.136
 2121TIP3   OH2 6368   2.869   2.515   3.634
 2121TIP3    H1 6369   2.922   2.594   3.646
 2121TIP3    H2 6370   2.851   2.485   3.723
 2122TIP3   OH2 6371   2.996   2.214   1.814
 2122TIP3    H1 6372   2.980   2.171   1.730
 2122TIP3    H2 6373   2.967   2.305   1.800
 2123TIP3   OH2 6374   2.478   1.950   3.654
 2123TIP3    H1 6375   2.481   1.875   3.595
 2123TIP3    H2 6376   2.436   2.019   3.602
 2124TIP3   OH2 6377   2.481   1.744   3.455
 2124TIP3    H1 6378   2.507   1.786   3.373
 2124TIP3    H2 6379   2.389   1.722   3.443
 2125TIP3   OH2 6380   2.504   2.295   3.351
 2125TIP3    H1 6381   2.590   2.313   3.313
 2125TIP3    H2 6382   2.444   2.349   3.299
 2126TIP3   OH2 6383   3.074   2.245   3.721
 2126TIP3    H1 6384   3.135   2.172   3.733
 2126TIP3    H2 6385   3.130   2.318   3.695
 2127TIP3   OH2 6386   3.170   2.470   3.432
 2127TIP3    H1 6387   3.102   2.526   3.395
 2127TIP3    H2 6388   3.251   2.501   3.394
 2128TIP3   OH2 6389   2.355   2.044   3.893
 2128TIP3    H1 6390   2.286   1.979   3.908
 2128TIP3    H2 6391   2.387   2.024   3.805
 2129TIP3   OH2 6392   2.602   1.510   3.545
 2129TIP3    H1 6393   2.561   1.590   3.515
 2129TIP3    H2 6394   2.535   1.442   3.533
 2130TIP3   OH2 6395   2.739   1.992   3.748
 2130TIP3    H1 6396   2.727   1.986   3.842
 2130TIP3    H2 6397   2.651   1.979   3.712
 2131TIP3   OH2 6398   2.968   1.920   3.599
 2131TIP3    H1 6399   2.891   1.937   3.654
 2131TIP3    H2 6400   3.040   1.910   3.661
 2132TIP3   OH2 6401   3.220   1.911   3.757
 2132TIP3    H1 6402   3.228   1.817   3.770
 2132TIP3    H2 6403   3.208   1.946   3.846
 2133TIP3   OH2 6404   2.189   1.823   3.956
 2133TIP3    H1 6405   2.196   1.734   3.923
 2133TIP3    H2 6406   2.227   1.819   4.044
 2134TIP3   OH2 6407   2.682   1.503   3.808
 2134TIP3    H1 6408   2.751   1.436   3.802
 2134TIP3    H2 6409   2.647   1.509   3.719
 2135TIP3   OH2 6410   2.765   1.719   3.958
 2135TIP3    H1 6411   2.738   1.649   3.898
 2135TIP3    H2 6412   2.693   1.782   3.954
 2136TIP3   OH2 6413   2.004   2.958   2.055
 2136TIP3    H1 6414   2.096   2.941   2.034
 2136TIP3    H2 6415   1.972   3.009   1.980
 2137TIP3   OH2 6416   1.478   2.341   2.255
 2137TIP3    H1 6417   1.571   2.358   2.248
 2137TIP3    H2 6418   1.466   2.254   2.215
 2138TIP3   OH2 6419   1.387   2.934   2.701
 2138TIP3    H1 6420   1.323   2.878   2.657
 2138TIP3    H2 6421   1.432   2.875   2.761
 2139TIP3   OH2 6422   1.527   2.771   2.876
 2139TIP3    H1 6423   1.521   2.704   2.944
 2139TIP3    H2 6424   1.583   2.839   2.915
 2140TIP3   OH2 6425   3.259   3.162   2.668
 2140TIP3    H1 6426   3.275   3.187   2.759
 2140TIP3    H2 6427   3.311   3.225   2.617
 2141TIP3   OH2 6428   3.331   3.213   2.926
 2141TIP3    H1 6429   3.314   3.130   2.970
 2141TIP3    H2 6430   3.335   3.278   2.997
 2142TIP3   OH2 6431   3.317   2.890   3.565
 2142TIP3    H1 6432   3.241   2.905   3.622
 2142TIP3    H2 6433   3.329   2.972   3.519
 2143TIP3   OH2 6434   3.156   2.412   2.143
 2143TIP3    H1 6435   3.216   2.482   2.116
 2143TIP3    H2 6436   3.198   2.374   2.221
 2144TIP3   OH2 6437   3.280   2.270   2.346
 2144TIP3    H1 6438   3.212   2.233   2.402
 2144TIP3    H2 6439   3.343   2.308   2.407
 2145TIP3   OH2 6440   3.324   2.670   2.771
 2145TIP3    H1 6441   3.382   2.606   2.730
 2145TIP3    H2 6442   3.325   2.745   2.712
 2146TIP3   OH2 6443   3.137   2.972   2.951
 2146TIP3    H1 6444   3.095   3.057   2.958
 2146TIP3    H2 6445   3.083   2.923   2.889
 2147TIP3   OH2 6446   3.202   2.188   1.992
 2147TIP3    H1 6447   3.131   2.187   1.928
 2147TIP3    H2 6448   3.185   2.264   2.047
 2148TIP3   OH2 6449   3.071   1.842   1.933
 2148TIP3    H1 6450   3.022   1.885   1.863
 2148TIP3    H2 6451   3.054   1.748   1.921
 2149TIP3   OH2 6452   3.084   2.133   2.487
 2149TIP3    H1 6453   3.087   2.037   2.476
 2149TIP3    H2 6454   3.064   2.146   2.579
 2150TIP3   OH2 6455   1.704   2.204   3.247
 2150TIP3    H1 6456   1.696   2.169   3.158
 2150TIP3    H2 6457   1.798   2.203   3.265
 2151TIP3   OH2 6458   3.413   2.552   3.329
 2151TIP3    H1 6459   3.475   2.511   3.269
 2151TIP3    H2 6460   3.412   2.644   3.303
 2152TIP3   OH2 6461   3.018   1.573   1.910
 2152TIP3    H1 6462   3.080   1.545   1.978
 2152TIP3    H2 6463   2.935   1.532   1.935
 2153TIP3   OH2 6464   3.082   1.855   2.373
 2153TIP3    H1 6465   3.125   1.771   2.385
 2153TIP3    H2 6466   3.128   1.895   2.299
 2154TIP3   OH2 6467   3.230   2.013   2.889
 2154TIP3    H1 6468   3.315   2.035   2.851
 2154TIP3    H2 6469   3.227   2.062   2.971
 2155TIP3   OH2 6470   3.349   2.237   3.192
 2155TIP3    H1 6471   3.255   2.248   3.200
 2155TIP3    H2 6472   3.373   2.288   3.114
 2156TIP3   OH2 6473   1.924   1.874   3.900
 2156TIP3    H1 6474   2.019   1.874   3.914
 2156TIP3    H2 6475   1.893   1.795   3.944
 2157TIP3   OH2 6476   3.768   1.767   3.662
 2157TIP3    H1 6477   3.830   1.705   3.625
 2157TIP3    H2 6478   3.738   1.818   3.587
 2158TIP3   OH2 6479   3.194   1.603   2.420
 2158TIP3    H1 6480   3.238   1.587   2.504
 2158TIP3    H2 6481   3.130   1.532   2.413
 2159TIP3   OH2 6482   1.896   1.587   3.246
 2159TIP3    H1 6483   1.953   1.511   3.252
 2159TIP3    H2 6484   1.955   1.661   3.233
 2160TIP3   OH2 6485   1.686   1.853   3.315
 2160TIP3    H1 6486   1.737   1.851   3.234
 2160TIP3    H2 6487   1.704   1.938   3.353
 2161TIP3   OH2 6488   3.624   1.889   3.465
 2161TIP3    H1 6489   3.552   1.924   3.518
 2161TIP3    H2 6490   3.586   1.814   3.419
 2162TIP3   OH2 6491   3.252   1.524   2.064
 2162TIP3    H1 6492   3.295   1.463   2.004
 2162TIP3    H2 6493   3.309   1.602   2.062
 2163TIP3   OH2 6494   1.670   1.357   2.813
 2163TIP3    H1 6495   1.583   1.351   2.851
 2163TIP3    H2 6496   1.659   1.415   2.738
 2164TIP3   OH2 6497   2.826   3.072   2.321
 2164TIP3    H1 6498   2.887   3.064   2.247
 2164TIP3    H2 6499   2.869   3.135   2.380
 2165TIP3   OH2 6500   1.894   1.424   3.621
 2165TIP3    H1 6501   1.848   1.426   3.704
 2165TIP3    H2 6502   1.838   1.472   3.560
 2166TIP3   OH2 6503   2.140   2.879   3.234
 2166TIP3    H1 6504   2.095   2.957   3.202
 2166TIP3    H2 6505   2.203   2.911   3.298
 2167TIP3   OH2 6506   3.525   1.644   3.360
 2167TIP3    H1 6507   3.437   1.630   3.326
 2167TIP3    H2 6508   3.568   1.558   3.352
 2168TIP3   OH2 6509   1.778   3.152   3.293
 2168TIP3    H1 6510   1.692   3.192   3.278
 2168TIP3    H2 6511   1.825   3.215   3.349
 2169TIP3   OH2 6512   2.009   3.097   3.131
 2169TIP3    H1 6513   1.927   3.130   3.169
 2169TIP3    H2 6514   2.041   3.169   3.077
 2170TIP3   OH2 6515   2.484   3.191   2.924
 2170TIP3    H1 6516   2.418   3.240   2.973
 2170TIP3    H2 6517   2.549   3.166   2.989
 2171TIP3   OH2 6518   2.986   3.309   2.899
 2171TIP3    H1 6519   2.954   3.394   2.868
 2171TIP3    H2 6520   2.944   3.245   2.842
 2172TIP3   OH2 6521   1.702   2.944   3.026
 2172TIP3    H1 6522   1.731   2.924   3.115
 2172TIP3    H2 6523   1.772   2.911   2.970
 2173TIP3   OH2 6524   1.895   2.815   2.879
 2173TIP3    H1 6525   1.908   2.735   2.930
 2173TIP3    H2 6526   1.980   2.858   2.880
 2174TIP3   OH2 6527   2.151   2.913   2.900
 2174TIP3    H1 6528   2.192   2.827   2.903
 2174TIP3    H2 6529   2.173   2.953   2.984
 2175TIP3   OH2 6530   2.743   1.574   2.990
 2175TIP3    H1 6531   2.701   1.501   3.036
 2175TIP3    H2 6532   2.810   1.533   2.936
 2176TIP3   OH2 6533   3.243   1.468   2.877
 2176TIP3    H1 6534   3.280   1.518   2.804
 2176TIP3    H2 6535   3.150   1.491   2.877
 2177TIP3   OH2 6536   3.355   1.549   2.640
 2177TIP3    H1 6537   3.425   1.492   2.609
 2177TIP3    H2 6538   3.389   1.638   2.628
 2178TIP3   OH2 6539   1.979   1.268   2.987
 2178TIP3    H1 6540   1.888   1.237   2.993
 2178TIP3    H2 6541   2.031   1.188   2.981
 2179TIP3   OH2 6542   1.790   1.163   2.641
 2179TIP3    H1 6543   1.817   1.215   2.565
 2179TIP3    H2 6544   1.755   1.227   2.703
 2180TIP3   OH2 6545   2.445   1.309   2.877
 2180TIP3    H1 6546   2.493   1.356   2.810
 2180TIP3    H2 6547   2.481   1.341   2.960
 2181TIP3   OH2 6548   2.957   1.457   2.855
 2181TIP3    H1 6549   2.961   1.423   2.766
 2181TIP3    H2 6550   2.956   1.379   2.911
 2182TIP3   OH2 6551   3.006   1.394   2.423
 2182TIP3    H1 6552   2.926   1.441   2.443
 2182TIP3    H2 6553   2.994   1.307   2.463
 2183TIP3   OH2 6554   1.481   2.736   2.409
 2183TIP3    H1 6555   1.396   2.702   2.379
 2183TIP3    H2 6556   1.481   2.827   2.380
 2184TIP3   OH2 6557   1.901   1.301   2.406
 2184TIP3    H1 6558   1.946   1.241   2.346
 2184TIP3    H2 6559   1.971   1.358   2.439
 2185TIP3   OH2 6560   2.394   1.494   2.501
 2185TIP3    H1 6561   2.453   1.444   2.556
 2185TIP3    H2 6562   2.408   1.585   2.526
 2186TIP3   OH2 6563   2.266   2.898   1.995
 2186TIP3    H1 6564   2.351   2.924   1.960
 2186TIP3    H2 6565   2.240   2.822   1.941
 2187TIP3   OH2 6566   2.984   3.036   2.093
 2187TIP3    H1 6567   2.976   2.941   2.087
 2187TIP3    H2 6568   2.937   3.069   2.017
 2188TIP3   OH2 6569   2.194   1.547   3.872
 2188TIP3    H1 6570   2.159   1.480   3.930
 2188TIP3    H2 6571   2.286   1.555   3.897
 2189TIP3   OH2 6572   2.444   1.555   3.993
 2189TIP3    H1 6573   2.526   1.535   3.948
 2189TIP3    H2 6574   2.436   1.486   4.059
 2190TIP3   OH2 6575   1.568   2.739   2.056
 2190TIP3    H1 6576   1.574   2.750   2.151
 2190TIP3    H2 6577   1.650   2.695   2.032
 2191TIP3   OH2 6578   3.273   1.637   3.783
 2191TIP3    H1 6579   3.286   1.609   3.874
 2191TIP3    H2 6580   3.359   1.631   3.743
 2192TIP3   OH2 6581   4.469   2.556   2.033
 2192TIP3    H1 6582   4.440   2.644   2.009
 2192TIP3    H2 6583   4.398   2.499   2.005
 2193TIP3   OH2 6584   4.468   2.553   2.445
 2193TIP3    H1 6585   4.515   2.534   2.526
 2193TIP3    H2 6586   4.426   2.470   2.422
 2194TIP3   OH2 6587   3.760   2.431   2.814
 2194TIP3    H1 6588   3.801   2.364   2.870
 2194TIP3    H2 6589   3.829   2.494   2.798
 2195TIP3   OH2 6590   4.729   2.857   2.122
 2195TIP3    H1 6591   4.717   2.792   2.192
 2195TIP3    H2 6592   4.754   2.937   2.168
 2196TIP3   OH2 6593   3.752   2.846   2.492
 2196TIP3    H1 6594   3.737   2.752   2.503
 2196TIP3    H2 6595   3.847   2.853   2.477
 2197TIP3   OH2 6596   3.445   2.050   2.279
 2197TIP3    H1 6597   3.403   2.133   2.303
 2197TIP3    H2 6598   3.375   2.000   2.237
 2198TIP3   OH2 6599   3.513   2.346   2.478
 2198TIP3    H1 6600   3.562   2.271   2.512
 2198TIP3    H2 6601   3.579   2.401   2.436
 2199TIP3   OH2 6602   4.377   3.302   2.126
 2199TIP3    H1 6603   4.413   3.233   2.070
 2199TIP3    H2 6604   4.359   3.258   2.209
 2200TIP3   OH2 6605   4.272   2.773   2.474
 2200TIP3    H1 6606   4.317   2.698   2.434
 2200TIP3    H2 6607   4.343   2.828   2.508
 2201TIP3   OH2 6608   5.296   2.098   2.470
 2201TIP3    H1 6609   5.315   2.182   2.511
 2201TIP3    H2 6610   5.324   2.109   2.379
 2202TIP3   OH2 6611   4.684   2.266   2.494
 2202TIP3    H1 6612   4.722   2.182   2.519
 2202TIP3    H2 6613   4.647   2.250   2.407
 2203TIP3   OH2 6614   4.034   1.928   2.457
 2203TIP3    H1 6615   4.013   2.001   2.399
 2203TIP3    H2 6616   3.981   1.855   2.424
 2204TIP3   OH2 6617   4.729   2.024   2.086
 2204TIP3    H1 6618   4.795   2.015   2.155
 2204TIP3    H2 6619   4.778   2.059   2.011
 2205TIP3   OH2 6620   3.653   2.133   2.586
 2205TIP3    H1 6621   3.737   2.118   2.631
 2205TIP3    H2 6622   3.659   2.082   2.506
 2206TIP3   OH2 6623   4.094   2.333   2.374
 2206TIP3    H1 6624   4.186   2.313   2.385
 2206TIP3    H2 6625   4.055   2.252   2.343
 2207TIP3   OH2 6626   5.355   2.313   2.647
 2207TIP3    H1 6627   5.269   2.353   2.632
 2207TIP3    H2 6628   5.387   2.352   2.728
 2208TIP3   OH2 6629   4.021   1.921   2.901
 2208TIP3    H1 6630   3.967   1.955   2.830
 2208TIP3    H2 6631   3.970   1.938   2.980
 2209TIP3   OH2 6632   4.366   2.774   1.893
 2209TIP3    H1 6633   4.324   2.750   1.811
 2209TIP3    H2 6634   4.315   2.849   1.924
 2210TIP3   OH2 6635   4.115   2.688   2.684
 2210TIP3    H1 6636   4.056   2.757   2.715
 2210TIP3    H2 6637   4.161   2.728   2.611
 2211TIP3   OH2 6638   4.902   2.039   2.298
 2211TIP3    H1 6639   4.862   2.018   2.382
 2211TIP3    H2 6640   4.958   2.114   2.316
 2212TIP3   OH2 6641   3.900   2.031   2.678
 2212TIP3    H1 6642   3.955   2.105   2.702
 2212TIP3    H2 6643   3.946   1.990   2.605
 2213TIP3   OH2 6644   3.336   2.596   2.028
 2213TIP3    H1 6645   3.295   2.615   1.944
 2213TIP3    H2 6646   3.360   2.681   2.063
 2214TIP3   OH2 6647   4.777   3.101   2.265
 2214TIP3    H1 6648   4.691   3.093   2.307
 2214TIP3    H2 6649   4.774   3.186   2.220
 2215TIP3   OH2 6650   5.094   1.985   2.635
 2215TIP3    H1 6651   5.007   2.012   2.604
 2215TIP3    H2 6652   5.154   2.016   2.567
 2216TIP3   OH2 6653   4.362   1.621   2.627
 2216TIP3    H1 6654   4.352   1.529   2.649
 2216TIP3    H2 6655   4.287   1.665   2.668
 2217TIP3   OH2 6656   4.481   3.137   1.927
 2217TIP3    H1 6657   4.532   3.057   1.914
 2217TIP3    H2 6658   4.537   3.207   1.895
 2218TIP3   OH2 6659   4.625   2.912   1.870
 2218TIP3    H1 6660   4.561   2.842   1.858
 2218TIP3    H2 6661   4.671   2.888   1.951
 2219TIP3   OH2 6662   5.013   2.998   2.609
 2219TIP3    H1 6663   4.997   2.924   2.551
 2219TIP3    H2 6664   4.996   3.075   2.555
 2220TIP3   OH2 6665   4.297   2.399   1.878
 2220TIP3    H1 6666   4.216   2.447   1.861
 2220TIP3    H2 6667   4.344   2.399   1.794
 2221TIP3   OH2 6668   4.263   2.198   1.580
 2221TIP3    H1 6669   4.328   2.248   1.629
 2221TIP3    H2 6670   4.314   2.133   1.532
 2222TIP3   OH2 6671   5.196   2.652   2.469
 2222TIP3    H1 6672   5.112   2.698   2.472
 2222TIP3    H2 6673   5.230   2.669   2.382
 2223TIP3   OH2 6674   4.652   2.485   1.843
 2223TIP3    H1 6675   4.597   2.514   1.916
 2223TIP3    H2 6676   4.735   2.461   1.883
 2224TIP3   OH2 6677   4.881   2.518   2.774
 2224TIP3    H1 6678   4.882   2.600   2.823
 2224TIP3    H2 6679   4.798   2.519   2.727
 2225TIP3   OH2 6680   3.881   2.471   2.255
 2225TIP3    H1 6681   3.842   2.414   2.188
 2225TIP3    H2 6682   3.957   2.422   2.286
 2226TIP3   OH2 6683   4.013   2.882   2.391
 2226TIP3    H1 6684   3.996   2.863   2.299
 2226TIP3    H2 6685   4.102   2.851   2.406
 2227TIP3   OH2 6686   4.003   2.449   2.610
 2227TIP3    H1 6687   4.039   2.420   2.525
 2227TIP3    H2 6688   4.048   2.531   2.628
 2228TIP3   OH2 6689   4.543   3.091   2.403
 2228TIP3    H1 6690   4.524   3.174   2.446
 2228TIP3    H2 6691   4.522   3.025   2.470
 2229TIP3   OH2 6692   4.486   2.346   1.673
 2229TIP3    H1 6693   4.545   2.404   1.722
 2229TIP3    H2 6694   4.512   2.357   1.581
 2230TIP3   OH2 6695   4.233   3.016   1.940
 2230TIP3    H1 6696   4.316   3.065   1.943
 2230TIP3    H2 6697   4.173   3.073   1.894
 2231TIP3   OH2 6698   4.999   1.579   1.727
 2231TIP3    H1 6699   4.920   1.599   1.778
 2231TIP3    H2 6700   5.013   1.657   1.673
 2232TIP3   OH2 6701   3.753   2.318   2.050
 2232TIP3    H1 6702   3.680   2.366   2.012
 2232TIP3    H2 6703   3.717   2.232   2.070
 2233TIP3   OH2 6704   4.813   2.950   1.277
 2233TIP3    H1 6705   4.813   3.044   1.261
 2233TIP3    H2 6706   4.903   2.922   1.259
 2234TIP3   OH2 6707   3.506   2.708   2.986
 2234TIP3    H1 6708   3.442   2.697   2.915
 2234TIP3    H2 6709   3.539   2.619   3.001
 2235TIP3   OH2 6710   3.375   2.906   2.618
 2235TIP3    H1 6711   3.467   2.925   2.636
 2235TIP3    H2 6712   3.328   2.982   2.651
 2236TIP3   OH2 6713   5.243   3.363   2.677
 2236TIP3    H1 6714   5.247   3.268   2.688
 2236TIP3    H2 6715   5.163   3.390   2.721
 2237TIP3   OH2 6716   4.121   3.252   1.755
 2237TIP3    H1 6717   4.073   3.233   1.675
 2237TIP3    H2 6718   4.087   3.337   1.784
 2238TIP3   OH2 6719   3.554   3.101   2.132
 2238TIP3    H1 6720   3.594   3.095   2.219
 2238TIP3    H2 6721   3.503   3.021   2.124
 2239TIP3   OH2 6722   4.320   3.171   1.387
 2239TIP3    H1 6723   4.372   3.100   1.351
 2239TIP3    H2 6724   4.355   3.184   1.475
 2240TIP3   OH2 6725   4.374   3.218   1.655
 2240TIP3    H1 6726   4.289   3.223   1.697
 2240TIP3    H2 6727   4.433   3.186   1.723
 2241TIP3   OH2 6728   5.130   2.480   2.948
 2241TIP3    H1 6729   5.048   2.491   2.900
 2241TIP3    H2 6730   5.148   2.386   2.943
 2242TIP3   OH2 6731   4.127   1.710   2.754
 2242TIP3    H1 6732   4.043   1.678   2.722
 2242TIP3    H2 6733   4.106   1.790   2.802
 2243TIP3   OH2 6734   4.668   1.824   2.952
 2243TIP3    H1 6735   4.737   1.803   3.015
 2243TIP3    H2 6736   4.586   1.809   3.001
 2244TIP3   OH2 6737   4.890   2.255   2.867
 2244TIP3    H1 6738   4.846   2.251   2.952
 2244TIP3    H2 6739   4.872   2.343   2.835
 2245TIP3   OH2 6740   4.566   2.350   1.412
 2245TIP3    H1 6741   4.523   2.345   1.326
 2245TIP3    H2 6742   4.647   2.399   1.396
 2246TIP3   OH2 6743   4.276   1.751   1.724
 2246TIP3    H1 6744   4.241   1.757   1.813
 2246TIP3    H2 6745   4.237   1.672   1.688
 2247TIP3   OH2 6746   4.063   2.235   2.769
 2247TIP3    H1 6747   4.014   2.250   2.850
 2247TIP3    H2 6748   4.041   2.311   2.714
 2248TIP3   OH2 6749   3.944   2.118   2.283
 2248TIP3    H1 6750   3.854   2.097   2.309
 2248TIP3    H2 6751   3.953   2.082   2.195
 2249TIP3   OH2 6752   4.428   2.197   2.013
 2249TIP3    H1 6753   4.379   2.269   1.972
 2249TIP3    H2 6754   4.486   2.165   1.943
 2250TIP3   OH2 6755   4.623   2.458   3.086
 2250TIP3    H1 6756   4.596   2.392   3.149
 2250TIP3    H2 6757   4.713   2.479   3.111
 2251TIP3   OH2 6758   4.591   2.215   2.242
 2251TIP3    H1 6759   4.524   2.242   2.178
 2251TIP3    H2 6760   4.634   2.140   2.201
 2252TIP3   OH2 6761   3.891   2.257   2.988
 2252TIP3    H1 6762   3.958   2.306   3.037
 2252TIP3    H2 6763   3.880   2.176   3.038
 2253TIP3   OH2 6764   3.939   1.736   1.695
 2253TIP3    H1 6765   3.928   1.738   1.790
 2253TIP3    H2 6766   3.861   1.781   1.661
 2254TIP3   OH2 6767   3.481   1.774   2.565
 2254TIP3    H1 6768   3.554   1.810   2.615
 2254TIP3    H2 6769   3.518   1.756   2.478
 2255TIP3   OH2 6770   3.414   1.756   2.073
 2255TIP3    H1 6771   3.457   1.791   1.996
 2255TIP3    H2 6772   3.351   1.824   2.098
 2256TIP3   OH2 6773   4.618   2.464   2.666
 2256TIP3    H1 6774   4.646   2.397   2.604
 2256TIP3    H2 6775   4.580   2.414   2.739
 2257TIP3   OH2 6776   4.298   1.916   2.339
 2257TIP3    H1 6777   4.219   1.919   2.393
 2257TIP3    H2 6778   4.370   1.911   2.401
 2258TIP3   OH2 6779   3.705   1.997   2.351
 2258TIP3    H1 6780   3.616   2.004   2.316
 2258TIP3    H2 6781   3.732   1.908   2.330
 2259TIP3   OH2 6782   3.963   1.992   2.041
 2259TIP3    H1 6783   4.056   2.007   2.026
 2259TIP3    H2 6784   3.921   2.012   1.957
 2260TIP3   OH2 6785   4.764   2.003   2.543
 2260TIP3    H1 6786   4.744   2.019   2.635
 2260TIP3    H2 6787   4.695   1.944   2.513
 2261TIP3   OH2 6788   3.835   2.020   1.802
 2261TIP3    H1 6789   3.768   1.974   1.751
 2261TIP3    H2 6790   3.888   2.065   1.736
 2262TIP3   OH2 6791   4.953   3.700   2.756
 2262TIP3    H1 6792   4.945   3.734   2.667
 2262TIP3    H2 6793   4.928   3.773   2.812
 2263TIP3   OH2 6794   4.359   2.273   2.444
 2263TIP3    H1 6795   4.429   2.227   2.397
 2263TIP3    H2 6796   4.358   2.232   2.531
 2264TIP3   OH2 6797   3.858   1.750   2.331
 2264TIP3    H1 6798   3.826   1.675   2.381
 2264TIP3    H2 6799   3.886   1.713   2.247
 2265TIP3   OH2 6800   4.330   2.178   2.715
 2265TIP3    H1 6801   4.242   2.208   2.737
 2265TIP3    H2 6802   4.388   2.231   2.770
 2266TIP3   OH2 6803   4.064   2.544   1.825
 2266TIP3    H1 6804   3.990   2.486   1.804
 2266TIP3    H2 6805   4.042   2.582   1.910
 2267TIP3   OH2 6806   4.960   2.790   2.435
 2267TIP3    H1 6807   4.991   2.840   2.360
 2267TIP3    H2 6808   4.877   2.752   2.405
 2268TIP3   OH2 6809   4.527   1.856   1.714
 2268TIP3    H1 6810   4.434   1.836   1.715
 2268TIP3    H2 6811   4.531   1.951   1.730
 2269TIP3   OH2 6812   4.509   2.827   2.873
 2269TIP3    H1 6813   4.581   2.806   2.932
 2269TIP3    H2 6814   4.442   2.866   2.930
 2270TIP3   OH2 6815   4.590   2.116   1.795
 2270TIP3    H1 6816   4.685   2.122   1.806
 2270TIP3    H2 6817   4.566   2.194   1.745
 2271TIP3   OH2 6818   3.765   2.559   2.492
 2271TIP3    H1 6819   3.800   2.541   2.404
 2271TIP3    H2 6820   3.824   2.514   2.551
 2272TIP3   OH2 6821   4.215   2.703   1.661
 2272TIP3    H1 6822   4.168   2.786   1.661
 2272TIP3    H2 6823   4.160   2.645   1.715
 2273TIP3   OH2 6824   3.613   2.453   3.165
 2273TIP3    H1 6825   3.683   2.481   3.223
 2273TIP3    H2 6826   3.657   2.430   3.083
 2274TIP3   OH2 6827   4.386   2.593   3.122
 2274TIP3    H1 6828   4.339   2.577   3.040
 2274TIP3    H2 6829   4.474   2.558   3.107
 2275TIP3   OH2 6830   4.640   3.141   2.714
 2275TIP3    H1 6831   4.545   3.130   2.710
 2275TIP3    H2 6832   4.656   3.187   2.796
 2276TIP3   OH2 6833   5.015   2.206   1.621
 2276TIP3    H1 6834   4.959   2.159   1.559
 2276TIP3    H2 6835   5.018   2.296   1.587
 2277TIP3   OH2 6836   5.258   3.075   2.703
 2277TIP3    H1 6837   5.162   3.067   2.699
 2277TIP3    H2 6838   5.288   3.045   2.617
 2278TIP3   OH2 6839   4.742   3.023   1.544
 2278TIP3    H1 6840   4.711   2.956   1.604
 2278TIP3    H2 6841   4.755   2.977   1.461
 2279TIP3   OH2 6842   4.724   2.659   2.339
 2279TIP3    H1 6843   4.634   2.636   2.361
 2279TIP3    H2 6844   4.761   2.579   2.301
 2280TIP3   OH2 6845   3.869   2.889   2.136
 2280TIP3    H1 6846   3.867   2.967   2.079
 2280TIP3    H2 6847   3.778   2.877   2.163
 2281TIP3   OH2 6848   3.438   2.181   1.848
 2281TIP3    H1 6849   3.480   2.265   1.867
 2281TIP3    H2 6850   3.357   2.183   1.900
 2282TIP3   OH2 6851   3.978   2.647   2.060
 2282TIP3    H1 6852   3.951   2.736   2.081
 2282TIP3    H2 6853   3.946   2.594   2.133
 2283TIP3   OH2 6854   4.158   3.232   2.547
 2283TIP3    H1 6855   4.202   3.300   2.496
 2283TIP3    H2 6856   4.128   3.277   2.626
 2284TIP3   OH2 6857   3.786   3.119   1.984
 2284TIP3    H1 6858   3.700   3.123   2.026
 2284TIP3    H2 6859   3.818   3.209   1.988
 2285TIP3   OH2 6860   4.511   2.871   2.590
 2285TIP3    H1 6861   4.513   2.856   2.685
 2285TIP3    H2 6862   4.588   2.826   2.557
 2286TIP3   OH2 6863   4.500   2.756   1.441
 2286TIP3    H1 6864   4.553   2.730   1.516
 2286TIP3    H2 6865   4.412   2.722   1.460
 2287TIP3   OH2 6866   4.778   3.378   2.597
 2287TIP3    H1 6867   4.704   3.318   2.604
 2287TIP3    H2 6868   4.751   3.442   2.531
 2288TIP3   OH2 6869   4.827   3.225   1.253
 2288TIP3    H1 6870   4.861   3.293   1.195
 2288TIP3    H2 6871   4.750   3.264   1.294
 2289TIP3   OH2 6872   3.862   2.002   3.112
 2289TIP3    H1 6873   3.767   1.998   3.107
 2289TIP3    H2 6874   3.884   1.954   3.192
 2290TIP3   OH2 6875   4.671   2.675   1.638
 2290TIP3    H1 6876   4.657   2.617   1.714
 2290TIP3    H2 6877   4.766   2.682   1.631
 2291TIP3   OH2 6878   3.577   3.106   2.755
 2291TIP3    H1 6879   3.651   3.056   2.789
 2291TIP3    H2 6880   3.524   3.125   2.832
 2292TIP3   OH2 6881   3.858   2.725   1.444
 2292TIP3    H1 6882   3.867   2.633   1.417
 2292TIP3    H2 6883   3.837   2.721   1.537
 2293TIP3   OH2 6884   3.799   2.740   1.715
 2293TIP3    H1 6885   3.868   2.712   1.775
 2293TIP3    H2 6886   3.799   2.836   1.722
 2294TIP3   OH2 6887   3.535   2.433   1.925
 2294TIP3    H1 6888   3.468   2.476   1.978
 2294TIP3    H2 6889   3.551   2.493   1.852
 2295TIP3   OH2 6890   4.700   2.057   2.804
 2295TIP3    H1 6891   4.775   2.105   2.841
 2295TIP3    H2 6892   4.690   1.981   2.861
 2296TIP3   OH2 6893   4.582   1.807   1.986
 2296TIP3    H1 6894   4.562   1.826   1.895
 2296TIP3    H2 6895   4.624   1.887   2.019
 2297TIP3   OH2 6896   4.071   2.932   1.662
 2297TIP3    H1 6897   3.985   2.954   1.697
 2297TIP3    H2 6898   4.093   3.006   1.604
 2298TIP3   OH2 6899   4.244   2.002   2.079
 2298TIP3    H1 6900   4.306   2.072   2.055
 2298TIP3    H2 6901   4.261   1.986   2.172
 2299TIP3   OH2 6902   4.532   2.300   2.870
 2299TIP3    H1 6903   4.560   2.349   2.948
 2299TIP3    H2 6904   4.583   2.219   2.872
 2300TIP3   OH2 6905   4.401   1.708   2.173
 2300TIP3    H1 6906   4.377   1.784   2.226
 2300TIP3    H2 6907   4.467   1.739   2.112
 2301TIP3   OH2 6908   3.817   3.013   1.733
 2301TIP3    H1 6909   3.793   3.082   1.671
 2301TIP3    H2 6910   3.803   3.051   1.819
 2302TIP3   OH2 6911   3.915   1.722   1.974
 2302TIP3    H1 6912   3.904   1.812   2.004
 2302TIP3    H2 6913   4.009   1.706   1.979
 2303TIP3   OH2 6914   5.157   2.209   2.863
 2303TIP3    H1 6915   5.061   2.211   2.869
 2303TIP3    H2 6916   5.174   2.170   2.777
 2304TIP3   OH2 6917   4.816   2.403   2.245
 2304TIP3    H1 6918   4.739   2.348   2.256
 2304TIP3    H2 6919   4.884   2.361   2.297
 2305TIP3   OH2 6920   3.545   2.618   1.714
 2305TIP3    H1 6921   3.615   2.684   1.723
 2305TIP3    H2 6922   3.580   2.556   1.650
 2306TIP3   OH2 6923   3.467   1.904   1.849
 2306TIP3    H1 6924   3.477   1.999   1.855
 2306TIP3    H2 6925   3.392   1.892   1.790
 2307TIP3   OH2 6926   4.794   3.369   2.182
 2307TIP3    H1 6927   4.751   3.417   2.112
 2307TIP3    H2 6928   4.887   3.383   2.169
 2308TIP3   OH2 6929   3.865   1.626   2.716
 2308TIP3    H1 6930   3.834   1.595   2.631
 2308TIP3    H2 6931   3.854   1.551   2.774
 2309TIP3   OH2 6932   3.389   2.866   2.108
 2309TIP3    H1 6933   3.338   2.899   2.182
 2309TIP3    H2 6934   3.350   2.909   2.031
 2310TIP3   OH2 6935   4.016   2.926   1.340
 2310TIP3    H1 6936   3.967   2.855   1.383
 2310TIP3    H2 6937   4.091   2.882   1.300
 2311TIP3   OH2 6938   4.656   3.272   2.951
 2311TIP3    H1 6939   4.648   3.209   3.024
 2311TIP3    H2 6940   4.728   3.329   2.977
 2312TIP3   OH2 6941   4.454   2.964   1.266
 2312TIP3    H1 6942   4.487   2.899   1.328
 2312TIP3    H2 6943   4.514   2.959   1.191
 2313TIP3   OH2 6944   3.680   2.428   1.572
 2313TIP3    H1 6945   3.732   2.404   1.648
 2313TIP3    H2 6946   3.743   2.438   1.501
 2314TIP3   OH2 6947   4.345   2.867   3.155
 2314TIP3    H1 6948   4.274   2.876   3.219
 2314TIP3    H2 6949   4.363   2.773   3.153
 2315TIP3   OH2 6950   4.219   2.647   1.391
 2315TIP3    H1 6951   4.205   2.661   1.485
 2315TIP3    H2 6952   4.210   2.553   1.379
 2316TIP3   OH2 6953   4.795   2.909   2.754
 2316TIP3    H1 6954   4.873   2.944   2.710
 2316TIP3    H2 6955   4.730   2.979   2.745
 2317TIP3   OH2 6956   3.821   2.481   3.354
 2317TIP3    H1 6957   3.891   2.529   3.310
 2317TIP3    H2 6958   3.805   2.531   3.434
 2318TIP3   OH2 6959   3.859   2.361   1.781
 2318TIP3    H1 6960   3.835   2.329   1.868
 2318TIP3    H2 6961   3.902   2.286   1.739
 2319TIP3   OH2 6962   4.119   2.418   3.024
 2319TIP3    H1 6963   4.095   2.496   3.074
 2319TIP3    H2 6964   4.176   2.451   2.955
 2320TIP3   OH2 6965   3.988   2.166   1.627
 2320TIP3    H1 6966   3.958   2.171   1.536
 2320TIP3    H2 6967   4.083   2.172   1.621
 2321TIP3   OH2 6968   4.668   2.804   3.116
 2321TIP3    H1 6969   4.761   2.790   3.096
 2321TIP3    H2 6970   4.654   2.757   3.198
 2322TIP3   OH2 6971   4.792   2.470   1.302
 2322TIP3    H1 6972   4.775   2.427   1.218
 2322TIP3    H2 6973   4.765   2.561   1.288
 2323TIP3   OH2 6974   4.270   2.209   3.135
 2323TIP3    H1 6975   4.275   2.134   3.075
 2323TIP3    H2 6976   4.224   2.277   3.086
 2324TIP3   OH2 6977   4.280   2.002   2.940
 2324TIP3    H1 6978   4.307   2.040   2.857
 2324TIP3    H2 6979   4.189   1.977   2.926
 2325TIP3   OH2 6980   4.289   2.547   2.850
 2325TIP3    H1 6981   4.376   2.560   2.811
 2325TIP3    H2 6982   4.230   2.597   2.795
 2326TIP3   OH2 6983   4.884   2.493   3.194
 2326TIP3    H1 6984   4.930   2.411   3.207
 2326TIP3    H2 6985   4.951   2.555   3.166
 2327TIP3   OH2 6986   4.922   2.750   2.931
 2327TIP3    H1 6987   4.864   2.806   2.880
 2327TIP3    H2 6988   5.009   2.769   2.898
 2328TIP3   OH2 6989   4.148   2.290   3.377
 2328TIP3    H1 6990   4.072   2.234   3.391
 2328TIP3    H2 6991   4.179   2.266   3.290
 2329TIP3   OH2 6992   4.401   1.765   3.031
 2329TIP3    H1 6993   4.360   1.847   3.002
 2329TIP3    H2 6994   4.333   1.699   3.020
 2330TIP3   OH2 6995   4.528   2.250   3.237
 2330TIP3    H1 6996   4.516   2.243   3.332
 2330TIP3    H2 6997   4.441   2.234   3.201
 2331TIP3   OH2 6998   4.769   2.195   3.101
 2331TIP3    H1 6999   4.692   2.199   3.157
 2331TIP3    H2 7000   4.841   2.175   3.161
 2332TIP3   OH2 7001   5.006   2.165   3.254
 2332TIP3    H1 7002   5.019   2.070   3.263
 2332TIP3    H2 7003   4.999   2.196   3.344
 2333TIP3   OH2 7004   3.959   2.088   3.444
 2333TIP3    H1 7005   3.962   1.997   3.414
 2333TIP3    H2 7006   3.997   2.087   3.531
 2334TIP3   OH2 7007   4.481   1.759   3.294
 2334TIP3    H1 7008   4.549   1.693   3.288
 2334TIP3    H2 7009   4.445   1.765   3.205
 2335TIP3   OH2 7010   4.560   1.976   3.444
 2335TIP3    H1 7011   4.533   1.905   3.385
 2335TIP3    H2 7012   4.487   2.038   3.442
 2336TIP3   OH2 7013   3.803   3.218   1.546
 2336TIP3    H1 7014   3.894   3.201   1.522
 2336TIP3    H2 7015   3.768   3.266   1.471
 2337TIP3   OH2 7016   3.272   2.598   1.740
 2337TIP3    H1 7017   3.366   2.614   1.733
 2337TIP3    H2 7018   3.260   2.511   1.701
 2338TIP3   OH2 7019   3.186   3.196   2.186
 2338TIP3    H1 7020   3.121   3.141   2.143
 2338TIP3    H2 7021   3.230   3.137   2.248
 2339TIP3   OH2 7022   3.326   3.034   2.361
 2339TIP3    H1 7023   3.312   2.965   2.427
 2339TIP3    H2 7024   3.374   3.103   2.408
 2340TIP3   OH2 7025   5.061   3.432   2.166
 2340TIP3    H1 7026   5.077   3.465   2.255
 2340TIP3    H2 7027   5.112   3.491   2.110
 2341TIP3   OH2 7028   5.076   3.468   2.446
 2341TIP3    H1 7029   5.035   3.381   2.442
 2341TIP3    H2 7030   5.146   3.458   2.510
 2342TIP3   OH2 7031   5.129   3.155   3.022
 2342TIP3    H1 7032   5.055   3.163   3.081
 2342TIP3    H2 7033   5.170   3.242   3.022
 2343TIP3   OH2 7034   4.950   2.669   1.632
 2343TIP3    H1 7035   5.010   2.738   1.603
 2343TIP3    H2 7036   4.993   2.631   1.708
 2344TIP3   OH2 7037   5.075   2.527   1.834
 2344TIP3    H1 7038   5.007   2.490   1.891
 2344TIP3    H2 7039   5.138   2.566   1.894
 2345TIP3   OH2 7040   5.130   2.931   2.265
 2345TIP3    H1 7041   5.182   2.863   2.221
 2345TIP3    H2 7042   5.129   3.004   2.204
 2346TIP3   OH2 7043   4.951   3.216   2.454
 2346TIP3    H1 7044   4.885   3.263   2.506
 2346TIP3    H2 7045   4.901   3.175   2.384
 2347TIP3   OH2 7046   4.998   2.445   1.480
 2347TIP3    H1 7047   4.927   2.444   1.416
 2347TIP3    H2 7048   4.980   2.522   1.535
 2348TIP3   OH2 7049   4.863   2.099   1.421
 2348TIP3    H1 7050   4.813   2.141   1.351
 2348TIP3    H2 7051   4.848   2.005   1.408
 2349TIP3   OH2 7052   4.878   2.390   1.975
 2349TIP3    H1 7053   4.884   2.295   1.965
 2349TIP3    H2 7054   4.861   2.403   2.069
 2350TIP3   OH2 7055   3.503   2.461   2.727
 2350TIP3    H1 7056   3.497   2.429   2.637
 2350TIP3    H2 7057   3.596   2.459   2.747
 2351TIP3   OH2 7058   5.171   2.814   2.834
 2351TIP3    H1 7059   5.238   2.748   2.815
 2351TIP3    H2 7060   5.187   2.883   2.770
 2352TIP3   OH2 7061   5.344   2.602   2.828
 2352TIP3    H1 7062   5.269   2.562   2.873
 2352TIP3    H2 7063   5.417   2.545   2.850
 2353TIP3   OH2 7064   4.815   1.828   1.395
 2353TIP3    H1 7065   4.878   1.804   1.464
 2353TIP3    H2 7066   4.733   1.788   1.423
 2354TIP3   OH2 7067   4.877   2.112   1.859
 2354TIP3    H1 7068   4.921   2.028   1.872
 2354TIP3    H2 7069   4.924   2.152   1.785
 2355TIP3   OH2 7070   5.032   2.275   2.375
 2355TIP3    H1 7071   5.113   2.294   2.329
 2355TIP3    H2 7072   5.043   2.314   2.462
 2356TIP3   OH2 7073   5.102   2.427   2.603
 2356TIP3    H1 7074   5.028   2.457   2.655
 2356TIP3    H2 7075   5.134   2.505   2.559
 2357TIP3   OH2 7076   3.621   2.160   3.382
 2357TIP3    H1 7077   3.692   2.225   3.380
 2357TIP3    H2 7078   3.659   2.085   3.427
 2358TIP3   OH2 7079   5.562   2.028   3.149
 2358TIP3    H1 7080   5.619   1.964   3.106
 2358TIP3    H2 7081   5.523   2.078   3.078
 2359TIP3   OH2 7082   4.989   1.861   1.907
 2359TIP3    H1 7083   5.034   1.846   1.991
 2359TIP3    H2 7084   4.926   1.789   1.901
 2360TIP3   OH2 7085   3.691   1.842   2.733
 2360TIP3    H1 7086   3.751   1.767   2.738
 2360TIP3    H2 7087   3.749   1.917   2.721
 2361TIP3   OH2 7088   3.478   2.114   2.817
 2361TIP3    H1 7089   3.530   2.115   2.736
 2361TIP3    H2 7090   3.465   2.206   2.838
 2362TIP3   OH2 7091   5.415   2.145   2.953
 2362TIP3    H1 7092   5.332   2.186   2.977
 2362TIP3    H2 7093   5.390   2.071   2.898
 2363TIP3   OH2 7094   5.047   1.784   1.550
 2363TIP3    H1 7095   5.090   1.721   1.492
 2363TIP3    H2 7096   5.106   1.859   1.550
 2364TIP3   OH2 7097   3.467   1.613   2.300
 2364TIP3    H1 7098   3.379   1.604   2.337
 2364TIP3    H2 7099   3.455   1.670   2.224
 2365TIP3   OH2 7100   4.623   3.331   1.809
 2365TIP3    H1 7101   4.681   3.322   1.733
 2365TIP3    H2 7102   4.665   3.399   1.863
 2366TIP3   OH2 7103   3.683   1.679   3.118
 2366TIP3    H1 7104   3.633   1.680   3.200
 2366TIP3    H2 7105   3.625   1.719   3.054
 2367TIP3   OH2 7106   4.508   3.538   2.744
 2367TIP3    H1 7107   4.566   3.481   2.693
 2367TIP3    H2 7108   4.567   3.594   2.794
 2368TIP3   OH2 7109   5.324   1.905   2.840
 2368TIP3    H1 7110   5.237   1.900   2.800
 2368TIP3    H2 7111   5.358   1.816   2.832
 2369TIP3   OH2 7112   3.872   3.428   2.631
 2369TIP3    H1 7113   3.810   3.361   2.661
 2369TIP3    H2 7114   3.837   3.457   2.547
 2370TIP3   OH2 7115   4.252   3.442   2.401
 2370TIP3    H1 7116   4.176   3.454   2.344
 2370TIP3    H2 7117   4.268   3.529   2.437
 2371TIP3   OH2 7118   4.506   3.360   2.482
 2371TIP3    H1 7119   4.418   3.381   2.453
 2371TIP3    H2 7120   4.563   3.423   2.437
 2372TIP3   OH2 7121   4.699   3.536   2.381
 2372TIP3    H1 7122   4.698   3.625   2.345
 2372TIP3    H2 7123   4.732   3.482   2.310
 2373TIP3   OH2 7124   3.501   3.212   2.511
 2373TIP3    H1 7125   3.522   3.186   2.600
 2373TIP3    H2 7126   3.569   3.171   2.457
 2374TIP3   OH2 7127   3.693   3.083   2.369
 2374TIP3    H1 7128   3.704   3.000   2.415
 2374TIP3    H2 7129   3.781   3.121   2.367
 2375TIP3   OH2 7130   3.962   3.163   2.369
 2375TIP3    H1 7131   3.978   3.069   2.357
 2375TIP3    H2 7132   4.022   3.189   2.438
 2376TIP3   OH2 7133   4.533   1.829   2.473
 2376TIP3    H1 7134   4.493   1.756   2.521
 2376TIP3    H2 7135   4.601   1.788   2.420
 2377TIP3   OH2 7136   5.037   1.718   2.360
 2377TIP3    H1 7137   5.077   1.769   2.290
 2377TIP3    H2 7138   4.946   1.750   2.364
 2378TIP3   OH2 7139   5.149   1.808   2.128
 2378TIP3    H1 7140   5.218   1.750   2.098
 2378TIP3    H2 7141   5.184   1.896   2.114
 2379TIP3   OH2 7142   3.776   1.527   2.473
 2379TIP3    H1 7143   3.686   1.496   2.479
 2379TIP3    H2 7144   3.828   1.447   2.466
 2380TIP3   OH2 7145   3.593   1.420   2.128
 2380TIP3    H1 7146   3.615   1.474   2.052
 2380TIP3    H2 7147   3.553   1.482   2.190
 2381TIP3   OH2 7148   4.244   1.560   2.363
 2381TIP3    H1 7149   4.290   1.610   2.295
 2381TIP3    H2 7150   4.277   1.594   2.445
 2382TIP3   OH2 7151   4.749   1.715   2.343
 2382TIP3    H1 7152   4.759   1.682   2.254
 2382TIP3    H2 7153   4.750   1.637   2.398
 2383TIP3   OH2 7154   4.802   1.651   1.909
 2383TIP3    H1 7155   4.722   1.699   1.929
 2383TIP3    H2 7156   4.789   1.565   1.947
 2384TIP3   OH2 7157   3.277   2.992   1.892
 2384TIP3    H1 7158   3.192   2.957   1.867
 2384TIP3    H2 7159   3.275   3.083   1.863
 2385TIP3   OH2 7160   3.696   1.560   1.892
 2385TIP3    H1 7161   3.740   1.502   1.830
 2385TIP3    H2 7162   3.766   1.616   1.926
 2386TIP3   OH2 7163   4.191   1.750   1.988
 2386TIP3    H1 7164   4.251   1.701   2.045
 2386TIP3    H2 7165   4.204   1.842   2.012
 2387TIP3   OH2 7166   4.063   3.153   1.485
 2387TIP3    H1 7167   4.148   3.180   1.449
 2387TIP3    H2 7168   4.036   3.081   1.428
 2388TIP3   OH2 7169   4.777   3.292   1.580
 2388TIP3    H1 7170   4.770   3.197   1.572
 2388TIP3    H2 7171   4.732   3.327   1.503
 2389TIP3   OH2 7172   3.986   1.809   3.361
 2389TIP3    H1 7173   3.953   1.740   3.418
 2389TIP3    H2 7174   4.078   1.820   3.386
 2390TIP3   OH2 7175   4.238   1.813   3.479
 2390TIP3    H1 7176   4.320   1.791   3.436
 2390TIP3    H2 7177   4.228   1.746   3.547
 2391TIP3   OH2 7178   3.365   2.996   1.542
 2391TIP3    H1 7179   3.365   3.005   1.637
 2391TIP3    H2 7180   3.447   2.951   1.522
 2392TIP3   OH2 7181   5.069   1.893   3.271
 2392TIP3    H1 7182   5.084   1.864   3.361
 2392TIP3    H2 7183   5.154   1.888   3.228
 2393TIP3   OH2 7184   4.994   3.431   2.772
 2393TIP3    H1 7185   4.919   3.403   2.719
 2393TIP3    H2 7186   4.985   3.527   2.776
 2394TIP3   OH2 7187   6.186   2.728   2.007
 2394TIP3    H1 7188   6.270   2.755   1.971
 2394TIP3    H2 7189   6.158   2.656   1.952
 2395TIP3   OH2 7190   5.559   2.683   2.287
 2395TIP3    H1 7191   5.590   2.621   2.353
 2395TIP3    H2 7192   5.635   2.736   2.266
 2396TIP3   OH2 7193   5.543   3.105   1.989
 2396TIP3    H1 7194   5.530   3.011   1.995
 2396TIP3    H2 7195   5.638   3.115   1.979
 2397TIP3   OH2 7196   5.238   2.307   1.765
 2397TIP3    H1 7197   5.197   2.390   1.789
 2397TIP3    H2 7198   5.168   2.256   1.724
 2398TIP3   OH2 7199   5.305   2.607   1.968
 2398TIP3    H1 7200   5.354   2.530   1.996
 2398TIP3    H2 7201   5.370   2.665   1.928
 2399TIP3   OH2 7202   6.086   3.446   1.645
 2399TIP3    H1 7203   6.147   3.420   1.713
 2399TIP3    H2 7204   6.081   3.541   1.652
 2400TIP3   OH2 7205   6.022   2.965   1.941
 2400TIP3    H1 7206   6.078   2.898   1.980
 2400TIP3    H2 7207   6.081   3.038   1.924
 2401TIP3   OH2 7208   5.806   2.186   1.947
 2401TIP3    H1 7209   5.789   2.260   1.888
 2401TIP3    H2 7210   5.754   2.114   1.910
 2402TIP3   OH2 7211   5.446   2.390   2.060
 2402TIP3    H1 7212   5.527   2.373   2.107
 2402TIP3    H2 7213   5.453   2.337   1.980
 2403TIP3   OH2 7214   5.869   2.591   1.862
 2403TIP3    H1 7215   5.963   2.570   1.857
 2403TIP3    H2 7216   5.826   2.511   1.832
 2404TIP3   OH2 7217   5.763   2.158   2.400
 2404TIP3    H1 7218   5.723   2.200   2.324
 2404TIP3    H2 7219   5.713   2.192   2.475
 2405TIP3   OH2 7220   6.153   3.074   1.360
 2405TIP3    H1 7221   6.119   3.027   1.284
 2405TIP3    H2 7222   6.100   3.154   1.364
 2406TIP3   OH2 7223   5.880   2.946   2.183
 2406TIP3    H1 7224   5.830   3.019   2.221
 2406TIP3    H2 7225   5.923   2.985   2.107
 2407TIP3   OH2 7226   5.679   2.284   2.168
 2407TIP3    H1 7227   5.737   2.355   2.194
 2407TIP3    H2 7228   5.723   2.242   2.095
 2408TIP3   OH2 7229   5.743   3.162   2.276
 2408TIP3    H1 7230   5.731   3.251   2.242
 2408TIP3    H2 7231   5.664   3.145   2.327
 2409TIP3   OH2 7232   5.130   2.852   1.515
 2409TIP3    H1 7233   5.091   2.871   1.430
 2409TIP3    H2 7234   5.154   2.937   1.550
 2410TIP3   OH2 7235   6.021   2.597   1.342
 2410TIP3    H1 7236   5.970   2.677   1.336
 2410TIP3    H2 7237   6.102   2.617   1.295
 2411TIP3   OH2 7238   5.664   2.731   1.741
 2411TIP3    H1 7239   5.626   2.675   1.673
 2411TIP3    H2 7240   5.738   2.681   1.775
 2412TIP3   OH2 7241   5.801   3.142   1.876
 2412TIP3    H1 7242   5.772   3.130   1.785
 2412TIP3    H2 7243   5.872   3.079   1.887
 2413TIP3   OH2 7244   5.792   2.704   2.103
 2413TIP3    H1 7245   5.827   2.683   2.017
 2413TIP3    H2 7246   5.829   2.790   2.123
 2414TIP3   OH2 7247   6.269   3.431   1.855
 2414TIP3    H1 7248   6.253   3.523   1.875
 2414TIP3    H2 7249   6.324   3.400   1.927
 2415TIP3   OH2 7250   5.935   3.246   2.458
 2415TIP3    H1 7251   5.877   3.312   2.495
 2415TIP3    H2 7252   5.882   3.199   2.394
 2416TIP3   OH2 7253   5.690   2.825   2.542
 2416TIP3    H1 7254   5.695   2.914   2.576
 2416TIP3    H2 7255   5.598   2.801   2.551
 2417TIP3   OH2 7256   6.034   3.317   1.406
 2417TIP3    H1 7257   6.034   3.359   1.492
 2417TIP3    H2 7258   5.959   3.354   1.360
 2418TIP3   OH2 7259   5.735   3.424   2.512
 2418TIP3    H1 7260   5.707   3.432   2.421
 2418TIP3    H2 7261   5.654   3.402   2.560
 2419TIP3   OH2 7262   5.545   2.576   1.537
 2419TIP3    H1 7263   5.471   2.622   1.498
 2419TIP3    H2 7264   5.512   2.488   1.555
 2420TIP3   OH2 7265   5.327   2.967   2.463
 2420TIP3    H1 7266   5.258   2.953   2.398
 2420TIP3    H2 7267   5.360   2.879   2.483
 2421TIP3   OH2 7268   5.180   3.161   2.104
 2421TIP3    H1 7269   5.275   3.173   2.105
 2421TIP3    H2 7270   5.146   3.241   2.146
 2422TIP3   OH2 7271   6.123   3.403   2.327
 2422TIP3    H1 7272   6.102   3.492   2.357
 2422TIP3    H2 7273   6.059   3.347   2.370
 2423TIP3   OH2 7274   5.893   3.522   1.243
 2423TIP3    H1 7275   5.848   3.511   1.159
 2423TIP3    H2 7276   5.862   3.606   1.276
 2424TIP3   OH2 7277   5.350   3.358   1.621
 2424TIP3    H1 7278   5.394   3.352   1.706
 2424TIP3    H2 7279   5.299   3.277   1.615
 2425TIP3   OH2 7280   6.130   3.401   0.894
 2425TIP3    H1 7281   6.194   3.331   0.880
 2425TIP3    H2 7282   6.149   3.433   0.982
 2426TIP3   OH2 7283   6.147   3.454   1.171
 2426TIP3    H1 7284   6.059   3.481   1.199
 2426TIP3    H2 7285   6.170   3.383   1.232
 2427TIP3   OH2 7286   5.526   3.154   2.438
 2427TIP3    H1 7287   5.572   3.148   2.522
 2427TIP3    H2 7288   5.455   3.091   2.445
 2428TIP3   OH2 7289   5.904   1.934   2.236
 2428TIP3    H1 7290   5.809   1.934   2.223
 2428TIP3    H2 7291   5.923   2.021   2.272
 2429TIP3   OH2 7292   5.843   2.481   2.250
 2429TIP3    H1 7293   5.796   2.493   2.333
 2429TIP3    H2 7294   5.823   2.559   2.199
 2430TIP3   OH2 7295   5.729   2.375   1.765
 2430TIP3    H1 7296   5.640   2.346   1.785
 2430TIP3    H2 7297   5.746   2.341   1.677
 2431TIP3   OH2 7298   5.682   2.509   2.473
 2431TIP3    H1 7299   5.702   2.574   2.540
 2431TIP3    H2 7300   5.663   2.429   2.522
 2432TIP3   OH2 7301   5.714   1.967   1.190
 2432TIP3    H1 7302   5.710   1.970   1.286
 2432TIP3    H2 7303   5.651   2.031   1.160
 2433TIP3   OH2 7304   5.274   2.033   2.049
 2433TIP3    H1 7305   5.341   2.070   2.106
 2433TIP3    H2 7306   5.321   2.013   1.967
 2434TIP3   OH2 7307   5.210   2.013   1.562
 2434TIP3    H1 7308   5.255   2.047   1.485
 2434TIP3    H2 7309   5.147   2.082   1.585
 2435TIP3   OH2 7310   6.072   2.174   1.873
 2435TIP3    H1 7311   5.979   2.177   1.896
 2435TIP3    H2 7312   6.118   2.174   1.958
 2436TIP3   OH2 7313   5.497   2.244   1.830
 2436TIP3    H1 7314   5.408   2.252   1.798
 2436TIP3    H2 7315   5.522   2.154   1.807
 2437TIP3   OH2 7316   5.764   2.265   1.516
 2437TIP3    H1 7317   5.847   2.297   1.481
 2437TIP3    H2 7318   5.702   2.274   1.444
 2438TIP3   OH2 7319   5.608   2.283   1.298
 2438TIP3    H1 7320   5.547   2.231   1.245
 2438TIP3    H2 7321   5.658   2.334   1.234
 2439TIP3   OH2 7322   5.689   3.072   2.672
 2439TIP3    H1 7323   5.769   3.095   2.719
 2439TIP3    H2 7324   5.620   3.079   2.737
 2440TIP3   OH2 7325   6.125   2.483   1.893
 2440TIP3    H1 7326   6.141   2.406   1.838
 2440TIP3    H2 7327   6.139   2.453   1.982
 2441TIP3   OH2 7328   5.656   1.998   1.814
 2441TIP3    H1 7329   5.617   1.926   1.862
 2441TIP3    H2 7330   5.713   1.956   1.749
 2442TIP3   OH2 7331   6.161   2.413   2.153
 2442TIP3    H1 7332   6.089   2.392   2.212
 2442TIP3    H2 7333   6.217   2.472   2.203
 2443TIP3   OH2 7334   5.843   2.820   1.315
 2443TIP3    H1 7335   5.772   2.758   1.300
 2443TIP3    H2 7336   5.831   2.850   1.405
 2444TIP3   OH2 7337   6.242   3.045   2.441
 2444TIP3    H1 7338   6.212   3.096   2.517
 2444TIP3    H2 7339   6.224   3.102   2.366
 2445TIP3   OH2 7340   5.555   2.821   1.979
 2445TIP3    H1 7341   5.588   2.800   1.891
 2445TIP3    H2 7342   5.612   2.773   2.038
 2446TIP3   OH2 7343   5.990   2.967   1.138
 2446TIP3    H1 7344   5.949   3.053   1.143
 2446TIP3    H2 7345   5.939   2.913   1.198
 2447TIP3   OH2 7346   5.432   2.740   2.597
 2447TIP3    H1 7347   5.439   2.717   2.690
 2447TIP3    H2 7348   5.358   2.688   2.566
 2448TIP3   OH2 7349   6.093   2.871   2.659
 2448TIP3    H1 7350   6.024   2.811   2.631
 2448TIP3    H2 7351   6.172   2.840   2.613
 2449TIP3   OH2 7352   6.307   3.420   2.125
 2449TIP3    H1 7353   6.238   3.403   2.189
 2449TIP3    H2 7354   6.373   3.470   2.173
 2450TIP3   OH2 7355   5.663   3.146   1.624
 2450TIP3    H1 7356   5.662   3.224   1.569
 2450TIP3    H2 7357   5.572   3.131   1.648
 2451TIP3   OH2 7358   5.230   2.439   1.333
 2451TIP3    H1 7359   5.273   2.522   1.351
 2451TIP3    H2 7360   5.151   2.440   1.386
 2452TIP3   OH2 7361   5.789   2.906   1.567
 2452TIP3    H1 7362   5.754   2.994   1.579
 2452TIP3    H2 7363   5.743   2.853   1.631
 2453TIP3   OH2 7364   5.948   3.472   2.082
 2453TIP3    H1 7365   5.976   3.548   2.032
 2453TIP3    H2 7366   6.024   3.448   2.135
 2454TIP3   OH2 7367   5.584   3.374   1.477
 2454TIP3    H1 7368   5.497   3.380   1.516
 2454TIP3    H2 7369   5.617   3.463   1.477
 2455TIP3   OH2 7370   5.630   2.266   2.614
 2455TIP3    H1 7371   5.535   2.273   2.622
 2455TIP3    H2 7372   5.656   2.208   2.685
 2456TIP3   OH2 7373   5.377   3.359   2.239
 2456TIP3    H1 7374   5.426   3.296   2.292
 2456TIP3    H2 7375   5.391   3.443   2.284
 2457TIP3   OH2 7376   5.657   2.982   0.929
 2457TIP3    H1 7377   5.673   2.892   0.903
 2457TIP3    H2 7378   5.632   2.976   1.022
 2458TIP3   OH2 7379   5.597   2.991   1.201
 2458TIP3    H1 7380   5.672   2.963   1.253
 2458TIP3    H2 7381   5.594   3.086   1.212
 2459TIP3   OH2 7382   5.328   2.689   1.410
 2459TIP3    H1 7383   5.262   2.733   1.463
 2459TIP3    H2 7384   5.345   2.749   1.338
 2460TIP3   OH2 7385   5.867   3.207   1.161
 2460TIP3    H1 7386   5.777   3.223   1.192
 2460TIP3    H2 7387   5.883   3.279   1.099
 2461TIP3   OH2 7388   5.606   3.261   1.228
 2461TIP3    H1 7389   5.584   3.329   1.163
 2461TIP3    H2 7390   5.594   3.304   1.313
 2462TIP3   OH2 7391   5.704   1.983   1.467
 2462TIP3    H1 7392   5.696   2.073   1.497
 2462TIP3    H2 7393   5.797   1.961   1.480
 2463TIP3   OH2 7394   5.341   2.874   1.200
 2463TIP3    H1 7395   5.410   2.940   1.210
 2463TIP3    H2 7396   5.376   2.813   1.135
 2464TIP3   OH2 7397   5.262   2.162   1.337
 2464TIP3    H1 7398   5.274   2.257   1.342
 2464TIP3    H2 7399   5.187   2.151   1.278
 2465TIP3   OH2 7400   5.633   1.885   2.209
 2465TIP3    H1 7401   5.609   1.853   2.122
 2465TIP3    H2 7402   5.631   1.807   2.264
 2466TIP3   OH2 7403   5.185   3.121   1.596
 2466TIP3    H1 7404   5.136   3.157   1.671
 2466TIP3    H2 7405   5.147   3.164   1.520
 2467TIP3   OH2 7406   5.365   3.663   2.656
 2467TIP3    H1 7407   5.446   3.666   2.706
 2467TIP3    H2 7408   5.339   3.571   2.658
 2468TIP3   OH2 7409   5.824   3.604   2.699
 2468TIP3    H1 7410   5.912   3.571   2.717
 2468TIP3    H2 7411   5.792   3.549   2.628
 2469TIP3   OH2 7412   5.815   3.189   0.836
 2469TIP3    H1 7413   5.769   3.114   0.874
 2469TIP3    H2 7414   5.885   3.151   0.784
 2470TIP3   OH2 7415   0.038   3.470   2.528
 2470TIP3    H1 7416  -0.047   3.427   2.531
 2470TIP3    H2 7417   0.064   3.467   2.435
 2471TIP3   OH2 7418   5.485   3.060   2.860
 2471TIP3    H1 7419   5.503   2.966   2.866
 2471TIP3    H2 7420   5.400   3.066   2.818
 2472TIP3   OH2 7421   5.478   2.686   1.057
 2472TIP3    H1 7422   5.529   2.667   1.136
 2472TIP3    H2 7423   5.543   2.695   0.988
 2473TIP3   OH2 7424   6.102   3.147   2.647
 2473TIP3    H1 7425   6.040   3.179   2.581
 2473TIP3    H2 7426   6.089   3.052   2.647
 2474TIP3   OH2 7427   5.986   2.890   0.873
 2474TIP3    H1 7428   5.985   2.921   0.964
 2474TIP3    H2 7429   5.993   2.795   0.881
 2475TIP3   OH2 7430   5.608   2.800   2.859
 2475TIP3    H1 7431   5.688   2.772   2.814
 2475TIP3    H2 7432   5.637   2.828   2.945
 2476TIP3   OH2 7433   5.650   2.628   1.275
 2476TIP3    H1 7434   5.628   2.594   1.361
 2476TIP3    H2 7435   5.697   2.556   1.232
 2477TIP3   OH2 7436   5.923   2.688   2.543
 2477TIP3    H1 7437   5.843   2.740   2.533
 2477TIP3    H2 7438   5.963   2.688   2.456
 2478TIP3   OH2 7439   5.762   2.428   1.123
 2478TIP3    H1 7440   5.729   2.440   1.034
 2478TIP3    H2 7441   5.840   2.374   1.113
 2479TIP3   OH2 7442   6.044   2.493   2.689
 2479TIP3    H1 7443   6.065   2.420   2.630
 2479TIP3    H2 7444   6.004   2.559   2.632
 2480TIP3   OH2 7445   6.027   2.136   2.433
 2480TIP3    H1 7446   6.050   2.229   2.426
 2480TIP3    H2 7447   5.932   2.134   2.433
 2481TIP3   OH2 7448   6.154   2.899   2.209
 2481TIP3    H1 7449   6.174   2.823   2.154
 2481TIP3    H2 7450   6.066   2.883   2.243
 2482TIP3   OH2 7451   5.887   2.586   2.884
 2482TIP3    H1 7452   5.833   2.512   2.912
 2482TIP3    H2 7453   5.932   2.555   2.806
 2483TIP3   OH2 7454   6.138   1.922   2.554
 2483TIP3    H1 7455   6.099   1.997   2.508
 2483TIP3    H2 7456   6.082   1.848   2.531
 2484TIP3   OH2 7457   6.281   2.609   2.800
 2484TIP3    H1 7458   6.339   2.536   2.819
 2484TIP3    H2 7459   6.205   2.569   2.758
 2485TIP3   OH2 7460   5.774   2.339   2.939
 2485TIP3    H1 7461   5.779   2.252   2.899
 2485TIP3    H2 7462   5.810   2.326   3.027
 2486TIP3   OH2 7463   6.327   2.318   2.866
 2486TIP3    H1 7464   6.303   2.234   2.825
 2486TIP3    H2 7465   6.244   2.354   2.896
 2487TIP3   OH2 7466   5.598   3.454   1.036
 2487TIP3    H1 7467   5.691   3.449   1.015
 2487TIP3    H2 7468   5.559   3.505   0.965
 2488TIP3   OH2 7469   5.069   2.853   1.228
 2488TIP3    H1 7470   5.163   2.870   1.221
 2488TIP3    H2 7471   5.057   2.766   1.189
 2489TIP3   OH2 7472   4.983   3.448   1.671
 2489TIP3    H1 7473   4.917   3.395   1.627
 2489TIP3    H2 7474   5.027   3.388   1.731
 2490TIP3   OH2 7475   5.121   3.284   1.846
 2490TIP3    H1 7476   5.109   3.218   1.914
 2490TIP3    H2 7477   5.171   3.354   1.889
 2491TIP3   OH2 7478   5.297   2.711   2.222
 2491TIP3    H1 7479   5.287   2.680   2.132
 2491TIP3    H2 7480   5.391   2.711   2.238
 2492TIP3   OH2 7481   5.512   2.393   2.880
 2492TIP3    H1 7482   5.607   2.391   2.894
 2492TIP3    H2 7483   5.480   2.311   2.919
 2493TIP3   OH2 7484   5.470   2.106   2.231
 2493TIP3    H1 7485   5.525   2.028   2.236
 2493TIP3    H2 7486   5.532   2.177   2.213
 2494TIP3   OH2 7487   5.274   2.371   2.285
 2494TIP3    H1 7488   5.323   2.364   2.203
 2494TIP3    H2 7489   5.296   2.459   2.318
 2495TIP3   OH2 7490   5.262   1.866   1.786
 2495TIP3    H1 7491   5.175   1.861   1.825
 2495TIP3    H2 7492   5.252   1.924   1.711
 2496TIP3   OH2 7493   5.481   1.943   2.606
 2496TIP3    H1 7494   5.431   1.940   2.688
 2496TIP3    H2 7495   5.423   1.989   2.545
 2497TIP3   OH2 7496   5.521   3.374   2.679
 2497TIP3    H1 7497   5.426   3.365   2.671
 2497TIP3    H2 7498   5.536   3.380   2.774
 2498TIP3   OH2 7499   5.719   3.432   2.229
 2498TIP3    H1 7500   5.666   3.505   2.196
 2498TIP3    H2 7501   5.803   3.442   2.185
 2499TIP3   OH2 7502   6.106   3.665   2.392
 2499TIP3    H1 7503   6.160   3.669   2.471
 2499TIP3    H2 7504   6.160   3.707   2.325
 2500TIP3   OH2 7505   6.279   3.781   2.219
 2500TIP3    H1 7506   6.357   3.785   2.164
 2500TIP3    H2 7507   6.282   3.861   2.272
 2501TIP3   OH2 7508   5.383   3.674   2.273
 2501TIP3    H1 7509   5.294   3.694   2.247
 2501TIP3    H2 7510   5.404   3.739   2.340
 2502TIP3   OH2 7511   5.611   3.659   2.119
 2502TIP3    H1 7512   5.529   3.667   2.168
 2502TIP3    H2 7513   5.590   3.689   2.031
 2503TIP3   OH2 7514   6.001   3.688   1.918
 2503TIP3    H1 7515   5.930   3.700   1.854
 2503TIP3    H2 7516   6.009   3.774   1.960
 2504TIP3   OH2 7517   6.276   3.697   1.910
 2504TIP3    H1 7518   6.182   3.707   1.930
 2504TIP3    H2 7519   6.281   3.704   1.814
 2505TIP3   OH2 7520   5.294   3.461   1.992
 2505TIP3    H1 7521   5.315   3.434   2.081
 2505TIP3    H2 7522   5.366   3.427   1.939
 2506TIP3   OH2 7523   5.494   3.340   1.855
 2506TIP3    H1 7524   5.504   3.258   1.904
 2506TIP3    H2 7525   5.581   3.380   1.858
 2507TIP3   OH2 7526   5.761   3.425   1.874
 2507TIP3    H1 7527   5.783   3.332   1.863
 2507TIP3    H2 7528   5.813   3.453   1.949
 2508TIP3   OH2 7529   5.560   1.786   1.960
 2508TIP3    H1 7530   5.470   1.756   1.965
 2508TIP3    H2 7531   5.613   1.706   1.962
 2509TIP3   OH2 7532   5.382   1.673   1.614
 2509TIP3    H1 7533   5.406   1.728   1.539
 2509TIP3    H2 7534   5.345   1.734   1.678
 2510TIP3   OH2 7535   5.956   1.840   1.847
 2510TIP3    H1 7536   6.021   1.899   1.810
 2510TIP3    H2 7537   5.947   1.868   1.938
 2511TIP3   OH2 7538   5.073   3.248   1.382
 2511TIP3    H1 7539   4.987   3.214   1.355
 2511TIP3    H2 7540   5.073   3.339   1.353
 2512TIP3   OH2 7541   5.479   1.827   1.392
 2512TIP3    H1 7542   5.520   1.761   1.336
 2512TIP3    H2 7543   5.552   1.880   1.424
 2513TIP3   OH2 7544   5.976   1.967   1.498
 2513TIP3    H1 7545   6.039   1.903   1.532
 2513TIP3    H2 7546   6.031   2.034   1.458
 2514TIP3   OH2 7547   5.862   3.419   0.972
 2514TIP3    H1 7548   5.950   3.441   0.940
 2514TIP3    H2 7549   5.834   3.346   0.916
 2515TIP3   OH2 7550   5.771   2.064   2.844
 2515TIP3    H1 7551   5.732   1.994   2.896
 2515TIP3    H2 7552   5.860   2.074   2.878
 2516TIP3   OH2 7553   6.010   2.080   2.988
 2516TIP3    H1 7554   6.074   2.058   2.920
 2516TIP3    H2 7555   5.996   1.997   3.034
 2517TIP3   OH2 7556   5.160   3.249   1.030
 2517TIP3    H1 7557   5.162   3.269   1.124
 2517TIP3    H2 7558   5.244   3.205   1.014
 2518TIP3   OH2 7559   0.520   3.860   2.702
 2518TIP3    H1 7560   0.480   3.944   2.678
 2518TIP3    H2 7561   0.455   3.795   2.676
 2519TIP3   OH2 7562   0.521   3.853   3.106
 2519TIP3    H1 7563   0.563   3.839   3.190
 2519TIP3    H2 7564   0.477   3.770   3.086
 2520TIP3   OH2 7565   0.771   4.158   2.785
 2520TIP3    H1 7566   0.762   4.092   2.854
 2520TIP3    H2 7567   0.799   4.237   2.832
 2521TIP3   OH2 7568   0.390   4.585   2.797
 2521TIP3    H1 7569   0.442   4.527   2.741
 2521TIP3    H2 7570   0.428   4.575   2.884
 2522TIP3   OH2 7571   0.349   4.082   3.131
 2522TIP3    H1 7572   0.379   3.996   3.101
 2522TIP3    H2 7573   0.430   4.129   3.154
 2523TIP3   OH2 7574   1.340   3.396   3.129
 2523TIP3    H1 7575   1.359   3.481   3.168
 2523TIP3    H2 7576   1.376   3.402   3.040
 2524TIP3   OH2 7577   0.741   3.569   3.166
 2524TIP3    H1 7578   0.779   3.484   3.189
 2524TIP3    H2 7579   0.703   3.556   3.079
 2525TIP3   OH2 7580   0.146   3.272   3.109
 2525TIP3    H1 7581   0.101   3.299   3.029
 2525TIP3    H2 7582   0.105   3.189   3.132
 2526TIP3   OH2 7583   0.776   3.322   2.746
 2526TIP3    H1 7584   0.842   3.314   2.814
 2526TIP3    H2 7585   0.823   3.358   2.671
 2527TIP3   OH2 7586   0.222   3.686   2.977
 2527TIP3    H1 7587   0.300   3.653   3.020
 2527TIP3    H2 7588   0.185   3.610   2.932
 2528TIP3   OH2 7589   1.400   3.608   3.311
 2528TIP3    H1 7590   1.317   3.654   3.297
 2528TIP3    H2 7591   1.443   3.658   3.380
 2529TIP3   OH2 7592   0.072   3.214   3.528
 2529TIP3    H1 7593   0.027   3.257   3.455
 2529TIP3    H2 7594   0.015   3.228   3.604
 2530TIP3   OH2 7595   0.389   4.070   2.576
 2530TIP3    H1 7596   0.421   4.081   2.487
 2530TIP3    H2 7597   0.351   4.155   2.598
 2531TIP3   OH2 7598   0.263   4.063   3.394
 2531TIP3    H1 7599   0.218   4.147   3.395
 2531TIP3    H2 7600   0.300   4.057   3.306
 2532TIP3   OH2 7601   0.948   3.345   2.955
 2532TIP3    H1 7602   0.923   3.312   3.041
 2532TIP3    H2 7603   1.006   3.419   2.974
 2533TIP3   OH2 7604   6.453   3.346   3.333
 2533TIP3    H1 7605   6.504   3.423   3.311
 2533TIP3    H2 7606   6.451   3.293   3.253
 2534TIP3   OH2 7607   0.822   4.402   2.929
 2534TIP3    H1 7608   0.734   4.393   2.968
 2534TIP3    H2 7609   0.820   4.486   2.884
 2535TIP3   OH2 7610   1.135   3.291   3.296
 2535TIP3    H1 7611   1.048   3.314   3.264
 2535TIP3    H2 7612   1.195   3.319   3.228
 2536TIP3   OH2 7613   0.432   2.918   3.268
 2536TIP3    H1 7614   0.424   2.827   3.295
 2536TIP3    H2 7615   0.358   2.962   3.310
 2537TIP3   OH2 7616   0.538   4.445   2.611
 2537TIP3    H1 7617   0.584   4.363   2.594
 2537TIP3    H2 7618   0.592   4.512   2.570
 2538TIP3   OH2 7619   0.664   4.214   2.536
 2538TIP3    H1 7620   0.675   4.136   2.480
 2538TIP3    H2 7621   0.706   4.190   2.619
 2539TIP3   OH2 7622   1.052   4.301   3.276
 2539TIP3    H1 7623   1.039   4.226   3.217
 2539TIP3    H2 7624   1.036   4.378   3.221
 2540TIP3   OH2 7625   0.375   3.679   2.542
 2540TIP3    H1 7626   0.311   3.748   2.522
 2540TIP3    H2 7627   0.429   3.673   2.463
 2541TIP3   OH2 7628   0.339   3.493   2.240
 2541TIP3    H1 7629   0.404   3.545   2.288
 2541TIP3    H2 7630   0.391   3.428   2.193
 2542TIP3   OH2 7631   1.241   3.953   3.135
 2542TIP3    H1 7632   1.158   4.001   3.135
 2542TIP3    H2 7633   1.278   3.969   3.048
 2543TIP3   OH2 7634   0.704   3.795   2.510
 2543TIP3    H1 7635   0.650   3.821   2.585
 2543TIP3    H2 7636   0.786   3.765   2.549
 2544TIP3   OH2 7637   0.927   3.819   3.442
 2544TIP3    H1 7638   0.925   3.902   3.491
 2544TIP3    H2 7639   0.845   3.819   3.393
 2545TIP3   OH2 7640   6.458   3.737   2.948
 2545TIP3    H1 7641   6.465   3.730   2.853
 2545TIP3    H2 7642   6.547   3.723   2.980
 2546TIP3   OH2 7643   0.137   4.239   3.052
 2546TIP3    H1 7644   0.086   4.167   3.016
 2546TIP3    H2 7645   0.221   4.200   3.075
 2547TIP3   OH2 7646   0.225   3.786   3.258
 2547TIP3    H1 7647   0.212   3.709   3.203
 2547TIP3    H2 7648   0.141   3.798   3.302
 2548TIP3   OH2 7649   0.584   4.391   3.060
 2548TIP3    H1 7650   0.573   4.473   3.107
 2548TIP3    H2 7651   0.574   4.323   3.127
 2549TIP3   OH2 7652   0.554   3.647   2.336
 2549TIP3    H1 7653   0.612   3.707   2.383
 2549TIP3    H2 7654   0.576   3.659   2.243
 2550TIP3   OH2 7655   0.296   4.335   2.549
 2550TIP3    H1 7656   0.373   4.379   2.585
 2550TIP3    H2 7657   0.229   4.345   2.617
 2551TIP3   OH2 7658   1.043   2.880   2.387
 2551TIP3    H1 7659   0.965   2.899   2.440
 2551TIP3    H2 7660   1.056   2.958   2.334
 2552TIP3   OH2 7661   0.858   4.253   1.941
 2552TIP3    H1 7662   0.861   4.347   1.921
 2552TIP3    H2 7663   0.947   4.223   1.927
 2553TIP3   OH2 7664   1.286   4.661   3.336
 2553TIP3    H1 7665   1.291   4.566   3.348
 2553TIP3    H2 7666   1.206   4.687   3.382
 2554TIP3   OH2 7667   0.397   4.428   3.495
 2554TIP3    H1 7668   0.412   4.520   3.519
 2554TIP3    H2 7669   0.307   4.426   3.464
 2555TIP3   OH2 7670   0.146   4.566   2.418
 2555TIP3    H1 7671   0.116   4.555   2.328
 2555TIP3    H2 7672   0.146   4.661   2.432
 2556TIP3   OH2 7673   0.355   4.471   2.056
 2556TIP3    H1 7674   0.408   4.400   2.020
 2556TIP3    H2 7675   0.388   4.484   2.145
 2557TIP3   OH2 7676   0.410   4.520   2.326
 2557TIP3    H1 7677   0.326   4.517   2.373
 2557TIP3    H2 7678   0.473   4.482   2.386
 2558TIP3   OH2 7679   1.170   3.780   3.615
 2558TIP3    H1 7680   1.092   3.790   3.561
 2558TIP3    H2 7681   1.189   3.686   3.612
 2559TIP3   OH2 7682   0.212   3.017   3.392
 2559TIP3    H1 7683   0.139   2.998   3.333
 2559TIP3    H2 7684   0.178   3.086   3.449
 2560TIP3   OH2 7685   0.724   3.135   3.611
 2560TIP3    H1 7686   0.792   3.103   3.669
 2560TIP3    H2 7687   0.642   3.119   3.659
 2561TIP3   OH2 7688   0.936   3.554   3.534
 2561TIP3    H1 7689   0.901   3.551   3.623
 2561TIP3    H2 7690   0.919   3.644   3.505
 2562TIP3   OH2 7691   0.617   3.656   2.074
 2562TIP3    H1 7692   0.570   3.650   1.991
 2562TIP3    H2 7693   0.697   3.704   2.052
 2563TIP3   OH2 7694   0.327   3.052   2.379
 2563TIP3    H1 7695   0.300   3.053   2.471
 2563TIP3    H2 7696   0.292   2.971   2.344
 2564TIP3   OH2 7697   0.161   3.531   3.451
 2564TIP3    H1 7698   0.080   3.545   3.501
 2564TIP3    H2 7699   0.135   3.547   3.360
 2565TIP3   OH2 7700   0.077   3.456   2.913
 2565TIP3    H1 7701  -0.019   3.455   2.914
 2565TIP3    H2 7702   0.100   3.402   2.837
 2566TIP3   OH2 7703   0.501   3.490   2.683
 2566TIP3    H1 7704   0.450   3.559   2.640
 2566TIP3    H2 7705   0.559   3.456   2.614
 2567TIP3   OH2 7706   0.693   3.755   3.754
 2567TIP3    H1 7707   0.664   3.687   3.814
 2567TIP3    H2 7708   0.784   3.770   3.777
 2568TIP3   OH2 7709   0.647   3.512   2.915
 2568TIP3    H1 7710   0.583   3.536   2.848
 2568TIP3    H2 7711   0.692   3.436   2.878
 2569TIP3   OH2 7712   6.509   3.033   2.358
 2569TIP3    H1 7713   6.510   3.023   2.453
 2569TIP3    H2 7714   6.429   3.081   2.339
 2570TIP3   OH2 7715   0.664   3.768   3.332
 2570TIP3    H1 7716   0.694   3.702   3.269
 2570TIP3    H2 7717   0.632   3.717   3.406
 2571TIP3   OH2 7718   0.390   3.222   3.002
 2571TIP3    H1 7719   0.312   3.246   3.054
 2571TIP3    H2 7720   0.458   3.209   3.067
 2572TIP3   OH2 7721   0.072   3.266   2.707
 2572TIP3    H1 7722   0.167   3.267   2.715
 2572TIP3    H2 7723   0.052   3.335   2.644
 2573TIP3   OH2 7724   0.812   3.305   3.218
 2573TIP3    H1 7725   0.785   3.324   3.307
 2573TIP3    H2 7726   0.747   3.242   3.186
 2574TIP3   OH2 7727   6.379   3.292   2.381
 2574TIP3    H1 7728   6.292   3.323   2.356
 2574TIP3    H2 7729   6.438   3.333   2.317
 2575TIP3   OH2 7730   0.995   5.005   3.432
 2575TIP3    H1 7731   0.988   5.027   3.339
 2575TIP3    H2 7732   1.073   5.052   3.461
 2576TIP3   OH2 7733   0.429   3.572   3.109
 2576TIP3    H1 7734   0.496   3.522   3.061
 2576TIP3    H2 7735   0.422   3.528   3.194
 2577TIP3   OH2 7736   6.480   2.999   2.926
 2577TIP3    H1 7737   6.388   2.971   2.923
 2577TIP3    H2 7738   6.509   2.996   2.836
 2578TIP3   OH2 7739   0.408   3.467   3.370
 2578TIP3    H1 7740   0.320   3.492   3.396
 2578TIP3    H2 7741   0.466   3.518   3.426
 2579TIP3   OH2 7742   0.190   3.867   2.502
 2579TIP3    H1 7743   0.109   3.819   2.484
 2579TIP3    H2 7744   0.164   3.936   2.563
 2580TIP3   OH2 7745   1.004   4.093   3.100
 2580TIP3    H1 7746   1.038   4.141   3.025
 2580TIP3    H2 7747   0.923   4.053   3.068
 2581TIP3   OH2 7748   0.577   3.159   2.375
 2581TIP3    H1 7749   0.483   3.139   2.375
 2581TIP3    H2 7750   0.581   3.253   2.393
 2582TIP3   OH2 7751   0.523   4.185   3.516
 2582TIP3    H1 7752   0.597   4.193   3.575
 2582TIP3    H2 7753   0.488   4.274   3.508
 2583TIP3   OH2 7754   0.645   3.415   2.457
 2583TIP3    H1 7755   0.740   3.416   2.467
 2583TIP3    H2 7756   0.625   3.493   2.406
 2584TIP3   OH2 7757   0.304   4.006   2.296
 2584TIP3    H1 7758   0.266   4.094   2.308
 2584TIP3    H2 7759   0.283   3.960   2.377
 2585TIP3   OH2 7760   0.467   3.900   3.752
 2585TIP3    H1 7761   0.443   3.882   3.661
 2585TIP3    H2 7762   0.557   3.867   3.760
 2586TIP3   OH2 7763   0.667   4.445   3.395
 2586TIP3    H1 7764   0.571   4.441   3.399
 2586TIP3    H2 7765   0.692   4.497   3.471
 2587TIP3   OH2 7766   1.058   3.507   2.284
 2587TIP3    H1 7767   1.003   3.459   2.222
 2587TIP3    H2 7768   1.062   3.596   2.249
 2588TIP3   OH2 7769   1.300   4.378   3.365
 2588TIP3    H1 7770   1.205   4.366   3.360
 2588TIP3    H2 7771   1.332   4.348   3.280
 2589TIP3   OH2 7772   0.783   4.324   2.203
 2589TIP3    H1 7773   0.758   4.250   2.258
 2589TIP3    H2 7774   0.802   4.285   2.118
 2590TIP3   OH2 7775   0.772   3.959   3.003
 2590TIP3    H1 7776   0.682   3.937   3.026
 2590TIP3    H2 7777   0.808   3.879   2.965
 2591TIP3   OH2 7778   0.032   3.991   2.692
 2591TIP3    H1 7779   0.053   4.084   2.681
 2591TIP3    H2 7780   0.047   3.975   2.785
 2592TIP3   OH2 7781   0.247   4.487   3.221
 2592TIP3    H1 7782   0.292   4.568   3.199
 2592TIP3    H2 7783   0.199   4.507   3.302
 2593TIP3   OH2 7784   0.581   4.171   3.239
 2593TIP3    H1 7785   0.565   4.168   3.334
 2593TIP3    H2 7786   0.665   4.126   3.227
 2594TIP3   OH2 7787   0.551   4.058   2.108
 2594TIP3    H1 7788   0.602   4.036   2.187
 2594TIP3    H2 7789   0.462   4.027   2.128
 2595TIP3   OH2 7790   0.813   4.693   3.271
 2595TIP3    H1 7791   0.736   4.637   3.268
 2595TIP3    H2 7792   0.803   4.753   3.197
 2596TIP3   OH2 7793   0.878   4.527   1.911
 2596TIP3    H1 7794   0.930   4.598   1.873
 2596TIP3    H2 7795   0.800   4.571   1.946
 2597TIP3   OH2 7796   0.717   3.998   2.325
 2597TIP3    H1 7797   0.705   3.926   2.387
 2597TIP3    H2 7798   0.810   3.995   2.303
 2598TIP3   OH2 7799   6.412   4.034   2.066
 2598TIP3    H1 7800   6.450   3.951   2.035
 2598TIP3    H2 7801   6.430   4.034   2.160
 2599TIP3   OH2 7802   6.233   4.001   2.377
 2599TIP3    H1 7803   6.323   4.034   2.375
 2599TIP3    H2 7804   6.180   4.077   2.402
 2600TIP3   OH2 7805   0.735   3.373   3.477
 2600TIP3    H1 7806   0.817   3.415   3.504
 2600TIP3    H2 7807   0.732   3.292   3.527
 2601TIP3   OH2 7808   0.628   3.107   2.648
 2601TIP3    H1 7809   0.610   3.126   2.556
 2601TIP3    H2 7810   0.671   3.185   2.682
 2602TIP3   OH2 7811   0.164   4.234   2.319
 2602TIP3    H1 7812   0.191   4.307   2.375
 2602TIP3    H2 7813   0.154   4.273   2.232
 2603TIP3   OH2 7814   0.335   3.286   2.745
 2603TIP3    H1 7815   0.392   3.358   2.719
 2603TIP3    H2 7816   0.356   3.272   2.838
 2604TIP3   OH2 7817   0.585   3.602   3.535
 2604TIP3    H1 7818   0.616   3.646   3.614
 2604TIP3    H2 7819   0.636   3.522   3.530
 2605TIP3   OH2 7820   0.458   3.003   2.842
 2605TIP3    H1 7821   0.440   3.079   2.897
 2605TIP3    H2 7822   0.522   3.034   2.778
 2606TIP3   OH2 7823  -0.003   3.007   2.643
 2606TIP3    H1 7824  -0.010   3.100   2.665
 2606TIP3    H2 7825   0.091   2.989   2.639
 2607TIP3   OH2 7826   1.203   3.509   3.527
 2607TIP3    H1 7827   1.108   3.506   3.533
 2607TIP3    H2 7828   1.223   3.489   3.436
 2608TIP3   OH2 7829   0.863   3.705   2.909
 2608TIP3    H1 7830   0.788   3.647   2.920
 2608TIP3    H2 7831   0.933   3.664   2.960
 2609TIP3   OH2 7832   0.842   4.669   2.848
 2609TIP3    H1 7833   0.801   4.719   2.777
 2609TIP3    H2 7834   0.936   4.682   2.835
 2610TIP3   OH2 7835   6.437   2.924   3.419
 2610TIP3    H1 7836   6.444   2.954   3.329
 2610TIP3    H2 7837   6.398   2.837   3.413
 2611TIP3   OH2 7838   0.109   4.230   2.041
 2611TIP3    H1 7839   0.027   4.180   2.038
 2611TIP3    H2 7840   0.153   4.206   1.960
 2612TIP3   OH2 7841   0.721   4.575   3.631
 2612TIP3    H1 7842   0.727   4.503   3.693
 2612TIP3    H2 7843   0.798   4.629   3.649
 2613TIP3   OH2 7844   0.505   4.272   1.936
 2613TIP3    H1 7845   0.537   4.205   1.997
 2613TIP3    H2 7846   0.565   4.266   1.862
 2614TIP3   OH2 7847   0.356   4.155   3.745
 2614TIP3    H1 7848   0.370   4.183   3.655
 2614TIP3    H2 7849   0.423   4.089   3.761
 2615TIP3   OH2 7850   0.269   3.945   2.033
 2615TIP3    H1 7851   0.266   3.965   2.127
 2615TIP3    H2 7852   0.264   3.850   2.029
 2616TIP3   OH2 7853   0.831   4.222   3.422
 2616TIP3    H1 7854   0.910   4.250   3.377
 2616TIP3    H2 7855   0.768   4.294   3.408
 2617TIP3   OH2 7856   6.458   3.746   2.445
 2617TIP3    H1 7857   6.408   3.715   2.520
 2617TIP3    H2 7858   6.445   3.679   2.378
 2618TIP3   OH2 7859   0.141   3.658   3.686
 2618TIP3    H1 7860   0.137   3.744   3.728
 2618TIP3    H2 7861   0.186   3.674   3.603
 2619TIP3   OH2 7862   0.065   3.464   2.244
 2619TIP3    H1 7863   0.054   3.474   2.150
 2619TIP3    H2 7864   0.159   3.466   2.258
 2620TIP3   OH2 7865   0.707   4.112   3.798
 2620TIP3    H1 7866   0.779   4.082   3.742
 2620TIP3    H2 7867   0.716   4.060   3.878
 2621TIP3   OH2 7868   0.840   3.777   1.964
 2621TIP3    H1 7869   0.822   3.732   1.881
 2621TIP3    H2 7870   0.812   3.867   1.949
 2622TIP3   OH2 7871   0.349   3.491   3.772
 2622TIP3    H1 7872   0.357   3.414   3.716
 2622TIP3    H2 7873   0.277   3.541   3.733
 2623TIP3   OH2 7874   0.330   3.289   3.582
 2623TIP3    H1 7875   0.368   3.330   3.504
 2623TIP3    H2 7876   0.238   3.274   3.558
 2624TIP3   OH2 7877   0.382   3.843   3.505
 2624TIP3    H1 7878   0.424   3.786   3.441
 2624TIP3    H2 7879   0.355   3.920   3.454
 2625TIP3   OH2 7880   0.943   3.804   3.855
 2625TIP3    H1 7881   0.977   3.735   3.912
 2625TIP3    H2 7882   1.021   3.844   3.816
 2626TIP3   OH2 7883   0.958   4.057   3.595
 2626TIP3    H1 7884   0.904   4.115   3.542
 2626TIP3    H2 7885   1.048   4.073   3.564
 2627TIP3   OH2 7886   0.231   3.667   3.955
 2627TIP3    H1 7887   0.185   3.609   4.016
 2627TIP3    H2 7888   0.282   3.608   3.900
 2628TIP3   OH2 7889   0.469   3.086   3.697
 2628TIP3    H1 7890   0.423   3.155   3.650
 2628TIP3    H2 7891   0.431   3.004   3.665
 2629TIP3   OH2 7892   0.587   3.549   3.900
 2629TIP3    H1 7893   0.562   3.544   3.992
 2629TIP3    H2 7894   0.507   3.526   3.852
 2630TIP3   OH2 7895   0.833   3.494   3.778
 2630TIP3    H1 7896   0.752   3.499   3.829
 2630TIP3    H2 7897   0.895   3.450   3.836
 2631TIP3   OH2 7898   1.088   3.405   3.951
 2631TIP3    H1 7899   1.081   3.335   4.016
 2631TIP3    H2 7900   1.059   3.484   3.997
 2632TIP3   OH2 7901   0.542   3.061   3.954
 2632TIP3    H1 7902   0.603   2.987   3.953
 2632TIP3    H2 7903   0.514   3.071   3.864
 2633TIP3   OH2 7904   0.621   3.280   4.102
 2633TIP3    H1 7905   0.598   3.205   4.046
 2633TIP3    H2 7906   0.547   3.340   4.093
 2634TIP3   OH2 7907   1.107   4.735   2.830
 2634TIP3    H1 7908   1.129   4.772   2.916
 2634TIP3    H2 7909   1.163   4.784   2.769
 2635TIP3   OH2 7910   1.123   4.766   3.114
 2635TIP3    H1 7911   1.078   4.682   3.105
 2635TIP3    H2 7912   1.196   4.748   3.174
 2636TIP3   OH2 7913   1.173   4.456   3.684
 2636TIP3    H1 7914   1.102   4.465   3.748
 2636TIP3    H2 7915   1.218   4.540   3.685
 2637TIP3   OH2 7916   0.993   3.971   2.296
 2637TIP3    H1 7917   1.054   4.038   2.265
 2637TIP3    H2 7918   1.037   3.932   2.372
 2638TIP3   OH2 7919   1.120   3.831   2.498
 2638TIP3    H1 7920   1.055   3.791   2.556
 2638TIP3    H2 7921   1.187   3.865   2.558
 2639TIP3   OH2 7922   1.173   4.229   2.927
 2639TIP3    H1 7923   1.228   4.161   2.887
 2639TIP3    H2 7924   1.174   4.301   2.865
 2640TIP3   OH2 7925   0.986   4.521   3.123
 2640TIP3    H1 7926   0.917   4.565   3.173
 2640TIP3    H2 7927   0.940   4.479   3.051
 2641TIP3   OH2 7928   1.043   3.746   2.144
 2641TIP3    H1 7929   0.972   3.748   2.079
 2641TIP3    H2 7930   1.028   3.822   2.199
 2642TIP3   OH2 7931   0.904   3.396   2.086
 2642TIP3    H1 7932   0.856   3.438   2.015
 2642TIP3    H2 7933   0.894   3.302   2.069
 2643TIP3   OH2 7934   0.925   3.690   2.640
 2643TIP3    H1 7935   0.934   3.595   2.630
 2643TIP3    H2 7936   0.909   3.702   2.733
 2644TIP3   OH2 7937   1.211   4.114   3.498
 2644TIP3    H1 7938   1.277   4.046   3.482
 2644TIP3    H2 7939   1.229   4.181   3.432
 2645TIP3   OH2 7940   1.384   3.904   3.494
 2645TIP3    H1 7941   1.311   3.860   3.539
 2645TIP3    H2 7942   1.460   3.850   3.514
 2646TIP3   OH2 7943   0.864   3.121   2.046
 2646TIP3    H1 7944   0.929   3.103   2.114
 2646TIP3    H2 7945   0.783   3.084   2.080
 2647TIP3   OH2 7946   0.924   3.412   2.520
 2647TIP3    H1 7947   0.967   3.328   2.535
 2647TIP3    H2 7948   0.972   3.451   2.447
 2648TIP3   OH2 7949   1.079   3.580   3.038
 2648TIP3    H1 7950   1.160   3.600   2.991
 2648TIP3    H2 7951   1.091   3.617   3.125
 2649TIP3   OH2 7952   1.150   3.729   3.270
 2649TIP3    H1 7953   1.074   3.761   3.319
 2649TIP3    H2 7954   1.182   3.806   3.223
 2650TIP3   OH2 7955   1.557   3.279   3.786
 2650TIP3    H1 7956   1.643   3.241   3.767
 2650TIP3    H2 7957   1.557   3.362   3.738
 2651TIP3   OH2 7958   1.032   3.161   2.573
 2651TIP3    H1 7959   1.080   3.146   2.654
 2651TIP3    H2 7960   0.971   3.088   2.567
 2652TIP3   OH2 7961   1.461   3.460   3.609
 2652TIP3    H1 7962   1.370   3.490   3.615
 2652TIP3    H2 7963   1.461   3.402   3.532
 2653TIP3   OH2 7964   1.089   3.085   2.206
 2653TIP3    H1 7965   1.135   3.020   2.153
 2653TIP3    H2 7966   1.151   3.158   2.212
 2654TIP3   OH2 7967   0.674   4.632   2.472
 2654TIP3    H1 7968   0.726   4.621   2.393
 2654TIP3    H2 7969   0.718   4.701   2.521
 2655TIP3   OH2 7970   0.421   4.698   3.532
 2655TIP3    H1 7971   0.442   4.708   3.625
 2655TIP3    H2 7972   0.485   4.753   3.486
 2656TIP3   OH2 7973   0.600   4.865   3.405
 2656TIP3    H1 7974   0.672   4.817   3.363
 2656TIP3    H2 7975   0.644   4.925   3.464
 2657TIP3   OH2 7976   1.352   3.182   3.551
 2657TIP3    H1 7977   1.270   3.193   3.503
 2657TIP3    H2 7978   1.391   3.103   3.514
 2658TIP3   OH2 7979   0.313   4.726   3.079
 2658TIP3    H1 7980   0.233   4.701   3.033
 2658TIP3    H2 7981   0.307   4.821   3.089
 2659TIP3   OH2 7982   0.569   4.657   3.137
 2659TIP3    H1 7983   0.478   4.682   3.124
 2659TIP3    H2 7984   0.619   4.728   3.097
 2660TIP3   OH2 7985   0.761   4.844   3.045
 2660TIP3    H1 7986   0.750   4.931   3.006
 2660TIP3    H2 7987   0.789   4.788   2.973
 2661TIP3   OH2 7988   0.599   3.120   3.148
 2661TIP3    H1 7989   0.551   3.046   3.184
 2661TIP3    H2 7990   0.664   3.081   3.089
 2662TIP3   OH2 7991   1.084   3.028   3.027
 2662TIP3    H1 7992   1.123   3.076   2.954
 2662TIP3    H2 7993   0.990   3.047   3.022
 2663TIP3   OH2 7994   1.194   3.111   2.791
 2663TIP3    H1 7995   1.264   3.051   2.763
 2663TIP3    H2 7996   1.232   3.198   2.779
 2664TIP3   OH2 7997   6.340   2.820   3.144
 2664TIP3    H1 7998   6.303   2.834   3.057
 2664TIP3    H2 7999   6.408   2.753   3.130
 2665TIP3   OH2 8000   0.285   2.871   3.029
 2665TIP3    H1 8001   0.330   2.916   2.958
 2665TIP3    H2 8002   0.333   2.895   3.107
 2666TIP3   OH2 8003   0.802   3.008   3.000
 2666TIP3    H1 8004   0.816   2.970   2.913
 2666TIP3    H2 8005   0.801   2.932   3.059
 2667TIP3   OH2 8006   0.847   2.950   2.571
 2667TIP3    H1 8007   0.767   2.996   2.594
 2667TIP3    H2 8008   0.837   2.864   2.612
 2668TIP3   OH2 8009   6.331   2.801   2.532
 2668TIP3    H1 8010   6.302   2.861   2.464
 2668TIP3    H2 8011   6.395   2.851   2.583
 2669TIP3   OH2 8012   0.266   3.039   2.645
 2669TIP3    H1 8013   0.318   2.985   2.704
 2669TIP3    H2 8014   0.287   3.129   2.669
 2670TIP3   OH2 8015   0.092   4.489   2.154
 2670TIP3    H1 8016   0.178   4.498   2.115
 2670TIP3    H2 8017   0.050   4.417   2.107
 2671TIP3   OH2 8018   0.820   4.593   2.241
 2671TIP3    H1 8019   0.814   4.497   2.232
 2671TIP3    H2 8020   0.779   4.627   2.162
 2672TIP3   OH2 8021   0.053   3.116   4.074
 2672TIP3    H1 8022   0.047   3.022   4.092
 2672TIP3    H2 8023   0.146   3.135   4.079
 2673TIP3   OH2 8024   0.322   3.102   4.104
 2673TIP3    H1 8025   0.400   3.081   4.054
 2673TIP3    H2 8026   0.319   3.036   4.173
 2674TIP3   OH2 8027   1.037   4.732   3.436
 2674TIP3    H1 8028   0.962   4.702   3.385
 2674TIP3    H2 8029   1.025   4.827   3.443
 2675TIP3   OH2 8030   2.312   4.121   2.179
 2675TIP3    H1 8031   2.280   4.207   2.152
 2675TIP3    H2 8032   2.240   4.061   2.157
 2676TIP3   OH2 8033   2.311   4.112   2.596
 2676TIP3    H1 8034   2.357   4.089   2.677
 2676TIP3    H2 8035   2.270   4.030   2.568
 2677TIP3   OH2 8036   1.609   3.986   2.950
 2677TIP3    H1 8037   1.640   3.928   3.019
 2677TIP3    H2 8038   1.687   4.004   2.897
 2678TIP3   OH2 8039   2.568   4.417   2.271
 2678TIP3    H1 8040   2.556   4.349   2.338
 2678TIP3    H2 8041   2.594   4.495   2.320
 2679TIP3   OH2 8042   1.593   4.407   2.652
 2679TIP3    H1 8043   1.579   4.312   2.655
 2679TIP3    H2 8044   1.687   4.416   2.638
 2680TIP3   OH2 8045   1.283   3.606   2.428
 2680TIP3    H1 8046   1.245   3.690   2.452
 2680TIP3    H2 8047   1.211   3.557   2.388
 2681TIP3   OH2 8048   1.353   3.902   2.635
 2681TIP3    H1 8049   1.403   3.826   2.664
 2681TIP3    H2 8050   1.418   3.960   2.595
 2682TIP3   OH2 8051   2.225   4.862   2.282
 2682TIP3    H1 8052   2.256   4.795   2.221
 2682TIP3    H2 8053   2.210   4.815   2.364
 2683TIP3   OH2 8054   2.110   4.330   2.615
 2683TIP3    H1 8055   2.150   4.251   2.580
 2683TIP3    H2 8056   2.183   4.385   2.641
 2684TIP3   OH2 8057   3.127   3.651   2.617
 2684TIP3    H1 8058   3.145   3.735   2.657
 2684TIP3    H2 8059   3.156   3.660   2.526
 2685TIP3   OH2 8060   2.531   3.826   2.642
 2685TIP3    H1 8061   2.568   3.741   2.666
 2685TIP3    H2 8062   2.489   3.810   2.557
 2686TIP3   OH2 8063   1.862   3.491   2.612
 2686TIP3    H1 8064   1.848   3.562   2.549
 2686TIP3    H2 8065   1.813   3.417   2.576
 2687TIP3   OH2 8066   2.570   3.579   2.231
 2687TIP3    H1 8067   2.634   3.571   2.301
 2687TIP3    H2 8068   2.619   3.615   2.157
 2688TIP3   OH2 8069   1.500   3.688   2.729
 2688TIP3    H1 8070   1.582   3.671   2.775
 2688TIP3    H2 8071   1.508   3.638   2.647
 2689TIP3   OH2 8072   1.922   3.895   2.541
 2689TIP3    H1 8073   2.017   3.882   2.541
 2689TIP3    H2 8074   1.887   3.813   2.507
 2690TIP3   OH2 8075   3.178   3.867   2.795
 2690TIP3    H1 8076   3.103   3.922   2.769
 2690TIP3    H2 8077   3.147   3.820   2.873
 2691TIP3   OH2 8078   1.837   3.461   3.066
 2691TIP3    H1 8079   1.798   3.502   2.989
 2691TIP3    H2 8080   1.791   3.502   3.140
 2692TIP3   OH2 8081   2.208   4.338   2.038
 2692TIP3    H1 8082   2.165   4.312   1.956
 2692TIP3    H2 8083   2.155   4.411   2.070
 2693TIP3   OH2 8084   1.965   4.250   2.838
 2693TIP3    H1 8085   1.907   4.320   2.869
 2693TIP3    H2 8086   2.011   4.288   2.763
 2694TIP3   OH2 8087   2.744   3.601   2.439
 2694TIP3    H1 8088   2.716   3.566   2.523
 2694TIP3    H2 8089   2.799   3.676   2.461
 2695TIP3   OH2 8090   1.736   3.584   2.836
 2695TIP3    H1 8091   1.794   3.656   2.862
 2695TIP3    H2 8092   1.782   3.541   2.765
 2696TIP3   OH2 8093   1.798   4.455   2.933
 2696TIP3    H1 8094   1.780   4.542   2.897
 2696TIP3    H2 8095   1.721   4.433   2.984
 2697TIP3   OH2 8096   1.175   4.150   2.182
 2697TIP3    H1 8097   1.141   4.168   2.094
 2697TIP3    H2 8098   1.202   4.236   2.215
 2698TIP3   OH2 8099   2.618   4.663   2.416
 2698TIP3    H1 8100   2.532   4.654   2.456
 2698TIP3    H2 8101   2.614   4.747   2.370
 2699TIP3   OH2 8102   2.912   3.564   2.789
 2699TIP3    H1 8103   2.825   3.572   2.751
 2699TIP3    H2 8104   2.972   3.585   2.717
 2700TIP3   OH2 8105   2.177   3.196   2.739
 2700TIP3    H1 8106   2.210   3.120   2.788
 2700TIP3    H2 8107   2.111   3.235   2.797
 2701TIP3   OH2 8108   2.319   4.700   2.076
 2701TIP3    H1 8109   2.369   4.619   2.065
 2701TIP3    H2 8110   2.378   4.768   2.043
 2702TIP3   OH2 8111   2.460   4.472   2.021
 2702TIP3    H1 8112   2.390   4.407   2.014
 2702TIP3    H2 8113   2.508   4.446   2.100
 2703TIP3   OH2 8114   2.849   4.558   2.762
 2703TIP3    H1 8115   2.832   4.483   2.705
 2703TIP3    H2 8116   2.833   4.634   2.706
 2704TIP3   OH2 8117   2.139   3.958   2.029
 2704TIP3    H1 8118   2.058   4.005   2.010
 2704TIP3    H2 8119   2.186   3.957   1.946
 2705TIP3   OH2 8120   2.101   3.758   1.729
 2705TIP3    H1 8121   2.166   3.806   1.780
 2705TIP3    H2 8122   2.153   3.692   1.682
 2706TIP3   OH2 8123   3.039   4.222   2.618
 2706TIP3    H1 8124   2.954   4.266   2.619
 2706TIP3    H2 8125   3.072   4.234   2.529
 2707TIP3   OH2 8126   2.494   4.044   1.991
 2707TIP3    H1 8127   2.440   4.074   2.064
 2707TIP3    H2 8128   2.576   4.017   2.032
 2708TIP3   OH2 8129   2.723   4.085   2.911
 2708TIP3    H1 8130   2.719   4.165   2.965
 2708TIP3    H2 8131   2.638   4.080   2.869
 2709TIP3   OH2 8132   1.721   4.032   2.403
 2709TIP3    H1 8133   1.685   3.974   2.336
 2709TIP3    H2 8134   1.794   3.982   2.441
 2710TIP3   OH2 8135   1.853   4.451   2.543
 2710TIP3    H1 8136   1.831   4.430   2.452
 2710TIP3    H2 8137   1.939   4.411   2.556
 2711TIP3   OH2 8138   1.829   4.017   2.774
 2711TIP3    H1 8139   1.866   3.982   2.693
 2711TIP3    H2 8140   1.882   4.095   2.792
 2712TIP3   OH2 8141   2.382   4.654   2.548
 2712TIP3    H1 8142   2.369   4.731   2.604
 2712TIP3    H2 8143   2.368   4.579   2.607
 2713TIP3   OH2 8144   1.996   4.562   3.094
 2713TIP3    H1 8145   1.937   4.621   3.140
 2713TIP3    H2 8146   1.939   4.509   3.038
 2714TIP3   OH2 8147   2.326   3.905   1.823
 2714TIP3    H1 8148   2.386   3.961   1.872
 2714TIP3    H2 8149   2.352   3.916   1.732
 2715TIP3   OH2 8150   1.755   4.118   3.236
 2715TIP3    H1 8151   1.753   4.212   3.252
 2715TIP3    H2 8152   1.663   4.094   3.221
 2716TIP3   OH2 8153   2.072   4.576   2.090
 2716TIP3    H1 8154   2.153   4.628   2.092
 2716TIP3    H2 8155   2.011   4.629   2.040
 2717TIP3   OH2 8156   1.786   4.723   3.177
 2717TIP3    H1 8157   1.760   4.728   3.085
 2717TIP3    H2 8158   1.704   4.704   3.224
 2718TIP3   OH2 8159   2.839   3.135   1.877
 2718TIP3    H1 8160   2.761   3.153   1.930
 2718TIP3    H2 8161   2.851   3.213   1.824
 2719TIP3   OH2 8162   1.596   3.878   2.198
 2719TIP3    H1 8163   1.520   3.922   2.159
 2719TIP3    H2 8164   1.565   3.790   2.219
 2720TIP3   OH2 8165   2.654   4.508   1.425
 2720TIP3    H1 8166   2.654   4.602   1.410
 2720TIP3    H2 8167   2.744   4.481   1.407
 2721TIP3   OH2 8168   1.372   4.273   3.125
 2721TIP3    H1 8169   1.305   4.253   3.060
 2721TIP3    H2 8170   1.409   4.187   3.149
 2722TIP3   OH2 8171   1.228   4.457   2.765
 2722TIP3    H1 8172   1.323   4.462   2.758
 2722TIP3    H2 8173   1.204   4.537   2.812
 2723TIP3   OH2 8174   3.081   4.918   2.821
 2723TIP3    H1 8175   3.087   4.823   2.832
 2723TIP3    H2 8176   3.001   4.942   2.868
 2724TIP3   OH2 8177   2.187   4.699   2.950
 2724TIP3    H1 8178   2.182   4.790   2.979
 2724TIP3    H2 8179   2.119   4.655   3.001
 2725TIP3   OH2 8180   1.965   4.813   1.907
 2725TIP3    H1 8181   1.923   4.788   1.825
 2725TIP3    H2 8182   1.922   4.895   1.932
 2726TIP3   OH2 8183   1.397   4.660   2.285
 2726TIP3    H1 8184   1.442   4.652   2.369
 2726TIP3    H2 8185   1.349   4.578   2.275
 2727TIP3   OH2 8186   2.167   4.731   1.533
 2727TIP3    H1 8187   2.218   4.657   1.499
 2727TIP3    H2 8188   2.197   4.741   1.623
 2728TIP3   OH2 8189   2.216   4.775   1.804
 2728TIP3    H1 8190   2.128   4.782   1.843
 2728TIP3    H2 8191   2.269   4.736   1.874
 2729TIP3   OH2 8192   2.990   4.023   3.087
 2729TIP3    H1 8193   2.906   4.039   3.046
 2729TIP3    H2 8194   3.006   3.930   3.074
 2730TIP3   OH2 8195   1.578   4.454   3.099
 2730TIP3    H1 8196   1.626   4.442   3.181
 2730TIP3    H2 8197   1.505   4.392   3.106
 2731TIP3   OH2 8198   1.966   3.279   2.899
 2731TIP3    H1 8199   1.876   3.251   2.886
 2731TIP3    H2 8200   1.960   3.352   2.961
 2732TIP3   OH2 8201   2.746   3.843   3.040
 2732TIP3    H1 8202   2.688   3.858   3.114
 2732TIP3    H2 8203   2.726   3.913   2.979
 2733TIP3   OH2 8204   2.405   3.911   1.562
 2733TIP3    H1 8205   2.365   3.903   1.475
 2733TIP3    H2 8206   2.486   3.959   1.546
 2734TIP3   OH2 8207   2.113   3.314   1.877
 2734TIP3    H1 8208   2.084   3.318   1.968
 2734TIP3    H2 8209   2.077   3.232   1.844
 2735TIP3   OH2 8210   1.898   3.788   2.918
 2735TIP3    H1 8211   1.856   3.803   3.003
 2735TIP3    H2 8212   1.883   3.869   2.870
 2736TIP3   OH2 8213   1.780   3.682   2.432
 2736TIP3    H1 8214   1.692   3.653   2.457
 2736TIP3    H2 8215   1.794   3.643   2.345
 2737TIP3   OH2 8216   2.268   3.755   2.164
 2737TIP3    H1 8217   2.220   3.827   2.123
 2737TIP3    H2 8218   2.325   3.722   2.095
 2738TIP3   OH2 8219   2.464   4.009   3.239
 2738TIP3    H1 8220   2.430   3.950   3.307
 2738TIP3    H2 8221   2.553   4.029   3.268
 2739TIP3   OH2 8222   2.440   3.776   2.386
 2739TIP3    H1 8223   2.369   3.799   2.325
 2739TIP3    H2 8224   2.481   3.699   2.348
 2740TIP3   OH2 8225   1.723   3.812   3.138
 2740TIP3    H1 8226   1.789   3.859   3.189
 2740TIP3    H2 8227   1.708   3.731   3.187
 2741TIP3   OH2 8228   1.775   3.292   1.843
 2741TIP3    H1 8229   1.771   3.292   1.938
 2741TIP3    H2 8230   1.699   3.343   1.815
 2742TIP3   OH2 8231   1.327   3.334   2.715
 2742TIP3    H1 8232   1.395   3.369   2.773
 2742TIP3    H2 8233   1.374   3.310   2.635
 2743TIP3   OH2 8234   1.253   3.313   2.224
 2743TIP3    H1 8235   1.301   3.348   2.148
 2743TIP3    H2 8236   1.193   3.383   2.249
 2744TIP3   OH2 8237   2.465   4.022   2.814
 2744TIP3    H1 8238   2.493   3.957   2.751
 2744TIP3    H2 8239   2.425   3.972   2.885
 2745TIP3   OH2 8240   2.124   3.514   2.500
 2745TIP3    H1 8241   2.052   3.496   2.560
 2745TIP3    H2 8242   2.200   3.471   2.541
 2746TIP3   OH2 8243   1.546   3.550   2.495
 2746TIP3    H1 8244   1.457   3.552   2.461
 2746TIP3    H2 8245   1.577   3.461   2.478
 2747TIP3   OH2 8246   1.801   3.549   2.192
 2747TIP3    H1 8247   1.896   3.562   2.182
 2747TIP3    H2 8248   1.765   3.570   2.106
 2748TIP3   OH2 8249   2.613   3.566   2.707
 2748TIP3    H1 8250   2.575   3.580   2.794
 2748TIP3    H2 8251   2.565   3.491   2.671
 2749TIP3   OH2 8252   1.674   3.581   1.950
 2749TIP3    H1 8253   1.609   3.534   1.899
 2749TIP3    H2 8254   1.728   3.625   1.884
 2750TIP3   OH2 8255   2.789   5.262   2.919
 2750TIP3    H1 8256   2.787   5.278   2.825
 2750TIP3    H2 8257   2.869   5.306   2.949
 2751TIP3   OH2 8258   1.732   4.379   3.334
 2751TIP3    H1 8259   1.813   4.400   3.381
 2751TIP3    H2 8260   1.664   4.382   3.402
 2752TIP3   OH2 8261   2.197   3.852   2.571
 2752TIP3    H1 8262   2.246   3.782   2.528
 2752TIP3    H2 8263   2.190   3.824   2.663
 2753TIP3   OH2 8264   1.696   3.305   2.483
 2753TIP3    H1 8265   1.665   3.231   2.535
 2753TIP3    H2 8266   1.753   3.266   2.417
 2754TIP3   OH2 8267   2.169   3.785   2.832
 2754TIP3    H1 8268   2.087   3.759   2.873
 2754TIP3    H2 8269   2.231   3.791   2.905
 2755TIP3   OH2 8270   1.906   4.101   1.974
 2755TIP3    H1 8271   1.831   4.046   1.952
 2755TIP3    H2 8272   1.883   4.140   2.058
 2756TIP3   OH2 8273   2.797   4.351   2.587
 2756TIP3    H1 8274   2.827   4.399   2.510
 2756TIP3    H2 8275   2.716   4.308   2.558
 2757TIP3   OH2 8276   2.363   3.421   1.851
 2757TIP3    H1 8277   2.271   3.398   1.861
 2757TIP3    H2 8278   2.369   3.513   1.877
 2758TIP3   OH2 8279   2.310   4.436   2.980
 2758TIP3    H1 8280   2.352   4.424   3.064
 2758TIP3    H2 8281   2.269   4.522   2.986
 2759TIP3   OH2 8282   2.430   3.674   1.946
 2759TIP3    H1 8283   2.524   3.678   1.958
 2759TIP3    H2 8284   2.408   3.753   1.897
 2760TIP3   OH2 8285   1.601   4.124   2.634
 2760TIP3    H1 8286   1.635   4.103   2.548
 2760TIP3    H2 8287   1.664   4.086   2.695
 2761TIP3   OH2 8288   2.048   4.269   1.811
 2761TIP3    H1 8289   1.998   4.351   1.813
 2761TIP3    H2 8290   1.996   4.208   1.864
 2762TIP3   OH2 8291   1.479   4.053   3.264
 2762TIP3    H1 8292   1.494   4.031   3.356
 2762TIP3    H2 8293   1.410   3.993   3.235
 2763TIP3   OH2 8294   2.229   4.172   3.276
 2763TIP3    H1 8295   2.174   4.145   3.202
 2763TIP3    H2 8296   2.314   4.131   3.259
 2764TIP3   OH2 8297   2.460   4.712   2.870
 2764TIP3    H1 8298   2.365   4.699   2.878
 2764TIP3    H2 8299   2.485   4.753   2.952
 2765TIP3   OH2 8300   2.858   3.763   1.770
 2765TIP3    H1 8301   2.802   3.716   1.708
 2765TIP3    H2 8302   2.860   3.853   1.737
 2766TIP3   OH2 8303   3.097   4.638   2.850
 2766TIP3    H1 8304   3.002   4.624   2.848
 2766TIP3    H2 8305   3.128   4.605   2.765
 2767TIP3   OH2 8306   2.587   4.581   1.698
 2767TIP3    H1 8307   2.554   4.516   1.760
 2767TIP3    H2 8308   2.596   4.532   1.616
 2768TIP3   OH2 8309   2.565   4.215   2.491
 2768TIP3    H1 8310   2.475   4.190   2.513
 2768TIP3    H2 8311   2.603   4.135   2.453
 2769TIP3   OH2 8312   1.711   4.449   2.287
 2769TIP3    H1 8313   1.711   4.525   2.229
 2769TIP3    H2 8314   1.619   4.427   2.299
 2770TIP3   OH2 8315   1.267   3.741   1.981
 2770TIP3    H1 8316   1.315   3.822   2.000
 2770TIP3    H2 8317   1.192   3.742   2.041
 2771TIP3   OH2 8318   1.822   4.206   2.209
 2771TIP3    H1 8319   1.797   4.295   2.233
 2771TIP3    H2 8320   1.791   4.152   2.282
 2772TIP3   OH2 8321   1.992   4.775   2.746
 2772TIP3    H1 8322   2.030   4.847   2.695
 2772TIP3    H2 8323   2.067   4.739   2.794
 2773TIP3   OH2 8324   1.628   4.674   2.130
 2773TIP3    H1 8325   1.541   4.681   2.170
 2773TIP3    H2 8326   1.663   4.763   2.133
 2774TIP3   OH2 8327   2.356   4.427   2.709
 2774TIP3    H1 8328   2.344   4.423   2.803
 2774TIP3    H2 8329   2.423   4.362   2.689
 2775TIP3   OH2 8330   2.341   4.314   1.587
 2775TIP3    H1 8331   2.392   4.287   1.664
 2775TIP3    H2 8332   2.254   4.275   1.601
 2776TIP3   OH2 8333   2.608   4.942   2.758
 2776TIP3    H1 8334   2.535   4.880   2.766
 2776TIP3    H2 8335   2.583   4.999   2.685
 2777TIP3   OH2 8336   2.666   4.784   1.399
 2777TIP3    H1 8337   2.701   4.854   1.343
 2777TIP3    H2 8338   2.590   4.822   1.441
 2778TIP3   OH2 8339   1.684   3.566   3.275
 2778TIP3    H1 8340   1.589   3.558   3.277
 2778TIP3    H2 8341   1.715   3.497   3.334
 2779TIP3   OH2 8342   2.513   4.230   1.784
 2779TIP3    H1 8343   2.497   4.175   1.861
 2779TIP3    H2 8344   2.608   4.237   1.778
 2780TIP3   OH2 8345   1.421   4.656   2.905
 2780TIP3    H1 8346   1.473   4.590   2.950
 2780TIP3    H2 8347   1.442   4.738   2.950
 2781TIP3   OH2 8348   1.723   4.273   1.591
 2781TIP3    H1 8349   1.723   4.180   1.572
 2781TIP3    H2 8350   1.685   4.280   1.679
 2782TIP3   OH2 8351   1.639   4.307   1.856
 2782TIP3    H1 8352   1.712   4.288   1.916
 2782TIP3    H2 8353   1.632   4.402   1.857
 2783TIP3   OH2 8354   1.372   3.987   2.069
 2783TIP3    H1 8355   1.309   4.032   2.125
 2783TIP3    H2 8356   1.391   4.050   1.999
 2784TIP3   OH2 8357   2.510   3.610   2.977
 2784TIP3    H1 8358   2.596   3.590   3.014
 2784TIP3    H2 8359   2.454   3.539   3.008
 2785TIP3   OH2 8360   2.423   3.366   2.129
 2785TIP3    H1 8361   2.405   3.388   2.038
 2785TIP3    H2 8362   2.465   3.444   2.165
 2786TIP3   OH2 8363   1.898   4.497   1.818
 2786TIP3    H1 8364   1.809   4.523   1.841
 2786TIP3    H2 8365   1.928   4.566   1.758
 2787TIP3   OH2 8366   2.080   3.565   2.234
 2787TIP3    H1 8367   2.145   3.631   2.211
 2787TIP3    H2 8368   2.094   3.549   2.327
 2788TIP3   OH2 8369   2.374   3.859   3.016
 2788TIP3    H1 8370   2.401   3.899   3.098
 2788TIP3    H2 8371   2.420   3.775   3.013
 2789TIP3   OH2 8372   2.254   3.262   2.325
 2789TIP3    H1 8373   2.277   3.310   2.404
 2789TIP3    H2 8374   2.311   3.298   2.257
 2790TIP3   OH2 8375   1.637   4.586   1.864
 2790TIP3    H1 8376   1.585   4.647   1.812
 2790TIP3    H2 8377   1.631   4.619   1.953
 2791TIP3   OH2 8378   1.760   3.279   2.119
 2791TIP3    H1 8379   1.749   3.366   2.156
 2791TIP3    H2 8380   1.854   3.261   2.130
 2792TIP3   OH2 8381   3.001   3.754   2.986
 2792TIP3    H1 8382   2.909   3.773   3.005
 2792TIP3    H2 8383   2.999   3.670   2.940
 2793TIP3   OH2 8384   2.658   3.963   2.394
 2793TIP3    H1 8385   2.581   3.907   2.403
 2793TIP3    H2 8386   2.726   3.920   2.445
 2794TIP3   OH2 8387   1.380   4.180   1.860
 2794TIP3    H1 8388   1.437   4.257   1.859
 2794TIP3    H2 8389   1.422   4.118   1.800
 2795TIP3   OH2 8390   1.307   3.464   2.000
 2795TIP3    H1 8391   1.323   3.559   2.002
 2795TIP3    H2 8392   1.234   3.454   1.939
 2796TIP3   OH2 8393   2.634   4.934   2.336
 2796TIP3    H1 8394   2.591   4.981   2.264
 2796TIP3    H2 8395   2.728   4.948   2.320
 2797TIP3   OH2 8396   1.693   3.187   2.877
 2797TIP3    H1 8397   1.673   3.152   2.790
 2797TIP3    H2 8398   1.696   3.110   2.934
 2798TIP3   OH2 8399   1.234   4.421   2.265
 2798TIP3    H1 8400   1.187   4.456   2.341
 2798TIP3    H2 8401   1.194   4.464   2.190
 2799TIP3   OH2 8402   1.416   4.968   3.326
 2799TIP3    H1 8403   1.499   4.971   3.374
 2799TIP3    H2 8404   1.398   4.874   3.317
 2800TIP3   OH2 8405   1.885   4.895   3.370
 2800TIP3    H1 8406   1.978   4.875   3.378
 2800TIP3    H2 8407   1.854   4.838   3.299
 2801TIP3   OH2 8408   1.861   4.488   1.493
 2801TIP3    H1 8409   1.813   4.417   1.536
 2801TIP3    H2 8410   1.939   4.446   1.457
 2802TIP3   OH2 8411   2.514   4.825   3.115
 2802TIP3    H1 8412   2.519   4.754   3.179
 2802TIP3    H2 8413   2.590   4.880   3.133
 2803TIP3   OH2 8414   2.301   4.522   1.414
 2803TIP3    H1 8415   2.329   4.456   1.477
 2803TIP3    H2 8416   2.363   4.514   1.342
 2804TIP3   OH2 8417   1.528   4.363   3.524
 2804TIP3    H1 8418   1.547   4.269   3.531
 2804TIP3    H2 8419   1.443   4.367   3.481
 2805TIP3   OH2 8420   1.519   3.986   1.724
 2805TIP3    H1 8421   1.571   3.965   1.801
 2805TIP3    H2 8422   1.582   3.997   1.654
 2806TIP3   OH2 8423   2.146   4.449   3.299
 2806TIP3    H1 8424   2.103   4.469   3.216
 2806TIP3    H2 8425   2.184   4.362   3.286
 2807TIP3   OH2 8426   2.073   4.206   1.543
 2807TIP3    H1 8427   2.049   4.223   1.634
 2807TIP3    H2 8428   2.057   4.113   1.531
 2808TIP3   OH2 8429   2.630   4.484   2.916
 2808TIP3    H1 8430   2.706   4.515   2.867
 2808TIP3    H2 8431   2.560   4.546   2.895
 2809TIP3   OH2 8432   1.647   4.106   3.519
 2809TIP3    H1 8433   1.720   4.094   3.458
 2809TIP3    H2 8434   1.688   4.129   3.602
 2810TIP3   OH2 8435   1.700   3.919   1.930
 2810TIP3    H1 8436   1.679   3.888   2.018
 2810TIP3    H2 8437   1.743   3.844   1.888
 2811TIP3   OH2 8438   1.968   3.953   3.178
 2811TIP3    H1 8439   1.904   4.021   3.199
 2811TIP3    H2 8440   2.027   3.994   3.115
 2812TIP3   OH2 8441   1.825   3.723   1.770
 2812TIP3    H1 8442   1.798   3.728   1.679
 2812TIP3    H2 8443   1.921   3.731   1.767
 2813TIP3   OH2 8444   2.507   4.374   3.287
 2813TIP3    H1 8445   2.576   4.335   3.232
 2813TIP3    H2 8446   2.503   4.317   3.364
 2814TIP3   OH2 8447   2.632   4.029   1.451
 2814TIP3    H1 8448   2.616   3.985   1.367
 2814TIP3    H2 8449   2.604   4.120   1.436
 2815TIP3   OH2 8450   2.117   3.748   3.311
 2815TIP3    H1 8451   2.129   3.663   3.271
 2815TIP3    H2 8452   2.071   3.800   3.245
 2816TIP3   OH2 8453   2.128   4.104   3.014
 2816TIP3    H1 8454   2.202   4.074   2.960
 2816TIP3    H2 8455   2.077   4.159   2.955
 2817TIP3   OH2 8456   2.716   4.046   3.345
 2817TIP3    H1 8457   2.751   3.984   3.409
 2817TIP3    H2 8458   2.794   4.091   3.311
 2818TIP3   OH2 8459   2.753   4.313   3.086
 2818TIP3    H1 8460   2.699   4.373   3.035
 2818TIP3    H2 8461   2.842   4.327   3.053
 2819TIP3   OH2 8462   2.004   3.853   3.546
 2819TIP3    H1 8463   1.929   3.794   3.556
 2819TIP3    H2 8464   2.031   3.841   3.455
 2820TIP3   OH2 8465   2.357   3.837   3.417
 2820TIP3    H1 8466   2.346   3.809   3.508
 2820TIP3    H2 8467   2.281   3.801   3.371
 2821TIP3   OH2 8468   1.826   3.642   3.597
 2821TIP3    H1 8469   1.828   3.556   3.555
 2821TIP3    H2 8470   1.860   3.626   3.685
 2822TIP3   OH2 8471   1.112   4.150   1.903
 2822TIP3    H1 8472   1.203   4.174   1.888
 2822TIP3    H2 8473   1.100   4.067   1.857
 2823TIP3   OH2 8474   1.026   4.750   2.335
 2823TIP3    H1 8475   0.964   4.696   2.287
 2823TIP3    H2 8476   1.071   4.690   2.394
 2824TIP3   OH2 8477   1.164   4.585   2.511
 2824TIP3    H1 8478   1.152   4.520   2.579
 2824TIP3    H2 8479   1.216   4.654   2.552
 2825TIP3   OH2 8480   2.900   5.001   2.316
 2825TIP3    H1 8481   2.927   5.026   2.405
 2825TIP3    H2 8482   2.965   5.041   2.259
 2826TIP3   OH2 8483   2.926   5.020   2.600
 2826TIP3    H1 8484   2.876   4.939   2.592
 2826TIP3    H2 8485   2.996   4.999   2.662
 2827TIP3   OH2 8486   2.966   4.716   3.169
 2827TIP3    H1 8487   2.896   4.723   3.234
 2827TIP3    H2 8488   3.012   4.800   3.173
 2828TIP3   OH2 8489   2.792   4.228   1.782
 2828TIP3    H1 8490   2.853   4.296   1.754
 2828TIP3    H2 8491   2.833   4.189   1.859
 2829TIP3   OH2 8492   2.914   4.086   1.986
 2829TIP3    H1 8493   2.847   4.046   2.041
 2829TIP3    H2 8494   2.979   4.120   2.047
 2830TIP3   OH2 8495   2.969   4.488   2.413
 2830TIP3    H1 8496   3.022   4.419   2.373
 2830TIP3    H2 8497   2.967   4.557   2.348
 2831TIP3   OH2 8498   2.784   4.780   2.608
 2831TIP3    H1 8499   2.715   4.822   2.660
 2831TIP3    H2 8500   2.737   4.736   2.537
 2832TIP3   OH2 8501   2.837   4.003   1.631
 2832TIP3    H1 8502   2.766   4.002   1.567
 2832TIP3    H2 8503   2.820   4.079   1.686
 2833TIP3   OH2 8504   2.706   3.657   1.568
 2833TIP3    H1 8505   2.656   3.695   1.496
 2833TIP3    H2 8506   2.692   3.562   1.560
 2834TIP3   OH2 8507   2.719   3.945   2.125
 2834TIP3    H1 8508   2.725   3.850   2.115
 2834TIP3    H2 8509   2.702   3.959   2.218
 2835TIP3   OH2 8510   1.346   4.015   2.887
 2835TIP3    H1 8511   1.337   3.979   2.799
 2835TIP3    H2 8512   1.440   4.016   2.904
 2836TIP3   OH2 8513   3.005   4.366   2.984
 2836TIP3    H1 8514   3.073   4.300   2.970
 2836TIP3    H2 8515   3.017   4.428   2.912
 2837TIP3   OH2 8516   3.195   4.170   2.979
 2837TIP3    H1 8517   3.129   4.109   3.013
 2837TIP3    H2 8518   3.276   4.146   3.024
 2838TIP3   OH2 8519   2.655   3.387   1.544
 2838TIP3    H1 8520   2.720   3.360   1.609
 2838TIP3    H2 8521   2.575   3.343   1.571
 2839TIP3   OH2 8522   2.718   3.668   2.006
 2839TIP3    H1 8523   2.760   3.584   2.021
 2839TIP3    H2 8524   2.766   3.707   1.933
 2840TIP3   OH2 8525   2.873   3.835   2.522
 2840TIP3    H1 8526   2.956   3.853   2.478
 2840TIP3    H2 8527   2.883   3.873   2.609
 2841TIP3   OH2 8528   2.937   3.997   2.743
 2841TIP3    H1 8529   2.863   4.027   2.795
 2841TIP3    H2 8530   2.971   4.077   2.701
 2842TIP3   OH2 8531   1.563   3.704   3.541
 2842TIP3    H1 8532   1.658   3.697   3.546
 2842TIP3    H2 8533   1.530   3.623   3.580
 2843TIP3   OH2 8534   2.828   3.417   2.056
 2843TIP3    H1 8535   2.873   3.404   2.140
 2843TIP3    H2 8536   2.766   3.345   2.051
 2844TIP3   OH2 8537   1.525   3.404   2.900
 2844TIP3    H1 8538   1.579   3.326   2.903
 2844TIP3    H2 8539   1.586   3.476   2.884
 2845TIP3   OH2 8540   1.321   3.675   2.947
 2845TIP3    H1 8541   1.372   3.660   2.867
 2845TIP3    H2 8542   1.354   3.758   2.981
 2846TIP3   OH2 8543   2.887   3.340   1.697
 2846TIP3    H1 8544   2.929   3.276   1.641
 2846TIP3    H2 8545   2.948   3.414   1.699
 2847TIP3   OH2 8546   1.305   3.166   2.449
 2847TIP3    H1 8547   1.218   3.164   2.489
 2847TIP3    H2 8548   1.295   3.227   2.375
 2848TIP3   OH2 8549   2.472   4.889   1.962
 2848TIP3    H1 8550   2.527   4.877   1.885
 2848TIP3    H2 8551   2.518   4.955   2.014
 2849TIP3   OH2 8552   1.526   3.278   3.300
 2849TIP3    H1 8553   1.468   3.218   3.346
 2849TIP3    H2 8554   1.475   3.310   3.226
 2850TIP3   OH2 8555   1.562   4.689   3.342
 2850TIP3    H1 8556   1.469   4.669   3.331
 2850TIP3    H2 8557   1.579   4.677   3.436
 2851TIP3   OH2 8558   1.764   4.731   2.895
 2851TIP3    H1 8559   1.711   4.804   2.861
 2851TIP3    H2 8560   1.849   4.740   2.851
 2852TIP3   OH2 8561   2.179   4.966   3.030
 2852TIP3    H1 8562   2.217   4.959   3.117
 2852TIP3    H2 8563   2.242   5.019   2.980
 2853TIP3   OH2 8564   2.364   5.122   2.897
 2853TIP3    H1 8565   2.426   5.066   2.850
 2853TIP3    H2 8566   2.420   5.175   2.954
 2854TIP3   OH2 8567   1.429   4.979   2.936
 2854TIP3    H1 8568   1.338   4.998   2.912
 2854TIP3    H2 8569   1.449   5.043   3.004
 2855TIP3   OH2 8570   1.659   4.962   2.785
 2855TIP3    H1 8571   1.575   4.969   2.831
 2855TIP3    H2 8572   1.639   4.989   2.695
 2856TIP3   OH2 8573   2.081   4.980   2.578
 2856TIP3    H1 8574   2.009   4.991   2.515
 2856TIP3    H2 8575   2.091   5.066   2.618
 2857TIP3   OH2 8576   2.347   4.923   2.633
 2857TIP3    H1 8577   2.255   4.936   2.612
 2857TIP3    H2 8578   2.393   4.987   2.579
 2858TIP3   OH2 8579   2.556   5.106   2.536
 2858TIP3    H1 8580   2.545   5.191   2.492
 2858TIP3    H2 8581   2.583   5.046   2.466
 2859TIP3   OH2 8582   1.338   4.760   2.658
 2859TIP3    H1 8583   1.361   4.733   2.747
 2859TIP3    H2 8584   1.409   4.727   2.604
 2860TIP3   OH2 8585   1.540   4.642   2.521
 2860TIP3    H1 8586   1.552   4.559   2.567
 2860TIP3    H2 8587   1.627   4.682   2.520
 2861TIP3   OH2 8588   1.809   4.730   2.537
 2861TIP3    H1 8589   1.828   4.637   2.521
 2861TIP3    H2 8590   1.860   4.752   2.614
 2862TIP3   OH2 8591   2.341   3.359   2.579
 2862TIP3    H1 8592   2.304   3.306   2.649
 2862TIP3    H2 8593   2.431   3.327   2.570
 2863TIP3   OH2 8594   2.886   3.272   2.508
 2863TIP3    H1 8595   2.922   3.325   2.437
 2863TIP3    H2 8596   2.794   3.297   2.512
 2864TIP3   OH2 8597   2.991   3.372   2.275
 2864TIP3    H1 8598   3.061   3.313   2.248
 2864TIP3    H2 8599   3.026   3.460   2.262
 2865TIP3   OH2 8600   1.615   3.083   2.629
 2865TIP3    H1 8601   1.525   3.049   2.637
 2865TIP3    H2 8602   1.669   3.005   2.623
 2866TIP3   OH2 8603   1.407   2.971   2.270
 2866TIP3    H1 8604   1.445   3.024   2.201
 2866TIP3    H2 8605   1.380   3.034   2.337
 2867TIP3   OH2 8606   2.063   3.131   2.495
 2867TIP3    H1 8607   2.122   3.177   2.436
 2867TIP3    H2 8608   2.096   3.153   2.583
 2868TIP3   OH2 8609   2.606   3.287   2.492
 2868TIP3    H1 8610   2.606   3.248   2.405
 2868TIP3    H2 8611   2.595   3.213   2.552
 2869TIP3   OH2 8612   2.642   3.206   2.059
 2869TIP3    H1 8613   2.562   3.253   2.080
 2869TIP3    H2 8614   2.633   3.121   2.100
 2870TIP3   OH2 8615   1.112   4.552   2.063
 2870TIP3    H1 8616   1.032   4.516   2.026
 2870TIP3    H2 8617   1.124   4.635   2.017
 2871TIP3   OH2 8618   1.538   3.120   2.040
 2871TIP3    H1 8619   1.584   3.058   1.983
 2871TIP3    H2 8620   1.608   3.175   2.076
 2872TIP3   OH2 8621   2.038   3.310   2.144
 2872TIP3    H1 8622   2.096   3.261   2.202
 2872TIP3    H2 8623   2.049   3.401   2.170
 2873TIP3   OH2 8624   1.914   4.718   1.648
 2873TIP3    H1 8625   1.995   4.736   1.599
 2873TIP3    H2 8626   1.864   4.661   1.591
 2874TIP3   OH2 8627   2.621   4.850   1.730
 2874TIP3    H1 8628   2.615   4.755   1.724
 2874TIP3    H2 8629   2.573   4.882   1.654
 2875TIP3   OH2 8630   1.832   3.369   3.525
 2875TIP3    H1 8631   1.803   3.292   3.574
 2875TIP3    H2 8632   1.927   3.372   3.539
 2876TIP3   OH2 8633   2.096   3.382   3.626
 2876TIP3    H1 8634   2.155   3.381   3.550
 2876TIP3    H2 8635   2.116   3.301   3.673
 2877TIP3   OH2 8636   1.199   4.561   1.694
 2877TIP3    H1 8637   1.242   4.642   1.723
 2877TIP3    H2 8638   1.271   4.502   1.676
 2878TIP3   OH2 8639   2.832   4.988   2.921
 2878TIP3    H1 8640   2.757   4.957   2.870
 2878TIP3    H2 8641   2.817   5.082   2.931
 2879TIP3   OH2 8642   4.106   4.372   1.671
 2879TIP3    H1 8643   4.074   4.459   1.647
 2879TIP3    H2 8644   4.034   4.313   1.647
 2880TIP3   OH2 8645   4.101   4.366   2.084
 2880TIP3    H1 8646   4.149   4.348   2.164
 2880TIP3    H2 8647   4.060   4.282   2.062
 2881TIP3   OH2 8648   3.404   4.248   2.433
 2881TIP3    H1 8649   3.435   4.186   2.499
 2881TIP3    H2 8650   3.484   4.278   2.390
 2882TIP3   OH2 8651   4.364   4.672   1.760
 2882TIP3    H1 8652   4.354   4.606   1.829
 2882TIP3    H2 8653   4.390   4.752   1.808
 2883TIP3   OH2 8654   3.389   4.665   2.138
 2883TIP3    H1 8655   3.375   4.570   2.141
 2883TIP3    H2 8656   3.484   4.674   2.128
 2884TIP3   OH2 8657   3.082   3.868   1.913
 2884TIP3    H1 8658   3.039   3.949   1.938
 2884TIP3    H2 8659   3.012   3.814   1.875
 2885TIP3   OH2 8660   3.147   4.159   2.121
 2885TIP3    H1 8661   3.197   4.083   2.151
 2885TIP3    H2 8662   3.212   4.213   2.076
 2886TIP3   OH2 8663   4.017   5.114   1.771
 2886TIP3    H1 8664   4.049   5.048   1.710
 2886TIP3    H2 8665   4.015   5.070   1.856
 2887TIP3   OH2 8666   3.909   4.591   2.101
 2887TIP3    H1 8667   3.949   4.510   2.067
 2887TIP3    H2 8668   3.983   4.645   2.128
 2888TIP3   OH2 8669   4.934   3.912   2.108
 2888TIP3    H1 8670   4.956   3.993   2.153
 2888TIP3    H2 8671   4.956   3.928   2.016
 2889TIP3   OH2 8672   4.319   4.084   2.131
 2889TIP3    H1 8673   4.359   4.001   2.157
 2889TIP3    H2 8674   4.283   4.066   2.044
 2890TIP3   OH2 8675   3.671   3.743   2.092
 2890TIP3    H1 8676   3.650   3.816   2.034
 2890TIP3    H2 8677   3.618   3.670   2.061
 2891TIP3   OH2 8678   4.366   3.837   1.724
 2891TIP3    H1 8679   4.432   3.828   1.793
 2891TIP3    H2 8680   4.414   3.873   1.649
 2892TIP3   OH2 8681   3.297   3.948   2.217
 2892TIP3    H1 8682   3.379   3.931   2.262
 2892TIP3    H2 8683   3.302   3.896   2.137
 2893TIP3   OH2 8684   3.725   4.149   2.024
 2893TIP3    H1 8685   3.818   4.130   2.033
 2893TIP3    H2 8686   3.687   4.068   1.989
 2894TIP3   OH2 8687   5.002   4.126   2.276
 2894TIP3    H1 8688   4.914   4.164   2.268
 2894TIP3    H2 8689   5.034   4.157   2.361
 2895TIP3   OH2 8690   3.657   3.744   2.546
 2895TIP3    H1 8691   3.608   3.776   2.470
 2895TIP3    H2 8692   3.597   3.758   2.620
 2896TIP3   OH2 8693   3.981   4.580   1.539
 2896TIP3    H1 8694   3.952   4.568   1.448
 2896TIP3    H2 8695   3.939   4.662   1.566
 2897TIP3   OH2 8696   3.756   4.514   2.318
 2897TIP3    H1 8697   3.700   4.583   2.352
 2897TIP3    H2 8698   3.804   4.555   2.246
 2898TIP3   OH2 8699   4.540   3.854   1.934
 2898TIP3    H1 8700   4.500   3.833   2.018
 2898TIP3    H2 8701   4.597   3.929   1.952
 2899TIP3   OH2 8702   3.541   3.846   2.315
 2899TIP3    H1 8703   3.596   3.921   2.338
 2899TIP3    H2 8704   3.586   3.804   2.242
 2900TIP3   OH2 8705   3.592   4.714   2.420
 2900TIP3    H1 8706   3.574   4.802   2.387
 2900TIP3    H2 8707   3.515   4.692   2.473
 2901TIP3   OH2 8708   2.973   4.411   1.665
 2901TIP3    H1 8709   2.933   4.431   1.581
 2901TIP3    H2 8710   2.999   4.496   1.700
 2902TIP3   OH2 8711   4.411   4.918   1.903
 2902TIP3    H1 8712   4.323   4.910   1.941
 2902TIP3    H2 8713   4.410   5.003   1.858
 2903TIP3   OH2 8714   4.733   3.797   2.274
 2903TIP3    H1 8715   4.647   3.826   2.244
 2903TIP3    H2 8716   4.794   3.828   2.207
 2904TIP3   OH2 8717   3.997   3.437   2.259
 2904TIP3    H1 8718   3.986   3.344   2.280
 2904TIP3    H2 8719   3.923   3.480   2.303
 2905TIP3   OH2 8720   4.115   4.953   1.566
 2905TIP3    H1 8721   4.165   4.872   1.553
 2905TIP3    H2 8722   4.173   5.022   1.537
 2906TIP3   OH2 8723   4.263   4.732   1.509
 2906TIP3    H1 8724   4.246   4.650   1.464
 2906TIP3    H2 8725   4.303   4.706   1.592
 2907TIP3   OH2 8726   4.641   4.816   2.247
 2907TIP3    H1 8727   4.628   4.740   2.190
 2907TIP3    H2 8728   4.626   4.892   2.190
 2908TIP3   OH2 8729   3.927   4.214   1.524
 2908TIP3    H1 8730   3.850   4.266   1.500
 2908TIP3    H2 8731   3.978   4.209   1.443
 2909TIP3   OH2 8732   3.901   4.013   1.219
 2909TIP3    H1 8733   3.965   4.060   1.272
 2909TIP3    H2 8734   3.953   3.949   1.170
 2910TIP3   OH2 8735   4.832   4.464   2.105
 2910TIP3    H1 8736   4.749   4.512   2.107
 2910TIP3    H2 8737   4.869   4.483   2.019
 2911TIP3   OH2 8738   4.291   4.303   1.484
 2911TIP3    H1 8739   4.238   4.331   1.559
 2911TIP3    H2 8740   4.375   4.276   1.523
 2912TIP3   OH2 8741   4.521   4.332   2.420
 2912TIP3    H1 8742   4.520   4.415   2.468
 2912TIP3    H2 8743   4.439   4.332   2.372
 2913TIP3   OH2 8744   3.520   4.288   1.890
 2913TIP3    H1 8745   3.483   4.229   1.824
 2913TIP3    H2 8746   3.594   4.239   1.927
 2914TIP3   OH2 8747   3.652   4.708   2.031
 2914TIP3    H1 8748   3.632   4.685   1.940
 2914TIP3    H2 8749   3.739   4.671   2.046
 2915TIP3   OH2 8750   3.631   4.277   2.255
 2915TIP3    H1 8751   3.668   4.243   2.174
 2915TIP3    H2 8752   3.681   4.357   2.273
 2916TIP3   OH2 8753   4.172   4.911   2.033
 2916TIP3    H1 8754   4.162   4.989   2.087
 2916TIP3    H2 8755   4.161   4.838   2.094
 2917TIP3   OH2 8756   3.792   4.820   2.580
 2917TIP3    H1 8757   3.733   4.879   2.627
 2917TIP3    H2 8758   3.735   4.767   2.525
 2918TIP3   OH2 8759   4.116   4.162   1.332
 2918TIP3    H1 8760   4.176   4.214   1.385
 2918TIP3    H2 8761   4.139   4.183   1.241
 2919TIP3   OH2 8762   3.549   4.371   2.708
 2919TIP3    H1 8763   3.552   4.463   2.733
 2919TIP3    H2 8764   3.456   4.350   2.703
 2920TIP3   OH2 8765   3.866   4.834   1.572
 2920TIP3    H1 8766   3.950   4.878   1.579
 2920TIP3    H2 8767   3.808   4.897   1.530
 2921TIP3   OH2 8768   3.581   4.980   2.664
 2921TIP3    H1 8769   3.554   4.985   2.572
 2921TIP3    H2 8770   3.499   4.962   2.711
 2922TIP3   OH2 8771   4.635   3.392   1.364
 2922TIP3    H1 8772   4.557   3.412   1.415
 2922TIP3    H2 8773   4.649   3.470   1.310
 2923TIP3   OH2 8774   3.393   4.133   1.686
 2923TIP3    H1 8775   3.317   4.177   1.649
 2923TIP3    H2 8776   3.362   4.045   1.708
 2924TIP3   OH2 8777   4.434   4.778   0.934
 2924TIP3    H1 8778   4.441   4.873   0.932
 2924TIP3    H2 8779   4.524   4.747   0.935
 2925TIP3   OH2 8780   3.168   4.528   2.611
 2925TIP3    H1 8781   3.099   4.510   2.547
 2925TIP3    H2 8782   3.204   4.442   2.633
 2926TIP3   OH2 8783   3.025   4.713   2.246
 2926TIP3    H1 8784   3.120   4.713   2.241
 2926TIP3    H2 8785   3.004   4.790   2.300
 2927TIP3   OH2 8786   4.878   5.171   2.311
 2927TIP3    H1 8787   4.883   5.076   2.324
 2927TIP3    H2 8788   4.798   5.196   2.357
 2928TIP3   OH2 8789   3.982   4.957   2.435
 2928TIP3    H1 8790   3.978   5.047   2.465
 2928TIP3    H2 8791   3.915   4.911   2.487
 2929TIP3   OH2 8792   3.752   5.066   1.393
 2929TIP3    H1 8793   3.705   5.049   1.311
 2929TIP3    H2 8794   3.719   5.152   1.421
 2930TIP3   OH2 8795   3.192   4.918   1.774
 2930TIP3    H1 8796   3.237   4.909   1.857
 2930TIP3    H2 8797   3.143   4.836   1.764
 2931TIP3   OH2 8798   3.958   4.984   1.044
 2931TIP3    H1 8799   4.017   4.914   1.016
 2931TIP3    H2 8800   3.983   5.001   1.135
 2932TIP3   OH2 8801   4.008   5.034   1.308
 2932TIP3    H1 8802   3.922   5.038   1.348
 2932TIP3    H2 8803   4.065   4.998   1.376
 2933TIP3   OH2 8804   4.770   4.293   2.595
 2933TIP3    H1 8805   4.688   4.305   2.548
 2933TIP3    H2 8806   4.781   4.198   2.601
 2934TIP3   OH2 8807   3.373   4.710   2.588
 2934TIP3    H1 8808   3.423   4.696   2.669
 2934TIP3    H2 8809   3.300   4.648   2.594
 2935TIP3   OH2 8810   3.765   3.530   2.396
 2935TIP3    H1 8811   3.681   3.495   2.365
 2935TIP3    H2 8812   3.741   3.609   2.444
 2936TIP3   OH2 8813   4.318   3.650   2.569
 2936TIP3    H1 8814   4.388   3.620   2.627
 2936TIP3    H2 8815   4.238   3.639   2.621
 2937TIP3   OH2 8816   4.530   4.065   2.504
 2937TIP3    H1 8817   4.497   4.058   2.593
 2937TIP3    H2 8818   4.518   4.157   2.481
 2938TIP3   OH2 8819   4.200   4.219   1.089
 2938TIP3    H1 8820   4.173   4.169   1.011
 2938TIP3    H2 8821   4.289   4.249   1.068
 2939TIP3   OH2 8822   3.910   3.570   1.360
 2939TIP3    H1 8823   3.877   3.575   1.450
 2939TIP3    H2 8824   3.872   3.488   1.325
 2940TIP3   OH2 8825   3.700   4.053   2.402
 2940TIP3    H1 8826   3.652   4.063   2.484
 2940TIP3    H2 8827   3.681   4.134   2.354
 2941TIP3   OH2 8828   3.580   3.936   1.920
 2941TIP3    H1 8829   3.491   3.910   1.945
 2941TIP3    H2 8830   3.591   3.899   1.833
 2942TIP3   OH2 8831   4.065   4.011   1.650
 2942TIP3    H1 8832   4.015   4.082   1.610
 2942TIP3    H2 8833   4.123   3.980   1.580
 2943TIP3   OH2 8834   4.254   4.276   2.733
 2943TIP3    H1 8835   4.225   4.207   2.792
 2943TIP3    H2 8836   4.347   4.288   2.753
 2944TIP3   OH2 8837   4.228   4.028   1.879
 2944TIP3    H1 8838   4.162   4.053   1.814
 2944TIP3    H2 8839   4.273   3.953   1.839
 2945TIP3   OH2 8840   3.524   4.068   2.614
 2945TIP3    H1 8841   3.554   4.125   2.685
 2945TIP3    H2 8842   3.500   3.986   2.658
 2946TIP3   OH2 8843   3.572   3.550   1.332
 2946TIP3    H1 8844   3.564   3.550   1.427
 2946TIP3    H2 8845   3.495   3.597   1.301
 2947TIP3   OH2 8846   3.121   3.594   2.193
 2947TIP3    H1 8847   3.192   3.626   2.248
 2947TIP3    H2 8848   3.163   3.562   2.114
 2948TIP3   OH2 8849   3.052   3.569   1.711
 2948TIP3    H1 8850   3.098   3.604   1.634
 2948TIP3    H2 8851   2.990   3.638   1.735
 2949TIP3   OH2 8852   4.254   4.281   2.305
 2949TIP3    H1 8853   4.283   4.215   2.243
 2949TIP3    H2 8854   4.218   4.231   2.378
 2950TIP3   OH2 8855   3.935   3.733   1.976
 2950TIP3    H1 8856   3.857   3.735   2.031
 2950TIP3    H2 8857   4.008   3.727   2.038
 2951TIP3   OH2 8858   3.343   3.810   1.983
 2951TIP3    H1 8859   3.253   3.815   1.950
 2951TIP3    H2 8860   3.370   3.720   1.967
 2952TIP3   OH2 8861   3.599   3.807   1.679
 2952TIP3    H1 8862   3.693   3.820   1.665
 2952TIP3    H2 8863   3.559   3.827   1.594
 2953TIP3   OH2 8864   4.401   3.819   2.176
 2953TIP3    H1 8865   4.379   3.838   2.267
 2953TIP3    H2 8866   4.333   3.759   2.147
 2954TIP3   OH2 8867   3.470   3.838   1.438
 2954TIP3    H1 8868   3.404   3.791   1.388
 2954TIP3    H2 8869   3.524   3.881   1.372
 2955TIP3   OH2 8870   4.585   5.519   2.406
 2955TIP3    H1 8871   4.582   5.536   2.312
 2955TIP3    H2 8872   4.664   5.564   2.436
 2956TIP3   OH2 8873   3.531   4.630   2.820
 2956TIP3    H1 8874   3.612   4.651   2.866
 2956TIP3    H2 8875   3.463   4.632   2.887
 2957TIP3   OH2 8876   3.994   4.088   2.084
 2957TIP3    H1 8877   4.063   4.043   2.036
 2957TIP3    H2 8878   3.994   4.048   2.171
 2958TIP3   OH2 8879   3.495   3.563   1.971
 2958TIP3    H1 8880   3.462   3.489   2.021
 2958TIP3    H2 8881   3.531   3.524   1.891
 2959TIP3   OH2 8882   3.969   3.991   2.357
 2959TIP3    H1 8883   3.880   4.021   2.377
 2959TIP3    H2 8884   4.026   4.046   2.410
 2960TIP3   OH2 8885   3.702   4.365   1.451
 2960TIP3    H1 8886   3.630   4.304   1.434
 2960TIP3    H2 8887   3.682   4.402   1.537
 2961TIP3   OH2 8888   4.595   4.606   2.073
 2961TIP3    H1 8889   4.629   4.654   1.997
 2961TIP3    H2 8890   4.514   4.566   2.042
 2962TIP3   OH2 8891   4.163   3.670   1.349
 2962TIP3    H1 8892   4.069   3.652   1.351
 2962TIP3    H2 8893   4.170   3.764   1.366
 2963TIP3   OH2 8894   4.102   4.687   2.469
 2963TIP3    H1 8895   4.153   4.675   2.550
 2963TIP3    H2 8896   4.065   4.775   2.476
 2964TIP3   OH2 8897   4.229   3.927   1.434
 2964TIP3    H1 8898   4.324   3.931   1.441
 2964TIP3    H2 8899   4.206   4.005   1.382
 2965TIP3   OH2 8900   3.399   4.383   2.121
 2965TIP3    H1 8901   3.435   4.360   2.035
 2965TIP3    H2 8902   3.458   4.342   2.183
 2966TIP3   OH2 8903   3.855   4.518   1.277
 2966TIP3    H1 8904   3.807   4.601   1.281
 2966TIP3    H2 8905   3.806   4.459   1.335
 2967TIP3   OH2 8906   3.278   4.304   2.743
 2967TIP3    H1 8907   3.283   4.281   2.836
 2967TIP3    H2 8908   3.205   4.252   2.710
 2968TIP3   OH2 8909   4.017   4.430   2.765
 2968TIP3    H1 8910   3.953   4.371   2.726
 2968TIP3    H2 8911   4.102   4.392   2.741
 2969TIP3   OH2 8912   4.254   4.966   2.357
 2969TIP3    H1 8913   4.160   4.956   2.365
 2969TIP3    H2 8914   4.281   5.009   2.439
 2970TIP3   OH2 8915   4.664   4.011   1.280
 2970TIP3    H1 8916   4.595   3.966   1.232
 2970TIP3    H2 8917   4.663   4.100   1.244
 2971TIP3   OH2 8918   4.889   4.886   2.338
 2971TIP3    H1 8919   4.794   4.875   2.333
 2971TIP3    H2 8920   4.921   4.857   2.253
 2972TIP3   OH2 8921   4.375   4.832   1.200
 2972TIP3    H1 8922   4.350   4.759   1.256
 2972TIP3    H2 8923   4.385   4.794   1.113
 2973TIP3   OH2 8924   4.360   4.473   1.975
 2973TIP3    H1 8925   4.270   4.450   1.997
 2973TIP3    H2 8926   4.398   4.393   1.939
 2974TIP3   OH2 8927   3.507   4.704   1.773
 2974TIP3    H1 8928   3.506   4.782   1.717
 2974TIP3    H2 8929   3.415   4.686   1.791
 2975TIP3   OH2 8930   3.069   3.996   1.482
 2975TIP3    H1 8931   3.114   4.078   1.503
 2975TIP3    H2 8932   2.990   3.997   1.537
 2976TIP3   OH2 8933   3.614   4.461   1.690
 2976TIP3    H1 8934   3.591   4.550   1.715
 2976TIP3    H2 8935   3.587   4.407   1.764
 2977TIP3   OH2 8936   3.789   5.033   2.233
 2977TIP3    H1 8937   3.827   5.104   2.182
 2977TIP3    H2 8938   3.863   4.997   2.282
 2978TIP3   OH2 8939   3.423   4.935   1.623
 2978TIP3    H1 8940   3.337   4.940   1.664
 2978TIP3    H2 8941   3.456   5.025   1.625
 2979TIP3   OH2 8942   4.153   4.685   2.198
 2979TIP3    H1 8943   4.140   4.680   2.293
 2979TIP3    H2 8944   4.230   4.631   2.182
 2980TIP3   OH2 8945   4.103   4.564   1.126
 2980TIP3    H1 8946   4.170   4.544   1.192
 2980TIP3    H2 8947   4.021   4.542   1.170
 2981TIP3   OH2 8948   4.403   5.199   2.244
 2981TIP3    H1 8949   4.329   5.138   2.249
 2981TIP3    H2 8950   4.380   5.257   2.171
 2982TIP3   OH2 8951   4.429   5.054   0.946
 2982TIP3    H1 8952   4.472   5.073   0.863
 2982TIP3    H2 8953   4.350   5.107   0.944
 2983TIP3   OH2 8954   3.443   3.810   2.730
 2983TIP3    H1 8955   3.358   3.848   2.748
 2983TIP3    H2 8956   3.434   3.717   2.753
 2984TIP3   OH2 8957   4.307   4.511   1.301
 2984TIP3    H1 8958   4.296   4.436   1.360
 2984TIP3    H2 8959   4.400   4.510   1.277
 2985TIP3   OH2 8960   3.214   4.909   2.394
 2985TIP3    H1 8961   3.266   4.841   2.437
 2985TIP3    H2 8962   3.236   4.989   2.442
 2986TIP3   OH2 8963   3.480   4.540   1.073
 2986TIP3    H1 8964   3.505   4.451   1.050
 2986TIP3    H2 8965   3.464   4.537   1.168
 2987TIP3   OH2 8966   3.437   4.553   1.348
 2987TIP3    H1 8967   3.508   4.522   1.405
 2987TIP3    H2 8968   3.438   4.648   1.359
 2988TIP3   OH2 8969   3.170   4.244   1.562
 2988TIP3    H1 8970   3.104   4.289   1.616
 2988TIP3    H2 8971   3.188   4.305   1.491
 2989TIP3   OH2 8972   4.335   3.887   2.432
 2989TIP3    H1 8973   4.410   3.936   2.464
 2989TIP3    H2 8974   4.331   3.810   2.488
 2990TIP3   OH2 8975   4.219   3.622   1.623
 2990TIP3    H1 8976   4.200   3.642   1.531
 2990TIP3    H2 8977   4.262   3.701   1.656
 2991TIP3   OH2 8978   3.706   4.745   1.287
 2991TIP3    H1 8979   3.623   4.764   1.330
 2991TIP3    H2 8980   3.726   4.823   1.236
 2992TIP3   OH2 8981   3.879   3.818   1.717
 2992TIP3    H1 8982   3.943   3.886   1.693
 2992TIP3    H2 8983   3.897   3.801   1.810
 2993TIP3   OH2 8984   4.170   4.118   2.510
 2993TIP3    H1 8985   4.198   4.163   2.590
 2993TIP3    H2 8986   4.223   4.038   2.508
 2994TIP3   OH2 8987   4.038   3.523   1.811
 2994TIP3    H1 8988   4.017   3.600   1.863
 2994TIP3    H2 8989   4.105   3.554   1.749
 2995TIP3   OH2 8990   3.455   4.824   1.373
 2995TIP3    H1 8991   3.430   4.893   1.312
 2995TIP3    H2 8992   3.443   4.863   1.460
 2996TIP3   OH2 8993   3.553   3.536   1.609
 2996TIP3    H1 8994   3.542   3.625   1.643
 2996TIP3    H2 8995   3.647   3.520   1.615
 2997TIP3   OH2 8996   4.801   4.022   2.493
 2997TIP3    H1 8997   4.708   4.021   2.517
 2997TIP3    H2 8998   4.803   3.977   2.408
 2998TIP3   OH2 8999   4.453   4.219   1.882
 2998TIP3    H1 9000   4.377   4.162   1.894
 2998TIP3    H2 9001   4.522   4.177   1.933
 2999TIP3   OH2 9002   3.185   4.431   1.352
 2999TIP3    H1 9003   3.253   4.497   1.361
 2999TIP3    H2 9004   3.219   4.368   1.289
 3000TIP3   OH2 9005   3.104   3.720   1.486
 3000TIP3    H1 9006   3.113   3.815   1.491
 3000TIP3    H2 9007   3.024   3.706   1.434
 3001TIP3   OH2 9008   4.431   5.186   1.823
 3001TIP3    H1 9009   4.388   5.236   1.754
 3001TIP3    H2 9010   4.525   5.202   1.809
 3002TIP3   OH2 9011   3.503   3.443   2.353
 3002TIP3    H1 9012   3.472   3.409   2.269
 3002TIP3    H2 9013   3.493   3.370   2.414
 3003TIP3   OH2 9014   3.028   4.684   1.743
 3003TIP3    H1 9015   2.974   4.715   1.816
 3003TIP3    H2 9016   2.989   4.725   1.666
 3004TIP3   OH2 9017   3.213   5.225   2.815
 3004TIP3    H1 9018   3.296   5.229   2.862
 3004TIP3    H2 9019   3.195   5.132   2.805
 3005TIP3   OH2 9020   3.681   5.154   2.853
 3005TIP3    H1 9021   3.773   5.131   2.865
 3005TIP3    H2 9022   3.651   5.096   2.783
 3006TIP3   OH2 9023   3.622   4.748   0.964
 3006TIP3    H1 9024   3.571   4.681   1.010
 3006TIP3    H2 9025   3.709   4.709   0.955
 3007TIP3   OH2 9026   4.309   5.082   2.601
 3007TIP3    H1 9027   4.313   5.010   2.665
 3007TIP3    H2 9028   4.386   5.135   2.619
 3008TIP3   OH2 9029   4.121   4.788   0.965
 3008TIP3    H1 9030   4.153   4.718   1.022
 3008TIP3    H2 9031   4.175   4.780   0.886
 3009TIP3   OH2 9032   3.326   4.620   3.009
 3009TIP3    H1 9033   3.344   4.527   3.018
 3009TIP3    H2 9034   3.240   4.624   2.966
 3010TIP3   OH2 9035   3.319   4.241   1.208
 3010TIP3    H1 9036   3.369   4.217   1.286
 3010TIP3    H2 9037   3.385   4.254   1.140
 3011TIP3   OH2 9038   3.941   4.707   2.784
 3011TIP3    H1 9039   3.900   4.728   2.701
 3011TIP3    H2 9040   3.979   4.620   2.772
 3012TIP3   OH2 9041   3.809   4.453   1.008
 3012TIP3    H1 9042   3.818   4.469   1.102
 3012TIP3    H2 9043   3.818   4.358   0.999
 3013TIP3   OH2 9044   4.422   4.739   2.398
 3013TIP3    H1 9045   4.500   4.769   2.351
 3013TIP3    H2 9046   4.356   4.806   2.380
 3014TIP3   OH2 9047   3.443   4.361   3.007
 3014TIP3    H1 9048   3.521   4.341   2.954
 3014TIP3    H2 9049   3.477   4.382   3.093
 3015TIP3   OH2 9050   3.498   4.176   1.418
 3015TIP3    H1 9051   3.475   4.147   1.506
 3015TIP3    H2 9052   3.541   4.101   1.378
 3016TIP3   OH2 9053   3.790   4.238   2.662
 3016TIP3    H1 9054   3.712   4.292   2.671
 3016TIP3    H2 9055   3.832   4.270   2.582
 3017TIP3   OH2 9056   3.625   3.981   1.262
 3017TIP3    H1 9057   3.598   3.984   1.171
 3017TIP3    H2 9058   3.721   3.986   1.259
 3018TIP3   OH2 9059   4.304   4.628   2.774
 3018TIP3    H1 9060   4.378   4.595   2.722
 3018TIP3    H2 9061   4.300   4.569   2.849
 3019TIP3   OH2 9062   4.447   4.277   0.984
 3019TIP3    H1 9063   4.416   4.246   0.899
 3019TIP3    H2 9064   4.423   4.370   0.986
 3020TIP3   OH2 9065   3.899   4.020   2.787
 3020TIP3    H1 9066   3.909   3.948   2.725
 3020TIP3    H2 9067   3.865   4.092   2.734
 3021TIP3   OH2 9068   3.924   3.812   2.591
 3021TIP3    H1 9069   3.951   3.849   2.507
 3021TIP3    H2 9070   3.833   3.785   2.578
 3022TIP3   OH2 9071   3.927   4.348   2.456
 3022TIP3    H1 9072   4.017   4.368   2.430
 3022TIP3    H2 9073   3.874   4.412   2.409
 3023TIP3   OH2 9074   4.522   4.291   2.834
 3023TIP3    H1 9075   4.566   4.207   2.851
 3023TIP3    H2 9076   4.593   4.350   2.807
 3024TIP3   OH2 9077   4.553   4.572   2.569
 3024TIP3    H1 9078   4.498   4.631   2.517
 3024TIP3    H2 9079   4.642   4.588   2.537
 3025TIP3   OH2 9080   3.798   4.120   3.032
 3025TIP3    H1 9081   3.716   4.076   3.054
 3025TIP3    H2 9082   3.821   4.086   2.945
 3026TIP3   OH2 9083   4.084   3.605   2.709
 3026TIP3    H1 9084   4.033   3.680   2.678
 3026TIP3    H2 9085   4.024   3.531   2.705
 3027TIP3   OH2 9086   4.167   4.062   2.878
 3027TIP3    H1 9087   4.165   4.048   2.973
 3027TIP3    H2 9088   4.078   4.042   2.849
 3028TIP3   OH2 9089   4.408   4.001   2.739
 3028TIP3    H1 9090   4.342   4.018   2.805
 3028TIP3    H2 9091   4.491   4.000   2.787
 3029TIP3   OH2 9092   3.435   5.032   1.195
 3029TIP3    H1 9093   3.525   5.014   1.168
 3029TIP3    H2 9094   3.399   5.084   1.124
 3030TIP3   OH2 9095   2.911   4.414   1.372
 3030TIP3    H1 9096   3.006   4.429   1.369
 3030TIP3    H2 9097   2.900   4.326   1.337
 3031TIP3   OH2 9098   2.820   5.013   1.825
 3031TIP3    H1 9099   2.757   4.958   1.779
 3031TIP3    H2 9100   2.865   4.953   1.885
 3032TIP3   OH2 9101   2.959   4.849   1.999
 3032TIP3    H1 9102   2.947   4.779   2.063
 3032TIP3    H2 9103   3.012   4.914   2.044
 3033TIP3   OH2 9104   4.694   5.260   1.804
 3033TIP3    H1 9105   4.720   5.287   1.892
 3033TIP3    H2 9106   4.758   5.303   1.746
 3034TIP3   OH2 9107   4.721   5.276   2.087
 3034TIP3    H1 9108   4.673   5.194   2.079
 3034TIP3    H2 9109   4.791   5.257   2.150
 3035TIP3   OH2 9110   4.760   4.972   2.657
 3035TIP3    H1 9111   4.692   4.979   2.723
 3035TIP3    H2 9112   4.807   5.056   2.661
 3036TIP3   OH2 9113   4.586   4.490   1.279
 3036TIP3    H1 9114   4.650   4.557   1.252
 3036TIP3    H2 9115   4.626   4.449   1.356
 3037TIP3   OH2 9116   4.711   4.343   1.474
 3037TIP3    H1 9117   4.646   4.302   1.531
 3037TIP3    H2 9118   4.777   4.377   1.534
 3038TIP3   OH2 9119   4.763   4.742   1.899
 3038TIP3    H1 9120   4.818   4.673   1.861
 3038TIP3    H2 9121   4.765   4.813   1.835
 3039TIP3   OH2 9122   4.579   5.037   2.093
 3039TIP3    H1 9123   4.510   5.079   2.145
 3039TIP3    H2 9124   4.531   4.994   2.022
 3040TIP3   OH2 9125   4.645   4.249   1.155
 3040TIP3    H1 9126   4.572   4.249   1.092
 3040TIP3    H2 9127   4.634   4.331   1.204
 3041TIP3   OH2 9128   4.471   3.904   1.128
 3041TIP3    H1 9129   4.477   3.957   1.048
 3041TIP3    H2 9130   4.456   3.815   1.096
 3042TIP3   OH2 9131   4.516   4.203   1.613
 3042TIP3    H1 9132   4.523   4.108   1.603
 3042TIP3    H2 9133   4.499   4.216   1.707
 3043TIP3   OH2 9134   3.140   4.276   2.369
 3043TIP3    H1 9135   3.131   4.238   2.281
 3043TIP3    H2 9136   3.235   4.276   2.385
 3044TIP3   OH2 9137   4.808   4.626   2.472
 3044TIP3    H1 9138   4.872   4.557   2.456
 3044TIP3    H2 9139   4.831   4.694   2.409
 3045TIP3   OH2 9140   4.978   4.411   2.463
 3045TIP3    H1 9141   4.906   4.370   2.511
 3045TIP3    H2 9142   5.053   4.355   2.481
 3046TIP3   OH2 9143   4.451   3.642   1.033
 3046TIP3    H1 9144   4.517   3.617   1.097
 3046TIP3    H2 9145   4.371   3.599   1.063
 3047TIP3   OH2 9146   4.515   3.924   1.502
 3047TIP3    H1 9147   4.557   3.839   1.514
 3047TIP3    H2 9148   4.565   3.965   1.432
 3048TIP3   OH2 9149   4.669   4.091   2.009
 3048TIP3    H1 9150   4.750   4.109   1.963
 3048TIP3    H2 9151   4.682   4.128   2.096
 3049TIP3   OH2 9152   4.742   4.238   2.238
 3049TIP3    H1 9153   4.672   4.267   2.296
 3049TIP3    H2 9154   4.774   4.317   2.196
 3050TIP3   OH2 9155   5.229   3.861   2.791
 3050TIP3    H1 9156   5.272   3.792   2.740
 3050TIP3    H2 9157   5.162   3.896   2.733
 3051TIP3   OH2 9158   4.626   3.673   1.545
 3051TIP3    H1 9159   4.672   3.658   1.628
 3051TIP3    H2 9160   4.563   3.601   1.539
 3052TIP3   OH2 9161   3.328   3.660   2.366
 3052TIP3    H1 9162   3.384   3.582   2.375
 3052TIP3    H2 9163   3.390   3.732   2.357
 3053TIP3   OH2 9164   3.119   3.927   2.436
 3053TIP3    H1 9165   3.169   3.917   2.355
 3053TIP3    H2 9166   3.147   4.012   2.471
 3054TIP3   OH2 9167   5.044   3.956   2.606
 3054TIP3    H1 9168   4.956   3.994   2.611
 3054TIP3    H2 9169   5.035   3.882   2.546
 3055TIP3   OH2 9170   4.683   3.597   1.182
 3055TIP3    H1 9171   4.731   3.531   1.132
 3055TIP3    H2 9172   4.743   3.672   1.187
 3056TIP3   OH2 9173   3.104   3.427   1.938
 3056TIP3    H1 9174   3.016   3.419   1.976
 3056TIP3    H2 9175   3.091   3.485   1.863
 3057TIP3   OH2 9176   4.254   5.154   1.454
 3057TIP3    H1 9177   4.308   5.140   1.375
 3057TIP3    H2 9178   4.304   5.217   1.506
 3058TIP3   OH2 9179   3.331   3.548   2.781
 3058TIP3    H1 9180   3.304   3.481   2.843
 3058TIP3    H2 9181   3.255   3.562   2.725
 3059TIP3   OH2 9182   3.357   4.947   2.830
 3059TIP3    H1 9183   3.265   4.926   2.819
 3059TIP3    H2 9184   3.376   4.928   2.921
 3060TIP3   OH2 9185   3.560   4.988   2.381
 3060TIP3    H1 9186   3.508   5.061   2.347
 3060TIP3    H2 9187   3.645   4.997   2.338
 3061TIP3   OH2 9188   3.976   5.224   2.517
 3061TIP3    H1 9189   4.015   5.215   2.604
 3061TIP3    H2 9190   4.040   5.274   2.467
 3062TIP3   OH2 9191   4.164   5.377   2.385
 3062TIP3    H1 9192   4.227   5.323   2.338
 3062TIP3    H2 9193   4.217   5.433   2.441
 3063TIP3   OH2 9194   4.965   3.727   2.463
 3063TIP3    H1 9195   4.878   3.728   2.425
 3063TIP3    H2 9196   4.991   3.635   2.463
 3064TIP3   OH2 9197   3.223   5.239   2.421
 3064TIP3    H1 9198   3.133   5.260   2.399
 3064TIP3    H2 9199   3.246   5.300   2.491
 3065TIP3   OH2 9200   3.454   5.218   2.271
 3065TIP3    H1 9201   3.371   5.226   2.317
 3065TIP3    H2 9202   3.435   5.245   2.181
 3066TIP3   OH2 9203   3.877   5.238   2.065
 3066TIP3    H1 9204   3.808   5.251   1.999
 3066TIP3    H2 9205   3.889   5.324   2.105
 3067TIP3   OH2 9206   4.143   5.177   2.117
 3067TIP3    H1 9207   4.051   5.194   2.097
 3067TIP3    H2 9208   4.191   5.245   2.070
 3068TIP3   OH2 9209   4.346   5.358   2.021
 3068TIP3    H1 9210   4.339   5.444   1.979
 3068TIP3    H2 9211   4.376   5.300   1.951
 3069TIP3   OH2 9212   3.137   5.017   2.149
 3069TIP3    H1 9213   3.161   4.988   2.237
 3069TIP3    H2 9214   3.207   4.984   2.093
 3070TIP3   OH2 9215   3.337   4.900   2.008
 3070TIP3    H1 9216   3.348   4.816   2.053
 3070TIP3    H2 9217   3.424   4.939   2.008
 3071TIP3   OH2 9218   3.605   4.986   2.025
 3071TIP3    H1 9219   3.626   4.894   2.011
 3071TIP3    H2 9220   3.657   5.010   2.102
 3072TIP3   OH2 9221   4.169   3.640   2.107
 3072TIP3    H1 9222   4.127   3.567   2.152
 3072TIP3    H2 9223   4.239   3.601   2.055
 3073TIP3   OH2 9224   4.677   3.534   1.998
 3073TIP3    H1 9225   4.716   3.585   1.927
 3073TIP3    H2 9226   4.586   3.565   2.002
 3074TIP3   OH2 9227   4.788   3.622   1.764
 3074TIP3    H1 9228   4.858   3.564   1.734
 3074TIP3    H2 9229   4.823   3.711   1.752
 3075TIP3   OH2 9230   3.412   3.339   2.112
 3075TIP3    H1 9231   3.322   3.308   2.121
 3075TIP3    H2 9232   3.465   3.260   2.105
 3076TIP3   OH2 9233   3.212   3.231   1.762
 3076TIP3    H1 9234   3.243   3.285   1.689
 3076TIP3    H2 9235   3.181   3.294   1.827
 3077TIP3   OH2 9236   3.875   3.381   1.998
 3077TIP3    H1 9237   3.926   3.427   1.932
 3077TIP3    H2 9238   3.911   3.411   2.082
 3078TIP3   OH2 9239   4.388   3.529   1.979
 3078TIP3    H1 9240   4.401   3.495   1.890
 3078TIP3    H2 9241   4.388   3.451   2.034
 3079TIP3   OH2 9242   4.439   3.464   1.546
 3079TIP3    H1 9243   4.358   3.512   1.567
 3079TIP3    H2 9244   4.427   3.378   1.585
 3080TIP3   OH2 9245   2.913   4.807   1.527
 3080TIP3    H1 9246   2.828   4.772   1.501
 3080TIP3    H2 9247   2.912   4.898   1.497
 3081TIP3   OH2 9248   3.333   3.376   1.529
 3081TIP3    H1 9249   3.378   3.314   1.471
 3081TIP3    H2 9250   3.404   3.431   1.564
 3082TIP3   OH2 9251   3.829   3.566   1.624
 3082TIP3    H1 9252   3.888   3.515   1.680
 3082TIP3    H2 9253   3.843   3.657   1.651
 3083TIP3   OH2 9254   3.692   4.969   1.119
 3083TIP3    H1 9255   3.779   4.990   1.084
 3083TIP3    H2 9256   3.656   4.907   1.056
 3084TIP3   OH2 9257   4.404   5.103   1.228
 3084TIP3    H1 9258   4.399   5.007   1.233
 3084TIP3    H2 9259   4.388   5.122   1.135
 3085TIP3   OH2 9260   2.996   4.810   1.185
 3085TIP3    H1 9261   3.000   4.821   1.280
 3085TIP3    H2 9262   3.078   4.766   1.162
 3086TIP3   OH2 9263   4.642   3.706   2.914
 3086TIP3    H1 9264   4.686   3.684   2.995
 3086TIP3    H2 9265   4.667   3.797   2.896
 3087TIP3   OH2 9266   4.627   5.245   2.408
 3087TIP3    H1 9267   4.552   5.214   2.357
 3087TIP3    H2 9268   4.614   5.339   2.416
 3088TIP3   OH2 9269   5.897   4.598   1.228
 3088TIP3    H1 9270   5.883   4.693   1.232
 3088TIP3    H2 9271   5.822   4.565   1.179
 3089TIP3   OH2 9272   5.867   4.617   1.567
 3089TIP3    H1 9273   5.914   4.601   1.649
 3089TIP3    H2 9274   5.834   4.531   1.541
 3090TIP3   OH2 9275   5.199   4.497   1.922
 3090TIP3    H1 9276   5.230   4.439   1.991
 3090TIP3    H2 9277   5.280   4.530   1.881
 3091TIP3   OH2 9278   6.122   4.914   1.282
 3091TIP3    H1 9279   6.127   4.847   1.351
 3091TIP3    H2 9280   6.098   4.994   1.329
 3092TIP3   OH2 9281   5.180   4.922   1.624
 3092TIP3    H1 9282   5.167   4.827   1.628
 3092TIP3    H2 9283   5.275   4.933   1.620
 3093TIP3   OH2 9284   4.884   4.122   1.410
 3093TIP3    H1 9285   4.843   4.206   1.429
 3093TIP3    H2 9286   4.814   4.069   1.373
 3094TIP3   OH2 9287   4.943   4.416   1.608
 3094TIP3    H1 9288   4.993   4.339   1.636
 3094TIP3    H2 9289   5.006   4.468   1.559
 3095TIP3   OH2 9290   5.701   4.846   1.584
 3095TIP3    H1 9291   5.738   4.762   1.558
 3095TIP3    H2 9292   5.776   4.899   1.610
 3096TIP3   OH2 9293   6.140   4.349   1.635
 3096TIP3    H1 9294   6.170   4.262   1.663
 3096TIP3    H2 9295   6.096   4.333   1.552
 3097TIP3   OH2 9296   5.455   4.007   1.580
 3097TIP3    H1 9297   5.445   4.077   1.516
 3097TIP3    H2 9298   5.403   3.935   1.545
 3098TIP3   OH2 9299   6.168   4.081   1.275
 3098TIP3    H1 9300   6.258   4.050   1.280
 3098TIP3    H2 9301   6.162   4.121   1.188
 3099TIP3   OH2 9302   5.092   4.202   1.697
 3099TIP3    H1 9303   5.173   4.186   1.745
 3099TIP3    H2 9304   5.104   4.157   1.613
 3100TIP3   OH2 9305   5.522   4.402   1.513
 3100TIP3    H1 9306   5.616   4.387   1.523
 3100TIP3    H2 9307   5.490   4.323   1.469
 3101TIP3   OH2 9308   5.448   3.994   2.030
 3101TIP3    H1 9309   5.397   4.029   1.957
 3101TIP3    H2 9310   5.395   4.010   2.107
 3102TIP3   OH2 9311   5.663   4.848   1.031
 3102TIP3    H1 9312   5.692   4.796   0.956
 3102TIP3    H2 9313   5.743   4.891   1.063
 3103TIP3   OH2 9314   5.554   4.770   1.806
 3103TIP3    H1 9315   5.495   4.837   1.840
 3103TIP3    H2 9316   5.598   4.812   1.732
 3104TIP3   OH2 9317   5.331   4.105   1.805
 3104TIP3    H1 9318   5.387   4.179   1.829
 3104TIP3    H2 9319   5.375   4.066   1.730
 3105TIP3   OH2 9320   5.383   4.966   1.904
 3105TIP3    H1 9321   5.367   5.055   1.872
 3105TIP3    H2 9322   5.307   4.945   1.958
 3106TIP3   OH2 9323   4.781   4.669   1.187
 3106TIP3    H1 9324   4.735   4.691   1.106
 3106TIP3    H2 9325   4.811   4.754   1.221
 3107TIP3   OH2 9326   5.781   3.694   1.745
 3107TIP3    H1 9327   5.771   3.601   1.765
 3107TIP3    H2 9328   5.706   3.735   1.788
 3108TIP3   OH2 9329   5.740   4.474   1.034
 3108TIP3    H1 9330   5.651   4.507   1.027
 3108TIP3    H2 9331   5.785   4.511   0.958
 3109TIP3   OH2 9332   5.695   4.351   0.733
 3109TIP3    H1 9333   5.761   4.283   0.737
 3109TIP3    H2 9334   5.612   4.303   0.730
 3110TIP3   OH2 9335   6.097   4.490   1.073
 3110TIP3    H1 9336   6.026   4.515   1.133
 3110TIP3    H2 9337   6.160   4.562   1.079
 3111TIP3   OH2 9338   6.265   4.598   1.901
 3111TIP3    H1 9339   6.252   4.679   1.951
 3111TIP3    H2 9340   6.188   4.590   1.845
 3112TIP3   OH2 9341   5.309   4.535   1.388
 3112TIP3    H1 9342   5.268   4.474   1.327
 3112TIP3    H2 9343   5.384   4.487   1.423
 3113TIP3   OH2 9344   5.448   4.965   1.523
 3113TIP3    H1 9345   5.422   4.937   1.435
 3113TIP3    H2 9346   5.534   4.926   1.536
 3114TIP3   OH2 9347   5.426   4.533   1.744
 3114TIP3    H1 9348   5.463   4.498   1.663
 3114TIP3    H2 9349   5.477   4.613   1.761
 3115TIP3   OH2 9350   5.989   5.142   1.515
 3115TIP3    H1 9351   6.016   5.205   1.582
 3115TIP3    H2 9352   5.970   5.062   1.563
 3116TIP3   OH2 9353   5.580   5.071   2.068
 3116TIP3    H1 9354   5.524   5.134   2.114
 3116TIP3    H2 9355   5.520   5.020   2.013
 3117TIP3   OH2 9356   6.029   4.416   0.821
 3117TIP3    H1 9357   6.062   4.449   0.904
 3117TIP3    H2 9358   5.977   4.488   0.785
 3118TIP3   OH2 9359   5.347   4.631   2.185
 3118TIP3    H1 9360   5.350   4.721   2.216
 3118TIP3    H2 9361   5.254   4.609   2.182
 3119TIP3   OH2 9362   5.629   5.115   1.136
 3119TIP3    H1 9363   5.714   5.087   1.172
 3119TIP3    H2 9364   5.604   5.044   1.076
 3120TIP3   OH2 9365   5.375   5.242   2.146
 3120TIP3    H1 9366   5.348   5.244   2.054
 3120TIP3    H2 9367   5.294   5.224   2.194
 3121TIP3   OH2 9368   5.176   4.370   1.203
 3121TIP3    H1 9369   5.098   4.416   1.170
 3121TIP3    H2 9370   5.160   4.278   1.180
 3122TIP3   OH2 9371   4.964   4.782   2.098
 3122TIP3    H1 9372   4.896   4.761   2.034
 3122TIP3    H2 9373   5.000   4.697   2.123
 3123TIP3   OH2 9374   4.829   4.965   1.736
 3123TIP3    H1 9375   4.924   4.960   1.724
 3123TIP3    H2 9376   4.817   5.041   1.793
 3124TIP3   OH2 9377   5.778   5.201   1.927
 3124TIP3    H1 9378   5.773   5.293   1.955
 3124TIP3    H2 9379   5.711   5.157   1.978
 3125TIP3   OH2 9380   5.433   5.317   0.884
 3125TIP3    H1 9381   5.433   5.266   0.803
 3125TIP3    H2 9382   5.522   5.350   0.892
 3126TIP3   OH2 9383   4.989   5.170   1.258
 3126TIP3    H1 9384   5.031   5.168   1.344
 3126TIP3    H2 9385   4.939   5.089   1.253
 3127TIP3   OH2 9386   5.168   4.964   2.074
 3127TIP3    H1 9387   5.217   4.952   2.155
 3127TIP3    H2 9388   5.095   4.902   2.081
 3128TIP3   OH2 9389   5.554   3.784   1.880
 3128TIP3    H1 9390   5.470   3.753   1.848
 3128TIP3    H2 9391   5.534   3.864   1.928
 3129TIP3   OH2 9392   6.079   3.903   2.068
 3129TIP3    H1 9393   6.150   3.868   2.122
 3129TIP3    H2 9394   6.000   3.891   2.121
 3130TIP3   OH2 9395   6.341   4.345   1.973
 3130TIP3    H1 9396   6.288   4.331   2.051
 3130TIP3    H2 9397   6.319   4.434   1.944
 3131TIP3   OH2 9398   5.722   3.795   0.866
 3131TIP3    H1 9399   5.656   3.863   0.881
 3131TIP3    H2 9400   5.673   3.713   0.869
 3132TIP3   OH2 9401   5.495   4.309   1.891
 3132TIP3    H1 9402   5.449   4.320   1.975
 3132TIP3    H2 9403   5.476   4.389   1.842
 3133TIP3   OH2 9404   5.401   4.190   1.382
 3133TIP3    H1 9405   5.309   4.165   1.387
 3133TIP3    H2 9406   5.428   4.163   1.293
 3134TIP3   OH2 9407   5.837   4.284   1.213
 3134TIP3    H1 9408   5.789   4.356   1.173
 3134TIP3    H2 9409   5.841   4.217   1.144
 3135TIP3   OH2 9410   6.035   4.547   2.219
 3135TIP3    H1 9411   6.008   4.479   2.280
 3135TIP3    H2 9412   6.129   4.556   2.234
 3136TIP3   OH2 9413   6.036   4.294   1.392
 3136TIP3    H1 9414   5.965   4.308   1.329
 3136TIP3    H2 9415   6.079   4.214   1.362
 3137TIP3   OH2 9416   5.323   4.325   2.108
 3137TIP3    H1 9417   5.358   4.384   2.175
 3137TIP3    H2 9418   5.306   4.243   2.155
 3138TIP3   OH2 9419   5.395   3.765   0.881
 3138TIP3    H1 9420   5.387   3.781   0.975
 3138TIP3    H2 9421   5.367   3.847   0.840
 3139TIP3   OH2 9422   4.916   3.847   1.689
 3139TIP3    H1 9423   4.986   3.883   1.744
 3139TIP3    H2 9424   4.959   3.829   1.605
 3140TIP3   OH2 9425   4.850   3.820   1.200
 3140TIP3    H1 9426   4.899   3.858   1.126
 3140TIP3    H2 9427   4.792   3.891   1.228
 3141TIP3   OH2 9428   6.013   4.535   1.788
 3141TIP3    H1 9429   6.061   4.475   1.731
 3141TIP3    H2 9430   5.990   4.483   1.864
 3142TIP3   OH2 9431   5.717   3.951   1.492
 3142TIP3    H1 9432   5.633   3.976   1.530
 3142TIP3    H2 9433   5.782   3.982   1.556
 3143TIP3   OH2 9434   5.152   4.075   1.456
 3143TIP3    H1 9435   5.060   4.079   1.429
 3143TIP3    H2 9436   5.175   3.982   1.447
 3144TIP3   OH2 9437   6.170   4.067   1.678
 3144TIP3    H1 9438   6.154   4.091   1.769
 3144TIP3    H2 9439   6.094   4.015   1.652
 3145TIP3   OH2 9440   5.194   4.139   1.000
 3145TIP3    H1 9441   5.177   4.076   0.930
 3145TIP3    H2 9442   5.284   4.119   1.029
 3146TIP3   OH2 9443   5.326   4.886   2.304
 3146TIP3    H1 9444   5.406   4.918   2.347
 3146TIP3    H2 9445   5.260   4.885   2.373
 3147TIP3   OH2 9446   5.790   4.344   1.569
 3147TIP3    H1 9447   5.856   4.300   1.515
 3147TIP3    H2 9448   5.794   4.299   1.653
 3148TIP3   OH2 9449   5.287   3.823   1.452
 3148TIP3    H1 9450   5.260   3.745   1.500
 3148TIP3    H2 9451   5.311   3.792   1.365
 3149TIP3   OH2 9452   5.763   4.245   1.842
 3149TIP3    H1 9453   5.676   4.279   1.862
 3149TIP3    H2 9454   5.822   4.297   1.897
 3150TIP3   OH2 9455   5.504   4.594   0.991
 3150TIP3    H1 9456   5.448   4.516   0.997
 3150TIP3    H2 9457   5.481   4.646   1.068
 3151TIP3   OH2 9458   5.942   3.940   0.903
 3151TIP3    H1 9459   5.862   3.889   0.895
 3151TIP3    H2 9460   5.916   4.029   0.880
 3152TIP3   OH2 9461   5.931   4.952   1.953
 3152TIP3    H1 9462   5.932   4.924   2.045
 3152TIP3    H2 9463   5.873   5.028   1.951
 3153TIP3   OH2 9464   6.115   4.166   1.028
 3153TIP3    H1 9465   6.153   4.156   0.941
 3153TIP3    H2 9466   6.023   4.186   1.012
 3154TIP3   OH2 9467   5.194   4.642   1.614
 3154TIP3    H1 9468   5.227   4.615   1.528
 3154TIP3    H2 9469   5.252   4.601   1.677
 3155TIP3   OH2 9470   5.593   4.717   0.767
 3155TIP3    H1 9471   5.541   4.797   0.765
 3155TIP3    H2 9472   5.565   4.671   0.846
 3156TIP3   OH2 9473   5.079   4.567   2.237
 3156TIP3    H1 9474   5.106   4.559   2.329
 3156TIP3    H2 9475   5.010   4.501   2.226
 3157TIP3   OH2 9476   5.800   4.694   2.252
 3157TIP3    H1 9477   5.737   4.632   2.216
 3157TIP3    H2 9478   5.886   4.657   2.228
 3158TIP3   OH2 9479   6.050   5.218   1.837
 3158TIP3    H1 9480   5.958   5.205   1.859
 3158TIP3    H2 9481   6.090   5.252   1.918
 3159TIP3   OH2 9482   6.116   4.722   1.480
 3159TIP3    H1 9483   6.029   4.683   1.490
 3159TIP3    H2 9484   6.171   4.650   1.449
 3160TIP3   OH2 9485   5.293   4.948   1.278
 3160TIP3    H1 9486   5.289   5.027   1.224
 3160TIP3    H2 9487   5.201   4.925   1.293
 3161TIP3   OH2 9488   4.845   4.241   0.976
 3161TIP3    H1 9489   4.894   4.318   1.005
 3161TIP3    H2 9490   4.773   4.233   1.038
 3162TIP3   OH2 9491   5.419   4.717   1.214
 3162TIP3    H1 9492   5.384   4.804   1.235
 3162TIP3    H2 9493   5.382   4.659   1.280
 3163TIP3   OH2 9494   5.584   5.289   1.721
 3163TIP3    H1 9495   5.621   5.364   1.675
 3163TIP3    H2 9496   5.659   5.249   1.766
 3164TIP3   OH2 9497   5.235   5.175   1.134
 3164TIP3    H1 9498   5.145   5.185   1.165
 3164TIP3    H2 9499   5.280   5.251   1.170
 3165TIP3   OH2 9500   5.953   4.919   1.675
 3165TIP3    H1 9501   5.953   4.920   1.771
 3165TIP3    H2 9502   6.022   4.857   1.652
 3166TIP3   OH2 9503   5.281   4.073   2.238
 3166TIP3    H1 9504   5.186   4.081   2.245
 3166TIP3    H2 9505   5.307   4.024   2.316
 3167TIP3   OH2 9506   6.115   4.760   0.732
 3167TIP3    H1 9507   6.071   4.776   0.816
 3167TIP3    H2 9508   6.178   4.691   0.751
 3168TIP3   OH2 9509   5.010   5.165   1.882
 3168TIP3    H1 9510   5.061   5.098   1.927
 3168TIP3    H2 9511   5.027   5.246   1.931
 3169TIP3   OH2 9512   5.117   4.854   0.937
 3169TIP3    H1 9513   5.197   4.806   0.956
 3169TIP3    H2 9514   5.146   4.940   0.909
 3170TIP3   OH2 9515   4.945   4.472   1.079
 3170TIP3    H1 9516   4.892   4.540   1.121
 3170TIP3    H2 9517   5.008   4.521   1.026
 3171TIP3   OH2 9518   6.132   4.141   1.937
 3171TIP3    H1 9519   6.220   4.170   1.963
 3171TIP3    H2 9520   6.117   4.062   1.988
 3172TIP3   OH2 9521   6.034   3.872   1.152
 3172TIP3    H1 9522   6.007   3.894   1.063
 3172TIP3    H2 9523   6.065   3.955   1.188
 3173TIP3   OH2 9524   5.576   5.051   0.812
 3173TIP3    H1 9525   5.482   5.064   0.813
 3173TIP3    H2 9526   5.600   5.057   0.719
 3174TIP3   OH2 9527   5.965   4.367   1.997
 3174TIP3    H1 9528   5.994   4.415   2.075
 3174TIP3    H2 9529   6.023   4.292   1.992
 3175TIP3   OH2 9530   5.815   3.786   1.300
 3175TIP3    H1 9531   5.789   3.855   1.361
 3175TIP3    H2 9532   5.893   3.820   1.257
 3176TIP3   OH2 9533   5.257   5.082   0.873
 3176TIP3    H1 9534   5.232   5.146   0.806
 3176TIP3    H2 9535   5.247   5.129   0.956
 3177TIP3   OH2 9536   5.328   3.803   1.149
 3177TIP3    H1 9537   5.328   3.898   1.142
 3177TIP3    H2 9538   5.420   3.780   1.159
 3178TIP3   OH2 9539   6.244   4.488   1.397
 3178TIP3    H1 9540   6.172   4.430   1.370
 3178TIP3    H2 9541   6.272   4.454   1.482
 3179TIP3   OH2 9542   4.934   4.697   0.825
 3179TIP3    H1 9543   4.997   4.746   0.879
 3179TIP3    H2 9544   4.984   4.624   0.790
 3180TIP3   OH2 9545   4.915   3.974   0.987
 3180TIP3    H1 9546   4.909   4.069   0.988
 3180TIP3    H2 9547   4.844   3.947   0.928
 3181TIP3   OH2 9548   5.295   3.698   1.840
 3181TIP3    H1 9549   5.266   3.667   1.754
 3181TIP3    H2 9550   5.284   3.623   1.898
 3182TIP3   OH2 9551   4.838   4.935   1.259
 3182TIP3    H1 9552   4.794   4.966   1.339
 3182TIP3    H2 9553   4.780   4.964   1.188
 3183TIP3   OH2 9554   5.009   5.480   2.303
 3183TIP3    H1 9555   5.092   5.482   2.351
 3183TIP3    H2 9556   4.990   5.387   2.292
 3184TIP3   OH2 9557   5.483   5.409   2.335
 3184TIP3    H1 9558   5.571   5.374   2.348
 3184TIP3    H2 9559   5.446   5.356   2.265
 3185TIP3   OH2 9560   6.150   5.300   2.088
 3185TIP3    H1 9561   6.110   5.237   2.148
 3185TIP3    H2 9562   6.237   5.315   2.124
 3186TIP3   OH2 9563   5.122   4.873   2.491
 3186TIP3    H1 9564   5.138   4.780   2.506
 3186TIP3    H2 9565   5.035   4.876   2.451
 3187TIP3   OH2 9566   5.086   4.526   0.662
 3187TIP3    H1 9567   5.100   4.439   0.699
 3187TIP3    H2 9568   5.174   4.560   0.648
 3188TIP3   OH2 9569   5.771   4.976   2.244
 3188TIP3    H1 9570   5.700   4.987   2.181
 3188TIP3    H2 9571   5.779   4.881   2.255
 3189TIP3   OH2 9572   6.227   4.978   1.889
 3189TIP3    H1 9573   6.253   5.052   1.833
 3189TIP3    H2 9574   6.132   4.989   1.900
 3190TIP3   OH2 9575   5.243   4.606   2.479
 3190TIP3    H1 9576   5.325   4.587   2.434
 3190TIP3    H2 9577   5.269   4.633   2.567
 3191TIP3   OH2 9578   5.364   4.370   0.969
 3191TIP3    H1 9579   5.324   4.325   1.043
 3191TIP3    H2 9580   5.406   4.300   0.919
 3192TIP3   OH2 9581   5.583   4.493   2.144
 3192TIP3    H1 9582   5.506   4.549   2.153
 3192TIP3    H2 9583   5.628   4.525   2.066
 3193TIP3   OH2 9584   5.448   4.169   0.792
 3193TIP3    H1 9585   5.438   4.096   0.732
 3193TIP3    H2 9586   5.478   4.129   0.874
 3194TIP3   OH2 9587   6.100   4.888   2.257
 3194TIP3    H1 9588   6.181   4.860   2.214
 3194TIP3    H2 9589   6.092   4.830   2.333
 3195TIP3   OH2 9590   5.703   4.277   2.262
 3195TIP3    H1 9591   5.707   4.203   2.202
 3195TIP3    H2 9592   5.664   4.348   2.212
 3196TIP3   OH2 9593   5.709   4.072   2.067
 3196TIP3    H1 9594   5.738   4.112   1.985
 3196TIP3    H2 9595   5.617   4.050   2.052
 3197TIP3   OH2 9596   5.724   4.601   1.940
 3197TIP3    H1 9597   5.813   4.613   1.905
 3197TIP3    H2 9598   5.671   4.666   1.895
 3198TIP3   OH2 9599   6.309   4.558   2.319
 3198TIP3    H1 9600   6.340   4.468   2.323
 3198TIP3    H2 9601   6.377   4.605   2.271
 3199TIP3   OH2 9602   6.355   4.824   2.071
 3199TIP3    H1 9603   6.313   4.883   2.009
 3199TIP3    H2 9604   6.423   4.780   2.019
 3200TIP3   OH2 9605   5.577   4.371   2.496
 3200TIP3    H1 9606   5.510   4.306   2.517
 3200TIP3    H2 9607   5.611   4.345   2.411
 3201TIP3   OH2 9608   5.826   3.838   2.160
 3201TIP3    H1 9609   5.785   3.919   2.129
 3201TIP3    H2 9610   5.759   3.771   2.146
 3202TIP3   OH2 9611   5.960   4.322   2.359
 3202TIP3    H1 9612   5.948   4.318   2.454
 3202TIP3    H2 9613   5.874   4.301   2.323
 3203TIP3   OH2 9614   6.187   4.293   2.198
 3203TIP3    H1 9615   6.109   4.293   2.253
 3203TIP3    H2 9616   6.258   4.272   2.258
 3204TIP3   OH2 9617   6.391   4.260   2.372
 3204TIP3    H1 9618   6.473   4.217   2.351
 3204TIP3    H2 9619   6.404   4.293   2.461
 3205TIP3   OH2 9620   5.415   4.149   2.565
 3205TIP3    H1 9621   5.422   4.059   2.533
 3205TIP3    H2 9622   5.454   4.145   2.653
 3206TIP3   OH2 9623   5.893   3.838   2.426
 3206TIP3    H1 9624   5.962   3.772   2.425
 3206TIP3    H2 9625   5.865   3.844   2.335
 3207TIP3   OH2 9626   5.988   4.051   2.571
 3207TIP3    H1 9627   5.960   3.980   2.514
 3207TIP3    H2 9628   5.915   4.113   2.569
 3208TIP3   OH2 9629   4.690   4.683   0.929
 3208TIP3    H1 9630   4.782   4.693   0.905
 3208TIP3    H2 9631   4.671   4.590   0.914
 3209TIP3   OH2 9632   4.618   5.254   1.318
 3209TIP3    H1 9633   4.551   5.199   1.278
 3209TIP3    H2 9634   4.665   5.195   1.377
 3210TIP3   OH2 9635   4.762   5.095   1.491
 3210TIP3    H1 9636   4.749   5.030   1.561
 3210TIP3    H2 9637   4.809   5.166   1.534
 3211TIP3   OH2 9638   4.936   4.531   1.858
 3211TIP3    H1 9639   4.928   4.495   1.770
 3211TIP3    H2 9640   5.030   4.529   1.876
 3212TIP3   OH2 9641   5.149   4.198   2.514
 3212TIP3    H1 9642   5.243   4.197   2.528
 3212TIP3    H2 9643   5.116   4.121   2.560
 3213TIP3   OH2 9644   5.123   3.917   1.861
 3213TIP3    H1 9645   5.180   3.840   1.865
 3213TIP3    H2 9646   5.183   3.990   1.848
 3214TIP3   OH2 9647   4.914   4.179   1.918
 3214TIP3    H1 9648   4.964   4.175   1.837
 3214TIP3    H2 9649   4.943   4.260   1.960
 3215TIP3   OH2 9650   4.899   3.679   1.425
 3215TIP3    H1 9651   4.811   3.675   1.464
 3215TIP3    H2 9652   4.889   3.737   1.350
 3216TIP3   OH2 9653   5.123   3.749   2.232
 3216TIP3    H1 9654   5.078   3.750   2.317
 3216TIP3    H2 9655   5.065   3.799   2.174
 3217TIP3   OH2 9656   5.156   5.206   2.313
 3217TIP3    H1 9657   5.064   5.181   2.315
 3217TIP3    H2 9658   5.189   5.185   2.400
 3218TIP3   OH2 9659   5.353   5.239   1.864
 3218TIP3    H1 9660   5.300   5.311   1.830
 3218TIP3    H2 9661   5.439   5.251   1.824
 3219TIP3   OH2 9662   5.783   5.470   2.005
 3219TIP3    H1 9663   5.824   5.457   2.090
 3219TIP3    H2 9664   5.849   5.516   1.953
 3220TIP3   OH2 9665   5.015   5.492   1.910
 3220TIP3    H1 9666   4.925   5.513   1.887
 3220TIP3    H2 9667   5.039   5.555   1.978
 3221TIP3   OH2 9668   5.240   5.465   1.757
 3221TIP3    H1 9669   5.159   5.474   1.807
 3221TIP3    H2 9670   5.218   5.498   1.670
 3222TIP3   OH2 9671   5.646   5.518   1.577
 3222TIP3    H1 9672   5.589   5.527   1.500
 3222TIP3    H2 9673   5.604   5.572   1.644
 3223TIP3   OH2 9674   4.932   5.273   1.636
 3223TIP3    H1 9675   4.954   5.245   1.725
 3223TIP3    H2 9676   5.004   5.241   1.582
 3224TIP3   OH2 9677   5.133   5.158   1.493
 3224TIP3    H1 9678   5.141   5.074   1.537
 3224TIP3    H2 9679   5.220   5.197   1.498
 3225TIP3   OH2 9680   5.400   5.241   1.513
 3225TIP3    H1 9681   5.420   5.148   1.503
 3225TIP3    H2 9682   5.453   5.269   1.588
 3226TIP3   OH2 9683   5.967   3.889   1.620
 3226TIP3    H1 9684   5.906   3.823   1.653
 3226TIP3    H2 9685   6.006   3.848   1.543
 3227TIP3   OH2 9686   5.209   3.597   1.596
 3227TIP3    H1 9687   5.119   3.566   1.603
 3227TIP3    H2 9688   5.261   3.517   1.590
 3228TIP3   OH2 9689   5.013   3.484   1.252
 3228TIP3    H1 9690   5.046   3.536   1.179
 3228TIP3    H2 9691   4.979   3.549   1.314
 3229TIP3   OH2 9692   5.665   3.633   1.487
 3229TIP3    H1 9693   5.698   3.687   1.415
 3229TIP3    H2 9694   5.696   3.676   1.566
 3230TIP3   OH2 9695   6.109   3.763   1.418
 3230TIP3    H1 9696   6.113   3.794   1.327
 3230TIP3    H2 9697   6.170   3.689   1.420
 3231TIP3   OH2 9698   6.203   3.682   1.032
 3231TIP3    H1 9699   6.152   3.753   1.071
 3231TIP3    H2 9700   6.195   3.610   1.095
 3232TIP3   OH2 9701   4.677   5.038   1.071
 3232TIP3    H1 9702   4.588   5.022   1.040
 3232TIP3    H2 9703   4.694   5.129   1.048
 3233TIP3   OH2 9704   5.144   3.618   1.037
 3233TIP3    H1 9705   5.204   3.566   0.983
 3233TIP3    H2 9706   5.199   3.684   1.078
 3234TIP3   OH2 9707   5.596   3.796   1.136
 3234TIP3    H1 9708   5.676   3.789   1.187
 3234TIP3    H2 9709   5.584   3.891   1.123
 3235TIP3   OH2 9710   5.423   3.875   2.480
 3235TIP3    H1 9711   5.386   3.809   2.539
 3235TIP3    H2 9712   5.515   3.882   2.507
 3236TIP3   OH2 9713   5.674   3.883   2.600
 3236TIP3    H1 9714   5.752   3.865   2.549
 3236TIP3    H2 9715   5.669   3.810   2.663
 3237TIP3   OH2 9716   4.788   5.094   0.606
 3237TIP3    H1 9717   4.809   5.125   0.694
 3237TIP3    H2 9718   4.857   5.030   0.587
 3238TIP3   OH2 9719  -0.001   3.989   2.320
 3238TIP3    H1 9720  -0.010   3.907   2.368
 3238TIP3    H2 9721   0.093   4.000   2.309
 3239TIP3   OH2 9722   0.983   5.211   2.769
 3239TIP3    H1 9723   1.003   5.295   2.810
 3239TIP3    H2 9724   1.005   5.223   2.676
 3240TIP3   OH2 9725   0.362   5.386   2.784
 3240TIP3    H1 9726   0.403   5.305   2.813
 3240TIP3    H2 9727   0.304   5.360   2.712
 3241TIP3   OH2 9728   0.413   5.142   2.384
 3241TIP3    H1 9729   0.477   5.130   2.454
 3241TIP3    H2 9730   0.464   5.175   2.310
 3242TIP3   OH2 9731   1.050   5.422   2.949
 3242TIP3    H1 9732   0.960   5.453   2.941
 3242TIP3    H2 9733   1.081   5.462   3.030
 3243TIP3   OH2 9734   0.584   5.153   2.595
 3243TIP3    H1 9735   0.548   5.135   2.682
 3243TIP3    H2 9736   0.646   5.225   2.609
 3244TIP3   OH2 9737   0.778   5.103   2.937
 3244TIP3    H1 9738   0.691   5.130   2.909
 3244TIP3    H2 9739   0.836   5.132   2.866
 3245TIP3   OH2 9740   0.852   5.720   2.770
 3245TIP3    H1 9741   0.780   5.782   2.774
 3245TIP3    H2 9742   0.888   5.731   2.682
 3246TIP3   OH2 9743   0.344   5.622   2.170
 3246TIP3    H1 9744   0.330   5.689   2.237
 3246TIP3    H2 9745   0.420   5.573   2.201
 3247TIP3   OH2 9746   0.563   5.617   3.054
 3247TIP3    H1 9747   0.563   5.712   3.059
 3247TIP3    H2 9748   0.475   5.595   3.023
 3248TIP3   OH2 9749   0.196   5.456   2.009
 3248TIP3    H1 9750   0.244   5.513   2.068
 3248TIP3    H2 9751   0.189   5.506   1.928
 3249TIP3   OH2 9752   0.683   4.692   2.021
 3249TIP3    H1 9753   0.606   4.710   2.074
 3249TIP3    H2 9754   0.695   4.771   1.968
 3250TIP3   OH2 9755   0.816   5.581   3.243
 3250TIP3    H1 9756   0.728   5.598   3.209
 3250TIP3    H2 9757   0.829   5.487   3.229
 3251TIP3   OH2 9758   0.344   4.928   3.307
 3251TIP3    H1 9759   0.435   4.912   3.332
 3251TIP3    H2 9760   0.293   4.891   3.380
 3252TIP3   OH2 9761   0.574   5.363   3.162
 3252TIP3    H1 9762   0.529   5.360   3.247
 3252TIP3    H2 9763   0.556   5.451   3.129
 3253TIP3   OH2 9764   0.148   5.360   2.291
 3253TIP3    H1 9765   0.093   5.401   2.224
 3253TIP3    H2 9766   0.193   5.289   2.246
 3254TIP3   OH2 9767   0.258   5.314   2.536
 3254TIP3    H1 9768   0.212   5.356   2.463
 3254TIP3    H2 9769   0.312   5.246   2.495
 3255TIP3   OH2 9770   0.302   5.569   2.977
 3255TIP3    H1 9771   0.323   5.508   2.906
 3255TIP3    H2 9772   0.231   5.526   3.025
 3256TIP3   OH2 9773   0.465   5.131   2.846
 3256TIP3    H1 9774   0.454   5.136   2.941
 3256TIP3    H2 9775   0.397   5.069   2.817
 3257TIP3   OH2 9776   0.656   5.911   2.746
 3257TIP3    H1 9777   0.658   5.967   2.669
 3257TIP3    H2 9778   0.594   5.841   2.723
 3258TIP3   OH2 9779   0.164   4.982   2.020
 3258TIP3    H1 9780   0.092   5.010   1.964
 3258TIP3    H2 9781   0.216   5.061   2.035
 3259TIP3   OH2 9782   0.291   5.211   2.096
 3259TIP3    H1 9783   0.385   5.226   2.104
 3259TIP3    H2 9784   0.259   5.287   2.047
 3260TIP3   OH2 9785   0.700   5.305   1.929
 3260TIP3    H1 9786   0.640   5.263   1.869
 3260TIP3    H2 9787   0.711   5.394   1.894
 3261TIP3   OH2 9788   0.509   5.695   2.686
 3261TIP3    H1 9789   0.424   5.703   2.730
 3261TIP3    H2 9790   0.498   5.622   2.625
 3262TIP3   OH2 9791   0.335   5.705   1.905
 3262TIP3    H1 9792   0.335   5.686   1.999
 3262TIP3    H2 9793   0.411   5.761   1.892
 3263TIP3   OH2 9794   0.415   5.130   3.110
 3263TIP3    H1 9795   0.453   5.209   3.149
 3263TIP3    H2 9796   0.380   5.081   3.185
 3264TIP3   OH2 9797   0.277   4.923   2.269
 3264TIP3    H1 9798   0.232   4.942   2.187
 3264TIP3    H2 9799   0.313   5.007   2.297
 3265TIP3   OH2 9800   0.170   4.829   2.503
 3265TIP3    H1 9801   0.151   4.910   2.550
 3265TIP3    H2 9802   0.203   4.858   2.418
 3266TIP3   OH2 9803   0.840   5.313   3.161
 3266TIP3    H1 9804   0.744   5.316   3.169
 3266TIP3    H2 9805   0.856   5.275   3.075
 3267TIP3   OH2 9806   0.502   5.471   2.530
 3267TIP3    H1 9807   0.424   5.422   2.560
 3267TIP3    H2 9808   0.573   5.438   2.585
 3268TIP3   OH2 9809   0.502   5.886   3.068
 3268TIP3    H1 9810   0.574   5.930   3.022
 3268TIP3    H2 9811   0.423   5.931   3.038
 3269TIP3   OH2 9812   0.593   5.580   3.512
 3269TIP3    H1 9813   0.671   5.528   3.493
 3269TIP3    H2 9814   0.605   5.661   3.463
 3270TIP3   OH2 9815   0.628   5.803   3.299
 3270TIP3    H1 9816   0.569   5.829   3.228
 3270TIP3    H2 9817   0.716   5.816   3.262
 3271TIP3   OH2 9818   0.462   5.320   3.402
 3271TIP3    H1 9819   0.414   5.385   3.454
 3271TIP3    H2 9820   0.540   5.301   3.454
 3272TIP3   OH2 9821   0.691   5.279   3.558
 3272TIP3    H1 9822   0.703   5.184   3.569
 3272TIP3    H2 9823   0.671   5.310   3.646
 3273TIP3   OH2 9824   0.631   5.743   1.929
 3273TIP3    H1 9825   0.704   5.803   1.916
 3273TIP3    H2 9826   0.660   5.684   1.998
 3274TIP3   OH2 9827   0.759   5.592   2.115
 3274TIP3    H1 9828   0.693   5.561   2.177
 3274TIP3    H2 9829   0.821   5.642   2.168
 3275TIP3   OH2 9830   0.661   5.527   1.765
 3275TIP3    H1 9831   0.573   5.497   1.745
 3275TIP3    H2 9832   0.648   5.609   1.814
 3276TIP3   OH2 9833   0.543   5.218   1.727
 3276TIP3    H1 9834   0.568   5.257   1.644
 3276TIP3    H2 9835   0.525   5.126   1.706
 3277TIP3   OH2 9836   0.561   5.487   2.268
 3277TIP3    H1 9837   0.566   5.394   2.246
 3277TIP3    H2 9838   0.545   5.489   2.363
 3278TIP3   OH2 9839   0.826   5.893   3.134
 3278TIP3    H1 9840   0.905   5.840   3.144
 3278TIP3    H2 9841   0.831   5.927   3.045
 3279TIP3   OH2 9842   1.033   5.717   3.158
 3279TIP3    H1 9843   0.958   5.666   3.189
 3279TIP3    H2 9844   1.108   5.659   3.173
 3280TIP3   OH2 9845   0.514   4.939   1.681
 3280TIP3    H1 9846   0.582   4.926   1.747
 3280TIP3    H2 9847   0.434   4.909   1.723
 3281TIP3   OH2 9848   0.569   5.226   2.162
 3281TIP3    H1 9849   0.609   5.140   2.179
 3281TIP3    H2 9850   0.617   5.260   2.086
 3282TIP3   OH2 9851   0.718   5.381   2.676
 3282TIP3    H1 9852   0.801   5.402   2.634
 3282TIP3    H2 9853   0.727   5.414   2.765
 3283TIP3   OH2 9854   0.785   5.506   2.917
 3283TIP3    H1 9855   0.708   5.535   2.967
 3283TIP3    H2 9856   0.810   5.583   2.865
 3284TIP3   OH2 9857   1.245   5.142   3.448
 3284TIP3    H1 9858   1.305   5.081   3.407
 3284TIP3    H2 9859   1.206   5.191   3.376
 3285TIP3   OH2 9860   0.671   4.974   2.209
 3285TIP3    H1 9861   0.717   4.959   2.292
 3285TIP3    H2 9862   0.611   4.900   2.202
 3286TIP3   OH2 9863   1.098   5.259   3.252
 3286TIP3    H1 9864   1.013   5.300   3.267
 3286TIP3    H2 9865   1.078   5.183   3.197
 3287TIP3   OH2 9866   0.735   4.899   1.843
 3287TIP3    H1 9867   0.780   4.830   1.793
 3287TIP3    H2 9868   0.799   4.969   1.851
 3288TIP3   OH2 9869   1.008   5.020   3.139
 3288TIP3    H1 9870   0.921   5.018   3.100
 3288TIP3    H2 9871   1.040   4.930   3.132
 3289TIP3   OH2 9872   0.278   4.944   2.765
 3289TIP3    H1 9873   0.222   4.868   2.783
 3289TIP3    H2 9874   0.347   4.909   2.708
 3290TIP3   OH2 9875   0.734   4.837   2.664
 3290TIP3    H1 9876   0.769   4.889   2.592
 3290TIP3    H2 9877   0.639   4.848   2.658
 3291TIP3   OH2 9878   0.834   4.927   2.426
 3291TIP3    H1 9879   0.903   4.868   2.396
 3291TIP3    H2 9880   0.869   5.015   2.413
 3292TIP3   OH2 9881   0.462   4.800   2.628
 3292TIP3    H1 9882   0.458   4.769   2.538
 3292TIP3    H2 9883   0.436   4.724   2.681
 3293TIP3   OH2 9884   0.490   4.759   2.206
 3293TIP3    H1 9885   0.411   4.811   2.224
 3293TIP3    H2 9886   0.473   4.675   2.248
 3294TIP3   OH2 9887   0.757   5.012   3.577
 3294TIP3    H1 9888   0.771   4.980   3.667
 3294TIP3    H2 9889   0.843   5.007   3.536
 3295TIP3   OH2 9890   1.956   5.872   1.850
 3295TIP3    H1 9891   1.950   5.968   1.846
 3295TIP3    H2 9892   1.881   5.841   1.800
 3296TIP3   OH2 9893   1.983   5.866   2.215
 3296TIP3    H1 9894   2.007   5.853   2.307
 3296TIP3    H2 9895   1.927   5.791   2.194
 3297TIP3   OH2 9896   1.256   5.752   2.568
 3297TIP3    H1 9897   1.295   5.684   2.623
 3297TIP3    H2 9898   1.279   5.834   2.610
 3298TIP3   OH2 9899   0.938   5.394   2.055
 3298TIP3    H1 9900   0.891   5.475   2.075
 3298TIP3    H2 9901   0.870   5.334   2.024
 3299TIP3   OH2 9902   0.970   5.695   2.265
 3299TIP3    H1 9903   1.014   5.614   2.291
 3299TIP3    H2 9904   1.040   5.752   2.233
 3300TIP3   OH2 9905   1.846   6.099   2.222
 3300TIP3    H1 9906   1.902   6.022   2.230
 3300TIP3    H2 9907   1.878   6.159   2.290
 3301TIP3   OH2 9908   2.775   5.468   2.255
 3301TIP3    H1 9909   2.799   5.551   2.296
 3301TIP3    H2 9910   2.796   5.480   2.163
 3302TIP3   OH2 9911   2.178   5.632   2.276
 3302TIP3    H1 9912   2.211   5.545   2.297
 3302TIP3    H2 9913   2.134   5.622   2.192
 3303TIP3   OH2 9914   1.513   5.293   2.242
 3303TIP3    H1 9915   1.493   5.366   2.183
 3303TIP3    H2 9916   1.462   5.220   2.207
 3304TIP3   OH2 9917   2.207   5.396   1.869
 3304TIP3    H1 9918   2.272   5.385   1.938
 3304TIP3    H2 9919   2.258   5.429   1.794
 3305TIP3   OH2 9920   1.130   5.495   2.363
 3305TIP3    H1 9921   1.213   5.492   2.409
 3305TIP3    H2 9922   1.146   5.446   2.282
 3306TIP3   OH2 9923   1.608   5.685   2.113
 3306TIP3    H1 9924   1.695   5.663   2.147
 3306TIP3    H2 9925   1.567   5.600   2.095
 3307TIP3   OH2 9926   2.839   5.681   2.432
 3307TIP3    H1 9927   2.748   5.707   2.422
 3307TIP3    H2 9928   2.857   5.690   2.525
 3308TIP3   OH2 9929   1.492   5.291   2.696
 3308TIP3    H1 9930   1.440   5.325   2.623
 3308TIP3    H2 9931   1.437   5.305   2.773
 3309TIP3   OH2 9932   1.520   5.996   2.362
 3309TIP3    H1 9933   1.583   6.015   2.432
 3309TIP3    H2 9934   1.523   6.073   2.306
 3310TIP3   OH2 9935   2.379   5.407   2.082
 3310TIP3    H1 9936   2.343   5.376   2.165
 3310TIP3    H2 9937   2.439   5.477   2.106
 3311TIP3   OH2 9938   1.377   5.395   2.463
 3311TIP3    H1 9939   1.436   5.466   2.488
 3311TIP3    H2 9940   1.421   5.352   2.389
 3312TIP3   OH2 9941   2.569   5.370   2.427
 3312TIP3    H1 9942   2.482   5.386   2.391
 3312TIP3    H2 9943   2.630   5.394   2.357
 3313TIP3   OH2 9944   1.840   4.995   2.416
 3313TIP3    H1 9945   1.830   4.902   2.436
 3313TIP3    H2 9946   1.764   5.037   2.456
 3314TIP3   OH2 9947   1.782   5.768   1.639
 3314TIP3    H1 9948   1.704   5.774   1.585
 3314TIP3    H2 9949   1.854   5.758   1.577
 3315TIP3   OH2 9950   1.753   5.573   1.378
 3315TIP3    H1 9951   1.826   5.621   1.416
 3315TIP3    H2 9952   1.794   5.508   1.321
 3316TIP3   OH2 9953   2.663   5.992   2.263
 3316TIP3    H1 9954   2.583   6.037   2.238
 3316TIP3    H2 9955   2.707   5.974   2.180
 3317TIP3   OH2 9956   2.147   5.863   1.653
 3317TIP3    H1 9957   2.096   5.852   1.733
 3317TIP3    H2 9958   2.233   5.829   1.675
 3318TIP3   OH2 9959   2.343   5.879   2.531
 3318TIP3    H1 9960   2.340   5.974   2.541
 3318TIP3    H2 9961   2.255   5.855   2.503
 3319TIP3   OH2 9962   1.381   5.803   2.022
 3319TIP3    H1 9963   1.334   5.739   1.969
 3319TIP3    H2 9964   1.462   5.758   2.048
 3320TIP3   OH2 9965   1.475   5.733   2.349
 3320TIP3    H1 9966   1.520   5.715   2.267
 3320TIP3    H2 9967   1.488   5.827   2.363
 3321TIP3   OH2 9968   1.987   5.719   1.475
 3321TIP3    H1 9969   2.046   5.779   1.520
 3321TIP3    H2 9970   2.008   5.731   1.382
 3322TIP3   OH2 9971   1.396   5.867   2.815
 3322TIP3    H1 9972   1.411   5.956   2.849
 3322TIP3    H2 9973   1.309   5.844   2.846
 3323TIP3   OH2 9974   2.476   4.948   1.516
 3323TIP3    H1 9975   2.396   4.966   1.566
 3323TIP3    H2 9976   2.489   5.026   1.462
 3324TIP3   OH2 9977   1.224   5.641   1.854
 3324TIP3    H1 9978   1.195   5.665   1.765
 3324TIP3    H2 9979   1.202   5.548   1.861
 3325TIP3   OH2 9980   1.140   5.977   2.687
 3325TIP3    H1 9981   1.072   6.044   2.693
 3325TIP3    H2 9982   1.127   5.923   2.765
 3326TIP3   OH2 9983   2.611   5.833   2.727
 3326TIP3    H1 9984   2.522   5.835   2.692
 3326TIP3    H2 9985   2.635   5.741   2.725
 3327TIP3   OH2 9986   1.603   5.085   2.543
 3327TIP3    H1 9987   1.520   5.052   2.508
 3327TIP3    H2 9988   1.579   5.163   2.592
 3328TIP3   OH2 9989   2.142   5.199   2.739
 3328TIP3    H1 9990   2.212   5.173   2.799
 3328TIP3    H2 9991   2.061   5.179   2.786
 3329TIP3   OH2 9992   2.381   5.638   2.667
 3329TIP3    H1 9993   2.329   5.625   2.746
 3329TIP3    H2 9994   2.343   5.716   2.626
 3330TIP3   OH2 9995   2.064   5.744   1.225
 3330TIP3    H1 9996   2.038   5.711   1.139
 3330TIP3    H2 9997   2.135   5.806   1.207
 3331TIP3   OH2 9998   1.753   5.126   1.504
 3331TIP3    H1 9999   1.713   5.135   1.591
 3331TIP3    H210000   1.700   5.060   1.461
 3332TIP3   OH210001   1.556   5.582   2.558
 3332TIP3    H110002   1.503   5.597   2.637
 3332TIP3    H210003   1.525   5.648   2.496
 3333TIP3   OH210004   1.431   5.483   2.065
 3333TIP3    H110005   1.342   5.462   2.091
 3333TIP3    H210006   1.439   5.450   1.976
 3334TIP3   OH210007   1.911   5.568   1.796
 3334TIP3    H110008   1.859   5.631   1.746
 3334TIP3    H210009   1.971   5.529   1.732
 3335TIP3   OH210010   2.116   5.822   2.876
 3335TIP3    H110011   2.090   5.752   2.936
 3335TIP3    H210012   2.207   5.841   2.900
 3336TIP3   OH210013   2.074   5.583   2.026
 3336TIP3    H110014   2.006   5.616   1.968
 3336TIP3    H210015   2.109   5.505   1.982
 3337TIP3   OH210016   1.371   5.591   2.760
 3337TIP3    H110017   1.380   5.665   2.820
 3337TIP3    H210018   1.352   5.517   2.817
 3338TIP3   OH210019   1.452   5.075   1.492
 3338TIP3    H110020   1.461   4.992   1.540
 3338TIP3    H210021   1.368   5.110   1.521
 3339TIP3   OH210022   0.960   5.152   2.348
 3339TIP3    H110023   1.033   5.183   2.402
 3339TIP3    H210024   1.002   5.122   2.267
 3340TIP3   OH210025   0.898   5.121   1.868
 3340TIP3    H110026   0.942   5.156   1.791
 3340TIP3    H210027   0.830   5.186   1.889
 3341TIP3   OH210028   2.088   5.801   2.463
 3341TIP3    H110029   2.119   5.735   2.401
 3341TIP3    H210030   2.051   5.751   2.535
 3342TIP3   OH210031   1.782   5.303   2.139
 3342TIP3    H110032   1.701   5.294   2.190
 3342TIP3    H210033   1.851   5.282   2.202
 3343TIP3   OH210034   1.195   5.365   2.132
 3343TIP3    H110035   1.106   5.363   2.097
 3343TIP3    H210036   1.227   5.276   2.119
 3344TIP3   OH210037   1.447   5.387   1.814
 3344TIP3    H110038   1.539   5.372   1.792
 3344TIP3    H210039   1.400   5.377   1.732
 3345TIP3   OH210040   2.244   5.372   2.337
 3345TIP3    H110041   2.221   5.390   2.428
 3345TIP3    H210042   2.176   5.311   2.307
 3346TIP3   OH210043   1.297   5.398   1.584
 3346TIP3    H110044   1.228   5.353   1.534
 3346TIP3    H210045   1.355   5.434   1.516
 3347TIP3   OH210046   1.399   6.106   2.940
 3347TIP3    H110047   1.482   6.153   2.950
 3347TIP3    H210048   1.367   6.094   3.029
 3348TIP3   OH210049   1.847   5.624   2.232
 3348TIP3    H110050   1.902   5.557   2.192
 3348TIP3    H210051   1.835   5.596   2.322
 3349TIP3   OH210052   1.330   5.124   2.112
 3349TIP3    H110053   1.306   5.042   2.153
 3349TIP3    H210054   1.342   5.102   2.019
 3350TIP3   OH210055   1.818   5.548   2.498
 3350TIP3    H110056   1.727   5.569   2.518
 3350TIP3    H210057   1.869   5.598   2.562
 3351TIP3   OH210058   1.520   5.898   1.532
 3351TIP3    H110059   1.496   5.811   1.566
 3351TIP3    H210060   1.464   5.958   1.581
 3352TIP3   OH210061   4.607   0.005   2.187
 3352TIP3    H110062   4.557   0.087   2.180
 3352TIP3    H210063   4.541  -0.064   2.174
 3353TIP3   OH210064   2.005   5.226   1.501
 3353TIP3    H110065   1.912   5.203   1.500
 3353TIP3    H210066   2.006   5.320   1.517
 3354TIP3   OH210067   2.074   5.483   1.586
 3354TIP3    H110068   2.170   5.482   1.590
 3354TIP3    H210069   2.053   5.559   1.532
 3355TIP3   OH210070   1.221   5.813   2.254
 3355TIP3    H110071   1.263   5.824   2.168
 3355TIP3    H210072   1.290   5.775   2.309
 3356TIP3   OH210073   1.150   5.807   2.912
 3356TIP3    H110074   1.172   5.798   3.004
 3356TIP3    H210075   1.065   5.764   2.903
 3357TIP3   OH210076   1.861   5.897   2.954
 3357TIP3    H110077   1.801   5.835   2.913
 3357TIP3    H210078   1.945   5.882   2.910
 3358TIP3   OH210079   2.500   5.578   1.414
 3358TIP3    H110080   2.445   5.527   1.354
 3358TIP3    H210081   2.502   5.666   1.376
 3359TIP3   OH210082   2.233   5.948   2.139
 3359TIP3    H110083   2.144   5.916   2.150
 3359TIP3    H210084   2.277   5.881   2.087
 3360TIP3   OH210085   0.899   5.540   1.633
 3360TIP3    H110086   0.926   5.630   1.656
 3360TIP3    H210087   0.815   5.528   1.677
 3361TIP3   OH210088   1.323   5.361   2.909
 3361TIP3    H110089   1.228   5.371   2.915
 3361TIP3    H210090   1.346   5.305   2.983
 3362TIP3   OH210091   2.153   5.987   1.406
 3362TIP3    H110092   2.167   5.950   1.493
 3362TIP3    H210093   2.179   6.078   1.414
 3363TIP3   OH210094   0.951   5.793   1.718
 3363TIP3    H110095   0.945   5.885   1.746
 3363TIP3    H210096   1.033   5.788   1.669
 3364TIP3   OH210097   2.181   5.434   2.601
 3364TIP3    H110098   2.260   5.469   2.643
 3364TIP3    H210099   2.163   5.353   2.649
 3365TIP3   OH210100   2.057   5.179   1.774
 3365TIP3    H110101   2.037   5.195   1.682
 3365TIP3    H210102   2.100   5.259   1.803
 3366TIP3   OH210103   1.735   5.375   1.878
 3366TIP3    H110104   1.797   5.444   1.854
 3366TIP3    H210105   1.747   5.364   1.972
 3367TIP3   OH210106   2.009   5.653   2.673
 3367TIP3    H110107   2.046   5.699   2.748
 3367TIP3    H210108   2.060   5.571   2.668
 3368TIP3   OH210109   1.875   5.085   1.965
 3368TIP3    H110110   1.853   5.165   2.012
 3368TIP3    H210111   1.938   5.112   1.899
 3369TIP3   OH210112   1.366   5.087   1.837
 3369TIP3    H110113   1.430   5.154   1.813
 3369TIP3    H210114   1.402   5.006   1.802
 3370TIP3   OH210115   2.638   5.563   2.640
 3370TIP3    H110116   2.545   5.581   2.655
 3370TIP3    H210117   2.639   5.502   2.567
 3371TIP3   OH210118   2.314   5.729   2.003
 3371TIP3    H110119   2.234   5.678   2.015
 3371TIP3    H210120   2.377   5.687   2.062
 3372TIP3   OH210121   0.956   5.269   1.649
 3372TIP3    H110122   0.960   5.364   1.660
 3372TIP3    H210123   0.917   5.256   1.563
 3373TIP3   OH210124   1.341   4.998   2.502
 3373TIP3    H110125   1.313   4.967   2.416
 3373TIP3    H210126   1.330   4.922   2.560
 3374TIP3   OH210127   1.067   6.045   3.217
 3374TIP3    H110128   1.157   6.076   3.208
 3374TIP3    H210129   1.038   6.027   3.128
 3375TIP3   OH210130   1.115   5.708   1.330
 3375TIP3    H110131   1.080   5.777   1.387
 3375TIP3    H210132   1.200   5.742   1.301
 3376TIP3   OH210133   3.896   0.170   2.913
 3376TIP3    H110134   3.906   0.136   2.825
 3376TIP3    H210135   3.956   0.119   2.967
 3377TIP3   OH210136   4.470   0.028   2.550
 3377TIP3    H110137   4.528   0.085   2.499
 3377TIP3    H210138   4.421   0.088   2.606
 3378TIP3   OH210139   1.340   5.827   3.143
 3378TIP3    H110140   1.431   5.800   3.136
 3378TIP3    H210141   1.337   5.882   3.222
 3379TIP3   OH210142   1.465   5.668   1.663
 3379TIP3    H110143   1.408   5.626   1.727
 3379TIP3    H210144   1.468   5.608   1.589
 3380TIP3   OH210145   1.654   5.770   2.793
 3380TIP3    H110146   1.566   5.807   2.797
 3380TIP3    H210147   1.690   5.802   2.710
 3381TIP3   OH210148   1.479   5.531   1.423
 3381TIP3    H110149   1.445   5.529   1.333
 3381TIP3    H210150   1.574   5.537   1.413
 3382TIP3   OH210151   2.149   6.114   2.974
 3382TIP3    H110152   2.245   6.120   2.973
 3382TIP3    H210153   2.132   6.035   3.025
 3383TIP3   OH210154   2.292   5.838   1.080
 3383TIP3    H110155   2.251   5.786   1.010
 3383TIP3    H210156   2.343   5.904   1.033
 3384TIP3   OH210157   1.755   5.566   2.933
 3384TIP3    H110158   1.759   5.487   2.879
 3384TIP3    H210159   1.716   5.633   2.876
 3385TIP3   OH210160   1.754   5.370   2.729
 3385TIP3    H110161   1.779   5.410   2.646
 3385TIP3    H210162   1.661   5.349   2.718
 3386TIP3   OH210163   1.774   5.878   2.569
 3386TIP3    H110164   1.867   5.885   2.546
 3386TIP3    H210165   1.747   5.968   2.586
 3387TIP3   OH210166   2.373   5.855   2.991
 3387TIP3    H110167   2.420   5.774   3.012
 3387TIP3    H210168   2.430   5.900   2.929
 3388TIP3   OH210169   2.424   6.052   2.776
 3388TIP3    H110170   2.358   6.080   2.712
 3388TIP3    H210171   2.506   6.052   2.727
 3389TIP3   OH210172   1.615   5.675   3.159
 3389TIP3    H110173   1.556   5.604   3.183
 3389TIP3    H210174   1.654   5.647   3.076
 3390TIP3   OH210175   1.879   5.138   2.819
 3390TIP3    H110176   1.835   5.218   2.788
 3390TIP3    H210177   1.813   5.070   2.808
 3391TIP3   OH210178   2.012   5.619   3.026
 3391TIP3    H110179   2.002   5.613   3.121
 3391TIP3    H210180   1.926   5.596   2.991
 3392TIP3   OH210181   2.249   5.560   2.889
 3392TIP3    H110182   2.174   5.558   2.948
 3392TIP3    H210183   2.324   5.538   2.945
 3393TIP3   OH210184   2.488   5.530   3.033
 3393TIP3    H110185   2.501   5.436   3.043
 3393TIP3    H210186   2.479   5.563   3.122
 3394TIP3   OH210187   1.469   5.450   3.229
 3394TIP3    H110188   1.472   5.361   3.194
 3394TIP3    H210189   1.504   5.442   3.318
 3395TIP3   OH210190   1.956   5.133   3.083
 3395TIP3    H110191   2.025   5.066   3.078
 3395TIP3    H210192   1.921   5.138   2.994
 3396TIP3   OH210193   2.036   5.351   3.230
 3396TIP3    H110194   2.011   5.278   3.173
 3396TIP3    H210195   1.962   5.411   3.226
 3397TIP3   OH210196   2.486   6.057   1.438
 3397TIP3    H110197   2.546   6.126   1.410
 3397TIP3    H210198   2.508   6.043   1.530
 3398TIP3   OH210199   2.483   5.818   1.281
 3398TIP3    H110200   2.412   5.813   1.217
 3398TIP3    H210201   2.465   5.898   1.331
 3399TIP3   OH210202   2.344   5.470   1.221
 3399TIP3    H110203   2.322   5.519   1.142
 3399TIP3    H210204   2.322   5.379   1.200
 3400TIP3   OH210205   2.379   5.745   1.739
 3400TIP3    H110206   2.376   5.652   1.716
 3400TIP3    H210207   2.364   5.746   1.834
 3401TIP3   OH210208   0.986   5.749   2.533
 3401TIP3    H110209   0.978   5.730   2.440
 3401TIP3    H210210   1.080   5.752   2.549
 3402TIP3   OH210211   4.780   0.009   2.590
 3402TIP3    H110212   4.862  -0.038   2.603
 3402TIP3    H210213   4.788   0.049   2.503
 3403TIP3   OH210214   2.826   5.983   2.668
 3403TIP3    H110215   2.753   5.923   2.685
 3403TIP3    H210216   2.904   5.927   2.674
 3404TIP3   OH210217   2.295   5.200   1.181
 3404TIP3    H110218   2.357   5.175   1.250
 3404TIP3    H210219   2.212   5.160   1.208
 3405TIP3   OH210220   2.362   5.480   1.641
 3405TIP3    H110221   2.401   5.394   1.657
 3405TIP3    H210222   2.409   5.514   1.565
 3406TIP3   OH210223   2.515   5.633   2.166
 3406TIP3    H110224   2.598   5.653   2.122
 3406TIP3    H210225   2.525   5.669   2.254
 3407TIP3   OH210226   2.574   5.773   2.400
 3407TIP3    H110227   2.496   5.801   2.447
 3407TIP3    H210228   2.605   5.853   2.357
 3408TIP3   OH210229   1.203   5.506   3.186
 3408TIP3    H110230   1.299   5.501   3.193
 3408TIP3    H210231   1.172   5.424   3.223
 3409TIP3   OH210232   3.038   5.400   2.933
 3409TIP3    H110233   3.100   5.337   2.896
 3409TIP3    H210234   3.005   5.448   2.857
 3410TIP3   OH210235   2.465   5.229   1.697
 3410TIP3    H110236   2.509   5.214   1.781
 3410TIP3    H210237   2.402   5.158   1.690
 3411TIP3   OH210238   1.167   5.215   2.523
 3411TIP3    H110239   1.223   5.138   2.527
 3411TIP3    H210240   1.228   5.287   2.506
 3412TIP3   OH210241   0.958   5.467   2.582
 3412TIP3    H110242   1.012   5.447   2.505
 3412TIP3    H210243   0.966   5.562   2.593
 3413TIP3   OH210244   2.898   5.518   2.729
 3413TIP3    H110245   2.811   5.553   2.750
 3413TIP3    H210246   2.880   5.438   2.679
 3414TIP3   OH210247   2.527   5.154   1.339
 3414TIP3    H110248   2.567   5.091   1.279
 3414TIP3    H210249   2.587   5.229   1.338
 3415TIP3   OH210250   0.947   4.985   2.097
 3415TIP3    H110251   0.858   4.977   2.130
 3415TIP3    H210252   0.940   5.040   2.020
 3416TIP3   OH210253   1.167   5.056   2.907
 3416TIP3    H110254   1.116   5.053   2.988
 3416TIP3    H210255   1.110   5.102   2.845
 3417TIP3   OH210256   2.806   5.268   2.629
 3417TIP3    H110257   2.716   5.255   2.599
 3417TIP3    H210258   2.847   5.182   2.624
 3418TIP3   OH210259   2.014   5.198   2.266
 3418TIP3    H110260   1.972   5.125   2.312
 3418TIP3    H210261   2.080   5.156   2.210
 3419TIP3   OH210262   2.519   5.099   2.148
 3419TIP3    H110263   2.555   5.150   2.075
 3419TIP3    H210264   2.425   5.115   2.145
 3420TIP3   OH210265   2.630   5.194   1.916
 3420TIP3    H110266   2.700   5.134   1.886
 3420TIP3    H210267   2.665   5.281   1.898
 3421TIP3   OH210268   1.254   4.897   2.259
 3421TIP3    H110269   1.164   4.865   2.265
 3421TIP3    H210270   1.307   4.818   2.252
 3422TIP3   OH210271   1.039   4.785   1.912
 3422TIP3    H110272   1.079   4.838   1.843
 3422TIP3    H210273   1.019   4.847   1.982
 3423TIP3   OH210274   1.724   4.933   2.152
 3423TIP3    H110275   1.771   4.981   2.083
 3423TIP3    H210276   1.762   4.965   2.234
 3424TIP3   OH210277   2.233   5.087   2.129
 3424TIP3    H110278   2.230   5.051   2.041
 3424TIP3    H210279   2.233   5.010   2.186
 3425TIP3   OH210280   2.279   5.022   1.698
 3425TIP3    H110281   2.196   5.067   1.717
 3425TIP3    H210282   2.268   4.934   1.736
 3426TIP3   OH210283   1.154   4.958   1.697
 3426TIP3    H110284   1.227   4.897   1.681
 3426TIP3    H210285   1.192   5.027   1.752
 3427TIP3   OH210286   1.658   5.143   1.763
 3427TIP3    H110287   1.691   5.071   1.815
 3427TIP3    H210288   1.693   5.222   1.805
 3428TIP3   OH210289   1.470   5.177   3.148
 3428TIP3    H110290   1.434   5.110   3.205
 3428TIP3    H210291   1.562   5.183   3.172
 3429TIP3   OH210292   1.721   5.184   3.268
 3429TIP3    H110293   1.801   5.161   3.220
 3429TIP3    H210294   1.712   5.115   3.333
 3430TIP3   OH210295   2.547   5.261   3.057
 3430TIP3    H110296   2.563   5.232   3.147
 3430TIP3    H210297   2.633   5.256   3.016
 3431TIP3   OH210298   5.870   0.047   1.322
 3431TIP3    H110299   5.836   0.136   1.328
 3431TIP3    H210300   5.803  -0.001   1.273
 3432TIP3   OH210301   5.929   0.057   1.708
 3432TIP3    H110302   5.961   0.036   1.796
 3432TIP3    H210303   5.873  -0.017   1.685
 3433TIP3   OH210304   3.055   6.013   2.036
 3433TIP3    H110305   3.097   5.956   2.100
 3433TIP3    H210306   3.048   6.098   2.080
 3434TIP3   OH210307   2.707   5.761   1.599
 3434TIP3    H110308   2.645   5.748   1.670
 3434TIP3    H210309   2.665   5.721   1.522
 3435TIP3   OH210310   4.569   5.722   1.742
 3435TIP3    H110311   4.588   5.806   1.784
 3435TIP3    H210312   4.599   5.733   1.652
 3436TIP3   OH210313   3.954   5.896   1.768
 3436TIP3    H110314   3.997   5.814   1.791
 3436TIP3    H210315   3.916   5.879   1.682
 3437TIP3   OH210316   3.306   5.560   1.732
 3437TIP3    H110317   3.289   5.632   1.672
 3437TIP3    H210318   3.259   5.486   1.695
 3438TIP3   OH210319   4.001   5.651   1.373
 3438TIP3    H110320   4.068   5.643   1.442
 3438TIP3    H210321   4.049   5.685   1.297
 3439TIP3   OH210322   2.940   5.785   1.800
 3439TIP3    H110323   3.005   5.777   1.870
 3439TIP3    H210324   2.947   5.703   1.751
 3440TIP3   OH210325   3.386   5.959   1.592
 3440TIP3    H110326   3.475   5.938   1.620
 3440TIP3    H210327   3.347   5.875   1.570
 3441TIP3   OH210328   4.631   5.933   1.918
 3441TIP3    H110329   4.556   5.987   1.893
 3441TIP3    H210330   4.670   5.980   1.992
 3442TIP3   OH210331   3.288   5.549   2.181
 3442TIP3    H110332   3.237   5.586   2.110
 3442TIP3    H210333   3.235   5.564   2.259
 3443TIP3   OH210334   5.475   0.141   1.868
 3443TIP3    H110335   5.506   0.154   1.958
 3443TIP3    H210336   5.530   0.199   1.815
 3444TIP3   OH210337   4.183   5.671   1.574
 3444TIP3    H110338   4.147   5.651   1.661
 3444TIP3    H210339   4.242   5.745   1.589
 3445TIP3   OH210340   3.165   5.655   1.950
 3445TIP3    H110341   3.221   5.727   1.980
 3445TIP3    H210342   3.215   5.615   1.878
 3446TIP3   OH210343   4.364   5.615   1.908
 3446TIP3    H110344   4.279   5.644   1.875
 3446TIP3    H210345   4.426   5.644   1.841
 3447TIP3   OH210346   3.634   5.248   1.899
 3447TIP3    H110347   3.626   5.156   1.925
 3447TIP3    H210348   3.559   5.291   1.941
 3448TIP3   OH210349   3.550   6.041   1.131
 3448TIP3    H110350   3.457   6.058   1.116
 3448TIP3    H210351   3.595   6.081   1.056
 3449TIP3   OH210352   3.543   5.818   0.889
 3449TIP3    H110353   3.601   5.870   0.945
 3449TIP3    H210354   3.601   5.753   0.849
 3450TIP3   OH210355   3.912   6.109   1.165
 3450TIP3    H110356   3.846   6.129   1.232
 3450TIP3    H210357   3.988   6.078   1.214
 3451TIP3   OH210358   6.316   0.016   2.037
 3451TIP3    H110359   6.316   0.103   2.077
 3451TIP3    H210360   6.233   0.013   1.989
 3452TIP3   OH210361   3.161   6.110   1.543
 3452TIP3    H110362   3.148   6.105   1.449
 3452TIP3    H210363   3.246   6.068   1.558
 3453TIP3   OH210364   3.276   6.002   1.836
 3453TIP3    H110365   3.316   5.986   1.750
 3453TIP3    H210366   3.284   6.096   1.849
 3454TIP3   OH210367   3.791   5.943   0.965
 3454TIP3    H110368   3.822   6.015   1.020
 3454TIP3    H210369   3.821   5.967   0.877
 3455TIP3   OH210370   5.356  -0.004   2.303
 3455TIP3    H110371   5.391   0.079   2.333
 3455TIP3    H210372   5.267  -0.007   2.339
 3456TIP3   OH210373   4.236   5.238   0.980
 3456TIP3    H110374   4.171   5.244   1.051
 3456TIP3    H210375   4.273   5.326   0.975
 3457TIP3   OH210376   2.922   5.932   1.441
 3457TIP3    H110377   2.883   5.988   1.373
 3457TIP3    H210378   2.981   5.874   1.392
 3458TIP3   OH210379   5.100   0.089   2.171
 3458TIP3    H110380   5.027   0.151   2.167
 3458TIP3    H210381   5.088   0.043   2.254
 3459TIP3   OH210382   4.393   6.100   2.211
 3459TIP3    H110383   4.316   6.113   2.155
 3459TIP3    H210384   4.414   6.007   2.202
 3460TIP3   OH210385   3.398   5.340   2.029
 3460TIP3    H110386   3.314   5.308   1.997
 3460TIP3    H210387   3.377   5.419   2.078
 3461TIP3   OH210388   3.942   5.456   2.226
 3461TIP3    H110389   4.013   5.431   2.285
 3461TIP3    H210390   3.862   5.435   2.275
 3462TIP3   OH210391   4.163   5.881   2.135
 3462TIP3    H110392   4.124   5.880   2.223
 3462TIP3    H210393   4.148   5.971   2.104
 3463TIP3   OH210394   3.864   5.996   0.700
 3463TIP3    H110395   3.786   5.993   0.645
 3463TIP3    H210396   3.888   6.088   0.703
 3464TIP3   OH210397   3.549   5.391   1.020
 3464TIP3    H110398   3.511   5.394   1.108
 3464TIP3    H210399   3.514   5.311   0.981
 3465TIP3   OH210400   3.347   5.840   2.039
 3465TIP3    H110401   3.303   5.866   2.120
 3465TIP3    H210402   3.320   5.906   1.974
 3466TIP3   OH210403   3.210   5.743   1.551
 3466TIP3    H110404   3.124   5.708   1.574
 3466TIP3    H210405   3.229   5.707   1.465
 3467TIP3   OH210406   3.691   5.841   1.285
 3467TIP3    H110407   3.643   5.907   1.235
 3467TIP3    H210408   3.755   5.805   1.223
 3468TIP3   OH210409   3.915   6.086   2.358
 3468TIP3    H110410   3.893   6.016   2.419
 3468TIP3    H210411   4.006   6.107   2.379
 3469TIP3   OH210412   3.856   5.843   1.517
 3469TIP3    H110413   3.792   5.871   1.452
 3469TIP3    H210414   3.901   5.769   1.476
 3470TIP3   OH210415   3.159   5.855   2.243
 3470TIP3    H110416   3.184   5.928   2.299
 3470TIP3    H210417   3.149   5.781   2.304
 3471TIP3   OH210418   3.209   5.372   0.990
 3471TIP3    H110419   3.187   5.379   1.083
 3471TIP3    H210420   3.138   5.418   0.945
 3472TIP3   OH210421   2.757   5.419   1.821
 3472TIP3    H110422   2.835   5.434   1.875
 3472TIP3    H210423   2.789   5.367   1.747
 3473TIP3   OH210424   2.693   5.383   1.360
 3473TIP3    H110425   2.730   5.411   1.276
 3473TIP3    H210426   2.630   5.451   1.383
 3474TIP3   OH210427   3.874   6.085   1.944
 3474TIP3    H110428   3.907   6.024   1.878
 3474TIP3    H210429   3.851   6.029   2.019
 3475TIP3   OH210430   3.574   5.550   1.616
 3475TIP3    H110431   3.498   5.552   1.673
 3475TIP3    H210432   3.649   5.540   1.675
 3476TIP3   OH210433   2.977   5.605   1.607
 3476TIP3    H110434   2.891   5.587   1.570
 3476TIP3    H210435   3.023   5.521   1.602
 3477TIP3   OH210436   3.242   5.621   1.314
 3477TIP3    H110437   3.333   5.639   1.290
 3477TIP3    H210438   3.191   5.644   1.237
 3478TIP3   OH210439   4.041   5.636   1.821
 3478TIP3    H110440   4.015   5.652   1.912
 3478TIP3    H210441   3.976   5.574   1.788
 3479TIP3   OH210442   3.076   5.657   1.104
 3479TIP3    H110443   3.020   5.609   1.043
 3479TIP3    H210444   3.141   5.700   1.049
 3480TIP3   OH210445   5.343   0.241   2.439
 3480TIP3    H110446   5.436   0.236   2.414
 3480TIP3    H210447   5.344   0.252   2.534
 3481TIP3   OH210448   3.628   5.897   1.713
 3481TIP3    H110449   3.703   5.857   1.669
 3481TIP3    H210450   3.628   5.859   1.801
 3482TIP3   OH210451   3.132   5.378   1.605
 3482TIP3    H110452   3.104   5.301   1.654
 3482TIP3    H210453   3.164   5.342   1.522
 3483TIP3   OH210454   3.612   5.803   1.985
 3483TIP3    H110455   3.522   5.825   2.006
 3483TIP3    H210456   3.665   5.855   2.045
 3484TIP3   OH210457   6.363   0.298   1.777
 3484TIP3    H110458   6.438   0.311   1.720
 3484TIP3    H210459   6.301   0.247   1.724
 3485TIP3   OH210460   3.790   5.502   0.997
 3485TIP3    H110461   3.698   5.479   1.013
 3485TIP3    H210462   3.800   5.588   1.040
 3486TIP3   OH210463   3.875   5.733   1.104
 3486TIP3    H110464   3.970   5.735   1.109
 3486TIP3    H210465   3.852   5.806   1.046
 3487TIP3   OH210466   2.981   6.059   1.741
 3487TIP3    H110467   3.053   6.092   1.687
 3487TIP3    H210468   3.019   6.047   1.828
 3488TIP3   OH210469   2.934   6.073   2.407
 3488TIP3    H110470   2.966   6.066   2.497
 3488TIP3    H210471   2.890   5.989   2.390
 3489TIP3   OH210472   5.822   0.021   2.414
 3489TIP3    H110473   5.782  -0.045   2.357
 3489TIP3    H210474   5.912   0.029   2.383
 3490TIP3   OH210475   4.279   5.870   0.945
 3490TIP3    H110476   4.259   5.804   0.879
 3490TIP3    H210477   4.301   5.949   0.895
 3491TIP3   OH210478   6.188   0.142   1.634
 3491TIP3    H110479   6.094   0.128   1.649
 3491TIP3    H210480   6.216   0.066   1.583
 3492TIP3   OH210481   2.728   5.794   1.151
 3492TIP3    H110482   2.770   5.880   1.162
 3492TIP3    H210483   2.644   5.803   1.196
 3493TIP3   OH210484   3.120   5.623   2.396
 3493TIP3    H110485   3.025   5.632   2.401
 3493TIP3    H210486   3.142   5.562   2.466
 3494TIP3   OH210487   6.108   0.199   0.995
 3494TIP3    H110488   6.100   0.125   1.054
 3494TIP3    H210489   6.202   0.209   0.981
 3495TIP3   OH210490   2.823   6.054   1.184
 3495TIP3    H110491   2.760   6.124   1.171
 3495TIP3    H210492   2.880   6.057   1.107
 3496TIP3   OH210493   3.965   5.692   2.083
 3496TIP3    H110494   4.045   5.735   2.113
 3496TIP3    H210495   3.959   5.613   2.137
 3497TIP3   OH210496   3.856   5.438   1.267
 3497TIP3    H110497   3.839   5.460   1.176
 3497TIP3    H210498   3.898   5.516   1.303
 3498TIP3   OH210499   3.524   5.633   1.356
 3498TIP3    H110500   3.580   5.707   1.332
 3498TIP3    H210501   3.542   5.618   1.448
 3499TIP3   OH210502   3.807   5.921   2.152
 3499TIP3    H110503   3.850   5.966   2.225
 3499TIP3    H210504   3.857   5.840   2.141
 3500TIP3   OH210505   3.675   5.337   1.451
 3500TIP3    H110506   3.655   5.414   1.504
 3500TIP3    H210507   3.742   5.367   1.389
 3501TIP3   OH210508   3.182   5.353   1.268
 3501TIP3    H110509   3.178   5.446   1.290
 3501TIP3    H210510   3.275   5.332   1.265
 3502TIP3   OH210511   4.431   5.832   2.137
 3502TIP3    H110512   4.335   5.831   2.139
 3502TIP3    H210513   4.454   5.801   2.050
 3503TIP3   OH210514   4.092   6.023   1.516
 3503TIP3    H110515   4.016   5.970   1.537
 3503TIP3    H210516   4.163   5.986   1.570
 3504TIP3   OH210517   2.731   5.518   1.129
 3504TIP3    H110518   2.755   5.610   1.138
 3504TIP3    H210519   2.666   5.518   1.058
 3505TIP3   OH210520   3.134   5.254   1.993
 3505TIP3    H110521   3.108   5.219   1.908
 3505TIP3    H210522   3.128   5.178   2.052
 3506TIP3   OH210523   5.033   0.180   2.684
 3506TIP3    H110524   5.123   0.208   2.698
 3506TIP3    H210525   5.027   0.166   2.589
 3507TIP3   OH210526   2.963   6.051   0.924
 3507TIP3    H110527   3.042   6.084   0.967
 3507TIP3    H210528   2.994   6.012   0.843
 3508TIP3   OH210529   5.693   0.397   2.403
 3508TIP3    H110530   5.736   0.425   2.322
 3508TIP3    H210531   5.765   0.370   2.460
 3509TIP3   OH210532   6.236   0.326   2.016
 3509TIP3    H110533   6.284   0.314   1.934
 3509TIP3    H210534   6.179   0.401   2.000
 3510TIP3   OH210535   3.138   6.086   2.632
 3510TIP3    H110536   3.225   6.054   2.609
 3510TIP3    H210537   3.152   6.142   2.708
 3511TIP3   OH210538   3.441   6.016   2.262
 3511TIP3    H110539   3.362   6.068   2.275
 3511TIP3    H210540   3.485   6.058   2.189
 3512TIP3   OH210541   3.274   5.744   0.944
 3512TIP3    H110542   3.235   5.728   0.858
 3512TIP3    H210543   3.360   5.781   0.925
 3513TIP3   OH210544   6.117   0.332   2.435
 3513TIP3    H110545   6.197   0.325   2.383
 3513TIP3    H210546   6.121   0.257   2.494
 3514TIP3   OH210547   3.546   5.827   2.421
 3514TIP3    H110548   3.556   5.747   2.370
 3514TIP3    H210549   3.506   5.890   2.361
 3515TIP3   OH210550   3.551   5.628   2.219
 3515TIP3    H110551   3.580   5.666   2.136
 3515TIP3    H210552   3.459   5.606   2.204
 3516TIP3   OH210553   5.752   0.028   2.079
 3516TIP3    H110554   5.839   0.007   2.046
 3516TIP3    H210555   5.735   0.117   2.048
 3517TIP3   OH210556   4.172   6.121   2.470
 3517TIP3    H110557   4.218   6.038   2.484
 3517TIP3    H210558   4.235   6.175   2.423
 3518TIP3   OH210559   6.372   0.241   2.231
 3518TIP3    H110560   6.312   0.279   2.168
 3518TIP3    H210561   6.458   0.251   2.191
 3519TIP3   OH210562   3.409   5.936   2.646
 3519TIP3    H110563   3.354   5.861   2.669
 3519TIP3    H210564   3.452   5.909   2.565
 3520TIP3   OH210565   3.676   5.395   2.307
 3520TIP3    H110566   3.633   5.475   2.276
 3520TIP3    H210567   3.610   5.326   2.294
 3521TIP3   OH210568   3.809   5.883   2.512
 3521TIP3    H110569   3.800   5.872   2.607
 3521TIP3    H210570   3.723   5.860   2.477
 3522TIP3   OH210571   4.050   5.825   2.376
 3522TIP3    H110572   3.974   5.823   2.434
 3522TIP3    H210573   4.125   5.804   2.432
 3523TIP3   OH210574   4.280   5.790   2.530
 3523TIP3    H110575   4.295   5.696   2.537
 3523TIP3    H210576   4.276   5.821   2.620
 3524TIP3   OH210577   3.268   5.707   2.715
 3524TIP3    H110578   3.270   5.619   2.678
 3524TIP3    H210579   3.304   5.696   2.803
 3525TIP3   OH210580   3.754   5.390   2.570
 3525TIP3    H110581   3.823   5.324   2.566
 3525TIP3    H210582   3.720   5.394   2.481
 3526TIP3   OH210583   3.833   5.608   2.718
 3526TIP3    H110584   3.810   5.535   2.660
 3526TIP3    H210585   3.758   5.668   2.711
 3527TIP3   OH210586   6.420   0.197   0.924
 3527TIP3    H110587   6.491   0.262   0.926
 3527TIP3    H210588   6.432   0.147   1.005
 3528TIP3   OH210589  -0.006   0.062   1.143
 3528TIP3    H110590  -0.058   0.002   1.196
 3528TIP3    H210591   0.075   0.075   1.193
 3529TIP3   OH210592   6.435  -0.029   0.756
 3529TIP3    H110593   6.402  -0.012   0.667
 3529TIP3    H210594   6.446   0.058   0.794
 3530TIP3   OH210595   4.250   5.707   0.738
 3530TIP3    H110596   4.233   5.763   0.663
 3530TIP3    H210597   4.169   5.657   0.749
 3531TIP3   OH210598   4.152   6.004   1.252
 3531TIP3    H110599   4.165   5.910   1.241
 3531TIP3    H210600   4.142   6.016   1.346
 3532TIP3   OH210601   2.787   5.983   2.019
 3532TIP3    H110602   2.756   6.070   1.995
 3532TIP3    H210603   2.883   5.990   2.017
 3533TIP3   OH210604   0.104   0.293   2.097
 3533TIP3    H110605   0.185   0.241   2.102
 3533TIP3    H210606   0.112   0.342   2.015
 3534TIP3   OH210607   0.292   0.111   2.201
 3534TIP3    H110608   0.209   0.064   2.198
 3534TIP3    H210609   0.357   0.047   2.172
 3535TIP3   OH210610   4.061   5.520   0.816
 3535TIP3    H110611   4.115   5.450   0.780
 3535TIP3    H210612   3.977   5.477   0.836
 3536TIP3   OH210613   4.152   5.734   1.151
 3536TIP3    H110614   4.196   5.649   1.158
 3536TIP3    H210615   4.195   5.777   1.078
 3537TIP3   OH210616   4.309   5.909   1.650
 3537TIP3    H110617   4.386   5.935   1.600
 3537TIP3    H210618   4.322   5.950   1.736
 3538TIP3   OH210619   4.384   6.072   1.868
 3538TIP3    H110620   4.308   6.107   1.914
 3538TIP3    H210621   4.419   6.147   1.820
 3539TIP3   OH210622   3.002   5.772   2.687
 3539TIP3    H110623   3.097   5.763   2.687
 3539TIP3    H210624   2.970   5.687   2.718
 3540TIP3   OH210625   4.834   5.657   2.423
 3540TIP3    H110626   4.896   5.594   2.387
 3540TIP3    H210627   4.799   5.703   2.346
 3541TIP3   OH210628   4.254   5.479   1.197
 3541TIP3    H110629   4.297   5.467   1.281
 3541TIP3    H210630   4.188   5.409   1.193
 3542TIP3   OH210631   2.963   5.473   1.998
 3542TIP3    H110632   3.015   5.394   2.010
 3542TIP3    H210633   3.027   5.544   1.989
 3543TIP3   OH210634   2.753   5.713   2.058
 3543TIP3    H110635   2.802   5.672   1.987
 3543TIP3    H210636   2.768   5.807   2.046
 3544TIP3   OH210637   4.688   5.769   2.222
 3544TIP3    H110638   4.603   5.811   2.236
 3544TIP3    H210639   4.669   5.691   2.170
 3545TIP3   OH210640   4.383   5.444   0.868
 3545TIP3    H110641   4.451   5.379   0.848
 3545TIP3    H210642   4.354   5.475   0.782
 3546TIP3   OH210643   2.742   5.247   1.588
 3546TIP3    H110644   2.652   5.228   1.616
 3546TIP3    H210645   2.732   5.298   1.508
 3547TIP3   OH210646   2.963   5.324   2.399
 3547TIP3    H110647   2.910   5.308   2.477
 3547TIP3    H210648   2.903   5.363   2.336
 3548TIP3   OH210649   4.600   5.526   2.116
 3548TIP3    H110650   4.512   5.517   2.080
 3548TIP3    H210651   4.638   5.438   2.109
 3549TIP3   OH210652   3.805   5.452   1.743
 3549TIP3    H110653   3.766   5.379   1.792
 3549TIP3    H210654   3.875   5.412   1.692
 3550TIP3   OH210655   4.312   5.355   1.645
 3550TIP3    H110656   4.352   5.402   1.572
 3550TIP3    H210657   4.220   5.380   1.643
 3551TIP3   OH210658   4.423   5.432   1.409
 3551TIP3    H110659   4.495   5.377   1.377
 3551TIP3    H210660   4.456   5.522   1.402
 3552TIP3   OH210661   3.050   5.154   1.748
 3552TIP3    H110662   2.960   5.122   1.755
 3552TIP3    H210663   3.103   5.075   1.742
 3553TIP3   OH210664   2.853   5.048   1.402
 3553TIP3    H110665   2.884   5.100   1.327
 3553TIP3    H210666   2.824   5.113   1.465
 3554TIP3   OH210667   3.514   5.196   1.640
 3554TIP3    H110668   3.564   5.241   1.572
 3554TIP3    H210669   3.555   5.222   1.722
 3555TIP3   OH210670   4.025   5.339   1.618
 3555TIP3    H110671   4.044   5.302   1.531
 3555TIP3    H210672   4.025   5.263   1.676
 3556TIP3   OH210673   4.068   5.276   1.192
 3556TIP3    H110674   3.987   5.322   1.217
 3556TIP3    H210675   4.061   5.190   1.234
 3557TIP3   OH210676   2.970   5.190   1.173
 3557TIP3    H110677   3.016   5.131   1.114
 3557TIP3    H210678   3.038   5.246   1.209
 3558TIP3   OH210679   3.458   5.380   1.277
 3558TIP3    H110680   3.520   5.330   1.330
 3558TIP3    H210681   3.474   5.471   1.300
 3559TIP3   OH210682   3.267   5.434   2.636
 3559TIP3    H110683   3.231   5.366   2.693
 3559TIP3    H210684   3.359   5.440   2.659
 3560TIP3   OH210685   3.518   5.441   2.756
 3560TIP3    H110686   3.598   5.418   2.708
 3560TIP3    H210687   3.509   5.372   2.822
 3561TIP3   OH210688   4.344   5.520   2.545
 3561TIP3    H110689   4.360   5.489   2.634
 3561TIP3    H210690   4.429   5.515   2.502
 3562TIP3   OH210691   0.580   0.205   1.522
 3562TIP3    H110692   0.498   0.182   1.566
 3562TIP3    H210693   0.570   0.297   1.500
 3563TIP3   OH210694   4.502   5.912   1.121
 3563TIP3    H110695   4.510   5.991   1.067
 3563TIP3    H210696   4.415   5.877   1.101
 3564TIP3   OH210697   0.260   0.090   1.202
 3564TIP3    H110698   0.293   0.021   1.259
 3564TIP3    H210699   0.331   0.154   1.199
 3565TIP3   OH210700   5.071   5.820   1.225
 3565TIP3    H110701   5.053   5.891   1.164
 3565TIP3    H210702   5.032   5.743   1.184
 3566TIP3   OH210703   4.721   6.019   1.342
 3566TIP3    H110704   4.800   6.007   1.394
 3566TIP3    H210705   4.729   5.955   1.271
 3567TIP3   OH210706   5.075   5.804   1.676
 3567TIP3    H110707   5.025   5.844   1.605
 3567TIP3    H210708   5.021   5.816   1.753
 3568TIP3   OH210709   4.957   5.917   1.454
 3568TIP3    H110710   5.007   5.996   1.475
 3568TIP3    H210711   5.002   5.880   1.378
 3569TIP3   OH210712   5.418   5.517   1.406
 3569TIP3    H110713   5.415   5.423   1.419
 3569TIP3    H210714   5.342   5.550   1.453
 3570TIP3   OH210715   5.181   5.598   1.523
 3570TIP3    H110716   5.096   5.567   1.492
 3570TIP3    H210717   5.161   5.677   1.573
 3571TIP3   OH210718   0.766   0.003   1.539
 3571TIP3    H110719   0.755  -0.002   1.634
 3571TIP3    H210720   0.717   0.082   1.513
 3572TIP3   OH210721   4.969   5.975   1.011
 3572TIP3    H110722   4.893   5.937   1.054
 3572TIP3    H210723   4.934   6.015   0.931
 3573TIP3   OH210724   5.018   6.112   1.802
 3573TIP3    H110725   4.942   6.169   1.789
 3573TIP3    H210726   4.981   6.031   1.839
 3574TIP3   OH210727   4.538   5.669   1.353
 3574TIP3    H110728   4.611   5.705   1.403
 3574TIP3    H210729   4.576   5.648   1.268
 3575TIP3   OH210730   4.540   5.659   0.669
 3575TIP3    H110731   4.610   5.675   0.732
 3575TIP3    H210732   4.481   5.734   0.679
 3576TIP3   OH210733   4.762   5.842   1.126
 3576TIP3    H110734   4.667   5.852   1.120
 3576TIP3    H210735   4.778   5.751   1.099
 3577TIP3   OH210736   4.951   5.614   1.081
 3577TIP3    H110737   4.919   5.546   1.141
 3577TIP3    H210738   4.911   5.593   0.997
 3578TIP3   OH210739   0.332   0.320   1.930
 3578TIP3    H110740   0.410   0.275   1.962
 3578TIP3    H210741   0.316   0.282   1.844
 3579TIP3   OH210742   4.915   5.866   1.893
 3579TIP3    H110743   4.819   5.873   1.894
 3579TIP3    H210744   4.934   5.804   1.964
 3580TIP3   OH210745   4.988   5.606   0.775
 3580TIP3    H110746   5.032   5.670   0.831
 3580TIP3    H210747   5.060   5.554   0.739
 3581TIP3   OH210748   4.924   5.511   1.484
 3581TIP3    H110749   4.896   5.479   1.398
 3581TIP3    H210750   4.915   5.435   1.541
 3582TIP3   OH210751   0.394   0.491   2.135
 3582TIP3    H110752   0.477   0.443   2.135
 3582TIP3    H210753   0.349   0.460   2.057
 3583TIP3   OH210754   0.603   0.281   2.115
 3583TIP3    H110755   0.676   0.222   2.099
 3583TIP3    H210756   0.611   0.306   2.207
 3584TIP3   OH210757   5.283   6.090   1.906
 3584TIP3    H110758   5.329   6.016   1.866
 3584TIP3    H210759   5.206   6.103   1.850
 3585TIP3   OH210760   5.339   5.867   1.709
 3585TIP3    H110761   5.358   5.909   1.625
 3585TIP3    H210762   5.245   5.847   1.705
 3586TIP3   OH210763   0.841   0.073   2.133
 3586TIP3    H110764   0.787  -0.002   2.159
 3586TIP3    H210765   0.878   0.048   2.049
 3587TIP3   OH210766   5.470   5.629   1.770
 3587TIP3    H110767   5.428   5.713   1.754
 3587TIP3    H210768   5.398   5.566   1.774
 3588TIP3   OH210769   5.050   5.962   2.210
 3588TIP3    H110770   5.056   5.876   2.169
 3588TIP3    H210771   5.085   5.949   2.298
 3589TIP3   OH210772   5.566   5.651   2.032
 3589TIP3    H110773   5.630   5.580   2.035
 3589TIP3    H210774   5.532   5.649   1.943
 3590TIP3   OH210775   5.586   5.841   2.232
 3590TIP3    H110776   5.583   5.785   2.154
 3590TIP3    H210777   5.524   5.911   2.213
 3591TIP3   OH210778   4.785   6.020   2.150
 3591TIP3    H110779   4.880   6.017   2.161
 3591TIP3    H210780   4.754   5.936   2.185
 3592TIP3   OH210781   4.755   5.730   1.511
 3592TIP3    H110782   4.813   5.654   1.511
 3592TIP3    H210783   4.813   5.805   1.497
 3593TIP3   OH210784   4.538   6.018   1.554
 3593TIP3    H110785   4.593   6.013   1.475
 3593TIP3    H210786   4.565   6.100   1.596
 3594TIP3   OH210787   4.529   5.482   1.129
 3594TIP3    H110788   4.437   5.466   1.148
 3594TIP3    H210789   4.529   5.555   1.068
 3595TIP3   OH210790   4.757   5.576   1.884
 3595TIP3    H110791   4.704   5.567   1.964
 3595TIP3    H210792   4.698   5.619   1.822
 3596TIP3   OH210793   4.847   5.409   1.242
 3596TIP3    H110794   4.756   5.381   1.249
 3596TIP3    H210795   4.897   5.328   1.233
 3597TIP3   OH210796   4.697   5.303   1.011
 3597TIP3    H110797   4.750   5.374   0.974
 3597TIP3    H210798   4.635   5.347   1.069
 3598TIP3   OH210799   5.279   5.522   1.149
 3598TIP3    H110800   5.362   5.474   1.145
 3598TIP3    H210801   5.270   5.547   1.241
 3599TIP3   OH210802   4.781   5.401   0.679
 3599TIP3    H110803   4.864   5.353   0.683
 3599TIP3    H210804   4.801   5.479   0.627
 3600TIP3   OH210805   5.055   5.687   2.120
 3600TIP3    H110806   5.020   5.620   2.178
 3600TIP3    H210807   5.147   5.696   2.145
 3601TIP3   OH210808   5.299   5.697   2.251
 3601TIP3    H110809   5.385   5.684   2.211
 3601TIP3    H210810   5.291   5.626   2.314
 3602TIP3   OH210811   1.646   0.658   5.211
 3602TIP3    H110812   1.618   0.746   5.187
 3602TIP3    H210813   1.603   0.601   5.147
 3603TIP3   OH210814   3.822   3.771   0.255
 3603TIP3    H110815   3.827   3.717   0.333
 3603TIP3    H210816   3.781   3.714   0.189
 3604TIP3   OH210817   1.943   0.990   5.216
 3604TIP3    H110818   1.941   0.911   5.270
 3604TIP3    H210819   1.967   1.060   5.275
 3605TIP3   OH210820   1.591   1.420   5.277
 3605TIP3    H110821   1.627   1.359   5.213
 3605TIP3    H210822   1.580   1.368   5.356
 3606TIP3   OH210823   3.657   3.965   0.402
 3606TIP3    H110824   3.651   3.878   0.441
 3606TIP3    H210825   3.746   3.993   0.420
 3607TIP3   OH210826   4.674   3.297   0.253
 3607TIP3    H110827   4.696   3.385   0.282
 3607TIP3    H210828   4.737   3.279   0.182
 3608TIP3   OH210829   4.070   3.458   0.326
 3608TIP3    H110830   4.023   3.390   0.374
 3608TIP3    H210831   4.020   3.471   0.246
 3609TIP3   OH210832   1.923   0.088   5.223
 3609TIP3    H110833   1.960   0.130   5.300
 3609TIP3    H210834   1.953   0.141   5.149
 3610TIP3   OH210835   4.711   3.506   0.439
 3610TIP3    H110836   4.652   3.562   0.489
 3610TIP3    H210837   4.714   3.424   0.488
 3611TIP3   OH210838   1.548   0.875   5.077
 3611TIP3    H110839   1.544   0.875   4.981
 3611TIP3    H210840   1.512   0.960   5.102
 3612TIP3   OH210841   4.428   3.174   0.114
 3612TIP3    H110842   4.481   3.137   0.185
 3612TIP3    H210843   4.449   3.267   0.113
 3613TIP3   OH210844   4.165   4.280   0.059
 3613TIP3    H110845   4.087   4.297   0.112
 3613TIP3    H210846   4.175   4.358   0.004
 3614TIP3   OH210847   1.698   1.257   5.087
 3614TIP3    H110848   1.739   1.175   5.059
 3614TIP3    H210849   1.761   1.325   5.062
 3615TIP3   OH210850   1.821   1.038   4.983
 3615TIP3    H110851   1.832   0.958   4.933
 3615TIP3    H210852   1.866   1.021   5.066
 3616TIP3   OH210853   4.400   4.205   0.490
 3616TIP3    H110854   4.442   4.124   0.461
 3616TIP3    H210855   4.398   4.261   0.412
 3617TIP3   OH210856   1.513   0.513   5.020
 3617TIP3    H110857   1.437   0.568   5.003
 3617TIP3    H210858   1.564   0.517   4.939
 3618TIP3   OH210859   1.503   0.321   4.734
 3618TIP3    H110860   1.581   0.366   4.765
 3618TIP3    H210861   1.478   0.263   4.807
 3619TIP3   OH210862   4.586   3.771   0.292
 3619TIP3    H110863   4.523   3.837   0.322
 3619TIP3    H210864   4.633   3.814   0.220
 3620TIP3   OH210865   1.861   0.618   5.015
 3620TIP3    H110866   1.818   0.640   5.097
 3620TIP3    H210867   1.948   0.588   5.042
 3621TIP3   OH210868   3.358   4.022   0.172
 3621TIP3    H110869   3.339   4.032   0.079
 3621TIP3    H210870   3.439   3.972   0.176
 3622TIP3   OH210871   3.973   4.279   0.250
 3622TIP3    H110872   3.896   4.335   0.241
 3622TIP3    H210873   3.942   4.191   0.225
 3623TIP3   OH210874   1.719   0.467   4.837
 3623TIP3    H110875   1.771   0.529   4.889
 3623TIP3    H210876   1.747   0.483   4.746
 3624TIP3   OH210877   1.446   1.135   5.099
 3624TIP3    H110878   1.529   1.182   5.106
 3624TIP3    H210879   1.389   1.193   5.049
 3625TIP3   OH210880   2.024   1.062   4.436
 3625TIP3    H110881   2.025   1.157   4.422
 3625TIP3    H210882   2.115   1.035   4.421
 3626TIP3   OH210883   4.682   4.581   0.389
 3626TIP3    H110884   4.695   4.486   0.396
 3626TIP3    H210885   4.669   4.610   0.479
 3627TIP3   OH210886   1.309   1.366   4.914
 3627TIP3    H110887   1.247   1.352   4.843
 3627TIP3    H210888   1.294   1.456   4.942
 3628TIP3   OH210889   0.721   1.202   5.233
 3628TIP3    H110890   0.784   1.173   5.299
 3628TIP3    H210891   0.639   1.158   5.258
 3629TIP3   OH210892   1.579   1.368   4.850
 3629TIP3    H110893   1.486   1.353   4.864
 3629TIP3    H210894   1.622   1.306   4.908
 3630TIP3   OH210895   1.788   0.476   4.578
 3630TIP3    H110896   1.744   0.467   4.493
 3630TIP3    H210897   1.871   0.520   4.556
 3631TIP3   OH210898   1.650   0.314   5.154
 3631TIP3    H110899   1.598   0.378   5.106
 3631TIP3    H210900   1.707   0.275   5.088
 3632TIP3   OH210901   3.926   3.410   0.090
 3632TIP3    H110902   3.887   3.398   0.003
 3632TIP3    H210903   3.983   3.333   0.101
 3633TIP3   OH210904   4.345   4.898   0.676
 3633TIP3    H110905   4.314   4.978   0.633
 3633TIP3    H210906   4.432   4.920   0.709
 3634TIP3   OH210907   1.292   0.675   4.980
 3634TIP3    H110908   1.206   0.650   4.947
 3634TIP3    H210909   1.275   0.707   5.069
 3635TIP3   OH210910   4.304   3.914   0.081
 3635TIP3    H110911   4.359   3.988   0.057
 3635TIP3    H210912   4.240   3.950   0.141
 3636TIP3   OH210913   1.718   0.025   4.802
 3636TIP3    H110914   1.707  -0.048   4.863
 3636TIP3    H210915   1.758   0.095   4.855
 3637TIP3   OH210916   1.825   0.236   4.949
 3637TIP3    H110917   1.920   0.239   4.962
 3637TIP3    H210918   1.805   0.317   4.902
 3638TIP3   OH210919   1.445   0.831   4.803
 3638TIP3    H110920   1.399   0.914   4.795
 3638TIP3    H210921   1.392   0.779   4.863
 3639TIP3   OH210922   3.967   4.426   0.582
 3639TIP3    H110923   3.895   4.389   0.530
 3639TIP3    H210924   4.046   4.390   0.542
 3640TIP3   OH210925   2.233   0.322   4.787
 3640TIP3    H110926   2.192   0.273   4.716
 3640TIP3    H210927   2.235   0.412   4.756
 3641TIP3   OH210928   4.633   4.347   0.558
 3641TIP3    H110929   4.558   4.326   0.612
 3641TIP3    H210930   4.655   4.265   0.514
 3642TIP3   OH210931   1.969   1.137   4.705
 3642TIP3    H110932   1.925   1.075   4.764
 3642TIP3    H210933   1.977   1.091   4.622
 3643TIP3   OH210934   4.060   3.875   0.331
 3643TIP3    H110935   3.982   3.850   0.282
 3643TIP3    H210936   4.126   3.810   0.308
 3644TIP3   OH210937   1.074   1.008   5.241
 3644TIP3    H110938   1.069   1.085   5.185
 3644TIP3    H210939   1.004   1.020   5.305
 3645TIP3   OH210940   1.198   0.760   5.220
 3645TIP3    H110941   1.153   0.845   5.218
 3645TIP3    H210942   1.227   0.750   5.310
 3646TIP3   OH210943   3.522   4.410   0.425
 3646TIP3    H110944   3.552   4.470   0.358
 3646TIP3    H210945   3.586   4.418   0.496
 3647TIP3   OH210946   0.988   1.247   5.124
 3647TIP3    H110947   0.896   1.248   5.152
 3647TIP3    H210948   1.016   1.339   5.131
 3648TIP3   OH210949   3.909   4.045   0.465
 3648TIP3    H110950   3.965   4.066   0.540
 3648TIP3    H210951   3.960   3.982   0.414
 3649TIP3   OH210952   1.712   0.871   4.619
 3649TIP3    H110953   1.769   0.853   4.694
 3649TIP3    H210954   1.623   0.857   4.653
 3650TIP3   OH210955   4.167   4.673   0.473
 3650TIP3    H110956   4.141   4.581   0.481
 3650TIP3    H210957   4.165   4.691   0.379
 3651TIP3   OH210958   2.038   1.339   4.412
 3651TIP3    H110959   2.063   1.403   4.344
 3651TIP3    H210960   1.966   1.382   4.459
 3652TIP3   OH210961   1.886   0.817   4.828
 3652TIP3    H110962   1.873   0.748   4.893
 3652TIP3    H210963   1.979   0.814   4.807
 3653TIP3   OH210964   1.033   0.848   4.604
 3653TIP3    H110965   1.071   0.767   4.572
 3653TIP3    H210966   1.053   0.849   4.698
 3654TIP3   OH210967   1.079   0.863   4.878
 3654TIP3    H110968   1.163   0.865   4.924
 3654TIP3    H210969   1.048   0.953   4.879
 3655TIP3   OH210970   1.300   1.060   4.770
 3655TIP3    H110971   1.218   1.091   4.810
 3655TIP3    H210972   1.306   1.110   4.689
 3656TIP3   OH210973   1.051   1.136   4.881
 3656TIP3    H110974   1.042   1.208   4.818
 3656TIP3    H210975   1.030   1.176   4.966
 3657TIP3   OH210976   4.148   3.567   0.009
 3657TIP3    H110977   4.077   3.516   0.048
 3657TIP3    H210978   4.208   3.583   0.081
 3658TIP3   OH210979   2.011   1.488   5.294
 3658TIP3    H110980   1.956   1.551   5.247
 3658TIP3    H210981   2.101   1.516   5.276
 3659TIP3   OH210982   1.644   1.032   4.381
 3659TIP3    H110983   1.676   1.019   4.470
 3659TIP3    H210984   1.719   1.070   4.335
 3660TIP3   OH210985   1.401   0.755   4.535
 3660TIP3    H110986   1.404   0.781   4.627
 3660TIP3    H210987   1.405   0.660   4.536
 3661TIP3   OH210988   4.162   4.072   0.579
 3661TIP3    H110989   4.257   4.085   0.583
 3661TIP3    H210990   4.125   4.160   0.587
 3662TIP3   OH210991   2.011   0.594   4.467
 3662TIP3    H110992   1.997   0.550   4.383
 3662TIP3    H210993   1.980   0.683   4.454
 3663TIP3   OH210994   1.081   1.345   4.702
 3663TIP3    H110995   1.141   1.316   4.634
 3663TIP3    H210996   1.015   1.396   4.655
 3664TIP3   OH210997   2.261   1.584   5.278
 3664TIP3    H110998   2.278   1.606   5.369
 3664TIP3    H210999   2.343   1.606   5.233
 3665TIP3   OH211000   4.455   4.645   0.242
 3665TIP3    H111001   4.438   4.551   0.239
 3665TIP3    H211002   4.531   4.654   0.299
 3666TIP3   OH211003   2.158   0.796   4.789
 3666TIP3    H111004   2.218   0.863   4.755
 3666TIP3    H211005   2.203   0.761   4.866
 3667TIP3   OH211006   2.291   0.675   4.990
 3667TIP3    H111007   2.229   0.623   5.041
 3667TIP3    H211008   2.359   0.700   5.053
 3668TIP3   OH211009   4.497   4.111   0.086
 3668TIP3    H111010   4.560   4.045   0.058
 3668TIP3    H211011   4.513   4.186   0.029
 3669TIP3   OH211012   4.390   4.372   0.258
 3669TIP3    H111013   4.306   4.418   0.260
 3669TIP3    H211014   4.387   4.319   0.179
 3670TIP3   OH211015   2.213   0.562   4.651
 3670TIP3    H111016   2.144   0.561   4.584
 3670TIP3    H211017   2.196   0.641   4.702
 3671TIP3   OH211018   2.101   0.223   4.567
 3671TIP3    H111019   2.043   0.246   4.495
 3671TIP3    H211020   2.070   0.138   4.597
 3672TIP3   OH211021   2.105   0.500   5.083
 3672TIP3    H111022   2.110   0.406   5.063
 3672TIP3    H211023   2.074   0.504   5.173
 3673TIP3   OH211024   4.474   3.942   0.602
 3673TIP3    H111025   4.548   3.886   0.577
 3673TIP3    H211026   4.512   4.008   0.659
 3674TIP3   OH211027   6.335   6.115   4.656
 3674TIP3    H111028   6.357   6.070   4.737
 3674TIP3    H211029   6.253   6.074   4.627
 3675TIP3   OH211030   2.100   0.229   5.014
 3675TIP3    H111031   2.162   0.172   5.060
 3675TIP3    H211032   2.147   0.256   4.935
 3676TIP3   OH211033   4.403   3.464   0.142
 3676TIP3    H111034   4.490   3.492   0.115
 3676TIP3    H211035   4.390   3.504   0.228
 3677TIP3   OH211036   4.405   3.591   0.403
 3677TIP3    H111037   4.356   3.644   0.465
 3677TIP3    H211038   4.484   3.641   0.385
 3678TIP3   OH211039   1.867   1.450   4.994
 3678TIP3    H111040   1.901   1.425   4.908
 3678TIP3    H211041   1.913   1.531   5.015
 3679TIP3   OH211042   3.913   4.682   0.586
 3679TIP3    H111043   3.934   4.590   0.568
 3679TIP3    H211044   3.998   4.724   0.597
 3680TIP3   OH211045   3.167   4.732   0.526
 3680TIP3    H111046   3.078   4.713   0.499
 3680TIP3    H211047   3.222   4.690   0.459
 3681TIP3   OH211048   3.588   4.568   0.225
 3681TIP3    H111049   3.523   4.584   0.155
 3681TIP3    H211050   3.636   4.650   0.231
 3682TIP3   OH211051   3.891   4.565   0.322
 3682TIP3    H111052   3.820   4.542   0.381
 3682TIP3    H211053   3.865   4.648   0.283
 3683TIP3   OH211054   4.097   4.787   0.210
 3683TIP3    H111055   4.091   4.869   0.161
 3683TIP3    H211056   4.120   4.721   0.145
 3684TIP3   OH211057   3.064   4.197   0.115
 3684TIP3    H111058   3.042   4.142   0.190
 3684TIP3    H211059   3.113   4.270   0.152
 3685TIP3   OH211060   3.377   4.353   0.188
 3685TIP3    H111061   3.392   4.265   0.153
 3685TIP3    H211062   3.426   4.356   0.270
 3686TIP3   OH211063   1.989   1.405   4.749
 3686TIP3    H111064   1.987   1.310   4.737
 3686TIP3    H211065   1.944   1.440   4.673
 3687TIP3   OH211066   0.658   1.198   4.727
 3687TIP3    H111067   0.635   1.157   4.810
 3687TIP3    H211068   0.724   1.140   4.689
 3688TIP3   OH211069   4.260   4.646   0.745
 3688TIP3    H111070   4.288   4.598   0.666
 3688TIP3    H211071   4.321   4.719   0.751
 3689TIP3   OH211072   3.482   0.939   4.684
 3689TIP3    H111073   3.450   1.025   4.657
 3689TIP3    H211074   3.410   0.879   4.664
 3690TIP3   OH211075   3.476   0.925   5.090
 3690TIP3    H111076   3.517   0.904   5.174
 3690TIP3    H211077   3.436   0.843   5.061
 3691TIP3   OH211078   4.961   3.848   0.040
 3691TIP3    H111079   4.967   3.800   0.123
 3691TIP3    H211080   5.051   3.869   0.018
 3692TIP3   OH211081   3.739   1.232   4.775
 3692TIP3    H111082   3.724   1.166   4.842
 3692TIP3    H211083   3.764   1.310   4.823
 3693TIP3   OH211084   2.759   1.229   5.155
 3693TIP3    H111085   2.746   1.134   5.153
 3693TIP3    H211086   2.855   1.240   5.152
 3694TIP3   OH211087   2.444   0.452   4.924
 3694TIP3    H111088   2.398   0.534   4.940
 3694TIP3    H211089   2.375   0.391   4.898
 3695TIP3   OH211090   2.522   0.726   5.126
 3695TIP3    H111091   2.571   0.650   5.158
 3695TIP3    H211092   2.586   0.776   5.075
 3696TIP3   OH211093   3.392   1.675   4.785
 3696TIP3    H111094   3.426   1.608   4.725
 3696TIP3    H211095   3.381   1.630   4.868
 3697TIP3   OH211096   3.285   1.151   5.105
 3697TIP3    H111097   3.324   1.071   5.071
 3697TIP3    H211098   3.359   1.203   5.136
 3698TIP3   OH211099   4.375   0.444   5.140
 3698TIP3    H111100   4.356   0.524   5.189
 3698TIP3    H211101   4.395   0.475   5.052
 3699TIP3   OH211102   3.687   0.640   5.159
 3699TIP3    H111103   3.709   0.551   5.187
 3699TIP3    H211104   3.653   0.630   5.071
 3700TIP3   OH211105   2.949   0.255   5.123
 3700TIP3    H111106   2.962   0.321   5.056
 3700TIP3    H211107   3.036   0.245   5.164
 3701TIP3   OH211108   3.753   0.411   4.747
 3701TIP3    H111109   3.813   0.414   4.821
 3701TIP3    H211110   3.795   0.465   4.680
 3702TIP3   OH211111   2.666   0.517   5.223
 3702TIP3    H111112   2.753   0.510   5.263
 3702TIP3    H211113   2.673   0.467   5.142
 3703TIP3   OH211114   3.095   0.706   5.025
 3703TIP3    H111115   3.190   0.694   5.030
 3703TIP3    H211116   3.061   0.620   5.003
 3704TIP3   OH211117   0.023   3.746  -0.021
 3704TIP3    H111118  -0.056   3.796  -0.042
 3704TIP3    H211119   0.050   3.781   0.064
 3705TIP3   OH211120   5.167   3.308   0.211
 3705TIP3    H111121   5.230   3.316   0.139
 3705TIP3    H211122   5.117   3.389   0.207
 3706TIP3   OH211123   3.380   1.154   4.542
 3706TIP3    H111124   3.338   1.126   4.460
 3706TIP3    H211125   3.326   1.227   4.573
 3707TIP3   OH211126   5.317   4.135   0.023
 3707TIP3    H111127   5.254   4.199   0.056
 3707TIP3    H211128   5.356   4.177  -0.054
 3708TIP3   OH211129   3.922   0.439   4.948
 3708TIP3    H111130   3.958   0.360   4.987
 3708TIP3    H211131   3.973   0.510   4.987
 3709TIP3   OH211132   5.068   3.500   0.022
 3709TIP3    H111133   5.147   3.549   0.042
 3709TIP3    H211134   5.095   3.437  -0.046
 3710TIP3   OH211135   5.150   4.339   0.101
 3710TIP3    H111136   5.134   4.428   0.070
 3710TIP3    H211137   5.071   4.316   0.150
 3711TIP3   OH211138   2.343   0.972   4.678
 3711TIP3    H111139   2.310   0.991   4.591
 3711TIP3    H211140   2.370   1.057   4.713
 3712TIP3   OH211141   3.788   1.477   4.919
 3712TIP3    H111142   3.702   1.468   4.960
 3712TIP3    H211143   3.785   1.561   4.873
 3713TIP3   OH211144   3.491   1.514   4.579
 3713TIP3    H111145   3.542   1.433   4.567
 3713TIP3    H211146   3.549   1.583   4.548
 3714TIP3   OH211147   3.631   1.285   4.524
 3714TIP3    H111148   3.558   1.223   4.520
 3714TIP3    H211149   3.679   1.260   4.603
 3715TIP3   OH211150   4.027   1.374   5.264
 3715TIP3    H111151   4.006   1.299   5.208
 3715TIP3    H211152   4.010   1.451   5.210
 3716TIP3   OH211153   3.306   0.781   4.532
 3716TIP3    H111154   3.223   0.825   4.516
 3716TIP3    H211155   3.350   0.781   4.448
 3717TIP3   OH211156   3.268   0.581   4.243
 3717TIP3    H111157   3.334   0.637   4.283
 3717TIP3    H211158   3.317   0.507   4.206
 3718TIP3   OH211159   4.206   1.042   5.130
 3718TIP3    H111160   4.120   1.085   5.127
 3718TIP3    H211161   4.237   1.044   5.040
 3719TIP3   OH211162   3.662   0.863   4.494
 3719TIP3    H111163   3.605   0.891   4.566
 3719TIP3    H211164   3.745   0.842   4.536
 3720TIP3   OH211165   6.041   3.971   0.100
 3720TIP3    H111166   6.042   4.049   0.155
 3720TIP3    H211167   5.954   3.970   0.061
 3721TIP3   OH211168   2.890   0.848   4.911
 3721TIP3    H111169   2.851   0.791   4.844
 3721TIP3    H211170   2.966   0.799   4.944
 3722TIP3   OH211171   3.025   1.271   5.045
 3722TIP3    H111172   3.001   1.246   4.956
 3722TIP3    H211173   3.112   1.231   5.058
 3723TIP3   OH211174   3.049   0.823   5.272
 3723TIP3    H111175   3.072   0.801   5.182
 3723TIP3    H211176   3.087   0.910   5.286
 3724TIP3   OH211177   3.553   1.470   5.052
 3724TIP3    H111178   3.538   1.547   5.107
 3724TIP3    H211179   3.537   1.396   5.111
 3725TIP3   OH211180   5.342   4.430   0.274
 3725TIP3    H111181   5.285   4.494   0.315
 3725TIP3    H211182   5.285   4.380   0.216
 3726TIP3   OH211183   3.483   0.744   4.319
 3726TIP3    H111184   3.544   0.798   4.369
 3726TIP3    H211185   3.514   0.749   4.229
 3727TIP3   OH211186   5.128   4.057   0.305
 3727TIP3    H111187   5.144   4.128   0.367
 3727TIP3    H211188   5.033   4.043   0.309
 3728TIP3   OH211189   3.244   1.392   4.592
 3728TIP3    H111190   3.325   1.442   4.596
 3728TIP3    H211191   3.183   1.450   4.545
 3729TIP3   OH211192   5.157   4.616   0.341
 3729TIP3    H111193   5.131   4.614   0.249
 3729TIP3    H211194   5.076   4.632   0.388
 3730TIP3   OH211195   2.763   0.694   4.713
 3730TIP3    H111196   2.687   0.736   4.673
 3730TIP3    H211197   2.740   0.601   4.716
 3731TIP3   OH211198   3.824   1.325   3.930
 3731TIP3    H111199   3.824   1.420   3.915
 3731TIP3    H211200   3.914   1.298   3.912
 3732TIP3   OH211201   4.755   4.169   0.188
 3732TIP3    H111202   4.660   4.164   0.178
 3732TIP3    H211203   4.782   4.079   0.207
 3733TIP3   OH211204   2.416   1.274   5.267
 3733TIP3    H111205   2.503   1.250   5.236
 3733TIP3    H211206   2.430   1.353   5.319
 3734TIP3   OH211207   6.421   4.807   0.016
 3734TIP3    H111208   6.429   4.712   0.025
 3734TIP3    H211209   6.340   4.828   0.063
 3735TIP3   OH211210   5.526   4.582   0.140
 3735TIP3    H111211   5.518   4.672   0.174
 3735TIP3    H211212   5.460   4.533   0.189
 3736TIP3   OH211213   3.132   1.628   4.408
 3736TIP3    H111214   3.083   1.608   4.328
 3736TIP3    H211215   3.097   1.713   4.436
 3737TIP3   OH211216   2.565   1.475   4.788
 3737TIP3    H111217   2.611   1.468   4.871
 3737TIP3    H211218   2.517   1.393   4.779
 3738TIP3   OH211219   3.333   1.546   4.039
 3738TIP3    H111220   3.385   1.473   4.003
 3738TIP3    H211221   3.366   1.558   4.128
 3739TIP3   OH211222   3.385   1.592   4.309
 3739TIP3    H111223   3.299   1.598   4.349
 3739TIP3    H211224   3.441   1.556   4.377
 3740TIP3   OH211225   6.308   3.924   0.307
 3740TIP3    H111226   6.222   3.925   0.265
 3740TIP3    H211227   6.338   3.833   0.298
 3741TIP3   OH211228   4.914   4.379   0.231
 3741TIP3    H111229   4.915   4.391   0.326
 3741TIP3    H211230   4.861   4.300   0.218
 3742TIP3   OH211231   6.095   3.727   0.221
 3742TIP3    H111232   6.030   3.696   0.283
 3742TIP3    H211233   6.054   3.801   0.177
 3743TIP3   OH211234   3.584   0.728   4.068
 3743TIP3    H111235   3.537   0.724   3.985
 3743TIP3    H211236   3.666   0.773   4.047
 3744TIP3   OH211237   5.254   3.679   0.135
 3744TIP3    H111238   5.179   3.698   0.191
 3744TIP3    H211239   5.255   3.751   0.071
 3745TIP3   OH211240   2.963   0.473   4.947
 3745TIP3    H111241   2.868   0.466   4.960
 3745TIP3    H211242   2.977   0.442   4.858
 3746TIP3   OH211243   3.451   0.596   4.673
 3746TIP3    H111244   3.397   0.660   4.627
 3746TIP3    H211245   3.499   0.551   4.603
 3747TIP3   OH211246   5.808   3.919   0.434
 3747TIP3    H111247   5.790   3.857   0.504
 3747TIP3    H211248   5.901   3.938   0.443
 3748TIP3   OH211249   3.612   0.598   4.898
 3748TIP3    H111250   3.543   0.626   4.838
 3748TIP3    H211251   3.648   0.519   4.859
 3749TIP3   OH211252   5.027   3.718   0.289
 3749TIP3    H111253   5.060   3.766   0.365
 3749TIP3    H211254   5.018   3.628   0.319
 3750TIP3   OH211255   2.982   0.249   4.348
 3750TIP3    H111256   2.984   0.198   4.429
 3750TIP3    H211257   2.891   0.274   4.337
 3751TIP3   OH211258   2.524   0.176   5.164
 3751TIP3    H111259   2.572   0.205   5.241
 3751TIP3    H211260   2.509   0.082   5.178
 3752TIP3   OH211261   2.473   0.148   4.748
 3752TIP3    H111262   2.497   0.188   4.664
 3752TIP3    H211263   2.404   0.204   4.782
 3753TIP3   OH211264   5.779   3.908   0.014
 3753TIP3    H111265   5.810   3.842  -0.048
 3753TIP3    H211266   5.751   3.858   0.091
 3754TIP3   OH211267   3.291   0.311   4.983
 3754TIP3    H111268   3.207   0.341   5.019
 3754TIP3    H211269   3.341   0.283   5.059
 3755TIP3   OH211270   2.702   0.391   4.982
 3755TIP3    H111271   2.612   0.411   4.954
 3755TIP3    H211272   2.702   0.297   4.996
 3756TIP3   OH211273   2.979   0.364   4.695
 3756TIP3    H111274   3.072   0.385   4.688
 3756TIP3    H211275   2.938   0.409   4.621
 3757TIP3   OH211276   2.828   0.459   4.482
 3757TIP3    H111277   2.761   0.409   4.435
 3757TIP3    H211278   2.892   0.483   4.415
 3758TIP3   OH211279   6.127   5.143   0.115
 3758TIP3    H111280   6.123   5.163   0.021
 3758TIP3    H211281   6.204   5.191   0.146
 3759TIP3   OH211282   5.153   4.242   0.504
 3759TIP3    H111283   5.214   4.298   0.551
 3759TIP3    H211284   5.089   4.215   0.569
 3760TIP3   OH211285   3.362   0.661   5.071
 3760TIP3    H111286   3.399   0.580   5.036
 3760TIP3    H211287   3.367   0.651   5.166
 3761TIP3   OH211288   5.534   3.704   0.033
 3761TIP3    H111289   5.452   3.664   0.063
 3761TIP3    H211290   5.588   3.712   0.112
 3762TIP3   OH211291   3.073   0.924   4.478
 3762TIP3    H111292   2.999   0.866   4.459
 3762TIP3    H211293   3.054   0.960   4.565
 3763TIP3   OH211294   3.964   1.168   5.091
 3763TIP3    H111295   3.995   1.216   5.014
 3763TIP3    H211296   3.883   1.126   5.063
 3764TIP3   OH211297   3.456   0.311   4.270
 3764TIP3    H111298   3.405   0.267   4.338
 3764TIP3    H211299   3.529   0.352   4.317
 3765TIP3   OH211300   5.654   4.314   0.175
 3765TIP3    H111301   5.692   4.293   0.261
 3765TIP3    H211302   5.608   4.397   0.189
 3766TIP3   OH211303   3.604   0.528   4.438
 3766TIP3    H111304   3.693   0.564   4.444
 3766TIP3    H211305   3.554   0.595   4.391
 3767TIP3   OH211306   2.753   0.954   5.128
 3767TIP3    H111307   2.806   0.921   5.056
 3767TIP3    H211308   2.772   0.894   5.201
 3768TIP3   OH211309   3.226   1.078   4.314
 3768TIP3    H111310   3.179   1.161   4.314
 3768TIP3    H211311   3.173   1.020   4.368
 3769TIP3   OH211312   4.738   3.885   0.550
 3769TIP3    H111313   4.814   3.883   0.609
 3769TIP3    H211314   4.744   3.803   0.500
 3770TIP3   OH211315   5.581   4.079   0.439
 3770TIP3    H111316   5.511   4.032   0.394
 3770TIP3    H211317   5.662   4.037   0.408
 3771TIP3   OH211318   5.796   4.594   0.062
 3771TIP3    H111319   5.702   4.581   0.071
 3771TIP3    H211320   5.822   4.636   0.145
 3772TIP3   OH211321   4.037   0.586   4.283
 3772TIP3    H111322   4.004   0.527   4.215
 3772TIP3    H211323   4.030   0.673   4.244
 3773TIP3   OH211324   6.443   4.530   0.037
 3773TIP3    H111325   6.349   4.514   0.046
 3773TIP3    H211326   6.467   4.490  -0.046
 3774TIP3   OH211327   3.754   1.397   4.200
 3774TIP3    H111328   3.722   1.331   4.262
 3774TIP3    H211329   3.765   1.348   4.118
 3775TIP3   OH211330   3.732   1.032   4.996
 3775TIP3    H111331   3.641   1.008   5.015
 3775TIP3    H211332   3.771   0.952   4.959
 3776TIP3   OH211333   2.881   1.264   4.791
 3776TIP3    H111334   2.878   1.342   4.735
 3776TIP3    H211335   2.789   1.244   4.808
 3777TIP3   OH211336   2.447   0.554   4.501
 3777TIP3    H111337   2.492   0.637   4.520
 3777TIP3    H211338   2.368   0.557   4.555
 3778TIP3   OH211339   2.993   1.022   4.716
 3778TIP3    H111340   2.967   1.111   4.740
 3778TIP3    H211341   2.962   0.968   4.789
 3779TIP3   OH211342   3.168   1.594   5.244
 3779TIP3    H111343   3.206   1.665   5.193
 3779TIP3    H211344   3.242   1.558   5.293
 3780TIP3   OH211345   2.798   1.493   4.639
 3780TIP3    H111346   2.711   1.499   4.680
 3780TIP3    H211347   2.831   1.583   4.642
 3781TIP3   OH211348   3.527   1.242   5.211
 3781TIP3    H111349   3.516   1.240   5.306
 3781TIP3    H211350   3.600   1.182   5.195
 3782TIP3   OH211351   3.508   1.130   4.092
 3782TIP3    H111352   3.563   1.103   4.167
 3782TIP3    H211353   3.422   1.093   4.112
 3783TIP3   OH211354   3.780   1.756   5.260
 3783TIP3    H111355   3.706   1.695   5.269
 3783TIP3    H211356   3.754   1.814   5.188
 3784TIP3   OH211357   3.838   1.601   3.905
 3784TIP3    H111358   3.876   1.671   3.852
 3784TIP3    H211359   3.760   1.640   3.944
 3785TIP3   OH211360   5.056   3.482   0.422
 3785TIP3    H111361   5.004   3.404   0.440
 3785TIP3    H211362   5.144   3.459   0.453
 3786TIP3   OH211363   3.683   1.046   4.285
 3786TIP3    H111364   3.668   0.994   4.364
 3786TIP3    H211365   3.778   1.053   4.278
 3787TIP3   OH211366   4.740   4.539   0.091
 3787TIP3    H111367   4.809   4.480   0.122
 3787TIP3    H211368   4.744   4.614   0.150
 3788TIP3   OH211369   2.868   1.101   4.099
 3788TIP3    H111370   2.878   1.010   4.072
 3788TIP3    H211371   2.848   1.097   4.192
 3789TIP3   OH211372   2.809   1.113   4.370
 3789TIP3    H111373   2.879   1.082   4.427
 3789TIP3    H211374   2.811   1.208   4.379
 3790TIP3   OH211375   2.544   0.804   4.579
 3790TIP3    H111376   2.478   0.850   4.632
 3790TIP3    H211377   2.564   0.865   4.509
 3791TIP3   OH211378   4.547   0.612   4.261
 3791TIP3    H111379   4.625   0.618   4.206
 3791TIP3    H211380   4.499   0.537   4.226
 3792TIP3   OH211381   3.518   0.300   4.660
 3792TIP3    H111382   3.526   0.205   4.649
 3792TIP3    H211383   3.596   0.325   4.710
 3793TIP3   OH211384   3.082   1.307   4.315
 3793TIP3    H111385   2.996   1.328   4.352
 3793TIP3    H211386   3.102   1.380   4.257
 3794TIP3   OH211387   3.247   0.405   4.720
 3794TIP3    H111388   3.321   0.462   4.699
 3794TIP3    H211389   3.271   0.365   4.804
 3795TIP3   OH211390   5.729   3.748   0.234
 3795TIP3    H111391   5.745   3.816   0.300
 3795TIP3    H211392   5.780   3.673   0.266
 3796TIP3   OH211393   2.828   1.385   4.388
 3796TIP3    H111394   2.805   1.454   4.326
 3796TIP3    H211395   2.815   1.425   4.474
 3797TIP3   OH211396   2.884   0.120   4.602
 3797TIP3    H111397   2.902   0.203   4.646
 3797TIP3    H211398   2.891   0.054   4.672
 3798TIP3   OH211399   6.360   3.668   0.209
 3798TIP3    H111400   6.264   3.671   0.212
 3798TIP3    H211401   6.380   3.640   0.119
 3799TIP3   OH211402   3.828   0.781   4.903
 3799TIP3    H111403   3.752   0.723   4.910
 3799TIP3    H211404   3.896   0.738   4.955
 3800TIP3   OH211405   2.556   0.992   4.368
 3800TIP3    H111406   2.626   1.057   4.378
 3800TIP3    H211407   2.590   0.929   4.305
 3801TIP3   OH211408   2.475   0.277   4.497
 3801TIP3    H111409   2.499   0.369   4.509
 3801TIP3    H211410   2.381   0.279   4.477
 3802TIP3   OH211411   3.805   1.746   4.839
 3802TIP3    H111412   3.762   1.794   4.768
 3802TIP3    H211413   3.899   1.759   4.822
 3803TIP3   OH211414   2.400   1.242   4.758
 3803TIP3    H111415   2.349   1.276   4.832
 3803TIP3    H211416   2.361   1.284   4.682
 3804TIP3   OH211417   4.778   4.866   0.415
 3804TIP3    H111418   4.854   4.830   0.460
 3804TIP3    H211419   4.730   4.790   0.384
 3805TIP3   OH211420   5.228   4.803   0.534
 3805TIP3    H111421   5.301   4.759   0.578
 3805TIP3    H211422   5.212   4.750   0.456
 3806TIP3   OH211423   3.029   1.298   3.994
 3806TIP3    H111424   2.979   1.229   4.037
 3806TIP3    H211425   3.104   1.253   3.956
 3807TIP3   OH211426   5.857   4.708   0.305
 3807TIP3    H111427   5.863   4.636   0.368
 3807TIP3    H211428   5.934   4.761   0.322
 3808TIP3   OH211429   3.468   1.339   3.919
 3808TIP3    H111430   3.497   1.273   3.982
 3808TIP3    H211431   3.530   1.330   3.846
 3809TIP3   OH211432   4.985   4.268   0.732
 3809TIP3    H111433   4.972   4.262   0.826
 3809TIP3    H211434   4.913   4.217   0.695
 3810TIP3   OH211435   2.687   0.801   4.224
 3810TIP3    H111436   2.739   0.781   4.302
 3810TIP3    H211437   2.752   0.814   4.155
 3811TIP3   OH211438   5.498   4.334   0.471
 3811TIP3    H111439   5.446   4.349   0.393
 3811TIP3    H211440   5.535   4.247   0.460
 3812TIP3   OH211441   3.231   1.022   4.044
 3812TIP3    H111442   3.217   1.035   4.138
 3812TIP3    H211443   3.224   0.927   4.032
 3813TIP3   OH211444   5.961   4.368   0.094
 3813TIP3    H111445   6.038   4.404   0.050
 3813TIP3    H211446   5.892   4.433   0.079
 3814TIP3   OH211447   4.950   3.969   0.688
 3814TIP3    H111448   5.003   3.933   0.618
 3814TIP3    H211449   5.009   3.971   0.764
 3815TIP3   OH211450   2.863   0.751   4.437
 3815TIP3    H111451   2.841   0.710   4.520
 3815TIP3    H211452   2.910   0.683   4.388
 3816TIP3   OH211453   5.341   3.901   0.341
 3816TIP3    H111454   5.267   3.958   0.320
 3816TIP3    H211455   5.402   3.914   0.268
 3817TIP3   OH211456   2.992   0.564   4.284
 3817TIP3    H111457   2.965   0.562   4.192
 3817TIP3    H211458   3.088   0.561   4.281
 3818TIP3   OH211459   5.851   4.260   0.433
 3818TIP3    H111460   5.923   4.228   0.380
 3818TIP3    H211461   5.859   4.214   0.516
 3819TIP3   OH211462   3.809   0.846   3.954
 3819TIP3    H111463   3.786   0.805   3.870
 3819TIP3    H211464   3.781   0.937   3.944
 3820TIP3   OH211465   5.454   3.690   0.464
 3820TIP3    H111466   5.459   3.615   0.406
 3820TIP3    H211467   5.409   3.757   0.413
 3821TIP3   OH211468   5.437   3.514   0.252
 3821TIP3    H111469   5.462   3.454   0.182
 3821TIP3    H211470   5.369   3.569   0.214
 3822TIP3   OH211471   5.510   3.990   0.155
 3822TIP3    H111472   5.582   3.983   0.092
 3822TIP3    H211473   5.446   4.046   0.110
 3823TIP3   OH211474   6.075   3.958   0.500
 3823TIP3    H111475   6.067   3.880   0.555
 3823TIP3    H211476   6.168   3.960   0.475
 3824TIP3   OH211477   6.080   4.197   0.260
 3824TIP3    H111478   6.028   4.257   0.207
 3824TIP3    H211479   6.170   4.210   0.231
 3825TIP3   OH211480   5.229   3.650   0.675
 3825TIP3    H111481   5.228   3.568   0.725
 3825TIP3    H211482   5.313   3.690   0.698
 3826TIP3   OH211483   5.705   3.689   0.568
 3826TIP3    H111484   5.682   3.663   0.658
 3826TIP3    H211485   5.622   3.685   0.520
 3827TIP3   OH211486   5.926   3.624   0.413
 3827TIP3    H111487   5.851   3.646   0.468
 3827TIP3    H211488   5.990   3.586   0.473
 3828TIP3   OH211489   2.815   1.589   4.201
 3828TIP3    H111490   2.906   1.573   4.176
 3828TIP3    H211491   2.778   1.638   4.127
 3829TIP3   OH211492   2.284   0.970   4.394
 3829TIP3    H111493   2.378   0.987   4.387
 3829TIP3    H211494   2.273   0.883   4.355
 3830TIP3   OH211495   2.194   1.564   4.839
 3830TIP3    H111496   2.130   1.508   4.794
 3830TIP3    H211497   2.240   1.504   4.898
 3831TIP3   OH211498   2.335   1.401   5.013
 3831TIP3    H111499   2.320   1.338   5.083
 3831TIP3    H211500   2.385   1.471   5.053
 3832TIP3   OH211501   4.074   1.805   4.820
 3832TIP3    H111502   4.093   1.839   4.908
 3832TIP3    H211503   4.128   1.858   4.762
 3833TIP3   OH211504   4.092   1.838   5.102
 3833TIP3    H111505   4.043   1.755   5.094
 3833TIP3    H211506   4.161   1.819   5.166
 3834TIP3   OH211507   6.332   4.597   0.325
 3834TIP3    H111508   6.253   4.588   0.378
 3834TIP3    H211509   6.366   4.684   0.348
 3835TIP3   OH211510   3.961   1.046   4.280
 3835TIP3    H111511   4.022   1.114   4.252
 3835TIP3    H211512   4.000   1.010   4.360
 3836TIP3   OH211513   4.080   0.916   4.490
 3836TIP3    H111514   4.013   0.878   4.548
 3836TIP3    H211515   4.144   0.954   4.549
 3837TIP3   OH211516   4.138   1.305   4.919
 3837TIP3    H111517   4.189   1.234   4.878
 3837TIP3    H211518   4.137   1.374   4.853
 3838TIP3   OH211519   3.954   1.594   5.112
 3838TIP3    H111520   3.885   1.637   5.163
 3838TIP3    H211521   3.907   1.551   5.041
 3839TIP3   OH211522   4.010   0.818   4.137
 3839TIP3    H111523   3.940   0.814   4.072
 3839TIP3    H211524   3.991   0.895   4.189
 3840TIP3   OH211525   3.912   0.491   4.054
 3840TIP3    H111526   3.859   0.515   3.978
 3840TIP3    H211527   3.855   0.435   4.107
 3841TIP3   OH211528   3.888   0.780   4.633
 3841TIP3    H111529   3.897   0.686   4.616
 3841TIP3    H211530   3.870   0.786   4.727
 3842TIP3   OH211531   4.678   3.906   0.062
 3842TIP3    H111532   4.667   3.866  -0.024
 3842TIP3    H211533   4.772   3.906   0.076
 3843TIP3   OH211534   6.333   4.257   0.172
 3843TIP3    H111535   6.401   4.192   0.152
 3843TIP3    H211536   6.332   4.315   0.096
 3844TIP3   OH211537   0.011   4.051   0.170
 3844TIP3    H111538  -0.063   4.012   0.216
 3844TIP3    H211539   0.082   3.989   0.183
 3845TIP3   OH211540   3.752   0.329   4.199
 3845TIP3    H111541   3.754   0.295   4.288
 3845TIP3    H211542   3.771   0.253   4.144
 3846TIP3   OH211543   3.897   0.520   4.520
 3846TIP3    H111544   3.864   0.434   4.495
 3846TIP3    H211545   3.953   0.547   4.447
 3847TIP3   OH211546   4.045   0.664   5.041
 3847TIP3    H111547   4.127   0.692   5.000
 3847TIP3    H211548   4.048   0.702   5.129
 3848TIP3   OH211549   4.105   0.817   5.263
 3848TIP3    H111550   4.026   0.847   5.309
 3848TIP3    H211551   4.137   0.896   5.219
 3849TIP3   OH211552   4.880   3.284   0.064
 3849TIP3    H111553   4.946   3.227   0.024
 3849TIP3    H211554   4.919   3.371   0.062
 3850TIP3   OH211555   4.655   3.555   0.122
 3850TIP3    H111556   4.718   3.570   0.050
 3850TIP3    H211557   4.671   3.627   0.183
 3851TIP3   OH211558   3.640   1.705   4.464
 3851TIP3    H111559   3.695   1.696   4.386
 3851TIP3    H211560   3.682   1.775   4.515
 3852TIP3   OH211561   4.946   4.680   0.491
 3852TIP3    H111562   4.874   4.618   0.474
 3852TIP3    H211563   4.984   4.650   0.573
 3853TIP3   OH211564   5.105   4.613   0.073
 3853TIP3    H111565   5.050   4.686   0.045
 3853TIP3    H211566   5.189   4.628   0.029
 3854TIP3   OH211567   5.516   4.846   0.227
 3854TIP3    H111568   5.557   4.838   0.313
 3854TIP3    H211569   5.578   4.898   0.175
 3855TIP3   OH211570   5.701   5.001   0.094
 3855TIP3    H111571   5.762   4.947   0.044
 3855TIP3    H211572   5.756   5.055   0.150
 3856TIP3   OH211573   4.757   4.850   0.120
 3856TIP3    H111574   4.668   4.881   0.101
 3856TIP3    H211575   4.787   4.907   0.191
 3857TIP3   OH211576   2.827   1.781   5.286
 3857TIP3    H111577   2.742   1.783   5.330
 3857TIP3    H211578   2.808   1.808   5.196
 3858TIP3   OH211579   3.252   1.799   5.078
 3858TIP3    H111580   3.181   1.810   5.016
 3858TIP3    H211581   3.263   1.885   5.119
 3859TIP3   OH211582   3.517   1.739   5.136
 3859TIP3    H111583   3.425   1.754   5.114
 3859TIP3    H211584   3.565   1.804   5.085
 3860TIP3   OH211585   3.721   1.917   5.038
 3860TIP3    H111586   3.713   2.003   4.996
 3860TIP3    H211587   3.750   1.859   4.968
 3861TIP3   OH211588   2.511   1.581   5.154
 3861TIP3    H111589   2.535   1.557   5.244
 3861TIP3    H211590   2.583   1.546   5.101
 3862TIP3   OH211591   2.712   1.460   5.019
 3862TIP3    H111592   2.723   1.378   5.067
 3862TIP3    H211593   2.799   1.500   5.021
 3863TIP3   OH211594   2.980   1.546   5.039
 3863TIP3    H111595   2.998   1.453   5.025
 3863TIP3    H211596   3.033   1.570   5.115
 3864TIP3   OH211597   2.283   1.368   4.544
 3864TIP3    H111598   2.199   1.335   4.513
 3864TIP3    H211599   2.285   1.459   4.515
 3865TIP3   OH211600   3.075   1.526   4.137
 3865TIP3    H111601   3.159   1.555   4.101
 3865TIP3    H211602   3.048   1.454   4.081
 3866TIP3   OH211603   3.788   1.666   4.231
 3866TIP3    H111604   3.780   1.571   4.223
 3866TIP3    H211605   3.742   1.700   4.154
 3867TIP3   OH211606   2.374   1.367   4.194
 3867TIP3    H111607   2.378   1.386   4.288
 3867TIP3    H211608   2.457   1.324   4.175
 3868TIP3   OH211609   6.170   4.870   0.114
 3868TIP3    H111610   6.095   4.839   0.064
 3868TIP3    H211611   6.155   4.964   0.123
 3869TIP3   OH211612   5.277   1.189   4.170
 3869TIP3    H111613   5.247   1.277   4.147
 3869TIP3    H211614   5.203   1.132   4.149
 3870TIP3   OH211615   5.264   1.203   4.560
 3870TIP3    H111616   5.319   1.187   4.637
 3870TIP3    H211617   5.226   1.118   4.540
 3871TIP3   OH211618   4.572   1.069   4.929
 3871TIP3    H111619   4.607   1.014   5.000
 3871TIP3    H211620   4.650   1.099   4.882
 3872TIP3   OH211621   5.537   1.487   4.259
 3872TIP3    H111622   5.523   1.423   4.328
 3872TIP3    H211623   5.558   1.568   4.306
 3873TIP3   OH211624   4.562   1.483   4.644
 3873TIP3    H111625   4.545   1.389   4.645
 3873TIP3    H211626   4.657   1.490   4.629
 3874TIP3   OH211627   4.241   0.698   4.423
 3874TIP3    H111628   4.205   0.784   4.444
 3874TIP3    H211629   4.167   0.648   4.389
 3875TIP3   OH211630   4.311   1.002   4.614
 3875TIP3    H111631   4.372   0.934   4.643
 3875TIP3    H211632   4.367   1.069   4.574
 3876TIP3   OH211633   5.187   1.935   4.270
 3876TIP3    H111634   5.219   1.865   4.212
 3876TIP3    H211635   5.176   1.892   4.355
 3877TIP3   OH211636   5.077   1.412   4.600
 3877TIP3    H111637   5.117   1.333   4.564
 3877TIP3    H211638   5.151   1.464   4.631
 3878TIP3   OH211639   6.081   0.721   4.607
 3878TIP3    H111640   6.110   0.798   4.656
 3878TIP3    H211641   6.158   0.664   4.604
 3879TIP3   OH211642   5.488   0.878   4.644
 3879TIP3    H111643   5.543   0.803   4.621
 3879TIP3    H211644   5.439   0.897   4.564
 3880TIP3   OH211645   4.845   0.604   4.555
 3880TIP3    H111646   4.788   0.671   4.517
 3880TIP3    H211647   4.786   0.547   4.604
 3881TIP3   OH211648   5.519   0.688   4.193
 3881TIP3    H111649   5.610   0.669   4.213
 3881TIP3    H211650   5.522   0.765   4.136
 3882TIP3   OH211651   4.494   0.823   4.700
 3882TIP3    H111652   4.565   0.803   4.761
 3882TIP3    H211653   4.496   0.752   4.636
 3883TIP3   OH211654   4.888   0.974   4.531
 3883TIP3    H111655   4.983   0.963   4.530
 3883TIP3    H211656   4.854   0.894   4.490
 3884TIP3   OH211657   6.148   0.953   4.746
 3884TIP3    H111658   6.065   1.000   4.738
 3884TIP3    H211659   6.150   0.921   4.836
 3885TIP3   OH211660   4.774   0.530   5.064
 3885TIP3    H111661   4.718   0.544   4.988
 3885TIP3    H211662   4.727   0.570   5.137
 3886TIP3   OH211663   5.171   1.406   4.033
 3886TIP3    H111664   5.129   1.382   3.950
 3886TIP3    H211665   5.120   1.481   4.064
 3887TIP3   OH211666   4.928   1.337   4.819
 3887TIP3    H111667   4.871   1.405   4.854
 3887TIP3    H211668   4.973   1.379   4.746
 3888TIP3   OH211669   5.733   0.705   4.495
 3888TIP3    H111670   5.773   0.655   4.566
 3888TIP3    H211671   5.776   0.791   4.499
 3889TIP3   OH211672   4.698   0.698   4.831
 3889TIP3    H111673   4.764   0.764   4.851
 3889TIP3    H211674   4.747   0.630   4.783
 3890TIP3   OH211675   4.761   1.531   4.925
 3890TIP3    H111676   4.741   1.617   4.889
 3890TIP3    H211677   4.685   1.507   4.978
 3891TIP3   OH211678   4.143   1.227   4.168
 3891TIP3    H111679   4.104   1.246   4.083
 3891TIP3    H211680   4.168   1.313   4.203
 3892TIP3   OH211681   5.577   1.730   4.400
 3892TIP3    H111682   5.492   1.722   4.443
 3892TIP3    H211683   5.575   1.815   4.357
 3893TIP3   OH211684   5.285   1.768   4.067
 3893TIP3    H111685   5.336   1.688   4.055
 3893TIP3    H211686   5.342   1.838   4.035
 3894TIP3   OH211687   5.432   1.545   4.010
 3894TIP3    H111688   5.369   1.474   3.995
 3894TIP3    H211689   5.478   1.520   4.090
 3895TIP3   OH211690   5.802   1.634   4.747
 3895TIP3    H111691   5.792   1.558   4.689
 3895TIP3    H211692   5.790   1.710   4.689
 3896TIP3   OH211693   5.099   1.032   4.018
 3896TIP3    H111694   5.018   1.080   4.002
 3896TIP3    H211695   5.146   1.036   3.935
 3897TIP3   OH211696   5.066   0.837   3.729
 3897TIP3    H111697   5.131   0.894   3.769
 3897TIP3    H211698   5.117   0.763   3.694
 3898TIP3   OH211699   6.002   1.293   4.595
 3898TIP3    H111700   5.918   1.340   4.598
 3898TIP3    H211701   6.037   1.312   4.508
 3899TIP3   OH211702   5.458   1.118   3.981
 3899TIP3    H111703   5.402   1.145   4.054
 3899TIP3    H211704   5.543   1.100   4.021
 3900TIP3   OH211705   5.679   1.174   4.876
 3900TIP3    H111706   5.672   1.253   4.930
 3900TIP3    H211707   5.599   1.175   4.823
 3901TIP3   OH211708   4.684   1.106   4.391
 3901TIP3    H111709   4.644   1.044   4.330
 3901TIP3    H211710   4.755   1.056   4.432
 3902TIP3   OH211711   4.821   1.523   4.532
 3902TIP3    H111712   4.799   1.502   4.442
 3902TIP3    H211713   4.909   1.485   4.545
 3903TIP3   OH211714   4.792   1.109   4.753
 3903TIP3    H111715   4.829   1.073   4.672
 3903TIP3    H211716   4.844   1.187   4.771
 3904TIP3   OH211717   5.346   1.725   4.540
 3904TIP3    H111718   5.332   1.804   4.593
 3904TIP3    H211719   5.331   1.653   4.601
 3905TIP3   OH211720   4.957   1.643   5.083
 3905TIP3    H111721   4.896   1.700   5.130
 3905TIP3    H211722   4.902   1.588   5.028
 3906TIP3   OH211723   5.280   1.000   3.807
 3906TIP3    H111724   5.342   1.054   3.856
 3906TIP3    H211725   5.309   1.007   3.716
 3907TIP3   OH211726   4.712   1.190   5.208
 3907TIP3    H111727   4.718   1.280   5.238
 3907TIP3    H211728   4.619   1.170   5.209
 3908TIP3   OH211729   5.038   1.647   4.080
 3908TIP3    H111730   5.120   1.696   4.083
 3908TIP3    H211731   4.977   1.706   4.034
 3909TIP3   OH211732   4.748   1.810   5.170
 3909TIP3    H111733   4.718   1.803   5.079
 3909TIP3    H211734   4.671   1.786   5.222
 3910TIP3   OH211735   4.554   0.943   4.196
 3910TIP3    H111736   4.480   0.991   4.158
 3910TIP3    H211737   4.529   0.851   4.190
 3911TIP3   OH211738   5.605   1.583   3.417
 3911TIP3    H111739   5.611   1.677   3.400
 3911TIP3    H211740   5.694   1.550   3.402
 3912TIP3   OH211741   4.341   1.343   5.111
 3912TIP3    H111742   4.270   1.326   5.049
 3912TIP3    H211743   4.374   1.255   5.133
 3913TIP3   OH211744   4.188   1.533   4.753
 3913TIP3    H111745   4.283   1.543   4.756
 3913TIP3    H211746   4.154   1.610   4.797
 3914TIP3   OH211747   6.031   2.035   4.788
 3914TIP3    H111748   6.108   1.991   4.823
 3914TIP3    H211749   5.964   2.023   4.855
 3915TIP3   OH211750   5.147   1.785   4.945
 3915TIP3    H111751   5.137   1.873   4.981
 3915TIP3    H211752   5.082   1.732   4.992
 3916TIP3   OH211753   4.929   1.885   3.895
 3916TIP3    H111754   4.879   1.864   3.816
 3916TIP3    H211755   4.893   1.968   3.925
 3917TIP3   OH211756   4.363   1.731   4.276
 3917TIP3    H111757   4.406   1.724   4.361
 3917TIP3    H211758   4.312   1.650   4.268
 3918TIP3   OH211759   5.130   1.802   3.525
 3918TIP3    H111760   5.181   1.729   3.490
 3918TIP3    H211761   5.163   1.814   3.614
 3919TIP3   OH211762   5.181   1.848   3.795
 3919TIP3    H111763   5.095   1.855   3.836
 3919TIP3    H211764   5.237   1.812   3.863
 3920TIP3   OH211765   5.891   1.113   5.062
 3920TIP3    H111766   5.815   1.135   5.008
 3920TIP3    H211767   5.919   1.027   5.031
 3921TIP3   OH211768   4.545   1.526   5.095
 3921TIP3    H111769   4.594   1.511   5.176
 3921TIP3    H211770   4.472   1.464   5.098
 3922TIP3   OH211771   5.707   0.909   4.939
 3922TIP3    H111772   5.663   0.896   5.023
 3922TIP3    H211773   5.684   0.999   4.914
 3923TIP3   OH211774   5.373   0.990   3.553
 3923TIP3    H111775   5.335   0.978   3.466
 3923TIP3    H211776   5.458   1.031   3.536
 3924TIP3   OH211777   4.869   0.895   4.903
 3924TIP3    H111778   4.821   0.906   4.985
 3924TIP3    H211779   4.848   0.973   4.852
 3925TIP3   OH211780   4.725   0.786   4.401
 3925TIP3    H111781   4.631   0.768   4.395
 3925TIP3    H211782   4.758   0.764   4.314
 3926TIP3   OH211783   5.254   0.851   4.150
 3926TIP3    H111784   5.192   0.913   4.113
 3926TIP3    H211785   5.300   0.815   4.074
 3927TIP3   OH211786   5.415   1.134   5.243
 3927TIP3    H111787   5.400   1.057   5.298
 3927TIP3    H211788   5.497   1.170   5.276
 3928TIP3   OH211789   5.407   0.894   4.380
 3928TIP3    H111790   5.343   0.911   4.310
 3928TIP3    H211791   5.418   0.798   4.379
 3929TIP3   OH211792   4.703   0.911   5.119
 3929TIP3    H111793   4.710   0.981   5.184
 3929TIP3    H211794   4.688   0.832   5.170
 3930TIP3   OH211795   4.783   0.520   3.840
 3930TIP3    H111796   4.789   0.439   3.891
 3930TIP3    H211797   4.689   0.539   3.837
 3931TIP3   OH211798   4.212   0.386   4.587
 3931TIP3    H111799   4.217   0.463   4.643
 3931TIP3    H211800   4.296   0.341   4.600
 3932TIP3   OH211801   4.320   0.448   4.232
 3932TIP3    H111802   4.305   0.470   4.140
 3932TIP3    H211803   4.287   0.523   4.281
 3933TIP3   OH211804   5.438   1.124   4.755
 3933TIP3    H111805   5.457   1.040   4.713
 3933TIP3    H211806   5.403   1.101   4.841
 3934TIP3   OH211807   5.100   0.689   4.513
 3934TIP3    H111808   5.015   0.660   4.544
 3934TIP3    H211809   5.161   0.622   4.545
 3935TIP3   OH211810   4.475   0.614   4.525
 3935TIP3    H111811   4.393   0.647   4.488
 3935TIP3    H211812   4.523   0.579   4.450
 3936TIP3   OH211813   4.796   0.670   4.159
 3936TIP3    H111814   4.891   0.683   4.157
 3936TIP3    H211815   4.766   0.695   4.072
 3937TIP3   OH211816   4.615   0.726   3.956
 3937TIP3    H111817   4.546   0.679   3.909
 3937TIP3    H211818   4.679   0.748   3.888
 3938TIP3   OH211819   5.756   2.341   4.911
 3938TIP3    H111820   5.755   2.361   4.818
 3938TIP3    H211821   5.837   2.381   4.944
 3939TIP3   OH211822   0.369   4.510   0.017
 3939TIP3    H111823   0.449   4.529   0.066
 3939TIP3    H211824   0.300   4.509   0.083
 3940TIP3   OH211825   5.166   0.946   4.569
 3940TIP3    H111826   5.164   0.861   4.524
 3940TIP3    H211827   5.161   0.923   4.662
 3941TIP3   OH211828   5.125   0.849   4.817
 3941TIP3    H111829   5.033   0.867   4.836
 3941TIP3    H211830   5.168   0.848   4.903
 3942TIP3   OH211831   4.872   1.181   3.965
 3942TIP3    H111832   4.797   1.125   3.946
 3942TIP3    H211833   4.853   1.218   4.051
 3943TIP3   OH211834   5.761   1.422   4.572
 3943TIP3    H111835   5.790   1.474   4.497
 3943TIP3    H211836   5.678   1.384   4.544
 3944TIP3   OH211837   5.244   0.565   3.781
 3944TIP3    H111838   5.283   0.478   3.790
 3944TIP3    H211839   5.311   0.625   3.814
 3945TIP3   OH211840   5.275   1.503   4.980
 3945TIP3    H111841   5.326   1.488   5.059
 3945TIP3    H211842   5.240   1.592   4.990
 3946TIP3   OH211843   5.407   0.787   3.924
 3946TIP3    H111844   5.499   0.812   3.921
 3946TIP3    H211845   5.361   0.856   3.877
 3947TIP3   OH211846   4.558   1.202   4.618
 3947TIP3    H111847   4.595   1.179   4.533
 3947TIP3    H211848   4.617   1.163   4.682
 3948TIP3   OH211849   5.023   1.335   3.798
 3948TIP3    H111850   4.976   1.418   3.799
 3948TIP3    H211851   4.969   1.277   3.853
 3949TIP3   OH211852   4.448   1.118   5.248
 3949TIP3    H111853   4.451   1.100   5.342
 3949TIP3    H211854   4.372   1.069   5.217
 3950TIP3   OH211855   5.168   1.265   5.270
 3950TIP3    H111856   5.102   1.207   5.234
 3950TIP3    H211857   5.251   1.228   5.241
 3951TIP3   OH211858   5.416   1.783   4.860
 3951TIP3    H111859   5.321   1.777   4.870
 3951TIP3    H211860   5.446   1.829   4.939
 3952TIP3   OH211861   5.849   0.848   3.768
 3952TIP3    H111862   5.811   0.797   3.697
 3952TIP3    H211863   5.850   0.938   3.736
 3953TIP3   OH211864   6.062   1.658   4.836
 3953TIP3    H111865   5.967   1.674   4.839
 3953TIP3    H211866   6.087   1.677   4.746
 3954TIP3   OH211867   5.550   1.652   3.687
 3954TIP3    H111868   5.521   1.584   3.748
 3954TIP3    H211869   5.558   1.607   3.603
 3955TIP3   OH211870   5.526   1.300   4.476
 3955TIP3    H111871   5.434   1.278   4.492
 3955TIP3    H211872   5.564   1.220   4.440
 3956TIP3   OH211873   4.677   1.520   4.278
 3956TIP3    H111874   4.675   1.598   4.222
 3956TIP3    H211875   4.585   1.503   4.297
 3957TIP3   OH211876   4.238   0.811   3.984
 3957TIP3    H111877   4.284   0.893   4.003
 3957TIP3    H211878   4.160   0.813   4.039
 3958TIP3   OH211879   4.789   1.280   4.201
 3958TIP3    H111880   4.762   1.368   4.225
 3958TIP3    H211881   4.755   1.225   4.272
 3959TIP3   OH211882   4.958   1.848   4.736
 3959TIP3    H111883   4.994   1.918   4.682
 3959TIP3    H211884   5.033   1.813   4.784
 3960TIP3   OH211885   4.594   1.749   4.126
 3960TIP3    H111886   4.508   1.753   4.167
 3960TIP3    H211887   4.627   1.838   4.129
 3961TIP3   OH211888   5.319   1.501   4.706
 3961TIP3    H111889   5.308   1.496   4.801
 3961TIP3    H211890   5.398   1.448   4.689
 3962TIP3   OH211891   5.304   1.387   3.582
 3962TIP3    H111892   5.359   1.363   3.657
 3962TIP3    H211893   5.217   1.354   3.605
 3963TIP3   OH211894   5.572   2.010   4.742
 3963TIP3    H111895   5.496   1.953   4.750
 3963TIP3    H211896   5.550   2.072   4.673
 3964TIP3   OH211897   5.633   1.857   3.390
 3964TIP3    H111898   5.664   1.924   3.328
 3964TIP3    H211899   5.557   1.897   3.433
 3965TIP3   OH211900   4.657   0.674   5.265
 3965TIP3    H111901   4.563   0.669   5.280
 3965TIP3    H211902   4.696   0.658   5.351
 3966TIP3   OH211903   5.475   1.310   3.780
 3966TIP3    H111904   5.463   1.251   3.855
 3966TIP3    H211905   5.570   1.316   3.770
 3967TIP3   OH211906   4.389   1.717   4.890
 3967TIP3    H111907   4.439   1.650   4.936
 3967TIP3    H211908   4.404   1.797   4.941
 3968TIP3   OH211909   4.665   1.358   3.585
 3968TIP3    H111910   4.676   1.267   3.559
 3968TIP3    H211911   4.645   1.355   3.678
 3969TIP3   OH211912   4.606   1.370   3.855
 3969TIP3    H111913   4.674   1.339   3.916
 3969TIP3    H211914   4.607   1.465   3.864
 3970TIP3   OH211915   4.340   1.061   4.064
 3970TIP3    H111916   4.275   1.105   4.118
 3970TIP3    H211917   4.359   1.122   3.994
 3971TIP3   OH211918   6.417   0.782   3.648
 3971TIP3    H111919   6.430   0.871   3.680
 3971TIP3    H211920   6.359   0.741   3.713
 3972TIP3   OH211921   5.298   0.547   4.147
 3972TIP3    H111922   5.319   0.496   4.069
 3972TIP3    H211923   5.374   0.602   4.161
 3973TIP3   OH211924   4.879   1.564   3.801
 3973TIP3    H111925   4.793   1.584   3.838
 3973TIP3    H211926   4.899   1.638   3.744
 3974TIP3   OH211927   5.053   0.688   4.246
 3974TIP3    H111928   5.132   0.720   4.202
 3974TIP3    H211929   5.075   0.689   4.339
 3975TIP3   OH211930   5.357   1.045   4.995
 3975TIP3    H111931   5.383   1.084   5.079
 3975TIP3    H211932   5.314   0.963   5.020
 3976TIP3   OH211933   4.625   1.641   3.875
 3976TIP3    H111934   4.601   1.710   3.813
 3976TIP3    H211935   4.611   1.681   3.961
 3977TIP3   OH211936   4.685   0.395   4.134
 3977TIP3    H111937   4.756   0.457   4.150
 3977TIP3    H211938   4.711   0.316   4.182
 3978TIP3   OH211939   5.977   0.872   4.951
 3978TIP3    H111940   5.885   0.877   4.923
 3978TIP3    H211941   5.988   0.782   4.980
 3979TIP3   OH211942   5.625   1.057   4.384
 3979TIP3    H111943   5.548   1.000   4.391
 3979TIP3    H211944   5.692   1.012   4.436
 3980TIP3   OH211945   4.353   1.249   3.855
 3980TIP3    H111946   4.423   1.314   3.864
 3980TIP3    H211947   4.387   1.186   3.790
 3981TIP3   OH211948   4.263   0.533   3.978
 3981TIP3    H111949   4.268   0.628   3.982
 3981TIP3    H211950   4.177   0.515   3.940
 3982TIP3   OH211951   5.595   1.998   4.325
 3982TIP3    H111952   5.553   2.048   4.255
 3982TIP3    H211953   5.689   2.012   4.311
 3983TIP3   OH211954   4.197   1.498   4.248
 3983TIP3    H111955   4.146   1.530   4.322
 3983TIP3    H211956   4.158   1.541   4.171
 3984TIP3   OH211957   0.047   5.100  -0.001
 3984TIP3    H111958   0.127   5.106   0.051
 3984TIP3    H211959   0.024   5.007   0.002
 3985TIP3   OH211960   4.922   1.999   5.267
 3985TIP3    H111961   4.982   1.938   5.309
 3985TIP3    H211962   4.851   1.944   5.235
 3986TIP3   OH211963   4.825   1.556   3.480
 3986TIP3    H111964   4.775   1.487   3.524
 3986TIP3    H211965   4.900   1.511   3.442
 3987TIP3   OH211966   5.471   1.905   5.098
 3987TIP3    H111967   5.468   1.831   5.159
 3987TIP3    H211968   5.551   1.952   5.121
 3988TIP3   OH211969   5.263   1.594   3.405
 3988TIP3    H111970   5.295   1.529   3.468
 3988TIP3    H211971   5.325   1.589   3.332
 3989TIP3   OH211972   0.165   4.502   0.204
 3989TIP3    H111973   0.179   4.408   0.215
 3989TIP3    H211974   0.079   4.509   0.162
 3990TIP3   OH211975   4.484   1.058   3.710
 3990TIP3    H111976   4.535   1.040   3.789
 3990TIP3    H211977   4.550   1.072   3.642
 3991TIP3   OH211978   5.109   1.535   5.286
 3991TIP3    H111979   5.065   1.556   5.204
 3991TIP3    H211980   5.141   1.446   5.275
 3992TIP3   OH211981   5.021   1.278   3.529
 3992TIP3    H111982   5.010   1.292   3.623
 3992TIP3    H211983   5.014   1.183   3.518
 3993TIP3   OH211984   5.579   1.558   4.885
 3993TIP3    H111985   5.657   1.591   4.841
 3993TIP3    H211986   5.514   1.627   4.873
 3994TIP3   OH211987   0.290   4.244   0.201
 3994TIP3    H111988   0.369   4.216   0.155
 3994TIP3    H211989   0.318   4.263   0.290
 3995TIP3   OH211990   4.661   1.012   3.923
 3995TIP3    H111991   4.633   0.969   4.004
 3995TIP3    H211992   4.708   0.944   3.874
 3996TIP3   OH211993   4.970   1.096   5.178
 3996TIP3    H111994   4.881   1.132   5.179
 3996TIP3    H211995   5.000   1.109   5.088
 3997TIP3   OH211996   4.792   0.826   3.769
 3997TIP3    H111997   4.764   0.823   3.677
 3997TIP3    H211998   4.887   0.821   3.765
 3998TIP3   OH211999   5.457   1.455   5.250
 3998TIP3    H112000   5.543   1.437   5.212
 3998TIP3    H212001   5.453   1.399   5.328
 3999TIP3   OH212002   5.600   1.101   3.442
 3999TIP3    H112003   5.587   1.058   3.357
 3999TIP3    H212004   5.572   1.191   3.428
 4000TIP3   OH212005   5.063   0.872   5.294
 4000TIP3    H112006   5.033   0.806   5.231
 4000TIP3    H212007   5.040   0.956   5.253
 4001TIP3   OH212008   4.967   0.718   5.093
 4001TIP3    H112009   4.961   0.768   5.011
 4001TIP3    H212010   4.906   0.645   5.081
 4002TIP3   OH212011   5.088   1.155   4.946
 4002TIP3    H112012   5.181   1.165   4.927
 4002TIP3    H212013   5.046   1.227   4.899
 4003TIP3   OH212014   5.709   1.390   5.048
 4003TIP3    H112015   5.656   1.451   4.996
 4003TIP3    H212016   5.796   1.395   5.008
 4004TIP3   OH212017   0.590   4.057   0.192
 4004TIP3    H112018   0.524   3.990   0.210
 4004TIP3    H212019   0.641   4.022   0.120
 4005TIP3   OH212020   1.008   3.958   0.049
 4005TIP3    H112021   0.978   3.956   0.140
 4005TIP3    H212022   0.929   3.943  -0.003
 4006TIP3   OH212023   5.550   0.846   5.159
 4006TIP3    H112024   5.469   0.862   5.206
 4006TIP3    H212025   5.611   0.815   5.225
 4007TIP3   OH212026   0.437   3.834   0.269
 4007TIP3    H112027   0.493   3.762   0.299
 4007TIP3    H212028   0.426   3.890   0.345
 4008TIP3   OH212029   4.611   1.845   3.686
 4008TIP3    H112030   4.702   1.830   3.661
 4008TIP3    H212031   4.574   1.894   3.614
 4009TIP3   OH212032   4.080   1.229   3.881
 4009TIP3    H112033   4.175   1.245   3.874
 4009TIP3    H212034   4.068   1.143   3.841
 4010TIP3   OH212035   3.993   1.822   4.323
 4010TIP3    H112036   3.928   1.768   4.279
 4010TIP3    H212037   4.037   1.762   4.384
 4011TIP3   OH212038   4.131   1.659   4.500
 4011TIP3    H112039   4.119   1.592   4.566
 4011TIP3    H212040   4.181   1.728   4.544
 4012TIP3   OH212041   5.857   2.064   4.301
 4012TIP3    H112042   5.872   2.092   4.391
 4012TIP3    H212043   5.905   2.128   4.248
 4013TIP3   OH212044   5.872   2.094   4.573
 4013TIP3    H112045   5.831   2.007   4.573
 4013TIP3    H212046   5.937   2.090   4.643
 4014TIP3   OH212047   5.910   1.807   5.140
 4014TIP3    H112048   5.847   1.819   5.211
 4014TIP3    H212049   5.949   1.893   5.127
 4015TIP3   OH212050   5.750   1.306   3.768
 4015TIP3    H112051   5.811   1.374   3.739
 4015TIP3    H212052   5.793   1.266   3.844
 4016TIP3   OH212053   5.874   1.173   3.970
 4016TIP3    H112054   5.808   1.136   4.029
 4016TIP3    H212055   5.941   1.209   4.029
 4017TIP3   OH212056   5.948   1.565   4.412
 4017TIP3    H112057   5.994   1.496   4.364
 4017TIP3    H212058   5.941   1.637   4.350
 4018TIP3   OH212059   5.742   1.849   4.590
 4018TIP3    H112060   5.678   1.894   4.644
 4018TIP3    H212061   5.691   1.807   4.521
 4019TIP3   OH212062   5.809   1.081   3.622
 4019TIP3    H112063   5.737   1.070   3.560
 4019TIP3    H212064   5.786   1.159   3.672
 4020TIP3   OH212065   5.677   0.763   3.567
 4020TIP3    H112066   5.644   0.772   3.478
 4020TIP3    H212067   5.620   0.698   3.607
 4021TIP3   OH212068   5.687   1.041   4.117
 4021TIP3    H112069   5.689   0.947   4.099
 4021TIP3    H212070   5.668   1.047   4.211
 4022TIP3   OH212071   4.306   1.087   4.876
 4022TIP3    H112072   4.296   1.058   4.785
 4022TIP3    H212073   4.401   1.090   4.890
 4023TIP3   OH212074   5.961   1.412   4.936
 4023TIP3    H112075   6.029   1.355   4.971
 4023TIP3    H212076   6.008   1.474   4.880
 4024TIP3   OH212077   5.514   0.575   3.670
 4024TIP3    H112078   5.528   0.547   3.760
 4024TIP3    H212079   5.554   0.506   3.616
 4025TIP3   OH212080   5.679   0.795   3.976
 4025TIP3    H112081   5.727   0.724   4.018
 4025TIP3    H212082   5.732   0.819   3.900
 4026TIP3   OH212083   5.845   0.948   4.508
 4026TIP3    H112084   5.927   0.966   4.461
 4026TIP3    H212085   5.860   0.984   4.596
 4027TIP3   OH212086   5.902   1.085   4.734
 4027TIP3    H112087   5.826   1.115   4.784
 4027TIP3    H212088   5.938   1.164   4.694
 4028TIP3   OH212089   0.165   3.827   0.211
 4028TIP3    H112090   0.259   3.832   0.228
 4028TIP3    H212091   0.129   3.779   0.286
 4029TIP3   OH212092   4.510   0.515   4.901
 4029TIP3    H112093   4.557   0.447   4.853
 4029TIP3    H212094   4.560   0.595   4.884
 4030TIP3   OH212095   4.285   0.765   4.955
 4030TIP3    H112096   4.292   0.721   4.870
 4030TIP3    H212097   4.341   0.842   4.948
 4031TIP3   OH212098   5.433   1.959   3.951
 4031TIP3    H112099   5.488   1.947   3.873
 4031TIP3    H212100   5.483   2.021   4.005
 4032TIP3   OH212101   0.198   4.827   0.037
 4032TIP3    H112102   0.107   4.809   0.018
 4032TIP3    H212103   0.210   4.797   0.127
 4033TIP3   OH212104   4.729   1.805   4.886
 4033TIP3    H112105   4.677   1.879   4.854
 4033TIP3    H212106   4.813   1.813   4.841
 4034TIP3   OH212107   5.122   2.096   5.072
 4034TIP3    H112108   5.182   2.050   5.131
 4034TIP3    H212109   5.177   2.123   4.999
 4035TIP3   OH212110   5.318   2.191   4.898
 4035TIP3    H112111   5.376   2.138   4.843
 4035TIP3    H212112   5.376   2.250   4.946
 4036TIP3   OH212113   4.387   2.039   4.925
 4036TIP3    H112114   4.302   2.066   4.890
 4036TIP3    H212115   4.390   2.077   5.013
 4037TIP3   OH212116   4.627   2.041   4.785
 4037TIP3    H112117   4.540   2.044   4.826
 4037TIP3    H212118   4.611   2.067   4.694
 4038TIP3   OH212119   5.044   2.050   4.566
 4038TIP3    H112120   4.974   2.065   4.502
 4038TIP3    H212121   5.057   2.134   4.608
 4039TIP3   OH212122   5.309   1.991   4.627
 4039TIP3    H112123   5.218   2.008   4.601
 4039TIP3    H212124   5.360   2.056   4.579
 4040TIP3   OH212125   5.504   2.167   4.526
 4040TIP3    H112126   5.498   2.257   4.493
 4040TIP3    H212127   5.538   2.117   4.452
 4041TIP3   OH212128   4.306   1.834   4.649
 4041TIP3    H112129   4.328   1.803   4.737
 4041TIP3    H212130   4.377   1.800   4.594
 4042TIP3   OH212131   4.507   1.715   4.510
 4042TIP3    H112132   4.518   1.633   4.558
 4042TIP3    H212133   4.594   1.755   4.510
 4043TIP3   OH212134   4.776   1.801   4.526
 4043TIP3    H112135   4.795   1.708   4.512
 4043TIP3    H212136   4.827   1.825   4.604
 4044TIP3   OH212137   4.084   1.625   4.034
 4044TIP3    H112138   3.999   1.590   4.008
 4044TIP3    H212139   4.083   1.715   4.003
 4045TIP3   OH212140   4.872   1.783   3.624
 4045TIP3    H112141   4.956   1.812   3.588
 4045TIP3    H212142   4.845   1.711   3.568
 4046TIP3   OH212143   5.583   1.920   3.721
 4046TIP3    H112144   5.576   1.824   3.713
 4046TIP3    H212145   5.537   1.953   3.643
 4047TIP3   OH212146   4.172   1.626   3.681
 4047TIP3    H112147   4.174   1.642   3.775
 4047TIP3    H212148   4.255   1.583   3.662
 4048TIP3   OH212149   5.781   2.064   4.917
 4048TIP3    H112150   5.713   2.035   4.857
 4048TIP3    H212151   5.776   2.160   4.914
 4049TIP3   OH212152   6.400   1.375   4.385
 4049TIP3    H112153   6.387   1.330   4.469
 4049TIP3    H212154   6.468   1.440   4.402
 4050TIP3   OH212155   6.349   1.736   4.138
 4050TIP3    H112156   6.288   1.665   4.123
 4050TIP3    H212157   6.434   1.702   4.108
 4051TIP3   OH212158   6.049   0.951   3.945
 4051TIP3    H112159   6.011   1.038   3.949
 4051TIP3    H212160   5.979   0.896   3.910
 4052TIP3   OH212161   6.105   1.236   4.103
 4052TIP3    H112162   6.160   1.161   4.124
 4052TIP3    H212163   6.166   1.305   4.078
 4053TIP3   OH212164   6.290   1.057   4.210
 4053TIP3    H112165   6.379   1.085   4.191
 4053TIP3    H212166   6.285   0.967   4.179
 4054TIP3   OH212167   6.420   1.754   4.584
 4054TIP3    H112168   6.427   1.828   4.524
 4054TIP3    H212169   6.341   1.708   4.556
 4055TIP3   OH212170   5.929   1.489   3.663
 4055TIP3    H112171   5.891   1.507   3.577
 4055TIP3    H212172   5.963   1.573   3.692
 4056TIP3   OH212173   6.489   2.188   4.693
 4056TIP3    H112174   6.480   2.170   4.599
 4056TIP3    H212175   6.432   2.125   4.736
 4057TIP3   OH212176   6.180   1.609   4.582
 4057TIP3    H112177   6.100   1.595   4.532
 4057TIP3    H212178   6.193   1.527   4.630
 4058TIP3   OH212179   5.986   1.794   4.244
 4058TIP3    H112180   6.080   1.814   4.250
 4058TIP3    H212181   5.943   1.868   4.285
 4059TIP3   OH212182   6.134   2.000   3.768
 4059TIP3    H112183   6.190   1.992   3.846
 4059TIP3    H212184   6.081   1.921   3.769
 4060TIP3   OH212185   6.023   0.643   4.099
 4060TIP3    H112186   6.032   0.664   4.192
 4060TIP3    H212187   6.083   0.570   4.085
 4061TIP3   OH212188   6.139   0.727   3.747
 4061TIP3    H112189   6.138   0.729   3.651
 4061TIP3    H212190   6.073   0.791   3.773
 4062TIP3   OH212191   6.330   0.896   3.906
 4062TIP3    H112192   6.242   0.931   3.901
 4062TIP3    H212193   6.321   0.816   3.957
 4063TIP3   OH212194   6.317   1.412   4.109
 4063TIP3    H112195   6.374   1.453   4.044
 4063TIP3    H212196   6.373   1.402   4.186
 4064TIP3   OH212197   6.225   1.374   4.731
 4064TIP3    H112198   6.247   1.334   4.816
 4064TIP3    H212199   6.148   1.327   4.701
 4065TIP3   OH212200   6.288   1.720   3.731
 4065TIP3    H112201   6.334   1.804   3.724
 4065TIP3    H212202   6.196   1.742   3.711
 4066TIP3   OH212203   6.033   1.075   3.465
 4066TIP3    H112204   6.071   1.162   3.480
 4066TIP3    H212205   5.955   1.074   3.521
 4067TIP3   OH212206   6.265   2.014   3.518
 4067TIP3    H112207   6.209   2.003   3.595
 4067TIP3    H212208   6.327   2.082   3.543
 4068TIP3   OH212209   6.161   1.998   4.370
 4068TIP3    H112210   6.250   1.967   4.384
 4068TIP3    H212211   6.148   2.066   4.436
 4069TIP3   OH212212   6.106   1.327   3.523
 4069TIP3    H112213   6.055   1.366   3.594
 4069TIP3    H212214   6.142   1.402   3.475
 4070TIP3   OH212215   6.108   1.556   3.337
 4070TIP3    H112216   6.114   1.651   3.336
 4070TIP3    H212217   6.190   1.527   3.295
 4071TIP3   OH212218   5.987   0.809   3.512
 4071TIP3    H112219   6.015   0.899   3.495
 4071TIP3    H212220   5.989   0.767   3.426
 4072TIP3   OH212221   5.998   1.758   3.734
 4072TIP3    H112222   5.939   1.776   3.807
 4072TIP3    H212223   5.955   1.796   3.658
 4073TIP3   OH212224   6.173   2.284   4.798
 4073TIP3    H112225   6.254   2.273   4.849
 4073TIP3    H212226   6.138   2.195   4.790
 4074TIP3   OH212227   0.166   2.228   4.892
 4074TIP3    H112228   0.191   2.321   4.886
 4074TIP3    H212229   0.102   2.216   4.823
 4075TIP3   OH212230   6.326   1.642   4.914
 4075TIP3    H112231   6.344   1.647   5.008
 4075TIP3    H212232   6.231   1.638   4.908
 4076TIP3   OH212233   5.854   1.476   3.375
 4076TIP3    H112234   5.946   1.499   3.366
 4076TIP3    H212235   5.847   1.388   3.337
 4077TIP3   OH212236   5.780   2.081   3.817
 4077TIP3    H112237   5.718   2.024   3.771
 4077TIP3    H212238   5.827   2.021   3.875
 4078TIP3   OH212239   5.920   1.917   3.990
 4078TIP3    H112240   5.913   1.850   4.058
 4078TIP3    H212241   5.966   1.990   4.032
 4079TIP3   OH212242   6.114   1.347   4.353
 4079TIP3    H112243   6.093   1.307   4.268
 4079TIP3    H212244   6.208   1.366   4.347
 4080TIP3   OH212245   6.376   0.720   4.418
 4080TIP3    H112246   6.427   0.697   4.340
 4080TIP3    H212247   6.320   0.792   4.389
 4081TIP3   OH212248   6.096   1.020   4.404
 4081TIP3    H112249   6.161   1.044   4.337
 4081TIP3    H212250   6.109   1.084   4.474
 4082TIP3   OH212251   6.439   1.971   4.385
 4082TIP3    H112252   6.413   2.048   4.335
 4082TIP3    H212253   6.532   1.983   4.402
 4083TIP3   OH212254   6.184   2.302   4.418
 4083TIP3    H112255   6.095   2.324   4.390
 4083TIP3    H212256   6.205   2.367   4.485
 4084TIP3   OH212257   6.379   2.210   4.254
 4084TIP3    H112258   6.306   2.243   4.306
 4084TIP3    H212259   6.365   2.245   4.167
 4085TIP3   OH212260   6.081   2.108   4.130
 4085TIP3    H112261   6.098   2.082   4.220
 4085TIP3    H212262   6.151   2.068   4.079
 4086TIP3   OH212263   6.273   1.969   4.007
 4086TIP3    H112264   6.297   1.886   4.048
 4086TIP3    H212265   6.356   2.011   3.987
 4087TIP3   OH212266   5.877   1.876   3.522
 4087TIP3    H112267   5.792   1.846   3.492
 4087TIP3    H212268   5.880   1.968   3.496
 4088TIP3   OH212269   5.937   1.893   3.186
 4088TIP3    H112270   5.932   1.923   3.277
 4088TIP3    H212271   6.015   1.839   3.183
 4089TIP3   OH212272   1.320   2.483   4.840
 4089TIP3    H112273   1.291   2.572   4.819
 4089TIP3    H212274   1.250   2.426   4.811
 4090TIP3   OH212275   1.316   2.485   5.235
 4090TIP3    H112276   1.360   2.469   5.318
 4090TIP3    H212277   1.275   2.401   5.213
 4091TIP3   OH212278   2.827   5.585   0.349
 4091TIP3    H112279   2.749   5.536   0.374
 4091TIP3    H212280   2.855   5.546   0.267
 4092TIP3   OH212281   1.578   2.789   4.923
 4092TIP3    H112282   1.566   2.723   4.991
 4092TIP3    H212283   1.604   2.868   4.971
 4093TIP3   OH212284   2.751   5.827   0.041
 4093TIP3    H112285   2.749   5.735   0.014
 4093TIP3    H212286   2.843   5.850   0.038
 4094TIP3   OH212287   0.293   1.983   5.083
 4094TIP3    H112288   0.285   2.078   5.087
 4094TIP3    H212289   0.216   1.950   5.129
 4095TIP3   OH212290   0.352   2.253   5.222
 4095TIP3    H112291   0.411   2.189   5.260
 4095TIP3    H212292   0.409   2.320   5.185
 4096TIP3   OH212293   1.232   3.237   4.936
 4096TIP3    H112294   1.264   3.164   4.884
 4096TIP3    H212295   1.196   3.197   5.015
 4097TIP3   OH212296   1.122   2.699   5.271
 4097TIP3    H112297   1.166   2.624   5.231
 4097TIP3    H212298   1.194   2.757   5.297
 4098TIP3   OH212299   2.152   2.032   5.257
 4098TIP3    H112300   2.171   2.119   5.291
 4098TIP3    H212301   2.187   2.033   5.168
 4099TIP3   OH212302   1.532   2.196   5.298
 4099TIP3    H112303   1.586   2.119   5.317
 4099TIP3    H212304   1.496   2.179   5.211
 4100TIP3   OH212305   0.908   1.856   5.242
 4100TIP3    H112306   0.884   1.931   5.188
 4100TIP3    H212307   0.857   1.783   5.206
 4101TIP3   OH212308   1.578   1.960   4.885
 4101TIP3    H112309   1.645   1.951   4.952
 4101TIP3    H212310   1.624   1.993   4.808
 4102TIP3   OH212311   2.686   5.145   0.041
 4102TIP3    H112312   2.768   5.140   0.091
 4102TIP3    H212313   2.702   5.090  -0.036
 4103TIP3   OH212314   0.942   2.263   5.199
 4103TIP3    H112315   1.037   2.248   5.193
 4103TIP3    H212316   0.903   2.185   5.160
 4104TIP3   OH212317   4.376   5.329   0.086
 4104TIP3    H112318   4.288   5.367   0.093
 4104TIP3    H212319   4.395   5.295   0.174
 4105TIP3   OH212320   3.021   4.964   0.423
 4105TIP3    H112321   2.959   4.939   0.354
 4105TIP3    H212322   2.985   4.926   0.503
 4106TIP3   OH212323   1.197   2.694   4.713
 4106TIP3    H112324   1.171   2.680   4.622
 4106TIP3    H212325   1.156   2.777   4.738
 4107TIP3   OH212326   3.123   5.710   0.174
 4107TIP3    H112327   3.058   5.780   0.185
 4107TIP3    H212328   3.175   5.738   0.100
 4108TIP3   OH212329   1.763   1.974   5.082
 4108TIP3    H112330   1.761   1.919   5.161
 4108TIP3    H212331   1.815   2.050   5.107
 4109TIP3   OH212332   2.933   5.054   0.127
 4109TIP3    H112333   2.994   5.118   0.162
 4109TIP3    H212334   2.986   4.998   0.071
 4110TIP3   OH212335   2.947   5.904   0.249
 4110TIP3    H112336   2.937   5.993   0.215
 4110TIP3    H212337   2.881   5.897   0.318
 4111TIP3   OH212338   0.221   2.496   4.850
 4111TIP3    H112339   0.132   2.526   4.829
 4111TIP3    H212340   0.264   2.573   4.889
 4112TIP3   OH212341   1.629   3.037   5.069
 4112TIP3    H112342   1.544   3.023   5.111
 4112TIP3    H212343   1.621   3.121   5.024
 4113TIP3   OH212344   4.094   5.031   0.102
 4113TIP3    H112345   4.010   5.054   0.063
 4113TIP3    H212346   4.158   5.052   0.034
 4114TIP3   OH212347   3.362   4.614   0.073
 4114TIP3    H112348   3.355   4.522   0.099
 4114TIP3    H212349   3.290   4.658   0.119
 4115TIP3   OH212350   1.331   3.069   4.732
 4115TIP3    H112351   1.381   2.988   4.718
 4115TIP3    H212352   1.388   3.138   4.700
 4116TIP3   OH212353   1.483   2.851   4.668
 4116TIP3    H112354   1.476   2.772   4.616
 4116TIP3    H212355   1.518   2.822   4.752
 4117TIP3   OH212356   4.028   5.998   0.105
 4117TIP3    H112357   4.012   5.921   0.050
 4117TIP3    H212358   4.011   6.073   0.048
 4118TIP3   OH212359   1.147   2.330   4.683
 4118TIP3    H112360   1.069   2.382   4.664
 4118TIP3    H212361   1.198   2.331   4.602
 4119TIP3   OH212362   1.123   2.121   4.399
 4119TIP3    H112363   1.187   2.178   4.443
 4119TIP3    H212364   1.176   2.066   4.342
 4120TIP3   OH212365   2.049   2.588   5.275
 4120TIP3    H112366   1.964   2.633   5.276
 4120TIP3    H212367   2.081   2.599   5.185
 4121TIP3   OH212368   1.505   2.424   4.647
 4121TIP3    H112369   1.450   2.449   4.722
 4121TIP3    H212370   1.587   2.395   4.686
 4122TIP3   OH212371   3.895   5.521   0.244
 4122TIP3    H112372   3.901   5.599   0.300
 4122TIP3    H212373   3.809   5.529   0.202
 4123TIP3   OH212374   0.730   2.398   5.059
 4123TIP3    H112375   0.697   2.343   4.987
 4123TIP3    H212376   0.806   2.351   5.092
 4124TIP3   OH212377   0.857   2.803   5.215
 4124TIP3    H112378   0.837   2.801   5.121
 4124TIP3    H212379   0.949   2.777   5.219
 4125TIP3   OH212380   3.001   5.476   0.094
 4125TIP3    H112381   3.044   5.445   0.014
 4125TIP3    H212382   3.053   5.551   0.122
 4126TIP3   OH212383   1.397   3.022   5.204
 4126TIP3    H112384   1.381   3.103   5.253
 4126TIP3    H212385   1.378   2.952   5.265
 4127TIP3   OH212386   3.148   6.029   0.388
 4127TIP3    H112387   3.094   6.095   0.432
 4127TIP3    H212388   3.086   5.976   0.338
 4128TIP3   OH212389   1.338   2.281   4.484
 4128TIP3    H112390   1.398   2.338   4.531
 4128TIP3    H212391   1.361   2.294   4.392
 4129TIP3   OH212392   2.919   5.499   0.605
 4129TIP3    H112393   2.881   5.572   0.653
 4129TIP3    H212394   2.893   5.514   0.514
 4130TIP3   OH212395   1.084   2.947   4.743
 4130TIP3    H112396   1.168   2.994   4.747
 4130TIP3    H212397   1.024   3.009   4.701
 4131TIP3   OH212398   5.117   0.070   0.501
 4131TIP3    H112399   5.103   0.070   0.406
 4131TIP3    H212400   5.029   0.085   0.538
 4132TIP3   OH212401   1.854   1.509   4.532
 4132TIP3    H112402   1.774   1.528   4.580
 4132TIP3    H212403   1.868   1.587   4.478
 4133TIP3   OH212404   0.611   2.246   4.853
 4133TIP3    H112405   0.543   2.294   4.806
 4133TIP3    H212406   0.566   2.167   4.884
 4134TIP3   OH212407   1.678   2.882   4.078
 4134TIP3    H112408   1.682   2.976   4.063
 4134TIP3    H212409   1.767   2.851   4.061
 4135TIP3   OH212410   2.554   5.769   0.479
 4135TIP3    H112411   2.543   5.719   0.398
 4135TIP3    H212412   2.500   5.722   0.543
 4136TIP3   OH212413   2.426   5.894   0.167
 4136TIP3    H112414   2.491   5.826   0.147
 4136TIP3    H212415   2.477   5.975   0.170
 4137TIP3   OH212416   6.427   0.228   0.163
 4137TIP3    H112417   6.432   0.132   0.174
 4137TIP3    H212418   6.346   0.253   0.208
 4138TIP3   OH212419   5.550   0.006   0.304
 4138TIP3    H112420   5.543   0.098   0.329
 4138TIP3    H212421   5.467  -0.033   0.333
 4139TIP3   OH212422   0.975   3.184   4.559
 4139TIP3    H112423   0.923   3.167   4.481
 4139TIP3    H212424   0.941   3.267   4.593
 4140TIP3   OH212425   0.402   3.026   4.920
 4140TIP3    H112426   0.456   2.984   4.987
 4140TIP3    H212427   0.321   3.049   4.966
 4141TIP3   OH212428   1.168   3.118   4.186
 4141TIP3    H112429   1.216   3.046   4.146
 4141TIP3    H212430   1.204   3.125   4.275
 4142TIP3   OH212431   1.227   3.152   4.457
 4142TIP3    H112432   1.141   3.156   4.500
 4142TIP3    H212433   1.284   3.113   4.523
 4143TIP3   OH212434   4.160   5.464   0.404
 4143TIP3    H112435   4.070   5.476   0.434
 4143TIP3    H212436   4.162   5.374   0.371
 4144TIP3   OH212437   2.762   5.938   0.447
 4144TIP3    H112438   2.770   5.969   0.538
 4144TIP3    H212439   2.684   5.882   0.447
 4145TIP3   OH212440   3.158   4.739   0.209
 4145TIP3    H112441   3.068   4.725   0.182
 4145TIP3    H212442   3.156   4.818   0.263
 4146TIP3   OH212443   3.709   4.866   0.631
 4146TIP3    H112444   3.728   4.911   0.548
 4146TIP3    H212445   3.617   4.841   0.624
 4147TIP3   OH212446   3.913   5.263   0.330
 4147TIP3    H112447   3.885   5.246   0.420
 4147TIP3    H212448   3.895   5.356   0.317
 4148TIP3   OH212449   1.409   2.300   4.224
 4148TIP3    H112450   1.369   2.280   4.139
 4148TIP3    H212451   1.491   2.344   4.203
 4149TIP3   OH212452   1.104   1.694   4.516
 4149TIP3    H112453   1.088   1.699   4.610
 4149TIP3    H212454   1.084   1.602   4.494
 4150TIP3   OH212455   3.111   5.246   0.211
 4150TIP3    H112456   3.089   5.306   0.283
 4150TIP3    H212457   3.108   5.301   0.132
 4151TIP3   OH212458   0.800   2.054   5.087
 4151TIP3    H112459   0.712   2.027   5.110
 4151TIP3    H212460   0.815   2.018   5.000
 4152TIP3   OH212461   1.281   2.128   4.814
 4152TIP3    H112462   1.232   2.200   4.773
 4152TIP3    H212463   1.340   2.097   4.745
 4153TIP3   OH212464   3.659   5.500   0.559
 4153TIP3    H112465   3.663   5.531   0.649
 4153TIP3    H212466   3.750   5.497   0.530
 4154TIP3   OH212467   1.439   2.145   5.044
 4154TIP3    H112468   1.377   2.173   4.977
 4154TIP3    H212469   1.486   2.072   5.005
 4155TIP3   OH212470   2.886   5.255   0.500
 4155TIP3    H112471   2.918   5.332   0.547
 4155TIP3    H212472   2.813   5.223   0.554
 4156TIP3   OH212473   0.722   1.673   4.473
 4156TIP3    H112474   0.781   1.703   4.543
 4156TIP3    H212475   0.659   1.617   4.517
 4157TIP3   OH212476   0.273   1.728   5.287
 4157TIP3    H112477   0.365   1.744   5.307
 4157TIP3    H212478   0.261   1.634   5.303
 4158TIP3   OH212479   0.303   1.749   4.899
 4158TIP3    H112480   0.355   1.770   4.821
 4158TIP3    H212481   0.293   1.833   4.944
 4159TIP3   OH212482   3.639   5.476   0.145
 4159TIP3    H112483   3.669   5.405   0.088
 4159TIP3    H212484   3.603   5.432   0.222
 4160TIP3   OH212485   1.165   1.850   5.137
 4160TIP3    H112486   1.086   1.849   5.190
 4160TIP3    H212487   1.237   1.846   5.200
 4161TIP3   OH212488   0.562   1.922   5.133
 4161TIP3    H112489   0.470   1.922   5.105
 4161TIP3    H212490   0.595   1.835   5.111
 4162TIP3   OH212491   0.823   1.921   4.851
 4162TIP3    H112492   0.917   1.936   4.839
 4162TIP3    H212493   0.784   1.948   4.767
 4163TIP3   OH212494   3.789   4.997   0.043
 4163TIP3    H112495   3.757   5.029   0.127
 4163TIP3    H212496   3.715   4.948   0.006
 4164TIP3   OH212497   0.691   1.963   4.617
 4164TIP3    H112498   0.602   1.949   4.585
 4164TIP3    H212499   0.740   1.994   4.541
 4165TIP3   OH212500   6.136   0.570   0.267
 4165TIP3    H112501   6.128   0.589   0.173
 4165TIP3    H212502   6.214   0.618   0.295
 4166TIP3   OH212503   1.214   2.207   5.222
 4166TIP3    H112504   1.284   2.171   5.168
 4166TIP3    H212505   1.227   2.168   5.309
 4167TIP3   OH212506   0.733   1.694   5.101
 4167TIP3    H112507   0.709   1.614   5.149
 4167TIP3    H212508   0.768   1.663   5.018
 4168TIP3   OH212509   3.379   5.188   0.182
 4168TIP3    H112510   3.295   5.232   0.195
 4168TIP3    H212511   3.441   5.240   0.233
 4169TIP3   OH212512   0.916   2.476   4.625
 4169TIP3    H112513   0.844   2.417   4.605
 4169TIP3    H212514   0.893   2.514   4.710
 4170TIP3   OH212515   1.808   2.721   5.246
 4170TIP3    H112516   1.842   2.767   5.169
 4170TIP3    H212517   1.727   2.680   5.215
 4171TIP3   OH212518   1.367   1.792   4.519
 4171TIP3    H112519   1.272   1.781   4.511
 4171TIP3    H212520   1.379   1.886   4.529
 4172TIP3   OH212521   3.494   5.867   0.331
 4172TIP3    H112522   3.559   5.864   0.402
 4172TIP3    H212523   3.459   5.955   0.334
 4173TIP3   OH212524   1.444   2.048   4.598
 4173TIP3    H112525   1.539   2.051   4.606
 4173TIP3    H212526   1.422   2.126   4.546
 4174TIP3   OH212527   0.603   2.495   5.286
 4174TIP3    H112528   0.625   2.481   5.194
 4174TIP3    H212529   0.678   2.462   5.335
 4175TIP3   OH212530   1.071   2.636   4.465
 4175TIP3    H112531   1.023   2.719   4.465
 4175TIP3    H212532   1.017   2.578   4.519
 4176TIP3   OH212533   5.805   0.015   0.201
 4176TIP3    H112534   5.712   0.007   0.222
 4176TIP3    H212535   5.841   0.066   0.273
 4177TIP3   OH212536   1.866   2.140   4.424
 4177TIP3    H112537   1.809   2.092   4.364
 4177TIP3    H212538   1.870   2.229   4.388
 4178TIP3   OH212539   4.274   6.079   0.193
 4178TIP3    H112540   4.180   6.060   0.191
 4178TIP3    H212541   4.307   6.045   0.110
 4179TIP3   OH212542   1.590   2.948   4.340
 4179TIP3    H112543   1.568   2.877   4.401
 4179TIP3    H212544   1.618   2.902   4.261
 4180TIP3   OH212545   1.577   2.589   5.144
 4180TIP3    H112546   1.486   2.566   5.163
 4180TIP3    H212547   1.614   2.509   5.106
 4181TIP3   OH212548   0.736   2.824   4.937
 4181TIP3    H112549   0.734   2.894   4.872
 4181TIP3    H212550   0.667   2.848   4.999
 4182TIP3   OH212551   0.290   2.114   4.635
 4182TIP3    H112552   0.343   2.190   4.657
 4182TIP3    H212553   0.201   2.139   4.657
 4183TIP3   OH212554   0.821   2.574   4.859
 4183TIP3    H112555   0.802   2.665   4.881
 4183TIP3    H212556   0.793   2.525   4.936
 4184TIP3   OH212557   5.346   0.085   0.110
 4184TIP3    H112558   5.363   0.146   0.038
 4184TIP3    H212559   5.433   0.066   0.146
 4185TIP3   OH212560   0.641   3.049   4.776
 4185TIP3    H112561   0.556   3.049   4.820
 4185TIP3    H212562   0.671   3.140   4.782
 4186TIP3   OH212563   3.532   5.860   0.059
 4186TIP3    H112564   3.527   5.859   0.154
 4186TIP3    H212565   3.612   5.812   0.039
 4187TIP3   OH212566   1.354   2.691   4.254
 4187TIP3    H112567   1.407   2.671   4.331
 4187TIP3    H212568   1.270   2.648   4.270
 4188TIP3   OH212569   5.953   0.251   0.099
 4188TIP3    H112570   5.877   0.194   0.105
 4188TIP3    H212571   5.933   0.312   0.029
 4189TIP3   OH212572   1.683   3.157   4.054
 4189TIP3    H112573   1.732   3.232   4.019
 4189TIP3    H212574   1.603   3.197   4.089
 4190TIP3   OH212575   1.526   2.634   4.466
 4190TIP3    H112576   1.510   2.561   4.526
 4190TIP3    H212577   1.620   2.629   4.447
 4191TIP3   OH212578   2.617   6.095   0.257
 4191TIP3    H112579   2.684   6.028   0.268
 4191TIP3    H212580   2.637   6.160   0.324
 4192TIP3   OH212581   0.716   2.657   4.253
 4192TIP3    H112582   0.732   2.568   4.222
 4192TIP3    H212583   0.698   2.647   4.346
 4193TIP3   OH212584   0.646   2.663   4.522
 4193TIP3    H112585   0.715   2.639   4.584
 4193TIP3    H212586   0.644   2.759   4.526
 4194TIP3   OH212587   0.407   2.357   4.703
 4194TIP3    H112588   0.344   2.403   4.759
 4194TIP3    H212589   0.418   2.415   4.627
 4195TIP3   OH212590   3.712   5.071   0.290
 4195TIP3    H112591   3.797   5.095   0.326
 4195TIP3    H212592   3.660   5.045   0.366
 4196TIP3   OH212593   1.428   1.745   4.788
 4196TIP3    H112594   1.409   1.764   4.696
 4196TIP3    H212595   1.473   1.824   4.819
 4197TIP3   OH212596   0.922   2.862   4.462
 4197TIP3    H112597   0.834   2.882   4.495
 4197TIP3    H212598   0.946   2.938   4.409
 4198TIP3   OH212599   1.098   1.936   4.883
 4198TIP3    H112600   1.160   2.004   4.856
 4198TIP3    H212601   1.121   1.917   4.974
 4199TIP3   OH212602   3.575   5.307   0.351
 4199TIP3    H112603   3.611   5.333   0.435
 4199TIP3    H212604   3.626   5.230   0.326
 4200TIP3   OH212605   1.255   1.640   4.973
 4200TIP3    H112606   1.235   1.716   5.027
 4200TIP3    H212607   1.322   1.670   4.911
 4201TIP3   OH212608   0.665   2.938   4.528
 4201TIP3    H112609   0.641   3.008   4.468
 4201TIP3    H212610   0.656   2.977   4.615
 4202TIP3   OH212611   0.777   1.655   4.783
 4202TIP3    H112612   0.770   1.747   4.809
 4202TIP3    H212613   0.871   1.639   4.777
 4203TIP3   OH212614   4.167   5.193   0.314
 4203TIP3    H112615   4.075   5.218   0.316
 4203TIP3    H212616   4.173   5.129   0.243
 4204TIP3   OH212617   1.669   2.333   5.049
 4204TIP3    H112618   1.593   2.276   5.060
 4204TIP3    H212619   1.739   2.291   5.100
 4205TIP3   OH212620   0.393   2.534   4.473
 4205TIP3    H112621   0.449   2.607   4.499
 4205TIP3    H212622   0.451   2.474   4.426
 4206TIP3   OH212623   0.354   1.853   4.636
 4206TIP3    H112624   0.341   1.948   4.644
 4206TIP3    H212625   0.265   1.817   4.642
 4207TIP3   OH212626   1.666   3.309   4.983
 4207TIP3    H112627   1.616   3.358   4.918
 4207TIP3    H212628   1.746   3.283   4.936
 4208TIP3   OH212629   2.911   4.634   0.151
 4208TIP3    H112630   2.893   4.594   0.066
 4208TIP3    H212631   2.900   4.563   0.215
 4209TIP3   OH212632   0.305   2.741   4.918
 4209TIP3    H112633   0.233   2.804   4.921
 4209TIP3    H212634   0.371   2.783   4.863
 4210TIP3   OH212635   4.847   0.189   0.628
 4210TIP3    H112636   4.898   0.198   0.709
 4210TIP3    H212637   4.772   0.136   0.652
 4211TIP3   OH212638   5.221   0.253   0.683
 4211TIP3    H112639   5.303   0.214   0.714
 4211TIP3    H212640   5.193   0.196   0.611
 4212TIP3   OH212641   0.872   2.857   4.145
 4212TIP3    H112642   0.826   2.787   4.191
 4212TIP3    H212643   0.949   2.814   4.106
 4213TIP3   OH212644   5.890   0.156   0.415
 4213TIP3    H112645   5.867   0.112   0.496
 4213TIP3    H212646   5.954   0.223   0.440
 4214TIP3   OH212647   1.309   2.901   4.081
 4214TIP3    H112648   1.329   2.837   4.150
 4214TIP3    H212649   1.388   2.903   4.027
 4215TIP3   OH212650   0.557   2.344   4.364
 4215TIP3    H112651   0.610   2.325   4.441
 4215TIP3    H212652   0.621   2.355   4.293
 4216TIP3   OH212653   3.295   5.876   0.558
 4216TIP3    H112654   3.248   5.903   0.479
 4216TIP3    H212655   3.346   5.800   0.530
 4217TIP3   OH212656   1.062   2.585   4.196
 4217TIP3    H112657   1.056   2.600   4.290
 4217TIP3    H212658   1.049   2.491   4.185
 4218TIP3   OH212659   3.797   5.923   0.235
 4218TIP3    H112660   3.877   5.958   0.194
 4218TIP3    H212661   3.732   5.992   0.222
 4219TIP3   OH212662   0.722   2.280   4.580
 4219TIP3    H112663   0.700   2.252   4.669
 4219TIP3    H212664   0.770   2.206   4.543
 4220TIP3   OH212665   3.104   5.447   0.391
 4220TIP3    H112666   3.075   5.526   0.436
 4220TIP3    H212667   3.200   5.450   0.398
 4221TIP3   OH212668   0.851   2.074   4.423
 4221TIP3    H112669   0.840   2.078   4.328
 4221TIP3    H212670   0.945   2.086   4.436
 4222TIP3   OH212671   3.678   5.846   0.544
 4222TIP3    H112672   3.756   5.804   0.508
 4222TIP3    H212673   3.667   5.806   0.630
 4223TIP3   OH212674   1.631   2.414   4.113
 4223TIP3    H112675   1.631   2.365   4.030
 4223TIP3    H212676   1.613   2.504   4.088
 4224TIP3   OH212677   3.353   5.175   0.679
 4224TIP3    H112678   3.283   5.111   0.673
 4224TIP3    H212679   3.323   5.249   0.626
 4225TIP3   OH212680   3.284   4.987   0.348
 4225TIP3    H112681   3.300   5.054   0.282
 4225TIP3    H212682   3.195   5.004   0.378
 4226TIP3   OH212683   3.341   5.542   0.225
 4226TIP3    H112684   3.417   5.600   0.225
 4226TIP3    H212685   3.266   5.600   0.213
 4227TIP3   OH212686   3.929   5.486   0.555
 4227TIP3    H112687   3.914   5.423   0.625
 4227TIP3    H212688   3.963   5.564   0.600
 4228TIP3   OH212689   3.935   5.756   0.388
 4228TIP3    H112690   3.880   5.813   0.335
 4228TIP3    H212691   4.023   5.767   0.352
 4229TIP3   OH212692   3.443   4.785   0.609
 4229TIP3    H112693   3.408   4.862   0.566
 4229TIP3    H212694   3.387   4.713   0.579
 4230TIP3   OH212695   3.828   5.146   0.555
 4230TIP3    H112696   3.747   5.171   0.600
 4230TIP3    H212697   3.888   5.122   0.626
 4231TIP3   OH212698   3.964   5.109   0.791
 4231TIP3    H112699   4.046   5.121   0.744
 4231TIP3    H212700   3.990   5.078   0.878
 4232TIP3   OH212701   0.655   3.153   4.349
 4232TIP3    H112702   0.747   3.132   4.330
 4232TIP3    H212703   0.624   3.199   4.271
 4233TIP3   OH212704   0.132   2.481   4.551
 4233TIP3    H112705   0.219   2.503   4.519
 4233TIP3    H212706   0.105   2.406   4.498
 4234TIP3   OH212707   1.976   3.420   4.974
 4234TIP3    H112708   1.949   3.416   5.066
 4234TIP3    H212709   1.918   3.485   4.935
 4235TIP3   OH212710   1.928   3.394   5.245
 4235TIP3    H112711   1.879   3.312   5.245
 4235TIP3    H212712   1.994   3.382   5.314
 4236TIP3   OH212713   6.319   0.019   0.509
 4236TIP3    H112714   6.233   0.039   0.546
 4236TIP3    H212715   6.358   0.105   0.491
 4237TIP3   OH212716   1.801   2.606   4.433
 4237TIP3    H112717   1.866   2.664   4.394
 4237TIP3    H212718   1.846   2.566   4.508
 4238TIP3   OH212719   1.924   2.462   4.636
 4238TIP3    H112720   1.858   2.422   4.692
 4238TIP3    H212721   1.990   2.496   4.698
 4239TIP3   OH212722   1.979   2.850   5.072
 4239TIP3    H112723   2.033   2.781   5.034
 4239TIP3    H212724   1.986   2.923   5.010
 4240TIP3   OH212725   1.793   3.153   5.261
 4240TIP3    H112726   1.724   3.195   5.313
 4240TIP3    H212727   1.746   3.108   5.191
 4241TIP3   OH212728   1.845   2.378   4.282
 4241TIP3    H112729   1.776   2.380   4.217
 4241TIP3    H212730   1.831   2.456   4.336
 4242TIP3   OH212731   1.707   2.027   4.233
 4242TIP3    H112732   1.666   2.065   4.156
 4242TIP3    H212733   1.688   1.933   4.227
 4243TIP3   OH212734   1.728   2.321   4.778
 4243TIP3    H112735   1.738   2.227   4.766
 4243TIP3    H212736   1.714   2.332   4.872
 4244TIP3   OH212737   2.555   5.379   0.181
 4244TIP3    H112738   2.527   5.364   0.091
 4244TIP3    H212739   2.646   5.349   0.183
 4245TIP3   OH212740   4.185   5.801   0.290
 4245TIP3    H112741   4.253   5.733   0.286
 4245TIP3    H212742   4.208   5.861   0.219
 4246TIP3   OH212743   4.372   5.610   0.320
 4246TIP3    H112744   4.298   5.554   0.344
 4246TIP3    H212745   4.449   5.559   0.345
 4247TIP3   OH212746   1.655   1.756   4.222
 4247TIP3    H112747   1.729   1.732   4.277
 4247TIP3    H212748   1.585   1.697   4.248
 4248TIP3   OH212749   1.729   2.043   4.660
 4248TIP3    H112750   1.774   1.960   4.676
 4248TIP3    H212751   1.776   2.083   4.587
 4249TIP3   OH212752   1.883   2.205   5.181
 4249TIP3    H112753   1.962   2.226   5.131
 4249TIP3    H212754   1.895   2.248   5.265
 4250TIP3   OH212755   4.115   5.427   0.093
 4250TIP3    H112756   4.043   5.455   0.149
 4250TIP3    H212757   4.148   5.508   0.054
 4251TIP3   OH212758   4.600   4.955   0.746
 4251TIP3    H112759   4.681   4.911   0.773
 4251TIP3    H212760   4.629   5.030   0.694
 4252TIP3   OH212761   1.840   1.792   4.714
 4252TIP3    H112762   1.885   1.773   4.796
 4252TIP3    H212763   1.777   1.721   4.703
 4253TIP3   OH212764   2.701   4.798   0.059
 4253TIP3    H112765   2.776   4.752   0.098
 4253TIP3    H212766   2.735   4.885   0.037
 4254TIP3   OH212767   2.461   5.226   0.383
 4254TIP3    H112768   2.478   5.141   0.343
 4254TIP3    H212769   2.512   5.288   0.331
 4255TIP3   OH212770   4.443   5.203   0.314
 4255TIP3    H112771   4.351   5.193   0.339
 4255TIP3    H212772   4.485   5.123   0.345
 4256TIP3   OH212773   1.901   1.715   4.353
 4256TIP3    H112774   1.946   1.653   4.296
 4256TIP3    H212775   1.957   1.792   4.354
 4257TIP3   OH212776   0.322   1.524   5.063
 4257TIP3    H112777   0.251   1.534   5.126
 4257TIP3    H212778   0.316   1.602   5.007
 4258TIP3   OH212779   1.476   3.263   4.613
 4258TIP3    H112780   1.531   3.249   4.536
 4258TIP3    H212781   1.523   3.330   4.663
 4259TIP3   OH212782   5.105   0.047   0.227
 4259TIP3    H112783   5.058   0.123   0.194
 4259TIP3    H212784   5.192   0.054   0.188
 4260TIP3   OH212785   5.525   0.275   0.368
 4260TIP3    H112786   5.564   0.271   0.455
 4260TIP3    H212787   5.585   0.329   0.317
 4261TIP3   OH212788   5.711   0.434   0.241
 4261TIP3    H112789   5.774   0.377   0.198
 4261TIP3    H212790   5.763   0.490   0.298
 4262TIP3   OH212791   4.332   4.892   0.308
 4262TIP3    H112792   4.238   4.877   0.297
 4262TIP3    H212793   4.371   4.805   0.308
 4263TIP3   OH212794   4.783   0.390   0.247
 4263TIP3    H112795   4.693   0.358   0.247
 4263TIP3    H212796   4.800   0.414   0.338
 4264TIP3   OH212797   5.010   0.283   0.135
 4264TIP3    H112798   4.933   0.324   0.173
 4264TIP3    H212799   4.980   0.246   0.052
 4265TIP3   OH212800   1.102   3.349   5.232
 4265TIP3    H112801   1.036   3.361   5.164
 4265TIP3    H212802   1.110   3.435   5.273
 4266TIP3   OH212803   1.362   3.288   5.288
 4266TIP3    H112804   1.270   3.303   5.268
 4266TIP3    H212805   1.409   3.355   5.239
 4267TIP3   OH212806   1.558   3.467   5.185
 4267TIP3    H112807   1.552   3.555   5.150
 4267TIP3    H212808   1.595   3.415   5.114
 4268TIP3   OH212809   4.643   0.047   0.038
 4268TIP3    H112810   4.688   0.025   0.120
 4268TIP3    H212811   4.713   0.069  -0.023
 4269TIP3   OH212812   0.554   2.915   5.119
 4269TIP3    H112813   0.549   2.864   5.200
 4269TIP3    H212814   0.563   3.006   5.149
 4270TIP3   OH212815   0.857   3.131   5.139
 4270TIP3    H112816   0.875   3.044   5.175
 4270TIP3    H212817   0.765   3.147   5.160
 4271TIP3   OH212818   1.394   1.757   5.272
 4271TIP3    H112819   1.346   1.679   5.300
 4271TIP3    H212820   1.463   1.724   5.215
 4272TIP3   OH212821   1.875   1.696   5.182
 4272TIP3    H112822   1.916   1.726   5.101
 4272TIP3    H212823   1.782   1.688   5.161
 4273TIP3   OH212824   1.998   1.731   4.938
 4273TIP3    H112825   2.068   1.675   4.904
 4273TIP3    H212826   2.031   1.820   4.926
 4274TIP3   OH212827   0.655   1.465   5.226
 4274TIP3    H112828   0.561   1.463   5.205
 4274TIP3    H212829   0.682   1.373   5.221
 4275TIP3   OH212830   0.475   1.311   4.999
 4275TIP3    H112831   0.520   1.337   4.918
 4275TIP3    H212832   0.414   1.382   5.016
 4276TIP3   OH212833   1.069   1.509   5.137
 4276TIP3    H112834   1.128   1.547   5.072
 4276TIP3    H212835   1.111   1.528   5.221
 4277TIP3   OH212836   1.604   1.645   5.127
 4277TIP3    H112837   1.608   1.609   5.039
 4277TIP3    H212838   1.602   1.568   5.184
 4278TIP3   OH212839   1.651   1.586   4.705
 4278TIP3    H112840   1.568   1.632   4.720
 4278TIP3    H212841   1.639   1.502   4.749
 4279TIP3   OH212842   0.569   1.521   4.665
 4279TIP3    H112843   0.597   1.430   4.658
 4279TIP3    H212844   0.634   1.561   4.722
 4280TIP3   OH212845   1.050   1.685   4.785
 4280TIP3    H112846   1.111   1.631   4.835
 4280TIP3    H212847   1.066   1.775   4.816
 4281TIP3   OH212848   0.914   3.087   4.287
 4281TIP3    H112849   0.998   3.115   4.251
 4281TIP3    H212850   0.888   3.013   4.232
 4282TIP3   OH212851   1.623   3.215   4.380
 4282TIP3    H112852   1.614   3.120   4.371
 4282TIP3    H212853   1.579   3.250   4.303
 4283TIP3   OH212854   0.271   2.944   4.321
 4283TIP3    H112855   0.281   2.994   4.402
 4283TIP3    H212856   0.354   2.897   4.311
 4284TIP3   OH212857   6.179   0.299   0.257
 4284TIP3    H112858   6.102   0.267   0.209
 4284TIP3    H212859   6.165   0.393   0.264
 4285TIP3   OH212860   3.119   2.748   4.328
 4285TIP3    H112861   3.090   2.835   4.303
 4285TIP3    H212862   3.050   2.690   4.296
 4286TIP3   OH212863   3.123   2.739   4.733
 4286TIP3    H112864   3.165   2.718   4.817
 4286TIP3    H212865   3.076   2.659   4.709
 4287TIP3   OH212866   2.417   2.616   5.088
 4287TIP3    H112867   2.451   2.557   5.156
 4287TIP3    H212868   2.495   2.640   5.037
 4288TIP3   OH212869   3.376   3.049   4.407
 4288TIP3    H112870   3.360   2.983   4.475
 4288TIP3    H212871   3.402   3.127   4.455
 4289TIP3   OH212872   2.366   3.040   4.843
 4289TIP3    H112873   2.367   2.945   4.830
 4289TIP3    H212874   2.448   3.070   4.806
 4290TIP3   OH212875   2.090   2.237   4.572
 4290TIP3    H112876   2.050   2.322   4.593
 4290TIP3    H212877   2.020   2.188   4.527
 4291TIP3   OH212878   2.156   2.531   4.775
 4291TIP3    H112879   2.207   2.455   4.804
 4291TIP3    H212880   2.218   2.583   4.722
 4292TIP3   OH212881   3.031   3.490   4.424
 4292TIP3    H112882   3.063   3.424   4.362
 4292TIP3    H212883   3.015   3.442   4.505
 4293TIP3   OH212884   2.911   2.968   4.756
 4293TIP3    H112885   2.946   2.894   4.707
 4293TIP3    H212886   2.988   3.017   4.784
 4294TIP3   OH212887   3.945   2.286   4.759
 4294TIP3    H112888   3.965   2.370   4.800
 4294TIP3    H212889   3.968   2.298   4.667
 4295TIP3   OH212890   3.333   2.453   4.787
 4295TIP3    H112891   3.371   2.369   4.810
 4295TIP3    H212892   3.295   2.440   4.700
 4296TIP3   OH212893   2.682   2.114   4.747
 4296TIP3    H112894   2.662   2.187   4.688
 4296TIP3    H212895   2.629   2.042   4.713
 4297TIP3   OH212896   3.377   2.212   4.377
 4297TIP3    H112897   3.444   2.202   4.446
 4297TIP3    H212898   3.425   2.248   4.302
 4298TIP3   OH212899   2.307   2.320   4.870
 4298TIP3    H112900   2.390   2.304   4.915
 4298TIP3    H212901   2.313   2.270   4.789
 4299TIP3   OH212902   2.733   2.520   4.685
 4299TIP3    H112903   2.827   2.504   4.689
 4299TIP3    H212904   2.696   2.441   4.646
 4300TIP3   OH212905   4.010   2.501   4.931
 4300TIP3    H112906   3.923   2.541   4.920
 4300TIP3    H212907   4.043   2.538   5.013
 4301TIP3   OH212908   2.666   2.109   5.194
 4301TIP3    H112909   2.613   2.143   5.122
 4301TIP3    H212910   2.614   2.127   5.272
 4302TIP3   OH212911   3.016   2.969   4.196
 4302TIP3    H112912   2.978   2.942   4.112
 4302TIP3    H212913   2.960   3.040   4.227
 4303TIP3   OH212914   2.765   2.885   4.974
 4303TIP3    H112915   2.709   2.955   5.008
 4303TIP3    H212916   2.810   2.925   4.899
 4304TIP3   OH212917   3.551   2.226   4.589
 4304TIP3    H112918   3.513   2.203   4.673
 4304TIP3    H212919   3.607   2.301   4.607
 4305TIP3   OH212920   2.550   2.219   4.968
 4305TIP3    H112921   2.606   2.293   4.991
 4305TIP3    H212922   2.595   2.176   4.895
 4306TIP3   OH212923   2.606   3.088   5.079
 4306TIP3    H112924   2.589   3.175   5.042
 4306TIP3    H212925   2.526   3.067   5.128
 4307TIP3   OH212926   1.989   2.763   4.299
 4307TIP3    H112927   1.962   2.777   4.208
 4307TIP3    H212928   2.016   2.849   4.330
 4308TIP3   OH212929   3.427   3.291   4.556
 4308TIP3    H112930   3.340   3.282   4.595
 4308TIP3    H212931   3.424   3.375   4.510
 4309TIP3   OH212932   3.740   2.176   4.926
 4309TIP3    H112933   3.653   2.200   4.894
 4309TIP3    H212934   3.800   2.205   4.857
 4310TIP3   OH212935   3.009   1.809   4.917
 4310TIP3    H112936   3.000   1.716   4.940
 4310TIP3    H212937   2.934   1.852   4.958
 4311TIP3   OH212938   3.128   3.328   4.219
 4311TIP3    H112939   3.177   3.247   4.204
 4311TIP3    H212940   3.188   3.397   4.189
 4312TIP3   OH212941   3.277   3.108   4.151
 4312TIP3    H112942   3.216   3.036   4.134
 4312TIP3    H212943   3.321   3.083   4.232
 4313TIP3   OH212944   3.654   3.188   4.903
 4313TIP3    H112945   3.640   3.113   4.844
 4313TIP3    H212946   3.638   3.265   4.848
 4314TIP3   OH212947   2.957   2.585   4.171
 4314TIP3    H112948   2.875   2.634   4.158
 4314TIP3    H212949   3.000   2.587   4.086
 4315TIP3   OH212950   2.905   2.384   3.888
 4315TIP3    H112951   2.971   2.435   3.933
 4315TIP3    H212952   2.954   2.321   3.835
 4316TIP3   OH212953   3.846   2.842   4.762
 4316TIP3    H112954   3.762   2.888   4.764
 4316TIP3    H212955   3.880   2.858   4.674
 4317TIP3   OH212956   3.299   2.672   4.136
 4317TIP3    H112957   3.244   2.701   4.209
 4317TIP3    H212958   3.382   2.649   4.176
 4318TIP3   OH212959   3.530   2.708   5.065
 4318TIP3    H112960   3.528   2.791   5.113
 4318TIP3    H212961   3.447   2.706   5.018
 4319TIP3   OH212962   2.523   2.659   4.551
 4319TIP3    H112963   2.480   2.602   4.487
 4319TIP3    H212964   2.597   2.608   4.583
 4320TIP3   OH212965   2.632   3.089   4.694
 4320TIP3    H112966   2.608   3.067   4.604
 4320TIP3    H212967   2.720   3.053   4.705
 4321TIP3   OH212968   2.638   2.648   4.914
 4321TIP3    H112969   2.673   2.614   4.831
 4321TIP3    H212970   2.687   2.729   4.929
 4322TIP3   OH212971   3.190   3.282   4.688
 4322TIP3    H112972   3.176   3.361   4.740
 4322TIP3    H212973   3.173   3.210   4.749
 4323TIP3   OH212974   2.805   3.192   5.239
 4323TIP3    H112975   2.745   3.253   5.282
 4323TIP3    H212976   2.749   3.139   5.183
 4324TIP3   OH212977   3.140   2.529   3.961
 4324TIP3    H112978   3.196   2.590   4.009
 4324TIP3    H212979   3.166   2.539   3.869
 4325TIP3   OH212980   4.724   5.803   0.056
 4325TIP3    H112981   4.726   5.896   0.080
 4325TIP3    H212982   4.631   5.782   0.048
 4326TIP3   OH212983   2.874   3.209   4.242
 4326TIP3    H112984   2.957   3.256   4.239
 4326TIP3    H212985   2.821   3.249   4.172
 4327TIP3   OH212986   2.595   3.353   5.319
 4327TIP3    H112987   2.569   3.361   5.227
 4327TIP3    H212988   2.513   3.335   5.365
 4328TIP3   OH212989   3.646   1.769   4.014
 4328TIP3    H112990   3.568   1.787   4.068
 4328TIP3    H212991   3.655   1.847   3.959
 4329TIP3   OH212992   2.381   2.503   4.365
 4329TIP3    H112993   2.324   2.550   4.305
 4329TIP3    H212994   2.347   2.413   4.365
 4330TIP3   OH212995   2.179   2.898   5.266
 4330TIP3    H112996   2.112   2.877   5.201
 4330TIP3    H212997   2.219   2.814   5.288
 4331TIP3   OH212998   2.069   3.066   4.917
 4331TIP3    H112999   2.155   3.048   4.879
 4331TIP3    H213000   2.084   3.138   4.978
 4332TIP3   OH213001   3.889   3.547   4.964
 4332TIP3    H113002   3.893   3.452   4.976
 4332TIP3    H213003   3.809   3.573   5.009
 4333TIP3   OH213004   2.994   3.327   5.092
 4333TIP3    H113005   2.990   3.419   5.118
 4333TIP3    H213006   2.927   3.284   5.144
 4334TIP3   OH213007   2.765   3.422   4.062
 4334TIP3    H113008   2.724   3.401   3.978
 4334TIP3    H213009   2.745   3.515   4.076
 4335TIP3   OH213010   2.925   3.356   3.707
 4335TIP3    H113011   2.961   3.298   3.640
 4335TIP3    H213012   2.991   3.356   3.777
 4336TIP3   OH213013   3.023   3.413   3.965
 4336TIP3    H113014   2.934   3.406   4.000
 4336TIP3    H213015   3.079   3.374   4.033
 4337TIP3   OH213016   3.773   2.665   5.238
 4337TIP3    H113017   3.695   2.676   5.184
 4337TIP3    H213018   3.795   2.572   5.231
 4338TIP3   OH213019   2.378   3.087   5.237
 4338TIP3    H113020   2.429   3.072   5.317
 4338TIP3    H213021   2.308   3.022   5.241
 4339TIP3   OH213022   2.773   1.900   5.044
 4339TIP3    H113023   2.689   1.868   5.011
 4339TIP3    H213024   2.751   1.979   5.092
 4340TIP3   OH213025   3.314   2.016   5.243
 4340TIP3    H113026   3.383   1.990   5.303
 4340TIP3    H213027   3.233   1.996   5.289
 4341TIP3   OH213028   3.541   2.443   5.152
 4341TIP3    H113029   3.501   2.442   5.239
 4341TIP3    H213030   3.523   2.531   5.119
 4342TIP3   OH213031   3.224   2.519   3.698
 4342TIP3    H113032   3.185   2.510   3.610
 4342TIP3    H213033   3.297   2.580   3.685
 4343TIP3   OH213034   2.929   1.936   4.017
 4343TIP3    H113035   2.891   1.943   4.105
 4343TIP3    H213036   2.888   1.857   3.981
 4344TIP3   OH213037   2.712   2.425   5.060
 4344TIP3    H113038   2.663   2.434   5.141
 4344TIP3    H213039   2.691   2.505   5.011
 4345TIP3   OH213040   2.593   2.307   4.575
 4345TIP3    H113041   2.502   2.286   4.597
 4345TIP3    H213042   2.605   2.274   4.487
 4346TIP3   OH213043   3.079   2.383   4.306
 4346TIP3    H113044   3.031   2.455   4.266
 4346TIP3    H213045   3.136   2.351   4.237
 4347TIP3   OH213046   5.433   5.735   0.073
 4347TIP3    H113047   5.405   5.660   0.126
 4347TIP3    H213048   5.527   5.743   0.092
 4348TIP3   OH213049   3.240   2.403   4.534
 4348TIP3    H113050   3.174   2.431   4.470
 4348TIP3    H213051   3.283   2.328   4.493
 4349TIP3   OH213052   4.708   5.508  -0.033
 4349TIP3    H113053   4.721   5.571   0.038
 4349TIP3    H213054   4.689   5.426   0.012
 4350TIP3   OH213055   2.588   1.925   3.985
 4350TIP3    H113056   2.577   1.928   4.080
 4350TIP3    H213057   2.512   1.973   3.951
 4351TIP3   OH213058   2.125   1.957   4.862
 4351TIP3    H113059   2.197   1.996   4.911
 4351TIP3    H213060   2.161   1.940   4.775
 4352TIP3   OH213061   2.060   1.946   4.366
 4352TIP3    H113062   2.104   1.979   4.287
 4352TIP3    H213063   1.998   2.015   4.389
 4353TIP3   OH213064   3.269   2.652   4.959
 4353TIP3    H113065   3.296   2.585   4.896
 4353TIP3    H213066   3.228   2.602   5.030
 4354TIP3   OH213067   2.948   2.104   4.632
 4354TIP3    H113068   2.869   2.106   4.685
 4354TIP3    H213069   3.020   2.100   4.695
 4355TIP3   OH213070   2.353   2.183   4.638
 4355TIP3    H113071   2.264   2.188   4.604
 4355TIP3    H213072   2.382   2.094   4.618
 4356TIP3   OH213073   2.612   2.182   4.332
 4356TIP3    H113074   2.705   2.197   4.315
 4356TIP3    H213075   2.569   2.202   4.250
 4357TIP3   OH213076   3.413   2.191   4.839
 4357TIP3    H113077   3.388   2.209   4.930
 4357TIP3    H213078   3.345   2.132   4.808
 4358TIP3   OH213079   2.474   2.206   4.098
 4358TIP3    H113080   2.410   2.160   4.044
 4358TIP3    H213081   2.529   2.252   4.035
 4359TIP3   OH213082   3.597   3.892   5.059
 4359TIP3    H113083   3.592   3.912   4.966
 4359TIP3    H213084   3.675   3.938   5.090
 4360TIP3   OH213085   4.694   6.070   0.154
 4360TIP3    H113086   4.773   6.102   0.197
 4360TIP3    H213087   4.628   6.067   0.224
 4361TIP3   OH213088   3.006   2.462   4.735
 4361TIP3    H113089   3.072   2.416   4.684
 4361TIP3    H213090   3.006   2.419   4.821
 4362TIP3   OH213091   2.504   1.936   4.622
 4362TIP3    H113092   2.473   1.860   4.671
 4362TIP3    H213093   2.534   1.900   4.538
 4363TIP3   OH213094   2.978   2.363   5.007
 4363TIP3    H113095   2.890   2.395   5.026
 4363TIP3    H213096   3.036   2.419   5.060
 4364TIP3   OH213097   2.737   2.738   4.121
 4364TIP3    H113098   2.664   2.679   4.101
 4364TIP3    H213099   2.712   2.779   4.204
 4365TIP3   OH213100   3.608   2.978   4.728
 4365TIP3    H113101   3.640   3.028   4.653
 4365TIP3    H213102   3.526   2.939   4.698
 4366TIP3   OH213103   3.176   2.048   3.994
 4366TIP3    H113104   3.084   2.024   4.000
 4366TIP3    H213105   3.178   2.141   4.018
 4367TIP3   OH213106   3.112   3.060   5.124
 4367TIP3    H113107   3.167   3.060   5.202
 4367TIP3    H213108   3.074   3.148   5.121
 4368TIP3   OH213109   3.240   2.303   4.089
 4368TIP3    H113110   3.335   2.312   4.099
 4368TIP3    H213111   3.214   2.380   4.039
 4369TIP3   OH213112   2.409   2.765   4.781
 4369TIP3    H113113   2.439   2.742   4.693
 4369TIP3    H213114   2.470   2.721   4.840
 4370TIP3   OH213115   2.895   2.903   3.954
 4370TIP3    H113116   2.841   2.980   3.939
 4370TIP3    H213117   2.835   2.837   3.990
 4371TIP3   OH213118   4.454   5.738   0.088
 4371TIP3    H113119   4.458   5.716   0.181
 4371TIP3    H213120   4.385   5.683   0.053
 4372TIP3   OH213121   5.186   5.864   0.127
 4372TIP3    H113122   5.118   5.808   0.089
 4372TIP3    H213123   5.268   5.833   0.088
 4373TIP3   OH213124   3.267   3.333   5.018
 4373TIP3    H113125   3.171   3.328   5.023
 4373TIP3    H213126   3.293   3.382   5.095
 4374TIP3   OH213127   3.673   2.400   3.920
 4374TIP3    H113128   3.617   2.352   3.859
 4374TIP3    H213129   3.675   2.489   3.885
 4375TIP3   OH213130   3.902   3.261   4.993
 4375TIP3    H113131   3.807   3.252   4.987
 4375TIP3    H213132   3.934   3.231   4.908
 4376TIP3   OH213133   3.386   3.194   3.850
 4376TIP3    H113134   3.349   3.155   3.930
 4376TIP3    H213135   3.418   3.119   3.799
 4377TIP3   OH213136   3.374   2.845   4.634
 4377TIP3    H113137   3.284   2.822   4.655
 4377TIP3    H213138   3.411   2.766   4.594
 4378TIP3   OH213139   2.523   3.064   4.432
 4378TIP3    H113140   2.537   3.121   4.356
 4378TIP3    H213141   2.433   3.033   4.422
 4379TIP3   OH213142   2.075   2.360   4.124
 4379TIP3    H113143   2.123   2.442   4.138
 4379TIP3    H213144   1.996   2.370   4.177
 4380TIP3   OH213145   2.655   2.827   4.369
 4380TIP3    H113146   2.625   2.915   4.390
 4380TIP3    H213147   2.609   2.771   4.432
 4381TIP3   OH213148   2.799   3.404   4.888
 4381TIP3    H113149   2.836   3.476   4.838
 4381TIP3    H213150   2.874   3.366   4.935
 4382TIP3   OH213151   2.439   3.305   4.268
 4382TIP3    H113152   2.367   3.319   4.329
 4382TIP3    H213153   2.511   3.358   4.303
 4383TIP3   OH213154   3.160   3.056   4.851
 4383TIP3    H113155   3.150   3.050   4.947
 4383TIP3    H213156   3.234   2.999   4.831
 4384TIP3   OH213157   3.119   2.922   3.758
 4384TIP3    H113158   3.186   2.907   3.825
 4384TIP3    H213159   3.036   2.920   3.805
 4385TIP3   OH213160   3.415   3.574   4.896
 4385TIP3    H113161   3.338   3.517   4.898
 4385TIP3    H213162   3.398   3.635   4.824
 4386TIP3   OH213163   4.668   5.258   0.093
 4386TIP3    H113164   4.572   5.260   0.099
 4386TIP3    H213165   4.695   5.199   0.163
 4387TIP3   OH213166   3.317   2.868   3.941
 4387TIP3    H113167   3.304   2.806   4.012
 4387TIP3    H213168   3.412   2.873   3.930
 4388TIP3   OH213169   2.241   3.281   5.026
 4388TIP3    H113170   2.303   3.211   5.003
 4388TIP3    H213171   2.251   3.292   5.120
 4389TIP3   OH213172   2.193   2.606   4.181
 4389TIP3    H113173   2.130   2.661   4.227
 4389TIP3    H213174   2.202   2.647   4.094
 4390TIP3   OH213175   3.343   2.252   5.100
 4390TIP3    H113176   3.423   2.294   5.132
 4390TIP3    H213177   3.334   2.174   5.154
 4391TIP3   OH213178   3.230   1.997   4.274
 4391TIP3    H113179   3.210   2.017   4.182
 4391TIP3    H213180   3.271   2.076   4.307
 4392TIP3   OH213181   2.729   3.124   3.955
 4392TIP3    H113182   2.638   3.102   3.975
 4392TIP3    H213183   2.723   3.195   3.890
 4393TIP3   OH213184   2.895   2.188   4.371
 4393TIP3    H113185   2.956   2.258   4.346
 4393TIP3    H213186   2.911   2.174   4.464
 4394TIP3   OH213187   3.181   2.486   5.161
 4394TIP3    H113188   3.211   2.531   5.240
 4394TIP3    H213189   3.232   2.406   5.157
 4395TIP3   OH213190   3.048   1.898   4.463
 4395TIP3    H113191   3.025   1.975   4.515
 4395TIP3    H213192   3.114   1.930   4.401
 4396TIP3   OH213193   2.452   3.194   4.007
 4396TIP3    H113194   2.471   3.272   3.954
 4396TIP3    H213195   2.446   3.228   4.097
 4397TIP3   OH213196   2.561   1.911   4.265
 4397TIP3    H113197   2.550   2.002   4.294
 4397TIP3    H213198   2.655   1.895   4.270
 4398TIP3   OH213199   3.807   2.395   5.149
 4398TIP3    H113200   3.712   2.398   5.155
 4398TIP3    H213201   3.824   2.350   5.066
 4399TIP3   OH213202   3.465   2.590   4.538
 4399TIP3    H113203   3.387   2.535   4.547
 4399TIP3    H213204   3.532   2.546   4.590
 4400TIP3   OH213205   2.115   2.088   4.138
 4400TIP3    H113206   2.123   2.183   4.143
 4400TIP3    H213207   2.061   2.072   4.060
 4401TIP3   OH213208   3.443   3.560   4.476
 4401TIP3    H113209   3.400   3.610   4.407
 4401TIP3    H213210   3.536   3.574   4.461
 4402TIP3   OH213211   2.510   1.817   5.006
 4402TIP3    H113212   2.481   1.784   4.921
 4402TIP3    H213213   2.503   1.742   5.065
 4403TIP3   OH213214   2.046   3.022   4.372
 4403TIP3    H113215   2.014   3.060   4.454
 4403TIP3    H213216   2.017   3.084   4.304
 4404TIP3   OH213217   0.056   0.532   0.155
 4404TIP3    H113218   0.139   0.540   0.201
 4404TIP3    H213219   0.040   0.437   0.151
 4405TIP3   OH213220   0.525   0.452   0.213
 4405TIP3    H113221   0.620   0.446   0.213
 4405TIP3    H213222   0.497   0.398   0.140
 4406TIP3   OH213223   3.320   3.459   5.256
 4406TIP3    H113224   3.323   3.387   5.319
 4406TIP3    H213225   3.397   3.512   5.275
 4407TIP3   OH213226   4.497   6.066   0.356
 4407TIP3    H113227   4.521   5.973   0.360
 4407TIP3    H213228   4.412   6.066   0.311
 4408TIP3   OH213229   5.120   6.144   0.136
 4408TIP3    H113230   5.081   6.169   0.052
 4408TIP3    H213231   5.155   6.057   0.121
 4409TIP3   OH213232   3.434   3.111   5.054
 4409TIP3    H113233   3.511   3.141   5.005
 4409TIP3    H213234   3.368   3.178   5.037
 4410TIP3   OH213235   4.617   5.820   0.346
 4410TIP3    H113236   4.676   5.759   0.302
 4410TIP3    H213237   4.658   5.835   0.432
 4411TIP3   OH213238   2.549   2.542   4.102
 4411TIP3    H113239   2.495   2.497   4.168
 4411TIP3    H213240   2.567   2.474   4.037
 4412TIP3   OH213241   2.810   2.626   5.323
 4412TIP3    H113242   2.724   2.669   5.328
 4412TIP3    H213243   2.847   2.656   5.240
 4413TIP3   OH213244   2.632   2.343   3.924
 4413TIP3    H113245   2.604   2.340   3.833
 4413TIP3    H213246   2.726   2.357   3.920
 4414TIP3   OH213247   5.489   6.066   0.118
 4414TIP3    H113248   5.553   6.033   0.055
 4414TIP3    H213249   5.496   6.007   0.193
 4415TIP3   OH213250   3.445   2.651   3.590
 4415TIP3    H113251   3.447   2.619   3.499
 4415TIP3    H213252   3.410   2.740   3.582
 4416TIP3   OH213253   5.087   5.460   0.111
 4416TIP3    H113254   5.085   5.384   0.052
 4416TIP3    H213255   5.047   5.530   0.061
 4417TIP3   OH213256   2.926   2.188   5.231
 4417TIP3    H113257   2.952   2.226   5.147
 4417TIP3    H213258   2.834   2.163   5.217
 4418TIP3   OH213259   2.943   2.727   5.110
 4418TIP3    H113260   3.031   2.752   5.083
 4418TIP3    H213261   2.885   2.787   5.063
 4419TIP3   OH213262   5.704   5.746   0.171
 4419TIP3    H113263   5.739   5.657   0.176
 4419TIP3    H213264   5.777   5.799   0.137
 4420TIP3   OH213265   3.560   2.944   5.225
 4420TIP3    H113266   3.505   3.003   5.173
 4420TIP3    H213267   3.649   2.959   5.194
 4421TIP3   OH213268   4.989   5.576   0.346
 4421TIP3    H113269   4.911   5.526   0.372
 4421TIP3    H213270   5.005   5.549   0.256
 4422TIP3   OH213271   3.049   1.954   5.319
 4422TIP3    H113272   3.008   2.035   5.290
 4422TIP3    H213273   2.981   1.887   5.307
 4423TIP3   OH213274   5.343   5.511   0.194
 4423TIP3    H113275   5.330   5.494   0.288
 4423TIP3    H213276   5.259   5.490   0.154
 4424TIP3   OH213277   5.595   5.468   0.084
 4424TIP3    H113278   5.514   5.464   0.136
 4424TIP3    H213279   5.662   5.434   0.144
 4425TIP3   OH213280   5.826   5.411   0.233
 4425TIP3    H113281   5.837   5.316   0.244
 4425TIP3    H213282   5.821   5.445   0.322
 4426TIP3   OH213283   4.827   5.348   0.400
 4426TIP3    H113284   4.832   5.269   0.345
 4426TIP3    H213285   4.817   5.315   0.489
 4427TIP3   OH213286   5.292   5.004   0.272
 4427TIP3    H113287   5.361   4.938   0.271
 4427TIP3    H213288   5.259   5.006   0.182
 4428TIP3   OH213289   5.385   5.246   0.360
 4428TIP3    H113290   5.357   5.163   0.320
 4428TIP3    H213291   5.307   5.301   0.356
 4429TIP3   OH213292   1.925   2.774   4.031
 4429TIP3    H113293   2.006   2.780   3.980
 4429TIP3    H213294   1.889   2.688   4.010
 4430TIP3   OH213295   1.801   3.377   4.510
 4430TIP3    H113296   1.750   3.314   4.459
 4430TIP3    H213297   1.892   3.348   4.498
 4431TIP3   OH213298   3.709   3.626   4.457
 4431TIP3    H113299   3.732   3.661   4.543
 4431TIP3    H213300   3.768   3.669   4.396
 4432TIP3   OH213301   3.728   3.654   4.742
 4432TIP3    H113302   3.682   3.571   4.732
 4432TIP3    H213303   3.800   3.635   4.802
 4433TIP3   OH213304   1.609   0.280   0.006
 4433TIP3    H113305   1.539   0.289   0.071
 4433TIP3    H213306   1.653   0.365   0.007
 4434TIP3   OH213307   3.594   2.857   3.931
 4434TIP3    H113308   3.653   2.927   3.902
 4434TIP3    H213309   3.639   2.816   4.004
 4435TIP3   OH213310   3.723   2.714   4.128
 4435TIP3    H113311   3.654   2.676   4.184
 4435TIP3    H213312   3.785   2.752   4.190
 4436TIP3   OH213313   3.780   3.116   4.557
 4436TIP3    H113314   3.830   3.048   4.512
 4436TIP3    H213315   3.778   3.189   4.494
 4437TIP3   OH213316   3.591   3.409   4.750
 4437TIP3    H113317   3.522   3.453   4.800
 4437TIP3    H213318   3.545   3.367   4.677
 4438TIP3   OH213319   3.645   2.635   3.776
 4438TIP3    H113320   3.579   2.636   3.707
 4438TIP3    H213321   3.627   2.714   3.828
 4439TIP3   OH213322   3.513   2.290   3.733
 4439TIP3    H113323   3.453   2.351   3.690
 4439TIP3    H213324   3.489   2.204   3.698
 4440TIP3   OH213325   3.526   2.578   4.269
 4440TIP3    H113326   3.532   2.484   4.257
 4440TIP3    H213327   3.509   2.590   4.362
 4441TIP3   OH213328   2.153   2.643   5.026
 4441TIP3    H113329   2.144   2.607   4.938
 4441TIP3    H213330   2.247   2.643   5.043
 4442TIP3   OH213331   3.813   2.999   5.127
 4442TIP3    H113332   3.880   2.933   5.109
 4442TIP3    H213333   3.829   3.068   5.062
 4443TIP3   OH213334   3.989   2.789   5.121
 4443TIP3    H113335   3.915   2.747   5.164
 4443TIP3    H213336   4.064   2.732   5.140
 4444TIP3   OH213337   3.463   2.021   3.661
 4444TIP3    H113338   3.527   2.004   3.731
 4444TIP3    H213339   3.381   1.982   3.693
 4445TIP3   OH213340   3.528   2.302   4.152
 4445TIP3    H113341   3.571   2.217   4.164
 4445TIP3    H213342   3.576   2.344   4.081
 4446TIP3   OH213343   3.681   2.461   4.667
 4446TIP3    H113344   3.762   2.481   4.620
 4446TIP3    H213345   3.694   2.501   4.753
 4447TIP3   OH213346   3.753   2.616   4.894
 4447TIP3    H113347   3.678   2.646   4.944
 4447TIP3    H213348   3.786   2.694   4.849
 4448TIP3   OH213349   4.571   5.439   0.377
 4448TIP3    H113350   4.664   5.415   0.380
 4448TIP3    H213351   4.526   5.355   0.368
 4449TIP3   OH213352   6.384   5.278   0.131
 4449TIP3    H113353   6.439   5.215   0.085
 4449TIP3    H213354   6.343   5.329   0.062
 4450TIP3   OH213355   3.638   2.048   4.198
 4450TIP3    H113356   3.683   2.032   4.281
 4450TIP3    H213357   3.574   1.977   4.191
 4451TIP3   OH213358   2.337   2.033   5.030
 4451TIP3    H113359   2.394   1.956   5.032
 4451TIP3    H213360   2.397   2.106   5.013
 4452TIP3   OH213361   2.120   2.303   5.080
 4452TIP3    H113362   2.174   2.297   5.002
 4452TIP3    H213363   2.161   2.371   5.133
 4453TIP3   OH213364   4.065   2.332   5.248
 4453TIP3    H113365   3.983   2.375   5.273
 4453TIP3    H213366   4.037   2.261   5.190
 4454TIP3   OH213367   3.688   1.975   3.827
 4454TIP3    H113368   3.737   1.909   3.778
 4454TIP3    H213369   3.747   2.050   3.833
 4455TIP3   OH213370   2.115   1.809   4.595
 4455TIP3    H113371   2.026   1.797   4.629
 4455TIP3    H213372   2.104   1.864   4.518
 4456TIP3   OH213373   3.282   3.520   4.106
 4456TIP3    H113374   3.329   3.501   4.025
 4456TIP3    H213375   3.334   3.588   4.149
 4457TIP3   OH213376   4.504   4.953   0.104
 4457TIP3    H113377   4.448   4.939   0.181
 4457TIP3    H213378   4.446   4.993   0.039
 4458TIP3   OH213379   0.204   0.253   0.173
 4458TIP3    H113380   0.111   0.232   0.164
 4458TIP3    H213381   0.222   0.245   0.266
 4459TIP3   OH213382   2.567   3.365   5.035
 4459TIP3    H113383   2.518   3.441   5.005
 4459TIP3    H213384   2.651   3.372   4.989
 4460TIP3   OH213385   2.986   3.595   5.169
 4460TIP3    H113386   3.024   3.590   5.257
 4460TIP3    H213387   3.049   3.647   5.119
 4461TIP3   OH213388   3.174   3.750   5.041
 4461TIP3    H113389   3.239   3.700   4.992
 4461TIP3    H213390   3.226   3.808   5.097
 4462TIP3   OH213391   3.973   2.090   5.131
 4462TIP3    H113392   3.885   2.084   5.094
 4462TIP3    H213393   4.008   2.002   5.124
 4463TIP3   OH213394   2.463   3.598   4.924
 4463TIP3    H113395   2.389   3.655   4.945
 4463TIP3    H213396   2.462   3.592   4.828
 4464TIP3   OH213397   2.893   3.609   4.725
 4464TIP3    H113398   2.824   3.624   4.660
 4464TIP3    H213399   2.906   3.695   4.766
 4465TIP3   OH213400   3.158   3.547   4.774
 4465TIP3    H113401   3.065   3.563   4.756
 4465TIP3    H213402   3.205   3.613   4.724
 4466TIP3   OH213403   3.359   3.732   4.674
 4466TIP3    H113404   3.351   3.818   4.633
 4466TIP3    H213405   3.387   3.674   4.604
 4467TIP3   OH213406   2.629   3.378   4.665
 4467TIP3    H113407   2.614   3.284   4.654
 4467TIP3    H213408   2.683   3.384   4.743
 4468TIP3   OH213409   3.185   2.016   4.767
 4468TIP3    H113410   3.143   1.943   4.813
 4468TIP3    H213411   3.253   1.975   4.713
 4469TIP3   OH213412   3.688   1.912   4.655
 4469TIP3    H113413   3.725   1.962   4.582
 4469TIP3    H213414   3.595   1.935   4.655
 4470TIP3   OH213415   3.798   1.994   4.418
 4470TIP3    H113416   3.868   1.936   4.386
 4470TIP3    H213417   3.834   2.082   4.406
 4471TIP3   OH213418   2.422   1.712   4.765
 4471TIP3    H113419   2.332   1.682   4.771
 4471TIP3    H213420   2.474   1.632   4.759
 4472TIP3   OH213421   2.238   1.612   4.422
 4472TIP3    H113422   2.262   1.663   4.345
 4472TIP3    H213423   2.202   1.677   4.483
 4473TIP3   OH213424   2.891   1.753   4.655
 4473TIP3    H113425   2.939   1.801   4.587
 4473TIP3    H213426   2.929   1.783   4.737
 4474TIP3   OH213427   3.401   1.901   4.634
 4474TIP3    H113428   3.407   1.866   4.545
 4474TIP3    H213429   3.401   1.823   4.690
 4475TIP3   OH213430   3.451   1.838   4.200
 4475TIP3    H113431   3.370   1.886   4.220
 4475TIP3    H213432   3.439   1.752   4.239
 4476TIP3   OH213433   1.927   3.193   4.191
 4476TIP3    H113434   1.847   3.145   4.170
 4476TIP3    H213435   1.914   3.279   4.151
 4477TIP3   OH213436   2.344   1.748   4.183
 4477TIP3    H113437   2.388   1.689   4.124
 4477TIP3    H213438   2.413   1.806   4.216
 4478TIP3   OH213439   2.836   1.938   4.278
 4478TIP3    H113440   2.896   1.888   4.334
 4478TIP3    H213441   2.851   2.029   4.303
 4479TIP3   OH213442   2.675   3.361   3.807
 4479TIP3    H113443   2.761   3.363   3.766
 4479TIP3    H213444   2.613   3.354   3.734
 4480TIP3   OH213445   3.423   3.468   3.871
 4480TIP3    H113446   3.419   3.373   3.860
 4480TIP3    H213447   3.386   3.502   3.790
 4481TIP3   OH213448   4.835   5.099   0.289
 4481TIP3    H113449   4.796   5.031   0.343
 4481TIP3    H213450   4.927   5.100   0.315
 4482TIP3   OH213451   5.079   5.082   0.435
 4482TIP3    H113452   5.153   5.049   0.384
 4482TIP3    H213453   5.065   5.016   0.503
 4483TIP3   OH213454   2.003   3.178   3.845
 4483TIP3    H113455   2.018   3.163   3.938
 4483TIP3    H213456   2.078   3.138   3.801
 4484TIP3   OH213457   5.885   5.140   0.253
 4484TIP3    H113458   5.902   5.106   0.341
 4484TIP3    H213459   5.971   5.137   0.210
 4485TIP3   OH213460   3.638   3.618   5.062
 4485TIP3    H113461   3.564   3.588   5.010
 4485TIP3    H213462   3.626   3.712   5.069
 4486TIP3   OH213463   4.920   3.011   3.806
 4486TIP3    H113464   4.885   3.095   3.775
 4486TIP3    H213465   4.851   2.948   3.787
 4487TIP3   OH213466   4.871   2.991   4.249
 4487TIP3    H113467   4.942   2.968   4.309
 4487TIP3    H213468   4.837   2.908   4.218
 4488TIP3   OH213469   4.215   2.876   4.574
 4488TIP3    H113470   4.247   2.814   4.640
 4488TIP3    H213471   4.293   2.906   4.529
 4489TIP3   OH213472   5.170   3.302   3.895
 4489TIP3    H113473   5.091   3.273   3.940
 4489TIP3    H213474   5.196   3.381   3.942
 4490TIP3   OH213475   4.196   3.298   4.285
 4490TIP3    H113476   4.182   3.203   4.286
 4490TIP3    H213477   4.290   3.308   4.267
 4491TIP3   OH213478   3.892   2.495   4.066
 4491TIP3    H113479   3.852   2.579   4.087
 4491TIP3    H213480   3.824   2.447   4.019
 4492TIP3   OH213481   3.953   2.790   4.263
 4492TIP3    H113482   4.006   2.715   4.291
 4492TIP3    H213483   4.010   2.841   4.206
 4493TIP3   OH213484   4.830   3.789   3.901
 4493TIP3    H113485   4.863   3.728   3.835
 4493TIP3    H213486   4.806   3.733   3.975
 4494TIP3   OH213487   4.705   3.221   4.240
 4494TIP3    H113488   4.746   3.137   4.221
 4494TIP3    H213489   4.778   3.278   4.266
 4495TIP3   OH213490   5.746   2.527   4.225
 4495TIP3    H113491   5.757   2.607   4.276
 4495TIP3    H213492   5.791   2.545   4.142
 4496TIP3   OH213493   5.230   2.719   4.230
 4496TIP3    H113494   5.207   2.633   4.266
 4496TIP3    H213495   5.166   2.734   4.161
 4497TIP3   OH213496   4.479   2.370   4.233
 4497TIP3    H113497   4.458   2.444   4.176
 4497TIP3    H213498   4.425   2.298   4.200
 4498TIP3   OH213499   5.180   2.476   3.871
 4498TIP3    H113500   5.248   2.475   3.938
 4498TIP3    H213501   5.224   2.506   3.792
 4499TIP3   OH213502   4.103   2.578   4.359
 4499TIP3    H113503   4.187   2.562   4.404
 4499TIP3    H213504   4.110   2.528   4.278
 4500TIP3   OH213505   4.534   2.777   4.167
 4500TIP3    H113506   4.627   2.757   4.172
 4500TIP3    H213507   4.495   2.698   4.130
 4501TIP3   OH213508   5.791   2.737   4.406
 4501TIP3    H113509   5.743   2.819   4.395
 4501TIP3    H213510   5.738   2.687   4.469
 4502TIP3   OH213511   4.460   2.368   4.685
 4502TIP3    H113512   4.411   2.402   4.610
 4502TIP3    H213513   4.403   2.385   4.761
 4503TIP3   OH213514   4.814   3.222   3.661
 4503TIP3    H113515   4.766   3.195   3.583
 4503TIP3    H213516   4.767   3.299   3.694
 4504TIP3   OH213517   4.560   3.143   4.461
 4504TIP3    H113518   4.502   3.211   4.496
 4504TIP3    H213519   4.603   3.183   4.386
 4505TIP3   OH213520   5.367   2.497   4.088
 4505TIP3    H113521   5.317   2.453   4.157
 4505TIP3    H213522   5.451   2.450   4.086
 4506TIP3   OH213523   4.349   2.476   4.456
 4506TIP3    H113524   4.404   2.550   4.478
 4506TIP3    H213525   4.393   2.434   4.382
 4507TIP3   OH213526   4.399   3.343   4.562
 4507TIP3    H113527   4.380   3.430   4.526
 4507TIP3    H213528   4.322   3.322   4.615
 4508TIP3   OH213529   3.775   3.039   3.834
 4508TIP3    H113530   3.750   3.040   3.741
 4508TIP3    H213531   3.807   3.128   3.850
 4509TIP3   OH213532   5.223   3.542   4.045
 4509TIP3    H113533   5.140   3.534   4.090
 4509TIP3    H213534   5.218   3.625   3.998
 4510TIP3   OH213535   4.805   2.066   4.404
 4510TIP3    H113536   4.795   1.973   4.426
 4510TIP3    H213537   4.731   2.109   4.446
 4511TIP3   OH213538   4.934   3.611   3.702
 4511TIP3    H113539   4.979   3.528   3.689
 4511TIP3    H213540   4.999   3.678   3.681
 4512TIP3   OH213541   5.063   3.376   3.647
 4512TIP3    H113542   5.002   3.306   3.625
 4512TIP3    H213543   5.116   3.341   3.718
 4513TIP3   OH213544   5.455   3.455   4.393
 4513TIP3    H113545   5.446   3.379   4.335
 4513TIP3    H213546   5.439   3.530   4.336
 4514TIP3   OH213547   4.751   2.842   3.662
 4514TIP3    H113548   4.670   2.892   3.652
 4514TIP3    H213549   4.789   2.841   3.574
 4515TIP3   OH213550   4.705   2.642   3.351
 4515TIP3    H113551   4.767   2.692   3.404
 4515TIP3    H213552   4.759   2.577   3.306
 4516TIP3   OH213553   5.646   3.095   4.244
 4516TIP3    H113554   5.567   3.148   4.250
 4516TIP3    H213555   5.682   3.115   4.158
 4517TIP3   OH213556   5.097   2.933   3.613
 4517TIP3    H113557   5.042   2.964   3.685
 4517TIP3    H213558   5.178   2.905   3.655
 4518TIP3   OH213559   5.330   2.982   4.546
 4518TIP3    H113560   5.327   3.059   4.603
 4518TIP3    H213561   5.240   2.970   4.516
 4519TIP3   OH213562   4.324   2.916   4.036
 4519TIP3    H113563   4.284   2.858   3.972
 4519TIP3    H213564   4.400   2.867   4.068
 4520TIP3   OH213565   4.452   3.341   4.171
 4520TIP3    H113566   4.422   3.319   4.083
 4520TIP3    H213567   4.537   3.298   4.179
 4521TIP3   OH213568   4.441   2.903   4.399
 4521TIP3    H113569   4.476   2.871   4.316
 4521TIP3    H213570   4.487   2.985   4.414
 4522TIP3   OH213571   4.994   3.531   4.183
 4522TIP3    H113572   4.973   3.613   4.229
 4522TIP3    H213573   4.973   3.462   4.246
 4523TIP3   OH213574   4.600   3.448   4.721
 4523TIP3    H113575   4.542   3.508   4.768
 4523TIP3    H213576   4.541   3.396   4.665
 4524TIP3   OH213577   4.932   2.786   3.448
 4524TIP3    H113578   4.988   2.846   3.497
 4524TIP3    H213579   4.956   2.798   3.357
 4525TIP3   OH213580   4.356   2.992   4.856
 4525TIP3    H113581   4.363   3.085   4.878
 4525TIP3    H213582   4.262   2.975   4.849
 4526TIP3   OH213583   4.693   3.467   3.714
 4526TIP3    H113584   4.768   3.527   3.718
 4526TIP3    H213585   4.619   3.522   3.690
 4527TIP3   OH213586   4.390   3.608   4.806
 4527TIP3    H113587   4.362   3.614   4.715
 4527TIP3    H213588   4.309   3.590   4.854
 4528TIP3   OH213589   5.442   2.022   3.505
 4528TIP3    H113590   5.364   2.041   3.556
 4528TIP3    H213591   5.456   2.099   3.451
 4529TIP3   OH213592   4.198   2.748   3.850
 4529TIP3    H113593   4.127   2.801   3.815
 4529TIP3    H213594   4.162   2.659   3.853
 4530TIP3   OH213595   5.253   3.398   3.055
 4530TIP3    H113596   5.254   3.491   3.032
 4530TIP3    H213597   5.343   3.369   3.039
 4531TIP3   OH213598   3.977   3.155   4.754
 4531TIP3    H113599   3.909   3.140   4.688
 4531TIP3    H213600   4.013   3.067   4.771
 4532TIP3   OH213601   3.832   3.343   4.394
 4532TIP3    H113602   3.927   3.348   4.381
 4532TIP3    H213603   3.810   3.424   4.441
 4533TIP3   OH213604   5.690   3.803   4.450
 4533TIP3    H113605   5.696   3.709   4.465
 4533TIP3    H213606   5.610   3.830   4.494
 4534TIP3   OH213607   4.790   3.585   4.577
 4534TIP3    H113608   4.786   3.676   4.605
 4534TIP3    H213609   4.722   3.541   4.628
 4535TIP3   OH213610   4.562   3.704   3.525
 4535TIP3    H113611   4.519   3.694   3.440
 4535TIP3    H213612   4.529   3.786   3.560
 4536TIP3   OH213613   3.995   3.551   3.913
 4536TIP3    H113614   4.041   3.538   3.996
 4536TIP3    H213615   3.949   3.469   3.898
 4537TIP3   OH213616   4.742   3.604   3.167
 4537TIP3    H113617   4.796   3.537   3.123
 4537TIP3    H213618   4.785   3.618   3.251
 4538TIP3   OH213619   4.819   3.663   3.436
 4538TIP3    H113620   4.730   3.672   3.471
 4538TIP3    H213621   4.869   3.625   3.508
 4539TIP3   OH213622   5.559   2.898   4.693
 4539TIP3    H113623   5.474   2.920   4.656
 4539TIP3    H213624   5.567   2.803   4.682
 4540TIP3   OH213625   4.182   3.337   4.730
 4540TIP3    H113626   4.230   3.325   4.812
 4540TIP3    H213627   4.108   3.276   4.736
 4541TIP3   OH213628   4.572   2.156   4.538
 4541TIP3    H113629   4.488   2.123   4.504
 4541TIP3    H213630   4.548   2.236   4.584
 4542TIP3   OH213631   5.102   2.263   4.729
 4542TIP3    H113632   5.173   2.246   4.790
 4542TIP3    H213633   5.022   2.250   4.780
 4543TIP3   OH213634   5.010   2.799   3.188
 4543TIP3    H113635   4.974   2.787   3.100
 4543TIP3    H213636   5.091   2.848   3.175
 4544TIP3   OH213637   4.721   2.195   3.501
 4544TIP3    H113638   4.684   2.203   3.589
 4544TIP3    H213639   4.681   2.116   3.466
 4545TIP3   OH213640   4.512   2.681   4.547
 4545TIP3    H113641   4.462   2.691   4.628
 4545TIP3    H213642   4.492   2.760   4.497
 4546TIP3   OH213643   4.393   2.564   4.063
 4546TIP3    H113644   4.302   2.545   4.086
 4546TIP3    H213645   4.402   2.531   3.973
 4547TIP3   OH213646   4.879   2.641   3.795
 4547TIP3    H113647   4.828   2.712   3.755
 4547TIP3    H213648   4.934   2.609   3.724
 4548TIP3   OH213649   5.054   2.909   4.869
 4548TIP3    H113650   5.031   2.838   4.929
 4548TIP3    H213651   5.146   2.927   4.887
 4549TIP3   OH213652   5.027   2.657   4.035
 4549TIP3    H113653   4.965   2.685   3.967
 4549TIP3    H213654   5.072   2.582   3.996
 4550TIP3   OH213655   4.337   2.701   4.760
 4550TIP3    H113656   4.346   2.768   4.827
 4550TIP3    H213657   4.317   2.621   4.808
 4551TIP3   OH213658   4.381   2.180   3.473
 4551TIP3    H113659   4.373   2.183   3.568
 4551TIP3    H213660   4.304   2.227   3.441
 4552TIP3   OH213661   3.928   2.218   4.346
 4552TIP3    H113662   3.998   2.256   4.399
 4552TIP3    H213663   3.967   2.208   4.259
 4553TIP3   OH213664   3.856   2.202   3.847
 4553TIP3    H113665   3.900   2.238   3.769
 4553TIP3    H213666   3.799   2.273   3.876
 4554TIP3   OH213667   5.072   2.898   4.426
 4554TIP3    H113668   5.119   2.831   4.375
 4554TIP3    H213669   5.036   2.850   4.500
 4555TIP3   OH213670   4.742   2.359   4.117
 4555TIP3    H113671   4.662   2.362   4.170
 4555TIP3    H213672   4.813   2.355   4.182
 4556TIP3   OH213673   4.154   2.441   4.127
 4556TIP3    H113674   4.064   2.448   4.094
 4556TIP3    H213675   4.180   2.352   4.105
 4557TIP3   OH213676   4.410   2.436   3.820
 4557TIP3    H113677   4.503   2.455   3.802
 4557TIP3    H213678   4.365   2.456   3.738
 4558TIP3   OH213679   5.176   2.468   4.318
 4558TIP3    H113680   5.176   2.476   4.414
 4558TIP3    H213681   5.104   2.408   4.300
 4559TIP3   OH213682   4.275   2.455   3.585
 4559TIP3    H113683   4.201   2.417   3.537
 4559TIP3    H213684   4.327   2.499   3.517
 4560TIP3   OH213685   5.395   4.148   4.547
 4560TIP3    H113686   5.393   4.169   4.454
 4560TIP3    H213687   5.474   4.191   4.580
 4561TIP3   OH213688   4.341   3.254   4.963
 4561TIP3    H113689   4.421   3.280   5.009
 4561TIP3    H213690   4.272   3.262   5.028
 4562TIP3   OH213691   4.805   2.713   4.221
 4562TIP3    H113692   4.877   2.674   4.171
 4562TIP3    H213693   4.806   2.666   4.305
 4563TIP3   OH213694   4.302   2.193   4.108
 4563TIP3    H113695   4.271   2.117   4.158
 4563TIP3    H213696   4.329   2.157   4.024
 4564TIP3   OH213697   4.781   2.619   4.500
 4564TIP3    H113698   4.692   2.652   4.516
 4564TIP3    H213699   4.838   2.676   4.550
 4565TIP3   OH213700   4.531   3.001   3.616
 4565TIP3    H113701   4.466   2.932   3.602
 4565TIP3    H213702   4.506   3.042   3.699
 4566TIP3   OH213703   5.418   3.249   4.213
 4566TIP3    H113704   5.457   3.298   4.141
 4566TIP3    H213705   5.326   3.239   4.188
 4567TIP3   OH213706   4.972   2.300   3.493
 4567TIP3    H113707   4.878   2.278   3.494
 4567TIP3    H213708   4.974   2.394   3.509
 4568TIP3   OH213709   4.914   3.322   4.618
 4568TIP3    H113710   4.955   3.311   4.703
 4568TIP3    H213711   4.871   3.408   4.622
 4569TIP3   OH213712   5.035   2.560   3.574
 4569TIP3    H113713   5.131   2.567   3.578
 4569TIP3    H213714   5.007   2.636   3.523
 4570TIP3   OH213715   4.208   3.017   4.266
 4570TIP3    H113716   4.240   2.994   4.179
 4570TIP3    H213717   4.267   2.970   4.326
 4571TIP3   OH213718   4.653   3.157   3.429
 4571TIP3    H113719   4.600   3.237   3.425
 4571TIP3    H213720   4.605   3.100   3.488
 4572TIP3   OH213721   4.086   2.926   4.888
 4572TIP3    H113722   4.090   2.907   4.982
 4572TIP3    H213723   4.011   2.876   4.856
 4573TIP3   OH213724   4.819   3.062   4.909
 4573TIP3    H113725   4.752   3.003   4.874
 4573TIP3    H213726   4.902   3.024   4.880
 4574TIP3   OH213727   5.062   3.592   4.493
 4574TIP3    H113728   4.968   3.582   4.506
 4574TIP3    H213729   5.092   3.636   4.572
 4575TIP3   OH213730   5.457   2.651   3.397
 4575TIP3    H113731   5.402   2.604   3.335
 4575TIP3    H213732   5.461   2.740   3.364
 4576TIP3   OH213733   5.704   3.518   4.483
 4576TIP3    H113734   5.609   3.510   4.482
 4576TIP3    H213735   5.732   3.487   4.397
 4577TIP3   OH213736   5.192   3.460   3.322
 4577TIP3    H113737   5.155   3.389   3.374
 4577TIP3    H213738   5.203   3.424   3.234
 4578TIP3   OH213739   4.313   3.325   3.927
 4578TIP3    H113740   4.312   3.410   3.881
 4578TIP3    H213741   4.224   3.292   3.918
 4579TIP3   OH213742   3.866   2.621   3.592
 4579TIP3    H113743   3.897   2.701   3.551
 4579TIP3    H213744   3.808   2.650   3.662
 4580TIP3   OH213745   4.449   3.094   3.858
 4580TIP3    H113746   4.412   3.181   3.873
 4580TIP3    H213747   4.403   3.038   3.921
 4581TIP3   OH213748   4.595   3.660   4.376
 4581TIP3    H113749   4.631   3.733   4.326
 4581TIP3    H213750   4.669   3.626   4.426
 4582TIP3   OH213751   4.255   3.566   3.808
 4582TIP3    H113752   4.159   3.566   3.816
 4582TIP3    H213753   4.277   3.654   3.779
 4583TIP3   OH213754   4.950   3.309   4.346
 4583TIP3    H113755   4.941   3.315   4.441
 4583TIP3    H213756   4.998   3.227   4.331
 4584TIP3   OH213757   4.940   3.200   3.216
 4584TIP3    H113758   4.994   3.179   3.293
 4584TIP3    H213759   4.852   3.173   3.240
 4585TIP3   OH213760   5.209   3.828   4.379
 4585TIP3    H113761   5.135   3.768   4.386
 4585TIP3    H213762   5.185   3.888   4.308
 4586TIP3   OH213763   5.266   3.673   3.015
 4586TIP3    H113764   5.276   3.730   2.939
 4586TIP3    H213765   5.194   3.711   3.065
 4587TIP3   OH213766   4.285   2.448   4.889
 4587TIP3    H113767   4.190   2.458   4.891
 4587TIP3    H213768   4.306   2.395   4.965
 4588TIP3   OH213769   5.115   3.134   3.419
 4588TIP3    H113770   5.099   3.071   3.489
 4588TIP3    H213771   5.210   3.135   3.409
 4589TIP3   OH213772   4.024   3.543   4.534
 4589TIP3    H113773   4.076   3.475   4.576
 4589TIP3    H213774   4.045   3.623   4.582
 4590TIP3   OH213775   4.217   3.210   3.458
 4590TIP3    H113776   4.301   3.226   3.500
 4590TIP3    H213777   4.203   3.286   3.402
 4591TIP3   OH213778   3.982   2.872   3.749
 4591TIP3    H113779   3.908   2.915   3.791
 4591TIP3    H213780   4.001   2.927   3.673
 4592TIP3   OH213781   5.160   2.501   4.593
 4592TIP3    H113782   5.208   2.546   4.662
 4592TIP3    H213783   5.135   2.417   4.633
 4593TIP3   OH213784   5.029   2.255   3.767
 4593TIP3    H113785   5.007   2.273   3.675
 4593TIP3    H213786   5.068   2.336   3.799
 4594TIP3   OH213787   4.489   3.375   3.426
 4594TIP3    H113788   4.408   3.378   3.375
 4594TIP3    H213789   4.493   3.461   3.468
 4595TIP3   OH213790   4.694   2.445   3.856
 4595TIP3    H113791   4.755   2.516   3.834
 4595TIP3    H213792   4.707   2.431   3.950
 4596TIP3   OH213793   4.989   2.752   4.644
 4596TIP3    H113794   5.005   2.808   4.719
 4596TIP3    H213795   5.044   2.675   4.659
 4597TIP3   OH213796   4.844   2.154   3.951
 4597TIP3    H113797   4.819   2.231   4.002
 4597TIP3    H213798   4.910   2.186   3.890
 4598TIP3   OH213799   4.357   2.166   3.752
 4598TIP3    H113800   4.345   2.257   3.780
 4598TIP3    H213801   4.451   2.151   3.757
 4599TIP3   OH213802   4.014   3.046   3.546
 4599TIP3    H113803   4.080   3.109   3.516
 4599TIP3    H213804   4.007   2.983   3.474
 4600TIP3   OH213805   3.922   2.351   3.624
 4600TIP3    H113806   3.919   2.447   3.634
 4600TIP3    H213807   3.896   2.336   3.533
 4601TIP3   OH213808   5.230   3.809   3.946
 4601TIP3    H113809   5.198   3.802   3.856
 4601TIP3    H213810   5.322   3.834   3.936
 4602TIP3   OH213811   4.310   2.071   4.494
 4602TIP3    H113812   4.279   2.040   4.409
 4602TIP3    H213813   4.298   1.996   4.553
 4603TIP3   OH213814   3.836   3.318   3.883
 4603TIP3    H113815   3.777   3.345   3.954
 4603TIP3    H213816   3.795   3.353   3.803
 4604TIP3   OH213817   4.019   3.856   4.954
 4604TIP3    H113818   4.101   3.860   5.004
 4604TIP3    H213819   4.000   3.762   4.947
 4605TIP3   OH213820   4.486   3.785   4.996
 4605TIP3    H113821   4.579   3.767   5.009
 4605TIP3    H213822   4.459   3.725   4.926
 4606TIP3   OH213823   5.129   3.713   4.728
 4606TIP3    H113824   5.128   3.642   4.792
 4606TIP3    H213825   5.202   3.768   4.754
 4607TIP3   OH213826   4.886   3.407   3.037
 4607TIP3    H113827   4.923   3.341   3.095
 4607TIP3    H213828   4.945   3.408   2.961
 4608TIP3   OH213829   4.133   3.249   5.148
 4608TIP3    H113830   4.150   3.156   5.157
 4608TIP3    H213831   4.047   3.254   5.106
 4609TIP3   OH213832   4.750   3.338   4.925
 4609TIP3    H113833   4.706   3.360   4.843
 4609TIP3    H213834   4.783   3.249   4.912
 4610TIP3   OH213835   4.641   3.090   3.156
 4610TIP3    H113836   4.630   3.107   3.250
 4610TIP3    H213837   4.626   2.996   3.146
 4611TIP3   OH213838   5.231   3.365   4.530
 4611TIP3    H113839   5.309   3.404   4.489
 4611TIP3    H213840   5.162   3.428   4.514
 4612TIP3   OH213841   4.249   2.990   5.151
 4612TIP3    H113842   4.326   2.977   5.095
 4612TIP3    H213843   4.285   3.016   5.236
 4613TIP3   OH213844   4.367   2.786   3.603
 4613TIP3    H113845   4.300   2.763   3.667
 4613TIP3    H213846   4.365   2.715   3.539
 4614TIP3   OH213847   4.609   2.876   4.812
 4614TIP3    H113848   4.524   2.920   4.820
 4614TIP3    H213849   4.643   2.905   4.728
 4615TIP3   OH213850   4.429   2.590   3.402
 4615TIP3    H113851   4.399   2.590   3.311
 4615TIP3    H213852   4.523   2.609   3.397
 4616TIP3   OH213853   5.109   3.257   4.908
 4616TIP3    H113854   5.186   3.226   4.861
 4616TIP3    H213855   5.104   3.203   4.986
 4617TIP3   OH213856   5.239   2.915   3.079
 4617TIP3    H113857   5.223   2.873   2.995
 4617TIP3    H213858   5.211   3.006   3.066
 4618TIP3   OH213859   4.724   2.652   4.921
 4618TIP3    H113860   4.723   2.580   4.857
 4618TIP3    H213861   4.686   2.726   4.873
 4619TIP3   OH213862   4.721   2.446   4.726
 4619TIP3    H113863   4.750   2.484   4.644
 4619TIP3    H213864   4.630   2.422   4.711
 4620TIP3   OH213865   4.733   2.977   4.594
 4620TIP3    H113866   4.821   3.002   4.565
 4620TIP3    H213867   4.675   3.039   4.550
 4621TIP3   OH213868   5.323   2.930   4.970
 4621TIP3    H113869   5.365   2.844   4.970
 4621TIP3    H213870   5.392   2.991   4.944
 4622TIP3   OH213871   5.357   3.209   4.712
 4622TIP3    H113872   5.302   3.265   4.658
 4622TIP3    H213873   5.446   3.223   4.679
 4623TIP3   OH213874   4.609   2.734   5.163
 4623TIP3    H113875   4.532   2.680   5.178
 4623TIP3    H213876   4.632   2.718   5.071
 4624TIP3   OH213877   4.849   2.221   4.835
 4624TIP3    H113878   4.805   2.298   4.800
 4624TIP3    H213879   4.786   2.150   4.825
 4625TIP3   OH213880   4.986   2.686   5.015
 4625TIP3    H113881   4.986   2.685   5.110
 4625TIP3    H213882   4.894   2.672   4.991
 4626TIP3   OH213883   5.202   2.621   4.844
 4626TIP3    H113884   5.134   2.639   4.910
 4626TIP3    H213885   5.284   2.618   4.894
 4627TIP3   OH213886   5.422   2.611   5.025
 4627TIP3    H113887   5.447   2.519   5.032
 4627TIP3    H213888   5.432   2.645   5.114
 4628TIP3   OH213889   4.427   2.528   5.226
 4628TIP3    H113890   4.427   2.437   5.196
 4628TIP3    H213891   4.464   2.525   5.314
 4629TIP3   OH213892   4.930   2.345   5.139
 4629TIP3    H113893   4.939   2.369   5.047
 4629TIP3    H213894   4.891   2.422   5.180
 4630TIP3   OH213895   3.737   3.014   3.564
 4630TIP3    H113896   3.824   3.051   3.549
 4630TIP3    H213897   3.731   2.942   3.502
 4631TIP3   OH213898   3.620   3.639   3.962
 4631TIP3    H113899   3.562   3.580   3.914
 4631TIP3    H213900   3.668   3.581   4.022
 4632TIP3   OH213901   3.759   3.481   4.143
 4632TIP3    H113902   3.748   3.411   4.207
 4632TIP3    H213903   3.815   3.546   4.186
 4633TIP3   OH213904   5.490   3.898   3.941
 4633TIP3    H113905   5.521   3.922   4.028
 4633TIP3    H213906   5.556   3.933   3.882
 4634TIP3   OH213907   5.538   3.904   4.224
 4634TIP3    H113908   5.486   3.824   4.218
 4634TIP3    H213909   5.605   3.885   4.289
 4635TIP3   OH213910   5.566   3.596   4.792
 4635TIP3    H113911   5.495   3.607   4.855
 4635TIP3    H213912   5.612   3.680   4.794
 4636TIP3   OH213913   5.394   3.113   3.410
 4636TIP3    H113914   5.453   3.183   3.382
 4636TIP3    H213915   5.436   3.075   3.487
 4637TIP3   OH213916   5.513   2.969   3.615
 4637TIP3    H113917   5.448   2.931   3.674
 4637TIP3    H213918   5.578   3.008   3.673
 4638TIP3   OH213919   5.577   3.383   4.040
 4638TIP3    H113920   5.627   3.312   3.998
 4638TIP3    H213921   5.577   3.453   3.975
 4639TIP3   OH213922   5.388   3.669   4.234
 4639TIP3    H113923   5.320   3.711   4.287
 4639TIP3    H213924   5.339   3.623   4.165
 4640TIP3   OH213925   5.443   2.889   3.259
 4640TIP3    H113926   5.373   2.889   3.193
 4640TIP3    H213927   5.424   2.967   3.313
 4641TIP3   OH213928   5.305   2.544   3.199
 4641TIP3    H113929   5.258   2.585   3.126
 4641TIP3    H213930   5.290   2.450   3.188
 4642TIP3   OH213931   5.315   2.817   3.750
 4642TIP3    H113932   5.325   2.728   3.716
 4642TIP3    H213933   5.287   2.806   3.841
 4643TIP3   OH213934   3.949   2.897   4.515
 4643TIP3    H113935   3.939   2.866   4.425
 4643TIP3    H213936   4.043   2.901   4.529
 4644TIP3   OH213937   5.613   3.256   4.614
 4644TIP3    H113938   5.674   3.183   4.599
 4644TIP3    H213939   5.640   3.323   4.552
 4645TIP3   OH213940   5.778   3.038   4.605
 4645TIP3    H113941   5.704   2.986   4.638
 4645TIP3    H213942   5.856   2.992   4.637
 4646TIP3   OH213943   5.257   2.275   3.177
 4646TIP3    H113944   5.322   2.247   3.242
 4646TIP3    H213945   5.176   2.231   3.203
 4647TIP3   OH213946   5.326   2.558   3.634
 4647TIP3    H113947   5.367   2.473   3.649
 4647TIP3    H213948   5.370   2.593   3.557
 4648TIP3   OH213949   5.491   2.885   4.339
 4648TIP3    H113950   5.451   2.916   4.420
 4648TIP3    H213951   5.551   2.955   4.314
 4649TIP3   OH213952   4.162   2.580   5.167
 4649TIP3    H113953   4.257   2.581   5.182
 4649TIP3    H213954   4.132   2.499   5.207
 4650TIP3   OH213955   6.012   2.472   4.915
 4650TIP3    H113956   6.067   2.409   4.868
 4650TIP3    H213957   5.977   2.528   4.846
 4651TIP3   OH213958   5.431   2.306   3.687
 4651TIP3    H113959   5.478   2.288   3.769
 4651TIP3    H213960   5.369   2.233   3.679
 4652TIP3   OH213961   4.137   2.290   4.515
 4652TIP3    H113962   4.194   2.213   4.519
 4652TIP3    H213963   4.197   2.363   4.500
 4653TIP3   OH213964   3.925   2.557   4.577
 4653TIP3    H113965   3.976   2.549   4.496
 4653TIP3    H213966   3.941   2.647   4.606
 4654TIP3   OH213967   5.872   2.618   4.728
 4654TIP3    H113968   5.783   2.652   4.740
 4654TIP3    H213969   5.860   2.538   4.676
 4655TIP3   OH213970   5.492   2.226   3.327
 4655TIP3    H113971   5.535   2.164   3.269
 4655TIP3    H213972   5.550   2.302   3.328
 4656TIP3   OH213973   3.908   2.056   4.073
 4656TIP3    H113974   3.821   2.051   4.113
 4656TIP3    H213975   3.897   2.115   3.998
 4657TIP3   OH213976   5.123   3.795   3.625
 4657TIP3    H113977   5.150   3.757   3.542
 4657TIP3    H213978   5.135   3.889   3.614
 4658TIP3   OH213979   4.130   2.132   4.896
 4658TIP3    H113980   4.080   2.127   4.977
 4658TIP3    H213981   4.073   2.178   4.835
 4659TIP3   OH213982   4.167   3.571   4.972
 4659TIP3    H113983   4.074   3.554   4.961
 4659TIP3    H213984   4.182   3.563   5.066
 4660TIP3   OH213985   4.365   3.618   4.523
 4660TIP3    H113986   4.313   3.690   4.489
 4660TIP3    H213987   4.450   3.627   4.479
 4661TIP3   OH213988   4.782   3.852   4.651
 4661TIP3    H113989   4.820   3.842   4.738
 4661TIP3    H213990   4.845   3.907   4.604
 4662TIP3   OH213991   4.970   4.007   4.520
 4662TIP3    H113992   5.035   3.946   4.487
 4662TIP3    H213993   5.019   4.066   4.578
 4663TIP3   OH213994   5.790   2.370   4.629
 4663TIP3    H113995   5.708   2.414   4.606
 4663TIP3    H213996   5.776   2.279   4.604
 4664TIP3   OH213997   4.033   3.870   4.563
 4664TIP3    H113998   3.942   3.888   4.539
 4664TIP3    H213999   4.053   3.934   4.632
 4665TIP3   OH214000   4.263   3.850   4.412
 4665TIP3    H114001   4.180   3.857   4.460
 4665TIP3    H214002   4.241   3.874   4.322
 4666TIP3   OH214003   4.683   3.865   4.209
 4666TIP3    H114004   4.611   3.876   4.148
 4666TIP3    H214005   4.694   3.951   4.250
 4667TIP3   OH214006   4.950   3.803   4.252
 4667TIP3    H114007   4.856   3.815   4.241
 4667TIP3    H214008   4.990   3.872   4.199
 4668TIP3   OH214009   5.170   3.993   4.148
 4668TIP3    H114010   5.140   4.066   4.094
 4668TIP3    H214011   5.193   3.924   4.085
 4669TIP3   OH214012   3.941   3.649   4.290
 4669TIP3    H114013   3.967   3.620   4.378
 4669TIP3    H214014   4.010   3.615   4.233
 4670TIP3   OH214015   4.141   3.532   4.150
 4670TIP3    H114016   4.154   3.448   4.194
 4670TIP3    H214017   4.229   3.569   4.142
 4671TIP3   OH214018   4.415   3.620   4.162
 4671TIP3    H114019   4.430   3.527   4.146
 4671TIP3    H214020   4.464   3.638   4.242
 4672TIP3   OH214021   4.978   2.270   4.254
 4672TIP3    H114022   4.936   2.196   4.299
 4672TIP3    H214023   5.048   2.230   4.203
 4673TIP3   OH214024   5.484   2.165   4.141
 4673TIP3    H114025   5.521   2.210   4.065
 4673TIP3    H214026   5.390   2.177   4.133
 4674TIP3   OH214027   5.591   2.259   3.909
 4674TIP3    H114028   5.657   2.197   3.881
 4674TIP3    H214029   5.628   2.345   3.890
 4675TIP3   OH214030   4.221   1.969   4.252
 4675TIP3    H114031   4.130   1.939   4.259
 4675TIP3    H214032   4.272   1.888   4.246
 4676TIP3   OH214033   4.020   1.861   3.899
 4676TIP3    H114034   4.049   1.914   3.825
 4676TIP3    H214035   3.987   1.924   3.963
 4677TIP3   OH214036   4.687   2.008   4.141
 4677TIP3    H114037   4.734   2.057   4.074
 4677TIP3    H214038   4.722   2.040   4.224
 4678TIP3   OH214039   5.204   2.158   4.116
 4678TIP3    H114040   5.195   2.120   4.028
 4678TIP3    H214041   5.200   2.082   4.175
 4679TIP3   OH214042   5.247   2.095   3.687
 4679TIP3    H114043   5.166   2.142   3.708
 4679TIP3    H214044   5.235   2.008   3.726
 4680TIP3   OH214045   3.715   3.430   3.664
 4680TIP3    H114046   3.735   3.386   3.581
 4680TIP3    H214047   3.690   3.518   3.639
 4681TIP3   OH214048   4.132   2.006   3.667
 4681TIP3    H114049   4.177   1.949   3.605
 4681TIP3    H214050   4.201   2.064   3.701
 4682TIP3   OH214051   4.634   2.195   3.764
 4682TIP3    H114052   4.692   2.145   3.821
 4682TIP3    H214053   4.647   2.286   3.789
 4683TIP3   OH214054   4.482   3.637   3.265
 4683TIP3    H114055   4.566   3.618   3.224
 4683TIP3    H214056   4.435   3.553   3.265
 4684TIP3   OH214057   5.210   3.728   3.368
 4684TIP3    H114058   5.208   3.634   3.356
 4684TIP3    H214059   5.165   3.763   3.291
 4685TIP3   OH214060   4.428   2.260   5.149
 4685TIP3    H114061   4.400   2.190   5.207
 4685TIP3    H214062   4.520   2.239   5.129
 4686TIP3   OH214063   5.508   2.343   5.046
 4686TIP3    H114064   5.527   2.313   5.134
 4686TIP3    H214065   5.593   2.340   5.001
 4687TIP3   OH214066   5.439   3.875   4.540
 4687TIP3    H114067   5.360   3.844   4.495
 4687TIP3    H214068   5.423   3.968   4.555
 4688TIP3   OH214069   0.136   3.182   3.798
 4688TIP3    H114070   0.228   3.203   3.784
 4688TIP3    H214071   0.120   3.105   3.743
 4689TIP3   OH214072   5.987   3.127   4.073
 4689TIP3    H114073   6.026   3.077   4.144
 4689TIP3    H214074   6.061   3.152   4.017
 4690TIP3   OH214075   5.985   3.557   3.770
 4690TIP3    H114076   5.967   3.463   3.769
 4690TIP3    H214077   6.081   3.563   3.761
 4691TIP3   OH214078   5.677   2.751   3.541
 4691TIP3    H114079   5.636   2.834   3.566
 4691TIP3    H214080   5.607   2.702   3.497
 4692TIP3   OH214081   5.744   3.053   3.744
 4692TIP3    H114082   5.789   2.975   3.775
 4692TIP3    H214083   5.812   3.107   3.706
 4693TIP3   OH214084   0.041   3.910   3.435
 4693TIP3    H114085   0.123   3.955   3.417
 4693TIP3    H214086  -0.003   3.964   3.500
 4694TIP3   OH214087  -0.018   3.440   3.728
 4694TIP3    H114088   0.036   3.374   3.771
 4694TIP3    H214089   0.038   3.518   3.723
 4695TIP3   OH214090   6.235   2.689   3.731
 4695TIP3    H114091   6.188   2.736   3.662
 4695TIP3    H214092   6.221   2.596   3.709
 4696TIP3   OH214093   5.868   2.832   3.847
 4696TIP3    H114094   5.948   2.821   3.898
 4696TIP3    H214095   5.878   2.774   3.772
 4697TIP3   OH214096   6.294   3.045   3.613
 4697TIP3    H114097   6.361   3.029   3.547
 4697TIP3    H214098   6.231   2.974   3.601
 4698TIP3   OH214099   6.192   2.600   4.182
 4698TIP3    H114100   6.152   2.643   4.106
 4698TIP3    H214101   6.140   2.630   4.256
 4699TIP3   OH214102   0.083   3.544   3.197
 4699TIP3    H114103   0.096   3.496   3.116
 4699TIP3    H214104   0.011   3.605   3.178
 4700TIP3   OH214105   6.335   3.401   3.962
 4700TIP3    H114106   6.279   3.470   3.997
 4700TIP3    H214107   6.369   3.436   3.880
 4701TIP3   OH214108   6.106   2.745   3.960
 4701TIP3    H114109   6.167   2.802   4.008
 4701TIP3    H214110   6.153   2.721   3.880
 4702TIP3   OH214111   6.184   3.603   4.056
 4702TIP3    H114112   6.168   3.690   4.020
 4702TIP3    H214113   6.107   3.584   4.110
 4703TIP3   OH214114   5.572   3.296   3.294
 4703TIP3    H114115   5.532   3.311   3.209
 4703TIP3    H214116   5.597   3.384   3.325
 4704TIP3   OH214117   6.510   3.053   3.190
 4704TIP3    H114118   6.427   3.100   3.180
 4704TIP3    H214119   6.522   3.008   3.106
 4705TIP3   OH214120   6.087   3.191   3.508
 4705TIP3    H114121   6.056   3.127   3.443
 4705TIP3    H214122   6.164   3.149   3.547
 4706TIP3   OH214123   6.249   3.597   3.662
 4706TIP3    H114124   6.215   3.584   3.573
 4706TIP3    H214125   6.323   3.537   3.668
 4707TIP3   OH214126   6.185   3.186   3.896
 4707TIP3    H114127   6.247   3.121   3.864
 4707TIP3    H214128   6.239   3.259   3.924
 4708TIP3   OH214129   0.195   3.927   3.701
 4708TIP3    H114130   0.282   3.905   3.735
 4708TIP3    H214131   0.203   3.919   3.606
 4709TIP3   OH214132   6.398   3.668   4.225
 4709TIP3    H114133   6.355   3.744   4.264
 4709TIP3    H214134   6.333   3.631   4.166
 4710TIP3   OH214135   6.151   3.267   4.327
 4710TIP3    H114136   6.158   3.355   4.362
 4710TIP3    H214137   6.057   3.247   4.328
 4711TIP3   OH214138   6.408   3.752   3.220
 4711TIP3    H114139   6.401   3.826   3.280
 4711TIP3    H214140   6.393   3.789   3.134
 4712TIP3   OH214141   6.180   3.858   4.289
 4712TIP3    H114142   6.142   3.852   4.201
 4712TIP3    H214143   6.108   3.837   4.348
 4713TIP3   OH214144   5.990   3.023   3.306
 4713TIP3    H114145   5.911   3.064   3.271
 4713TIP3    H214146   5.961   2.937   3.336
 4714TIP3   OH214147   5.773   3.410   4.243
 4714TIP3    H114148   5.708   3.393   4.175
 4714TIP3    H214149   5.809   3.324   4.263
 4715TIP3   OH214150   5.636   3.602   3.875
 4715TIP3    H114151   5.730   3.597   3.859
 4715TIP3    H214152   5.625   3.677   3.932
 4716TIP3   OH214153   6.359   3.991   3.040
 4716TIP3    H114154   6.312   3.956   2.964
 4716TIP3    H214155   6.317   4.076   3.056
 4717TIP3   OH214156   5.788   3.803   3.394
 4717TIP3    H114157   5.826   3.794   3.481
 4717TIP3    H214158   5.739   3.722   3.381
 4718TIP3   OH214159   0.067   3.703   2.709
 4718TIP3    H114160   0.118   3.646   2.651
 4718TIP3    H214161   0.092   3.792   2.683
 4719TIP3   OH214162   0.122   3.970   2.953
 4719TIP3    H114163   0.037   3.951   2.993
 4719TIP3    H214164   0.176   3.894   2.976
 4720TIP3   OH214165   5.970   3.600   4.224
 4720TIP3    H114166   6.021   3.588   4.304
 4720TIP3    H214167   5.900   3.535   4.229
 4721TIP3   OH214168   6.332   2.395   4.059
 4721TIP3    H114169   6.258   2.368   4.005
 4721TIP3    H214170   6.303   2.475   4.102
 4722TIP3   OH214171   6.290   2.891   4.095
 4722TIP3    H114172   6.231   2.942   4.150
 4722TIP3    H214173   6.313   2.950   4.023
 4723TIP3   OH214174   6.123   2.844   3.535
 4723TIP3    H114175   6.041   2.804   3.563
 4723TIP3    H214176   6.144   2.799   3.453
 4724TIP3   OH214177   6.100   2.969   4.273
 4724TIP3    H114178   6.107   3.032   4.345
 4724TIP3    H214179   6.087   2.884   4.316
 4725TIP3   OH214180   6.116   2.429   2.990
 4725TIP3    H114181   6.106   2.457   3.081
 4725TIP3    H214182   6.056   2.484   2.940
 4726TIP3   OH214183   5.715   2.481   3.824
 4726TIP3    H114184   5.783   2.517   3.880
 4726TIP3    H214185   5.760   2.461   3.742
 4727TIP3   OH214186   5.652   2.456   3.342
 4727TIP3    H114187   5.696   2.491   3.265
 4727TIP3    H214188   5.588   2.524   3.366
 4728TIP3   OH214189   0.095   2.643   3.632
 4728TIP3    H114190   0.032   2.574   3.608
 4728TIP3    H214191   0.121   2.622   3.721
 4729TIP3   OH214192   5.927   2.679   3.624
 4729TIP3    H114193   5.841   2.686   3.584
 4729TIP3    H214194   5.961   2.595   3.592
 4730TIP3   OH214195   6.140   2.711   3.295
 4730TIP3    H114196   6.227   2.742   3.271
 4730TIP3    H214197   6.088   2.723   3.216
 4731TIP3   OH214198   6.032   2.739   3.053
 4731TIP3    H114199   5.962   2.693   3.006
 4731TIP3    H214200   6.091   2.770   2.984
 4732TIP3   OH214201   6.138   3.520   4.449
 4732TIP3    H114202   6.217   3.542   4.498
 4732TIP3    H214203   6.068   3.519   4.514
 4733TIP3   OH214204   0.071   2.943   3.669
 4733TIP3    H114205   0.036   2.918   3.583
 4733TIP3    H214206   0.066   2.864   3.722
 4734TIP3   OH214207   6.086   2.449   3.580
 4734TIP3    H114208   6.044   2.374   3.623
 4734TIP3    H214209   6.179   2.434   3.593
 4735TIP3   OH214210   0.102   2.803   3.907
 4735TIP3    H114211   0.019   2.849   3.922
 4735TIP3    H214212   0.155   2.825   3.984
 4736TIP3   OH214213   6.294   3.212   3.138
 4736TIP3    H114214   6.221   3.163   3.101
 4736TIP3    H214215   6.254   3.269   3.204
 4737TIP3   OH214216   0.171   3.552   4.200
 4737TIP3    H114217   0.170   3.460   4.227
 4737TIP3    H214218   0.079   3.579   4.201
 4738TIP3   OH214219   5.975   3.278   3.744
 4738TIP3    H114220   6.008   3.256   3.657
 4738TIP3    H214221   6.042   3.244   3.804
 4739TIP3   OH214222   6.321   3.364   2.914
 4739TIP3    H114223   6.272   3.445   2.929
 4739TIP3    H214224   6.308   3.313   2.994
 4740TIP3   OH214225   5.887   3.191   4.382
 4740TIP3    H114226   5.903   3.179   4.475
 4740TIP3    H214227   5.816   3.130   4.361
 4741TIP3   OH214228   0.029   3.314   4.433
 4741TIP3    H114229  -0.032   3.246   4.403
 4741TIP3    H214230   0.113   3.290   4.394
 4742TIP3   OH214231   0.215   3.940   3.976
 4742TIP3    H114232   0.212   3.845   3.966
 4742TIP3    H214233   0.251   3.953   4.064
 4743TIP3   OH214234   6.109   3.608   3.420
 4743TIP3    H114235   6.109   3.684   3.362
 4743TIP3    H214236   6.017   3.581   3.423
 4744TIP3   OH214237   5.676   2.883   3.112
 4744TIP3    H114238   5.717   2.967   3.129
 4744TIP3    H214239   5.596   2.884   3.164
 4745TIP3   OH214240   6.144   3.364   3.300
 4745TIP3    H114241   6.159   3.451   3.337
 4745TIP3    H214242   6.122   3.309   3.375
 4746TIP3   OH214243   6.028   3.824   3.260
 4746TIP3    H114244   5.940   3.832   3.297
 4746TIP3    H214245   6.063   3.914   3.262
 4747TIP3   OH214246   6.065   2.716   4.397
 4747TIP3    H114247   5.970   2.721   4.405
 4747TIP3    H214248   6.092   2.661   4.471
 4748TIP3   OH214249   5.813   3.799   4.024
 4748TIP3    H114250   5.863   3.733   4.072
 4748TIP3    H214251   5.827   3.880   4.073
 4749TIP3   OH214252   6.052   3.455   2.721
 4749TIP3    H114253   6.117   3.393   2.688
 4749TIP3    H214254   6.046   3.437   2.814
 4750TIP3   OH214255   6.008   3.441   3.002
 4750TIP3    H114256   6.064   3.422   3.077
 4750TIP3    H214257   6.001   3.536   3.000
 4751TIP3   OH214258   5.769   3.134   3.188
 4751TIP3    H114259   5.704   3.178   3.242
 4751TIP3    H214260   5.783   3.194   3.114
 4752TIP3   OH214261   6.225   3.611   2.931
 4752TIP3    H114262   6.148   3.664   2.950
 4752TIP3    H214263   6.299   3.672   2.940
 4753TIP3   OH214264   5.991   3.721   3.005
 4753TIP3    H114265   5.979   3.794   2.944
 4753TIP3    H214266   5.997   3.763   3.091
 4754TIP3   OH214267   6.141   2.434   3.266
 4754TIP3    H114268   6.128   2.526   3.290
 4754TIP3    H214269   6.183   2.396   3.343
 4755TIP3   OH214270   5.770   3.316   2.976
 4755TIP3    H114271   5.839   3.381   2.990
 4755TIP3    H214272   5.806   3.255   2.912
 4756TIP3   OH214273   5.704   2.607   3.121
 4756TIP3    H114274   5.717   2.702   3.125
 4756TIP3    H214275   5.637   2.595   3.054
 4757TIP3   OH214276   6.077   2.336   3.973
 4757TIP3    H114277   6.051   2.302   3.887
 4757TIP3    H214278   6.068   2.261   4.032
 4758TIP3   OH214279   5.626   3.569   3.368
 4758TIP3    H114280   5.574   3.600   3.442
 4758TIP3    H214281   5.585   3.609   3.291
 4759TIP3   OH214282   5.816   4.106   4.440
 4759TIP3    H114283   5.895   4.113   4.493
 4759TIP3    H214284   5.795   4.012   4.440
 4760TIP3   OH214285   6.264   4.053   4.464
 4760TIP3    H114286   6.345   4.011   4.492
 4760TIP3    H214287   6.229   3.995   4.396
 4761TIP3   OH214288   6.257   3.632   2.620
 4761TIP3    H114289   6.175   3.607   2.663
 4761TIP3    H214290   6.313   3.555   2.630
 4762TIP3   OH214291   0.495   3.950   4.297
 4762TIP3    H114292   0.416   3.901   4.276
 4762TIP3    H214293   0.551   3.939   4.220
 4763TIP3   OH214294   5.934   3.504   4.635
 4763TIP3    H114295   5.952   3.411   4.644
 4763TIP3    H214296   5.847   3.508   4.596
 4764TIP3   OH214297   5.913   3.131   2.842
 4764TIP3    H114298   5.962   3.107   2.920
 4764TIP3    H214299   5.980   3.154   2.777
 4765TIP3   OH214300   0.045   3.592   4.445
 4765TIP3    H114301  -0.007   3.618   4.368
 4765TIP3    H214302   0.044   3.496   4.442
 4766TIP3   OH214303   6.307   3.362   2.648
 4766TIP3    H114304   6.322   3.351   2.742
 4766TIP3    H214305   6.296   3.272   2.615
 4767TIP3   OH214306   6.050   3.242   4.631
 4767TIP3    H114307   6.131   3.203   4.597
 4767TIP3    H214308   6.073   3.270   4.720
 4768TIP3   OH214309   6.088   3.059   3.046
 4768TIP3    H114310   6.059   3.036   3.134
 4768TIP3    H214311   6.133   2.981   3.015
 4769TIP3   OH214312   6.379   3.120   4.288
 4769TIP3    H114313   6.299   3.172   4.292
 4769TIP3    H214314   6.422   3.147   4.207
 4770TIP3   OH214315   6.230   2.860   2.893
 4770TIP3    H114316   6.176   2.892   2.820
 4770TIP3    H214317   6.268   2.778   2.860
 4771TIP3   OH214318   6.486   2.930   4.456
 4771TIP3    H114319   6.475   2.842   4.422
 4771TIP3    H214320   6.443   2.987   4.392
 4772TIP3   OH214321   6.445   2.645   4.264
 4772TIP3    H114322   6.470   2.714   4.202
 4772TIP3    H214323   6.352   2.628   4.246
 4773TIP3   OH214324   0.106   3.381   3.990
 4773TIP3    H114325   0.123   3.290   3.963
 4773TIP3    H214326   0.012   3.382   4.009
 4774TIP3   OH214327   6.348   3.036   4.662
 4774TIP3    H114328   6.292   2.965   4.692
 4774TIP3    H214329   6.391   3.002   4.583
 4775TIP3   OH214330   0.072   2.411   4.260
 4775TIP3    H114331   0.029   2.496   4.272
 4775TIP3    H214332   0.005   2.355   4.222
 4776TIP3   OH214333   0.222   3.052   4.570
 4776TIP3    H114334   0.265   2.982   4.619
 4776TIP3    H214335   0.142   3.011   4.535
 4777TIP3   OH214336   6.233   2.782   4.707
 4777TIP3    H114337   6.229   2.693   4.671
 4777TIP3    H214338   6.268   2.770   4.795
 4778TIP3   OH214339   0.265   2.759   4.627
 4778TIP3    H114340   0.250   2.665   4.630
 4778TIP3    H214341   0.193   2.796   4.678
 4779TIP3   OH214342   6.022   3.925   2.822
 4779TIP3    H114343   6.114   3.910   2.799
 4779TIP3    H214344   5.986   3.973   2.747
 4780TIP3   OH214345   5.504   3.293   3.013
 4780TIP3    H114346   5.597   3.313   3.001
 4780TIP3    H214347   5.492   3.208   2.970
 4781TIP3   OH214348   5.412   3.893   3.457
 4781TIP3    H114349   5.351   3.836   3.410
 4781TIP3    H214350   5.462   3.833   3.513
 4782TIP3   OH214351   5.561   3.730   3.625
 4782TIP3    H114352   5.552   3.662   3.692
 4782TIP3    H214353   5.610   3.800   3.669
 4783TIP3   OH214354   5.734   3.165   3.993
 4783TIP3    H114355   5.728   3.131   3.904
 4783TIP3    H214356   5.827   3.160   4.014
 4784TIP3   OH214357   5.978   2.877   4.701
 4784TIP3    H114358   6.071   2.856   4.698
 4784TIP3    H214359   5.935   2.793   4.716
 4785TIP3   OH214360   5.913   2.553   4.003
 4785TIP3    H114361   5.970   2.476   4.004
 4785TIP3    H214362   5.972   2.627   3.988
 4786TIP3   OH214363   5.666   2.819   4.074
 4786TIP3    H114364   5.713   2.800   3.993
 4786TIP3    H214365   5.708   2.898   4.109
 4787TIP3   OH214366   5.706   2.312   3.566
 4787TIP3    H114367   5.617   2.306   3.602
 4787TIP3    H214368   5.697   2.369   3.491
 4788TIP3   OH214369   5.925   2.380   4.378
 4788TIP3    H114370   5.886   2.384   4.466
 4788TIP3    H214371   5.862   2.423   4.321
 4789TIP3   OH214372   5.968   3.824   4.467
 4789TIP3    H114373   5.875   3.809   4.451
 4789TIP3    H214374   5.979   3.814   4.561
 4790TIP3   OH214375   6.159   3.869   4.002
 4790TIP3    H114376   6.107   3.939   3.963
 4790TIP3    H214377   6.247   3.906   4.011
 4791TIP3   OH214378   0.229   4.220   3.982
 4791TIP3    H114379   0.324   4.207   3.973
 4791TIP3    H214380   0.220   4.277   4.058
 4792TIP3   OH214381   5.833   4.124   4.047
 4792TIP3    H114382   5.742   4.144   4.025
 4792TIP3    H214383   5.856   4.187   4.116
 4793TIP3   OH214384   6.054   4.091   3.887
 4793TIP3    H114385   5.975   4.104   3.939
 4793TIP3    H214386   6.034   4.128   3.801
 4794TIP3   OH214387   6.513   4.150   3.744
 4794TIP3    H114388   6.437   4.140   3.687
 4794TIP3    H214389   6.506   4.239   3.778
 4795TIP3   OH214390   5.732   3.905   3.778
 4795TIP3    H114391   5.758   3.878   3.866
 4795TIP3    H214392   5.801   3.871   3.721
 4796TIP3   OH214393   5.927   3.785   3.631
 4796TIP3    H114394   5.941   3.704   3.679
 4796TIP3    H214395   6.015   3.820   3.616
 4797TIP3   OH214396   6.196   3.873   3.637
 4797TIP3    H114397   6.228   3.783   3.633
 4797TIP3    H214398   6.200   3.896   3.729
 4798TIP3   OH214399   5.998   2.234   3.730
 4798TIP3    H114400   5.908   2.202   3.738
 4798TIP3    H214401   6.051   2.155   3.731
 4799TIP3   OH214402   5.823   2.117   3.395
 4799TIP3    H114403   5.846   2.172   3.320
 4799TIP3    H214404   5.789   2.178   3.459
 4800TIP3   OH214405   6.440   2.184   3.651
 4800TIP3    H114406   6.522   2.222   3.617
 4800TIP3    H214407   6.388   2.260   3.678
 4801TIP3   OH214408   5.508   3.696   3.157
 4801TIP3    H114409   5.425   3.668   3.119
 4801TIP3    H214410   5.520   3.785   3.124
 4802TIP3   OH214411   5.917   2.268   3.172
 4802TIP3    H114412   5.960   2.209   3.110
 4802TIP3    H214413   5.987   2.323   3.206
 4803TIP3   OH214414   6.412   2.372   3.401
 4803TIP3    H114415   6.496   2.333   3.426
 4803TIP3    H214416   6.403   2.351   3.308
 4804TIP3   OH214417   6.279   3.879   2.747
 4804TIP3    H114418   6.349   3.926   2.702
 4804TIP3    H214419   6.272   3.796   2.699
 4805TIP3   OH214420   6.214   2.499   4.626
 4805TIP3    H114421   6.180   2.427   4.678
 4805TIP3    H214422   6.303   2.514   4.659
 4806TIP3   OH214423   6.454   2.523   4.760
 4806TIP3    H114424   6.511   2.495   4.688
 4806TIP3    H214425   6.441   2.444   4.812
 4807TIP3   OH214426   5.593   3.695   2.805
 4807TIP3    H114427   5.600   3.726   2.895
 4807TIP3    H214428   5.678   3.656   2.787
 4808TIP3   OH214429   0.963   4.304   4.478
 4808TIP3    H114430   0.929   4.389   4.451
 4808TIP3    H214431   0.893   4.242   4.454
 4809TIP3   OH214432   0.957   4.293   4.885
 4809TIP3    H114433   1.004   4.275   4.967
 4809TIP3    H214434   0.917   4.210   4.862
 4810TIP3   OH214435   1.215   4.602   4.564
 4810TIP3    H114436   1.205   4.536   4.633
 4810TIP3    H214437   1.243   4.681   4.611
 4811TIP3   OH214438   0.870   5.037   4.576
 4811TIP3    H114439   0.903   4.973   4.512
 4811TIP3    H214440   0.878   4.992   4.660
 4812TIP3   OH214441   0.781   4.518   4.900
 4812TIP3    H114442   0.816   4.436   4.866
 4812TIP3    H214443   0.857   4.569   4.927
 4813TIP3   OH214444   1.758   3.850   4.919
 4813TIP3    H114445   1.804   3.915   4.972
 4813TIP3    H214446   1.768   3.880   4.829
 4814TIP3   OH214447   1.176   4.016   4.939
 4814TIP3    H114448   1.213   3.931   4.964
 4814TIP3    H214449   1.138   4.001   4.852
 4815TIP3   OH214450   0.546   3.686   4.896
 4815TIP3    H114451   0.516   3.761   4.846
 4815TIP3    H214452   0.509   3.610   4.851
 4816TIP3   OH214453   1.221   3.771   4.528
 4816TIP3    H114454   1.286   3.763   4.598
 4816TIP3    H214455   1.271   3.806   4.454
 4817TIP3   OH214456   0.587   4.088   4.816
 4817TIP3    H114457   0.679   4.064   4.827
 4817TIP3    H214458   0.544   4.007   4.788
 4818TIP3   OH214459   1.855   4.049   5.089
 4818TIP3    H114460   1.770   4.092   5.077
 4818TIP3    H214461   1.892   4.092   5.166
 4819TIP3   OH214462   4.846   0.589   0.021
 4819TIP3    H114463   4.781   0.624  -0.040
 4819TIP3    H214464   4.794   0.547   0.089
 4820TIP3   OH214465   0.847   4.514   4.338
 4820TIP3    H114466   0.818   4.502   4.247
 4820TIP3    H214467   0.799   4.592   4.367
 4821TIP3   OH214468   0.630   4.463   5.124
 4821TIP3    H114469   0.573   4.537   5.143
 4821TIP3    H214470   0.680   4.489   5.047
 4822TIP3   OH214471   1.390   3.791   4.739
 4822TIP3    H114472   1.356   3.762   4.824
 4822TIP3    H214473   1.445   3.866   4.760
 4823TIP3   OH214474   0.394   3.777   5.107
 4823TIP3    H114475   0.443   3.851   5.142
 4823TIP3    H214476   0.454   3.737   5.043
 4824TIP3   OH214477   1.261   4.847   4.708
 4824TIP3    H114478   1.172   4.839   4.740
 4824TIP3    H214479   1.263   4.931   4.661
 4825TIP3   OH214480   1.577   3.726   5.086
 4825TIP3    H114481   1.490   3.754   5.057
 4825TIP3    H214482   1.637   3.762   5.020
 4826TIP3   OH214483   0.894   3.387   5.046
 4826TIP3    H114484   0.881   3.294   5.067
 4826TIP3    H214485   0.820   3.431   5.087
 4827TIP3   OH214486   0.969   4.884   4.366
 4827TIP3    H114487   1.021   4.804   4.354
 4827TIP3    H214488   1.027   4.954   4.334
 4828TIP3   OH214489   1.117   4.663   4.313
 4828TIP3    H114490   1.081   4.582   4.277
 4828TIP3    H214491   1.158   4.637   4.396
 4829TIP3   OH214492   1.496   4.748   5.051
 4829TIP3    H114493   1.485   4.671   4.994
 4829TIP3    H214494   1.481   4.823   4.994
 4830TIP3   OH214495   0.800   4.138   4.321
 4830TIP3    H114496   0.725   4.196   4.307
 4830TIP3    H214497   0.848   4.141   4.239
 4831TIP3   OH214498   0.769   3.945   4.015
 4831TIP3    H114499   0.830   3.993   4.071
 4831TIP3    H214500   0.825   3.888   3.963
 4832TIP3   OH214501   1.683   4.390   4.908
 4832TIP3    H114502   1.601   4.440   4.910
 4832TIP3    H214503   1.721   4.411   4.823
 4833TIP3   OH214504   1.144   4.234   4.286
 4833TIP3    H114505   1.090   4.261   4.360
 4833TIP3    H214506   1.227   4.207   4.325
 4834TIP3   OH214507   1.372   4.256   5.213
 4834TIP3    H114508   1.379   4.339   5.261
 4834TIP3    H214509   1.288   4.261   5.168
 4835TIP3   OH214510   0.406   4.244   4.676
 4835TIP3    H114511   0.346   4.175   4.647
 4835TIP3    H214512   0.471   4.198   4.729
 4836TIP3   OH214513   0.549   4.669   4.877
 4836TIP3    H114514   0.497   4.633   4.805
 4836TIP3    H214515   0.632   4.622   4.872
 4837TIP3   OH214516   0.563   4.195   5.072
 4837TIP3    H114517   0.568   4.176   4.979
 4837TIP3    H214518   0.578   4.289   5.078
 4838TIP3   OH214519   1.015   4.838   4.829
 4838TIP3    H114520   1.017   4.918   4.882
 4838TIP3    H214521   1.017   4.767   4.893
 4839TIP3   OH214522   0.988   4.086   4.117
 4839TIP3    H114523   1.046   4.143   4.166
 4839TIP3    H214524   1.011   4.100   4.025
 4840TIP3   OH214525   0.720   4.768   4.375
 4840TIP3    H114526   0.808   4.803   4.383
 4840TIP3    H214527   0.665   4.843   4.353
 4841TIP3   OH214528   1.485   3.324   4.162
 4841TIP3    H114529   1.407   3.341   4.214
 4841TIP3    H214530   1.498   3.403   4.109
 4842TIP3   OH214531   1.304   4.694   3.719
 4842TIP3    H114532   1.304   4.788   3.700
 4842TIP3    H214533   1.393   4.666   3.701
 4843TIP3   OH214534   1.730   5.094   5.109
 4843TIP3    H114535   1.732   4.999   5.124
 4843TIP3    H214536   1.648   5.122   5.149
 4844TIP3   OH214537   0.849   4.886   5.240
 4844TIP3    H114538   0.879   4.972   5.270
 4844TIP3    H214539   0.784   4.906   5.173
 4845TIP3   OH214540   0.601   4.994   4.203
 4845TIP3    H114541   0.562   4.988   4.116
 4845TIP3    H214542   0.586   5.085   4.230
 4846TIP3   OH214543   0.807   4.914   3.830
 4846TIP3    H114544   0.860   4.843   3.795
 4846TIP3    H214545   0.840   4.926   3.919
 4847TIP3   OH214546   0.857   4.964   4.100
 4847TIP3    H114547   0.771   4.966   4.141
 4847TIP3    H214548   0.915   4.928   4.168
 4848TIP3   OH214549   5.953   1.160   0.083
 4848TIP3    H114550   5.868   1.169   0.040
 4848TIP3    H214551   5.971   1.066   0.079
 4849TIP3   OH214552   0.671   3.501   5.153
 4849TIP3    H114553   0.626   3.416   5.155
 4849TIP3    H214554   0.617   3.557   5.209
 4850TIP3   OH214555   5.492   0.511   0.081
 4850TIP3    H114556   5.560   0.486   0.143
 4850TIP3    H214557   5.410   0.491   0.126
 4851TIP3   OH214558   5.712   0.931   0.001
 4851TIP3    H114559   5.671   0.933   0.088
 4851TIP3    H214560   5.700   1.020  -0.033
 4852TIP3   OH214561   1.053   4.110   3.855
 4852TIP3    H114562   1.012   4.095   3.769
 4852TIP3    H214563   1.136   4.152   3.835
 4853TIP3   OH214564   0.790   3.490   4.168
 4853TIP3    H114565   0.760   3.495   4.259
 4853TIP3    H214566   0.745   3.413   4.132
 4854TIP3   OH214567   0.562   3.971   5.221
 4854TIP3    H114568   0.559   4.008   5.309
 4854TIP3    H214569   0.556   4.048   5.163
 4855TIP3   OH214570   0.437   3.869   4.727
 4855TIP3    H114571   0.351   3.837   4.756
 4855TIP3    H214572   0.455   3.820   4.647
 4856TIP3   OH214573   0.931   3.940   4.455
 4856TIP3    H114574   0.879   4.010   4.414
 4856TIP3    H214575   0.986   3.906   4.384
 4857TIP3   OH214576   5.457   1.159   0.219
 4857TIP3    H114577   5.420   1.091   0.276
 4857TIP3    H214578   5.550   1.162   0.243
 4858TIP3   OH214579   1.085   3.962   4.686
 4858TIP3    H114580   1.020   3.986   4.620
 4858TIP3    H214581   1.129   3.886   4.649
 4859TIP3   OH214582   0.439   3.485   4.130
 4859TIP3    H114583   0.449   3.485   4.226
 4859TIP3    H214584   0.345   3.499   4.117
 4860TIP3   OH214585   1.101   4.209   5.112
 4860TIP3    H114586   1.133   4.145   5.049
 4860TIP3    H214587   1.070   4.157   5.185
 4861TIP3   OH214588   0.803   3.667   4.790
 4861TIP3    H114589   0.725   3.671   4.844
 4861TIP3    H214590   0.875   3.657   4.853
 4862TIP3   OH214591   0.498   3.741   4.484
 4862TIP3    H114592   0.590   3.733   4.509
 4862TIP3    H214593   0.498   3.798   4.407
 4863TIP3   OH214594   1.250   3.752   4.989
 4863TIP3    H114595   1.225   3.768   5.080
 4863TIP3    H214596   1.182   3.693   4.956
 4864TIP3   OH214597   0.313   3.783   4.206
 4864TIP3    H114598   0.260   3.703   4.207
 4864TIP3    H214599   0.371   3.772   4.131
 4865TIP3   OH214600   1.432   5.452   5.196
 4865TIP3    H114601   1.428   5.474   5.103
 4865TIP3    H214602   1.512   5.494   5.227
 4866TIP3   OH214603   0.852   4.023   4.879
 4866TIP3    H114604   0.918   3.970   4.834
 4866TIP3    H214605   0.847   3.985   4.966
 4867TIP3   OH214606   0.433   3.501   4.730
 4867TIP3    H114607   0.394   3.443   4.796
 4867TIP3    H214608   0.472   3.441   4.666
 4868TIP3   OH214609   0.828   3.929   5.140
 4868TIP3    H114610   0.739   3.942   5.171
 4868TIP3    H214611   0.884   3.970   5.206
 4869TIP3   OH214612   0.595   4.318   4.279
 4869TIP3    H114613   0.512   4.271   4.264
 4869TIP3    H214614   0.581   4.364   4.362
 4870TIP3   OH214615   1.448   4.537   4.878
 4870TIP3    H114616   1.482   4.585   4.802
 4870TIP3    H214617   1.367   4.498   4.846
 4871TIP3   OH214618   0.998   3.635   4.071
 4871TIP3    H114619   0.919   3.596   4.108
 4871TIP3    H214620   1.021   3.705   4.132
 4872TIP3   OH214621   0.945   4.624   5.268
 4872TIP3    H114622   0.962   4.605   5.360
 4872TIP3    H214623   0.912   4.714   5.267
 4873TIP3   OH214624   1.082   3.847   4.234
 4873TIP3    H114625   1.177   3.853   4.248
 4873TIP3    H214626   1.060   3.927   4.185
 4874TIP3   OH214627   0.712   4.464   4.086
 4874TIP3    H114628   0.660   4.544   4.090
 4874TIP3    H214629   0.672   4.407   4.152
 4875TIP3   OH214630   5.207   1.285   0.226
 4875TIP3    H114631   5.159   1.266   0.146
 4875TIP3    H214632   5.294   1.248   0.212
 4876TIP3   OH214633   1.119   4.886   5.137
 4876TIP3    H114634   1.025   4.868   5.140
 4876TIP3    H214635   1.137   4.933   5.218
 4877TIP3   OH214636   1.504   3.955   4.064
 4877TIP3    H114637   1.447   3.908   4.004
 4877TIP3    H214638   1.509   4.044   4.028
 4878TIP3   OH214639   1.743   4.813   5.143
 4878TIP3    H114640   1.649   4.800   5.133
 4878TIP3    H214641   1.780   4.786   5.059
 4879TIP3   OH214642   1.230   4.768   3.982
 4879TIP3    H114643   1.202   4.698   4.041
 4879TIP3    H214644   1.246   4.724   3.899
 4880TIP3   OH214645   1.212   4.405   4.782
 4880TIP3    H114646   1.122   4.381   4.803
 4880TIP3    H214647   1.250   4.326   4.744
 4881TIP3   OH214648   0.501   4.433   4.504
 4881TIP3    H114649   0.484   4.517   4.546
 4881TIP3    H214650   0.468   4.368   4.566
 4882TIP3   OH214651   0.687   4.959   5.035
 4882TIP3    H114652   0.683   5.041   4.986
 4882TIP3    H214653   0.718   4.895   4.971
 4883TIP3   OH214654   1.017   4.616   5.002
 4883TIP3    H114655   1.000   4.608   5.096
 4883TIP3    H214656   1.096   4.563   4.987
 4884TIP3   OH214657   0.993   4.505   3.884
 4884TIP3    H114658   1.043   4.481   3.962
 4884TIP3    H214659   0.906   4.468   3.898
 4885TIP3   OH214660   1.253   5.137   5.046
 4885TIP3    H114661   1.178   5.076   5.043
 4885TIP3    H214662   1.241   5.193   4.969
 4886TIP3   OH214663   1.318   4.968   3.687
 4886TIP3    H114664   1.349   5.035   3.626
 4886TIP3    H214665   1.242   5.009   3.730
 4887TIP3   OH214666   1.158   4.433   4.093
 4887TIP3    H114667   1.146   4.366   4.161
 4887TIP3    H214668   1.253   4.435   4.078
 4888TIP3   OH214669   0.381   4.454   3.851
 4888TIP3    H114670   0.356   4.367   3.819
 4888TIP3    H214671   0.355   4.454   3.943
 4889TIP3   OH214672   0.326   4.458   4.125
 4889TIP3    H114673   0.408   4.450   4.173
 4889TIP3    H214674   0.262   4.484   4.191
 4890TIP3   OH214675   1.179   3.812   5.250
 4890TIP3    H114676   1.260   3.853   5.281
 4890TIP3    H214677   1.172   3.731   5.301
 4891TIP3   OH214678   1.073   3.563   4.428
 4891TIP3    H114679   1.037   3.603   4.349
 4891TIP3    H214680   1.121   3.634   4.471
 4892TIP3   OH214681   0.556   4.687   4.110
 4892TIP3    H114682   0.555   4.747   4.184
 4892TIP3    H214683   0.554   4.744   4.033
 4893TIP3   OH214684   0.764   3.739   4.533
 4893TIP3    H114685   0.821   3.813   4.509
 4893TIP3    H214686   0.780   3.726   4.626
 4894TIP3   OH214687   5.358   0.973   0.006
 4894TIP3    H114688   5.397   1.009   0.085
 4894TIP3    H214689   5.406   0.891  -0.010
 4895TIP3   OH214690   0.903   3.454   4.625
 4895TIP3    H114691   0.884   3.529   4.681
 4895TIP3    H214692   0.967   3.487   4.562
 4896TIP3   OH214693   0.441   3.463   4.408
 4896TIP3    H114694   0.419   3.544   4.456
 4896TIP3    H214695   0.536   3.456   4.416
 4897TIP3   OH214696   1.647   3.955   5.307
 4897TIP3    H114697   1.552   3.953   5.312
 4897TIP3    H214698   1.668   3.916   5.222
 4898TIP3   OH214699   1.303   4.153   4.685
 4898TIP3    H114700   1.227   4.096   4.697
 4898TIP3    H214701   1.372   4.112   4.737
 4899TIP3   OH214702   1.285   5.112   4.624
 4899TIP3    H114703   1.243   5.162   4.554
 4899TIP3    H214704   1.379   5.128   4.611
 4900TIP3   OH214705   0.281   3.356   5.176
 4900TIP3    H114706   0.295   3.380   5.084
 4900TIP3    H214707   0.365   3.321   5.204
 4901TIP3   OH214708   0.516   4.681   3.790
 4901TIP3    H114709   0.468   4.603   3.818
 4901TIP3    H214710   0.593   4.648   3.745
 4902TIP3   OH214711   5.445   1.936   0.082
 4902TIP3    H114712   5.443   1.853   0.130
 4902TIP3    H214713   5.537   1.961   0.081
 4903TIP3   OH214714   0.948   4.713   3.707
 4903TIP3    H114715   0.983   4.648   3.768
 4903TIP3    H214716   1.006   4.708   3.631
 4904TIP3   OH214717   5.175   1.560   0.263
 4904TIP3    H114718   5.108   1.585   0.200
 4904TIP3    H214719   5.181   1.465   0.255
 4905TIP3   OH214720   0.723   4.387   3.825
 4905TIP3    H114721   0.705   4.408   3.916
 4905TIP3    H214722   0.709   4.292   3.819
 4906TIP3   OH214723   1.279   4.664   5.197
 4906TIP3    H114724   1.359   4.694   5.153
 4906TIP3    H214725   1.213   4.730   5.174
 4907TIP3   OH214726   0.365   4.182   4.244
 4907TIP3    H114727   0.283   4.170   4.292
 4907TIP3    H214728   0.417   4.105   4.265
 4908TIP3   OH214729   4.954   1.078   0.129
 4908TIP3    H114730   4.906   1.148   0.175
 4908TIP3    H214731   5.009   1.125   0.066
 4909TIP3   OH214732   0.510   3.857   4.026
 4909TIP3    H114733   0.477   3.868   3.937
 4909TIP3    H214734   0.603   3.879   4.021
 4910TIP3   OH214735   5.526   1.448   0.260
 4910TIP3    H114736   5.618   1.444   0.284
 4910TIP3    H214737   5.503   1.358   0.238
 4911TIP3   OH214738   1.283   4.216   3.742
 4911TIP3    H114739   1.268   4.172   3.658
 4911TIP3    H214740   1.255   4.306   3.727
 4912TIP3   OH214741   5.103   0.885   0.255
 4912TIP3    H114742   5.108   0.806   0.201
 4912TIP3    H214743   5.054   0.947   0.202
 4913TIP3   OH214744   5.100   0.682   0.063
 4913TIP3    H114745   5.132   0.701  -0.025
 4913TIP3    H214746   5.010   0.653   0.051
 4914TIP3   OH214747   0.786   4.298   5.282
 4914TIP3    H114748   0.864   4.280   5.228
 4914TIP3    H214749   0.734   4.357   5.228
 4915TIP3   OH214750   5.714   1.177   0.316
 4915TIP3    H114751   5.771   1.101   0.334
 4915TIP3    H214752   5.774   1.252   0.317
 4916TIP3   OH214753   5.751   1.426   0.045
 4916TIP3    H114754   5.690   1.486   0.002
 4916TIP3    H214755   5.837   1.453   0.013
 4917TIP3   OH214756   4.997   0.983   0.490
 4917TIP3    H114757   4.903   0.967   0.488
 4917TIP3    H214758   5.029   0.951   0.406
 4918TIP3   OH214759   5.229   0.453   0.155
 4918TIP3    H114760   5.185   0.533   0.124
 4918TIP3    H214761   5.165   0.384   0.142
 4919TIP3   OH214762   5.342   0.963   0.374
 4919TIP3    H114763   5.338   0.925   0.462
 4919TIP3    H214764   5.264   0.929   0.330
 4920TIP3   OH214765   5.593   0.892   0.241
 4920TIP3    H114766   5.520   0.894   0.304
 4920TIP3    H214767   5.669   0.869   0.294
 4921TIP3   OH214768   5.827   0.844   0.387
 4921TIP3    H114769   5.840   0.750   0.396
 4921TIP3    H214770   5.822   0.876   0.478
 4922TIP3   OH214771   5.298   0.441   0.417
 4922TIP3    H114772   5.364   0.372   0.417
 4922TIP3    H214773   5.267   0.445   0.327
 4923TIP3   OH214774   5.395   0.660   0.547
 4923TIP3    H114775   5.365   0.584   0.497
 4923TIP3    H214776   5.317   0.715   0.555
 4924TIP3   OH214777   1.548   5.186   4.606
 4924TIP3    H114778   1.571   5.218   4.693
 4924TIP3    H214779   1.609   5.231   4.547
 4925TIP3   OH214780   1.565   5.212   4.888
 4925TIP3    H114781   1.521   5.127   4.882
 4925TIP3    H214782   1.641   5.196   4.945
 4926TIP3   OH214783   5.991   1.827   0.155
 4926TIP3    H114784   5.896   1.836   0.147
 4926TIP3    H214785   6.024   1.916   0.154
 4927TIP3   OH214786   1.437   4.416   4.072
 4927TIP3    H114787   1.497   4.484   4.042
 4927TIP3    H214788   1.480   4.379   4.150
 4928TIP3   OH214789   1.563   4.283   4.280
 4928TIP3    H114790   1.498   4.243   4.337
 4928TIP3    H214791   1.629   4.319   4.339
 4929TIP3   OH214792   1.614   4.674   4.703
 4929TIP3    H114793   1.670   4.607   4.665
 4929TIP3    H214794   1.618   4.747   4.641
 4930TIP3   OH214795   1.429   4.967   4.899
 4930TIP3    H114796   1.358   5.007   4.950
 4930TIP3    H214797   1.383   4.923   4.827
 4931TIP3   OH214798   1.490   4.192   3.920
 4931TIP3    H114799   1.419   4.190   3.855
 4931TIP3    H214800   1.471   4.268   3.974
 4932TIP3   OH214801   1.346   3.846   3.872
 4932TIP3    H114802   1.310   3.881   3.790
 4932TIP3    H214803   1.327   3.752   3.867
 4933TIP3   OH214804   1.369   4.136   4.418
 4933TIP3    H114805   1.377   4.041   4.409
 4933TIP3    H214806   1.350   4.151   4.510
 4934TIP3   OH214807   1.669   4.563   5.275
 4934TIP3    H114808   1.732   4.493   5.259
 4934TIP3    H214809   1.699   4.636   5.221
 4935TIP3   OH214810   1.832   4.346   5.274
 4935TIP3    H114811   1.758   4.303   5.317
 4935TIP3    H214812   1.907   4.289   5.291
 4936TIP3   OH214813   1.298   3.577   3.864
 4936TIP3    H114814   1.378   3.548   3.909
 4936TIP3    H214815   1.232   3.512   3.890
 4937TIP3   OH214816   1.365   3.854   4.298
 4937TIP3    H114817   1.410   3.771   4.310
 4937TIP3    H214818   1.412   3.897   4.226
 4938TIP3   OH214819   1.517   4.029   4.812
 4938TIP3    H114820   1.599   4.047   4.766
 4938TIP3    H214821   1.532   4.059   4.901
 4939TIP3   OH214822   1.598   4.166   5.046
 4939TIP3    H114823   1.525   4.197   5.099
 4939TIP3    H214824   1.629   4.245   5.001
 4940TIP3   OH214825   6.387   0.708   0.280
 4940TIP3    H114826   6.448   0.648   0.236
 4940TIP3    H214827   6.348   0.759   0.209
 4941TIP3   OH214828   1.480   3.604   4.345
 4941TIP3    H114829   1.520   3.595   4.431
 4941TIP3    H214830   1.417   3.532   4.340
 4942TIP3   OH214831   6.237   0.825   0.086
 4942TIP3    H114832   6.152   0.867   0.099
 4942TIP3    H214833   6.218   0.747   0.034
 4943TIP3   OH214834   1.549   3.527   3.980
 4943TIP3    H114835   1.616   3.465   3.949
 4943TIP3    H214836   1.595   3.611   3.985
 4944TIP3   OH214837   1.115   5.078   4.251
 4944TIP3    H114838   1.171   5.066   4.173
 4944TIP3    H214839   1.160   5.146   4.302
 4945TIP3   OH214840   0.842   5.168   5.255
 4945TIP3    H114841   0.855   5.186   5.348
 4945TIP3    H214842   0.916   5.211   5.212
 4946TIP3   OH214843   1.049   5.317   5.155
 4946TIP3    H114844   1.122   5.268   5.119
 4946TIP3    H214845   1.088   5.374   5.221
 4947TIP3   OH214846   1.807   3.650   5.292
 4947TIP3    H114847   1.729   3.657   5.237
 4947TIP3    H214848   1.844   3.565   5.269
 4948TIP3   OH214849   0.743   5.179   4.857
 4948TIP3    H114850   0.728   5.205   4.766
 4948TIP3    H214851   0.750   5.261   4.905
 4949TIP3   OH214852   1.002   5.099   4.918
 4949TIP3    H114853   0.910   5.122   4.905
 4949TIP3    H214854   1.050   5.170   4.874
 4950TIP3   OH214855   1.196   5.284   4.820
 4950TIP3    H114856   1.188   5.370   4.781
 4950TIP3    H214857   1.226   5.227   4.749
 4951TIP3   OH214858   1.039   3.579   4.909
 4951TIP3    H114859   0.995   3.509   4.958
 4951TIP3    H214860   1.106   3.533   4.857
 4952TIP3   OH214861   1.532   3.466   4.806
 4952TIP3    H114862   1.563   3.522   4.736
 4952TIP3    H214863   1.438   3.482   4.810
 4953TIP3   OH214864   1.627   3.574   4.575
 4953TIP3    H114865   1.694   3.509   4.556
 4953TIP3    H214866   1.669   3.658   4.561
 4954TIP3   OH214867   0.346   3.315   4.907
 4954TIP3    H114868   0.272   3.269   4.866
 4954TIP3    H214869   0.404   3.245   4.936
 4955TIP3   OH214870   0.714   3.316   4.791
 4955TIP3    H114871   0.782   3.361   4.741
 4955TIP3    H214872   0.728   3.345   4.882
 4956TIP3   OH214873   1.251   3.455   4.779
 4956TIP3    H114874   1.260   3.415   4.692
 4956TIP3    H214875   1.245   3.382   4.839
 4957TIP3   OH214876   1.289   3.399   4.347
 4957TIP3    H114877   1.209   3.446   4.371
 4957TIP3    H214878   1.279   3.312   4.388
 4958TIP3   OH214879   0.262   3.281   4.308
 4958TIP3    H114880   0.302   3.228   4.239
 4958TIP3    H214881   0.336   3.324   4.351
 4959TIP3   OH214882   0.709   3.494   4.429
 4959TIP3    H114883   0.758   3.440   4.491
 4959TIP3    H214884   0.725   3.584   4.457
 4960TIP3   OH214885   0.549   4.914   3.934
 4960TIP3    H114886   0.633   4.935   3.895
 4960TIP3    H214887   0.511   4.848   3.876
 4961TIP3   OH214888   1.267   5.036   4.021
 4961TIP3    H114889   1.259   4.941   4.013
 4961TIP3    H214890   1.224   5.070   3.943
 4962TIP3   OH214891   4.834   0.444   0.512
 4962TIP3    H114892   4.830   0.359   0.555
 4962TIP3    H214893   4.914   0.484   0.545
 4963TIP3   OH214894   5.093   0.491   0.618
 4963TIP3    H114895   5.148   0.492   0.540
 4963TIP3    H214896   5.128   0.419   0.671
 4964TIP3   OH214897   5.892   0.574   0.402
 4964TIP3    H114898   5.908   0.546   0.492
 4964TIP3    H214899   5.978   0.569   0.360
 4965TIP3   OH214900   1.485   5.185   5.198
 4965TIP3    H114901   1.411   5.142   5.156
 4965TIP3    H214902   1.465   5.278   5.192
 4966TIP3   OH214903   2.754   4.558   3.959
 4966TIP3    H114904   2.724   4.646   3.937
 4966TIP3    H214905   2.681   4.501   3.934
 4967TIP3   OH214906   2.753   4.554   4.373
 4967TIP3    H114907   2.799   4.539   4.455
 4967TIP3    H214908   2.711   4.471   4.353
 4968TIP3   OH214909   2.046   4.430   4.735
 4968TIP3    H114910   2.074   4.364   4.799
 4968TIP3    H214911   2.123   4.484   4.722
 4969TIP3   OH214912   3.012   4.861   4.050
 4969TIP3    H114913   3.002   4.794   4.118
 4969TIP3    H214914   3.037   4.940   4.098
 4970TIP3   OH214915   2.032   4.845   4.425
 4970TIP3    H114916   2.019   4.750   4.431
 4970TIP3    H214917   2.127   4.856   4.422
 4971TIP3   OH214918   1.729   4.072   4.200
 4971TIP3    H114919   1.685   4.153   4.226
 4971TIP3    H214920   1.658   4.017   4.165
 4972TIP3   OH214921   1.803   4.355   4.410
 4972TIP3    H114922   1.852   4.278   4.439
 4972TIP3    H214923   1.871   4.419   4.386
 4973TIP3   OH214924   2.666   5.304   4.059
 4973TIP3    H114925   2.698   5.235   4.001
 4973TIP3    H214926   2.660   5.263   4.145
 4974TIP3   OH214927   2.557   4.780   4.393
 4974TIP3    H114928   2.598   4.700   4.360
 4974TIP3    H214929   2.630   4.834   4.422
 4975TIP3   OH214930   3.583   4.098   4.397
 4975TIP3    H114931   3.604   4.182   4.438
 4975TIP3    H214932   3.606   4.109   4.305
 4976TIP3   OH214933   2.970   4.266   4.424
 4976TIP3    H114934   3.017   4.186   4.448
 4976TIP3    H214935   2.934   4.247   4.337
 4977TIP3   OH214936   2.288   3.927   4.393
 4977TIP3    H114937   2.268   3.999   4.333
 4977TIP3    H214938   2.208   3.874   4.394
 4978TIP3   OH214939   3.017   4.033   4.013
 4978TIP3    H114940   3.082   4.022   4.082
 4978TIP3    H214941   3.068   4.065   3.937
 4979TIP3   OH214942   1.940   4.133   4.505
 4979TIP3    H114943   2.021   4.118   4.554
 4979TIP3    H214944   1.943   4.068   4.434
 4980TIP3   OH214945   2.378   4.336   4.305
 4980TIP3    H114946   2.471   4.317   4.319
 4980TIP3    H214947   2.340   4.251   4.282
 4981TIP3   OH214948   3.649   4.315   4.567
 4981TIP3    H114949   3.561   4.352   4.559
 4981TIP3    H214950   3.681   4.350   4.650
 4982TIP3   OH214951   2.302   3.920   4.837
 4982TIP3    H114952   2.252   3.964   4.768
 4982TIP3    H214953   2.251   3.935   4.916
 4983TIP3   OH214954   2.640   4.772   3.827
 4983TIP3    H114955   2.604   4.753   3.740
 4983TIP3    H214956   2.594   4.851   3.855
 4984TIP3   OH214957   2.404   4.700   4.612
 4984TIP3    H114958   2.348   4.768   4.649
 4984TIP3    H214959   2.453   4.744   4.542
 4985TIP3   OH214960   3.191   4.048   4.220
 4985TIP3    H114961   3.162   4.023   4.308
 4985TIP3    H214962   3.250   4.122   4.234
 4986TIP3   OH214963   2.183   4.045   4.620
 4986TIP3    H114964   2.231   4.123   4.648
 4986TIP3    H214965   2.237   4.007   4.551
 4987TIP3   OH214966   2.236   4.896   4.712
 4987TIP3    H114967   2.224   4.987   4.683
 4987TIP3    H214968   2.160   4.879   4.768
 4988TIP3   OH214969   1.618   4.597   3.956
 4988TIP3    H114970   1.582   4.615   3.870
 4988TIP3    H214971   1.644   4.682   3.990
 4989TIP3   OH214972   3.060   5.107   4.192
 4989TIP3    H114973   2.974   5.098   4.233
 4989TIP3    H214974   3.057   5.192   4.148
 4990TIP3   OH214975   3.378   3.993   4.566
 4990TIP3    H114976   3.291   4.015   4.533
 4990TIP3    H214977   3.438   4.020   4.497
 4991TIP3   OH214978   2.665   3.637   4.561
 4991TIP3    H114979   2.652   3.544   4.578
 4991TIP3    H214980   2.584   3.678   4.591
 4992TIP3   OH214981   2.763   5.141   3.853
 4992TIP3    H114982   2.814   5.061   3.842
 4992TIP3    H214983   2.821   5.211   3.822
 4993TIP3   OH214984   2.914   4.921   3.798
 4993TIP3    H114985   2.872   4.841   3.766
 4993TIP3    H214986   2.955   4.896   3.881
 4994TIP3   OH214987   3.292   5.005   4.538
 4994TIP3    H114988   3.276   4.929   4.482
 4994TIP3    H214989   3.275   5.080   4.481
 4995TIP3   OH214990   2.579   4.402   3.802
 4995TIP3    H114991   2.500   4.453   3.784
 4995TIP3    H214992   2.627   4.402   3.719
 4996TIP3   OH214993   2.547   4.199   3.509
 4996TIP3    H114994   2.614   4.247   3.557
 4996TIP3    H214995   2.595   4.133   3.460
 4997TIP3   OH214996   3.484   4.657   4.399
 4997TIP3    H114997   3.399   4.703   4.401
 4997TIP3    H214998   3.516   4.673   4.310
 4998TIP3   OH214999   2.937   4.488   3.769
 4998TIP3    H115000   2.882   4.515   3.843
 4998TIP3    H215001   3.020   4.461   3.809
 4999TIP3   OH215002   3.167   4.523   4.704
 4999TIP3    H115003   3.165   4.604   4.755
 4999TIP3    H215004   3.084   4.522   4.657
 5000TIP3   OH215005   2.167   4.472   4.182
 5000TIP3    H115006   2.131   4.411   4.118
 5000TIP3    H215007   2.243   4.426   4.218
 5001TIP3   OH215008   2.299   4.896   4.322
 5001TIP3    H115009   2.282   4.873   4.230
 5001TIP3    H215010   2.386   4.859   4.339
 5002TIP3   OH215011   2.281   4.468   4.533
 5002TIP3    H115012   2.324   4.438   4.453
 5002TIP3    H215013   2.330   4.547   4.557
 5003TIP3   OH215014   2.824   5.098   4.325
 5003TIP3    H115015   2.812   5.177   4.378
 5003TIP3    H215016   2.811   5.025   4.386
 5004TIP3   OH215017   2.443   5.034   4.853
 5004TIP3    H115018   2.390   5.080   4.918
 5004TIP3    H215019   2.389   4.959   4.827
 5005TIP3   OH215020   2.773   4.343   3.603
 5005TIP3    H115021   2.831   4.401   3.653
 5005TIP3    H215022   2.799   4.356   3.512
 5006TIP3   OH215023   2.197   4.560   4.986
 5006TIP3    H115024   2.204   4.651   5.014
 5006TIP3    H215025   2.103   4.540   4.992
 5007TIP3   OH215026   2.516   5.020   3.866
 5007TIP3    H115027   2.599   5.067   3.871
 5007TIP3    H215028   2.457   5.080   3.819
 5008TIP3   OH215029   2.223   5.183   4.953
 5008TIP3    H115030   2.200   5.175   4.860
 5008TIP3    H215031   2.143   5.158   4.999
 5009TIP3   OH215032   3.287   3.578   3.659
 5009TIP3    H115033   3.207   3.594   3.708
 5009TIP3    H215034   3.283   3.639   3.585
 5010TIP3   OH215035   2.036   4.311   3.978
 5010TIP3    H115036   1.971   4.370   3.939
 5010TIP3    H215037   1.985   4.234   4.005
 5011TIP3   OH215038   3.100   4.952   3.206
 5011TIP3    H115039   3.100   5.046   3.187
 5011TIP3    H215040   3.189   4.924   3.187
 5012TIP3   OH215041   1.817   4.713   4.902
 5012TIP3    H115042   1.749   4.690   4.837
 5012TIP3    H215043   1.852   4.629   4.930
 5013TIP3   OH215044   1.677   4.900   4.541
 5013TIP3    H115045   1.773   4.899   4.532
 5013TIP3    H215046   1.659   4.978   4.593
 5014TIP3   OH215047   3.528   5.360   4.600
 5014TIP3    H115048   3.534   5.266   4.613
 5014TIP3    H215049   3.448   5.387   4.645
 5015TIP3   OH215050   2.633   5.158   4.712
 5015TIP3    H115051   2.633   5.247   4.746
 5015TIP3    H215052   2.567   5.112   4.764
 5016TIP3   OH215053   2.406   5.255   3.682
 5016TIP3    H115054   2.358   5.235   3.602
 5016TIP3    H215055   2.370   5.339   3.711
 5017TIP3   OH215056   1.841   5.104   4.065
 5017TIP3    H115057   1.885   5.096   4.149
 5017TIP3    H215058   1.792   5.022   4.056
 5018TIP3   OH215059   2.608   5.173   3.314
 5018TIP3    H115060   2.659   5.101   3.278
 5018TIP3    H215061   2.641   5.185   3.402
 5019TIP3   OH215062   2.659   5.220   3.583
 5019TIP3    H115063   2.573   5.226   3.625
 5019TIP3    H215064   2.717   5.184   3.651
 5020TIP3   OH215065   3.415   4.481   4.873
 5020TIP3    H115066   3.332   4.492   4.827
 5020TIP3    H215067   3.433   4.387   4.868
 5021TIP3   OH215068   2.016   4.900   4.879
 5021TIP3    H115069   2.071   4.883   4.956
 5021TIP3    H215070   1.946   4.836   4.885
 5022TIP3   OH215071   2.419   3.718   4.668
 5022TIP3    H115072   2.344   3.659   4.662
 5022TIP3    H215073   2.387   3.793   4.718
 5023TIP3   OH215074   2.954   3.828   4.882
 5023TIP3    H115075   3.024   3.806   4.944
 5023TIP3    H215076   2.874   3.813   4.931
 5024TIP3   OH215077   3.174   4.259   4.796
 5024TIP3    H115078   3.130   4.253   4.881
 5024TIP3    H215079   3.155   4.348   4.766
 5025TIP3   OH215080   2.852   4.362   3.344
 5025TIP3    H115081   2.809   4.350   3.259
 5025TIP3    H215082   2.934   4.406   3.323
 5026TIP3   OH215083   2.573   3.782   3.675
 5026TIP3    H115084   2.543   3.753   3.761
 5026TIP3    H215085   2.540   3.715   3.614
 5027TIP3   OH215086   2.349   4.251   4.688
 5027TIP3    H115087   2.351   4.285   4.777
 5027TIP3    H215088   2.323   4.326   4.634
 5028TIP3   OH215089   2.214   4.120   4.216
 5028TIP3    H115090   2.122   4.096   4.230
 5028TIP3    H215091   2.231   4.098   4.124
 5029TIP3   OH215092   2.728   4.213   3.936
 5029TIP3    H115093   2.676   4.281   3.892
 5029TIP3    H215094   2.783   4.177   3.867
 5030TIP3   OH215095   2.918   4.466   5.006
 5030TIP3    H115096   2.873   4.416   5.073
 5030TIP3    H215097   3.005   4.481   5.041
 5031TIP3   OH215098   2.875   4.216   4.172
 5031TIP3    H115099   2.814   4.247   4.105
 5031TIP3    H215100   2.922   4.144   4.131
 5032TIP3   OH215101   2.148   4.251   4.922
 5032TIP3    H115102   2.219   4.302   4.962
 5032TIP3    H215103   2.150   4.168   4.970
 5033TIP3   OH215104   2.220   3.701   3.631
 5033TIP3    H115105   2.216   3.625   3.574
 5033TIP3    H215106   2.151   3.759   3.600
 5034TIP3   OH215107   1.772   3.784   4.479
 5034TIP3    H115108   1.851   3.799   4.530
 5034TIP3    H215109   1.801   3.730   4.405
 5035TIP3   OH215110   1.698   3.765   4.004
 5035TIP3    H115111   1.739   3.800   3.925
 5035TIP3    H215112   1.634   3.831   4.030
 5036TIP3   OH215113   2.907   4.469   4.593
 5036TIP3    H115114   2.934   4.400   4.532
 5036TIP3    H215115   2.868   4.421   4.667
 5037TIP3   OH215116   2.545   3.928   4.264
 5037TIP3    H115117   2.480   3.922   4.334
 5037TIP3    H215118   2.624   3.890   4.303
 5038TIP3   OH215119   1.975   3.980   4.262
 5038TIP3    H115120   1.893   4.022   4.238
 5038TIP3    H215121   1.956   3.887   4.260
 5039TIP3   OH215122   2.278   3.995   3.972
 5039TIP3    H115123   2.360   4.042   3.961
 5039TIP3    H215124   2.226   4.018   3.894
 5040TIP3   OH215125   3.078   4.008   4.473
 5040TIP3    H115126   3.048   4.023   4.562
 5040TIP3    H215127   3.023   3.936   4.441
 5041TIP3   OH215128   2.130   4.010   3.742
 5041TIP3    H115129   2.063   3.966   3.689
 5041TIP3    H215130   2.181   4.060   3.679
 5042TIP3   OH215131   3.231   5.705   4.695
 5042TIP3    H115132   3.228   5.722   4.601
 5042TIP3    H215133   3.310   5.752   4.725
 5043TIP3   OH215134   2.177   4.817   5.093
 5043TIP3    H115135   2.267   4.836   5.120
 5043TIP3    H215136   2.127   4.823   5.175
 5044TIP3   OH215137   2.644   4.276   4.371
 5044TIP3    H115138   2.716   4.234   4.323
 5044TIP3    H215139   2.647   4.236   4.458
 5045TIP3   OH215140   2.619   4.182   4.649
 5045TIP3    H115141   2.532   4.221   4.663
 5045TIP3    H215142   2.678   4.237   4.700
 5046TIP3   OH215143   2.346   4.548   3.749
 5046TIP3    H115144   2.273   4.489   3.729
 5046TIP3    H215145   2.325   4.585   3.835
 5047TIP3   OH215146   3.245   4.794   4.365
 5047TIP3    H115147   3.277   4.843   4.289
 5047TIP3    H215148   3.163   4.754   4.335
 5048TIP3   OH215149   2.798   3.901   3.563
 5048TIP3    H115150   2.721   3.861   3.603
 5048TIP3    H215151   2.823   3.972   3.623
 5049TIP3   OH215152   2.749   4.878   4.759
 5049TIP3    H115153   2.775   4.851   4.847
 5049TIP3    H215154   2.696   4.956   4.773
 5050TIP3   OH215155   2.884   4.112   3.722
 5050TIP3    H115156   2.978   4.119   3.735
 5050TIP3    H215157   2.861   4.191   3.672
 5051TIP3   OH215158   2.036   4.554   4.414
 5051TIP3    H115159   2.077   4.539   4.329
 5051TIP3    H215160   2.101   4.522   4.477
 5052TIP3   OH215161   2.500   4.706   3.587
 5052TIP3    H115162   2.453   4.790   3.587
 5052TIP3    H215163   2.446   4.648   3.641
 5053TIP3   OH215164   1.927   4.504   5.049
 5053TIP3    H115165   1.957   4.493   5.139
 5053TIP3    H215166   1.866   4.431   5.034
 5054TIP3   OH215167   2.907   5.155   4.645
 5054TIP3    H115168   2.813   5.142   4.651
 5054TIP3    H215169   2.932   5.195   4.728
 5055TIP3   OH215170   3.307   4.210   3.544
 5055TIP3    H115171   3.254   4.161   3.481
 5055TIP3    H215172   3.304   4.300   3.512
 5056TIP3   OH215173   3.540   5.076   4.629
 5056TIP3    H115174   3.444   5.066   4.625
 5056TIP3    H215175   3.571   5.046   4.544
 5057TIP3   OH215176   3.027   5.026   3.471
 5057TIP3    H115177   3.000   4.958   3.532
 5057TIP3    H215178   3.042   4.980   3.389
 5058TIP3   OH215179   3.011   4.661   4.265
 5058TIP3    H115180   2.921   4.639   4.290
 5058TIP3    H215181   3.047   4.581   4.229
 5059TIP3   OH215182   2.156   4.892   4.061
 5059TIP3    H115183   2.155   4.970   4.006
 5059TIP3    H215184   2.065   4.879   4.085
 5060TIP3   OH215185   1.726   4.184   3.775
 5060TIP3    H115186   1.768   4.268   3.793
 5060TIP3    H215187   1.645   4.185   3.825
 5061TIP3   OH215188   2.260   4.647   3.985
 5061TIP3    H115189   2.238   4.737   4.008
 5061TIP3    H215190   2.232   4.595   4.061
 5062TIP3   OH215191   2.435   5.223   4.522
 5062TIP3    H115192   2.474   5.294   4.471
 5062TIP3    H215193   2.507   5.188   4.575
 5063TIP3   OH215194   2.070   5.124   3.912
 5063TIP3    H115195   1.985   5.127   3.955
 5063TIP3    H215196   2.103   5.213   3.916
 5064TIP3   OH215197   2.802   4.874   4.491
 5064TIP3    H115198   2.787   4.873   4.585
 5064TIP3    H215199   2.879   4.818   4.478
 5065TIP3   OH215200   2.786   4.760   3.371
 5065TIP3    H115201   2.838   4.737   3.448
 5065TIP3    H215202   2.700   4.722   3.388
 5066TIP3   OH215203   3.053   5.384   4.535
 5066TIP3    H115204   2.982   5.321   4.545
 5066TIP3    H215205   3.024   5.441   4.463
 5067TIP3   OH215206   3.112   5.228   3.176
 5067TIP3    H115207   3.149   5.299   3.124
 5067TIP3    H215208   3.035   5.267   3.218
 5068TIP3   OH215209   2.140   3.992   5.052
 5068TIP3    H115210   2.045   4.000   5.063
 5068TIP3    H215211   2.169   3.947   5.132
 5069TIP3   OH215212   2.955   4.688   3.576
 5069TIP3    H115213   2.941   4.622   3.644
 5069TIP3    H215214   3.050   4.691   3.565
 5070TIP3   OH215215   1.864   5.100   4.685
 5070TIP3    H115216   1.914   5.033   4.731
 5070TIP3    H215217   1.889   5.182   4.726
 5071TIP3   OH215218   2.141   4.727   3.372
 5071TIP3    H115219   2.151   4.636   3.345
 5071TIP3    H215220   2.123   4.723   3.466
 5072TIP3   OH215221   2.085   4.743   3.644
 5072TIP3    H115222   2.156   4.714   3.700
 5072TIP3    H215223   2.085   4.838   3.651
 5073TIP3   OH215224   1.822   4.436   3.853
 5073TIP3    H115225   1.755   4.479   3.907
 5073TIP3    H215226   1.838   4.497   3.781
 5074TIP3   OH215227   2.994   4.054   4.727
 5074TIP3    H115228   3.061   4.107   4.769
 5074TIP3    H215229   2.979   3.981   4.787
 5075TIP3   OH215230   2.869   3.831   3.897
 5075TIP3    H115231   2.855   3.862   3.808
 5075TIP3    H215232   2.916   3.903   3.940
 5076TIP3   OH215233   2.355   4.934   3.588
 5076TIP3    H115234   2.269   4.957   3.625
 5076TIP3    H215235   2.377   5.008   3.531
 5077TIP3   OH215236   2.545   4.028   4.010
 5077TIP3    H115237   2.612   4.093   3.990
 5077TIP3    H215238   2.557   4.008   4.103
 5078TIP3   OH215239   2.821   4.309   4.800
 5078TIP3    H115240   2.846   4.364   4.874
 5078TIP3    H215241   2.870   4.228   4.813
 5079TIP3   OH215242   2.724   3.694   4.087
 5079TIP3    H115243   2.742   3.733   4.174
 5079TIP3    H215244   2.784   3.741   4.028
 5080TIP3   OH215245   2.101   5.015   3.661
 5080TIP3    H115246   2.077   5.085   3.599
 5080TIP3    H215247   2.088   5.054   3.747
 5081TIP3   OH215248   2.184   3.733   3.897
 5081TIP3    H115249   2.114   3.795   3.878
 5081TIP3    H215250   2.214   3.704   3.811
 5082TIP3   OH215251   3.440   4.209   4.785
 5082TIP3    H115252   3.345   4.215   4.795
 5082TIP3    H215253   3.452   4.156   4.706
 5083TIP3   OH215254   3.102   4.406   4.173
 5083TIP3    H115255   3.025   4.350   4.188
 5083TIP3    H215256   3.172   4.365   4.224
 5084TIP3   OH215257   1.831   4.621   3.642
 5084TIP3    H115258   1.901   4.686   3.652
 5084TIP3    H215259   1.866   4.559   3.579
 5085TIP3   OH215260   1.764   3.908   3.781
 5085TIP3    H115261   1.765   4.004   3.784
 5085TIP3    H215262   1.711   3.887   3.704
 5086TIP3   OH215263   3.079   5.376   4.113
 5086TIP3    H115264   3.037   5.424   4.042
 5086TIP3    H215265   3.173   5.390   4.099
 5087TIP3   OH215266   1.674   4.869   4.035
 5087TIP3    H115267   1.624   4.902   4.109
 5087TIP3    H215268   1.636   4.912   3.959
 5088TIP3   OH215269   1.875   5.402   5.096
 5088TIP3    H115270   1.956   5.415   5.147
 5088TIP3    H215271   1.873   5.308   5.078
 5089TIP3   OH215272   2.333   5.346   5.144
 5089TIP3    H115273   2.420   5.311   5.161
 5089TIP3    H215274   2.299   5.292   5.072
 5090TIP3   OH215275   2.302   4.927   3.269
 5090TIP3    H115276   2.253   4.857   3.311
 5090TIP3    H215277   2.377   4.884   3.228
 5091TIP3   OH215278   2.961   5.269   4.888
 5091TIP3    H115279   2.965   5.200   4.954
 5091TIP3    H215280   3.035   5.326   4.908
 5092TIP3   OH215281   2.741   4.966   3.192
 5092TIP3    H115282   2.773   4.901   3.255
 5092TIP3    H215283   2.801   4.959   3.118
 5093TIP3   OH215284   1.977   4.809   5.299
 5093TIP3    H115285   2.002   4.717   5.302
 5093TIP3    H215286   1.891   4.809   5.257
 5094TIP3   OH215287   1.963   4.430   3.500
 5094TIP3    H115288   2.016   4.406   3.576
 5094TIP3    H215289   2.026   4.439   3.429
 5095TIP3   OH215290   2.506   4.648   3.318
 5095TIP3    H115291   2.492   4.662   3.412
 5095TIP3    H215292   2.498   4.553   3.306
 5096TIP3   OH215293   3.072   4.923   4.687
 5096TIP3    H115294   3.148   4.958   4.641
 5096TIP3    H215295   3.003   4.987   4.673
 5097TIP3   OH215296   2.098   4.552   5.287
 5097TIP3    H115297   2.180   4.543   5.238
 5097TIP3    H215298   2.127   4.573   5.376
 5098TIP3   OH215299   2.143   4.361   3.708
 5098TIP3    H115300   2.120   4.326   3.794
 5098TIP3    H215301   2.187   4.289   3.664
 5099TIP3   OH215302   2.405   4.394   4.921
 5099TIP3    H115303   2.347   4.464   4.951
 5099TIP3    H215304   2.470   4.438   4.866
 5100TIP3   OH215305   2.272   4.162   3.560
 5100TIP3    H115306   2.241   4.161   3.470
 5100TIP3    H215307   2.367   4.170   3.554
 5101TIP3   OH215308   2.957   4.825   5.063
 5101TIP3    H115309   3.014   4.778   5.002
 5101TIP3    H215310   2.948   4.766   5.138
 5102TIP3   OH215311   3.077   4.475   3.226
 5102TIP3    H115312   3.061   4.430   3.143
 5102TIP3    H215313   3.048   4.565   3.210
 5103TIP3   OH215314   2.554   4.212   5.068
 5103TIP3    H115315   2.562   4.135   5.012
 5103TIP3    H215316   2.510   4.277   5.013
 5104TIP3   OH215317   2.563   4.004   4.872
 5104TIP3    H115318   2.590   4.046   4.790
 5104TIP3    H215319   2.472   3.978   4.856
 5105TIP3   OH215320   2.566   4.514   4.737
 5105TIP3    H115321   2.657   4.546   4.737
 5105TIP3    H215322   2.516   4.585   4.697
 5106TIP3   OH215323   3.171   4.493   5.128
 5106TIP3    H115324   3.219   4.410   5.140
 5106TIP3    H215325   3.239   4.556   5.102
 5107TIP3   OH215326   3.200   4.757   4.860
 5107TIP3    H115327   3.144   4.816   4.809
 5107TIP3    H215328   3.288   4.774   4.828
 5108TIP3   OH215329   2.433   4.305   5.305
 5108TIP3    H115330   2.366   4.239   5.323
 5108TIP3    H215331   2.467   4.283   5.219
 5109TIP3   OH215332   2.689   3.773   4.964
 5109TIP3    H115333   2.649   3.854   4.933
 5109TIP3    H215334   2.625   3.705   4.947
 5110TIP3   OH215335   2.814   4.262   5.165
 5110TIP3    H115336   2.805   4.257   5.260
 5110TIP3    H215337   2.727   4.244   5.131
 5111TIP3   OH215338   3.051   4.194   5.027
 5111TIP3    H115339   2.974   4.209   5.082
 5111TIP3    H215340   3.122   4.176   5.088
 5112TIP3   OH215341   3.290   4.168   5.181
 5112TIP3    H115342   3.303   4.073   5.189
 5112TIP3    H215343   3.284   4.199   5.271
 5113TIP3   OH215344   0.101   1.030   0.072
 5113TIP3    H115345   0.104   0.941   0.037
 5113TIP3    H215346   0.141   1.023   0.159
 5114TIP3   OH215347   2.761   3.759   5.229
 5114TIP3    H115348   2.832   3.695   5.222
 5114TIP3    H215349   2.729   3.768   5.139
 5115TIP3   OH215350   0.677   0.916   0.065
 5115TIP3    H115351   0.650   0.844   0.007
 5115TIP3    H215352   0.605   0.978   0.062
 5116TIP3   OH215353   2.089   5.222   3.474
 5116TIP3    H115354   2.180   5.203   3.449
 5116TIP3    H215355   2.053   5.269   3.399
 5117TIP3   OH215356   1.559   4.597   3.671
 5117TIP3    H115357   1.653   4.615   3.662
 5117TIP3    H215358   1.547   4.511   3.631
 5118TIP3   OH215359   1.472   5.193   4.112
 5118TIP3    H115360   1.407   5.139   4.068
 5118TIP3    H215361   1.516   5.134   4.173
 5119TIP3   OH215362   1.609   5.031   4.289
 5119TIP3    H115363   1.597   4.963   4.356
 5119TIP3    H215364   1.660   5.099   4.332
 5120TIP3   OH215365   3.345   5.444   4.095
 5120TIP3    H115366   3.368   5.469   4.184
 5120TIP3    H215367   3.407   5.490   4.039
 5121TIP3   OH215368   3.371   5.463   4.377
 5121TIP3    H115369   3.321   5.382   4.370
 5121TIP3    H215370   3.440   5.444   4.440
 5122TIP3   OH215371   3.415   5.161   4.947
 5122TIP3    H115372   3.344   5.168   5.010
 5122TIP3    H215373   3.457   5.247   4.948
 5123TIP3   OH215374   3.234   4.675   3.560
 5123TIP3    H115375   3.296   4.741   3.530
 5123TIP3    H215376   3.276   4.635   3.637
 5124TIP3   OH215377   3.356   4.534   3.764
 5124TIP3    H115378   3.290   4.493   3.820
 5124TIP3    H215379   3.422   4.567   3.825
 5125TIP3   OH215380   3.414   4.931   4.191
 5125TIP3    H115381   3.467   4.862   4.151
 5125TIP3    H215382   3.413   5.001   4.126
 5126TIP3   OH215383   3.227   5.225   4.384
 5126TIP3    H115384   3.159   5.267   4.437
 5126TIP3    H215385   3.179   5.181   4.314
 5127TIP3   OH215386   3.281   4.450   3.407
 5127TIP3    H115387   3.210   4.449   3.342
 5127TIP3    H215388   3.263   4.526   3.462
 5128TIP3   OH215389   3.164   4.095   3.338
 5128TIP3    H115390   3.104   4.116   3.266
 5128TIP3    H215391   3.145   4.004   3.360
 5129TIP3   OH215392   3.162   4.391   3.903
 5129TIP3    H115393   3.173   4.296   3.893
 5129TIP3    H215394   3.145   4.403   3.996
 5130TIP3   OH215395   1.787   4.464   4.663
 5130TIP3    H115396   1.780   4.429   4.574
 5130TIP3    H215397   1.880   4.461   4.683
 5131TIP3   OH215398   3.453   4.814   4.762
 5131TIP3    H115399   3.519   4.747   4.746
 5131TIP3    H215400   3.473   4.882   4.697
 5132TIP3   OH215401   3.629   4.604   4.756
 5132TIP3    H115402   3.555   4.562   4.800
 5132TIP3    H215403   3.704   4.548   4.776
 5133TIP3   OH215404   3.086   3.837   3.391
 5133TIP3    H115405   3.116   3.754   3.354
 5133TIP3    H215406   3.005   3.815   3.437
 5134TIP3   OH215407   3.164   4.114   3.783
 5134TIP3    H115408   3.205   4.029   3.799
 5134TIP3    H215409   3.215   4.151   3.711
 5135TIP3   OH215410   3.318   4.282   4.301
 5135TIP3    H115411   3.401   4.301   4.256
 5135TIP3    H215412   3.331   4.318   4.389
 5136TIP3   OH215413   3.391   4.430   4.531
 5136TIP3    H115414   3.317   4.459   4.584
 5136TIP3    H215415   3.423   4.509   4.488
 5137TIP3   OH215416   6.337   1.072   0.008
 5137TIP3    H115417   6.431   1.074   0.025
 5137TIP3    H215418   6.307   0.991   0.050
 5138TIP3   OH215419   3.845   4.031   5.076
 5138TIP3    H115420   3.907   3.969   5.036
 5138TIP3    H215421   3.809   4.080   5.002
 5139TIP3   OH215422   3.265   3.862   3.839
 5139TIP3    H115423   3.315   3.846   3.919
 5139TIP3    H215424   3.208   3.786   3.831
 5140TIP3   OH215425   2.004   3.815   4.620
 5140TIP3    H115426   2.045   3.739   4.662
 5140TIP3    H215427   2.057   3.890   4.649
 5141TIP3   OH215428   1.768   4.105   4.727
 5141TIP3    H115429   1.817   4.107   4.645
 5141TIP3    H215430   1.797   4.183   4.775
 5142TIP3   OH215431   3.701   4.150   4.878
 5142TIP3    H115432   3.618   4.190   4.903
 5142TIP3    H215433   3.675   4.075   4.824
 5143TIP3   OH215434   1.754   3.627   4.233
 5143TIP3    H115435   1.667   3.611   4.270
 5143TIP3    H215436   1.738   3.682   4.156
 5144TIP3   OH215437   2.909   5.336   3.737
 5144TIP3    H115438   2.967   5.323   3.662
 5144TIP3    H215439   2.955   5.399   3.793
 5145TIP3   OH215440   2.002   5.138   5.117
 5145TIP3    H115441   1.912   5.106   5.113
 5145TIP3    H215442   2.036   5.104   5.200
 5146TIP3   OH215443   2.204   5.172   4.669
 5146TIP3    H115444   2.156   5.247   4.635
 5146TIP3    H215445   2.292   5.180   4.633
 5147TIP3   OH215446   2.626   5.416   4.813
 5147TIP3    H115447   2.664   5.402   4.900
 5147TIP3    H215448   2.693   5.468   4.766
 5148TIP3   OH215449   2.812   5.565   4.674
 5148TIP3    H115450   2.875   5.506   4.632
 5148TIP3    H215451   2.865   5.621   4.730
 5149TIP3   OH215452   3.610   3.906   4.768
 5149TIP3    H115453   3.522   3.899   4.730
 5149TIP3    H215454   3.646   3.817   4.762
 5150TIP3   OH215455   1.872   5.419   4.710
 5150TIP3    H115456   1.782   5.441   4.689
 5150TIP3    H215457   1.896   5.480   4.780
 5151TIP3   OH215458   2.104   5.406   4.561
 5151TIP3    H115459   2.020   5.412   4.607
 5151TIP3    H215460   2.084   5.433   4.471
 5152TIP3   OH215461   2.526   5.427   4.353
 5152TIP3    H115462   2.454   5.440   4.292
 5152TIP3    H215463   2.537   5.511   4.397
 5153TIP3   OH215464   2.793   5.366   4.406
 5153TIP3    H115465   2.700   5.382   4.388
 5153TIP3    H215466   2.839   5.436   4.360
 5154TIP3   OH215467   2.996   5.549   4.313
 5154TIP3    H115468   2.989   5.634   4.270
 5154TIP3    H215469   3.025   5.489   4.244
 5155TIP3   OH215470   1.784   5.204   4.437
 5155TIP3    H115471   1.806   5.177   4.526
 5155TIP3    H215472   1.856   5.171   4.383
 5156TIP3   OH215473   1.985   5.085   4.299
 5156TIP3    H115474   1.996   5.001   4.344
 5156TIP3    H215475   2.072   5.125   4.301
 5157TIP3   OH215476   2.253   5.174   4.316
 5157TIP3    H115477   2.273   5.081   4.303
 5157TIP3    H215478   2.303   5.199   4.394
 5158TIP3   OH215479   2.777   3.791   4.347
 5158TIP3    H115480   2.751   3.738   4.422
 5158TIP3    H215481   2.869   3.770   4.333
 5159TIP3   OH215482   3.326   3.734   4.299
 5159TIP3    H115483   3.362   3.779   4.223
 5159TIP3    H215484   3.232   3.751   4.295
 5160TIP3   OH215485   3.429   3.813   4.058
 5160TIP3    H115486   3.498   3.754   4.025
 5160TIP3    H215487   3.465   3.901   4.047
 5161TIP3   OH215488   1.829   3.418   4.047
 5161TIP3    H115489   1.876   3.462   3.977
 5161TIP3    H215490   1.817   3.485   4.114
 5162TIP3   OH215491   3.038   3.716   4.275
 5162TIP3    H115492   3.057   3.681   4.188
 5162TIP3    H215493   3.039   3.640   4.333
 5163TIP3   OH215494   3.083   3.650   3.836
 5163TIP3    H115495   2.998   3.693   3.851
 5163TIP3    H215496   3.074   3.564   3.878
 5164TIP3   OH215497   1.560   4.996   3.821
 5164TIP3    H115498   1.476   4.962   3.792
 5164TIP3    H215499   1.561   5.087   3.791
 5165TIP3   OH215500   1.967   3.542   3.827
 5165TIP3    H115501   2.004   3.480   3.764
 5165TIP3    H215502   2.043   3.586   3.865
 5166TIP3   OH215503   2.501   3.767   3.952
 5166TIP3    H115504   2.569   3.712   3.992
 5166TIP3    H215505   2.541   3.854   3.947
 5167TIP3   OH215506   2.349   5.156   3.411
 5167TIP3    H115507   2.434   5.183   3.376
 5167TIP3    H215508   2.322   5.083   3.356
 5168TIP3   OH215509   3.063   5.294   3.508
 5168TIP3    H115510   3.056   5.199   3.501
 5168TIP3    H215511   3.017   5.327   3.431
 5169TIP3   OH215512   0.104   0.767  -0.014
 5169TIP3    H115513   0.069   0.687   0.025
 5169TIP3    H215514   0.197   0.765   0.007
 5170TIP3   OH215515   0.359   0.751   0.098
 5170TIP3    H115516   0.440   0.731   0.051
 5170TIP3    H215517   0.351   0.681   0.162
 5171TIP3   OH215518   1.652   4.999   3.469
 5171TIP3    H115519   1.654   5.012   3.563
 5171TIP3    H215520   1.734   4.953   3.449
 5172TIP3   OH215521   3.354   3.896   5.199
 5172TIP3    H115522   3.370   3.866   5.288
 5172TIP3    H215523   3.440   3.891   5.156
 5173TIP3   OH215524   3.279   5.432   4.695
 5173TIP3    H115525   3.202   5.401   4.647
 5173TIP3    H215526   3.263   5.526   4.707
 5174TIP3   OH215527   4.549   4.813   3.453
 5174TIP3    H115528   4.518   4.901   3.431
 5174TIP3    H215529   4.480   4.755   3.420
 5175TIP3   OH215530   4.517   4.801   3.867
 5175TIP3    H115531   4.569   4.785   3.945
 5175TIP3    H215532   4.479   4.716   3.845
 5176TIP3   OH215533   3.848   4.687   4.213
 5176TIP3    H115534   3.879   4.624   4.278
 5176TIP3    H215535   3.928   4.726   4.178
 5177TIP3   OH215536   4.803   5.117   3.533
 5177TIP3    H115537   4.784   5.058   3.606
 5177TIP3    H215538   4.834   5.197   3.575
 5178TIP3   OH215539   3.834   5.110   3.915
 5178TIP3    H115540   3.820   5.015   3.920
 5178TIP3    H215541   3.928   5.119   3.905
 5179TIP3   OH215542   3.527   4.318   3.695
 5179TIP3    H115543   3.479   4.398   3.716
 5179TIP3    H215544   3.461   4.260   3.656
 5180TIP3   OH215545   3.590   4.602   3.899
 5180TIP3    H115546   3.639   4.525   3.928
 5180TIP3    H215547   3.654   4.654   3.850
 5181TIP3   OH215548   4.466   5.560   3.549
 5181TIP3    H115549   4.496   5.494   3.485
 5181TIP3    H215550   4.453   5.510   3.630
 5182TIP3   OH215551   4.351   5.036   3.878
 5182TIP3    H115552   4.388   4.952   3.850
 5182TIP3    H215553   4.428   5.090   3.898
 5183TIP3   OH215554   5.380   4.352   3.883
 5183TIP3    H115555   5.393   4.437   3.925
 5183TIP3    H215556   5.417   4.363   3.796
 5184TIP3   OH215557   4.764   4.521   3.923
 5184TIP3    H115558   4.777   4.433   3.960
 5184TIP3    H215559   4.724   4.506   3.838
 5185TIP3   OH215560   4.111   4.185   3.868
 5185TIP3    H115561   4.087   4.257   3.810
 5185TIP3    H215562   4.060   4.110   3.836
 5186TIP3   OH215563   4.813   4.311   3.501
 5186TIP3    H115564   4.902   4.293   3.468
 5186TIP3    H215565   4.767   4.349   3.426
 5187TIP3   OH215566   3.740   4.390   3.993
 5187TIP3    H115567   3.822   4.372   4.038
 5187TIP3    H215568   3.744   4.338   3.913
 5188TIP3   OH215569   4.166   4.591   3.801
 5188TIP3    H115570   4.259   4.571   3.808
 5188TIP3    H215571   4.126   4.511   3.766
 5189TIP3   OH215572   5.422   4.570   4.064
 5189TIP3    H115573   5.351   4.627   4.035
 5189TIP3    H215574   5.471   4.622   4.127
 5190TIP3   OH215575   4.097   4.182   4.321
 5190TIP3    H115576   4.044   4.214   4.248
 5190TIP3    H215577   4.042   4.196   4.398
 5191TIP3   OH215578   4.422   5.022   3.326
 5191TIP3    H115579   4.399   5.009   3.234
 5191TIP3    H215580   4.379   5.105   3.349
 5192TIP3   OH215581   4.203   4.958   4.097
 5192TIP3    H115582   4.143   5.025   4.131
 5192TIP3    H215583   4.247   4.999   4.023
 5193TIP3   OH215584   3.983   4.289   4.092
 5193TIP3    H115585   4.040   4.362   4.115
 5193TIP3    H215586   4.028   4.246   4.019
 5194TIP3   OH215587   4.035   5.155   4.196
 5194TIP3    H115588   4.017   5.244   4.164
 5194TIP3    H215589   3.959   5.133   4.250
 5195TIP3   OH215590   3.416   4.854   3.443
 5195TIP3    H115591   3.380   4.873   3.356
 5195TIP3    H215592   3.444   4.940   3.476
 5196TIP3   OH215593   4.851   5.366   3.663
 5196TIP3    H115594   4.766   5.355   3.704
 5196TIP3    H215595   4.846   5.452   3.621
 5197TIP3   OH215596   5.134   4.252   3.964
 5197TIP3    H115597   5.121   4.302   4.045
 5197TIP3    H215598   5.223   4.276   3.936
 5198TIP3   OH215599   4.441   3.882   4.046
 5198TIP3    H115600   4.432   3.789   4.065
 5198TIP3    H215601   4.365   3.922   4.087
 5199TIP3   OH215602   4.558   5.397   3.342
 5199TIP3    H115603   4.606   5.316   3.328
 5199TIP3    H215604   4.616   5.466   3.308
 5200TIP3   OH215605   4.706   5.178   3.279
 5200TIP3    H115606   4.702   5.099   3.225
 5200TIP3    H215607   4.743   5.148   3.362
 5201TIP3   OH215608   5.075   5.236   4.007
 5201TIP3    H115609   5.106   5.153   3.972
 5201TIP3    H215610   5.067   5.293   3.930
 5202TIP3   OH215611   4.379   4.658   3.294
 5202TIP3    H115612   4.300   4.708   3.273
 5202TIP3    H215613   4.425   4.649   3.211
 5203TIP3   OH215614   4.347   4.448   2.991
 5203TIP3    H115615   4.415   4.495   3.040
 5203TIP3    H215616   4.394   4.375   2.950
 5204TIP3   OH215617   4.726   4.744   3.255
 5204TIP3    H115618   4.674   4.771   3.331
 5204TIP3    H215619   4.810   4.718   3.292
 5205TIP3   OH215620   4.952   4.776   4.196
 5205TIP3    H115621   4.960   4.858   4.245
 5205TIP3    H215622   4.872   4.786   4.145
 5206TIP3   OH215623   3.961   4.732   3.671
 5206TIP3    H115624   3.922   4.675   3.605
 5206TIP3    H215625   4.035   4.683   3.705
 5207TIP3   OH215626   4.096   5.154   3.807
 5207TIP3    H115627   4.073   5.131   3.717
 5207TIP3    H215628   4.182   5.115   3.820
 5208TIP3   OH215629   4.080   4.718   4.035
 5208TIP3    H115630   4.114   4.685   3.952
 5208TIP3    H215631   4.128   4.799   4.050
 5209TIP3   OH215632   4.622   5.360   3.807
 5209TIP3    H115633   4.606   5.432   3.867
 5209TIP3    H215634   4.610   5.281   3.860
 5210TIP3   OH215635   4.239   5.256   4.353
 5210TIP3    H115636   4.184   5.316   4.403
 5210TIP3    H215637   4.177   5.206   4.299
 5211TIP3   OH215638   4.568   4.587   3.092
 5211TIP3    H115639   4.627   4.644   3.143
 5211TIP3    H215640   4.594   4.601   3.001
 5212TIP3   OH215641   3.995   4.813   4.480
 5212TIP3    H115642   4.000   4.904   4.510
 5212TIP3    H215643   3.901   4.793   4.480
 5213TIP3   OH215644   4.309   5.279   3.356
 5213TIP3    H115645   4.394   5.323   3.358
 5213TIP3    H215646   4.254   5.335   3.303
 5214TIP3   OH215647   4.034   5.419   4.445
 5214TIP3    H115648   4.004   5.427   4.355
 5214TIP3    H215649   3.955   5.405   4.497
 5215TIP3   OH215650   5.082   3.833   3.147
 5215TIP3    H115651   4.997   3.859   3.183
 5215TIP3    H215652   5.112   3.910   3.098
 5216TIP3   OH215653   3.835   4.577   3.470
 5216TIP3    H115654   3.760   4.621   3.430
 5216TIP3    H215655   3.805   4.487   3.484
 5217TIP3   OH215656   4.895   5.209   2.695
 5217TIP3    H115657   4.903   5.303   2.678
 5217TIP3    H215658   4.982   5.174   2.678
 5218TIP3   OH215659   3.613   4.969   4.390
 5218TIP3    H115660   3.545   4.951   4.326
 5218TIP3    H215661   3.649   4.883   4.412
 5219TIP3   OH215662   3.470   5.158   4.025
 5219TIP3    H115663   3.566   5.159   4.021
 5219TIP3    H215664   3.447   5.234   4.078
 5220TIP3   OH215665   5.327   5.596   4.057
 5220TIP3    H115666   5.332   5.501   4.050
 5220TIP3    H215667   5.290   5.612   4.144
 5221TIP3   OH215668   4.429   5.391   4.207
 5221TIP3    H115669   4.423   5.482   4.235
 5221TIP3    H215670   4.363   5.345   4.259
 5222TIP3   OH215671   4.202   5.510   3.170
 5222TIP3    H115672   4.156   5.489   3.089
 5222TIP3    H215673   4.167   5.595   3.196
 5223TIP3   OH215674   3.637   5.361   3.551
 5223TIP3    H115675   3.681   5.354   3.635
 5223TIP3    H215676   3.588   5.279   3.542
 5224TIP3   OH215677   4.403   5.429   2.800
 5224TIP3    H115678   4.454   5.356   2.764
 5224TIP3    H215679   4.438   5.441   2.888
 5225TIP3   OH215680   4.455   5.477   3.068
 5225TIP3    H115681   4.370   5.481   3.112
 5225TIP3    H215682   4.514   5.438   3.133
 5226TIP3   OH215683   5.207   4.740   4.356
 5226TIP3    H115684   5.127   4.748   4.304
 5226TIP3    H215685   5.222   4.645   4.363
 5227TIP3   OH215686   3.818   5.151   4.365
 5227TIP3    H115687   3.867   5.142   4.447
 5227TIP3    H215688   3.745   5.089   4.373
 5228TIP3   OH215689   4.206   3.972   4.170
 5228TIP3    H115690   4.123   3.937   4.137
 5228TIP3    H215691   4.181   4.050   4.220
 5229TIP3   OH215692   4.748   4.091   4.362
 5229TIP3    H115693   4.817   4.066   4.424
 5229TIP3    H215694   4.667   4.075   4.409
 5230TIP3   OH215695   4.969   4.509   4.266
 5230TIP3    H115696   4.928   4.499   4.352
 5230TIP3    H215697   4.950   4.599   4.240
 5231TIP3   OH215698   4.644   4.619   2.831
 5231TIP3    H115699   4.606   4.605   2.745
 5231TIP3    H215700   4.728   4.662   2.814
 5232TIP3   OH215701   4.354   4.032   3.135
 5232TIP3    H115702   4.308   4.025   3.219
 5232TIP3    H215703   4.381   3.943   3.115
 5233TIP3   OH215704   4.148   4.494   4.182
 5233TIP3    H115705   4.099   4.502   4.264
 5233TIP3    H215706   4.127   4.574   4.133
 5234TIP3   OH215707   4.022   4.378   3.697
 5234TIP3    H115708   3.933   4.352   3.720
 5234TIP3    H215709   4.035   4.343   3.609
 5235TIP3   OH215710   4.509   4.463   3.438
 5235TIP3    H115711   4.457   4.532   3.397
 5235TIP3    H215712   4.571   4.437   3.370
 5236TIP3   OH215713   4.692   4.733   4.511
 5236TIP3    H115714   4.665   4.663   4.570
 5236TIP3    H215715   4.785   4.745   4.530
 5237TIP3   OH215716   4.664   4.470   3.674
 5237TIP3    H115717   4.600   4.500   3.609
 5237TIP3    H215718   4.716   4.405   3.627
 5238TIP3   OH215719   3.974   4.512   4.397
 5238TIP3    H115720   3.987   4.577   4.466
 5238TIP3    H215721   3.956   4.430   4.443
 5239TIP3   OH215722   4.032   3.992   3.114
 5239TIP3    H115723   4.019   3.977   3.208
 5239TIP3    H215724   3.953   4.040   3.087
 5240TIP3   OH215725   3.555   4.041   3.984
 5240TIP3    H115726   3.634   4.069   4.030
 5240TIP3    H215727   3.587   4.007   3.900
 5241TIP3   OH215728   3.537   4.046   3.509
 5241TIP3    H115729   3.573   4.058   3.421
 5241TIP3    H215730   3.461   4.105   3.512
 5242TIP3   OH215731   4.675   4.721   4.085
 5242TIP3    H115732   4.713   4.658   4.024
 5242TIP3    H215733   4.651   4.669   4.161
 5243TIP3   OH215734   4.371   4.187   3.758
 5243TIP3    H115735   4.287   4.182   3.804
 5243TIP3    H215736   4.437   4.173   3.826
 5244TIP3   OH215737   3.787   4.250   3.760
 5244TIP3    H115738   3.697   4.258   3.727
 5244TIP3    H215739   3.811   4.159   3.742
 5245TIP3   OH215740   4.048   4.256   3.454
 5245TIP3    H115741   4.141   4.262   3.435
 5245TIP3    H215742   4.005   4.275   3.371
 5246TIP3   OH215743   4.830   4.217   3.912
 5246TIP3    H115744   4.828   4.231   4.007
 5246TIP3    H215745   4.751   4.166   3.894
 5247TIP3   OH215746   3.914   4.294   3.219
 5247TIP3    H115747   3.857   4.236   3.169
 5247TIP3    H215748   3.972   4.334   3.153
 5248TIP3   OH215749   4.974   5.920   4.137
 5248TIP3    H115750   5.004   6.008   4.113
 5248TIP3    H215751   5.033   5.894   4.208
 5249TIP3   OH215752   3.980   5.071   4.597
 5249TIP3    H115753   4.059   5.096   4.645
 5249TIP3    H215754   3.910   5.074   4.663
 5250TIP3   OH215755   4.434   4.530   3.859
 5250TIP3    H115756   4.501   4.483   3.809
 5250TIP3    H215757   4.436   4.488   3.945
 5251TIP3   OH215758   3.940   4.002   3.744
 5251TIP3    H115759   3.906   3.930   3.796
 5251TIP3    H215760   3.967   3.962   3.661
 5252TIP3   OH215761   4.419   4.441   4.132
 5252TIP3    H115762   4.329   4.469   4.151
 5252TIP3    H215763   4.473   4.494   4.190
 5253TIP3   OH215764   4.145   4.805   3.236
 5253TIP3    H115765   4.072   4.745   3.217
 5253TIP3    H215766   4.124   4.841   3.322
 5254TIP3   OH215767   4.580   5.144   4.232
 5254TIP3    H115768   4.596   5.123   4.324
 5254TIP3    H215769   4.521   5.219   4.233
 5255TIP3   OH215770   4.702   4.383   3.255
 5255TIP3    H115771   4.795   4.382   3.232
 5255TIP3    H215772   4.659   4.423   3.179
 5256TIP3   OH215773   3.844   4.828   3.904
 5256TIP3    H115774   3.879   4.805   3.818
 5256TIP3    H215775   3.901   4.782   3.966
 5257TIP3   OH215776   4.298   4.962   3.071
 5257TIP3    H115777   4.251   5.046   3.074
 5257TIP3    H215778   4.246   4.904   3.127
 5258TIP3   OH215779   3.726   4.746   4.525
 5258TIP3    H115780   3.736   4.729   4.618
 5258TIP3    H215781   3.652   4.691   4.499
 5259TIP3   OH215782   4.451   4.874   4.540
 5259TIP3    H115783   4.385   4.812   4.509
 5259TIP3    H215784   4.535   4.836   4.513
 5260TIP3   OH215785   4.709   5.429   4.129
 5260TIP3    H115786   4.617   5.402   4.129
 5260TIP3    H215787   4.728   5.451   4.220
 5261TIP3   OH215788   5.102   4.458   3.025
 5261TIP3    H115789   5.044   4.407   2.970
 5261TIP3    H215790   5.101   4.546   2.986
 5262TIP3   OH215791   5.324   5.327   4.089
 5262TIP3    H115792   5.235   5.294   4.089
 5262TIP3    H215793   5.366   5.283   4.015
 5263TIP3   OH215794   4.817   5.281   2.956
 5263TIP3    H115795   4.799   5.208   3.015
 5263TIP3    H215796   4.840   5.240   2.873
 5264TIP3   OH215797   4.760   4.942   3.795
 5264TIP3    H115798   4.681   4.889   3.785
 5264TIP3    H215799   4.831   4.883   3.768
 5265TIP3   OH215800   3.953   5.150   3.553
 5265TIP3    H115801   3.952   5.227   3.496
 5265TIP3    H215802   3.861   5.129   3.568
 5266TIP3   OH215803   3.515   4.438   3.261
 5266TIP3    H115804   3.561   4.519   3.280
 5266TIP3    H215805   3.436   4.442   3.315
 5267TIP3   OH215806   4.057   4.905   3.472
 5267TIP3    H115807   4.036   4.995   3.497
 5267TIP3    H215808   4.028   4.851   3.546
 5268TIP3   OH215809   4.230   5.474   4.012
 5268TIP3    H115810   4.266   5.548   3.962
 5268TIP3    H215811   4.304   5.438   4.059
 5269TIP3   OH215812   3.866   5.381   3.399
 5269TIP3    H115813   3.781   5.383   3.442
 5269TIP3    H215814   3.898   5.471   3.403
 5270TIP3   OH215815   4.607   5.127   3.954
 5270TIP3    H115816   4.610   5.111   4.048
 5270TIP3    H215817   4.669   5.064   3.917
 5271TIP3   OH215818   4.581   5.016   2.862
 5271TIP3    H115819   4.632   4.999   2.941
 5271TIP3    H215820   4.495   4.978   2.880
 5272TIP3   OH215821   4.818   5.666   4.040
 5272TIP3    H115822   4.800   5.588   4.092
 5272TIP3    H215823   4.754   5.663   3.969
 5273TIP3   OH215824   4.924   5.485   2.674
 5273TIP3    H115825   4.969   5.558   2.631
 5273TIP3    H215826   4.844   5.523   2.708
 5274TIP3   OH215827   3.927   4.261   4.528
 5274TIP3    H115828   3.832   4.268   4.533
 5274TIP3    H215829   3.951   4.208   4.604
 5275TIP3   OH215830   4.742   4.961   3.082
 5275TIP3    H115831   4.725   4.885   3.138
 5275TIP3    H215832   4.836   4.954   3.061
 5276TIP3   OH215833   3.660   5.353   4.171
 5276TIP3    H115834   3.711   5.285   4.215
 5276TIP3    H215835   3.677   5.432   4.222
 5277TIP3   OH215836   3.934   4.984   2.859
 5277TIP3    H115837   3.947   4.893   2.832
 5277TIP3    H215838   3.917   4.979   2.953
 5278TIP3   OH215839   3.881   4.999   3.132
 5278TIP3    H115840   3.953   4.968   3.186
 5278TIP3    H215841   3.883   5.094   3.140
 5279TIP3   OH215842   3.615   4.688   3.340
 5279TIP3    H115843   3.549   4.733   3.393
 5279TIP3    H215844   3.634   4.749   3.268
 5280TIP3   OH215845   4.837   4.278   4.173
 5280TIP3    H115846   4.876   4.352   4.220
 5280TIP3    H215847   4.804   4.222   4.243
 5281TIP3   OH215848   4.637   4.079   3.382
 5281TIP3    H115849   4.594   4.099   3.299
 5281TIP3    H215850   4.690   4.156   3.401
 5282TIP3   OH215851   4.153   5.191   3.077
 5282TIP3    H115852   4.067   5.214   3.112
 5282TIP3    H215853   4.174   5.263   3.017
 5283TIP3   OH215854   4.332   4.257   3.492
 5283TIP3    H115855   4.391   4.329   3.469
 5283TIP3    H215856   4.340   4.248   3.587
 5284TIP3   OH215857   4.620   4.562   4.303
 5284TIP3    H115858   4.631   4.631   4.369
 5284TIP3    H215859   4.665   4.486   4.340
 5285TIP3   OH215860   4.489   3.980   3.597
 5285TIP3    H115861   4.456   4.060   3.638
 5285TIP3    H215862   4.544   4.010   3.526
 5286TIP3   OH215863   3.899   5.273   3.147
 5286TIP3    H115864   3.875   5.343   3.086
 5286TIP3    H215865   3.886   5.311   3.234
 5287TIP3   OH215866   3.998   3.982   3.393
 5287TIP3    H115867   3.988   4.073   3.422
 5287TIP3    H215868   4.092   3.965   3.397
 5288TIP3   OH215869   5.240   4.469   4.272
 5288TIP3    H115870   5.145   4.472   4.263
 5288TIP3    H215871   5.273   4.498   4.187
 5289TIP3   OH215872   4.904   4.648   3.653
 5289TIP3    H115873   4.821   4.608   3.680
 5289TIP3    H215874   4.968   4.610   3.713
 5290TIP3   OH215875   3.629   4.877   3.129
 5290TIP3    H115876   3.700   4.940   3.140
 5290TIP3    H215877   3.663   4.813   3.067
 5291TIP3   OH215878   3.541   4.160   3.247
 5291TIP3    H115879   3.560   4.254   3.256
 5291TIP3    H215880   3.446   4.155   3.249
 5292TIP3   OH215881   4.871   5.641   3.606
 5292TIP3    H115882   4.828   5.687   3.534
 5292TIP3    H215883   4.965   5.655   3.590
 5293TIP3   OH215884   3.945   3.883   4.132
 5293TIP3    H115885   3.915   3.851   4.047
 5293TIP3    H215886   3.934   3.809   4.191
 5294TIP3   OH215887   3.474   5.128   3.521
 5294TIP3    H115888   3.420   5.158   3.594
 5294TIP3    H215889   3.434   5.169   3.444
 5295TIP3   OH215890   3.654   5.672   4.596
 5295TIP3    H115891   3.732   5.679   4.652
 5295TIP3    H215892   3.637   5.578   4.590
 5296TIP3   OH215893   4.106   5.629   4.621
 5296TIP3    H115894   4.189   5.624   4.669
 5296TIP3    H215895   4.108   5.554   4.562
 5297TIP3   OH215896   4.098   5.183   2.758
 5297TIP3    H115897   4.048   5.112   2.799
 5297TIP3    H215898   4.173   5.140   2.717
 5298TIP3   OH215899   4.773   5.530   4.371
 5298TIP3    H115900   4.765   5.458   4.433
 5298TIP3    H215901   4.840   5.587   4.408
 5299TIP3   OH215902   4.536   5.221   2.680
 5299TIP3    H115903   4.570   5.158   2.743
 5299TIP3    H215904   4.597   5.216   2.606
 5300TIP3   OH215905   3.771   5.063   4.782
 5300TIP3    H115906   3.790   4.969   4.792
 5300TIP3    H215907   3.684   5.066   4.743
 5301TIP3   OH215908   3.759   4.685   2.987
 5301TIP3    H115909   3.812   4.660   3.063
 5301TIP3    H215910   3.823   4.695   2.916
 5302TIP3   OH215911   4.387   5.146   4.557
 5302TIP3    H115912   4.341   5.166   4.476
 5302TIP3    H215913   4.415   5.055   4.546
 5303TIP3   OH215914   4.293   4.903   2.802
 5303TIP3    H115915   4.284   4.917   2.897
 5303TIP3    H215916   4.289   4.808   2.792
 5304TIP3   OH215917   4.881   5.172   4.189
 5304TIP3    H115918   4.942   5.198   4.120
 5304TIP3    H215919   4.797   5.210   4.162
 5305TIP3   OH215920   3.890   4.804   4.781
 5305TIP3    H115921   3.971   4.777   4.737
 5305TIP3    H215922   3.918   4.827   4.870
 5306TIP3   OH215923   3.940   4.620   3.194
 5306TIP3    H115924   3.919   4.584   3.281
 5306TIP3    H215925   3.986   4.548   3.149
 5307TIP3   OH215926   4.246   4.695   4.440
 5307TIP3    H115927   4.162   4.739   4.447
 5307TIP3    H215928   4.282   4.724   4.356
 5308TIP3   OH215929   4.072   4.429   3.040
 5308TIP3    H115930   4.044   4.430   2.948
 5308TIP3    H215931   4.168   4.429   3.035
 5309TIP3   OH215932   4.748   5.072   4.546
 5309TIP3    H115933   4.816   5.028   4.495
 5309TIP3    H215934   4.740   5.019   4.625
 5310TIP3   OH215935   4.872   4.732   2.717
 5310TIP3    H115936   4.858   4.686   2.634
 5310TIP3    H215937   4.844   4.822   2.700
 5311TIP3   OH215938   4.355   4.467   4.550
 5311TIP3    H115939   4.354   4.394   4.488
 5311TIP3    H215940   4.317   4.540   4.500
 5312TIP3   OH215941   4.357   4.263   4.356
 5312TIP3    H115942   4.382   4.300   4.271
 5312TIP3    H215943   4.265   4.236   4.345
 5313TIP3   OH215944   4.381   4.790   4.223
 5313TIP3    H115945   4.466   4.808   4.185
 5313TIP3    H215946   4.322   4.853   4.181
 5314TIP3   OH215947   4.961   4.748   4.613
 5314TIP3    H115948   5.000   4.666   4.644
 5314TIP3    H215949   5.035   4.797   4.576
 5315TIP3   OH215950   5.007   5.005   4.355
 5315TIP3    H115951   4.953   5.066   4.304
 5315TIP3    H215952   5.096   5.020   4.323
 5316TIP3   OH215953   4.224   4.552   4.779
 5316TIP3    H115954   4.158   4.487   4.803
 5316TIP3    H215955   4.258   4.523   4.695
 5317TIP3   OH215956   4.483   4.027   4.442
 5317TIP3    H115957   4.438   4.108   4.415
 5317TIP3    H215958   4.417   3.959   4.433
 5318TIP3   OH215959   4.610   4.512   4.649
 5318TIP3    H115960   4.603   4.500   4.744
 5318TIP3    H215961   4.523   4.491   4.616
 5319TIP3   OH215962   4.842   4.456   4.500
 5319TIP3    H115963   4.769   4.462   4.562
 5319TIP3    H215964   4.917   4.433   4.554
 5320TIP3   OH215965   5.078   4.415   4.647
 5320TIP3    H115966   5.094   4.322   4.659
 5320TIP3    H215967   5.072   4.450   4.736
 5321TIP3   OH215968   4.067   4.336   4.856
 5321TIP3    H115969   4.070   4.246   4.823
 5321TIP3    H215970   4.102   4.330   4.944
 5322TIP3   OH215971   4.560   4.018   4.707
 5322TIP3    H115972   4.630   3.953   4.703
 5322TIP3    H215973   4.526   4.023   4.617
 5323TIP3   OH215974   4.639   4.238   4.850
 5323TIP3    H115975   4.613   4.164   4.795
 5323TIP3    H215976   4.564   4.297   4.848
 5324TIP3   OH215977   3.887   5.482   2.962
 5324TIP3    H115978   3.977   5.461   2.938
 5324TIP3    H215979   3.851   5.527   2.885
 5325TIP3   OH215980   3.356   4.856   3.156
 5325TIP3    H115981   3.450   4.872   3.148
 5325TIP3    H215982   3.343   4.769   3.117
 5326TIP3   OH215983   3.265   5.453   3.602
 5326TIP3    H115984   3.201   5.398   3.557
 5326TIP3    H215985   3.310   5.395   3.662
 5327TIP3   OH215986   3.404   5.292   3.778
 5327TIP3    H115987   3.393   5.223   3.842
 5327TIP3    H215988   3.455   5.359   3.823
 5328TIP3   OH215989   5.138   5.701   3.575
 5328TIP3    H115990   5.171   5.724   3.662
 5328TIP3    H215991   5.198   5.744   3.515
 5329TIP3   OH215992   5.152   5.703   3.869
 5329TIP3    H115993   5.105   5.621   3.851
 5329TIP3    H215994   5.235   5.675   3.907
 5330TIP3   OH215995   5.225   5.434   4.450
 5330TIP3    H115996   5.150   5.431   4.510
 5330TIP3    H215997   5.189   5.467   4.368
 5331TIP3   OH215998   5.014   4.931   3.044
 5331TIP3    H115999   5.072   4.999   3.012
 5331TIP3    H216000   5.062   4.891   3.117
 5332TIP3   OH216001   5.146   4.792   3.240
 5332TIP3    H116002   5.083   4.752   3.299
 5332TIP3    H216003   5.217   4.822   3.297
 5333TIP3   OH216004   5.004   5.471   3.863
 5333TIP3    H116005   4.930   5.466   3.923
 5333TIP3    H216006   4.972   5.434   3.781
 5334TIP3   OH216007   5.080   4.703   2.895
 5334TIP3    H116008   5.011   4.704   2.828
 5334TIP3    H216009   5.061   4.778   2.950
 5335TIP3   OH216010   4.928   4.316   2.857
 5335TIP3    H116011   4.892   4.346   2.773
 5335TIP3    H216012   4.888   4.231   2.871
 5336TIP3   OH216013   4.954   4.648   3.382
 5336TIP3    H116014   4.969   4.555   3.365
 5336TIP3    H216015   4.941   4.654   3.476
 5337TIP3   OH216016   3.585   4.717   4.149
 5337TIP3    H116017   3.575   4.681   4.061
 5337TIP3    H216018   3.679   4.716   4.166
 5338TIP3   OH216019   5.257   5.068   4.250
 5338TIP3    H116020   5.327   5.003   4.255
 5338TIP3    H216021   5.232   5.069   4.158
 5339TIP3   OH216022   5.434   4.863   4.257
 5339TIP3    H116023   5.355   4.818   4.289
 5339TIP3    H216024   5.505   4.801   4.274
 5340TIP3   OH216025   4.984   4.380   3.269
 5340TIP3    H116026   5.018   4.293   3.285
 5340TIP3    H216027   5.030   4.411   3.191
 5341TIP3   OH216028   5.106   4.518   3.806
 5341TIP3    H116029   5.182   4.542   3.752
 5341TIP3    H216030   5.115   4.574   3.884
 5342TIP3   OH216031   5.165   4.687   4.025
 5342TIP3    H116032   5.088   4.711   4.077
 5342TIP3    H216033   5.193   4.770   3.986
 5343TIP3   OH216034   3.803   4.397   4.804
 5343TIP3    H116035   3.897   4.394   4.819
 5343TIP3    H216036   3.770   4.315   4.843
 5344TIP3   OH216037   5.642   4.282   4.559
 5344TIP3    H116038   5.705   4.219   4.522
 5344TIP3    H216039   5.609   4.330   4.483
 5345TIP3   OH216040   5.046   4.123   3.348
 5345TIP3    H116041   5.104   4.092   3.417
 5345TIP3    H216042   4.990   4.048   3.328
 5346TIP3   OH216043   3.773   4.102   4.150
 5346TIP3    H116044   3.828   4.023   4.154
 5346TIP3    H216045   3.835   4.173   4.135
 5347TIP3   OH216046   3.563   4.371   4.212
 5347TIP3    H116047   3.613   4.362   4.131
 5347TIP3    H216048   3.592   4.454   4.249
 5348TIP3   OH216049   5.498   4.403   4.363
 5348TIP3    H116050   5.418   4.444   4.395
 5348TIP3    H216051   5.468   4.332   4.306
 5349TIP3   OH216052   5.208   4.032   3.005
 5349TIP3    H116053   5.215   3.981   2.924
 5349TIP3    H216054   5.233   4.121   2.979
 5350TIP3   OH216055   3.553   3.897   3.735
 5350TIP3    H116056   3.461   3.877   3.752
 5350TIP3    H216057   3.552   3.950   3.655
 5351TIP3   OH216058   4.703   5.592   3.225
 5351TIP3    H116059   4.759   5.577   3.148
 5351TIP3    H216060   4.751   5.656   3.278
 5352TIP3   OH216061   3.771   3.946   4.536
 5352TIP3    H116062   3.720   3.941   4.617
 5352TIP3    H216063   3.712   3.989   4.474
 5353TIP3   OH216064   3.807   5.388   4.607
 5353TIP3    H116065   3.713   5.369   4.597
 5353TIP3    H216066   3.823   5.378   4.701
 5354TIP3   OH216067   4.002   5.430   4.160
 5354TIP3    H116068   3.949   5.503   4.127
 5354TIP3    H216069   4.086   5.440   4.116
 5355TIP3   OH216070   4.412   5.655   4.282
 5355TIP3    H116071   4.448   5.649   4.371
 5355TIP3    H216072   4.470   5.717   4.237
 5356TIP3   OH216073   4.591   5.823   4.160
 5356TIP3    H116074   4.656   5.761   4.127
 5356TIP3    H216075   4.639   5.874   4.226
 5357TIP3   OH216076   5.409   4.147   4.255
 5357TIP3    H116077   5.319   4.119   4.236
 5357TIP3    H216078   5.461   4.067   4.252
 5358TIP3   OH216079   3.669   5.685   4.197
 5358TIP3    H116080   3.578   5.705   4.176
 5358TIP3    H216081   3.691   5.745   4.269
 5359TIP3   OH216082   3.899   5.662   4.048
 5359TIP3    H116083   3.817   5.670   4.096
 5359TIP3    H216084   3.878   5.688   3.959
 5360TIP3   OH216085   4.315   5.680   3.844
 5360TIP3    H116086   4.245   5.690   3.779
 5360TIP3    H216087   4.325   5.767   3.882
 5361TIP3   OH216088   4.583   5.630   3.891
 5361TIP3    H116089   4.488   5.636   3.877
 5361TIP3    H216090   4.620   5.692   3.828
 5362TIP3   OH216091   4.783   5.807   3.804
 5362TIP3    H116092   4.768   5.889   3.758
 5362TIP3    H216093   4.811   5.746   3.736
 5363TIP3   OH216094   3.581   5.463   3.926
 5363TIP3    H116095   3.604   5.434   4.015
 5363TIP3    H216096   3.652   5.429   3.871
 5364TIP3   OH216097   3.781   5.345   3.785
 5364TIP3    H116098   3.792   5.261   3.830
 5364TIP3    H216099   3.869   5.384   3.786
 5365TIP3   OH216100   4.050   5.432   3.800
 5365TIP3    H116101   4.069   5.339   3.785
 5365TIP3    H216102   4.099   5.454   3.879
 5366TIP3   OH216103   4.601   4.056   3.883
 5366TIP3    H116104   4.555   4.003   3.948
 5366TIP3    H216105   4.626   3.994   3.814
 5367TIP3   OH216106   5.212   4.052   3.564
 5367TIP3    H116107   5.283   3.996   3.533
 5367TIP3    H216108   5.246   4.141   3.554
 5368TIP3   OH216109   3.851   3.786   3.892
 5368TIP3    H116110   3.761   3.754   3.895
 5368TIP3    H216111   3.904   3.706   3.883
 5369TIP3   OH216112   3.647   3.682   3.568
 5369TIP3    H116113   3.689   3.727   3.494
 5369TIP3    H216114   3.626   3.752   3.630
 5370TIP3   OH216115   4.320   3.834   3.771
 5370TIP3    H116116   4.376   3.883   3.710
 5370TIP3    H216117   4.349   3.862   3.858
 5371TIP3   OH216118   4.873   3.908   3.320
 5371TIP3    H116119   4.785   3.946   3.323
 5371TIP3    H216120   4.864   3.822   3.360
 5372TIP3   OH216121   3.357   5.252   3.306
 5372TIP3    H116122   3.273   5.216   3.280
 5372TIP3    H216123   3.355   5.343   3.276
 5373TIP3   OH216124   3.790   3.795   3.354
 5373TIP3    H116125   3.840   3.717   3.330
 5373TIP3    H216126   3.856   3.863   3.367
 5374TIP3   OH216127   4.273   4.004   3.401
 5374TIP3    H116128   4.327   3.950   3.458
 5374TIP3    H216129   4.294   4.094   3.426
 5375TIP3   OH216130   4.145   5.412   2.898
 5375TIP3    H116131   4.230   5.438   2.863
 5375TIP3    H216132   4.118   5.339   2.843
 5376TIP3   OH216133   4.856   5.547   2.998
 5376TIP3    H116134   4.848   5.452   2.989
 5376TIP3    H216135   4.813   5.581   2.919
 5377TIP3   OH216136   4.075   4.064   4.776
 5377TIP3    H116137   4.038   3.997   4.833
 5377TIP3    H216138   4.167   4.070   4.801
 5378TIP3   OH216139   4.325   4.069   4.897
 5378TIP3    H116140   4.405   4.045   4.851
 5378TIP3    H216141   4.314   4.000   4.963
 5379TIP3   OH216142   3.449   5.255   2.957
 5379TIP3    H116143   3.451   5.259   3.052
 5379TIP3    H216144   3.530   5.210   2.933
 5380TIP3   OH216145   5.148   4.151   4.674
 5380TIP3    H116146   5.160   4.121   4.764
 5380TIP3    H216147   5.236   4.146   4.636
 5381TIP3   OH216148   5.090   5.658   4.201
 5381TIP3    H116149   5.013   5.613   4.166
 5381TIP3    H216150   5.126   5.705   4.126
 5382TIP3   OH216151   6.320   5.070   2.959
 5382TIP3    H116152   6.296   5.157   2.926
 5382TIP3    H216153   6.255   5.012   2.920
 5383TIP3   OH216154   6.298   5.060   3.340
 5383TIP3    H116155   6.339   5.041   3.424
 5383TIP3    H216156   6.262   4.977   3.310
 5384TIP3   OH216157   5.665   4.959   3.673
 5384TIP3    H116158   5.661   4.883   3.732
 5384TIP3    H216159   5.731   5.016   3.712
 5385TIP3   OH216160   0.100   5.411   3.083
 5385TIP3    H116161   0.088   5.324   3.120
 5385TIP3    H216162   0.037   5.466   3.131
 5386TIP3   OH216163   5.589   5.357   3.316
 5386TIP3    H116164   5.600   5.270   3.354
 5386TIP3    H216165   5.663   5.408   3.350
 5387TIP3   OH216166   5.317   4.564   3.187
 5387TIP3    H116167   5.279   4.650   3.205
 5387TIP3    H216168   5.250   4.518   3.136
 5388TIP3   OH216169   5.385   4.845   3.361
 5388TIP3    H116170   5.432   4.786   3.420
 5388TIP3    H216171   5.452   4.879   3.302
 5389TIP3   OH216172   6.156   5.304   3.363
 5389TIP3    H116173   6.186   5.218   3.333
 5389TIP3    H216174   6.235   5.349   3.392
 5390TIP3   OH216175   0.074   4.804   3.395
 5390TIP3    H116176   0.101   4.719   3.429
 5390TIP3    H216177   0.027   4.783   3.314
 5391TIP3   OH216178   5.909   4.440   3.356
 5391TIP3    H116179   5.887   4.516   3.302
 5391TIP3    H216180   5.856   4.369   3.321
 5392TIP3   OH216181   0.104   4.543   2.987
 5392TIP3    H116182   0.142   4.483   3.052
 5392TIP3    H216183   0.160   4.535   2.911
 5393TIP3   OH216184   5.527   4.646   3.496
 5393TIP3    H116185   5.613   4.634   3.535
 5393TIP3    H216186   5.532   4.599   3.412
 5394TIP3   OH216187   5.970   4.852   3.265
 5394TIP3    H116188   6.061   4.825   3.280
 5394TIP3    H216189   5.925   4.772   3.238
 5395TIP3   OH216190   5.891   4.433   3.807
 5395TIP3    H116191   5.841   4.469   3.734
 5395TIP3    H216192   5.837   4.451   3.884
 5396TIP3   OH216193   6.227   5.281   2.808
 5396TIP3    H116194   6.194   5.263   2.720
 5396TIP3    H216195   6.195   5.369   2.828
 5397TIP3   OH216196   6.018   5.204   3.579
 5397TIP3    H116197   5.949   5.258   3.617
 5397TIP3    H216198   6.055   5.257   3.508
 5398TIP3   OH216199   5.775   4.541   3.580
 5398TIP3    H116200   5.830   4.615   3.605
 5398TIP3    H216201   5.820   4.502   3.505
 5399TIP3   OH216202   5.827   5.359   3.690
 5399TIP3    H116203   5.811   5.449   3.659
 5399TIP3    H216204   5.750   5.338   3.742
 5400TIP3   OH216205   5.190   5.108   2.924
 5400TIP3    H116206   5.162   5.107   2.832
 5400TIP3    H216207   5.284   5.094   2.920
 5401TIP3   OH216208   6.263   4.146   3.573
 5401TIP3    H116209   6.243   4.054   3.557
 5401TIP3    H216210   6.179   4.185   3.599
 5402TIP3   OH216211   6.170   4.913   2.784
 5402TIP3    H116212   6.086   4.954   2.765
 5402TIP3    H216213   6.214   4.908   2.699
 5403TIP3   OH216214   6.142   4.712   2.478
 5403TIP3    H116215   6.207   4.765   2.524
 5403TIP3    H216216   6.193   4.647   2.430
 5404TIP3   OH216217   0.005   5.008   2.767
 5404TIP3    H116218  -0.052   5.029   2.842
 5404TIP3    H216219   0.094   5.016   2.802
 5405TIP3   OH216220   5.764   5.010   3.174
 5405TIP3    H116221   5.711   4.954   3.117
 5405TIP3    H216222   5.839   4.956   3.199
 5406TIP3   OH216223   5.900   5.410   3.291
 5406TIP3    H116224   5.870   5.320   3.280
 5406TIP3    H216225   5.993   5.401   3.315
 5407TIP3   OH216226   5.935   4.950   3.522
 5407TIP3    H116227   5.945   4.934   3.428
 5407TIP3    H216228   5.961   5.041   3.534
 5408TIP3   OH216229   6.456   5.595   3.293
 5408TIP3    H116230   6.371   5.622   3.258
 5408TIP3    H216231   6.435   5.519   3.347
 5409TIP3   OH216232   6.036   5.573   3.773
 5409TIP3    H116233   5.976   5.609   3.838
 5409TIP3    H216234   6.002   5.486   3.754
 5410TIP3   OH216235   6.354   4.865   2.579
 5410TIP3    H116236   6.408   4.923   2.632
 5410TIP3    H216237   6.384   4.881   2.489
 5411TIP3   OH216238   5.784   5.072   3.931
 5411TIP3    H116239   5.788   5.160   3.967
 5411TIP3    H216240   5.699   5.038   3.959
 5412TIP3   OH216241   6.119   5.531   2.853
 5412TIP3    H116242   6.131   5.600   2.919
 5412TIP3    H216243   6.046   5.563   2.799
 5413TIP3   OH216244   5.815   5.678   3.911
 5413TIP3    H116245   5.778   5.654   3.826
 5413TIP3    H216246   5.744   5.666   3.973
 5414TIP3   OH216247   5.622   4.846   3.007
 5414TIP3    H116248   5.589   4.891   2.930
 5414TIP3    H216249   5.605   4.754   2.991
 5415TIP3   OH216250   5.426   5.201   3.865
 5415TIP3    H116251   5.348   5.149   3.844
 5415TIP3    H216252   5.487   5.139   3.903
 5416TIP3   OH216253   5.271   5.414   3.480
 5416TIP3    H116254   5.314   5.344   3.529
 5416TIP3    H216255   5.241   5.475   3.547
 5417TIP3   OH216256   5.943   5.772   2.632
 5417TIP3    H116257   5.887   5.723   2.571
 5417TIP3    H216258   6.027   5.779   2.587
 5418TIP3   OH216259   5.591   5.413   3.838
 5418TIP3    H116260   5.645   5.401   3.916
 5418TIP3    H216261   5.529   5.340   3.841
 5419TIP3   OH216262   6.005   4.228   3.654
 5419TIP3    H116263   5.922   4.195   3.621
 5419TIP3    H216264   5.983   4.308   3.701
 5420TIP3   OH216265   6.497   4.387   3.870
 5420TIP3    H116266   6.541   4.447   3.931
 5420TIP3    H216267   6.419   4.357   3.917
 5421TIP3   OH216268   6.434   4.903   2.322
 5421TIP3    H116269   6.412   4.876   2.232
 5421TIP3    H216270   6.465   4.993   2.313
 5422TIP3   OH216271   6.157   4.261   2.626
 5422TIP3    H116272   6.121   4.275   2.714
 5422TIP3    H216273   6.112   4.183   2.594
 5423TIP3   OH216274   5.942   4.735   3.680
 5423TIP3    H116275   5.889   4.753   3.758
 5423TIP3    H216276   5.935   4.814   3.627
 5424TIP3   OH216277   5.820   4.634   3.189
 5424TIP3    H116278   5.729   4.615   3.212
 5424TIP3    H216279   5.830   4.600   3.100
 5425TIP3   OH216280   6.315   4.713   2.908
 5425TIP3    H116281   6.263   4.783   2.869
 5425TIP3    H216282   6.377   4.688   2.839
 5426TIP3   OH216283   6.457   4.730   3.149
 5426TIP3    H116284   6.393   4.755   3.083
 5426TIP3    H216285   6.504   4.655   3.111
 5427TIP3   OH216286   5.768   4.763   3.892
 5427TIP3    H116287   5.788   4.827   3.960
 5427TIP3    H216288   5.751   4.682   3.939
 5428TIP3   OH216289   5.809   4.254   2.596
 5428TIP3    H116290   5.801   4.261   2.691
 5428TIP3    H216291   5.736   4.305   2.561
 5429TIP3   OH216292   5.334   4.281   3.497
 5429TIP3    H116293   5.415   4.321   3.530
 5429TIP3    H216294   5.352   4.263   3.405
 5430TIP3   OH216295   5.317   4.285   2.981
 5430TIP3    H116296   5.355   4.317   2.899
 5430TIP3    H216297   5.247   4.348   3.001
 5431TIP3   OH216298   6.425   4.972   3.568
 5431TIP3    H116299   6.488   4.928   3.511
 5431TIP3    H216300   6.425   4.921   3.649
 5432TIP3   OH216301   6.169   4.447   3.247
 5432TIP3    H116302   6.086   4.450   3.295
 5432TIP3    H216303   6.235   4.439   3.315
 5433TIP3   OH216304   5.578   4.512   3.257
 5433TIP3    H116305   5.489   4.522   3.223
 5433TIP3    H216306   5.604   4.423   3.234
 5434TIP3   OH216307   5.842   4.513   2.945
 5434TIP3    H116308   5.935   4.528   2.927
 5434TIP3    H216309   5.798   4.529   2.862
 5435TIP3   OH216310   0.103   4.526   3.451
 5435TIP3    H116311   0.105   4.551   3.543
 5435TIP3    H216312   0.020   4.479   3.441
 5436TIP3   OH216313   5.713   4.519   2.707
 5436TIP3    H116314   5.639   4.488   2.654
 5436TIP3    H216315   5.767   4.568   2.645
 5437TIP3   OH216316   5.754   5.326   4.050
 5437TIP3    H116317   5.832   5.366   4.089
 5437TIP3    H216318   5.694   5.315   4.123
 5438TIP3   OH216319   6.230   4.781   3.339
 5438TIP3    H116320   6.300   4.737   3.292
 5438TIP3    H216321   6.232   4.742   3.426
 5439TIP3   OH216322   5.742   4.260   3.229
 5439TIP3    H116323   5.704   4.186   3.277
 5439TIP3    H216324   5.751   4.228   3.140
 5440TIP3   OH216325   6.208   4.687   3.618
 5440TIP3    H116326   6.118   4.714   3.637
 5440TIP3    H216327   6.262   4.743   3.674
 5441TIP3   OH216328   5.934   5.047   2.719
 5441TIP3    H116329   5.858   4.994   2.696
 5441TIP3    H216330   5.910   5.090   2.801
 5442TIP3   OH216331   6.403   4.379   2.618
 5442TIP3    H116332   6.310   4.356   2.616
 5442TIP3    H216333   6.404   4.474   2.624
 5443TIP3   OH216334   6.480   4.642   2.679
 5443TIP3    H116335   6.560   4.628   2.628
 5443TIP3    H216336   6.438   4.718   2.638
 5444TIP3   OH216337   5.647   5.110   3.413
 5444TIP3    H116338   5.688   5.060   3.342
 5444TIP3    H216339   5.650   5.051   3.489
 5445TIP3   OH216340   6.092   5.210   2.555
 5445TIP3    H116341   6.046   5.294   2.562
 5445TIP3    H216342   6.039   5.149   2.606
 5446TIP3   OH216343   5.533   4.997   4.021
 5446TIP3    H116344   5.535   4.971   4.113
 5446TIP3    H216345   5.445   4.973   3.992
 5447TIP3   OH216346   6.221   5.066   4.083
 5447TIP3    H116347   6.151   5.020   4.036
 5447TIP3    H216348   6.272   5.108   4.014
 5448TIP3   OH216349   0.035   5.185   3.253
 5448TIP3    H116350  -0.050   5.142   3.262
 5448TIP3    H216351   0.088   5.122   3.204
 5449TIP3   OH216352   5.313   4.692   2.728
 5449TIP3    H116353   5.373   4.767   2.732
 5449TIP3    H216354   5.246   4.712   2.794
 5450TIP3   OH216355   5.860   5.163   2.956
 5450TIP3    H116356   5.900   5.238   3.000
 5450TIP3    H216357   5.821   5.111   3.027
 5451TIP3   OH216358   6.104   5.685   3.465
 5451TIP3    H116359   6.163   5.760   3.475
 5451TIP3    H216360   6.101   5.645   3.552
 5452TIP3   OH216361   5.611   5.628   2.889
 5452TIP3    H116362   5.520   5.652   2.871
 5452TIP3    H216363   5.654   5.711   2.909
 5453TIP3   OH216364   6.420   5.362   3.438
 5453TIP3    H116365   6.450   5.344   3.526
 5453TIP3    H216366   6.470   5.303   3.382
 5454TIP3   OH216367   6.322   5.230   2.369
 5454TIP3    H116368   6.398   5.201   2.420
 5454TIP3    H216369   6.248   5.216   2.427
 5455TIP3   OH216370   5.722   4.510   4.018
 5455TIP3    H116371   5.627   4.506   4.024
 5455TIP3    H216372   5.753   4.463   4.095
 5456TIP3   OH216373   0.032   5.139   2.529
 5456TIP3    H116374   0.016   5.108   2.618
 5456TIP3    H216375   0.101   5.205   2.539
 5457TIP3   OH216376   5.437   5.589   3.684
 5457TIP3    H116377   5.488   5.527   3.736
 5457TIP3    H216378   5.496   5.663   3.671
 5458TIP3   OH216379   5.720   5.240   2.330
 5458TIP3    H116380   5.746   5.153   2.302
 5458TIP3    H216381   5.704   5.232   2.424
 5459TIP3   OH216382   5.667   5.259   2.596
 5459TIP3    H116383   5.679   5.205   2.673
 5459TIP3    H216384   5.679   5.349   2.627
 5460TIP3   OH216385   0.083   4.590   3.712
 5460TIP3    H116386   0.145   4.615   3.780
 5460TIP3    H216387   0.039   4.512   3.747
 5461TIP3   OH216388   6.411   4.351   2.891
 5461TIP3    H116389   6.415   4.351   2.795
 5461TIP3    H216390   6.463   4.427   2.917
 5462TIP3   OH216391   5.958   5.449   2.575
 5462TIP3    H116392   5.871   5.461   2.613
 5462TIP3    H216393   5.961   5.508   2.500
 5463TIP3   OH216394   6.125   4.523   2.979
 5463TIP3    H116395   6.190   4.588   2.951
 5463TIP3    H216396   6.139   4.514   3.073
 5464TIP3   OH216397   6.411   4.800   3.783
 5464TIP3    H116398   6.419   4.809   3.878
 5464TIP3    H216399   6.469   4.727   3.761
 5465TIP3   OH216400   6.258   4.242   3.085
 5465TIP3    H116401   6.230   4.318   3.137
 5465TIP3    H216402   6.315   4.279   3.017
 5466TIP3   OH216403   5.706   5.527   2.653
 5466TIP3    H116404   5.671   5.593   2.594
 5466TIP3    H216405   5.679   5.555   2.741
 5467TIP3   OH216406   5.788   4.240   2.878
 5467TIP3    H116407   5.775   4.332   2.902
 5467TIP3    H216408   5.883   4.228   2.880
 5468TIP3   OH216409   0.137   4.954   3.125
 5468TIP3    H116410   0.068   4.889   3.139
 5468TIP3    H216411   0.197   4.941   3.199
 5469TIP3   OH216412   5.395   5.181   2.578
 5469TIP3    H116413   5.476   5.229   2.561
 5469TIP3    H216414   5.423   5.104   2.628
 5470TIP3   OH216415   5.347   4.418   2.744
 5470TIP3    H116416   5.356   4.514   2.747
 5470TIP3    H216417   5.278   4.402   2.680
 5471TIP3   OH216418   5.743   4.141   3.617
 5471TIP3    H116419   5.711   4.112   3.532
 5471TIP3    H216420   5.728   4.067   3.676
 5472TIP3   OH216421   5.333   5.431   3.049
 5472TIP3    H116422   5.258   5.472   3.092
 5472TIP3    H216423   5.309   5.428   2.956
 5473TIP3   OH216424   5.906   5.418   2.244
 5473TIP3    H116425   5.838   5.360   2.277
 5473TIP3    H216426   5.981   5.361   2.228
 5474TIP3   OH216427   5.566   5.293   4.244
 5474TIP3    H116428   5.587   5.201   4.262
 5474TIP3    H216429   5.474   5.292   4.217
 5475TIP3   OH216430   6.031   5.156   2.282
 5475TIP3    H116431   6.045   5.166   2.376
 5475TIP3    H216432   6.034   5.062   2.267
 5476TIP3   OH216433   5.712   5.045   4.276
 5476TIP3    H116434   5.768   4.983   4.230
 5476TIP3    H216435   5.756   5.059   4.360
 5477TIP3   OH216436   6.032   4.944   3.916
 5477TIP3    H116437   5.949   4.990   3.914
 5477TIP3    H216438   6.082   4.980   3.842
 5478TIP3   OH216439   5.874   4.641   2.522
 5478TIP3    H116440   5.836   4.670   2.439
 5478TIP3    H216441   5.966   4.666   2.516
 5479TIP3   OH216442   6.140   4.722   4.035
 5479TIP3    H116443   6.141   4.646   3.977
 5479TIP3    H216444   6.103   4.792   3.982
 5480TIP3   OH216445   6.153   4.510   3.842
 5480TIP3    H116446   6.180   4.553   3.761
 5480TIP3    H216447   6.060   4.492   3.828
 5481TIP3   OH216448   6.194   5.056   3.726
 5481TIP3    H116449   6.269   5.041   3.668
 5481TIP3    H216450   6.135   5.110   3.674
 5482TIP3   OH216451   5.893   4.844   4.190
 5482TIP3    H116452   5.889   4.761   4.238
 5482TIP3    H216453   5.978   4.842   4.147
 5483TIP3   OH216454   6.256   4.277   3.950
 5483TIP3    H116455   6.219   4.358   3.915
 5483TIP3    H216456   6.193   4.209   3.926
 5484TIP3   OH216457   6.407   4.756   4.097
 5484TIP3    H116458   6.411   4.763   4.192
 5484TIP3    H216459   6.313   4.748   4.077
 5485TIP3   OH216460   0.113   4.613   3.989
 5485TIP3    H116461   0.044   4.660   4.037
 5485TIP3    H216462   0.194   4.638   4.033
 5486TIP3   OH216463   5.864   4.591   4.315
 5486TIP3    H116464   5.877   4.500   4.288
 5486TIP3    H216465   5.893   4.593   4.406
 5487TIP3   OH216466   6.326   4.279   4.217
 5487TIP3    H116467   6.387   4.205   4.228
 5487TIP3    H216468   6.302   4.276   4.124
 5488TIP3   OH216469   6.462   4.510   4.293
 5488TIP3    H116470   6.411   4.432   4.270
 5488TIP3    H216471   6.396   4.573   4.322
 5489TIP3   OH216472   5.666   5.731   2.467
 5489TIP3    H116473   5.748   5.700   2.429
 5489TIP3    H216474   5.619   5.771   2.394
 5490TIP3   OH216475   5.143   5.103   2.646
 5490TIP3    H116476   5.232   5.135   2.628
 5490TIP3    H216477   5.140   5.017   2.605
 5491TIP3   OH216478   5.054   5.716   3.076
 5491TIP3    H116479   4.992   5.651   3.042
 5491TIP3    H216480   5.105   5.668   3.141
 5492TIP3   OH216481   5.207   5.559   3.250
 5492TIP3    H116482   5.195   5.500   3.325
 5492TIP3    H216483   5.257   5.632   3.286
 5493TIP3   OH216484   5.599   4.651   4.293
 5493TIP3    H116485   5.694   4.643   4.290
 5493TIP3    H216486   5.568   4.568   4.328
 5494TIP3   OH216487   5.564   4.356   3.652
 5494TIP3    H116488   5.624   4.282   3.647
 5494TIP3    H216489   5.618   4.432   3.627
 5495TIP3   OH216490   5.340   4.644   3.710
 5495TIP3    H116491   5.398   4.637   3.634
 5495TIP3    H216492   5.334   4.737   3.728
 5496TIP3   OH216493   5.345   4.179   3.236
 5496TIP3    H116494   5.265   4.126   3.228
 5496TIP3    H216495   5.356   4.218   3.149
 5497TIP3   OH216496   5.570   4.203   4.025
 5497TIP3    H116497   5.516   4.194   4.104
 5497TIP3    H216498   5.513   4.246   3.962
 5498TIP3   OH216499   5.601   5.628   4.075
 5498TIP3    H116500   5.509   5.625   4.049
 5498TIP3    H216501   5.605   5.576   4.156
 5499TIP3   OH216502   5.785   5.616   3.637
 5499TIP3    H116503   5.713   5.670   3.604
 5499TIP3    H216504   5.864   5.667   3.617
 5500TIP3   OH216505   5.463   5.963   3.729
 5500TIP3    H116506   5.381   5.980   3.682
 5500TIP3    H216507   5.435   5.928   3.814
 5501TIP3   OH216508   5.605   5.787   3.550
 5501TIP3    H116509   5.545   5.861   3.564
 5501TIP3    H216510   5.681   5.825   3.506
 5502TIP3   OH216511   5.397   5.672   3.415
 5502TIP3    H116512   5.392   5.616   3.493
 5502TIP3    H216513   5.474   5.727   3.431
 5503TIP3   OH216514   5.846   5.690   3.255
 5503TIP3    H116515   5.868   5.597   3.247
 5503TIP3    H216516   5.868   5.712   3.345
 5504TIP3   OH216517   6.370   4.364   3.422
 5504TIP3    H116518   6.329   4.302   3.483
 5504TIP3    H216519   6.430   4.310   3.371
 5505TIP3   OH216520   5.647   4.043   3.378
 5505TIP3    H116521   5.554   4.019   3.379
 5505TIP3    H216522   5.693   3.959   3.368
 5506TIP3   OH216523   5.491   3.937   3.023
 5506TIP3    H116524   5.514   3.982   2.942
 5506TIP3    H216525   5.411   3.980   3.053
 5507TIP3   OH216526   6.117   4.084   3.270
 5507TIP3    H116527   6.166   4.129   3.202
 5507TIP3    H216528   6.087   4.154   3.329
 5508TIP3   OH216529   0.041   4.198   3.300
 5508TIP3    H116530   0.075   4.241   3.221
 5508TIP3    H216531   0.028   4.107   3.274
 5509TIP3   OH216532   0.182   4.206   2.783
 5509TIP3    H116533   0.150   4.258   2.857
 5509TIP3    H216534   0.215   4.126   2.822
 5510TIP3   OH216535   5.184   5.517   2.819
 5510TIP3    H116536   5.109   5.459   2.807
 5510TIP3    H216537   5.160   5.598   2.774
 5511TIP3   OH216538   5.576   4.074   2.789
 5511TIP3    H116539   5.621   4.017   2.726
 5511TIP3    H216540   5.645   4.132   2.822
 5512TIP3   OH216541   6.062   4.274   2.884
 5512TIP3    H116542   6.118   4.223   2.943
 5512TIP3    H216543   6.079   4.365   2.907
 5513TIP3   OH216544   5.917   5.653   2.375
 5513TIP3    H116545   5.957   5.716   2.315
 5513TIP3    H216546   5.907   5.573   2.324
 5514TIP3   OH216547   5.875   4.311   4.259
 5514TIP3    H116548   5.837   4.245   4.316
 5514TIP3    H216549   5.965   4.322   4.291
 5515TIP3   OH216550   6.113   4.336   4.396
 5515TIP3    H116551   6.191   4.318   4.343
 5515TIP3    H216552   6.110   4.264   4.458
 5516TIP3   OH216553   5.250   5.504   2.445
 5516TIP3    H116554   5.248   5.497   2.540
 5516TIP3    H216555   5.330   5.460   2.418
 5517TIP3   OH216556   1.424   5.654   4.548
 5517TIP3    H116557   1.447   5.738   4.590
 5517TIP3    H216558   1.443   5.668   4.455
 5518TIP3   OH216559   0.792   5.825   4.568
 5518TIP3    H116560   0.835   5.742   4.588
 5518TIP3    H216561   0.748   5.811   4.485
 5519TIP3   OH216562   0.857   5.583   4.164
 5519TIP3    H116563   0.920   5.570   4.234
 5519TIP3    H216564   0.908   5.618   4.091
 5520TIP3   OH216565   1.497   5.867   4.720
 5520TIP3    H116566   1.406   5.898   4.715
 5520TIP3    H216567   1.530   5.902   4.803
 5521TIP3   OH216568   1.033   5.591   4.370
 5521TIP3    H116569   0.992   5.574   4.454
 5521TIP3    H216570   1.093   5.665   4.387
 5522TIP3   OH216571   1.217   5.540   4.708
 5522TIP3    H116572   1.130   5.563   4.674
 5522TIP3    H216573   1.278   5.571   4.642
 5523TIP3   OH216574   3.492   0.040   4.559
 5523TIP3    H116575   3.414   0.093   4.542
 5523TIP3    H216576   3.538   0.038   4.475
 5524TIP3   OH216577   0.811   6.040   3.976
 5524TIP3    H116578   0.770   6.073   4.057
 5524TIP3    H216579   0.892   6.000   4.006
 5525TIP3   OH216580   1.029   6.064   4.847
 5525TIP3    H116581   1.040   6.159   4.857
 5525TIP3    H216582   0.941   6.053   4.813
 5526TIP3   OH216583   0.670   5.873   3.798
 5526TIP3    H116584   0.709   5.949   3.840
 5526TIP3    H216585   0.656   5.900   3.708
 5527TIP3   OH216586   1.129   5.133   3.802
 5527TIP3    H116587   1.052   5.153   3.855
 5527TIP3    H216588   1.142   5.211   3.748
 5528TIP3   OH216589   1.291   6.042   4.980
 5528TIP3    H116590   1.199   6.054   4.957
 5528TIP3    H216591   1.301   5.947   4.991
 5529TIP3   OH216592   0.802   5.376   5.045
 5529TIP3    H116593   0.893   5.368   5.073
 5529TIP3    H216594   0.751   5.332   5.114
 5530TIP3   OH216595   1.007   5.805   4.968
 5530TIP3    H116596   0.994   5.834   5.059
 5530TIP3    H216597   1.006   5.886   4.917
 5531TIP3   OH216598   0.658   5.944   3.538
 5531TIP3    H116599   0.617   5.898   3.465
 5531TIP3    H216600   0.746   5.965   3.506
 5532TIP3   OH216601   0.576   5.802   4.065
 5532TIP3    H116602   0.554   5.854   3.988
 5532TIP3    H216603   0.621   5.725   4.030
 5533TIP3   OH216604   0.714   5.775   4.305
 5533TIP3    H116605   0.650   5.803   4.240
 5533TIP3    H216606   0.755   5.698   4.267
 5534TIP3   OH216607   0.770   6.021   4.758
 5534TIP3    H116608   0.781   5.954   4.691
 5534TIP3    H216609   0.688   5.998   4.802
 5535TIP3   OH216610   0.902   5.568   4.613
 5535TIP3    H116611   0.889   5.580   4.706
 5535TIP3    H216612   0.835   5.505   4.587
 5536TIP3   OH216613   3.296   0.209   4.472
 5536TIP3    H116614   3.270   0.278   4.534
 5536TIP3    H216615   3.220   0.151   4.467
 5537TIP3   OH216616   0.617   5.424   3.783
 5537TIP3    H116617   0.547   5.462   3.730
 5537TIP3    H216618   0.670   5.500   3.810
 5538TIP3   OH216619   0.748   5.636   3.886
 5538TIP3    H116620   0.841   5.651   3.899
 5538TIP3    H216621   0.715   5.716   3.845
 5539TIP3   OH216622   1.142   5.743   3.707
 5539TIP3    H116623   1.083   5.703   3.643
 5539TIP3    H216624   1.153   5.833   3.675
 5540TIP3   OH216625   0.937   6.147   4.472
 5540TIP3    H116626   0.849   6.150   4.510
 5540TIP3    H216627   0.933   6.075   4.409
 5541TIP3   OH216628   3.000   0.076   3.764
 5541TIP3    H116629   2.986   0.021   3.841
 5541TIP3    H216630   3.088   0.054   3.734
 5542TIP3   OH216631   0.847   5.595   4.873
 5542TIP3    H116632   0.897   5.662   4.920
 5542TIP3    H216633   0.820   5.533   4.941
 5543TIP3   OH216634   0.723   5.366   4.042
 5543TIP3    H116635   0.680   5.385   3.959
 5543TIP3    H216636   0.759   5.450   4.070
 5544TIP3   OH216637   0.594   5.273   4.263
 5544TIP3    H116638   0.560   5.356   4.296
 5544TIP3    H216639   0.642   5.296   4.184
 5545TIP3   OH216640   1.280   5.759   4.930
 5545TIP3    H116641   1.187   5.751   4.949
 5545TIP3    H216642   1.288   5.735   4.838
 5546TIP3   OH216643   0.948   5.925   4.311
 5546TIP3    H116644   0.870   5.871   4.323
 5546TIP3    H216645   1.014   5.884   4.367
 5547TIP3   OH216646   0.891   6.010   3.415
 5547TIP3    H116647   0.945   6.004   3.336
 5547TIP3    H216648   0.875   6.104   3.426
 5548TIP3   OH216649   3.506   0.913   0.235
 5548TIP3    H116650   3.463   0.859   0.301
 5548TIP3    H216651   3.552   0.851   0.179
 5549TIP3   OH216652   5.505   2.666   0.051
 5549TIP3    H116653   5.499   2.571   0.041
 5549TIP3    H216654   5.453   2.684   0.130
 5550TIP3   OH216655   3.258   0.049   3.692
 5550TIP3    H116656   3.300   0.135   3.686
 5550TIP3    H216657   3.304   0.006   3.765
 5551TIP3   OH216658   1.218   6.038   3.887
 5551TIP3    H116659   1.154   6.004   3.949
 5551TIP3    H216660   1.273   6.097   3.939
 5552TIP3   OH216661   1.130   5.961   3.542
 5552TIP3    H116662   1.046   5.948   3.499
 5552TIP3    H216663   1.120   6.041   3.593
 5553TIP3   OH216664   0.990   5.662   3.497
 5553TIP3    H116665   0.941   5.700   3.424
 5553TIP3    H216666   0.973   5.568   3.490
 5554TIP3   OH216667   1.042   5.924   4.058
 5554TIP3    H116668   1.040   5.830   4.038
 5554TIP3    H216669   1.022   5.929   4.151
 5555TIP3   OH216670   3.697   0.053   4.949
 5555TIP3    H116671   3.605   0.039   4.971
 5555TIP3    H216672   3.737  -0.033   4.958
 5556TIP3   OH216673   0.937   5.395   3.487
 5556TIP3    H116674   1.005   5.363   3.547
 5556TIP3    H216675   0.858   5.346   3.511
 5557TIP3   OH216676   1.019   5.666   3.946
 5557TIP3    H116677   1.061   5.582   3.960
 5557TIP3    H216678   1.060   5.701   3.867
 5558TIP3   OH216679   1.163   5.820   4.448
 5558TIP3    H116680   1.244   5.842   4.404
 5558TIP3    H216681   1.174   5.853   4.537
 5559TIP3   OH216682   1.230   5.946   4.685
 5559TIP3    H116683   1.160   5.979   4.742
 5559TIP3    H216684   1.262   6.023   4.639
 5560TIP3   OH216685   1.692   5.560   5.220
 5560TIP3    H116686   1.755   5.502   5.178
 5560TIP3    H216687   1.656   5.612   5.148
 5561TIP3   OH216688   1.121   5.415   3.987
 5561TIP3    H116689   1.164   5.400   4.071
 5561TIP3    H216690   1.058   5.342   3.979
 5562TIP3   OH216691   1.549   5.699   5.037
 5562TIP3    H116692   1.484   5.741   5.092
 5562TIP3    H216693   1.498   5.645   4.977
 5563TIP3   OH216694   1.174   5.339   3.626
 5563TIP3    H116695   1.215   5.276   3.567
 5563TIP3    H216696   1.234   5.413   3.628
 5564TIP3   OH216697   1.443   5.465   4.913
 5564TIP3    H116698   1.359   5.464   4.867
 5564TIP3    H216699   1.475   5.375   4.904
 5565TIP3   OH216700   0.706   5.378   4.557
 5565TIP3    H116701   0.623   5.337   4.533
 5565TIP3    H216702   0.770   5.338   4.498
 5566TIP3   OH216703   1.173   5.281   4.443
 5566TIP3    H116704   1.210   5.332   4.370
 5566TIP3    H216705   1.079   5.299   4.438
 5567TIP3   OH216706   1.280   5.368   4.207
 5567TIP3    H116707   1.350   5.310   4.176
 5567TIP3    H216708   1.314   5.456   4.194
 5568TIP3   OH216709   0.897   5.254   4.410
 5568TIP3    H116710   0.898   5.217   4.322
 5568TIP3    H216711   0.889   5.178   4.468
 5569TIP3   OH216712   0.937   5.203   3.984
 5569TIP3    H116713   0.858   5.255   4.000
 5569TIP3    H216714   0.920   5.119   4.026
 5570TIP3   OH216715   5.530   2.392   0.030
 5570TIP3    H116716   5.554   2.360   0.117
 5570TIP3    H216717   5.612   2.393  -0.019
 5571TIP3   OH216718   4.578   0.183   3.632
 5571TIP3    H116719   4.564   0.277   3.639
 5571TIP3    H216720   4.503   0.151   3.582
 5572TIP3   OH216721   4.564   0.204   3.957
 5572TIP3    H116722   4.580   0.249   4.040
 5572TIP3    H216723   4.528   0.119   3.983
 5573TIP3   OH216724   3.882   0.076   4.351
 5573TIP3    H116725   3.912   0.013   4.416
 5573TIP3    H216726   3.919   0.160   4.380
 5574TIP3   OH216727   1.384   5.831   3.829
 5574TIP3    H116728   1.342   5.914   3.852
 5574TIP3    H216729   1.312   5.774   3.801
 5575TIP3   OH216730   3.585   0.021   4.045
 5575TIP3    H116731   3.625  -0.060   4.077
 5575TIP3    H216732   3.658   0.074   4.015
 5576TIP3   OH216733   3.220   5.913   4.034
 5576TIP3    H116734   3.242   5.995   4.078
 5576TIP3    H216735   3.242   5.928   3.942
 5577TIP3   OH216736   2.614   6.083   4.067
 5577TIP3    H116737   2.651   5.999   4.091
 5577TIP3    H216738   2.575   6.068   3.981
 5578TIP3   OH216739   1.957   5.743   4.023
 5578TIP3    H116740   1.935   5.816   3.964
 5578TIP3    H216741   1.905   5.670   3.990
 5579TIP3   OH216742   2.654   5.835   3.655
 5579TIP3    H116743   2.718   5.825   3.726
 5579TIP3    H216744   2.704   5.871   3.582
 5580TIP3   OH216745   1.575   5.940   4.136
 5580TIP3    H116746   1.658   5.938   4.184
 5580TIP3    H216747   1.593   5.890   4.056
 5581TIP3   OH216748   2.049   6.139   3.894
 5581TIP3    H116749   2.135   6.113   3.927
 5581TIP3    H216750   2.002   6.056   3.884
 5582TIP3   OH216751   5.454  -0.005   4.212
 5582TIP3    H116752   5.363   0.024   4.207
 5582TIP3    H216753   5.484   0.026   4.298
 5583TIP3   OH216754   1.937   5.735   4.470
 5583TIP3    H116755   1.885   5.771   4.399
 5583TIP3    H216756   1.884   5.749   4.549
 5584TIP3   OH216757   4.124   0.273   4.316
 5584TIP3    H116758   4.123   0.301   4.407
 5584TIP3    H216759   4.188   0.330   4.274
 5585TIP3   OH216760   2.825   5.849   3.865
 5585TIP3    H116761   2.787   5.825   3.949
 5585TIP3    H216762   2.886   5.920   3.886
 5586TIP3   OH216763   1.822   5.846   4.243
 5586TIP3    H116764   1.878   5.919   4.270
 5586TIP3    H216765   1.869   5.805   4.171
 5587TIP3   OH216766   3.014   5.809   4.201
 5587TIP3    H116767   2.928   5.834   4.168
 5587TIP3    H216768   3.075   5.836   4.133
 5588TIP3   OH216769   2.282   5.437   4.191
 5588TIP3    H116770   2.275   5.345   4.216
 5588TIP3    H216771   2.207   5.479   4.233
 5589TIP3   OH216772   4.385   0.033   3.484
 5589TIP3    H116773   4.293   0.007   3.483
 5589TIP3    H216774   4.404   0.059   3.393
 5590TIP3   OH216775   2.203   5.952   3.189
 5590TIP3    H116776   2.255   6.021   3.230
 5590TIP3    H216777   2.266   5.903   3.136
 5591TIP3   OH216778   5.250   0.289   4.030
 5591TIP3    H116779   5.177   0.351   4.033
 5591TIP3    H216780   5.288   0.301   3.943
 5592TIP3   OH216781   4.759   0.107   3.447
 5592TIP3    H116782   4.703   0.128   3.522
 5592TIP3    H216783   4.845   0.089   3.486
 5593TIP3   OH216784   4.965   0.185   4.317
 5593TIP3    H116785   4.968   0.280   4.321
 5593TIP3    H216786   4.879   0.164   4.282
 5594TIP3   OH216787   4.006   0.138   3.773
 5594TIP3    H116788   3.949   0.072   3.734
 5594TIP3    H216789   4.076   0.088   3.815
 5595TIP3   OH216790   4.081   0.070   4.130
 5595TIP3    H116791   4.141   0.077   4.056
 5595TIP3    H216792   4.096   0.150   4.180
 5596TIP3   OH216793   4.599  -0.007   3.253
 5596TIP3    H116794   4.646   0.052   3.312
 5596TIP3    H216795   4.609   0.032   3.167
 5597TIP3   OH216796   4.006   0.201   4.619
 5597TIP3    H116797   4.040   0.289   4.633
 5597TIP3    H216798   3.916   0.205   4.650
 5598TIP3   OH216799   2.920   5.393   3.293
 5598TIP3    H116800   2.841   5.412   3.344
 5598TIP3    H216801   2.932   5.470   3.238
 5599TIP3   OH216802   1.682   6.084   3.619
 5599TIP3    H116803   1.640   6.102   3.535
 5599TIP3    H216804   1.650   5.998   3.645
 5600TIP3   OH216805   3.746   0.297   4.476
 5600TIP3    H116806   3.672   0.357   4.484
 5600TIP3    H216807   3.736   0.237   4.551
 5601TIP3   OH216808   5.227   0.153   4.509
 5601TIP3    H116809   5.141   0.171   4.471
 5601TIP3    H216810   5.239   0.059   4.498
 5602TIP3   OH216811   2.047   5.529   4.319
 5602TIP3    H116812   1.964   5.495   4.287
 5602TIP3    H216813   2.025   5.607   4.369
 5603TIP3   OH216814   2.590   5.643   4.518
 5603TIP3    H116815   2.661   5.616   4.577
 5603TIP3    H216816   2.510   5.622   4.567
 5604TIP3   OH216817   2.816   6.065   4.435
 5604TIP3    H116818   2.773   6.065   4.520
 5604TIP3    H216819   2.800   6.153   4.401
 5605TIP3   OH216820   4.631   0.073   2.994
 5605TIP3    H116821   4.603   0.015   2.923
 5605TIP3    H216822   4.723   0.090   2.976
 5606TIP3   OH216823   2.193   5.571   3.290
 5606TIP3    H116824   2.160   5.575   3.380
 5606TIP3    H216825   2.156   5.490   3.254
 5607TIP3   OH216826   1.995   6.041   4.340
 5607TIP3    H116827   1.946   6.055   4.421
 5607TIP3    H216828   1.959   6.104   4.278
 5608TIP3   OH216829   1.871   5.934   3.846
 5608TIP3    H116830   1.783   5.912   3.875
 5608TIP3    H216831   1.879   5.893   3.760
 5609TIP3   OH216832   2.373   5.971   3.592
 5609TIP3    H116833   2.327   6.045   3.553
 5609TIP3    H216834   2.434   5.942   3.524
 5610TIP3   OH216835   4.723   0.164   4.678
 5610TIP3    H116836   4.689   0.091   4.728
 5610TIP3    H216837   4.818   0.159   4.689
 5611TIP3   OH216838   2.518   6.020   3.822
 5611TIP3    H116839   2.452   6.053   3.761
 5611TIP3    H216840   2.554   5.942   3.778
 5612TIP3   OH216841   1.815   6.048   4.551
 5612TIP3    H116842   1.797   6.119   4.612
 5612TIP3    H216843   1.801   5.968   4.602
 5613TIP3   OH216844   1.856   5.558   3.257
 5613TIP3    H116845   1.845   5.554   3.352
 5613TIP3    H216846   1.777   5.602   3.226
 5614TIP3   OH216847   1.403   5.595   4.130
 5614TIP3    H116848   1.476   5.627   4.182
 5614TIP3    H216849   1.443   5.571   4.046
 5615TIP3   OH216850   1.339   5.561   3.641
 5615TIP3    H116851   1.384   5.595   3.564
 5615TIP3    H216852   1.273   5.627   3.661
 5616TIP3   OH216853   4.700   0.142   4.242
 5616TIP3    H116854   4.725   0.081   4.172
 5616TIP3    H216855   4.670   0.086   4.313
 5617TIP3   OH216856   2.220   5.733   3.908
 5617TIP3    H116857   2.142   5.732   3.964
 5617TIP3    H216858   2.293   5.725   3.969
 5618TIP3   OH216859   1.641   5.804   3.908
 5618TIP3    H116860   1.551   5.804   3.874
 5618TIP3    H216861   1.672   5.714   3.896
 5619TIP3   OH216862   1.879   5.805   3.607
 5619TIP3    H116863   1.972   5.816   3.588
 5619TIP3    H216864   1.835   5.821   3.524
 5620TIP3   OH216865   2.686   5.819   4.113
 5620TIP3    H116866   2.664   5.833   4.205
 5620TIP3    H216867   2.618   5.759   4.081
 5621TIP3   OH216868   1.727   5.833   3.382
 5621TIP3    H116869   1.661   5.786   3.331
 5621TIP3    H216870   1.792   5.861   3.317
 5622TIP3   OH216871   2.291   6.077   4.014
 5622TIP3    H116872   2.358   6.023   3.973
 5622TIP3    H216873   2.282   6.040   4.102
 5623TIP3   OH216874   1.783   5.562   3.897
 5623TIP3    H116875   1.750   5.488   3.949
 5623TIP3    H216876   1.817   5.521   3.817
 5624TIP3   OH216877   2.258   5.994   4.279
 5624TIP3    H116878   2.169   6.017   4.304
 5624TIP3    H216879   2.314   6.041   4.341
 5625TIP3   OH216880   4.088   0.223   3.302
 5625TIP3    H116881   4.085   0.145   3.358
 5625TIP3    H216882   4.057   0.294   3.358
 5626TIP3   OH216883   5.036   0.455   4.012
 5626TIP3    H116884   5.034   0.526   3.948
 5626TIP3    H216885   4.967   0.395   3.983
 5627TIP3   OH216886   2.446   5.665   3.264
 5627TIP3    H116887   2.353   5.647   3.275
 5627TIP3    H216888   2.457   5.755   3.295
 5628TIP3   OH216889   2.529   5.901   3.374
 5628TIP3    H116890   2.624   5.912   3.384
 5628TIP3    H216891   2.501   5.978   3.325
 5629TIP3   OH216892   3.833   0.134   4.024
 5629TIP3    H116893   3.863   0.151   3.935
 5629TIP3    H216894   3.910   0.098   4.069
 5630TIP3   OH216895   3.751   0.101   4.685
 5630TIP3    H116896   3.730   0.098   4.778
 5630TIP3    H216897   3.688   0.041   4.645
 5631TIP3   OH216898   4.464   0.248   4.736
 5631TIP3    H116899   4.401   0.185   4.702
 5631TIP3    H216900   4.545   0.230   4.688
 5632TIP3   OH216901   2.938   5.992   3.195
 5632TIP3    H116902   2.875   5.954   3.133
 5632TIP3    H216903   2.961   6.077   3.157
 5633TIP3   OH216904   4.849   0.271   3.928
 5633TIP3    H116905   4.758   0.244   3.941
 5633TIP3    H216906   4.888   0.200   3.877
 5634TIP3   OH216907   1.365   5.966   3.412
 5634TIP3    H116908   1.400   6.044   3.456
 5634TIP3    H216909   1.280   5.951   3.454
 5635TIP3   OH216910   1.771   5.805   4.683
 5635TIP3    H116911   1.676   5.814   4.687
 5635TIP3    H216912   1.794   5.747   4.756
 5636TIP3   OH216913   4.818   0.343   3.325
 5636TIP3    H116914   4.788   0.270   3.380
 5636TIP3    H216915   4.819   0.307   3.236
 5637TIP3   OH216916   3.587   0.085   3.506
 5637TIP3    H116917   3.547   0.164   3.540
 5637TIP3    H216918   3.656   0.116   3.446
 5638TIP3   OH216919   2.619   5.877   4.375
 5638TIP3    H116920   2.699   5.918   4.408
 5638TIP3    H216921   2.610   5.798   4.428
 5639TIP3   OH216922   2.502   5.625   3.551
 5639TIP3    H116923   2.486   5.645   3.459
 5639TIP3    H216924   2.546   5.702   3.586
 5640TIP3   OH216925   2.159   5.815   3.651
 5640TIP3    H116926   2.233   5.870   3.627
 5640TIP3    H216927   2.172   5.796   3.744
 5641TIP3   OH216928   2.461   6.104   4.444
 5641TIP3    H116929   2.489   6.136   4.529
 5641TIP3    H216930   2.509   6.022   4.432
 5642TIP3   OH216931   2.322   5.525   3.739
 5642TIP3    H116932   2.301   5.602   3.792
 5642TIP3    H216933   2.389   5.556   3.678
 5643TIP3   OH216934   1.836   5.535   3.534
 5643TIP3    H116935   1.824   5.623   3.572
 5643TIP3    H216936   1.930   5.519   3.540
 5644TIP3   OH216937   3.080   6.012   4.425
 5644TIP3    H116938   2.985   6.018   4.437
 5644TIP3    H216939   3.091   5.962   4.344
 5645TIP3   OH216940   4.919   0.044   3.799
 5645TIP3    H116941   4.839  -0.007   3.814
 5645TIP3    H216942   4.983   0.006   3.858
 5646TIP3   OH216943   1.403   5.695   3.413
 5646TIP3    H116944   1.409   5.790   3.421
 5646TIP3    H216945   1.335   5.681   3.347
 5647TIP3   OH216946   1.785   5.442   4.283
 5647TIP3    H116947   1.756   5.409   4.198
 5647TIP3    H216948   1.776   5.367   4.342
 5648TIP3   OH216949   3.763   0.035   3.107
 5648TIP3    H116950   3.754   0.064   3.198
 5648TIP3    H216951   3.812   0.105   3.064
 5649TIP3   OH216952   4.304   0.587   4.743
 5649TIP3    H116953   4.359   0.603   4.666
 5649TIP3    H216954   4.363   0.548   4.807
 5650TIP3   OH216955   4.915   0.453   4.316
 5650TIP3    H116956   4.977   0.498   4.259
 5650TIP3    H216957   4.863   0.523   4.357
 5651TIP3   OH216958   3.954   0.163   4.987
 5651TIP3    H116959   4.003   0.115   4.920
 5651TIP3    H216960   3.863   0.142   4.970
 5652TIP3   OH216961   1.928   6.113   3.439
 5652TIP3    H116962   1.857   6.090   3.499
 5652TIP3    H216963   1.925   6.046   3.371
 5653TIP3   OH216964   4.268   0.100   4.581
 5653TIP3    H116965   4.178   0.134   4.585
 5653TIP3    H216966   4.306   0.142   4.504
 5654TIP3   OH216967   1.930   5.925   3.228
 5654TIP3    H116968   1.895   5.927   3.139
 5654TIP3    H216969   2.025   5.918   3.217
 5655TIP3   OH216970   4.759   0.435   4.749
 5655TIP3    H116971   4.851   0.437   4.774
 5655TIP3    H216972   4.739   0.343   4.734
 5656TIP3   OH216973   4.882   0.058   2.868
 5656TIP3    H116974   4.927  -0.003   2.809
 5656TIP3    H216975   4.893   0.144   2.828
 5657TIP3   OH216976   2.200   6.008   4.699
 5657TIP3    H116977   2.203   5.933   4.640
 5657TIP3    H216978   2.163   6.078   4.647
 5658TIP3   OH216979   2.199   5.811   4.502
 5658TIP3    H116980   2.225   5.847   4.417
 5658TIP3    H216981   2.107   5.789   4.491
 5659TIP3   OH216982   4.424   0.241   4.400
 5659TIP3    H116983   4.509   0.217   4.364
 5659TIP3    H216984   4.393   0.312   4.343
 5660TIP3   OH216985   4.991   0.179   4.761
 5660TIP3    H116986   5.045   0.101   4.777
 5660TIP3    H216987   5.039   0.229   4.696
 5661TIP3   OH216988   5.038   0.372   4.555
 5661TIP3    H116989   4.967   0.403   4.499
 5661TIP3    H216990   5.118   0.391   4.506
 5662TIP3   OH216991   2.070   6.103   4.925
 5662TIP3    H116992   2.007   6.034   4.947
 5662TIP3    H216993   2.107   6.075   4.841
 5663TIP3   OH216994   2.326   5.580   4.596
 5663TIP3    H116995   2.282   5.660   4.565
 5663TIP3    H216996   2.260   5.512   4.585
 5664TIP3   OH216997   2.450   6.073   4.800
 5664TIP3    H116998   2.445   6.059   4.895
 5664TIP3    H216999   2.366   6.042   4.767
 5665TIP3   OH217000   2.692   6.026   4.669
 5665TIP3    H117001   2.617   6.022   4.729
 5665TIP3    H217002   2.767   6.000   4.723
 5666TIP3   OH217003   2.929   5.976   4.807
 5666TIP3    H117004   2.942   5.881   4.818
 5666TIP3    H217005   2.920   6.009   4.896
 5667TIP3   OH217006   1.911   5.890   5.008
 5667TIP3    H117007   1.915   5.802   4.971
 5667TIP3    H217008   1.953   5.882   5.094
 5668TIP3   OH217009   2.400   5.577   4.861
 5668TIP3    H117010   2.469   5.511   4.860
 5668TIP3    H217011   2.368   5.579   4.770
 5669TIP3   OH217012   2.489   5.794   5.003
 5669TIP3    H117013   2.463   5.720   4.948
 5669TIP3    H217014   2.413   5.852   5.002
 5670TIP3   OH217015   5.109   0.335   3.193
 5670TIP3    H117016   5.163   0.413   3.204
 5670TIP3    H217017   5.122   0.284   3.273
 5671TIP3   OH217018   5.183   0.162   3.383
 5671TIP3    H117019   5.119   0.127   3.444
 5671TIP3    H217020   5.246   0.208   3.439
 5672TIP3   OH217021   5.135   0.089   3.038
 5672TIP3    H117022   5.062   0.095   2.976
 5672TIP3    H217023   5.141   0.177   3.076
 5673TIP3   OH217024   2.775   5.917   2.993
 5673TIP3    H117025   2.734   5.955   2.915
 5673TIP3    H217026   2.763   5.822   2.983
 5674TIP3   OH217027   5.005   0.046   3.546
 5674TIP3    H117028   5.004  -0.048   3.528
 5674TIP3    H217029   4.984   0.054   3.639
 5675TIP3   OH217030   3.615   0.048   4.322
 5675TIP3    H117031   3.591   0.067   4.231
 5675TIP3    H217032   3.710   0.063   4.325
 5676TIP3   OH217033   5.236   0.455   4.391
 5676TIP3    H117034   5.317   0.404   4.395
 5676TIP3    H217035   5.234   0.491   4.303
 5677TIP3   OH217036   5.445   0.288   4.424
 5677TIP3    H117037   5.370   0.238   4.457
 5677TIP3    H217038   5.520   0.230   4.438
 5678TIP3   OH217039   2.734   5.650   2.965
 5678TIP3    H117040   2.802   5.619   3.025
 5678TIP3    H217041   2.656   5.600   2.989
 5679TIP3   OH217042   2.807   5.919   3.431
 5679TIP3    H117043   2.847   5.834   3.447
 5679TIP3    H217044   2.852   5.953   3.353
 5680TIP3   OH217045   2.959   6.075   3.948
 5680TIP3    H117046   3.040   6.097   3.902
 5680TIP3    H217047   2.971   6.110   4.036
 5681TIP3   OH217048   5.187   0.079   4.183
 5681TIP3    H117049   5.111   0.108   4.233
 5681TIP3    H217050   5.212   0.155   4.131
 5682TIP3   OH217051   1.648   5.938   4.949
 5682TIP3    H117052   1.742   5.934   4.966
 5682TIP3    H217053   1.614   5.855   4.985
 5683TIP3   OH217054   3.472   5.845   4.711
 5683TIP3    H117055   3.539   5.784   4.679
 5683TIP3    H217056   3.444   5.893   4.633
 5684TIP3   OH217057   2.912   5.670   3.475
 5684TIP3    H117058   2.957   5.656   3.558
 5684TIP3    H217059   2.848   5.599   3.469
 5685TIP3   OH217060   1.614   5.661   4.297
 5685TIP3    H117061   1.670   5.584   4.305
 5685TIP3    H217062   1.674   5.734   4.285
 5686TIP3   OH217063   1.403   5.907   4.354
 5686TIP3    H117064   1.455   5.882   4.277
 5686TIP3    H217065   1.410   6.002   4.358
 5687TIP3   OH217066   3.339   5.959   4.503
 5687TIP3    H117067   3.252   5.996   4.517
 5687TIP3    H217068   3.322   5.877   4.455
 5688TIP3   OH217069   2.968   5.595   3.111
 5688TIP3    H117070   3.008   5.529   3.054
 5688TIP3    H217071   3.032   5.665   3.116
 5689TIP3   OH217072   1.392   5.430   3.873
 5689TIP3    H117073   1.303   5.419   3.908
 5689TIP3    H217074   1.380   5.484   3.795
 5690TIP3   OH217075   1.612   5.505   4.688
 5690TIP3    H117076   1.563   5.501   4.770
 5690TIP3    H217077   1.553   5.547   4.626
 5691TIP3   OH217078   3.250   5.712   4.404
 5691TIP3    H117079   3.160   5.699   4.374
 5691TIP3    H217080   3.289   5.625   4.400
 5692TIP3   OH217081   2.458   5.643   4.036
 5692TIP3    H117082   2.419   5.571   4.086
 5692TIP3    H217083   2.526   5.602   3.984
 5693TIP3   OH217084   2.963   5.539   3.926
 5693TIP3    H117085   3.000   5.590   3.854
 5693TIP3    H217086   2.870   5.563   3.927
 5694TIP3   OH217087   3.073   5.630   3.693
 5694TIP3    H117088   3.143   5.572   3.665
 5694TIP3    H217089   3.109   5.718   3.679
 5695TIP3   OH217090   1.698   5.341   4.040
 5695TIP3    H117091   1.608   5.310   4.046
 5695TIP3    H217092   1.751   5.261   4.035
 5696TIP3   OH217093   1.506   5.236   3.693
 5696TIP3    H117094   1.532   5.289   3.617
 5696TIP3    H217095   1.472   5.300   3.756
 5697TIP3   OH217096   2.162   5.384   3.930
 5697TIP3    H117097   2.214   5.429   3.864
 5697TIP3    H217098   2.202   5.410   4.013
 5698TIP3   OH217099   2.676   5.528   3.906
 5698TIP3    H117100   2.688   5.490   3.819
 5698TIP3    H217101   2.675   5.452   3.964
 5699TIP3   OH217102   2.723   5.466   3.474
 5699TIP3    H117103   2.641   5.511   3.497
 5699TIP3    H217104   2.714   5.379   3.514
 5700TIP3   OH217105   1.618   5.374   3.457
 5700TIP3    H117106   1.662   5.312   3.399
 5700TIP3    H217107   1.688   5.430   3.491
 5701TIP3   OH217108   2.111   5.565   3.553
 5701TIP3    H117109   2.169   5.513   3.608
 5701TIP3    H217110   2.125   5.655   3.582
 5702TIP3   OH217111   1.918   5.620   4.925
 5702TIP3    H117112   1.884   5.550   4.980
 5702TIP3    H217113   2.011   5.626   4.947
 5703TIP3   OH217114   2.171   5.625   5.041
 5703TIP3    H117115   2.250   5.605   4.992
 5703TIP3    H217116   2.165   5.557   5.107
 5704TIP3   OH217117   2.990   5.708   4.831
 5704TIP3    H117118   3.004   5.678   4.920
 5704TIP3    H217119   3.076   5.702   4.789
 5705TIP3   OH217120   6.360   0.490   3.090
 5705TIP3    H117121   6.320   0.558   3.144
 5705TIP3    H217122   6.286   0.449   3.046
 5706TIP3   OH217123   6.378   0.452   3.473
 5706TIP3    H117124   6.410   0.445   3.563
 5706TIP3    H217125   6.328   0.371   3.459
 5707TIP3   OH217126   5.664   0.325   3.833
 5707TIP3    H117127   5.698   0.256   3.890
 5707TIP3    H217128   5.690   0.406   3.875
 5708TIP3   OH217129   3.182   6.088   3.307
 5708TIP3    H117130   3.136   6.169   3.330
 5708TIP3    H217131   3.112   6.024   3.296
 5709TIP3   OH217132   5.389   0.267   3.529
 5709TIP3    H117133   5.430   0.186   3.558
 5709TIP3    H217134   5.462   0.323   3.502
 5710TIP3   OH217135   6.232   0.677   3.468
 5710TIP3    H117136   6.270   0.590   3.457
 5710TIP3    H217137   6.300   0.728   3.510
 5711TIP3   OH217138   0.637   0.038   3.545
 5711TIP3    H117139   0.676   0.124   3.559
 5711TIP3    H217140   0.690  -0.002   3.476
 5712TIP3   OH217141   0.068   0.209   3.550
 5712TIP3    H117142   0.110   0.125   3.569
 5712TIP3    H217143   0.036   0.201   3.461
 5713TIP3   OH217144   3.755   5.997   3.512
 5713TIP3    H117145   3.734   6.069   3.453
 5713TIP3    H217146   3.703   5.924   3.480
 5714TIP3   OH217147   4.443   6.099   3.134
 5714TIP3    H117148   4.509   6.081   3.201
 5714TIP3    H217149   4.494   6.131   3.059
 5715TIP3   OH217150   5.539   0.064   3.627
 5715TIP3    H117151   5.622   0.061   3.675
 5715TIP3    H217152   5.557   0.013   3.548
 5716TIP3   OH217153   6.008   0.261   3.376
 5716TIP3    H117154   6.096   0.240   3.408
 5716TIP3    H217155   5.968   0.176   3.359
 5717TIP3   OH217156   0.702   0.266   3.723
 5717TIP3    H117157   0.617   0.298   3.695
 5717TIP3    H217158   0.743   0.341   3.767
 5718TIP3   OH217159   3.733   5.990   3.961
 5718TIP3    H117160   3.680   6.026   3.890
 5718TIP3    H217161   3.679   6.002   4.039
 5719TIP3   OH217162   5.942   0.559   3.634
 5719TIP3    H117163   5.946   0.613   3.713
 5719TIP3    H217164   5.974   0.616   3.564
 5720TIP3   OH217165   4.614   6.088   3.345
 5720TIP3    H117166   4.572   6.058   3.426
 5720TIP3    H217167   4.659   6.168   3.370
 5721TIP3   OH217168   3.618   6.099   3.731
 5721TIP3    H117169   3.676   6.170   3.759
 5721TIP3    H217170   3.664   6.056   3.659
 5722TIP3   OH217171   4.762   6.040   3.669
 5722TIP3    H117172   4.678   6.069   3.632
 5722TIP3    H217173   4.828   6.082   3.615
 5723TIP3   OH217174   4.077   5.692   3.677
 5723TIP3    H117175   4.068   5.600   3.701
 5723TIP3    H217176   4.002   5.735   3.718
 5724TIP3   OH217177   6.193   0.345   2.914
 5724TIP3    H117178   6.120   0.384   2.866
 5724TIP3    H217179   6.260   0.330   2.848
 5725TIP3   OH217180   6.161   0.129   2.634
 5725TIP3    H117181   6.222   0.186   2.680
 5725TIP3    H217182   6.217   0.071   2.581
 5726TIP3   OH217183   0.530   0.534   3.460
 5726TIP3    H117184   0.460   0.599   3.452
 5726TIP3    H217185   0.591   0.557   3.389
 5727TIP3   OH217186   0.042   0.423   2.898
 5727TIP3    H117187  -0.011   0.453   2.971
 5727TIP3    H217188   0.123   0.391   2.938
 5728TIP3   OH217189   0.234   0.449   3.799
 5728TIP3    H117190   0.231   0.538   3.834
 5728TIP3    H217191   0.148   0.435   3.760
 5729TIP3   OH217192   5.799   0.410   3.290
 5729TIP3    H117193   5.746   0.341   3.250
 5729TIP3    H217194   5.881   0.366   3.314
 5730TIP3   OH217195   5.881   0.302   3.616
 5730TIP3    H117196   5.926   0.283   3.533
 5730TIP3    H217197   5.900   0.394   3.633
 5731TIP3   OH217198   6.381   0.288   2.725
 5731TIP3    H117199   6.441   0.344   2.775
 5731TIP3    H217200   6.404   0.303   2.634
 5732TIP3   OH217201   5.797   0.460   4.062
 5732TIP3    H117202   5.828   0.538   4.108
 5732TIP3    H217203   5.717   0.435   4.108
 5733TIP3   OH217204   4.721   5.649   2.779
 5733TIP3    H117205   4.641   5.669   2.828
 5733TIP3    H217206   4.734   5.725   2.723
 5734TIP3   OH217207   5.627   0.195   3.133
 5734TIP3    H117208   5.610   0.214   3.041
 5734TIP3    H217209   5.613   0.101   3.142
 5735TIP3   OH217210   5.513   0.535   3.945
 5735TIP3    H117211   5.483   0.625   3.958
 5735TIP3    H217212   5.535   0.504   4.033
 5736TIP3   OH217213   0.485   0.546   3.924
 5736TIP3    H117214   0.429   0.469   3.918
 5736TIP3    H217215   0.565   0.514   3.966
 5737TIP3   OH217216   3.843   5.785   3.806
 5737TIP3    H117217   3.759   5.752   3.775
 5737TIP3    H217218   3.821   5.863   3.857
 5738TIP3   OH217219   4.378   5.905   3.997
 5738TIP3    H117220   4.447   5.878   4.058
 5738TIP3    H217221   4.296   5.885   4.044
 5739TIP3   OH217222   0.309   0.211   3.921
 5739TIP3    H117223   0.258   0.202   4.001
 5739TIP3    H217224   0.272   0.288   3.877
 5740TIP3   OH217225   6.466   0.319   2.473
 5740TIP3    H117226   6.429   0.292   2.389
 5740TIP3    H217227   6.546   0.367   2.450
 5741TIP3   OH217228   3.987   5.832   2.775
 5741TIP3    H117229   3.956   5.834   2.865
 5741TIP3    H217230   3.954   5.749   2.739
 5742TIP3   OH217231   5.963   0.157   3.829
 5742TIP3    H117232   5.910   0.173   3.907
 5742TIP3    H217233   5.931   0.220   3.764
 5743TIP3   OH217234   5.836   0.054   3.332
 5743TIP3    H117235   5.747   0.035   3.360
 5743TIP3    H217236   5.842   0.017   3.244
 5744TIP3   OH217237   6.312   0.140   3.063
 5744TIP3    H117238   6.268   0.212   3.018
 5744TIP3    H217239   6.374   0.105   2.999
 5745TIP3   OH217240   0.020   0.418   4.147
 5745TIP3    H117241  -0.007   0.348   4.206
 5745TIP3    H217242   0.115   0.407   4.139
 5746TIP3   OH217243   6.479   0.161   3.292
 5746TIP3    H117244   6.411   0.186   3.230
 5746TIP3    H217245   6.523   0.086   3.250
 5747TIP3   OH217246   5.779   0.168   4.031
 5747TIP3    H117247   5.778   0.238   4.096
 5747TIP3    H217248   5.761   0.088   4.082
 5748TIP3   OH217249   3.651   5.814   2.743
 5748TIP3    H117250   3.641   5.809   2.838
 5748TIP3    H217251   3.570   5.856   2.713
 5749TIP3   OH217252   3.199   5.856   3.608
 5749TIP3    H117253   3.272   5.884   3.663
 5749TIP3    H217254   3.240   5.816   3.532
 5750TIP3   OH217255   3.139   5.812   3.131
 5750TIP3    H117256   3.182   5.846   3.052
 5750TIP3    H217257   3.071   5.877   3.151
 5751TIP3   OH217258   6.471   0.391   3.724
 5751TIP3    H117259   6.507   0.326   3.664
 5751TIP3    H217260   6.449   0.342   3.802
 5752TIP3   OH217261   4.018   5.995   3.393
 5752TIP3    H117262   3.941   5.992   3.449
 5752TIP3    H217263   4.092   5.983   3.453
 5753TIP3   OH217264   3.436   6.059   3.396
 5753TIP3    H117265   3.347   6.058   3.360
 5753TIP3    H217266   3.467   5.969   3.385
 5754TIP3   OH217267   3.678   6.068   3.086
 5754TIP3    H117268   3.773   6.074   3.073
 5754TIP3    H217269   3.641   6.080   2.999
 5755TIP3   OH217270   4.477   6.075   3.599
 5755TIP3    H117271   4.458   6.094   3.691
 5755TIP3    H217272   4.406   6.017   3.572
 5756TIP3   OH217273   3.535   6.104   2.854
 5756TIP3    H117274   3.467   6.054   2.809
 5756TIP3    H217275   3.599   6.125   2.786
 5757TIP3   OH217276   5.780   0.688   4.228
 5757TIP3    H117277   5.867   0.727   4.218
 5757TIP3    H217278   5.769   0.677   4.323
 5758TIP3   OH217279   6.251   0.201   3.491
 5758TIP3    H117280   6.320   0.147   3.452
 5758TIP3    H217281   6.244   0.171   3.581
 5759TIP3   OH217282   3.579   5.817   3.385
 5759TIP3    H117283   3.544   5.745   3.437
 5759TIP3    H217284   3.621   5.775   3.310
 5760TIP3   OH217285   6.225   0.123   3.759
 5760TIP3    H117286   6.135   0.143   3.784
 5760TIP3    H217287   6.279   0.169   3.823
 5761TIP3   OH217288   5.982   0.463   2.784
 5761TIP3    H117289   5.916   0.410   2.828
 5761TIP3    H217290   5.957   0.553   2.803
 5762TIP3   OH217291   0.340   0.729   3.429
 5762TIP3    H117292   0.317   0.799   3.368
 5762TIP3    H217293   0.265   0.671   3.428
 5763TIP3   OH217294   4.244   5.928   2.768
 5763TIP3    H117295   4.150   5.910   2.765
 5763TIP3    H217296   4.250   6.022   2.781
 5764TIP3   OH217297  -0.022   0.059   2.849
 5764TIP3    H117298   0.073   0.061   2.858
 5764TIP3    H217299  -0.043   0.134   2.793
 5765TIP3   OH217300   5.634   0.387   3.516
 5765TIP3    H117301   5.683   0.411   3.437
 5765TIP3    H217302   5.700   0.347   3.573
 5766TIP3   OH217303   5.566   0.382   4.181
 5766TIP3    H117304   5.599   0.381   4.271
 5766TIP3    H217305   5.488   0.327   4.183
 5767TIP3   OH217306   6.264   0.505   4.167
 5767TIP3    H117307   6.215   0.434   4.126
 5767TIP3    H217308   6.356   0.485   4.148
 5768TIP3   OH217309   0.396   0.145   2.678
 5768TIP3    H117310   0.340   0.098   2.617
 5768TIP3    H217311   0.400   0.234   2.643
 5769TIP3   OH217312   0.119   0.581   3.416
 5769TIP3    H117313   0.028   0.560   3.434
 5769TIP3    H217314   0.151   0.507   3.363
 5770TIP3   OH217315   5.360   0.093   2.890
 5770TIP3    H117316   5.405   0.166   2.931
 5770TIP3    H217317   5.284   0.077   2.946
 5771TIP3   OH217318   3.562   6.062   4.171
 5771TIP3    H117319   3.467   6.071   4.179
 5771TIP3    H217320   3.587   6.008   4.246
 5772TIP3   OH217321   0.051   0.615   2.697
 5772TIP3    H117322   0.049   0.551   2.768
 5772TIP3    H217323   0.142   0.620   2.670
 5773TIP3   OH217324   5.342   0.373   2.982
 5773TIP3    H117325   5.351   0.455   3.030
 5773TIP3    H217326   5.427   0.359   2.942
 5774TIP3   OH217327   4.422   6.141   3.864
 5774TIP3    H117328   4.502   6.173   3.906
 5774TIP3    H217329   4.402   6.060   3.911
 5775TIP3   OH217330   4.298   5.881   3.038
 5775TIP3    H117331   4.280   5.897   2.946
 5775TIP3    H217332   4.341   5.960   3.069
 5776TIP3   OH217333   3.957   6.079   3.134
 5776TIP3    H117334   4.023   6.144   3.109
 5776TIP3    H217335   3.977   6.060   3.226
 5777TIP3   OH217336   6.418   0.228   3.933
 5777TIP3    H117337   6.449   0.265   4.016
 5777TIP3    H217338   6.471   0.150   3.920
 5778TIP3   OH217339   4.119   5.782   3.226
 5778TIP3    H117340   4.099   5.859   3.279
 5778TIP3    H217341   4.186   5.811   3.164
 5779TIP3   OH217342   3.633   5.795   3.020
 5779TIP3    H117343   3.624   5.881   3.060
 5779TIP3    H217344   3.727   5.776   3.026
 5780TIP3   OH217345   0.559   0.099   3.894
 5780TIP3    H117346   0.469   0.128   3.902
 5780TIP3    H217347   0.593   0.148   3.819
 5781TIP3   OH217348   0.198   0.344   3.296
 5781TIP3    H117349   0.116   0.294   3.296
 5781TIP3    H217350   0.256   0.294   3.353
 5782TIP3   OH217351   3.196   5.947   2.902
 5782TIP3    H117352   3.218   6.040   2.898
 5782TIP3    H217353   3.135   5.933   2.830
 5783TIP3   OH217354   3.581   5.698   3.770
 5783TIP3    H117355   3.552   5.663   3.686
 5783TIP3    H217356   3.573   5.624   3.831
 5784TIP3   OH217357   5.476   0.631   4.462
 5784TIP3    H117358   5.570   0.645   4.473
 5784TIP3    H217359   5.466   0.602   4.371
 5785TIP3   OH217360   5.553   0.312   2.619
 5785TIP3    H117361   5.565   0.392   2.670
 5785TIP3    H217362   5.600   0.327   2.537
 5786TIP3   OH217363   6.253   0.790   4.159
 5786TIP3    H117364   6.167   0.805   4.121
 5786TIP3    H217365   6.258   0.695   4.172
 5787TIP3   OH217366   0.174   0.704   3.877
 5787TIP3    H117367   0.174   0.754   3.795
 5787TIP3    H217368   0.172   0.770   3.946
 5788TIP3   OH217369   5.746   0.408   4.402
 5788TIP3    H117370   5.826   0.359   4.389
 5788TIP3    H217371   5.762   0.463   4.479
 5789TIP3   OH217372   5.867   0.243   2.915
 5789TIP3    H117373   5.822   0.200   2.988
 5789TIP3    H217374   5.880   0.174   2.850
 5790TIP3   OH217375   6.055   0.357   4.046
 5790TIP3    H117376   5.964   0.388   4.044
 5790TIP3    H217377   6.092   0.385   3.962
 5791TIP3   OH217378   5.899   0.052   2.682
 5791TIP3    H117379   5.869   0.025   2.595
 5791TIP3    H217380   5.994   0.059   2.673
 5792TIP3   OH217381   0.198   0.409   2.337
 5792TIP3    H117382   0.171   0.351   2.266
 5792TIP3    H217383   0.249   0.478   2.293
 5793TIP3   OH217384   6.154   0.150   4.190
 5793TIP3    H117385   6.159   0.070   4.138
 5793TIP3    H217386   6.116   0.215   4.132
 5794TIP3   OH217387   3.993   6.073   3.994
 5794TIP3    H117388   4.019   6.109   3.909
 5794TIP3    H217389   3.901   6.050   3.983
 5795TIP3   OH217390   6.196   0.475   3.847
 5795TIP3    H117391   6.278   0.458   3.800
 5795TIP3    H217392   6.167   0.561   3.814
 5796TIP3   OH217393   5.972   0.250   4.382
 5796TIP3    H117394   5.939   0.170   4.423
 5796TIP3    H217395   6.038   0.220   4.320
 5797TIP3   OH217396   4.118   5.839   4.078
 5797TIP3    H117397   4.073   5.919   4.052
 5797TIP3    H217398   4.052   5.770   4.070
 5798TIP3   OH217399   6.415   0.203   4.275
 5798TIP3    H117400   6.424   0.188   4.369
 5798TIP3    H217401   6.325   0.177   4.255
 5799TIP3   OH217402   0.156   0.159   4.139
 5799TIP3    H117403   0.076   0.151   4.191
 5799TIP3    H217404   0.226   0.129   4.198
 5800TIP3   OH217405   0.348   0.079   4.315
 5800TIP3    H117406   0.372  -0.013   4.327
 5800TIP3    H217407   0.317   0.107   4.400
 5801TIP3   OH217408   3.709   6.144   4.490
 5801TIP3    H117409   3.712   6.054   4.456
 5801TIP3    H217410   3.747   6.137   4.577
 5802TIP3   OH217411   4.204   5.838   4.340
 5802TIP3    H117412   4.264   5.764   4.336
 5802TIP3    H217413   4.166   5.842   4.252
 5803TIP3   OH217414   4.274   6.059   4.485
 5803TIP3    H117415   4.254   5.982   4.432
 5803TIP3    H217416   4.195   6.113   4.479
 5804TIP3   OH217417   0.330   0.622   2.659
 5804TIP3    H117418   0.376   0.706   2.666
 5804TIP3    H217419   0.355   0.574   2.738
 5805TIP3   OH217420   0.417   0.476   2.865
 5805TIP3    H117421   0.370   0.429   2.934
 5805TIP3    H217422   0.495   0.510   2.908
 5806TIP3   OH217423   0.385   0.382   2.535
 5806TIP3    H117424   0.316   0.372   2.470
 5806TIP3    H217425   0.365   0.464   2.580
 5807TIP3   OH217426   0.249   0.051   2.476
 5807TIP3    H117427   0.254   0.088   2.388
 5807TIP3    H217428   0.223  -0.040   2.462
 5808TIP3   OH217429   0.259   0.320   3.028
 5808TIP3    H117430   0.275   0.226   3.018
 5808TIP3    H217431   0.254   0.334   3.122
 5809TIP3   OH217432   5.386   0.319   3.797
 5809TIP3    H117433   5.389   0.303   3.703
 5809TIP3    H217434   5.478   0.334   3.822
 5810TIP3   OH217435   4.529   5.912   2.459
 5810TIP3    H117436   4.597   5.879   2.518
 5810TIP3    H217437   4.452   5.860   2.479
 5811TIP3   OH217438   0.264   0.051   2.912
 5811TIP3    H117439   0.307  -0.033   2.924
 5811TIP3    H217440   0.308   0.090   2.837
 5812TIP3   OH217441   0.377   0.194   3.446
 5812TIP3    H117442   0.464   0.202   3.407
 5812TIP3    H217443   0.386   0.231   3.533
 5813TIP3   OH217444   0.456   0.360   3.657
 5813TIP3    H117445   0.380   0.389   3.707
 5813TIP3    H217446   0.473   0.431   3.595
 5814TIP3   OH217447   5.613   0.079   4.454
 5814TIP3    H117448   5.708   0.071   4.462
 5814TIP3    H217449   5.580  -0.004   4.489
 5815TIP3   OH217450   4.707   5.930   2.962
 5815TIP3    H117451   4.751   5.914   3.046
 5815TIP3    H217452   4.645   5.858   2.953
 5816TIP3   OH217453   3.407   5.915   3.782
 5816TIP3    H117454   3.463   5.838   3.792
 5816TIP3    H217455   3.469   5.988   3.771
 5817TIP3   OH217456   5.361   0.037   3.842
 5817TIP3    H117457   5.417   0.018   3.767
 5817TIP3    H217458   5.368   0.132   3.854
 5818TIP3   OH217459   0.737   0.045   4.091
 5818TIP3    H117460   0.751   0.130   4.133
 5818TIP3    H217461   0.678   0.063   4.018
 5819TIP3   OH217462   4.769   5.853   2.602
 5819TIP3    H117463   4.807   5.790   2.541
 5819TIP3    H217464   4.829   5.928   2.598
 5820TIP3   OH217465   3.189   5.686   3.365
 5820TIP3    H117466   3.100   5.674   3.398
 5820TIP3    H217467   3.178   5.738   3.285
 5821TIP3   OH217468   3.407   5.762   4.173
 5821TIP3    H117469   3.356   5.750   4.253
 5821TIP3    H217470   3.347   5.805   4.112
 5822TIP3   OH217471   5.008   5.960   3.857
 5822TIP3    H117472   4.966   6.035   3.816
 5822TIP3    H217473   5.084   5.941   3.802
 5823TIP3   OH217474   4.251   5.899   3.524
 5823TIP3    H117475   4.211   5.826   3.572
 5823TIP3    H217476   4.320   5.857   3.471
 5824TIP3   OH217477   4.756   5.795   3.413
 5824TIP3    H117478   4.796   5.846   3.342
 5824TIP3    H217479   4.664   5.820   3.412
 5825TIP3   OH217480   4.869   5.888   3.183
 5825TIP3    H117481   4.936   5.829   3.150
 5825TIP3    H217482   4.907   5.976   3.173
 5826TIP3   OH217483   3.493   5.597   3.528
 5826TIP3    H117484   3.403   5.565   3.535
 5826TIP3    H217485   3.546   5.517   3.522
 5827TIP3   OH217486   3.293   5.491   3.178
 5827TIP3    H117487   3.324   5.544   3.105
 5827TIP3    H217488   3.266   5.555   3.245
 5828TIP3   OH217489   3.955   5.643   3.416
 5828TIP3    H117490   4.009   5.685   3.349
 5828TIP3    H217491   3.996   5.667   3.499
 5829TIP3   OH217492   4.469   5.784   3.395
 5829TIP3    H117493   4.483   5.748   3.307
 5829TIP3    H217494   4.471   5.708   3.453
 5830TIP3   OH217495   4.520   5.723   2.959
 5830TIP3    H117496   4.438   5.768   2.980
 5830TIP3    H217497   4.511   5.636   2.998
 5831TIP3   OH217498   3.415   5.633   2.944
 5831TIP3    H117499   3.459   5.569   2.888
 5831TIP3    H217500   3.486   5.686   2.978
 5832TIP3   OH217501   3.908   5.826   3.040
 5832TIP3    H117502   3.966   5.771   3.093
 5832TIP3    H217503   3.927   5.915   3.068
 5833TIP3   OH217504   3.712   5.872   4.412
 5833TIP3    H117505   3.674   5.807   4.471
 5833TIP3    H217506   3.804   5.878   4.437
 5834TIP3   OH217507   3.958   5.877   4.537
 5834TIP3    H117508   4.040   5.856   4.494
 5834TIP3    H217509   3.949   5.809   4.605
 5835TIP3   OH217510   4.757   5.940   4.349
 5835TIP3    H117511   4.767   5.899   4.435
 5835TIP3    H217512   4.843   5.930   4.308
 5836TIP3   OH217513   0.602   0.252   2.826
 5836TIP3    H117514   0.562   0.338   2.836
 5836TIP3    H217515   0.534   0.199   2.783
 5837TIP3   OH217516   0.677   0.538   2.917
 5837TIP3    H117517   0.737   0.476   2.958
 5837TIP3    H217518   0.733   0.593   2.863
 5838TIP3   OH217519   1.136   0.191   2.975
 5838TIP3    H117520   1.133   0.235   2.890
 5838TIP3    H217521   1.107   0.102   2.958
 5839TIP3   OH217522   0.819   0.353   3.051
 5839TIP3    H117523   0.841   0.307   3.132
 5839TIP3    H217524   0.830   0.286   2.983
 5840TIP3   OH217525   1.159   0.139   3.491
 5840TIP3    H117526   1.107   0.161   3.414
 5840TIP3    H217527   1.098   0.150   3.565
 5841TIP3   OH217528   1.104   0.259   3.238
 5841TIP3    H117529   1.135   0.346   3.266
 5841TIP3    H217530   1.137   0.250   3.149
 5842TIP3   OH217531   5.853   5.932   3.115
 5842TIP3    H117532   5.875   5.851   3.160
 5842TIP3    H217533   5.838   5.996   3.185
 5843TIP3   OH217534   5.695   6.059   3.341
 5843TIP3    H117535   5.666   6.076   3.251
 5843TIP3    H217536   5.676   6.139   3.388
 5844TIP3   OH217537   1.075   0.258   2.719
 5844TIP3    H117538   0.993   0.231   2.759
 5844TIP3    H217539   1.048   0.304   2.640
 5845TIP3   OH217540   5.399   6.041   2.230
 5845TIP3    H117541   5.374   6.053   2.322
 5845TIP3    H217542   5.337   6.094   2.181
 5846TIP3   OH217543   5.008   6.105   3.097
 5846TIP3    H117544   5.101   6.112   3.120
 5846TIP3    H217545   5.008   6.065   3.010
 5847TIP3   OH217546   4.931   6.084   2.617
 5847TIP3    H117547   4.971   6.116   2.536
 5847TIP3    H217548   4.865   6.150   2.639
 5848TIP3   OH217549   0.858   0.168   2.856
 5848TIP3    H117550   0.764   0.172   2.840
 5848TIP3    H217551   0.877   0.074   2.862
 5849TIP3   OH217552   0.948   0.253   2.321
 5849TIP3    H117553   0.898   0.186   2.275
 5849TIP3    H217554   0.983   0.310   2.252
 5850TIP3   OH217555   5.378   6.073   2.859
 5850TIP3    H117556   5.350   5.995   2.906
 5850TIP3    H217557   5.400   6.042   2.771
 5851TIP3   OH217558   0.610   0.373   2.376
 5851TIP3    H117559   0.638   0.465   2.376
 5851TIP3    H217560   0.531   0.372   2.431
 5852TIP3   OH217561   0.992   0.204   3.704
 5852TIP3    H117562   0.931   0.240   3.640
 5852TIP3    H217563   0.936   0.167   3.772
 5853TIP3   OH217564   5.419   6.045   2.517
 5853TIP3    H117565   5.437   6.139   2.518
 5853TIP3    H217566   5.504   6.004   2.505
 5854TIP3   OH217567   0.640   0.098   2.389
 5854TIP3    H117568   0.654   0.193   2.392
 5854TIP3    H217569   0.567   0.086   2.328
 5855TIP3   OH217570   5.275   5.853   3.239
 5855TIP3    H117571   5.314   5.876   3.154
 5855TIP3    H217572   5.349   5.830   3.294
 5856TIP3   OH217573   0.749   0.581   3.294
 5856TIP3    H117574   0.690   0.632   3.240
 5856TIP3    H217575   0.832   0.630   3.292
 5857TIP3   OH217576   5.165   6.055   3.385
 5857TIP3    H117577   5.193   5.977   3.337
 5857TIP3    H217578   5.189   6.128   3.329
 5858TIP3   OH217579   0.617   0.294   3.364
 5858TIP3    H117580   0.592   0.314   3.274
 5858TIP3    H217581   0.586   0.369   3.415
 5859TIP3   OH217582   4.979   5.966   2.857
 5859TIP3    H117583   4.890   5.938   2.879
 5859TIP3    H217584   4.970   6.009   2.772
 5860TIP3   OH217585   5.199   6.014   3.658
 5860TIP3    H117586   5.160   6.098   3.681
 5860TIP3    H217587   5.190   6.008   3.563
 5861TIP3   OH217588   5.280   5.833   2.955
 5861TIP3    H117589   5.189   5.825   2.985
 5861TIP3    H217590   5.313   5.743   2.951
 5862TIP3   OH217591   5.094   5.739   2.673
 5862TIP3    H117592   5.121   5.785   2.594
 5862TIP3    H217593   5.069   5.808   2.734
 5863TIP3   OH217594   5.702   5.887   2.895
 5863TIP3    H117595   5.745   5.909   2.813
 5863TIP3    H217596   5.767   5.904   2.963
 5864TIP3   OH217597   5.198   5.880   2.442
 5864TIP3    H117598   5.241   5.822   2.380
 5864TIP3    H217599   5.269   5.934   2.477
 5865TIP3   OH217600   5.994   4.755   0.982
 5865TIP3    H117601   5.926   4.712   0.929
 5865TIP3    H217602   5.956   4.841   1.004
 5866TIP3   OH217603   6.143   5.029   0.992
 5866TIP3    H117604   6.210   4.966   1.016
 5866TIP3    H217605   6.190   5.111   0.979
 5867TIP3   OH217606   6.267   4.776   1.014
 5867TIP3    H117607   6.172   4.771   1.011
 5867TIP3    H217608   6.288   4.785   1.107
 5868TIP3   OH217609   5.864   4.229   0.934
 5868TIP3    H117610   5.782   4.274   0.958
 5868TIP3    H217611   5.917   4.297   0.892
 5869TIP3   OH217612   5.926   4.125   0.662
 5869TIP3    H117613   5.996   4.169   0.710
 5869TIP3    H217614   5.971   4.060   0.608
 5870TIP3   OH217615   6.321   4.368   0.960
 5870TIP3    H117616   6.243   4.376   1.016
 5870TIP3    H217617   6.362   4.286   0.989
 5871TIP3   OH217618   6.176   4.197   0.758
 5871TIP3    H117619   6.157   4.286   0.786
 5871TIP3    H217620   6.197   4.205   0.664
 5872TIP3   OH217621   5.884   5.002   1.073
 5872TIP3    H117622   5.979   5.010   1.083
 5872TIP3    H217623   5.862   5.069   1.008
 5873TIP3   OH217624   6.440   4.836   0.402
 5873TIP3    H117625   6.439   4.930   0.384
 5873TIP3    H217626   6.530   4.809   0.383
 5874TIP3   OH217627   5.801   5.184   0.881
 5874TIP3    H117628   5.718   5.141   0.862
 5874TIP3    H217629   5.776   5.274   0.905
 5875TIP3   OH217630   5.937   5.038   0.506
 5875TIP3    H117631   5.991   4.967   0.471
 5875TIP3    H217632   5.981   5.063   0.587
 5876TIP3   OH217633   6.026   5.105   0.753
 5876TIP3    H117634   5.946   5.127   0.800
 5876TIP3    H217635   6.080   5.060   0.819
 5877TIP3   OH217636   6.203   4.259   0.502
 5877TIP3    H117637   6.155   4.242   0.421
 5877TIP3    H217638   6.280   4.309   0.475
 5878TIP3   OH217639   4.773   2.569   0.023
 5878TIP3    H117640   4.695   2.583  -0.031
 5878TIP3    H217641   4.776   2.646   0.080
 5879TIP3   OH217642   6.220   3.706   0.760
 5879TIP3    H117643   6.207   3.666   0.846
 5879TIP3    H217644   6.231   3.799   0.779
 5880TIP3   OH217645   6.265   3.957   0.841
 5880TIP3    H117646   6.336   3.986   0.898
 5880TIP3    H217647   6.229   4.038   0.804
 5881TIP3   OH217648   5.829   4.595   0.799
 5881TIP3    H117649   5.802   4.681   0.767
 5881TIP3    H217650   5.759   4.535   0.772
 5882TIP3   OH217651   0.139   4.083   0.724
 5882TIP3    H117652   0.092   4.033   0.658
 5882TIP3    H217653   0.135   4.174   0.694
 5883TIP3   OH217654   6.385   4.906   0.673
 5883TIP3    H117655   6.335   4.848   0.730
 5883TIP3    H217656   6.386   4.862   0.588
 5884TIP3   OH217657   6.130   4.584   0.502
 5884TIP3    H117658   6.170   4.571   0.587
 5884TIP3    H217659   6.037   4.564   0.516
 5885TIP3   OH217660   6.447   5.110   0.368
 5885TIP3    H117661   6.466   5.175   0.300
 5885TIP3    H217662   6.372   5.146   0.415
 5886TIP3   OH217663   6.297   4.554   0.749
 5886TIP3    H117664   6.292   4.492   0.822
 5886TIP3    H217665   6.390   4.568   0.735
 5887TIP3   OH217666   5.493   4.605   0.510
 5887TIP3    H117667   5.505   4.512   0.492
 5887TIP3    H217668   5.454   4.608   0.597
 5888TIP3   OH217669   5.330   4.636   0.741
 5888TIP3    H117670   5.372   4.557   0.775
 5888TIP3    H217671   5.359   4.706   0.800
 5889TIP3   OH217672   5.815   4.887   0.787
 5889TIP3    H117673   5.734   4.935   0.805
 5889TIP3    H217674   5.839   4.915   0.699
 5890TIP3   OH217675   5.391   4.849   0.898
 5890TIP3    H117676   5.350   4.935   0.890
 5890TIP3    H217677   5.456   4.861   0.968
 5891TIP3   OH217678   5.160   4.549   0.938
 5891TIP3    H117679   5.197   4.585   0.857
 5891TIP3    H217680   5.219   4.476   0.960
 5892TIP3   OH217681   6.447   5.254   1.308
 5892TIP3    H117682   6.396   5.307   1.246
 5892TIP3    H217683   6.537   5.286   1.298
 5893TIP3   OH217684   5.655   4.815   0.459
 5893TIP3    H117685   5.604   4.740   0.489
 5893TIP3    H217686   5.729   4.776   0.412
 5894TIP3   OH217687   6.084   4.840   0.385
 5894TIP3    H117688   6.118   4.771   0.442
 5894TIP3    H217689   6.142   4.839   0.309
 5895TIP3   OH217690   5.320   4.368   0.669
 5895TIP3    H117691   5.342   4.298   0.731
 5895TIP3    H217692   5.387   4.362   0.601
 5896TIP3   OH217693   5.854   4.523   0.505
 5896TIP3    H117694   5.799   4.524   0.583
 5896TIP3    H217695   5.849   4.433   0.472
 5897TIP3   OH217696   5.672   4.028   0.691
 5897TIP3    H117697   5.647   4.061   0.605
 5897TIP3    H217698   5.765   4.049   0.699
 5898TIP3   OH217699   6.441   4.362   0.402
 5898TIP3    H117700   6.415   4.314   0.324
 5898TIP3    H217701   6.418   4.453   0.383
 5899TIP3   OH217702   5.414   5.193   0.629
 5899TIP3    H117703   5.496   5.155   0.595
 5899TIP3    H217704   5.362   5.209   0.551
 5900TIP3   OH217705   0.199   5.359   1.268
 5900TIP3    H117706   0.197   5.450   1.298
 5900TIP3    H217707   0.262   5.359   1.196
 5901TIP3   OH217708   0.072   4.559   0.744
 5901TIP3    H117709   0.135   4.627   0.721
 5901TIP3    H217710   0.102   4.526   0.829
 5902TIP3   OH217711   0.182   4.438   0.964
 5902TIP3    H117712   0.135   4.410   1.043
 5902TIP3    H217713   0.268   4.467   0.997
 5903TIP3   OH217714   0.122   4.329   0.604
 5903TIP3    H117715   0.056   4.329   0.534
 5903TIP3    H217716   0.101   4.407   0.656
 5904TIP3   OH217717   6.514   3.987   0.503
 5904TIP3    H117718   6.446   4.016   0.442
 5904TIP3    H217719   6.484   3.901   0.532
 5905TIP3   OH217720   6.432   3.746   0.594
 5905TIP3    H117721   6.493   3.701   0.652
 5905TIP3    H217722   6.346   3.729   0.632
 5906TIP3   OH217723  -0.009   4.046   0.966
 5906TIP3    H117724   0.032   3.974   1.014
 5906TIP3    H217725   0.048   4.059   0.890
 5907TIP3   OH217726   6.251   5.262   0.919
 5907TIP3    H117727   6.310   5.244   0.846
 5907TIP3    H217728   6.302   5.318   0.977
 5908TIP3   OH217729   5.661   5.065   0.558
 5908TIP3    H117730   5.751   5.089   0.536
 5908TIP3    H217731   5.648   4.979   0.518
 5909TIP3   OH217732   6.400   5.178   0.698
 5909TIP3    H117733   6.398   5.082   0.695
 5909TIP3    H217734   6.350   5.206   0.621
 5910TIP3   OH217735   5.009   4.922   0.646
 5910TIP3    H117736   4.978   4.879   0.727
 5910TIP3    H217737   5.083   4.870   0.618
 5911TIP3   OH217738   0.322   4.211   0.889
 5911TIP3    H117739   0.265   4.288   0.886
 5911TIP3    H217740   0.280   4.147   0.832
 5912TIP3   OH217741   0.442   4.496   1.040
 5912TIP3    H117742   0.499   4.422   1.061
 5912TIP3    H217743   0.491   4.546   0.975
 5913TIP3   OH217744   1.256   4.894   0.498
 5913TIP3    H117745   1.221   4.886   0.409
 5913TIP3    H217746   1.253   4.988   0.516
 5914TIP3   OH217747   0.256   4.739   0.638
 5914TIP3    H117748   0.213   4.759   0.555
 5914TIP3    H217749   0.278   4.825   0.674
 5915TIP3   OH217750   1.156   4.363   0.177
 5915TIP3    H117751   1.188   4.434   0.233
 5915TIP3    H217752   1.182   4.283   0.222
 5916TIP3   OH217753   1.117   5.223   0.576
 5916TIP3    H117754   1.205   5.207   0.541
 5916TIP3    H217755   1.073   5.271   0.506
 5917TIP3   OH217756   0.665   4.433   0.632
 5917TIP3    H117757   0.585   4.479   0.607
 5917TIP3    H217758   0.637   4.343   0.646
 5918TIP3   OH217759   6.066   2.037   5.109
 5918TIP3    H117760   6.072   2.133   5.116
 5918TIP3    H217761   6.155   2.009   5.088
 5919TIP3   OH217762   0.260   5.024   1.169
 5919TIP3    H117763   0.291   4.955   1.228
 5919TIP3    H217764   0.226   5.092   1.228
 5920TIP3   OH217765   1.035   5.389   0.367
 5920TIP3    H117766   0.994   5.385   0.281
 5920TIP3    H217767   1.014   5.476   0.400
 5921TIP3   OH217768   0.472   5.239   0.738
 5921TIP3    H117769   0.512   5.229   0.824
 5921TIP3    H217770   0.419   5.160   0.726
 5922TIP3   OH217771   1.231   5.311  -0.006
 5922TIP3    H117772   1.278   5.236  -0.044
 5922TIP3    H217773   1.270   5.322   0.081
 5923TIP3   OH217774   1.291   5.358   0.260
 5923TIP3    H117775   1.212   5.357   0.314
 5923TIP3    H217776   1.363   5.355   0.323
 5924TIP3   OH217777   5.800   1.471   5.291
 5924TIP3    H117778   5.758   1.439   5.211
 5924TIP3    H217779   5.878   1.518   5.261
 5925TIP3   OH217780   0.881   3.960   0.289
 5925TIP3    H117781   0.883   3.954   0.385
 5925TIP3    H217782   0.822   4.033   0.270
 5926TIP3   OH217783   0.386   3.931   0.712
 5926TIP3    H117784   0.400   3.956   0.621
 5926TIP3    H217785   0.296   3.960   0.731
 5927TIP3   OH217786   0.705   4.180   0.406
 5927TIP3    H117787   0.643   4.154   0.337
 5927TIP3    H217788   0.773   4.229   0.360
 5928TIP3   OH217789   0.943   4.728   0.407
 5928TIP3    H117790   0.894   4.646   0.405
 5928TIP3    H217791   0.947   4.751   0.500
 5929TIP3   OH217792   1.136   4.843   0.247
 5929TIP3    H117793   1.092   4.929   0.251
 5929TIP3    H217794   1.082   4.786   0.302
 5930TIP3   OH217795   1.571   5.127   0.038
 5930TIP3    H117796   1.632   5.066   0.079
 5930TIP3    H217797   1.624   5.176  -0.025
 5931TIP3   OH217798   0.753   5.033   0.738
 5931TIP3    H117799   0.767   5.110   0.682
 5931TIP3    H217800   0.681   5.058   0.796
 5932TIP3   OH217801   0.356   4.315   0.459
 5932TIP3    H117802   0.396   4.400   0.474
 5932TIP3    H217803   0.275   4.317   0.511
 5933TIP3   OH217804   0.891   4.808   0.670
 5933TIP3    H117805   0.833   4.882   0.688
 5933TIP3    H217806   0.846   4.732   0.707
 5934TIP3   OH217807   0.698   5.266   0.582
 5934TIP3    H117808   0.615   5.268   0.630
 5934TIP3    H217809   0.731   5.356   0.590
 5935TIP3   OH217810   1.418   4.868   0.077
 5935TIP3    H117811   1.462   4.942   0.119
 5935TIP3    H217812   1.327   4.876   0.103
 5936TIP3   OH217813   6.058   2.314   5.142
 5936TIP3    H117814   6.076   2.372   5.068
 5936TIP3    H217815   5.991   2.360   5.193
 5937TIP3   OH217816   0.513   5.138   1.317
 5937TIP3    H117817   0.606   5.135   1.339
 5937TIP3    H217818   0.476   5.203   1.376
 5938TIP3   OH217819   0.764   4.869   0.056
 5938TIP3    H117820   0.781   4.779   0.029
 5938TIP3    H217821   0.748   4.863   0.150
 5939TIP3   OH217822   0.719   4.875   0.328
 5939TIP3    H117823   0.798   4.832   0.362
 5939TIP3    H217824   0.732   4.968   0.346
 5940TIP3   OH217825   0.446   4.569   0.531
 5940TIP3    H117826   0.381   4.614   0.585
 5940TIP3    H217827   0.466   4.630   0.461
 5941TIP3   OH217828   1.002   5.076   0.271
 5941TIP3    H117829   0.917   5.093   0.312
 5941TIP3    H217830   1.027   5.160   0.231
 5942TIP3   OH217831   0.747   5.148   0.344
 5942TIP3    H117832   0.693   5.201   0.285
 5942TIP3    H217833   0.733   5.187   0.430
 5943TIP3   OH217834   0.468   4.758   0.324
 5943TIP3    H117835   0.542   4.816   0.339
 5943TIP3    H217836   0.500   4.694   0.261
 5944TIP3   OH217837   0.376   4.034   0.451
 5944TIP3    H117838   0.407   4.123   0.463
 5944TIP3    H217839   0.281   4.043   0.443
 5945TIP3   OH217840   0.306   5.006   0.717
 5945TIP3    H117841   0.263   5.044   0.793
 5945TIP3    H217842   0.263   5.047   0.641
 5946TIP3   OH217843   5.272   2.000   5.272
 5946TIP3    H117844   5.229   1.926   5.316
 5946TIP3    H217845   5.347   1.961   5.227
 5947TIP3   OH217846   5.695   2.041   5.175
 5947TIP3    H117847   5.767   2.040   5.238
 5947TIP3    H217848   5.737   2.041   5.089
 5948TIP3   OH217849   0.596   4.565   0.182
 5948TIP3    H117850   0.650   4.542   0.258
 5948TIP3    H217851   0.659   4.579   0.111
 5949TIP3   OH217852   1.090   4.788  -0.017
 5949TIP3    H117853   1.103   4.799   0.077
 5949TIP3    H217854   1.093   4.694  -0.030
 5950TIP3   OH217855   0.778   4.505   0.389
 5950TIP3    H117856   0.748   4.471   0.473
 5950TIP3    H217857   0.822   4.431   0.347
 5951TIP3   OH217858   0.881   4.303   0.231
 5951TIP3    H117859   0.848   4.313   0.141
 5951TIP3    H217860   0.975   4.320   0.225
 5952TIP3   OH217861   6.021   1.566   5.159
 5952TIP3    H117862   5.998   1.524   5.076
 5952TIP3    H217863   5.994   1.657   5.149
 5953TIP3   OH217864   0.706   5.319   0.080
 5953TIP3    H117865   0.800   5.318   0.101
 5953TIP3    H217866   0.675   5.402   0.116
 5954TIP3   OH217867   0.194   4.740   0.346
 5954TIP3    H117868   0.289   4.753   0.343
 5954TIP3    H217869   0.181   4.652   0.312
 5955TIP3   OH217870   0.106   5.335   0.779
 5955TIP3    H117871   0.039   5.282   0.738
 5955TIP3    H217872   0.152   5.275   0.838
 5956TIP3   OH217873   0.253   5.175   0.944
 5956TIP3    H117874   0.244   5.107   1.011
 5956TIP3    H217875   0.300   5.246   0.989
 5957TIP3   OH217876   1.517   5.419   0.409
 5957TIP3    H117877   1.568   5.425   0.328
 5957TIP3    H217878   1.521   5.507   0.447
 5958TIP3   OH217879   0.482   5.544   1.355
 5958TIP3    H117880   0.390   5.568   1.340
 5958TIP3    H217881   0.512   5.605   1.422
 5959TIP3   OH217882   0.679   5.485   1.170
 5959TIP3    H117883   0.619   5.520   1.236
 5959TIP3    H217884   0.687   5.555   1.105
 5960TIP3   OH217885   0.420   5.356   1.095
 5960TIP3    H117886   0.464   5.384   1.175
 5960TIP3    H217887   0.484   5.299   1.052
 5961TIP3   OH217888   0.618   5.205   0.970
 5961TIP3    H117889   0.655   5.146   1.036
 5961TIP3    H217890   0.688   5.269   0.954
 5962TIP3   OH217891   0.846   5.359   0.934
 5962TIP3    H117892   0.891   5.279   0.961
 5962TIP3    H217893   0.854   5.417   1.010
 5963TIP3   OH217894   0.191   5.132   0.503
 5963TIP3    H117895   0.106   5.099   0.474
 5963TIP3    H217896   0.192   5.224   0.477
 5964TIP3   OH217897   0.977   5.302   0.095
 5964TIP3    H117898   1.062   5.331   0.062
 5964TIP3    H217899   0.962   5.219   0.051
 5965TIP3   OH217900   1.643   5.408   0.168
 5965TIP3    H117901   1.708   5.349   0.128
 5965TIP3    H217902   1.611   5.461   0.095
 5966TIP3   OH217903   0.261   5.170   0.162
 5966TIP3    H117904   0.233   5.207   0.246
 5966TIP3    H217905   0.328   5.105   0.185
 5967TIP3   OH217906   6.347   2.333   5.234
 5967TIP3    H117907   6.263   2.373   5.210
 5967TIP3    H217908   6.391   2.400   5.286
 5968TIP3   OH217909   6.409   2.334   4.960
 5968TIP3    H117910   6.385   2.347   5.052
 5968TIP3    H217911   6.478   2.267   4.963
 5969TIP3   OH217912   6.445   0.264   0.527
 5969TIP3    H117913   6.451   0.357   0.507
 5969TIP3    H217914   6.535   0.232   0.521
 5970TIP3   OH217915   5.758   0.641   0.955
 5970TIP3    H117916   5.718   0.601   0.878
 5970TIP3    H217917   5.753   0.735   0.938
 5971TIP3   OH217918   5.952   0.487   0.658
 5971TIP3    H117919   6.010   0.423   0.618
 5971TIP3    H217920   5.988   0.500   0.746
 5972TIP3   OH217921   6.011   0.534   0.926
 5972TIP3    H117922   5.924   0.558   0.956
 5972TIP3    H217923   6.048   0.483   0.998
 5973TIP3   OH217924   3.977   5.757   0.653
 5973TIP3    H117925   3.977   5.762   0.557
 5973TIP3    H217926   3.963   5.847   0.682
 5974TIP3   OH217927   4.497   5.680   0.947
 5974TIP3    H117928   4.430   5.621   0.912
 5974TIP3    H217929   4.463   5.768   0.928
 5975TIP3   OH217930   6.314   0.373   0.749
 5975TIP3    H117931   6.327   0.302   0.813
 5975TIP3    H217932   6.348   0.338   0.667
 5976TIP3   OH217933   6.154   0.114   0.725
 5976TIP3    H117934   6.192   0.052   0.787
 5976TIP3    H217935   6.107   0.177   0.781
 5977TIP3   OH217936   6.457   0.537   0.515
 5977TIP3    H117937   6.484   0.603   0.452
 5977TIP3    H217938   6.382   0.576   0.560
 5978TIP3   OH217939   4.062   6.073   0.928
 5978TIP3    H117940   4.071   6.050   1.021
 5978TIP3    H217941   4.149   6.055   0.891
 5979TIP3   OH217942   5.445   0.088   0.728
 5979TIP3    H117943   5.501   0.014   0.705
 5979TIP3    H217944   5.429   0.079   0.822
 5980TIP3   OH217945   5.681   0.292   0.947
 5980TIP3    H117946   5.591   0.264   0.966
 5980TIP3    H217947   5.670   0.369   0.891
 5981TIP3   OH217948   5.634   0.249   0.614
 5981TIP3    H117949   5.564   0.200   0.657
 5981TIP3    H217950   5.711   0.193   0.623
 5982TIP3   OH217951   6.099   0.300   0.523
 5982TIP3    H117952   6.141   0.241   0.585
 5982TIP3    H217953   6.153   0.294   0.444
 5983TIP3   OH217954   5.825   0.058   0.661
 5983TIP3    H117955   5.845   0.072   0.753
 5983TIP3    H217956   5.758  -0.010   0.661
 5984TIP3   OH217957   4.258   5.895   0.535
 5984TIP3    H117958   4.242   5.850   0.452
 5984TIP3    H217959   4.222   5.983   0.522
 5985TIP3   OH217960   5.425   0.583   0.812
 5985TIP3    H117961   5.510   0.540   0.806
 5985TIP3    H217962   5.402   0.604   0.721
 5986TIP3   OH217963   0.164  -0.018   0.932
 5986TIP3    H117964   0.210   0.052   0.886
 5986TIP3    H217965   0.120   0.027   1.005
 5987TIP3   OH217966   4.482   5.921   0.725
 5987TIP3    H117967   4.402   5.935   0.674
 5987TIP3    H217968   4.482   5.991   0.790
 5988TIP3   OH217969   4.349   5.467   0.600
 5988TIP3    H117970   4.401   5.548   0.598
 5988TIP3    H217971   4.283   5.480   0.532
 5989TIP3   OH217972   4.172   5.295   0.722
 5989TIP3    H117973   4.251   5.312   0.669
 5989TIP3    H217974   4.206   5.262   0.805
 5990TIP3   OH217975   4.570   5.261   0.776
 5990TIP3    H117976   4.616   5.251   0.859
 5990TIP3    H217977   4.631   5.309   0.720
 5991TIP3   OH217978   6.352   0.651   1.107
 5991TIP3    H117979   6.364   0.629   1.014
 5991TIP3    H217980   6.348   0.746   1.108
 5992TIP3   OH217981   5.685   0.486   0.734
 5992TIP3    H117982   5.774   0.502   0.704
 5992TIP3    H217983   5.654   0.412   0.682
 5993TIP3   OH217984   6.409   0.612   0.837
 5993TIP3    H117985   6.379   0.523   0.818
 5993TIP3    H217986   6.369   0.666   0.768
 5994TIP3   OH217987   1.386   0.114   0.794
 5994TIP3    H117988   1.355   0.203   0.774
 5994TIP3    H217989   1.313   0.057   0.770
 5995TIP3   OH217990   1.395   0.115   1.188
 5995TIP3    H117991   1.385   0.088   1.279
 5995TIP3    H217992   1.356   0.044   1.137
 5996TIP3   OH217993   1.650   0.410   0.872
 5996TIP3    H117994   1.639   0.350   0.946
 5996TIP3    H217995   1.673   0.493   0.912
 5997TIP3   OH217996   1.309   0.868   0.889
 5997TIP3    H117997   1.338   0.798   0.830
 5997TIP3    H217998   1.310   0.827   0.976
 5998TIP3   OH217999   1.202   0.352   1.203
 5998TIP3    H118000   1.237   0.269   1.170
 5998TIP3    H218001   1.278   0.400   1.235
 5999TIP3   OH218002   0.068   5.801   1.209
 5999TIP3    H118003   0.081   5.886   1.251
 5999TIP3    H218004   0.106   5.811   1.122
 6000TIP3   OH218005   5.996   5.942   1.248
 6000TIP3    H118006   5.941   5.919   1.323
 6000TIP3    H218007   5.949   5.907   1.172
 6001TIP3   OH218008   5.996   5.725   0.848
 6001TIP3    H118009   6.060   5.714   0.918
 6001TIP3    H218010   6.047   5.760   0.774
 6002TIP3   OH218011   5.356   6.016   1.078
 6002TIP3    H118012   5.446   6.010   1.109
 6002TIP3    H218013   5.342   5.936   1.027
 6003TIP3   OH218014   0.117   6.001   1.415
 6003TIP3    H118015   0.035   6.038   1.382
 6003TIP3    H218016   0.121   6.029   1.506
 6004TIP3   OH218017   1.256   0.327   0.676
 6004TIP3    H118018   1.250   0.327   0.581
 6004TIP3    H218019   1.218   0.411   0.702
 6005TIP3   OH218020   6.179   5.745   1.044
 6005TIP3    H118021   6.207   5.704   1.126
 6005TIP3    H218022   6.220   5.832   1.046
 6006TIP3   OH218023   0.275   0.181   0.783
 6006TIP3    H118024   0.241   0.193   0.695
 6006TIP3    H218025   0.300   0.269   0.812
 6007TIP3   OH218026   1.690   0.650   1.001
 6007TIP3    H118027   1.605   0.650   1.046
 6007TIP3    H218028   1.694   0.736   0.958
 6008TIP3   OH218029   6.319   5.687   1.275
 6008TIP3    H118030   6.297   5.739   1.352
 6008TIP3    H218031   6.404   5.721   1.247
 6009TIP3   OH218032   1.403   0.698   0.689
 6009TIP3    H118033   1.451   0.617   0.673
 6009TIP3    H218034   1.461   0.768   0.657
 6010TIP3   OH218035   1.550   0.478   0.624
 6010TIP3    H118036   1.558   0.402   0.566
 6010TIP3    H218037   1.586   0.449   0.707
 6011TIP3   OH218038   1.891   0.551   1.369
 6011TIP3    H118039   1.892   0.473   1.315
 6011TIP3    H218040   1.885   0.624   1.307
 6012TIP3   OH218041   5.547   6.080   0.631
 6012TIP3    H118042   5.472   6.138   0.615
 6012TIP3    H218043   5.602   6.091   0.555
 6013TIP3   OH218044   5.547   5.895   0.339
 6013TIP3    H118045   5.613   5.947   0.385
 6013TIP3    H218046   5.599   5.832   0.287
 6014TIP3   OH218047   2.124   0.214   1.223
 6014TIP3    H118048   2.042   0.263   1.229
 6014TIP3    H218049   2.155   0.230   1.134
 6015TIP3   OH218050   1.580   0.059   0.608
 6015TIP3    H118051   1.523   0.082   0.682
 6015TIP3    H218052   1.662   0.031   0.648
 6016TIP3   OH218053   0.820   0.062   1.017
 6016TIP3    H118054   0.751  -0.004   1.029
 6016TIP3    H218055   0.899   0.019   1.051
 6017TIP3   OH218056   0.956   0.483   1.146
 6017TIP3    H118057   0.923   0.424   1.079
 6017TIP3    H218058   1.038   0.443   1.175
 6018TIP3   OH218059   1.464   0.673   1.148
 6018TIP3    H118060   1.445   0.752   1.198
 6018TIP3    H218061   1.440   0.601   1.207
 6019TIP3   OH218062   5.752   6.049   0.437
 6019TIP3    H118063   5.810   6.106   0.487
 6019TIP3    H218064   5.779   6.062   0.346
 6020TIP3   OH218065   1.152   0.587   0.696
 6020TIP3    H118066   1.237   0.629   0.702
 6020TIP3    H218067   1.096   0.651   0.651
 6021TIP3   OH218068   6.257   5.273   0.481
 6021TIP3    H118069   6.180   5.295   0.534
 6021TIP3    H218070   6.272   5.351   0.428
 6022TIP3   OH218071   1.740   0.519   0.038
 6022TIP3    H118072   1.740   0.613   0.019
 6022TIP3    H218073   1.829   0.491   0.019
 6023TIP3   OH218074   1.045   0.816   0.519
 6023TIP3    H118075   1.002   0.799   0.436
 6023TIP3    H218076   1.013   0.902   0.547
 6024TIP3   OH218077   0.481   0.676   0.899
 6024TIP3    H118078   0.529   0.666   0.981
 6024TIP3    H218079   0.433   0.594   0.889
 6025TIP3   OH218080   1.248   0.739   0.146
 6025TIP3    H118081   1.300   0.667   0.111
 6025TIP3    H218082   1.283   0.752   0.235
 6026TIP3   OH218083   1.299   0.787   0.415
 6026TIP3    H118084   1.215   0.789   0.461
 6026TIP3    H218085   1.362   0.760   0.483
 6027TIP3   OH218086   5.826   6.056   0.176
 6027TIP3    H118087   5.782   6.047   0.092
 6027TIP3    H218088   5.909   6.099   0.155
 6028TIP3   OH218089   5.543   5.463   0.438
 6028TIP3    H118090   5.503   5.482   0.523
 6028TIP3    H218091   5.501   5.381   0.410
 6029TIP3   OH218092   5.184   5.762   0.926
 6029TIP3    H118093   5.126   5.811   0.984
 6029TIP3    H218094   5.237   5.708   0.984
 6030TIP3   OH218095   5.692   5.895   0.772
 6030TIP3    H118096   5.639   5.961   0.727
 6030TIP3    H218097   5.749   5.860   0.704
 6031TIP3   OH218098   5.851   5.909   0.999
 6031TIP3    H118099   5.794   5.934   0.927
 6031TIP3    H218100   5.902   5.835   0.965
 6032TIP3   OH218101   5.210   5.443   0.424
 6032TIP3    H118102   5.202   5.446   0.519
 6032TIP3    H218103   5.128   5.480   0.391
 6033TIP3   OH218104   4.738   5.555   0.909
 6033TIP3    H118105   4.756   5.523   0.821
 6033TIP3    H218106   4.648   5.586   0.905
 6034TIP3   OH218107   5.558   5.673   1.152
 6034TIP3    H118108   5.499   5.634   1.215
 6034TIP3    H218109   5.634   5.614   1.150
 6035TIP3   OH218110   5.064   5.749   0.546
 6035TIP3    H118111   4.990   5.759   0.606
 6035TIP3    H218112   5.032   5.692   0.477
 6036TIP3   OH218113   5.623   5.957   1.152
 6036TIP3    H118114   5.704   5.944   1.103
 6036TIP3    H218115   5.595   5.869   1.177
 6037TIP3   OH218116   5.164   5.377   0.941
 6037TIP3    H118117   5.151   5.439   1.013
 6037TIP3    H218118   5.256   5.352   0.947
 6038TIP3   OH218119   0.995   0.115   0.582
 6038TIP3    H118120   0.908   0.105   0.543
 6038TIP3    H218121   0.978   0.155   0.667
 6039TIP3   OH218122   1.883   0.343   1.190
 6039TIP3    H118123   1.919   0.393   1.117
 6039TIP3    H218124   1.800   0.309   1.157
 6040TIP3   OH218125   5.796   5.560   0.463
 6040TIP3    H118126   5.703   5.540   0.454
 6040TIP3    H218127   5.799   5.655   0.479
 6041TIP3   OH218128   5.854   5.816   0.556
 6041TIP3    H118129   5.949   5.818   0.569
 6041TIP3    H218130   5.835   5.895   0.506
 6042TIP3   OH218131   1.147   0.275   0.413
 6042TIP3    H118132   1.098   0.357   0.415
 6042TIP3    H218133   1.101   0.218   0.475
 6043TIP3   OH218134   6.274   5.904   0.384
 6043TIP3    H118135   6.218   5.857   0.322
 6043TIP3    H218136   6.277   5.993   0.350
 6044TIP3   OH218137   1.663   0.594   0.299
 6044TIP3    H118138   1.638   0.523   0.357
 6044TIP3    H218139   1.683   0.552   0.215
 6045TIP3   OH218140   1.643   0.227   1.100
 6045TIP3    H118141   1.554   0.199   1.123
 6045TIP3    H218142   1.683   0.150   1.060
 6046TIP3   OH218143   0.770   0.460   0.886
 6046TIP3    H118144   0.785   0.544   0.844
 6046TIP3    H218145   0.680   0.437   0.861
 6047TIP3   OH218146   4.721   5.896   0.595
 6047TIP3    H118147   4.763   5.979   0.618
 6047TIP3    H218148   4.635   5.899   0.637
 6048TIP3   OH218149   0.890   0.223   0.806
 6048TIP3    H118150   0.870   0.311   0.837
 6048TIP3    H218151   0.869   0.166   0.880
 6049TIP3   OH218152   1.043   0.835   1.323
 6049TIP3    H118153   1.100   0.899   1.282
 6049TIP3    H218154   1.096   0.795   1.393
 6050TIP3   OH218155   0.706   0.695   0.738
 6050TIP3    H118156   0.623   0.703   0.784
 6050TIP3    H218157   0.745   0.782   0.743
 6051TIP3   OH218158   1.448   0.442   1.307
 6051TIP3    H118159   1.458   0.429   1.401
 6051TIP3    H218160   1.522   0.395   1.268
 6052TIP3   OH218161   1.431   0.325   0.212
 6052TIP3    H118162   1.483   0.307   0.290
 6052TIP3    H218163   1.343   0.297   0.234
 6053TIP3   OH218164   1.752   0.795   0.009
 6053TIP3    H118165   1.790   0.865  -0.043
 6053TIP3    H218166   1.674   0.834   0.049
 6054TIP3   OH218167   1.598   0.269   0.428
 6054TIP3    H118168   1.584   0.196   0.489
 6054TIP3    H218169   1.691   0.264   0.407
 6055TIP3   OH218170   0.789   0.295   0.213
 6055TIP3    H118171   0.799   0.204   0.184
 6055TIP3    H218172   0.779   0.289   0.307
 6056TIP3   OH218173   0.742   0.308   0.493
 6056TIP3    H118174   0.800   0.300   0.569
 6056TIP3    H218175   0.729   0.402   0.482
 6057TIP3   OH218176   0.473   0.014   0.676
 6057TIP3    H118177   0.412   0.056   0.736
 6057TIP3    H218178   0.488   0.078   0.607
 6058TIP3   OH218179   5.855   5.520   0.731
 6058TIP3    H118180   5.842   5.541   0.638
 6058TIP3    H218181   5.899   5.597   0.767
 6059TIP3   OH218182   0.992   0.498   0.420
 6059TIP3    H118183   0.907   0.523   0.456
 6059TIP3    H218184   1.019   0.573   0.367
 6060TIP3   OH218185   5.500   5.730   0.878
 6060TIP3    H118186   5.569   5.790   0.851
 6060TIP3    H218187   5.518   5.712   0.971
 6061TIP3   OH218188   5.676   5.430   0.911
 6061TIP3    H118189   5.705   5.458   0.997
 6061TIP3    H218190   5.740   5.468   0.850
 6062TIP3   OH218191   0.735   0.579   0.490
 6062TIP3    H118192   0.715   0.648   0.426
 6062TIP3    H218193   0.724   0.622   0.575
 6063TIP3   OH218194   5.207   5.453   0.691
 6063TIP3    H118195   5.186   5.424   0.780
 6063TIP3    H218196   5.301   5.472   0.694
 6064TIP3   OH218197   6.069   6.107   1.004
 6064TIP3    H118198   5.995   6.051   1.026
 6064TIP3    H218199   6.144   6.068   1.049
 6065TIP3   OH218200   0.472   0.204   0.471
 6065TIP3    H118201   0.542   0.268   0.481
 6065TIP3    H218202   0.503   0.145   0.402
 6066TIP3   OH218203   4.775   5.635   0.533
 6066TIP3    H118204   4.770   5.727   0.561
 6066TIP3    H218205   4.684   5.605   0.534
 6067TIP3   OH218206   1.700   0.913   0.930
 6067TIP3    H118207   1.657   0.965   0.862
 6067TIP3    H218208   1.793   0.936   0.923
 6068TIP3   OH218209   0.316   0.446   0.872
 6068TIP3    H118210   0.273   0.485   0.948
 6068TIP3    H218211   0.275   0.488   0.797
 6069TIP3   OH218212   0.942   0.497   0.102
 6069TIP3    H118213   0.897   0.425   0.146
 6069TIP3    H218214   1.017   0.456   0.059
 6070TIP3   OH218215   1.382   0.530   0.026
 6070TIP3    H118216   1.420   0.468   0.088
 6070TIP3    H218217   1.440   0.527  -0.050
 6071TIP3   OH218218   4.915   6.137   0.313
 6071TIP3    H118219   4.946   6.069   0.373
 6071TIP3    H218220   4.986   6.149   0.250
 6072TIP3   OH218221   1.136   0.212   0.146
 6072TIP3    H118222   1.130   0.227   0.240
 6072TIP3    H218223   1.135   0.116   0.137
 6073TIP3   OH218224   5.286   5.859   0.386
 6073TIP3    H118225   5.238   5.865   0.304
 6073TIP3    H218226   5.377   5.879   0.362
 6074TIP3   OH218227   1.719   0.039   0.063
 6074TIP3    H118228   1.703  -0.004  -0.021
 6074TIP3    H218229   1.692   0.130   0.048
 6075TIP3   OH218230   0.728   0.781   0.303
 6075TIP3    H118231   0.820   0.769   0.282
 6075TIP3    H218232   0.693   0.832   0.230
 6076TIP3   OH218233   0.202   0.165   0.507
 6076TIP3    H118234   0.295   0.185   0.493
 6076TIP3    H218235   0.189   0.080   0.464
 6077TIP3   OH218236   0.113   0.772   0.927
 6077TIP3    H118237   0.051   0.716   0.881
 6077TIP3    H218238   0.158   0.714   0.988
 6078TIP3   OH218239   0.235   0.608   1.109
 6078TIP3    H118240   0.166   0.587   1.172
 6078TIP3    H218241   0.298   0.660   1.159
 6079TIP3   OH218242   1.950   0.999   0.907
 6079TIP3    H118243   2.008   1.029   0.977
 6079TIP3    H218244   2.006   0.999   0.829
 6080TIP3   OH218245   1.954   1.012   1.208
 6080TIP3    H118246   1.913   0.927   1.191
 6080TIP3    H218247   2.030   0.992   1.262
 6081TIP3   OH218248   1.871   0.240   0.391
 6081TIP3    H118249   1.932   0.306   0.359
 6081TIP3    H218250   1.915   0.199   0.465
 6082TIP3   OH218251   1.996   0.094   0.587
 6082TIP3    H118252   1.932   0.056   0.647
 6082TIP3    H218253   2.064   0.129   0.644
 6083TIP3   OH218254   2.039   0.476   1.009
 6083TIP3    H118255   2.095   0.407   0.972
 6083TIP3    H218256   2.045   0.548   0.947
 6084TIP3   OH218257   1.835   0.767   1.204
 6084TIP3    H118258   1.748   0.789   1.236
 6084TIP3    H218259   1.819   0.720   1.121
 6085TIP3   OH218260   1.925   0.013   0.242
 6085TIP3    H118261   1.855   0.013   0.176
 6085TIP3    H218262   1.907   0.090   0.295
 6086TIP3   OH218263   6.121   5.798   0.184
 6086TIP3    H118264   6.077   5.839   0.110
 6086TIP3    H218265   6.105   5.704   0.172
 6087TIP3   OH218266   6.138   6.087   0.738
 6087TIP3    H118267   6.148   5.992   0.730
 6087TIP3    H218268   6.118   6.102   0.830
 6088TIP3   OH218269   6.072   5.528   0.157
 6088TIP3    H118270   6.137   5.501   0.222
 6088TIP3    H218271   5.992   5.483   0.183
 6089TIP3   OH218272   6.138   5.807   0.619
 6089TIP3    H118273   6.183   5.724   0.632
 6089TIP3    H218274   6.185   5.848   0.546
 6090TIP3   OH218275   6.299   5.987   1.105
 6090TIP3    H118276   6.387   6.008   1.073
 6090TIP3    H218277   6.301   6.009   1.198
 6091TIP3   OH218278   2.042  -0.015   1.349
 6091TIP3    H118279   1.972   0.018   1.406
 6091TIP3    H218280   2.073   0.062   1.302
 6092TIP3   OH218281   6.254   5.559   0.668
 6092TIP3    H118282   6.297   5.543   0.752
 6092TIP3    H218283   6.190   5.488   0.660
 6093TIP3   OH218284   6.306   5.479   0.305
 6093TIP3    H118285   6.353   5.418   0.248
 6093TIP3    H218286   6.363   5.556   0.308
 6094TIP3   OH218287   1.544   0.892   0.568
 6094TIP3    H118288   1.603   0.887   0.492
 6094TIP3    H218289   1.583   0.960   0.624
 6095TIP3   OH218290   0.712   0.981   1.389
 6095TIP3    H118291   0.669   1.057   1.428
 6095TIP3    H218292   0.715   1.000   1.296
 6096TIP3   OH218293   1.182   1.020   1.172
 6096TIP3    H118294   1.113   1.029   1.107
 6096TIP3    H218295   1.182   1.104   1.218
 6097TIP3   OH218296   1.427   0.923   1.253
 6097TIP3    H118297   1.341   0.955   1.225
 6097TIP3    H218298   1.489   0.984   1.214
 6098TIP3   OH218299   1.596   1.090   1.109
 6098TIP3    H118300   1.569   1.155   1.044
 6098TIP3    H218301   1.636   1.020   1.058
 6099TIP3   OH218302   0.430   0.764   1.251
 6099TIP3    H118303   0.456   0.782   1.341
 6099TIP3    H218304   0.504   0.718   1.213
 6100TIP3   OH218305   0.637   0.636   1.124
 6100TIP3    H118306   0.672   0.547   1.129
 6100TIP3    H218307   0.714   0.692   1.123
 6101TIP3   OH218308   0.886   0.750   1.120
 6101TIP3    H118309   0.917   0.660   1.114
 6101TIP3    H218310   0.927   0.784   1.200
 6102TIP3   OH218311   5.782   5.494   1.158
 6102TIP3    H118312   5.765   5.448   1.240
 6102TIP3    H218313   5.871   5.467   1.134
 6103TIP3   OH218314   6.327   5.432   1.126
 6103TIP3    H118315   6.365   5.477   1.051
 6103TIP3    H218316   6.286   5.500   1.179
 6104TIP3   OH218317   6.424   5.513   0.884
 6104TIP3    H118318   6.491   5.455   0.848
 6104TIP3    H218319   6.456   5.601   0.866
 6105TIP3   OH218320   4.887   5.129   0.857
 6105TIP3    H118321   4.958   5.179   0.816
 6105TIP3    H218322   4.902   5.140   0.951
 6106TIP3   OH218323   5.486   5.345   1.154
 6106TIP3    H118324   5.473   5.332   1.060
 6106TIP3    H218325   5.543   5.273   1.180
 6107TIP3   OH218326   6.023   5.367   1.094
 6107TIP3    H118327   6.080   5.351   1.019
 6107TIP3    H218328   6.065   5.320   1.167
 6108TIP3   OH218329   6.066   5.356   0.658
 6108TIP3    H118330   5.986   5.401   0.686
 6108TIP3    H218331   6.061   5.270   0.699
 6109TIP3   OH218332   0.195   0.563   0.658
 6109TIP3    H118333   0.112   0.532   0.623
 6109TIP3    H218334   0.203   0.653   0.627
 6110TIP3   OH218335   5.019   5.262   0.647
 6110TIP3    H118336   5.033   5.205   0.571
 6110TIP3    H218337   5.092   5.324   0.645
 6111TIP3   OH218338   5.465   5.537   0.694
 6111TIP3    H118339   5.519   5.470   0.736
 6111TIP3    H218340   5.470   5.612   0.752
 6112TIP3   OH218341   0.992   0.723   0.248
 6112TIP3    H118342   1.076   0.752   0.212
 6112TIP3    H218343   0.964   0.652   0.191
 6113TIP3   OH218344   1.696   0.863   0.337
 6113TIP3    H118345   1.691   0.768   0.330
 6113TIP3    H218346   1.651   0.895   0.260
 6114TIP3   OH218347   0.290   0.563   0.299
 6114TIP3    H118348   0.295   0.591   0.390
 6114TIP3    H218349   0.373   0.518   0.283
 6115TIP3   OH218350   3.199   0.368   0.293
 6115TIP3    H118351   3.172   0.454   0.325
 6115TIP3    H218352   3.120   0.331   0.253
 6116TIP3   OH218353   3.079   0.324   0.696
 6116TIP3    H118354   3.129   0.315   0.777
 6116TIP3    H218355   3.060   0.234   0.670
 6117TIP3   OH218356   2.479   0.271   1.055
 6117TIP3    H118357   2.512   0.188   1.090
 6117TIP3    H218358   2.520   0.337   1.110
 6118TIP3   OH218359   3.474   0.685   0.398
 6118TIP3    H118360   3.472   0.591   0.379
 6118TIP3    H218361   3.560   0.699   0.437
 6119TIP3   OH218362   6.500   5.999   0.526
 6119TIP3    H118363   6.465   6.084   0.549
 6119TIP3    H218364   6.427   5.952   0.486
 6120TIP3   OH218365   2.223   0.156   0.726
 6120TIP3    H118366   2.268   0.077   0.758
 6120TIP3    H218367   2.293   0.218   0.708
 6121TIP3   OH218368   3.037   1.157   0.377
 6121TIP3    H118369   3.126   1.178   0.350
 6121TIP3    H218370   3.039   1.063   0.396
 6122TIP3   OH218371   2.984   0.571   0.725
 6122TIP3    H118372   3.003   0.487   0.684
 6122TIP3    H218373   3.058   0.588   0.783
 6123TIP3   OH218374   3.454   0.093   0.743
 6123TIP3    H118375   3.450   0.002   0.772
 6123TIP3    H218376   3.392   0.098   0.670
 6124TIP3   OH218377   0.587   5.882   0.703
 6124TIP3    H118378   0.569   5.957   0.646
 6124TIP3    H218379   0.532   5.812   0.669
 6125TIP3   OH218380   1.285   5.980   0.341
 6125TIP3    H118381   1.353   5.962   0.407
 6125TIP3    H218382   1.332   6.023   0.270
 6126TIP3   OH218383   0.207   6.078   0.827
 6126TIP3    H118384   0.294   6.072   0.868
 6126TIP3    H218385   0.217   6.032   0.744
 6127TIP3   OH218386   2.822   0.150   0.611
 6127TIP3    H118387   2.909   0.113   0.626
 6127TIP3    H218388   2.769   0.075   0.584
 6128TIP3   OH218389   0.547   5.880   1.160
 6128TIP3    H118390   0.502   5.913   1.082
 6128TIP3    H218391   0.491   5.906   1.233
 6129TIP3   OH218392   3.010   0.547   0.142
 6129TIP3    H118393   2.991   0.529   0.049
 6129TIP3    H218394   2.960   0.626   0.162
 6130TIP3   OH218395   2.855   0.487   0.953
 6130TIP3    H118396   2.818   0.564   0.995
 6130TIP3    H218397   2.897   0.520   0.874
 6131TIP3   OH218398   1.465   5.957   0.555
 6131TIP3    H118399   1.407   5.957   0.631
 6131TIP3    H218400   1.512   6.040   0.561
 6132TIP3   OH218401   0.451   5.979   0.922
 6132TIP3    H118402   0.498   6.058   0.948
 6132TIP3    H218403   0.502   5.942   0.850
 6133TIP3   OH218404   2.052   0.415   0.274
 6133TIP3    H118405   2.017   0.436   0.187
 6133TIP3    H218406   2.079   0.499   0.310
 6134TIP3   OH218407   0.895   5.613   0.827
 6134TIP3    H118408   0.899   5.522   0.857
 6134TIP3    H218409   0.835   5.656   0.888
 6135TIP3   OH218410   3.219   0.926   0.080
 6135TIP3    H118411   3.273   0.848   0.077
 6135TIP3    H218412   3.281   0.998   0.067
 6136TIP3   OH218413   3.414   0.711   0.019
 6136TIP3    H118414   3.397   0.631  -0.030
 6136TIP3    H218415   3.374   0.696   0.104
 6137TIP3   OH218416   3.019   0.222   0.128
 6137TIP3    H118417   2.940   0.274   0.112
 6137TIP3    H218418   3.065   0.221   0.044
 6138TIP3   OH218419   5.153   3.083   5.131
 6138TIP3    H118420   5.217   3.134   5.181
 6138TIP3    H218421   5.205   3.018   5.085
 6139TIP3   OH218422   3.370   0.306   0.091
 6139TIP3    H118423   3.315   0.331   0.165
 6139TIP3    H218424   3.454   0.282   0.130
 6140TIP3   OH218425   2.618   0.304   0.496
 6140TIP3    H118426   2.576   0.246   0.432
 6140TIP3    H218427   2.691   0.254   0.530
 6141TIP3   OH218428   2.719   0.704   0.645
 6141TIP3    H118429   2.631   0.681   0.676
 6141TIP3    H218430   2.766   0.621   0.640
 6142TIP3   OH218431   2.720   0.276   0.840
 6142TIP3    H118432   2.767   0.253   0.760
 6142TIP3    H218433   2.771   0.348   0.878
 6143TIP3   OH218434   3.254   0.903   0.573
 6143TIP3    H118435   3.207   0.932   0.651
 6143TIP3    H218436   3.291   0.818   0.598
 6144TIP3   OH218437   5.371   3.233   5.228
 6144TIP3    H118438   5.429   3.289   5.279
 6144TIP3    H218439   5.397   3.247   5.137
 6145TIP3   OH218440   2.564   0.388   1.289
 6145TIP3    H118441   2.606   0.449   1.351
 6145TIP3    H218442   2.484   0.361   1.334
 6146TIP3   OH218443   2.934   0.807   0.163
 6146TIP3    H118444   3.003   0.858   0.206
 6146TIP3    H218445   2.882   0.873   0.116
 6147TIP3   OH218446   5.871   2.477   5.262
 6147TIP3    H118447   5.790   2.498   5.310
 6147TIP3    H218448   5.890   2.556   5.212
 6148TIP3   OH218449   2.478   0.144   0.296
 6148TIP3    H118450   2.405   0.192   0.259
 6148TIP3    H218451   2.438   0.067   0.336
 6149TIP3   OH218452   5.700   3.832   4.819
 6149TIP3    H118453   5.699   3.927   4.810
 6149TIP3    H218454   5.791   3.807   4.804
 6150TIP3   OH218455   2.259   0.501   1.186
 6150TIP3    H118456   2.188   0.514   1.123
 6150TIP3    H218457   2.297   0.417   1.163
 6151TIP3   OH218458   2.125   0.681   0.850
 6151TIP3    H118459   2.212   0.669   0.812
 6151TIP3    H218460   2.142   0.727   0.933
 6152TIP3   OH218461   5.000   4.080   5.266
 6152TIP3    H118462   4.959   4.102   5.183
 6152TIP3    H218463   4.959   4.139   5.330
 6153TIP3   OH218464   2.252   0.912   0.376
 6153TIP3    H118465   2.309   0.900   0.452
 6153TIP3    H218466   2.211   0.827   0.364
 6154TIP3   OH218467   5.204   4.056   4.921
 6154TIP3    H118468   5.260   3.984   4.893
 6154TIP3    H218469   5.233   4.075   5.011
 6155TIP3   OH218470   5.256   4.104   5.181
 6155TIP3    H118471   5.167   4.103   5.218
 6155TIP3    H218472   5.311   4.067   5.250
 6156TIP3   OH218473   2.389   0.722   1.314
 6156TIP3    H118474   2.437   0.643   1.338
 6156TIP3    H218475   2.341   0.698   1.235
 6157TIP3   OH218476   0.676   5.689   0.988
 6157TIP3    H118477   0.591   5.663   0.952
 6157TIP3    H218478   0.657   5.765   1.043
 6158TIP3   OH218479   5.452   3.249   4.970
 6158TIP3    H118480   5.412   3.241   4.883
 6158TIP3    H218481   5.535   3.292   4.954
 6159TIP3   OH218482   5.147   2.663   5.273
 6159TIP3    H118483   5.118   2.656   5.364
 6159TIP3    H218484   5.168   2.573   5.248
 6160TIP3   OH218485   2.747   0.068   1.009
 6160TIP3    H118486   2.715   0.092   1.096
 6160TIP3    H218487   2.734   0.147   0.956
 6161TIP3   OH218488   0.496   6.072   0.530
 6161TIP3    H118489   0.407   6.050   0.556
 6161TIP3    H218490   0.506   6.035   0.442
 6162TIP3   OH218491   3.152   0.019   0.262
 6162TIP3    H118492   3.103   0.093   0.224
 6162TIP3    H218493   3.210  -0.010   0.191
 6163TIP3   OH218494   3.301   0.038   0.504
 6163TIP3    H118495   3.244   0.068   0.434
 6163TIP3    H218496   3.350  -0.035   0.466
 6164TIP3   OH218497   2.595   0.094   1.234
 6164TIP3    H118498   2.618   0.174   1.282
 6164TIP3    H218499   2.590   0.026   1.301
 6165TIP3   OH218500   4.822   2.577   5.253
 6165TIP3    H118501   4.821   2.599   5.346
 6165TIP3    H218502   4.754   2.633   5.214
 6166TIP3   OH218503   0.042   5.740   0.804
 6166TIP3    H118504   0.109   5.776   0.863
 6166TIP3    H218505   0.087   5.732   0.720
 6167TIP3   OH218506   6.467   5.710   0.322
 6167TIP3    H118507   6.510   5.746   0.244
 6167TIP3    H218508   6.406   5.778   0.349
 6168TIP3   OH218509   3.275   0.263   0.891
 6168TIP3    H118510   3.333   0.190   0.867
 6168TIP3    H218511   3.241   0.239   0.976
 6169TIP3   OH218512   0.846   5.865   0.579
 6169TIP3    H118513   0.770   5.870   0.638
 6169TIP3    H218514   0.921   5.863   0.638
 6170TIP3   OH218515   0.261   5.947   0.593
 6170TIP3    H118516   0.172   5.951   0.558
 6170TIP3    H218517   0.291   5.859   0.572
 6171TIP3   OH218518   0.520   5.943   0.291
 6171TIP3    H118519   0.614   5.962   0.280
 6171TIP3    H218520   0.481   5.964   0.206
 6172TIP3   OH218521   1.304   5.935   0.772
 6172TIP3    H118522   1.302   5.939   0.868
 6172TIP3    H218523   1.219   5.899   0.747
 6173TIP3   OH218524   0.402   5.960   0.047
 6173TIP3    H118525   0.337   5.913  -0.007
 6173TIP3    H218526   0.451   6.012  -0.016
 6174TIP3   OH218527   3.076   0.052   0.675
 6174TIP3    H118528   3.153   0.032   0.622
 6174TIP3    H218529   3.097   0.018   0.761
 6175TIP3   OH218530   0.410   5.705   0.576
 6175TIP3    H118531   0.379   5.628   0.625
 6175TIP3    H218532   0.456   5.668   0.501
 6176TIP3   OH218533   3.008   0.006   0.988
 6176TIP3    H118534   2.918   0.038   0.990
 6176TIP3    H218535   3.057   0.069   1.041
 6177TIP3   OH218536   2.782   0.363   0.060
 6177TIP3    H118537   2.705   0.307   0.047
 6177TIP3    H218538   2.768   0.404   0.145
 6178TIP3   OH218539   5.411   2.750   5.270
 6178TIP3    H118540   5.315   2.747   5.265
 6178TIP3    H218541   5.432   2.843   5.282
 6179TIP3   OH218542   1.147   6.070   0.041
 6179TIP3    H118543   1.241   6.083   0.053
 6179TIP3    H218544   1.118   6.146  -0.010
 6180TIP3   OH218545   2.452   0.300   0.733
 6180TIP3    H118546   2.502   0.327   0.657
 6180TIP3    H218547   2.515   0.301   0.805
 6181TIP3   OH218548   5.085   3.581   5.189
 6181TIP3    H118549   5.042   3.667   5.192
 6181TIP3    H218550   5.029   3.524   5.241
 6182TIP3   OH218551   2.326   0.299   1.398
 6182TIP3    H118552   2.283   0.378   1.430
 6182TIP3    H218553   2.261   0.256   1.343
 6183TIP3   OH218554   5.905   3.101   5.175
 6183TIP3    H118555   5.848   3.053   5.115
 6183TIP3    H218556   5.908   3.190   5.140
 6184TIP3   OH218557   5.645   3.915   5.094
 6184TIP3    H118558   5.620   3.866   5.172
 6184TIP3    H218559   5.641   3.851   5.023
 6185TIP3   OH218560   3.586   0.468   0.548
 6185TIP3    H118561   3.502   0.461   0.594
 6185TIP3    H218562   3.596   0.383   0.505
 6186TIP3   OH218563   2.564   0.696   0.354
 6186TIP3    H118564   2.552   0.772   0.297
 6186TIP3    H218565   2.502   0.709   0.425
 6187TIP3   OH218566   2.160   0.006   0.096
 6187TIP3    H118567   2.204   0.089   0.115
 6187TIP3    H218568   2.080   0.008   0.149
 6188TIP3   OH218569   2.712   0.474   0.296
 6188TIP3    H118570   2.672   0.560   0.313
 6188TIP3    H218571   2.686   0.421   0.372
 6189TIP3   OH218572   2.854   1.003   0.813
 6189TIP3    H118573   2.892   1.054   0.884
 6189TIP3    H218574   2.857   0.912   0.844
 6190TIP3   OH218575   2.475   0.914   0.213
 6190TIP3    H118576   2.390   0.915   0.258
 6190TIP3    H218577   2.507   1.004   0.221
 6191TIP3   OH218578   3.211   0.574   0.879
 6191TIP3    H118579   3.208   0.660   0.920
 6191TIP3    H218580   3.304   0.560   0.861
 6192TIP3   OH218581   5.385   3.641   4.994
 6192TIP3    H118582   5.438   3.607   5.065
 6192TIP3    H218583   5.296   3.612   5.013
 6193TIP3   OH218584   5.715   4.108   4.797
 6193TIP3    H118585   5.759   4.182   4.755
 6193TIP3    H218586   5.638   4.145   4.838
 6194TIP3   OH218587   0.387   5.968   1.367
 6194TIP3    H118588   0.292   5.980   1.368
 6194TIP3    H218589   0.409   5.938   1.455
 6195TIP3   OH218590   5.553   3.541   5.186
 6195TIP3    H118591   5.541   3.480   5.258
 6195TIP3    H218592   5.648   3.545   5.173
 6196TIP3   OH218593   2.258   0.782   1.069
 6196TIP3    H118594   2.324   0.753   1.006
 6196TIP3    H218595   2.280   0.874   1.085
 6197TIP3   OH218596   4.743   3.612   5.003
 6197TIP3    H118597   4.754   3.521   4.977
 6197TIP3    H218598   4.726   3.608   5.097
 6198TIP3   OH218599   4.687   3.625   5.275
 6198TIP3    H118600   4.750   3.601   5.343
 6198TIP3    H218601   4.686   3.720   5.276
 6199TIP3   OH218602   2.256   0.256   0.173
 6199TIP3    H118603   2.190   0.300   0.227
 6199TIP3    H218604   2.273   0.318   0.102
 6200TIP3   OH218605   1.136   5.766   0.235
 6200TIP3    H118606   1.115   5.790   0.145
 6200TIP3    H218607   1.178   5.843   0.272
 6201TIP3   OH218608   4.953   3.815   5.201
 6201TIP3    H118609   4.863   3.834   5.225
 6201TIP3    H218610   4.999   3.898   5.210
 6202TIP3   OH218611   0.798   5.952   0.321
 6202TIP3    H118612   0.861   6.022   0.300
 6202TIP3    H218613   0.813   5.934   0.414
 6203TIP3   OH218614   3.203   0.123   1.137
 6203TIP3    H118615   3.180   0.194   1.197
 6203TIP3    H218616   3.281   0.083   1.175
 6204TIP3   OH218617   0.957   5.659   0.418
 6204TIP3    H118618   0.937   5.731   0.477
 6204TIP3    H218619   1.029   5.691   0.364
 6205TIP3   OH218620   4.700   3.896   5.269
 6205TIP3    H118621   4.681   3.972   5.214
 6205TIP3    H218622   4.681   3.926   5.358
 6206TIP3   OH218623   0.476   5.674   0.225
 6206TIP3    H118624   0.456   5.764   0.251
 6206TIP3    H218625   0.570   5.667   0.235
 6207TIP3   OH218626   3.557   0.201   0.475
 6207TIP3    H118627   3.471   0.194   0.517
 6207TIP3    H218628   3.616   0.152   0.533
 6208TIP3   OH218629   4.433   3.507   5.270
 6208TIP3    H118630   4.502   3.572   5.283
 6208TIP3    H218631   4.470   3.445   5.207
 6209TIP3   OH218632   0.023   5.858   0.097
 6209TIP3    H118633   0.037   5.952   0.105
 6209TIP3    H218634  -0.048   5.849   0.034
 6210TIP3   OH218635   0.418   5.593   0.948
 6210TIP3    H118636   0.391   5.562   0.861
 6210TIP3    H218637   0.417   5.515   1.003
 6211TIP3   OH218638   2.103   0.677   0.345
 6211TIP3    H118639   2.058   0.710   0.422
 6211TIP3    H218640   2.065   0.726   0.272
 6212TIP3   OH218641   4.903   3.805   4.888
 6212TIP3    H118642   4.854   3.740   4.939
 6212TIP3    H218643   4.982   3.758   4.860
 6213TIP3   OH218644   5.351   3.851   4.818
 6213TIP3    H118645   5.379   3.787   4.883
 6213TIP3    H218646   5.417   3.845   4.748
 6214TIP3   OH218647   4.567   3.317   5.127
 6214TIP3    H118648   4.619   3.293   5.204
 6214TIP3    H218649   4.632   3.329   5.058
 6215TIP3   OH218650   5.100   3.532   4.924
 6215TIP3    H118651   5.085   3.549   5.017
 6215TIP3    H218652   5.094   3.437   4.916
 6216TIP3   OH218653   2.574   0.181   0.029
 6216TIP3    H118654   2.554   0.153   0.118
 6216TIP3    H218655   2.622   0.107  -0.009
 6217TIP3   OH218656   4.879   3.053   5.183
 6217TIP3    H118657   4.848   3.062   5.092
 6217TIP3    H218658   4.974   3.062   5.177
 6218TIP3   OH218659   5.680   3.361   4.857
 6218TIP3    H118660   5.664   3.315   4.774
 6218TIP3    H218661   5.651   3.450   4.841
 6219TIP3   OH218662   0.814   5.924   1.157
 6219TIP3    H118663   0.826   6.000   1.101
 6219TIP3    H218664   0.719   5.909   1.157
 6220TIP3   OH218665   3.093   0.399   1.078
 6220TIP3    H118666   3.141   0.444   1.008
 6220TIP3    H218667   3.001   0.415   1.057
 6221TIP3   OH218668   1.052   5.805   1.084
 6221TIP3    H118669   0.966   5.848   1.094
 6221TIP3    H218670   1.074   5.775   1.172
 6222TIP3   OH218671   4.692   4.114   5.096
 6222TIP3    H118672   4.779   4.092   5.063
 6222TIP3    H218673   4.650   4.160   5.023
 6223TIP3   OH218674   4.161   3.486   5.294
 6223TIP3    H118675   4.255   3.503   5.288
 6223TIP3    H218676   4.150   3.400   5.254
 6224TIP3   OH218677   1.910   1.008   0.427
 6224TIP3    H118678   1.837   0.968   0.379
 6224TIP3    H218679   1.946   0.937   0.480
 6225TIP3   OH218680   1.998   0.790   0.573
 6225TIP3    H118681   1.970   0.723   0.636
 6225TIP3    H218682   2.057   0.846   0.623
 6226TIP3   OH218683   5.826   3.556   5.184
 6226TIP3    H118684   5.886   3.622   5.149
 6226TIP3    H218685   5.871   3.520   5.261
 6227TIP3   OH218686   3.789   0.360   0.076
 6227TIP3    H118687   3.726   0.318   0.134
 6227TIP3    H218688   3.858   0.391   0.134
 6228TIP3   OH218689   5.886   3.335   5.035
 6228TIP3    H118690   5.815   3.333   4.970
 6228TIP3    H218691   5.867   3.411   5.089
 6229TIP3   OH218692   5.748   3.001   4.979
 6229TIP3    H118693   5.717   3.035   4.895
 6229TIP3    H218694   5.728   2.908   4.977
 6230TIP3   OH218695   3.600   0.214   0.211
 6230TIP3    H118696   3.601   0.122   0.187
 6230TIP3    H218697   3.587   0.215   0.305
 6231TIP3   OH218698   2.221   0.269   0.974
 6231TIP3    H118699   2.209   0.236   0.885
 6231TIP3    H218700   2.316   0.279   0.984
 6232TIP3   OH218701   5.694   2.737   4.972
 6232TIP3    H118702   5.768   2.699   5.020
 6232TIP3    H218703   5.625   2.670   4.978
 6233TIP3   OH218704   1.425   6.085   0.099
 6233TIP3    H118705   1.451   5.993   0.101
 6233TIP3    H218706   1.475   6.122   0.027
 6234TIP3   OH218707   3.762   0.066   0.607
 6234TIP3    H118708   3.842   0.105   0.571
 6234TIP3    H218709   3.767   0.084   0.701
 6235TIP3   OH218710   1.496   5.823   0.111
 6235TIP3    H118711   1.556   5.798   0.182
 6235TIP3    H218712   1.434   5.750   0.106
 6236TIP3   OH218713   0.243   5.803   0.985
 6236TIP3    H118714   0.301   5.727   0.982
 6236TIP3    H218715   0.300   5.877   0.965
 6237TIP3   OH218716   0.054   6.074   1.057
 6237TIP3    H118717   0.099   6.063   0.973
 6237TIP3    H218718   0.073   6.165   1.082
 6238TIP3   OH218719   5.942   2.677   5.089
 6238TIP3    H118720   5.990   2.613   5.037
 6238TIP3    H218721   5.997   2.755   5.088
 6239TIP3   OH218722   6.518   5.555   0.541
 6239TIP3    H118723   6.433   5.554   0.585
 6239TIP3    H218724   6.507   5.618   0.469
 6240TIP3   OH218725   3.383   1.124   0.011
 6240TIP3    H118726   3.447   1.101  -0.056
 6240TIP3    H218727   3.434   1.168   0.079
 6241TIP3   OH218728   0.219   5.625   1.355
 6241TIP3    H118729   0.178   5.644   1.439
 6241TIP3    H218730   0.172   5.681   1.293
 6242TIP3   OH218731   2.633   0.940   0.978
 6242TIP3    H118732   2.612   1.024   0.936
 6242TIP3    H218733   2.575   0.877   0.936
 6243TIP3   OH218734   2.338   1.315   0.977
 6243TIP3    H118735   2.251   1.333   0.942
 6243TIP3    H218736   2.322   1.292   1.069
 6244TIP3   OH218737   2.541   1.169   0.863
 6244TIP3    H118738   2.478   1.222   0.913
 6244TIP3    H218739   2.587   1.232   0.807
 6245TIP3   OH218740   2.148   0.951   0.724
 6245TIP3    H118741   2.187   0.907   0.800
 6245TIP3    H218742   2.215   1.011   0.693
 6246TIP3   OH218743   2.428   0.864   0.573
 6246TIP3    H118744   2.423   0.815   0.656
 6246TIP3    H218745   2.497   0.929   0.588
 6247TIP3   OH218746   2.684   0.982   0.588
 6247TIP3    H118747   2.681   0.890   0.560
 6247TIP3    H218748   2.738   0.981   0.668
 6248TIP3   OH218749   1.080   5.783   0.705
 6248TIP3    H118750   1.028   5.726   0.762
 6248TIP3    H218751   1.136   5.723   0.656
 6249TIP3   OH218752   1.508   5.689   0.494
 6249TIP3    H118753   1.571   5.707   0.424
 6249TIP3    H218754   1.479   5.775   0.523
 6250TIP3   OH218755   1.681   5.755   0.296
 6250TIP3    H118756   1.732   5.677   0.317
 6250TIP3    H218757   1.744   5.827   0.303
 6251TIP3   OH218758   0.333   5.479   0.713
 6251TIP3    H118759   0.242   5.449   0.720
 6251TIP3    H218760   0.385   5.398   0.710
 6252TIP3   OH218761   0.143   5.371   0.370
 6252TIP3    H118762   0.158   5.433   0.299
 6252TIP3    H218763   0.102   5.424   0.439
 6253TIP3   OH218764   0.780   5.527   0.591
 6253TIP3    H118765   0.839   5.568   0.529
 6253TIP3    H218766   0.808   5.558   0.677
 6254TIP3   OH218767   1.252   5.613   0.575
 6254TIP3    H118768   1.336   5.628   0.530
 6254TIP3    H218769   1.270   5.540   0.634
 6255TIP3   OH218770   1.334   5.600   0.133
 6255TIP3    H118771   1.260   5.649   0.170
 6255TIP3    H218772   1.328   5.514   0.175
 6256TIP3   OH218773   1.997   0.820   0.138
 6256TIP3    H118774   1.911   0.787   0.111
 6256TIP3    H218775   1.998   0.911   0.108
 6257TIP3   OH218776   0.243   5.525   0.153
 6257TIP3    H118777   0.294   5.448   0.128
 6257TIP3    H218778   0.308   5.588   0.183
 6258TIP3   OH218779   0.752   5.695   0.235
 6258TIP3    H118780   0.816   5.656   0.295
 6258TIP3    H218781   0.756   5.789   0.253
 6259TIP3   OH218782   4.938   4.055   4.996
 6259TIP3    H118783   5.028   4.071   4.967
 6259TIP3    H218784   4.918   3.967   4.963
 6260TIP3   OH218785   5.713   4.175   5.104
 6260TIP3    H118786   5.701   4.080   5.098
 6260TIP3    H218787   5.659   4.210   5.033
 6261TIP3   OH218788   4.253   3.884   5.099
 6261TIP3    H118789   4.256   3.896   5.194
 6261TIP3    H218790   4.335   3.840   5.077
 6262TIP3   OH218791   3.953   0.133   0.019
 6262TIP3    H118792   3.917   0.220   0.037
 6262TIP3    H218793   3.884   0.088  -0.029
 6263TIP3   OH218794   4.026   0.412   0.200
 6263TIP3    H118795   4.070   0.341   0.246
 6263TIP3    H218796   4.092   0.447   0.140
 6264TIP3   OH218797   4.167   0.199   0.310
 6264TIP3    H118798   4.260   0.212   0.331
 6264TIP3    H218799   4.167   0.138   0.236
 6265TIP3   OH218800   6.005   3.721   5.057
 6265TIP3    H118801   5.971   3.738   4.969
 6265TIP3    H218802   6.030   3.807   5.090
 6266TIP3   OH218803   6.464   3.456   5.057
 6266TIP3    H118804   6.372   3.482   5.055
 6266TIP3    H218805   6.474   3.410   5.141
 6267TIP3   OH218806   0.029   3.311   5.289
 6267TIP3    H118807   0.025   3.225   5.332
 6267TIP3    H218808   0.122   3.323   5.269
 6268TIP3   OH218809   0.072   2.882   4.773
 6268TIP3    H118810   0.056   2.897   4.866
 6268TIP3    H218811   0.014   2.944   4.728
 6269TIP3   OH218812   1.885   5.937   0.289
 6269TIP3    H118813   1.922   6.025   0.290
 6269TIP3    H218814   1.877   5.916   0.196
 6270TIP3   OH218815   6.099   2.909   5.109
 6270TIP3    H118816   6.142   2.941   5.029
 6270TIP3    H218817   6.037   2.978   5.132
 6271TIP3   OH218818   4.188   0.023   0.100
 6271TIP3    H118819   4.111   0.062   0.059
 6271TIP3    H218820   4.219  -0.042   0.037
 6272TIP3   OH218821   0.175   3.111   5.055
 6272TIP3    H118822   0.199   3.179   5.118
 6272TIP3    H218823   0.103   3.148   5.005
 6273TIP3   OH218824   6.492   3.166   4.861
 6273TIP3    H118825   6.418   3.131   4.811
 6273TIP3    H218826   6.540   3.218   4.797
 6274TIP3   OH218827   0.217   3.747   4.855
 6274TIP3    H118828   0.174   3.663   4.836
 6274TIP3    H218829   0.249   3.738   4.945
 6275TIP3   OH218830   6.114   3.322   4.884
 6275TIP3    H118831   6.165   3.401   4.906
 6275TIP3    H218832   6.037   3.327   4.941
 6276TIP3   OH218833  -0.021   3.900   4.516
 6276TIP3    H118834   0.060   3.854   4.492
 6276TIP3    H218835  -0.025   3.893   4.611
 6277TIP3   OH218836  -0.007   3.892   4.787
 6277TIP3    H118837   0.066   3.833   4.803
 6277TIP3    H218838   0.011   3.969   4.840
 6278TIP3   OH218839   6.216   3.568   4.965
 6278TIP3    H118840   6.146   3.610   5.017
 6278TIP3    H218841   6.240   3.634   4.901
 6279TIP3   OH218842   0.076   2.858   5.051
 6279TIP3    H118843   0.100   2.949   5.066
 6279TIP3    H218844   0.131   2.807   5.111
 6280TIP3   OH218845   6.231   3.778   4.766
 6280TIP3    H118846   6.305   3.837   4.783
 6280TIP3    H218847   6.265   3.714   4.704
 6281TIP3   OH218848   6.147   3.046   4.881
 6281TIP3    H118849   6.152   3.142   4.885
 6281TIP3    H218850   6.072   3.029   4.824
 6282TIP3   OH218851   6.056   3.982   5.115
 6282TIP3    H118852   6.011   4.033   5.182
 6282TIP3    H218853   6.052   4.036   5.037
 6283TIP3   OH218854   0.169   4.064   4.388
 6283TIP3    H118855   0.083   4.052   4.429
 6283TIP3    H218856   0.215   3.982   4.404
 6284TIP3   OH218857   6.351   3.581   4.628
 6284TIP3    H118858   6.402   3.553   4.704
 6284TIP3    H218859   6.417   3.601   4.561
 6285TIP3   OH218860   0.232   3.806   4.487
 6285TIP3    H118861   0.325   3.788   4.499
 6285TIP3    H218862   0.195   3.722   4.459
 6286TIP3   OH218863   0.053   3.525   4.812
 6286TIP3    H118864   0.025   3.499   4.900
 6286TIP3    H218865   0.098   3.449   4.777
 6287TIP3   OH218866   0.151   3.299   4.680
 6287TIP3    H118867   0.098   3.322   4.603
 6287TIP3    H218868   0.208   3.228   4.650
 6288TIP3   OH218869   5.960   3.743   4.773
 6288TIP3    H118870   6.053   3.763   4.774
 6288TIP3    H218871   5.954   3.655   4.737
 6289TIP3   OH218872   1.993   0.685   1.578
 6289TIP3    H118873   1.946   0.628   1.518
 6289TIP3    H218874   2.045   0.626   1.633
 6290TIP3   OH218875   3.992   0.199   0.530
 6290TIP3    H118876   4.045   0.184   0.452
 6290TIP3    H218877   4.010   0.290   0.554
 6291TIP3   OH218878   1.808   5.845   0.034
 6291TIP3    H118879   1.718   5.818   0.051
 6291TIP3    H218880   1.802   5.898  -0.046
 6292TIP3   OH218881   6.234   2.580   5.159
 6292TIP3    H118882   6.271   2.629   5.085
 6292TIP3    H218883   6.215   2.647   5.224
 6293TIP3   OH218884   5.983   4.131   4.893
 6293TIP3    H118885   5.895   4.092   4.895
 6293TIP3    H218886   5.968   4.223   4.872
 6294TIP3   OH218887   6.359   2.713   4.945
 6294TIP3    H118888   6.405   2.651   4.888
 6294TIP3    H218889   6.429   2.766   4.984
 6295TIP3   OH218890   6.042   4.143   4.593
 6295TIP3    H118891   6.040   4.138   4.689
 6295TIP3    H218892   6.124   4.100   4.568
 6296TIP3   OH218893   5.690   1.623   0.977
 6296TIP3    H118894   5.768   1.677   0.992
 6296TIP3    H218895   5.622   1.685   0.953
 6297TIP3   OH218896   6.003   1.155   0.984
 6297TIP3    H118897   6.070   1.152   1.053
 6297TIP3    H218898   6.051   1.182   0.905
 6298TIP3   OH218899   5.510   1.817   0.886
 6298TIP3    H118900   5.578   1.820   0.818
 6298TIP3    H218901   5.512   1.904   0.926
 6299TIP3   OH218902   6.198   1.190   1.175
 6299TIP3    H118903   6.258   1.119   1.196
 6299TIP3    H218904   6.238   1.268   1.214
 6300TIP3   OH218905   5.909   1.994   0.773
 6300TIP3    H118906   5.936   1.954   0.690
 6300TIP3    H218907   5.945   1.936   0.840
 6301TIP3   OH218908   6.390   1.706   1.330
 6301TIP3    H118909   6.399   1.768   1.403
 6301TIP3    H218910   6.437   1.747   1.258
 6302TIP3   OH218911   5.960   1.627   0.755
 6302TIP3    H118912   5.888   1.579   0.795
 6302TIP3    H218913   6.038   1.595   0.800
 6303TIP3   OH218914   6.268   0.709   0.624
 6303TIP3    H118915   6.189   0.725   0.676
 6303TIP3    H218916   6.278   0.787   0.571
 6304TIP3   OH218917   6.101   2.081   0.190
 6304TIP3    H118918   6.111   2.173   0.168
 6304TIP3    H218919   6.187   2.043   0.173
 6305TIP3   OH218920   5.627   2.301   0.265
 6305TIP3    H118921   5.703   2.254   0.230
 6305TIP3    H218922   5.645   2.310   0.359
 6306TIP3   OH218923   5.800   1.461   0.312
 6306TIP3    H118924   5.790   1.452   0.217
 6306TIP3    H218925   5.878   1.515   0.323
 6307TIP3   OH218926   5.542   0.886   0.603
 6307TIP3    H118927   5.544   0.874   0.698
 6307TIP3    H218928   5.506   0.804   0.569
 6308TIP3   OH218929   5.722   1.324   0.906
 6308TIP3    H118930   5.712   1.417   0.885
 6308TIP3    H218931   5.779   1.289   0.838
 6309TIP3   OH218932   5.894   1.367   1.130
 6309TIP3    H118933   5.819   1.386   1.074
 6309TIP3    H218934   5.933   1.287   1.092
 6310TIP3   OH218935   5.209   0.851   0.603
 6310TIP3    H118936   5.194   0.832   0.696
 6310TIP3    H218937   5.127   0.889   0.572
 6311TIP3   OH218938   5.330   1.032   0.926
 6311TIP3    H118939   5.407   1.056   0.977
 6311TIP3    H218940   5.352   1.055   0.836
 6312TIP3   OH218941   5.133   1.163   0.642
 6312TIP3    H118942   5.115   1.132   0.731
 6312TIP3    H218943   5.087   1.101   0.585
 6313TIP3   OH218944   5.409   1.594   0.773
 6313TIP3    H118945   5.337   1.623   0.717
 6313TIP3    H218946   5.428   1.669   0.829
 6314TIP3   OH218947   5.792   0.998   0.619
 6314TIP3    H118948   5.699   0.979   0.608
 6314TIP3    H218949   5.797   1.093   0.623
 6315TIP3   OH218950   5.876   1.261   0.682
 6315TIP3    H118951   5.969   1.247   0.699
 6315TIP3    H218952   5.874   1.329   0.615
 6316TIP3   OH218953   5.496   1.826   0.537
 6316TIP3    H118954   5.470   1.918   0.532
 6316TIP3    H218955   5.420   1.782   0.577
 6317TIP3   OH218956   6.284   1.333   0.533
 6317TIP3    H118957   6.223   1.289   0.474
 6317TIP3    H218958   6.292   1.421   0.497
 6318TIP3   OH218959   5.997   2.127   0.444
 6318TIP3    H118960   5.983   2.045   0.492
 6318TIP3    H218961   6.042   2.100   0.364
 6319TIP3   OH218962   5.763   1.810   0.364
 6319TIP3    H118963   5.845   1.789   0.409
 6319TIP3    H218964   5.727   1.884   0.413
 6320TIP3   OH218965   6.087   2.350   0.158
 6320TIP3    H118966   6.101   2.404   0.080
 6320TIP3    H218967   6.018   2.394   0.207
 6321TIP3   OH218968   5.964   1.818   0.564
 6321TIP3    H118969   5.955   1.746   0.626
 6321TIP3    H218970   6.056   1.816   0.537
 6322TIP3   OH218971   5.023   1.767   0.402
 6322TIP3    H118972   5.068   1.731   0.325
 6322TIP3    H218973   5.088   1.761   0.472
 6323TIP3   OH218974   5.861   0.930   0.880
 6323TIP3    H118975   5.836   0.955   0.791
 6323TIP3    H218976   5.899   1.009   0.918
 6324TIP3   OH218977   5.590   1.089   0.994
 6324TIP3    H118978   5.649   1.154   0.955
 6324TIP3    H218979   5.623   1.078   1.083
 6325TIP3   OH218980   5.202   0.796   0.875
 6325TIP3    H118981   5.247   0.874   0.905
 6325TIP3    H218982   5.269   0.728   0.876
 6326TIP3   OH218983   6.099   1.544   1.152
 6326TIP3    H118984   6.027   1.481   1.159
 6326TIP3    H218985   6.171   1.504   1.202
 6327TIP3   OH218986   5.271   2.115   0.200
 6327TIP3    H118987   5.213   2.055   0.248
 6327TIP3    H218988   5.335   2.057   0.159
 6328TIP3   OH218989   5.834   2.164   0.163
 6328TIP3    H118990   5.922   2.151   0.199
 6328TIP3    H218991   5.846   2.157   0.068
 6329TIP3   OH218992   5.478   1.723   0.251
 6329TIP3    H118993   5.546   1.739   0.317
 6329TIP3    H218994   5.491   1.632   0.224
 6330TIP3   OH218995   5.194   1.423   0.657
 6330TIP3    H118996   5.129   1.463   0.715
 6330TIP3    H218997   5.165   1.333   0.648
 6331TIP3   OH218998   5.338   1.257   0.466
 6331TIP3    H118999   5.275   1.265   0.394
 6331TIP3    H219000   5.350   1.163   0.476
 6332TIP3   OH219001   6.049   1.575   0.229
 6332TIP3    H119002   6.038   1.532   0.144
 6332TIP3    H219003   6.039   1.668   0.210
 6333TIP3   OH219004   6.231   1.799   0.537
 6333TIP3    H119005   6.296   1.861   0.504
 6333TIP3    H219006   6.273   1.758   0.613
 6334TIP3   OH219007   6.342   1.660   0.745
 6334TIP3    H119008   6.282   1.611   0.801
 6334TIP3    H219009   6.410   1.692   0.804
 6335TIP3   OH219010   6.269   1.569   0.393
 6335TIP3    H119011   6.194   1.560   0.334
 6335TIP3    H219012   6.253   1.649   0.441
 6336TIP3   OH219013   6.110   1.236   0.348
 6336TIP3    H119014   6.081   1.274   0.265
 6336TIP3    H219015   6.099   1.141   0.336
 6337TIP3   OH219016   6.166   1.504   0.889
 6337TIP3    H119017   6.177   1.409   0.884
 6337TIP3    H219018   6.151   1.521   0.982
 6338TIP3   OH219019   6.075   0.967   0.318
 6338TIP3    H119020   6.146   0.935   0.373
 6338TIP3    H219021   6.000   0.913   0.341
 6339TIP3   OH219022   6.149   1.228   0.757
 6339TIP3    H119023   6.194   1.145   0.770
 6339TIP3    H219024   6.198   1.272   0.687
 6340TIP3   OH219025   6.319   1.429   1.281
 6340TIP3    H119026   6.406   1.417   1.245
 6340TIP3    H219027   6.323   1.513   1.326
 6341TIP3   OH219028   6.261   0.981   0.812
 6341TIP3    H119029   6.303   0.965   0.897
 6341TIP3    H219030   6.196   0.911   0.803
 6342TIP3   OH219031   6.316   0.913   0.451
 6342TIP3    H119032   6.361   0.849   0.395
 6342TIP3    H219033   6.375   0.988   0.454
 6343TIP3   OH219034   6.408   0.922   1.039
 6343TIP3    H119035   6.480   0.869   1.007
 6343TIP3    H219036   6.439   1.012   1.034
 6344TIP3   OH219037   6.076   0.774   0.810
 6344TIP3    H119038   5.997   0.822   0.834
 6344TIP3    H219039   6.066   0.689   0.852
 6345TIP3   OH219040   4.971   0.645   0.874
 6345TIP3    H119041   4.979   0.601   0.789
 6345TIP3    H219042   5.042   0.710   0.873
 6346TIP3   OH219043   5.550   0.846   0.870
 6346TIP3    H119044   5.521   0.780   0.933
 6346TIP3    H219045   5.570   0.923   0.923
 6347TIP3   OH219046   5.971   2.391   0.525
 6347TIP3    H119047   5.995   2.301   0.501
 6347TIP3    H219048   5.975   2.440   0.443
 6348TIP3   OH219049   1.028   1.937   0.441
 6348TIP3    H119050   0.998   2.025   0.419
 6348TIP3    H219051   0.961   1.879   0.405
 6349TIP3   OH219052   1.006   1.912   0.817
 6349TIP3    H119053   1.038   1.906   0.907
 6349TIP3    H219054   0.967   1.826   0.800
 6350TIP3   OH219055   0.339   1.821   1.170
 6350TIP3    H119056   0.366   1.772   1.247
 6350TIP3    H219057   0.419   1.834   1.119
 6351TIP3   OH219058   1.269   2.178   0.476
 6351TIP3    H119059   1.268   2.119   0.552
 6351TIP3    H219060   1.289   2.264   0.513
 6352TIP3   OH219061   0.339   2.252   0.914
 6352TIP3    H119062   0.315   2.159   0.913
 6352TIP3    H219063   0.427   2.254   0.877
 6353TIP3   OH219064   6.504   1.429   0.684
 6353TIP3    H119065   6.467   1.516   0.701
 6353TIP3    H219066   6.435   1.382   0.639
 6354TIP3   OH219067   0.074   1.730   0.874
 6354TIP3    H119068   0.128   1.658   0.907
 6354TIP3    H219069   0.129   1.773   0.809
 6355TIP3   OH219070   0.982   2.661   0.527
 6355TIP3    H119071   0.980   2.593   0.460
 6355TIP3    H219072   1.035   2.624   0.597
 6356TIP3   OH219073   0.805   2.127   0.835
 6356TIP3    H119074   0.831   2.055   0.777
 6356TIP3    H219075   0.883   2.144   0.888
 6357TIP3   OH219076   1.811   1.436   0.866
 6357TIP3    H119077   1.806   1.525   0.832
 6357TIP3    H219078   1.839   1.383   0.791
 6358TIP3   OH219079   1.229   1.660   0.895
 6358TIP3    H119080   1.271   1.577   0.920
 6358TIP3    H219081   1.201   1.645   0.804
 6359TIP3   OH219082   0.594   1.310   0.856
 6359TIP3    H119083   0.576   1.383   0.797
 6359TIP3    H219084   0.544   1.237   0.819
 6360TIP3   OH219085   1.285   1.407   0.482
 6360TIP3    H119086   1.351   1.383   0.547
 6360TIP3    H219087   1.336   1.439   0.407
 6361TIP3   OH219088   0.231   1.526   0.970
 6361TIP3    H119089   0.312   1.504   1.017
 6361TIP3    H219090   0.234   1.472   0.891
 6362TIP3   OH219091   0.652   1.714   0.784
 6362TIP3    H119092   0.745   1.691   0.791
 6362TIP3    H219093   0.611   1.635   0.748
 6363TIP3   OH219094   1.903   1.745   0.954
 6363TIP3    H119095   1.830   1.779   1.005
 6363TIP3    H219096   1.976   1.741   1.016
 6364TIP3   OH219097   0.564   1.292   1.305
 6364TIP3    H119098   0.522   1.336   1.231
 6364TIP3    H219099   0.491   1.260   1.358
 6365TIP3   OH219100   0.896   2.146   0.319
 6365TIP3    H119101   0.879   2.134   0.226
 6365TIP3    H219102   0.850   2.227   0.342
 6366TIP3   OH219103   0.687   2.072   1.080
 6366TIP3    H119104   0.628   2.143   1.106
 6366TIP3    H219105   0.725   2.101   0.997
 6367TIP3   OH219106   1.467   1.372   0.678
 6367TIP3    H119107   1.440   1.345   0.766
 6367TIP3    H219108   1.506   1.458   0.690
 6368TIP3   OH219109   0.467   1.413   1.077
 6368TIP3    H119110   0.523   1.487   1.100
 6368TIP3    H219111   0.510   1.372   1.002
 6369TIP3   OH219112   6.405   1.975   0.419
 6369TIP3    H119113   6.377   1.987   0.328
 6369TIP3    H219114   6.432   2.062   0.448
 6370TIP3   OH219115   1.311   2.432   0.570
 6370TIP3    H119116   1.228   2.442   0.617
 6370TIP3    H219117   1.332   2.520   0.540
 6371TIP3   OH219118   1.575   1.337   0.962
 6371TIP3    H119119   1.507   1.404   0.959
 6371TIP3    H219120   1.649   1.376   0.915
 6372TIP3   OH219121   0.933   1.009   1.011
 6372TIP3    H119122   0.926   0.916   1.033
 6372TIP3    H219123   0.858   1.050   1.055
 6373TIP3   OH219124   1.044   2.495   0.321
 6373TIP3    H119125   1.074   2.410   0.288
 6373TIP3    H219126   1.124   2.545   0.337
 6374TIP3   OH219127   1.180   2.280   0.238
 6374TIP3    H119128   1.182   2.208   0.176
 6374TIP3    H219129   1.210   2.241   0.321
 6375TIP3   OH219130   0.862   1.784   0.277
 6375TIP3    H119131   0.780   1.831   0.259
 6375TIP3    H219132   0.907   1.781   0.193
 6376TIP3   OH219133   2.992   4.647   5.279
 6376TIP3    H119134   3.057   4.696   5.331
 6376TIP3    H219135   3.043   4.579   5.236
 6377TIP3   OH219136   1.824   2.091   0.936
 6377TIP3    H119137   1.776   2.169   0.907
 6377TIP3    H219138   1.876   2.065   0.860
 6378TIP3   OH219139   1.208   1.874   0.243
 6378TIP3    H119140   1.156   1.902   0.318
 6378TIP3    H219141   1.290   1.842   0.281
 6379TIP3   OH219142   1.413   1.882   1.062
 6379TIP3    H119143   1.423   1.934   1.142
 6379TIP3    H219144   1.319   1.882   1.044
 6380TIP3   OH219145   0.446   1.863   0.666
 6380TIP3    H119146   0.395   1.806   0.609
 6380TIP3    H219147   0.520   1.810   0.694
 6381TIP3   OH219148   0.580   2.272   0.777
 6381TIP3    H119149   0.547   2.253   0.690
 6381TIP3    H219150   0.658   2.216   0.786
 6382TIP3   OH219151   0.565   1.834   1.017
 6382TIP3    H119152   0.596   1.805   0.931
 6382TIP3    H219153   0.613   1.915   1.034
 6383TIP3   OH219154   1.094   2.435   0.730
 6383TIP3    H119155   1.015   2.447   0.783
 6383TIP3    H219156   1.138   2.360   0.771
 6384TIP3   OH219157   1.050   1.728   0.073
 6384TIP3    H119158   1.107   1.786   0.122
 6384TIP3    H219159   1.077   1.739  -0.019
 6385TIP3   OH219160   0.782   2.402   0.350
 6385TIP3    H119161   0.869   2.440   0.337
 6385TIP3    H219162   0.725   2.451   0.291
 6386TIP3   OH219163   1.557   0.960   0.121
 6386TIP3    H119164   1.480   0.981   0.173
 6386TIP3    H219165   1.573   1.038   0.068
 6387TIP3   OH219166   0.294   1.706   0.498
 6387TIP3    H119167   0.231   1.746   0.438
 6387TIP3    H219168   0.310   1.619   0.462
 6388TIP3   OH219169   3.545   5.403   4.975
 6388TIP3    H119170   3.550   5.498   4.960
 6388TIP3    H219171   3.633   5.371   4.958
 6389TIP3   OH219172   0.660   2.626   0.152
 6389TIP3    H119173   0.619   2.607   0.067
 6389TIP3    H219174   0.626   2.713   0.175
 6390TIP3   OH219175   0.123   2.470   0.516
 6390TIP3    H119176   0.159   2.475   0.605
 6390TIP3    H219177   0.068   2.392   0.516
 6391TIP3   OH219178   3.047   5.613   5.081
 6391TIP3    H119179   3.101   5.542   5.045
 6391TIP3    H219180   3.064   5.610   5.175
 6392TIP3   OH219181   0.891   2.537   0.043
 6392TIP3    H119182   0.814   2.566   0.092
 6392TIP3    H219183   0.964   2.551   0.103
 6393TIP3   OH219184   0.698   1.096   1.137
 6393TIP3    H119185   0.612   1.064   1.110
 6393TIP3    H219186   0.681   1.181   1.177
 6394TIP3   OH219187   1.196   1.222   1.361
 6394TIP3    H119188   1.262   1.198   1.426
 6394TIP3    H219189   1.113   1.191   1.398
 6395TIP3   OH219190   1.383   1.666   1.256
 6395TIP3    H119191   1.462   1.632   1.299
 6395TIP3    H219192   1.417   1.728   1.190
 6396TIP3   OH219193   3.299   4.800   5.121
 6396TIP3    H119194   3.252   4.795   5.037
 6396TIP3    H219195   3.380   4.846   5.099
 6397TIP3   OH219196   0.838   1.135   0.123
 6397TIP3    H119197   0.802   1.141   0.212
 6397TIP3    H219198   0.798   1.056   0.086
 6398TIP3   OH219199   0.627   1.616   1.168
 6398TIP3    H119200   0.577   1.633   1.248
 6398TIP3    H219201   0.614   1.694   1.114
 6399TIP3   OH219202   0.508   1.502   0.682
 6399TIP3    H119203   0.417   1.481   0.704
 6399TIP3    H219204   0.521   1.467   0.594
 6400TIP3   OH219205   0.991   1.581   0.410
 6400TIP3    H119206   0.942   1.652   0.369
 6400TIP3    H219207   1.049   1.548   0.342
 6401TIP3   OH219208   1.148   1.596   0.639
 6401TIP3    H119209   1.084   1.620   0.573
 6401TIP3    H219210   1.193   1.520   0.602
 6402TIP3   OH219211   0.445   1.653   1.372
 6402TIP3    H119212   0.465   1.688   1.459
 6402TIP3    H219213   0.377   1.588   1.388
 6403TIP3   OH219214   0.495   1.116   0.094
 6403TIP3    H119215   0.488   1.123   0.189
 6403TIP3    H219216   0.423   1.169   0.060
 6404TIP3   OH219217   0.029   1.151   0.967
 6404TIP3    H119218   0.103   1.186   1.016
 6404TIP3    H219219   0.065   1.129   0.881
 6405TIP3   OH219220   6.476   1.140   0.473
 6405TIP3    H119221   6.519   1.175   0.395
 6405TIP3    H219222   6.414   1.209   0.498
 6406TIP3   OH219223   1.131   1.848   1.058
 6406TIP3    H119224   1.164   1.781   0.999
 6406TIP3    H219225   1.106   1.800   1.137
 6407TIP3   OH219226   0.861   1.303   0.737
 6407TIP3    H119227   0.783   1.303   0.793
 6407TIP3    H219228   0.934   1.292   0.797
 6408TIP3   OH219229   0.270   1.378   0.744
 6408TIP3    H119230   0.180   1.382   0.711
 6408TIP3    H219231   0.299   1.289   0.725
 6409TIP3   OH219232   0.527   1.380   0.439
 6409TIP3    H119233   0.621   1.392   0.423
 6409TIP3    H219234   0.486   1.395   0.354
 6410TIP3   OH219235   1.294   1.398   0.944
 6410TIP3    H119236   1.263   1.411   1.034
 6410TIP3    H219237   1.233   1.334   0.908
 6411TIP3   OH219238   0.397   1.392   0.200
 6411TIP3    H119239   0.329   1.354   0.145
 6411TIP3    H219240   0.450   1.445   0.140
 6412TIP3   OH219241   0.917   1.642   0.834
 6412TIP3    H119242   0.986   1.599   0.784
 6412TIP3    H219243   0.919   1.598   0.919
 6413TIP3   OH219244   0.423   1.135   0.721
 6413TIP3    H119245   0.392   1.059   0.771
 6413TIP3    H219246   0.452   1.100   0.637
 6414TIP3   OH219247   0.884   1.544   1.105
 6414TIP3    H119248   0.796   1.574   1.127
 6414TIP3    H219249   0.942   1.599   1.158
 6415TIP3   OH219250   0.626   1.924   0.221
 6415TIP3    H119251   0.548   1.875   0.193
 6415TIP3    H219252   0.602   1.961   0.306
 6416TIP3   OH219253   1.504   2.109   0.813
 6416TIP3    H119254   1.536   2.128   0.725
 6416TIP3    H219255   1.428   2.052   0.800
 6417TIP3   OH219256   1.089   1.239   0.113
 6417TIP3    H119257   0.996   1.219   0.113
 6417TIP3    H219258   1.094   1.333   0.129
 6418TIP3   OH219259   1.153   1.498   0.195
 6418TIP3    H119260   1.248   1.503   0.205
 6418TIP3    H219261   1.130   1.576   0.143
 6419TIP3   OH219262   0.322   1.978   0.884
 6419TIP3    H119263   0.364   1.944   0.805
 6419TIP3    H219264   0.344   1.914   0.952
 6420TIP3   OH219265   0.782   2.085   0.061
 6420TIP3    H119266   0.735   2.168   0.062
 6420TIP3    H219267   0.729   2.026   0.114
 6421TIP3   OH219268   3.741   4.656   5.330
 6421TIP3    H119269   3.688   4.607   5.267
 6421TIP3    H219270   3.743   4.745   5.295
 6422TIP3   OH219271   3.443   5.442   5.236
 6422TIP3    H119272   3.433   5.370   5.298
 6422TIP3    H219273   3.471   5.400   5.155
 6423TIP3   OH219274   1.251   2.016   0.724
 6423TIP3    H119275   1.160   1.987   0.735
 6423TIP3    H219276   1.296   1.941   0.685
 6424TIP3   OH219277   0.441   2.277   0.535
 6424TIP3    H119278   0.445   2.354   0.478
 6424TIP3    H219279   0.347   2.268   0.555
 6425TIP3   OH219280   6.497   1.560   0.237
 6425TIP3    H119281   6.547   1.639   0.257
 6425TIP3    H219282   6.421   1.565   0.294
 6426TIP3   OH219283   0.539   2.028   0.457
 6426TIP3    H119284   0.517   2.118   0.479
 6426TIP3    H219285   0.508   1.977   0.532
 6427TIP3   OH219286   0.358   2.509   0.381
 6427TIP3    H119287   0.271   2.502   0.422
 6427TIP3    H219288   0.372   2.603   0.374
 6428TIP3   OH219289   1.022   2.164   0.985
 6428TIP3    H119290   1.055   2.237   1.036
 6428TIP3    H219291   1.098   2.134   0.934
 6429TIP3   OH219292   3.229   5.200   5.144
 6429TIP3    H119293   3.273   5.181   5.227
 6429TIP3    H219294   3.141   5.164   5.156
 6430TIP3   OH219295   3.571   5.686   4.948
 6430TIP3    H119296   3.616   5.765   4.917
 6430TIP3    H219297   3.483   5.716   4.970
 6431TIP3   OH219298   1.218   2.077   0.056
 6431TIP3    H119299   1.207   2.007   0.120
 6431TIP3    H219300   1.311   2.073   0.032
 6432TIP3   OH219301   2.565   5.172   5.163
 6432TIP3    H119302   2.546   5.082   5.137
 6432TIP3    H219303   2.551   5.173   5.258
 6433TIP3   OH219304   0.354   2.139   0.131
 6433TIP3    H119305   0.435   2.111   0.172
 6433TIP3    H219306   0.358   2.234   0.132
 6434TIP3   OH219307   0.104   1.804   0.320
 6434TIP3    H119308   0.040   1.858   0.367
 6434TIP3    H219309   0.128   1.857   0.244
 6435TIP3   OH219310   1.206   1.445   1.202
 6435TIP3    H119311   1.293   1.475   1.229
 6435TIP3    H219312   1.193   1.363   1.249
 6436TIP3   OH219313   1.145   1.189   0.383
 6436TIP3    H119314   1.125   1.207   0.291
 6436TIP3    H219315   1.184   1.269   0.416
 6437TIP3   OH219316   0.636   2.313   0.065
 6437TIP3    H119317   0.549   2.343   0.093
 6437TIP3    H219318   0.667   2.382   0.006
 6438TIP3   OH219319   0.808   1.386   0.477
 6438TIP3    H119320   0.870   1.455   0.453
 6438TIP3    H219321   0.825   1.370   0.570
 6439TIP3   OH219322   1.072   1.674   1.262
 6439TIP3    H119323   1.081   1.681   1.357
 6439TIP3    H219324   1.125   1.598   1.238
 6440TIP3   OH219325   0.964   1.090   0.570
 6440TIP3    H119326   0.944   1.168   0.622
 6440TIP3    H219327   1.031   1.120   0.508
 6441TIP3   OH219328   0.386   2.409   0.128
 6441TIP3    H119329   0.361   2.480   0.069
 6441TIP3    H219330   0.376   2.446   0.216
 6442TIP3   OH219331   0.476   1.107   0.376
 6442TIP3    H119332   0.465   1.198   0.401
 6442TIP3    H219333   0.570   1.092   0.379
 6443TIP3   OH219334   1.362   1.783   0.638
 6443TIP3    H119335   1.288   1.722   0.642
 6443TIP3    H219336   1.432   1.737   0.685
 6444TIP3   OH219337   0.120   1.990   0.108
 6444TIP3    H119338   0.187   2.055   0.125
 6444TIP3    H219339   0.159   1.931   0.044
 6445TIP3   OH219340   0.031   1.286   0.250
 6445TIP3    H119341   0.041   1.381   0.253
 6445TIP3    H219342  -0.012   1.269   0.166
 6446TIP3   OH219343   1.416   2.712   0.626
 6446TIP3    H119344   1.406   2.709   0.530
 6446TIP3    H219345   1.511   2.716   0.639
 6447TIP3   OH219346   0.437   1.006   1.109
 6447TIP3    H119347   0.407   0.981   1.021
 6447TIP3    H219348   0.425   0.927   1.162
 6448TIP3   OH219349   6.442   2.244   0.489
 6448TIP3    H119350   6.372   2.266   0.551
 6448TIP3    H219351   6.416   2.289   0.408
 6449TIP3   OH219352   2.740   5.360   5.055
 6449TIP3    H119353   2.686   5.294   5.097
 6449TIP3    H219354   2.816   5.312   5.021
 6450TIP3   OH219355   3.188   5.409   4.968
 6450TIP3    H119356   3.218   5.345   5.033
 6450TIP3    H219357   3.250   5.400   4.896
 6451TIP3   OH219358   2.954   5.098   5.098
 6451TIP3    H119359   2.938   5.109   5.191
 6451TIP3    H219360   2.946   5.004   5.083
 6452TIP3   OH219361   0.548   1.534   0.023
 6452TIP3    H119362   0.500   1.602  -0.024
 6452TIP3    H219363   0.640   1.552   0.004
 6453TIP3   OH219364   3.522   4.919   5.005
 6453TIP3    H119365   3.505   4.876   4.921
 6453TIP3    H219366   3.495   5.010   4.990
 6454TIP3   OH219367   0.837   1.348   1.324
 6454TIP3    H119368   0.864   1.404   1.251
 6454TIP3    H219369   0.741   1.351   1.323
 6455TIP3   OH219370   0.891   1.940   1.229
 6455TIP3    H119371   0.956   1.941   1.160
 6455TIP3    H219372   0.816   1.986   1.192
 6456TIP3   OH219373   0.957   1.126   1.436
 6456TIP3    H119374   0.909   1.202   1.402
 6456TIP3    H219375   0.897   1.052   1.423
 6457TIP3   OH219376   2.539   5.684   5.255
 6457TIP3    H119377   2.626   5.655   5.228
 6457TIP3    H219378   2.502   5.725   5.176
 6458TIP3   OH219379   6.348   1.973   0.141
 6458TIP3    H119380   6.442   1.990   0.128
 6458TIP3    H219381   6.333   1.888   0.100
 6459TIP3   OH219382   1.483   2.061   0.008
 6459TIP3    H119383   1.554   2.119  -0.018
 6459TIP3    H219384   1.515   2.017   0.087
 6460TIP3   OH219385   1.574   1.910   0.207
 6460TIP3    H119386   1.530   1.858   0.274
 6460TIP3    H219387   1.663   1.922   0.240
 6461TIP3   OH219388   1.731   2.282   0.678
 6461TIP3    H119389   1.722   2.232   0.597
 6461TIP3    H219390   1.669   2.354   0.668
 6462TIP3   OH219391   3.725   4.891   5.185
 6462TIP3    H119392   3.656   4.889   5.119
 6462TIP3    H219393   3.705   4.968   5.239
 6463TIP3   OH219394   3.593   4.548   5.126
 6463TIP3    H119395   3.544   4.587   5.054
 6463TIP3    H219396   3.578   4.454   5.116
 6464TIP3   OH219397   1.424   1.759   0.374
 6464TIP3    H119398   1.439   1.665   0.370
 6464TIP3    H219399   1.411   1.778   0.467
 6465TIP3   OH219400   0.062   1.805   1.143
 6465TIP3    H119401   0.051   1.799   1.048
 6465TIP3    H219402   0.154   1.827   1.155
 6466TIP3   OH219403   3.543   4.278   5.104
 6466TIP3    H119404   3.608   4.250   5.168
 6466TIP3    H219405   3.462   4.234   5.131
 6467TIP3   OH219406   1.440   1.488   0.259
 6467TIP3    H119407   1.487   1.406   0.272
 6467TIP3    H219408   1.486   1.531   0.187
 6468TIP3   OH219409   1.551   1.618   0.749
 6468TIP3    H119410   1.636   1.648   0.718
 6468TIP3    H219411   1.554   1.629   0.844
 6469TIP3   OH219412   1.695   1.901   1.077
 6469TIP3    H119413   1.614   1.908   1.027
 6469TIP3    H219414   1.752   1.968   1.040
 6470TIP3   OH219415   1.554   1.236   0.306
 6470TIP3    H119416   1.597   1.224   0.390
 6470TIP3    H219417   1.490   1.166   0.300
 6471TIP3   OH219418   0.260   1.219   1.100
 6471TIP3    H119419   0.319   1.145   1.111
 6471TIP3    H219420   0.318   1.295   1.095
 6472TIP3   OH219421   0.072   1.497   1.197
 6472TIP3    H119422   0.119   1.497   1.114
 6472TIP3    H219423   0.049   1.589   1.210
 6473TIP3   OH219424   3.777   4.230   5.253
 6473TIP3    H119425   3.820   4.167   5.196
 6473TIP3    H219426   3.835   4.306   5.252
 6474TIP3   OH219427   6.530   0.998   0.698
 6474TIP3    H119428   6.441   0.988   0.732
 6474TIP3    H219429   6.520   1.055   0.622
 6475TIP3   OH219430   1.112   2.688   0.108
 6475TIP3    H119431   1.160   2.635   0.045
 6475TIP3    H219432   1.161   2.680   0.189
 6476TIP3   OH219433   1.945   1.283   1.270
 6476TIP3    H119434   1.851   1.301   1.259
 6476TIP3    H219435   1.949   1.190   1.292
 6477TIP3   OH219436   1.009   2.842   0.773
 6477TIP3    H119437   1.047   2.782   0.837
 6477TIP3    H219438   1.082   2.867   0.716
 6478TIP3   OH219439   0.262   2.459   0.751
 6478TIP3    H119440   0.271   2.391   0.817
 6478TIP3    H219441   0.346   2.505   0.751
 6479TIP3   OH219442   0.559   2.549   0.757
 6479TIP3    H119443   0.570   2.455   0.740
 6479TIP3    H219444   0.582   2.559   0.850
 6480TIP3   OH219445   1.089   1.208   0.867
 6480TIP3    H119446   1.047   1.135   0.913
 6480TIP3    H219447   1.160   1.167   0.818
 6481TIP3   OH219448   1.597   1.092   0.754
 6481TIP3    H119449   1.641   1.143   0.686
 6481TIP3    H219450   1.511   1.133   0.762
 6482TIP3   OH219451   1.720   1.186   0.530
 6482TIP3    H119452   1.792   1.132   0.499
 6482TIP3    H219453   1.743   1.275   0.504
 6483TIP3   OH219454   0.344   0.914   0.866
 6483TIP3    H119455   0.252   0.886   0.870
 6483TIP3    H219456   0.394   0.833   0.864
 6484TIP3   OH219457   0.153   0.803   0.526
 6484TIP3    H119458   0.180   0.855   0.450
 6484TIP3    H219459   0.118   0.867   0.587
 6485TIP3   OH219460   0.807   0.949   0.759
 6485TIP3    H119461   0.856   0.996   0.691
 6485TIP3    H219462   0.848   0.976   0.841
 6486TIP3   OH219463   1.309   1.097   0.744
 6486TIP3    H119464   1.327   1.065   0.656
 6486TIP3    H219465   1.312   1.018   0.799
 6487TIP3   OH219466   1.365   1.032   0.306
 6487TIP3    H119467   1.284   1.080   0.328
 6487TIP3    H219468   1.353   0.946   0.346
 6488TIP3   OH219469   6.337   2.376   0.274
 6488TIP3    H119470   6.250   2.349   0.243
 6488TIP3    H219471   6.345   2.467   0.248
 6489TIP3   OH219472   0.260   0.942   0.293
 6489TIP3    H119473   0.304   0.885   0.230
 6489TIP3    H219474   0.330   0.999   0.326
 6490TIP3   OH219475   0.752   1.134   0.387
 6490TIP3    H119476   0.813   1.084   0.442
 6490TIP3    H219477   0.766   1.225   0.411
 6491TIP3   OH219478   2.788   5.597   5.185
 6491TIP3    H119479   2.873   5.623   5.148
 6491TIP3    H219480   2.763   5.520   5.134
 6492TIP3   OH219481   3.499   5.704   5.249
 6492TIP3    H119482   3.489   5.608   5.247
 6492TIP3    H219483   3.456   5.734   5.169
 6493TIP3   OH219484   2.101   5.445   5.247
 6493TIP3    H119485   2.102   5.450   5.343
 6493TIP3    H219486   2.183   5.400   5.225
 6494TIP3   OH219487   1.811   1.677   0.160
 6494TIP3    H119488   1.803   1.771   0.180
 6494TIP3    H219489   1.724   1.652   0.129
 6495TIP3   OH219490   1.834   1.950   0.260
 6495TIP3    H119491   1.849   1.911   0.346
 6495TIP3    H219492   1.840   2.044   0.276
 6496TIP3   OH219493   2.431   1.505   0.371
 6496TIP3    H119494   2.385   1.585   0.345
 6496TIP3    H219495   2.412   1.442   0.300
 6497TIP3   OH219496   5.314   4.706   5.222
 6497TIP3    H119497   5.277   4.770   5.283
 6497TIP3    H219498   5.336   4.758   5.144
 6498TIP3   OH219499   2.005   1.764   0.404
 6498TIP3    H119500   2.055   1.841   0.376
 6498TIP3    H219501   1.997   1.711   0.325
 6499TIP3   OH219502   2.471   2.009   0.161
 6499TIP3    H119503   2.537   2.034   0.226
 6499TIP3    H219504   2.429   1.931   0.198
 6500TIP3   OH219505   2.437   1.578   0.745
 6500TIP3    H119506   2.394   1.651   0.790
 6500TIP3    H219507   2.488   1.534   0.813
 6501TIP3   OH219508   2.262   1.692   0.572
 6501TIP3    H119509   2.325   1.759   0.598
 6501TIP3    H219510   2.306   1.609   0.591
 6502TIP3   OH219511   3.845   5.280   5.211
 6502TIP3    H119512   3.813   5.304   5.124
 6502TIP3    H219513   3.874   5.363   5.249
 6503TIP3   OH219514   2.699   1.269   0.436
 6503TIP3    H119515   2.728   1.181   0.461
 6503TIP3    H219516   2.635   1.294   0.502
 6504TIP3   OH219517   4.815   5.072   5.056
 6504TIP3    H119518   4.745   5.136   5.049
 6504TIP3    H219519   4.872   5.090   4.981
 6505TIP3   OH219520   4.790   4.900   4.770
 6505TIP3    H119521   4.852   4.948   4.825
 6505TIP3    H219522   4.843   4.836   4.724
 6506TIP3   OH219523   2.234   2.120   0.043
 6506TIP3    H119524   2.198   2.043  -0.000
 6506TIP3    H219525   2.323   2.095   0.067
 6507TIP3   OH219526   5.017   5.058   4.861
 6507TIP3    H119527   5.070   5.125   4.904
 6507TIP3    H219528   5.036   5.068   4.768
 6508TIP3   OH219529   5.530   4.271   4.920
 6508TIP3    H119530   5.455   4.285   4.977
 6508TIP3    H219531   5.531   4.347   4.863
 6509TIP3   OH219532   4.254   4.998   5.179
 6509TIP3    H119533   4.176   5.049   5.154
 6509TIP3    H219534   4.222   4.938   5.246
 6510TIP3   OH219535   4.035   5.818   5.276
 6510TIP3    H119536   4.128   5.796   5.288
 6510TIP3    H219537   3.989   5.761   5.338
 6511TIP3   OH219538   4.797   5.809   4.599
 6511TIP3    H119539   4.875   5.767   4.562
 6511TIP3    H219540   4.779   5.760   4.679
 6512TIP3   OH219541   2.518   1.334   0.627
 6512TIP3    H119542   2.430   1.358   0.600
 6512TIP3    H219543   2.554   1.413   0.667
 6513TIP3   OH219544   5.092   5.090   4.606
 6513TIP3    H119545   5.053   5.065   4.522
 6513TIP3    H219546   5.180   5.121   4.583
 6514TIP3   OH219547   4.795   4.460   4.902
 6514TIP3    H119548   4.756   4.465   4.990
 6514TIP3    H219549   4.764   4.376   4.868
 6515TIP3   OH219550   2.249   1.837   0.073
 6515TIP3    H119551   2.238   1.781   0.150
 6515TIP3    H219552   2.242   1.777  -0.001
 6516TIP3   OH219553   4.979   4.880   5.164
 6516TIP3    H119554   4.915   4.944   5.135
 6516TIP3    H219555   5.029   4.858   5.085
 6517TIP3   OH219556   4.460   4.444   4.883
 6517TIP3    H119557   4.445   4.433   4.977
 6517TIP3    H219558   4.380   4.488   4.851
 6518TIP3   OH219559   1.796   1.418   0.415
 6518TIP3    H119560   1.867   1.464   0.458
 6518TIP3    H219561   1.836   1.381   0.336
 6519TIP3   OH219562   3.938   4.462   5.266
 6519TIP3    H119563   3.981   4.496   5.188
 6519TIP3    H219564   3.880   4.532   5.294
 6520TIP3   OH219565   2.629   1.668   0.280
 6520TIP3    H119566   2.563   1.615   0.324
 6520TIP3    H219567   2.655   1.615   0.205
 6521TIP3   OH219568   2.071   1.601   0.187
 6521TIP3    H119569   1.980   1.605   0.159
 6521TIP3    H219570   2.094   1.508   0.182
 6522TIP3   OH219571   4.443   4.700   5.177
 6522TIP3    H119572   4.528   4.695   5.133
 6522TIP3    H219573   4.381   4.722   5.107
 6523TIP3   OH219574   4.315   4.745   4.950
 6523TIP3    H119575   4.266   4.684   4.894
 6523TIP3    H219576   4.381   4.783   4.892
 6524TIP3   OH219577   2.227   1.366   0.215
 6524TIP3    H119578   2.184   1.286   0.245
 6524TIP3    H219579   2.278   1.339   0.138
 6525TIP3   OH219580   4.607   5.242   5.001
 6525TIP3    H119581   4.526   5.194   4.984
 6525TIP3    H219582   4.591   5.288   5.084
 6526TIP3   OH219583   5.045   4.559   4.876
 6526TIP3    H119584   4.952   4.540   4.887
 6526TIP3    H219585   5.053   4.652   4.895
 6527TIP3   OH219586   5.120   4.812   4.942
 6527TIP3    H119587   5.216   4.808   4.947
 6527TIP3    H219588   5.102   4.897   4.901
 6528TIP3   OH219589   2.159   2.289   0.364
 6528TIP3    H119590   2.186   2.234   0.290
 6528TIP3    H219591   2.193   2.244   0.441
 6529TIP3   OH219592   4.749   5.405   4.827
 6529TIP3    H119593   4.719   5.495   4.843
 6529TIP3    H219594   4.701   5.352   4.892
 6530TIP3   OH219595   5.567   4.890   4.730
 6530TIP3    H119596   5.485   4.858   4.694
 6530TIP3    H219597   5.556   4.985   4.733
 6531TIP3   OH219598   3.955   4.880   5.035
 6531TIP3    H119599   3.996   4.965   5.048
 6531TIP3    H219600   3.877   4.882   5.091
 6532TIP3   OH219601   4.583   5.379   5.235
 6532TIP3    H119602   4.567   5.465   5.195
 6532TIP3    H219603   4.535   5.382   5.318
 6533TIP3   OH219604   5.004   5.449   4.617
 6533TIP3    H119605   5.014   5.448   4.712
 6533TIP3    H219606   4.922   5.403   4.600
 6534TIP3   OH219607   4.389   5.415   4.629
 6534TIP3    H119608   4.397   5.322   4.606
 6534TIP3    H219609   4.365   5.414   4.722
 6535TIP3   OH219610   4.316   5.445   4.892
 6535TIP3    H119611   4.385   5.453   4.959
 6535TIP3    H219612   4.289   5.535   4.875
 6536TIP3   OH219613   4.040   5.134   5.097
 6536TIP3    H119614   3.977   5.174   5.156
 6536TIP3    H219615   4.060   5.203   5.033
 6537TIP3   OH219616   5.124   4.527   5.143
 6537TIP3    H119617   5.097   4.532   5.051
 6537TIP3    H219618   5.190   4.595   5.153
 6538TIP3   OH219619   4.656   5.673   4.830
 6538TIP3    H119620   4.618   5.656   4.916
 6538TIP3    H219621   4.593   5.730   4.787
 6539TIP3   OH219622   4.838   4.660   5.250
 6539TIP3    H119623   4.910   4.716   5.219
 6539TIP3    H219624   4.771   4.722   5.279
 6540TIP3   OH219625   4.941   4.364   5.271
 6540TIP3    H119626   4.977   4.363   5.360
 6540TIP3    H219627   5.004   4.417   5.221
 6541TIP3   OH219628   4.275   5.711   4.859
 6541TIP3    H119629   4.265   5.803   4.838
 6541TIP3    H219630   4.329   5.709   4.938
 6542TIP3   OH219631   4.426   4.419   5.158
 6542TIP3    H119632   4.410   4.510   5.183
 6542TIP3    H219633   4.521   4.408   5.166
 6543TIP3   OH219634   4.065   5.326   4.899
 6543TIP3    H119635   4.136   5.387   4.918
 6543TIP3    H219636   4.104   5.263   4.838
 6544TIP3   OH219637   3.994   4.605   5.040
 6544TIP3    H119638   4.008   4.700   5.045
 6544TIP3    H219639   3.917   4.595   4.984
 6545TIP3   OH219640   2.071   1.234   0.540
 6545TIP3    H119641   2.052   1.153   0.492
 6545TIP3    H219642   2.066   1.209   0.632
 6546TIP3   OH219643   3.889   5.532   5.301
 6546TIP3    H119644   3.799   5.544   5.331
 6546TIP3    H219645   3.894   5.578   5.217
 6547TIP3   OH219646   4.525   5.623   4.526
 6547TIP3    H119647   4.472   5.555   4.567
 6547TIP3    H219648   4.611   5.583   4.514
 6548TIP3   OH219649   4.992   5.678   4.461
 6548TIP3    H119650   5.022   5.607   4.518
 6548TIP3    H219651   5.047   5.671   4.384
 6549TIP3   OH219652   4.205   5.136   4.761
 6549TIP3    H119653   4.258   5.116   4.838
 6549TIP3    H219654   4.269   5.144   4.690
 6550TIP3   OH219655   4.748   5.345   4.564
 6550TIP3    H119656   4.731   5.361   4.657
 6550TIP3    H219657   4.736   5.251   4.554
 6551TIP3   OH219658   4.393   5.070   4.958
 6551TIP3    H119659   4.349   5.037   5.036
 6551TIP3    H219660   4.433   4.993   4.917
 6552TIP3   OH219661   4.516   4.867   4.810
 6552TIP3    H119662   4.488   4.876   4.719
 6552TIP3    H219663   4.611   4.875   4.807
 6553TIP3   OH219664   5.328   5.185   4.494
 6553TIP3    H119665   5.314   5.145   4.409
 6553TIP3    H219666   5.308   5.278   4.481
 6554TIP3   OH219667   4.297   5.972   4.749
 6554TIP3    H119668   4.386   5.937   4.739
 6554TIP3    H219669   4.272   6.001   4.662
 6555TIP3   OH219670   3.795   5.298   4.929
 6555TIP3    H119671   3.889   5.318   4.921
 6555TIP3    H219672   3.785   5.211   4.890
 6556TIP3   OH219673   3.734   5.846   5.282
 6556TIP3    H119674   3.646   5.812   5.273
 6556TIP3    H219675   3.770   5.800   5.358
 6557TIP3   OH219676   1.699   2.685   0.197
 6557TIP3    H119677   1.763   2.622   0.230
 6557TIP3    H219678   1.673   2.735   0.275
 6558TIP3   OH219679   5.517   5.155   4.693
 6558TIP3    H119680   5.446   5.155   4.629
 6558TIP3    H219681   5.563   5.238   4.680
 6559TIP3   OH219682   5.343   4.804   4.594
 6559TIP3    H119683   5.300   4.821   4.511
 6559TIP3    H219684   5.343   4.709   4.602
 6560TIP3   OH219685   1.877   2.051   0.681
 6560TIP3    H119686   1.908   2.031   0.593
 6560TIP3    H219687   1.881   2.146   0.687
 6561TIP3   OH219688   5.331   4.531   4.583
 6561TIP3    H119689   5.395   4.502   4.647
 6561TIP3    H219690   5.251   4.483   4.605
 6562TIP3   OH219691   5.391   4.795   4.980
 6562TIP3    H119692   5.450   4.719   4.989
 6562TIP3    H219693   5.449   4.871   4.987
 6563TIP3   OH219694   5.523   4.556   5.062
 6563TIP3    H119695   5.574   4.526   5.136
 6563TIP3    H219696   5.446   4.498   5.060
 6564TIP3   OH219697   2.002   1.501   0.568
 6564TIP3    H119698   2.025   1.408   0.571
 6564TIP3    H219699   2.083   1.545   0.543
 6565TIP3   OH219700   1.815   1.650   0.697
 6565TIP3    H119701   1.886   1.611   0.645
 6565TIP3    H219702   1.860   1.710   0.757
 6566TIP3   OH219703   5.556   4.471   4.734
 6566TIP3    H119704   5.599   4.406   4.678
 6566TIP3    H219705   5.618   4.544   4.737
 6567TIP3   OH219706   1.820   1.253   0.185
 6567TIP3    H119707   1.731   1.241   0.216
 6567TIP3    H219708   1.811   1.309   0.107
 6568TIP3   OH219709   2.013   1.452   1.056
 6568TIP3    H119710   2.003   1.374   1.111
 6568TIP3    H219711   1.947   1.441   0.988
 6569TIP3   OH219712   2.854   1.322   0.222
 6569TIP3    H119713   2.796   1.323   0.298
 6569TIP3    H219714   2.889   1.410   0.216
 6570TIP3   OH219715   2.118   1.127   0.275
 6570TIP3    H119716   2.029   1.101   0.300
 6570TIP3    H219717   2.172   1.053   0.302
 6571TIP3   OH219718   1.930   1.056   0.007
 6571TIP3    H119719   1.964   1.106  -0.067
 6571TIP3    H219720   1.905   1.121   0.072
 6572TIP3   OH219721   2.510   1.177   0.257
 6572TIP3    H119722   2.528   1.252   0.201
 6572TIP3    H219723   2.580   1.177   0.321
 6573TIP3   OH219724   3.108   1.256   0.109
 6573TIP3    H119725   3.107   1.351   0.097
 6573TIP3    H219726   3.041   1.239   0.175
 6574TIP3   OH219727   5.334   4.353   5.093
 6574TIP3    H119728   5.252   4.399   5.114
 6574TIP3    H219729   5.327   4.270   5.141
 6575TIP3   OH219730   3.823   5.670   5.068
 6575TIP3    H119731   3.734   5.663   5.033
 6575TIP3    H219732   3.822   5.751   5.120
 6576TIP3   OH219733   4.214   4.257   5.084
 6576TIP3    H119734   4.260   4.195   5.026
 6576TIP3    H219735   4.283   4.312   5.119
 6577TIP3   OH219736   4.699   4.443   5.159
 6577TIP3    H119737   4.753   4.368   5.184
 6577TIP3    H219738   4.748   4.519   5.189
 6578TIP3   OH219739   4.533   5.864   4.660
 6578TIP3    H119740   4.624   5.882   4.636
 6578TIP3    H219741   4.509   5.788   4.607
 6579TIP3   OH219742   3.879   5.700   4.753
 6579TIP3    H119743   3.885   5.698   4.849
 6579TIP3    H219744   3.962   5.662   4.723
 6580TIP3   OH219745   6.284   4.706   4.383
 6580TIP3    H119746   6.290   4.716   4.478
 6580TIP3    H219747   6.212   4.764   4.357
 6581TIP3   OH219748   5.737   4.681   4.742
 6581TIP3    H119749   5.785   4.700   4.661
 6581TIP3    H219750   5.678   4.756   4.753
 6582TIP3   OH219751   5.776   4.826   4.508
 6582TIP3    H119752   5.736   4.892   4.565
 6582TIP3    H219753   5.707   4.802   4.447
 6583TIP3   OH219754   5.784   4.538   4.964
 6583TIP3    H119755   5.695   4.521   4.995
 6583TIP3    H219756   5.773   4.599   4.891
 6584TIP3   OH219757   5.882   4.359   4.782
 6584TIP3    H119758   5.900   4.417   4.707
 6584TIP3    H219759   5.855   4.419   4.852
 6585TIP3   OH219760   5.980   4.522   4.562
 6585TIP3    H119761   6.031   4.460   4.510
 6585TIP3    H219762   6.045   4.571   4.612
 6586TIP3   OH219763   5.903   2.511   0.280
 6586TIP3    H119764   5.810   2.517   0.304
 6586TIP3    H219765   5.925   2.599   0.249
 6587TIP3   OH219766   1.407   5.809   5.241
 6587TIP3    H119767   1.457   5.815   5.322
 6587TIP3    H219768   1.316   5.793   5.269
 6588TIP3   OH219769   5.990   2.711   0.083
 6588TIP3    H119770   6.005   2.633   0.030
 6588TIP3    H219771   6.011   2.784   0.025
 6589TIP3   OH219772   0.943   3.155   0.103
 6589TIP3    H119773   0.900   3.193   0.180
 6589TIP3    H219774   0.940   3.224   0.037
 6590TIP3   OH219775   1.078   3.209   0.393
 6590TIP3    H119776   1.124   3.133   0.430
 6590TIP3    H219777   1.116   3.219   0.306
 6591TIP3   OH219778   0.461   2.771   0.621
 6591TIP3    H119779   0.499   2.691   0.658
 6591TIP3    H219780   0.484   2.840   0.683
 6592TIP3   OH219781   4.823   0.257   4.973
 6592TIP3    H119782   4.853   0.341   5.006
 6592TIP3    H219783   4.892   0.228   4.913
 6593TIP3   OH219784   5.187   0.609   5.242
 6593TIP3    H119785   5.140   0.656   5.311
 6593TIP3    H219786   5.234   0.540   5.288
 6594TIP3   OH219787   5.062   0.447   5.044
 6594TIP3    H119788   5.089   0.523   5.095
 6594TIP3    H219789   5.062   0.477   4.954
 6595TIP3   OH219790   3.354   5.831   5.052
 6595TIP3    H119791   3.271   5.848   5.096
 6595TIP3    H219792   3.372   5.911   5.003
 6596TIP3   OH219793   5.059   0.514   4.783
 6596TIP3    H119794   5.046   0.459   4.706
 6596TIP3    H219795   5.146   0.552   4.771
 6597TIP3   OH219796   2.634   6.020   5.065
 6597TIP3    H119797   2.601   6.030   5.154
 6597TIP3    H219798   2.601   5.934   5.037
 6598TIP3   OH219799   4.916   0.339   5.289
 6598TIP3    H119800   4.899   0.398   5.215
 6598TIP3    H219801   4.996   0.292   5.264
 6599TIP3   OH219802   2.302   5.991   5.034
 6599TIP3    H119803   2.291   5.995   5.129
 6599TIP3    H219804   2.223   6.033   4.999
 6600TIP3   OH219805   0.207   3.252   0.010
 6600TIP3    H119806   0.294   3.256   0.047
 6600TIP3    H219807   0.171   3.168   0.040
 6601TIP3   OH219808   4.297   0.132   5.145
 6601TIP3    H119809   4.224   0.101   5.199
 6601TIP3    H219810   4.282   0.091   5.060
 6602TIP3   OH219811   0.132   2.867   0.275
 6602TIP3    H119812   0.079   2.812   0.333
 6602TIP3    H219813   0.222   2.850   0.301
 6603TIP3   OH219814   5.053  -0.017   5.038
 6603TIP3    H119815   4.959  -0.033   5.045
 6603TIP3    H219816   5.064   0.073   5.070
 6604TIP3   OH219817   5.132   0.216   5.155
 6604TIP3    H119818   5.228   0.218   5.155
 6604TIP3    H219819   5.106   0.295   5.107
 6605TIP3   OH219820   5.550   0.308   4.963
 6605TIP3    H119821   5.488   0.274   4.899
 6605TIP3    H219822   5.576   0.393   4.927
 6606TIP3   OH219823   5.250   0.801   5.059
 6606TIP3    H119824   5.216   0.733   5.117
 6606TIP3    H219825   5.315   0.757   5.005
 6607TIP3   OH219826   2.924   6.045   5.309
 6607TIP3    H119827   2.909   6.071   5.218
 6607TIP3    H219828   2.986   6.109   5.343
 6608TIP3   OH219829   0.462   3.209   0.129
 6608TIP3    H119830   0.507   3.277   0.079
 6608TIP3    H219831   0.499   3.215   0.217
 6609TIP3   OH219832   0.591   2.893   0.202
 6609TIP3    H119833   0.652   2.885   0.275
 6609TIP3    H219834   0.643   2.933   0.132
 6610TIP3   OH219835   0.115   2.913   0.005
 6610TIP3    H119836   0.099   2.900   0.098
 6610TIP3    H219837   0.211   2.921  -0.002
 6611TIP3   OH219838   4.035   0.050   5.222
 6611TIP3    H119839   4.010   0.102   5.146
 6611TIP3    H219840   3.952   0.015   5.256
 6612TIP3   OH219841   4.551   0.236   5.008
 6612TIP3    H119842   4.521   0.237   4.917
 6612TIP3    H219843   4.646   0.233   5.001
 6613TIP3   OH219844   5.306   0.564   4.666
 6613TIP3    H119845   5.344   0.538   4.582
 6613TIP3    H219846   5.334   0.655   4.677
 6614TIP3   OH219847   5.470   0.755   4.912
 6614TIP3    H119848   5.497   0.822   4.849
 6614TIP3    H219849   5.506   0.784   4.995
 6615TIP3   OH219850   5.554   0.528   4.801
 6615TIP3    H119851   5.475   0.498   4.758
 6615TIP3    H219852   5.527   0.607   4.848
 6616TIP3   OH219853   5.386   0.240   4.756
 6616TIP3    H119854   5.339   0.267   4.678
 6616TIP3    H219855   5.376   0.145   4.759
 6617TIP3   OH219856   1.017   3.504   0.060
 6617TIP3    H119857   1.036   3.427   0.007
 6617TIP3    H219858   1.095   3.558   0.053
 6618TIP3   OH219859   3.180   6.100   4.753
 6618TIP3    H119860   3.249   6.065   4.809
 6618TIP3    H219861   3.104   6.045   4.772
 6619TIP3   OH219862   5.400   0.232   5.184
 6619TIP3    H119863   5.436   0.146   5.204
 6619TIP3    H219864   5.456   0.266   5.114
 6620TIP3   OH219865   3.343   6.108   5.226
 6620TIP3    H119866   3.400   6.061   5.287
 6620TIP3    H219867   3.267   6.050   5.214
 6621TIP3   OH219868   3.419   6.045   4.891
 6621TIP3    H119869   3.458   5.977   4.835
 6621TIP3    H219870   3.485   6.114   4.893
 6622TIP3   OH219871   0.837   3.078   0.485
 6622TIP3    H119872   0.804   2.990   0.466
 6622TIP3    H219873   0.907   3.091   0.421
 6623TIP3   OH219874   1.239   2.992   0.430
 6623TIP3    H119875   1.324   2.985   0.386
 6623TIP3    H219876   1.186   2.924   0.390
 6624TIP3   OH219877   1.462   3.013   0.269
 6624TIP3    H119878   1.409   2.975   0.199
 6624TIP3    H219879   1.490   3.098   0.235
 6625TIP3   OH219880   6.282   2.614   0.141
 6625TIP3    H119881   6.323   2.657   0.066
 6625TIP3    H219882   6.209   2.670   0.165
 6626TIP3   OH219883   0.383   2.789   0.360
 6626TIP3    H119884   0.457   2.827   0.313
 6626TIP3    H219885   0.410   2.789   0.452
 6627TIP3   OH219886   1.008   2.856   0.328
 6627TIP3    H119887   1.035   2.815   0.246
 6627TIP3    H219888   1.026   2.789   0.395
 6628TIP3   OH219889   3.152   5.909   5.226
 6628TIP3    H119890   3.063   5.938   5.247
 6628TIP3    H219891   3.170   5.841   5.291
 6629TIP3   OH219892   2.066   5.814   5.227
 6629TIP3    H119893   2.111   5.752   5.170
 6629TIP3    H219894   2.135   5.871   5.260
 6630TIP3   OH219895   0.384   2.966   0.021
 6630TIP3    H119896   0.430   2.900   0.073
 6630TIP3    H219897   0.413   3.049   0.058
 6631TIP3   OH219898   5.774   0.461   5.089
 6631TIP3    H119899   5.762   0.507   5.172
 6631TIP3    H219900   5.738   0.374   5.104
 6632TIP3   OH219901   0.105   0.149   4.513
 6632TIP3    H119902   0.076   0.180   4.599
 6632TIP3    H219903   0.062   0.064   4.502
 6633TIP3   OH219904   6.250   0.123   4.508
 6633TIP3    H119905   6.244   0.105   4.602
 6633TIP3    H219906   6.192   0.198   4.495
 6634TIP3   OH219907   1.520   3.229   0.123
 6634TIP3    H119908   1.599   3.283   0.129
 6634TIP3    H219909   1.538   3.168   0.052
 6635TIP3   OH219910   5.762   0.137   4.909
 6635TIP3    H119911   5.801   0.169   4.827
 6635TIP3    H219912   5.693   0.200   4.930
 6636TIP3   OH219913   6.121   0.338   4.647
 6636TIP3    H119914   6.029   0.327   4.622
 6636TIP3    H219915   6.158   0.395   4.580
 6637TIP3   OH219916   5.804   0.545   4.698
 6637TIP3    H119917   5.867   0.586   4.758
 6637TIP3    H219918   5.722   0.544   4.747
 6638TIP3   OH219919   6.238   0.087   4.782
 6638TIP3    H119920   6.236   0.179   4.808
 6638TIP3    H219921   6.302   0.047   4.841
 6639TIP3   OH219922   5.809   0.273   4.674
 6639TIP3    H119923   5.813   0.368   4.687
 6639TIP3    H219924   5.736   0.260   4.613
 6640TIP3   OH219925   6.024   0.758   4.345
 6640TIP3    H119926   6.027   0.727   4.436
 6640TIP3    H219927   6.056   0.848   4.350
 6641TIP3   OH219928   6.242   0.484   4.449
 6641TIP3    H119929   6.234   0.471   4.354
 6641TIP3    H219930   6.299   0.560   4.458
 6642TIP3   OH219931   5.786   0.016   5.153
 6642TIP3    H119932   5.712  -0.045   5.142
 6642TIP3    H219933   5.803   0.048   5.065
 6643TIP3   OH219934   3.908   6.062   5.153
 6643TIP3    H119935   3.828   6.042   5.201
 6643TIP3    H219936   3.967   5.989   5.173
 6644TIP3   OH219937   3.708   5.939   4.929
 6644TIP3    H119938   3.751   5.978   4.853
 6644TIP3    H219939   3.752   5.978   5.004
 6645TIP3   OH219940   3.849   6.066   4.716
 6645TIP3    H119941   3.892   6.001   4.660
 6645TIP3    H219942   3.920   6.122   4.747
   6.50000   6.12826   5.30723   0.00000   0.00000  -2.16667   0.00000  -2.16667  -3.06413
