Generated by CHARMM-GUI FF-Converter
19942
    1ASP      N    1   4.294   3.515   2.912
    1ASP    HT1    2   4.372   3.468   2.859
    1ASP    HT2    3   4.329   3.608   2.942
    1ASP    HT3    4   4.213   3.531   2.846
    1ASP     CA    5   4.243   3.442   3.027
    1ASP     HA    6   4.328   3.400   3.080
    1ASP     CB    7   4.165   3.535   3.120
    1ASP    HB1    8   4.071   3.570   3.073
    1ASP    HB2    9   4.225   3.625   3.146
    1ASP     CG   10   4.129   3.471   3.253
    1ASP    OD1   11   4.221   3.428   3.327
    1ASP    OD2   12   4.008   3.462   3.284
    1ASP      C   13   4.154   3.325   2.984
    1ASP      O   14   4.065   3.343   2.901
    2ALA      N   15   4.207   3.211   2.963
    2ALA     HN   16   4.289   3.179   3.009
    2ALA     CA   17   4.135   3.116   2.879
    2ALA     HA   18   4.116   3.157   2.781
    2ALA     CB   19   4.219   2.990   2.858
    2ALA    HB1   20   4.232   2.934   2.953
    2ALA    HB2   21   4.319   3.017   2.817
    2ALA    HB3   22   4.170   2.922   2.785
    2ALA      C   23   4.000   3.079   2.940
    2ALA      O   24   3.908   3.039   2.868
    3ASP      N   25   3.969   3.115   3.060
    3ASP     HN   26   4.033   3.158   3.123
    3ASP     CA   27   3.834   3.098   3.113
    3ASP     HA   28   3.774   3.034   3.049
    3ASP     CB   29   3.838   3.033   3.251
    3ASP    HB1   30   3.738   3.037   3.299
    3ASP    HB2   31   3.910   3.090   3.313
    3ASP     CG   32   3.879   2.887   3.247
    3ASP    OD1   33   3.857   2.820   3.143
    3ASP    OD2   34   3.934   2.838   3.348
    3ASP      C   35   3.760   3.231   3.119
    3ASP      O   36   3.790   3.315   3.204
    4GLY      N   37   3.808   3.326   3.027
    4GLY     HN   38   3.887   3.310   2.969
    4GLY     CA   39   3.721   3.441   3.009
    4GLY    HA1   40   3.672   3.427   2.914
    4GLY    HA2   41   3.788   3.525   3.015
    4GLY      C   42   3.616   3.455   3.118
    4GLY      O   43   3.605   3.368   3.205
    5PRO      N   44   3.571   3.558   3.162
    5PRO     CD   45   3.552   3.627   3.042
    5PRO    HD1   46   3.518   3.573   2.947
    5PRO    HD2   47   3.641   3.691   3.020
    5PRO     CA   48   3.465   3.581   3.261
    5PRO     HA   49   3.510   3.588   3.359
    5PRO     CB   50   3.398   3.710   3.211
    5PRO    HB1   51   3.444   3.795   3.266
    5PRO    HB2   52   3.288   3.712   3.226
    5PRO     CG   53   3.436   3.719   3.067
    5PRO    HG1   54   3.348   3.685   3.006
    5PRO    HG2   55   3.459   3.824   3.037
    5PRO      C   56   3.364   3.466   3.267
    5PRO      O   57   3.335   3.403   3.165
    6GLY      N   58   3.372   3.377   3.359
    6GLY     HN   59   3.454   3.384   3.415
    6GLY     CA   60   3.277   3.276   3.402
    6GLY    HA1   61   3.275   3.277   3.510
    6GLY    HA2   62   3.307   3.182   3.359
    6GLY      C   63   3.135   3.304   3.354
    6GLY      O   64   3.102   3.417   3.321
    7ASP      N   65   3.047   3.177   3.299
    7ASP     HN   66   3.086   3.085   3.303
    7ASP     CA   67   2.910   3.180   3.250
    7ASP     HA   68   2.909   3.245   3.164
    7ASP     CB   69   2.866   3.040   3.205
    7ASP    HB1   70   2.864   2.972   3.290
    7ASP    HB2   71   2.939   3.000   3.132
    7ASP     CG   72   2.731   3.040   3.135
    7ASP    OD1   73   2.668   3.148   3.124
    7ASP    OD2   74   2.687   2.932   3.092
    7ASP      C   75   2.815   3.233   3.357
    7ASP      O   76   2.801   3.174   3.464
    8PRO      N   77   2.777   3.381   3.347
    8PRO     CD   78   2.804   3.464   3.248
    8PRO    HD1   79   2.765   3.418   3.154
    8PRO    HD2   80   2.911   3.484   3.234
    8PRO     CA   81   2.689   3.431   3.453
    8PRO     HA   82   2.747   3.433   3.544
    8PRO     CB   83   2.646   3.569   3.401
    8PRO    HB1   84   2.668   3.647   3.477
    8PRO    HB2   85   2.538   3.572   3.375
    8PRO     CG   86   2.729   3.590   3.278
    8PRO    HG1   87   2.664   3.619   3.192
    8PRO    HG2   88   2.802   3.673   3.295
    8PRO      C   89   2.568   3.342   3.477
    8PRO      O   90   2.508   3.347   3.585
    9ASP      N   91   2.538   3.264   3.388
    9ASP     HN   92   2.586   3.258   3.300
    9ASP     CA   93   2.414   3.186   3.398
    9ASP     HA   94   2.346   3.228   3.470
    9ASP     CB   95   2.341   3.184   3.264
    9ASP    HB1   96   2.252   3.118   3.268
    9ASP    HB2   97   2.409   3.145   3.185
    9ASP     CG   98   2.292   3.321   3.220
    9ASP    OD1   99   2.303   3.417   3.299
    9ASP    OD2  100   2.243   3.332   3.106
    9ASP      C  101   2.443   3.044   3.445
    9ASP      O  102   2.351   2.965   3.464
   10ALA      N  103   2.582   3.011   3.464
   10ALA     HN  104   2.657   3.076   3.454
   10ALA     CA  105   2.610   2.873   3.504
   10ALA     HA  106   2.561   2.807   3.433
   10ALA     CB  107   2.760   2.848   3.505
   10ALA    HB1  108   2.814   2.934   3.551
   10ALA    HB2  109   2.797   2.830   3.403
   10ALA    HB3  110   2.785   2.757   3.564
   10ALA      C  111   2.549   2.842   3.640
   10ALA      O  112   2.578   2.911   3.739
   11GLY      N  113   2.444   2.865   3.705
   11GLY     HN  114   2.388   2.922   3.647
   11GLY     CA  115   2.360   2.804   3.807
   11GLY    HA1  116   2.342   2.878   3.883
   11GLY    HA2  117   2.410   2.716   3.844
   11GLY      C  118   2.225   2.759   3.754
   11GLY    OT1  119   2.200   2.778   3.631
   11GLY    OT2  120   2.145   2.706   3.834
   12LIT    LIT  121   1.057   3.275   1.376
   13LIT    LIT  122   5.472   5.392   3.183
   14LIT    LIT  123   2.151   3.380   4.892
   15LIT    LIT  124   4.948   2.166   5.207
   16LIT    LIT  125   4.896   0.348   2.986
   17LIT    LIT  126   4.999   4.186   3.838
   18LIT    LIT  127   3.895   4.781   0.691
   19LIT    LIT  128   1.365   3.192   3.768
   20LIT    LIT  129   5.390   2.784   4.233
   21LIT    LIT  130   6.676   4.072   3.863
   22LIT    LIT  131   4.891   5.857   3.980
   23LIT    LIT  132   2.328   6.395   5.172
   24LIT    LIT  133   6.440   1.767   4.802
   25LIT    LIT  134   0.470   1.890   4.141
   26LIT    LIT  135   1.137   4.571   5.843
   27LIT    LIT  136   2.815   6.022   1.555
   28LIT    LIT  137   3.452   2.178   3.349
   29LIT    LIT  138   1.368   0.750   4.178
   30LIT    LIT  139   3.114   2.728   5.879
   31LIT    LIT  140   2.333   3.809   4.036
   32LIT    LIT  141   2.335   3.946  -0.149
   33LIT    LIT  142   4.189   0.659   2.295
   34CLA    CLA  143   5.233   4.964   3.893
   35CLA    CLA  144   4.595   3.764   6.131
   36CLA    CLA  145   1.435   4.823   1.664
   37CLA    CLA  146   3.254   0.269   5.269
   38CLA    CLA  147   1.262   1.270   4.475
   39CLA    CLA  148   3.315   6.133   0.974
   40CLA    CLA  149   0.924   2.189   3.644
   41CLA    CLA  150   6.411   1.980   4.883
   42CLA    CLA  151   5.561   4.078   0.958
   43CLA    CLA  152   4.473   5.582   5.085
   44CLA    CLA  153   5.512   4.923   2.718
   45CLA    CLA  154   4.636   6.337   1.629
   46CLA    CLA  155   0.555   3.214   5.196
   47CLA    CLA  156   2.155   3.460   4.704
   48CLA    CLA  157   1.262   2.726   0.385
   49CLA    CLA  158   4.724   4.023   2.847
   50CLA    CLA  159   5.596   2.622   4.606
   51CLA    CLA  160   2.454   4.891   5.240
   52TIP3   OH2  161   1.569   0.583   2.289
   52TIP3    H1  162   1.541   0.493   2.266
   52TIP3    H2  163   1.488   0.615   2.334
   53TIP3   OH2  164   1.277   0.912   2.377
   53TIP3    H1  165   1.273   0.946   2.286
   53TIP3    H2  166   1.346   0.969   2.415
   54TIP3   OH2  167   1.409   0.704   2.082
   54TIP3    H1  168   1.380   0.620   2.043
   54TIP3    H2  169   1.492   0.675   2.123
   55TIP3   OH2  170   1.442   0.379   2.620
   55TIP3    H1  171   1.375   0.393   2.691
   55TIP3    H2  172   1.490   0.465   2.626
   56TIP3   OH2  173   1.303   0.641   2.384
   56TIP3    H1  174   1.214   0.632   2.346
   56TIP3    H2  175   1.307   0.739   2.387
   57TIP3   OH2  176   2.827   0.315   1.218
   57TIP3    H1  177   2.831   0.266   1.302
   57TIP3    H2  178   2.854   0.404   1.247
   58TIP3   OH2  179   2.477   0.801   1.217
   58TIP3    H1  180   2.520   0.727   1.169
   58TIP3    H2  181   2.437   0.755   1.292
   59TIP3   OH2  182   2.411   0.232   1.633
   59TIP3    H1  183   2.403   0.225   1.536
   59TIP3    H2  184   2.500   0.269   1.642
   60TIP3   OH2  185   3.407  -0.401   1.554
   60TIP3    H1  186   3.425  -0.321   1.609
   60TIP3    H2  187   3.381  -0.358   1.470
   61TIP3   OH2  188   3.449  -0.196   1.726
   61TIP3    H1  189   3.365  -0.146   1.734
   61TIP3    H2  190   3.497  -0.170   1.807
   62TIP3   OH2  191   2.241   0.171   1.839
   62TIP3    H1  192   2.175   0.242   1.848
   62TIP3    H2  193   2.290   0.199   1.758
   63TIP3   OH2  194   2.072   0.384   1.892
   63TIP3    H1  195   2.048   0.475   1.867
   63TIP3    H2  196   1.991   0.357   1.941
   64TIP3   OH2  197   2.908   0.580   1.362
   64TIP3    H1  198   2.820   0.570   1.406
   64TIP3    H2  199   2.898   0.670   1.323
   65TIP3   OH2  200   2.609   0.623   1.054
   65TIP3    H1  201   2.665   0.544   1.052
   65TIP3    H2  202   2.658   0.684   0.994
   66TIP3   OH2  203   3.134   0.492   1.718
   66TIP3    H1  204   3.118   0.414   1.660
   66TIP3    H2  205   3.111   0.566   1.657
   67TIP3   OH2  206   3.325   0.128   1.558
   67TIP3    H1  207   3.243   0.182   1.564
   67TIP3    H2  208   3.354   0.153   1.467
   68TIP3   OH2  209   3.004   0.022   1.864
   68TIP3    H1  210   2.996   0.106   1.913
   68TIP3    H2  211   2.915   0.017   1.822
   69TIP3   OH2  212   2.676   0.571   1.495
   69TIP3    H1  213   2.653   0.654   1.541
   69TIP3    H2  214   2.653   0.503   1.560
   70TIP3   OH2  215   2.280   0.488   2.042
   70TIP3    H1  216   2.218   0.549   2.087
   70TIP3    H2  217   2.217   0.436   1.987
   71TIP3   OH2  218   2.025   0.055   2.132
   71TIP3    H1  219   2.024   0.139   2.182
   71TIP3    H2  220   1.961   0.000   2.180
   72TIP3   OH2  221   2.074   0.654   2.132
   72TIP3    H1  222   2.043   0.663   2.041
   72TIP3    H2  223   1.991   0.635   2.181
   73TIP3   OH2  224   3.371   0.843   1.767
   73TIP3    H1  225   3.369   0.746   1.781
   73TIP3    H2  226   3.286   0.868   1.811
   74TIP3   OH2  227   2.476   0.620   1.899
   74TIP3    H1  228   2.470   0.714   1.928
   74TIP3    H2  229   2.403   0.580   1.951
   75TIP3   OH2  230   3.264  -0.030   2.047
   75TIP3    H1  231   3.177  -0.019   2.004
   75TIP3    H2  232   3.280  -0.126   2.035
   76TIP3   OH2  233   1.855   0.369   2.062
   76TIP3    H1  234   1.916   0.362   2.137
   76TIP3    H2  235   1.780   0.316   2.097
   77TIP3   OH2  236   3.025  -0.231   1.974
   77TIP3    H1  237   2.973  -0.234   2.058
   77TIP3    H2  238   2.999  -0.145   1.937
   78TIP3   OH2  239   2.744  -0.028   2.178
   78TIP3    H1  240   2.715  -0.093   2.245
   78TIP3    H2  241   2.837  -0.014   2.206
   79TIP3   OH2  242   2.757  -0.044   1.767
   79TIP3    H1  243   2.743  -0.116   1.705
   79TIP3    H2  244   2.713  -0.081   1.846
   80TIP3   OH2  245   3.066   1.184   1.866
   80TIP3    H1  246   3.059   1.211   1.772
   80TIP3    H2  247   3.143   1.236   1.896
   81TIP3   OH2  248   2.015   0.299   2.284
   81TIP3    H1  249   2.095   0.327   2.333
   81TIP3    H2  250   1.947   0.307   2.353
   82TIP3   OH2  251   3.095   0.276   1.549
   82TIP3    H1  252   3.119   0.330   1.470
   82TIP3    H2  253   3.011   0.235   1.520
   83TIP3   OH2  254   2.609   0.370   1.919
   83TIP3    H1  255   2.603   0.329   2.006
   83TIP3    H2  256   2.556   0.451   1.928
   84TIP3   OH2  257   2.496   0.097   2.230
   84TIP3    H1  258   2.434   0.050   2.172
   84TIP3    H2  259   2.581   0.068   2.192
   85TIP3   OH2  260   2.755   0.619   1.816
   85TIP3    H1  261   2.658   0.614   1.829
   85TIP3    H2  262   2.780   0.672   1.895
   86TIP3   OH2  263   3.384   0.554   1.804
   86TIP3    H1  264   3.286   0.547   1.796
   86TIP3    H2  265   3.409   0.522   1.714
   87TIP3   OH2  266   2.868   0.146   1.459
   87TIP3    H1  267   2.788   0.127   1.510
   87TIP3    H2  268   2.891   0.056   1.426
   88TIP3   OH2  269   2.262   0.698   1.706
   88TIP3    H1  270   2.295   0.762   1.641
   88TIP3    H2  271   2.345   0.663   1.743
   89TIP3   OH2  272   2.668   0.333   1.658
   89TIP3    H1  273   2.646   0.347   1.753
   89TIP3    H2  274   2.761   0.309   1.666
   90TIP3   OH2  275   2.896   0.871   1.701
   90TIP3    H1  276   2.815   0.816   1.697
   90TIP3    H2  277   2.877   0.936   1.630
   91TIP3   OH2  278   1.740   0.557   1.880
   91TIP3    H1  279   1.770   0.481   1.934
   91TIP3    H2  280   1.770   0.631   1.933
   92TIP3   OH2  281   1.568   5.792   0.668
   92TIP3    H1  282   1.634   5.849   0.627
   92TIP3    H2  283   1.622   5.717   0.698
   93TIP3   OH2  284   2.676  -0.203   1.974
   93TIP3    H1  285   2.684  -0.139   2.048
   93TIP3    H2  286   2.724  -0.280   2.007
   94TIP3   OH2  287   3.286  -0.303   1.946
   94TIP3    H1  288   3.191  -0.280   1.944
   94TIP3    H2  289   3.301  -0.331   1.854
   95TIP3   OH2  290   2.926  -0.109   1.370
   95TIP3    H1  291   2.854  -0.176   1.365
   95TIP3    H2  292   3.001  -0.162   1.405
   96TIP3   OH2  293   2.916   0.851   1.294
   96TIP3    H1  294   2.872   0.895   1.217
   96TIP3    H2  295   3.010   0.868   1.272
   97TIP3   OH2  296   1.693   0.891   2.272
   97TIP3    H1  297   1.777   0.895   2.323
   97TIP3    H2  298   1.677   0.795   2.272
   98TIP3   OH2  299   2.163   0.835   2.323
   98TIP3    H1  300   2.258   0.823   2.326
   98TIP3    H2  301   2.139   0.773   2.251
   99TIP3   OH2  302   2.806   0.750   2.051
   99TIP3    H1  303   2.800   0.680   2.120
   99TIP3    H2  304   2.880   0.804   2.083
  100TIP3   OH2  305   1.814   0.274   2.488
  100TIP3    H1  306   1.856   0.186   2.474
  100TIP3    H2  307   1.733   0.245   2.532
  101TIP3   OH2  308   2.422   0.373   2.249
  101TIP3    H1  309   2.377   0.393   2.164
  101TIP3    H2  310   2.451   0.280   2.237
  102TIP3   OH2  311   2.914   0.379   1.850
  102TIP3    H1  312   2.985   0.433   1.811
  102TIP3    H2  313   2.840   0.443   1.850
  103TIP3   OH2  314   1.926   0.021   2.465
  103TIP3    H1  315   1.988  -0.045   2.433
  103TIP3    H2  316   1.967   0.047   2.551
  104TIP3   OH2  317   2.260  -0.092   2.113
  104TIP3    H1  318   2.177  -0.039   2.107
  104TIP3    H2  319   2.311  -0.058   2.037
  105TIP3   OH2  320   2.789   0.308   2.253
  105TIP3    H1  321   2.858   0.266   2.200
  105TIP3    H2  322   2.778   0.245   2.326
  106TIP3   OH2  323   2.391  -0.268   2.264
  106TIP3    H1  324   2.342  -0.350   2.247
  106TIP3    H2  325   2.342  -0.204   2.206
  107TIP3   OH2  326   2.438   0.026   1.946
  107TIP3    H1  327   2.479  -0.004   1.864
  107TIP3    H2  328   2.367   0.085   1.909
  108TIP3   OH2  329   2.996  -0.012   2.293
  108TIP3    H1  330   3.030  -0.083   2.351
  108TIP3    H2  331   3.077   0.032   2.265
  109TIP3   OH2  332   3.042   0.243   2.044
  109TIP3    H1  333   2.984   0.297   1.986
  109TIP3    H2  334   3.129   0.263   2.004
  110TIP3   OH2  335   2.276  -0.169   2.499
  110TIP3    H1  336   2.201  -0.231   2.508
  110TIP3    H2  337   2.310  -0.192   2.410
  111TIP3   OH2  338   2.658  -0.236   2.328
  111TIP3    H1  339   2.645  -0.244   2.426
  111TIP3    H2  340   2.564  -0.245   2.303
  112TIP3   OH2  341   2.895  -0.316   2.204
  112TIP3    H1  342   2.814  -0.287   2.251
  112TIP3    H2  343   2.927  -0.383   2.268
  113TIP3   OH2  344   2.079  -0.353   2.539
  113TIP3    H1  345   2.072  -0.430   2.480
  113TIP3    H2  346   2.122  -0.392   2.616
  114TIP3   OH2  347   3.176   0.927   1.257
  114TIP3    H1  348   3.193   0.964   1.346
  114TIP3    H2  349   3.228   0.985   1.201
  115TIP3   OH2  350   3.195   0.958   1.537
  115TIP3    H1  351   3.148   0.872   1.534
  115TIP3    H2  352   3.267   0.935   1.597
  116TIP3   OH2  353   3.247   0.634   2.112
  116TIP3    H1  354   3.173   0.644   2.175
  116TIP3    H2  355   3.286   0.724   2.114
  117TIP3   OH2  356   3.191  -0.018   0.909
  117TIP3    H1  357   3.118  -0.020   0.975
  117TIP3    H2  358   3.262   0.024   0.960
  118TIP3   OH2  359   3.245   0.415   1.366
  118TIP3    H1  360   3.294   0.348   1.314
  118TIP3    H2  361   3.240   0.489   1.302
  119TIP3   OH2  362   3.069   0.707   1.557
  119TIP3    H1  363   2.998   0.751   1.608
  119TIP3    H2  364   3.018   0.664   1.485
  120TIP3   OH2  365   3.284   0.306   1.935
  120TIP3    H1  366   3.356   0.241   1.921
  120TIP3    H2  367   3.305   0.374   1.869
  121TIP3   OH2  368   3.467   0.112   1.938
  121TIP3    H1  369   3.392   0.066   1.983
  121TIP3    H2  370   3.534   0.042   1.948
  122TIP3   OH2  371   3.162  -0.218   1.462
  122TIP3    H1  372   3.246  -0.188   1.422
  122TIP3    H2  373   3.170  -0.184   1.553
  123TIP3   OH2  374   3.206  -0.076   1.700
  123TIP3    H1  375   3.131  -0.038   1.751
  123TIP3    H2  376   3.241   0.003   1.655
  124TIP3   OH2  377   2.757   0.796   0.902
  124TIP3    H1  378   2.819   0.803   0.828
  124TIP3    H2  379   2.787   0.867   0.961
  125TIP3   OH2  380   1.848   0.610   2.291
  125TIP3    H1  381   1.753   0.587   2.285
  125TIP3    H2  382   1.864   0.602   2.385
  126TIP3   OH2  383   2.036   0.656   1.851
  126TIP3    H1  384   1.986   0.730   1.812
  126TIP3    H2  385   2.123   0.673   1.810
  127TIP3   OH2  386   2.468   0.886   1.978
  127TIP3    H1  387   2.511   0.885   2.066
  127TIP3    H2  388   2.533   0.939   1.927
  128TIP3   OH2  389   2.648   1.042   1.843
  128TIP3    H1  390   2.717   0.991   1.799
  128TIP3    H2  391   2.702   1.099   1.903
  129TIP3   OH2  392   1.712   0.913   1.865
  129TIP3    H1  393   1.618   0.935   1.846
  129TIP3    H2  394   1.722   0.952   1.952
  130TIP3   OH2  395   1.950   0.891   1.735
  130TIP3    H1  396   1.861   0.901   1.776
  130TIP3    H2  397   1.932   0.918   1.643
  131TIP3   OH2  398   2.376   0.900   1.535
  131TIP3    H1  399   2.303   0.918   1.471
  131TIP3    H2  400   2.387   0.988   1.575
  132TIP3   OH2  401   2.642   0.840   1.577
  132TIP3    H1  402   2.546   0.854   1.561
  132TIP3    H2  403   2.680   0.915   1.527
  133TIP3   OH2  404   2.846   1.037   1.487
  133TIP3    H1  405   2.828   1.121   1.439
  133TIP3    H2  406   2.869   0.976   1.413
  134TIP3   OH2  407   2.217   0.621   1.373
  134TIP3    H1  408   2.180   0.539   1.338
  134TIP3    H2  409   2.140   0.661   1.418
  135TIP3   OH2  410   2.929   0.755   0.671
  135TIP3    H1  411   2.925   0.660   0.685
  135TIP3    H2  412   2.845   0.768   0.621
  136TIP3   OH2  413   3.121   0.914   1.862
  136TIP3    H1  414   3.042   0.884   1.813
  136TIP3    H2  415   3.101   1.010   1.870
  137TIP3   OH2  416   3.675   0.173   1.381
  137TIP3    H1  417   3.705   0.110   1.449
  137TIP3    H2  418   3.750   0.234   1.379
  138TIP3   OH2  419   3.658   0.594   1.099
  138TIP3    H1  420   3.642   0.499   1.108
  138TIP3    H2  421   3.755   0.598   1.082
  139TIP3   OH2  422   3.453   0.079   1.047
  139TIP3    H1  423   3.543   0.053   1.077
  139TIP3    H2  424   3.469   0.164   1.008
  140TIP3   OH2  425   4.302   1.026   0.706
  140TIP3    H1  426   4.383   0.978   0.727
  140TIP3    H2  427   4.265   1.042   0.794
  141TIP3   OH2  428   4.176   0.535   1.066
  141TIP3    H1  429   4.190   0.505   0.973
  141TIP3    H2  430   4.269   0.555   1.091
  142TIP3   OH2  431   4.042   0.440   1.284
  142TIP3    H1  432   3.985   0.512   1.318
  142TIP3    H2  433   4.089   0.484   1.210
  143TIP3   OH2  434   3.872   0.637   1.381
  143TIP3    H1  435   3.847   0.725   1.346
  143TIP3    H2  436   3.791   0.618   1.434
  144TIP3   OH2  437   3.279   0.347   0.705
  144TIP3    H1  438   3.221   0.350   0.628
  144TIP3    H2  439   3.318   0.436   0.706
  145TIP3   OH2  440   4.706   0.873   0.860
  145TIP3    H1  441   4.618   0.840   0.890
  145TIP3    H2  442   4.684   0.965   0.835
  146TIP3   OH2  443   4.923   0.753   1.211
  146TIP3    H1  444   4.911   0.677   1.150
  146TIP3    H2  445   4.901   0.829   1.154
  147TIP3   OH2  446   4.716   0.264   1.379
  147TIP3    H1  447   4.795   0.316   1.395
  147TIP3    H2  448   4.722   0.244   1.286
  148TIP3   OH2  449   3.916   0.622   0.995
  148TIP3    H1  450   3.913   0.608   0.900
  148TIP3    H2  451   4.007   0.594   1.019
  149TIP3   OH2  452   3.907   0.217   1.207
  149TIP3    H1  453   3.971   0.181   1.141
  149TIP3    H2  454   3.955   0.297   1.237
  150TIP3   OH2  455   4.460   0.830   0.971
  150TIP3    H1  456   4.447   0.908   1.027
  150TIP3    H2  457   4.442   0.756   1.032
  151TIP3   OH2  458   4.074   0.749   1.530
  151TIP3    H1  459   4.011   0.812   1.572
  151TIP3    H2  460   4.012   0.696   1.476
  152TIP3   OH2  461   3.824   0.307   1.626
  152TIP3    H1  462   3.828   0.394   1.670
  152TIP3    H2  463   3.731   0.282   1.644
  153TIP3   OH2  464   4.115   0.824   0.621
  153TIP3    H1  465   4.165   0.904   0.646
  153TIP3    H2  466   4.124   0.825   0.524
  154TIP3   OH2  467   3.867   0.910   1.618
  154TIP3    H1  468   3.833   0.918   1.526
  154TIP3    H2  469   3.785   0.889   1.668
  155TIP3   OH2  470   3.445   0.450   1.561
  155TIP3    H1  471   3.375   0.432   1.495
  155TIP3    H2  472   3.480   0.361   1.582
  156TIP3   OH2  473   3.299   0.643   1.196
  156TIP3    H1  474   3.396   0.653   1.194
  156TIP3    H2  475   3.273   0.723   1.244
  157TIP3   OH2  476   5.167   1.085   1.274
  157TIP3    H1  477   5.152   0.999   1.314
  157TIP3    H2  478   5.081   1.128   1.292
  158TIP3   OH2  479   4.271   0.878   1.386
  158TIP3    H1  480   4.265   0.972   1.416
  158TIP3    H2  481   4.199   0.837   1.439
  159TIP3   OH2  482   4.064   1.053   0.306
  159TIP3    H1  483   3.986   1.002   0.281
  159TIP3    H2  484   4.025   1.131   0.349
  160TIP3   OH2  485   3.470   0.860   0.726
  160TIP3    H1  486   3.515   0.848   0.813
  160TIP3    H2  487   3.423   0.775   0.718
  161TIP3   OH2  488   3.648   0.633   1.539
  161TIP3    H1  489   3.695   0.615   1.623
  161TIP3    H2  490   3.573   0.570   1.546
  162TIP3   OH2  491   3.946  -0.036   1.328
  162TIP3    H1  492   3.915  -0.024   1.420
  162TIP3    H2  493   3.951   0.056   1.299
  163TIP3   OH2  494   4.529   0.250   1.682
  163TIP3    H1  495   4.511   0.169   1.734
  163TIP3    H2  496   4.625   0.248   1.674
  164TIP3   OH2  497   3.799   0.010   1.560
  164TIP3    H1  498   3.849   0.074   1.614
  164TIP3    H2  499   3.791  -0.065   1.624
  165TIP3   OH2  500   4.861   1.442   1.353
  165TIP3    H1  501   4.857   1.469   1.259
  165TIP3    H2  502   4.941   1.489   1.383
  166TIP3   OH2  503   3.807   0.552   1.763
  166TIP3    H1  504   3.876   0.608   1.799
  166TIP3    H2  505   3.743   0.548   1.837
  167TIP3   OH2  506   4.382   0.613   1.404
  167TIP3    H1  507   4.419   0.591   1.490
  167TIP3    H2  508   4.350   0.704   1.416
  168TIP3   OH2  509   3.663   0.294   1.084
  168TIP3    H1  510   3.725   0.303   1.012
  168TIP3    H2  511   3.720   0.258   1.154
  169TIP3   OH2  512   3.564   0.235   1.697
  169TIP3    H1  513   3.579   0.221   1.792
  169TIP3    H2  514   3.495   0.168   1.679
  170TIP3   OH2  515   4.283   0.361   1.720
  170TIP3    H1  516   4.232   0.302   1.662
  170TIP3    H2  517   4.374   0.332   1.697
  171TIP3   OH2  518   4.546   0.868   1.307
  171TIP3    H1  519   4.449   0.871   1.319
  171TIP3    H2  520   4.574   0.924   1.382
  172TIP3   OH2  521   5.177   0.781   1.298
  172TIP3    H1  522   5.080   0.785   1.279
  172TIP3    H2  523   5.214   0.792   1.209
  173TIP3   OH2  524   3.810   0.625   0.719
  173TIP3    H1  525   3.789   0.711   0.678
  173TIP3    H2  526   3.725   0.580   0.712
  174TIP3   OH2  527   4.056   0.963   1.177
  174TIP3    H1  528   4.096   1.037   1.127
  174TIP3    H2  529   4.133   0.926   1.223
  175TIP3   OH2  530   3.704   0.847   0.584
  175TIP3    H1  531   3.618   0.867   0.626
  175TIP3    H2  532   3.740   0.938   0.573
  176TIP3   OH2  533   4.439   0.594   1.140
  176TIP3    H1  534   4.417   0.598   1.236
  176TIP3    H2  535   4.530   0.561   1.144
  177TIP3   OH2  536   4.692   1.124   1.185
  177TIP3    H1  537   4.610   1.071   1.176
  177TIP3    H2  538   4.675   1.197   1.122
  178TIP3   OH2  539   3.801  -0.196   1.738
  178TIP3    H1  540   3.736  -0.264   1.709
  178TIP3    H2  541   3.873  -0.251   1.769
  179TIP3   OH2  542   3.495   0.826   1.334
  179TIP3    H1  543   3.547   0.759   1.382
  179TIP3    H2  544   3.511   0.905   1.386
  180TIP3   OH2  545   4.460   0.050   1.484
  180TIP3    H1  546   4.491   0.131   1.526
  180TIP3    H2  547   4.542   0.008   1.456
  181TIP3   OH2  548   4.700   1.138   0.800
  181TIP3    H1  549   4.660   1.175   0.718
  181TIP3    H2  550   4.795   1.151   0.779
  182TIP3   OH2  551   3.330   0.622   0.696
  182TIP3    H1  552   3.261   0.645   0.761
  182TIP3    H2  553   3.292   0.659   0.613
  183TIP3   OH2  554   3.484   1.143   1.758
  183TIP3    H1  555   3.568   1.144   1.808
  183TIP3    H2  556   3.461   1.048   1.761
  184TIP3   OH2  557   3.955   1.080   1.822
  184TIP3    H1  558   4.051   1.090   1.815
  184TIP3    H2  559   3.936   1.026   1.743
  185TIP3   OH2  560   4.598   1.007   1.539
  185TIP3    H1  561   4.593   0.936   1.607
  185TIP3    H2  562   4.676   1.058   1.568
  186TIP3   OH2  563   3.613   0.542   1.961
  186TIP3    H1  564   3.625   0.446   1.969
  186TIP3    H2  565   3.526   0.548   1.917
  187TIP3   OH2  566   4.213   0.631   1.738
  187TIP3    H1  567   4.171   0.651   1.652
  187TIP3    H2  568   4.244   0.538   1.724
  188TIP3   OH2  569   4.708   0.638   1.342
  188TIP3    H1  570   4.783   0.686   1.303
  188TIP3    H2  571   4.638   0.705   1.332
  189TIP3   OH2  572   3.740   0.280   1.942
  189TIP3    H1  573   3.818   0.231   1.912
  189TIP3    H2  574   3.767   0.305   2.033
  190TIP3   OH2  575   4.051   0.155   1.601
  190TIP3    H1  576   3.981   0.224   1.607
  190TIP3    H2  577   4.108   0.191   1.530
  191TIP3   OH2  578   4.589   0.565   1.738
  191TIP3    H1  579   4.658   0.526   1.682
  191TIP3    H2  580   4.576   0.494   1.804
  192TIP3   OH2  581   4.193  -0.035   1.730
  192TIP3    H1  582   4.182  -0.111   1.673
  192TIP3    H2  583   4.144   0.034   1.680
  193TIP3   OH2  584   4.213   0.275   1.426
  193TIP3    H1  585   4.295   0.258   1.378
  193TIP3    H2  586   4.168   0.342   1.370
  194TIP3   OH2  587   4.800   0.259   1.805
  194TIP3    H1  588   4.795   0.162   1.788
  194TIP3    H2  589   4.865   0.289   1.741
  195TIP3   OH2  590   4.847   0.507   1.542
  195TIP3    H1  591   4.785   0.545   1.475
  195TIP3    H2  592   4.932   0.515   1.494
  196TIP3   OH2  593   4.054   0.122   1.946
  196TIP3    H1  594   3.991   0.049   1.962
  196TIP3    H2  595   4.115   0.079   1.882
  197TIP3   OH2  596   4.462   0.016   1.809
  197TIP3    H1  597   4.437   0.020   1.905
  197TIP3    H2  598   4.373   0.002   1.771
  198TIP3   OH2  599   4.730   0.004   1.750
  198TIP3    H1  600   4.636   0.004   1.778
  198TIP3    H2  601   4.756  -0.087   1.775
  199TIP3   OH2  602   3.872  -0.073   2.005
  199TIP3    H1  603   3.898  -0.145   1.944
  199TIP3    H2  604   3.892  -0.117   2.090
  200TIP3   OH2  605   3.109   0.948   0.757
  200TIP3    H1  606   3.049   0.885   0.712
  200TIP3    H2  607   3.150   0.889   0.823
  201TIP3   OH2  608   3.234   0.790   0.945
  201TIP3    H1  609   3.223   0.721   1.012
  201TIP3    H2  610   3.286   0.855   0.995
  202TIP3   OH2  611   4.956   1.200   0.735
  202TIP3    H1  612   5.029   1.182   0.797
  202TIP3    H2  613   4.982   1.285   0.698
  203TIP3   OH2  614   4.975   1.229   1.045
  203TIP3    H1  615   4.940   1.138   1.044
  203TIP3    H2  616   5.062   1.213   1.005
  204TIP3   OH2  617   5.043   0.892   1.593
  204TIP3    H1  618   4.970   0.901   1.657
  204TIP3    H2  619   5.084   0.981   1.598
  205TIP3   OH2  620   4.877   0.966   1.050
  205TIP3    H1  621   4.805   1.012   1.099
  205TIP3    H2  622   4.826   0.928   0.975
  206TIP3   OH2  623   3.415   0.201   1.308
  206TIP3    H1  624   3.416   0.165   1.217
  206TIP3    H2  625   3.512   0.202   1.328
  207TIP3   OH2  626   5.103   0.537   1.421
  207TIP3    H1  627   5.104   0.468   1.354
  207TIP3    H2  628   5.119   0.618   1.369
  208TIP3   OH2  629   3.599  -0.120   1.971
  208TIP3    H1  630   3.694  -0.110   1.950
  208TIP3    H2  631   3.603  -0.155   2.060
  209TIP3   OH2  632   3.420  -0.139   1.386
  209TIP3    H1  633   3.493  -0.113   1.330
  209TIP3    H2  634   3.420  -0.069   1.452
  210TIP3   OH2  635   3.649   0.857   1.785
  210TIP3    H1  636   3.556   0.842   1.760
  210TIP3    H2  637   3.642   0.858   1.881
  211TIP3   OH2  638   3.832   0.907   1.331
  211TIP3    H1  639   3.780   0.980   1.293
  211TIP3    H2  640   3.915   0.921   1.282
  212TIP3   OH2  641   4.264   1.144   1.462
  212TIP3    H1  642   4.306   1.144   1.550
  212TIP3    H2  643   4.330   1.196   1.411
  213TIP3   OH2  644   4.446   1.299   1.329
  213TIP3    H1  645   4.518   1.252   1.286
  213TIP3    H2  646   4.497   1.358   1.390
  214TIP3   OH2  647   3.502   1.155   1.359
  214TIP3    H1  648   3.411   1.182   1.334
  214TIP3    H2  649   3.517   1.212   1.435
  215TIP3   OH2  650   3.736   1.137   1.213
  215TIP3    H1  651   3.649   1.148   1.257
  215TIP3    H2  652   3.716   1.169   1.123
  216TIP3   OH2  653   4.166   1.163   1.001
  216TIP3    H1  654   4.087   1.182   0.946
  216TIP3    H2  655   4.178   1.250   1.046
  217TIP3   OH2  656   4.434   1.100   1.057
  217TIP3    H1  657   4.340   1.120   1.040
  217TIP3    H2  658   4.477   1.181   1.025
  218TIP3   OH2  659   4.625   1.310   0.994
  218TIP3    H1  660   4.612   1.395   0.946
  218TIP3    H2  661   4.655   1.252   0.920
  219TIP3   OH2  662   3.414   0.951   1.093
  219TIP3    H1  663   3.437   0.920   1.183
  219TIP3    H2  664   3.488   0.910   1.043
  220TIP3   OH2  665   3.611   0.826   0.958
  220TIP3    H1  666   3.624   0.741   1.006
  220TIP3    H2  667   3.702   0.862   0.956
  221TIP3   OH2  668   3.877   0.918   0.961
  221TIP3    H1  669   3.908   0.828   0.944
  221TIP3    H2  670   3.924   0.938   1.044
  222TIP3   OH2  671   3.199   0.739   0.490
  222TIP3    H1  672   3.111   0.701   0.480
  222TIP3    H2  673   3.184   0.826   0.448
  223TIP3   OH2  674   3.169   0.690   0.178
  223TIP3    H1  675   3.151   0.783   0.193
  223TIP3    H2  676   3.257   0.693   0.136
  224TIP3   OH2  677   4.915   1.171   1.354
  224TIP3    H1  678   4.840   1.143   1.298
  224TIP3    H2  679   4.900   1.268   1.355
  225TIP3   OH2  680   5.578   1.245   1.091
  225TIP3    H1  681   5.577   1.194   1.009
  225TIP3    H2  682   5.527   1.187   1.152
  226TIP3   OH2  683   5.596   0.797   1.293
  226TIP3    H1  684   5.662   0.798   1.362
  226TIP3    H2  685   5.515   0.818   1.344
  227TIP3   OH2  686   5.183   1.145   0.888
  227TIP3    H1  687   5.228   1.059   0.902
  227TIP3    H2  688   5.256   1.198   0.853
  228TIP3   OH2  689   5.276   1.403   1.243
  228TIP3    H1  690   5.360   1.406   1.294
  228TIP3    H2  691   5.260   1.307   1.238
  229TIP3   OH2  692   5.742   1.349   1.322
  229TIP3    H1  693   5.834   1.380   1.334
  229TIP3    H2  694   5.733   1.360   1.226
  230TIP3   OH2  695   5.389   0.812   1.479
  230TIP3    H1  696   5.404   0.728   1.524
  230TIP3    H2  697   5.305   0.796   1.429
  231TIP3   OH2  698   5.439   1.098   1.276
  231TIP3    H1  699   5.343   1.086   1.264
  231TIP3    H2  700   5.447   1.100   1.372
  232TIP3   OH2  701   5.288   1.407   0.825
  232TIP3    H1  702   5.197   1.445   0.819
  232TIP3    H2  703   5.318   1.444   0.908
  233TIP3   OH2  704   5.543   1.412   0.720
  233TIP3    H1  705   5.451   1.399   0.751
  233TIP3    H2  706   5.530   1.425   0.624
  234TIP3   OH2  707   1.339   1.325   1.906
  234TIP3    H1  708   1.267   1.367   1.856
  234TIP3    H2  709   1.350   1.387   1.979
  235TIP3   OH2  710   0.768   2.170   1.555
  235TIP3    H1  711   0.679   2.116   1.564
  235TIP3    H2  712   0.739   2.239   1.499
  236TIP3   OH2  713   0.975   2.049   1.871
  236TIP3    H1  714   0.960   1.976   1.808
  236TIP3    H2  715   0.959   2.128   1.815
  237TIP3   OH2  716   1.167   1.692   1.718
  237TIP3    H1  717   1.080   1.738   1.723
  237TIP3    H2  718   1.193   1.713   1.626
  238TIP3   OH2  719   0.844   1.564   2.018
  238TIP3    H1  720   0.843   1.644   2.074
  238TIP3    H2  721   0.767   1.581   1.962
  239TIP3   OH2  722   0.508   2.127   1.680
  239TIP3    H1  723   0.501   2.223   1.699
  239TIP3    H2  724   0.532   2.093   1.765
  240TIP3   OH2  725   0.113   2.047   2.192
  240TIP3    H1  726   0.056   2.119   2.227
  240TIP3    H2  727   0.047   1.980   2.171
  241TIP3   OH2  728  -0.086   2.225   2.271
  241TIP3    H1  729  -0.151   2.283   2.231
  241TIP3    H2  730  -0.138   2.184   2.345
  242TIP3   OH2  731   1.210   2.402   1.915
  242TIP3    H1  732   1.210   2.305   1.928
  242TIP3    H2  733   1.125   2.424   1.960
  243TIP3   OH2  734   0.324   2.182   2.065
  243TIP3    H1  735   0.312   2.274   2.098
  243TIP3    H2  736   0.246   2.137   2.103
  244TIP3   OH2  737   1.100   1.524   2.194
  244TIP3    H1  738   1.025   1.529   2.132
  244TIP3    H2  739   1.116   1.427   2.195
  245TIP3   OH2  740   0.876   1.302   2.111
  245TIP3    H1  741   0.816   1.291   2.189
  245TIP3    H2  742   0.847   1.388   2.074
  246TIP3   OH2  743   0.572   1.527   2.344
  246TIP3    H1  744   0.550   1.444   2.390
  246TIP3    H2  745   0.667   1.534   2.363
  247TIP3   OH2  746   0.904   2.746   2.018
  247TIP3    H1  747   0.903   2.767   1.922
  247TIP3    H2  748   0.986   2.791   2.046
  248TIP3   OH2  749  -0.145   1.834   2.494
  248TIP3    H1  750  -0.057   1.863   2.524
  248TIP3    H2  751  -0.190   1.918   2.479
  249TIP3   OH2  752   0.933   1.840   1.697
  249TIP3    H1  753   0.968   1.889   1.619
  249TIP3    H2  754   0.853   1.800   1.659
  250TIP3   OH2  755   0.482   1.954   2.118
  250TIP3    H1  756   0.499   1.939   2.210
  250TIP3    H2  757   0.429   2.036   2.117
  251TIP3   OH2  758   0.333   1.665   2.392
  251TIP3    H1  759   0.263   1.629   2.333
  251TIP3    H2  760   0.414   1.620   2.358
  252TIP3   OH2  761   0.587   2.201   1.953
  252TIP3    H1  762   0.494   2.186   1.978
  252TIP3    H2  763   0.621   2.237   2.039
  253TIP3   OH2  764   1.226   2.114   1.954
  253TIP3    H1  765   1.128   2.103   1.949
  253TIP3    H2  766   1.251   2.080   1.865
  254TIP3   OH2  767   0.128   2.254   1.860
  254TIP3    H1  768   0.141   2.333   1.804
  254TIP3    H2  769   0.208   2.253   1.914
  255TIP3   OH2  770   0.386   1.846   1.878
  255TIP3    H1  771   0.426   1.877   1.963
  255TIP3    H2  772   0.429   1.759   1.867
  256TIP3   OH2  773   0.730   2.438   1.864
  256TIP3    H1  774   0.661   2.368   1.862
  256TIP3    H2  775   0.707   2.492   1.786
  257TIP3   OH2  776   1.140   1.255   2.117
  257TIP3    H1  777   1.041   1.253   2.114
  257TIP3    H2  778   1.161   1.264   2.023
  258TIP3   OH2  779   0.753   2.433   1.442
  258TIP3    H1  780   0.709   2.472   1.364
  258TIP3    H2  781   0.848   2.448   1.418
  259TIP3   OH2  782  -0.420   2.362   2.411
  259TIP3    H1  783  -0.344   2.397   2.462
  259TIP3    H2  784  -0.492   2.412   2.448
  260TIP3   OH2  785   0.006   2.401   2.470
  260TIP3    H1  786   0.101   2.388   2.487
  260TIP3    H2  787  -0.007   2.339   2.396
  261TIP3   OH2  788   0.644   2.305   2.202
  261TIP3    H1  789   0.638   2.234   2.270
  261TIP3    H2  790   0.722   2.356   2.233
  262TIP3   OH2  791   0.266   1.936   2.401
  262TIP3    H1  792   0.226   1.950   2.314
  262TIP3    H2  793   0.297   1.843   2.395
  263TIP3   OH2  794   0.763   1.920   2.004
  263TIP3    H1  795   0.826   1.978   1.958
  263TIP3    H2  796   0.681   1.970   2.003
  264TIP3   OH2  797   0.627   1.866   2.398
  264TIP3    H1  798   0.701   1.830   2.349
  264TIP3    H2  799   0.618   1.800   2.470
  265TIP3   OH2  800   0.842   1.535   2.452
  265TIP3    H1  801   0.891   1.452   2.463
  265TIP3    H2  802   0.909   1.591   2.410
  266TIP3   OH2  803   0.888   1.789   2.200
  266TIP3    H1  804   0.832   1.840   2.136
  266TIP3    H2  805   0.976   1.808   2.161
  267TIP3   OH2  806   0.494   1.304   2.483
  267TIP3    H1  807   0.496   1.293   2.579
  267TIP3    H2  808   0.398   1.300   2.467
  268TIP3   OH2  809   0.730   1.235   2.331
  268TIP3    H1  810   0.656   1.248   2.393
  268TIP3    H2  811   0.806   1.221   2.392
  269TIP3   OH2  812   0.956   1.207   2.492
  269TIP3    H1  813   0.978   1.112   2.505
  269TIP3    H2  814   0.957   1.240   2.584
  270TIP3   OH2  815   0.546   1.026   2.682
  270TIP3    H1  816   0.508   0.965   2.617
  270TIP3    H2  817   0.474   1.093   2.686
  271TIP3   OH2  818   1.013   2.509   1.404
  271TIP3    H1  819   1.045   2.530   1.494
  271TIP3    H2  820   1.090   2.529   1.349
  272TIP3   OH2  821   1.052   2.531   1.688
  272TIP3    H1  822   1.001   2.443   1.692
  272TIP3    H2  823   1.126   2.504   1.746
  273TIP3   OH2  824   1.083   2.196   2.260
  273TIP3    H1  825   1.013   2.205   2.327
  273TIP3    H2  826   1.127   2.283   2.265
  274TIP3   OH2  827   1.090   1.967   1.514
  274TIP3    H1  828   1.137   1.898   1.462
  274TIP3    H2  829   1.038   2.013   1.447
  275TIP3   OH2  830   0.921   2.285   1.736
  275TIP3    H1  831   0.862   2.326   1.788
  275TIP3    H2  832   0.880   2.244   1.668
  276TIP3   OH2  833   1.131   1.856   2.089
  276TIP3    H1  834   1.201   1.788   2.075
  276TIP3    H2  835   1.148   1.919   2.018
  277TIP3   OH2  836   1.314   1.656   2.090
  277TIP3    H1  837   1.238   1.608   2.130
  277TIP3    H2  838   1.386   1.595   2.113
  278TIP3   OH2  839   1.092   1.464   1.873
  278TIP3    H1  840   1.001   1.489   1.897
  278TIP3    H2  841   1.117   1.537   1.812
  279TIP3   OH2  842   1.524   1.063   2.405
  279TIP3    H1  843   1.582   1.000   2.359
  279TIP3    H2  844   1.488   1.115   2.331
  280TIP3   OH2  845   1.391   1.197   2.212
  280TIP3    H1  846   1.302   1.237   2.222
  280TIP3    H2  847   1.367   1.123   2.152
  281TIP3   OH2  848  -0.243   2.111   2.462
  281TIP3    H1  849  -0.327   2.103   2.414
  281TIP3    H2  850  -0.274   2.125   2.553
  282TIP3   OH2  851   0.308   2.450   2.131
  282TIP3    H1  852   0.354   2.447   2.218
  282TIP3    H2  853   0.374   2.500   2.078
  283TIP3   OH2  854   0.491   2.602   1.992
  283TIP3    H1  855   0.560   2.548   1.950
  283TIP3    H2  856   0.545   2.657   2.052
  284TIP3   OH2  857   1.306   0.959   2.091
  284TIP3    H1  858   1.218   0.949   2.052
  284TIP3    H2  859   1.340   0.867   2.087
  285TIP3   OH2  860   0.205   2.472   1.701
  285TIP3    H1  861   0.193   2.433   1.612
  285TIP3    H2  862   0.224   2.566   1.685
  286TIP3   OH2  863   0.478   2.401   1.725
  286TIP3    H1  864   0.382   2.419   1.727
  286TIP3    H2  865   0.513   2.478   1.677
  287TIP3   OH2  866   0.685   2.602   1.643
  287TIP3    H1  867   0.667   2.684   1.593
  287TIP3    H2  868   0.710   2.539   1.570
  288TIP3   OH2  869   1.033   0.951   2.540
  288TIP3    H1  870   1.047   0.906   2.626
  288TIP3    H2  871   1.106   0.915   2.486
  289TIP3   OH2  872   0.961   2.477   2.016
  289TIP3    H1  873   0.880   2.448   1.970
  289TIP3    H2  874   0.943   2.571   2.026
  290TIP3   OH2  875   2.237   1.852   0.786
  290TIP3    H1  876   2.207   1.943   0.767
  290TIP3    H2  877   2.162   1.802   0.747
  291TIP3   OH2  878   2.230   1.852   1.169
  291TIP3    H1  879   2.267   1.827   1.256
  291TIP3    H2  880   2.194   1.768   1.139
  292TIP3   OH2  881   1.530   1.742   1.526
  292TIP3    H1  882   1.554   1.666   1.582
  292TIP3    H2  883   1.597   1.806   1.553
  293TIP3   OH2  884   2.479   2.153   0.845
  293TIP3    H1  885   2.456   2.086   0.910
  293TIP3    H2  886   2.507   2.228   0.900
  294TIP3   OH2  887   1.502   2.152   1.244
  294TIP3    H1  888   1.493   2.055   1.248
  294TIP3    H2  889   1.599   2.160   1.241
  295TIP3   OH2  890   2.130   2.613   0.862
  295TIP3    H1  891   2.168   2.540   0.809
  295TIP3    H2  892   2.116   2.571   0.947
  296TIP3   OH2  893   2.027   2.072   1.209
  296TIP3    H1  894   2.071   1.996   1.168
  296TIP3    H2  895   2.107   2.123   1.235
  297TIP3   OH2  896   3.048   1.393   1.209
  297TIP3    H1  897   3.074   1.477   1.251
  297TIP3    H2  898   3.064   1.413   1.115
  298TIP3   OH2  899   2.443   1.572   1.241
  298TIP3    H1  900   2.482   1.484   1.259
  298TIP3    H2  901   2.406   1.557   1.152
  299TIP3   OH2  902   1.736   1.289   1.202
  299TIP3    H1  903   1.724   1.351   1.126
  299TIP3    H2  904   1.763   1.211   1.151
  300TIP3   OH2  905   2.484   1.343   0.835
  300TIP3    H1  906   2.557   1.323   0.897
  300TIP3    H2  907   2.535   1.375   0.758
  301TIP3   OH2  908   1.420   1.421   1.289
  301TIP3    H1  909   1.443   1.422   1.384
  301TIP3    H2  910   1.497   1.378   1.254
  302TIP3   OH2  911   1.862   1.633   1.102
  302TIP3    H1  912   1.959   1.627   1.113
  302TIP3    H2  913   1.834   1.547   1.135
  303TIP3   OH2  914   3.118   1.604   1.376
  303TIP3    H1  915   3.032   1.648   1.359
  303TIP3    H2  916   3.137   1.636   1.466
  304TIP3   OH2  917   1.767   1.206   1.645
  304TIP3    H1  918   1.709   1.253   1.581
  304TIP3    H2  919   1.718   1.227   1.728
  305TIP3   OH2  920   2.128   2.079   0.679
  305TIP3    H1  921   2.093   2.061   0.589
  305TIP3    H2  922   2.076   2.158   0.702
  306TIP3   OH2  923   1.879   1.995   1.431
  306TIP3    H1  924   1.819   2.064   1.467
  306TIP3    H2  925   1.924   2.042   1.359
  307TIP3   OH2  926   2.686   1.329   1.012
  307TIP3    H1  927   2.656   1.290   1.096
  307TIP3    H2  928   2.733   1.409   1.042
  308TIP3   OH2  929   1.644   1.344   1.449
  308TIP3    H1  930   1.700   1.420   1.473
  308TIP3    H2  931   1.680   1.322   1.361
  309TIP3   OH2  932   1.712   2.192   1.530
  309TIP3    H1  933   1.687   2.280   1.497
  309TIP3    H2  934   1.633   2.174   1.587
  310TIP3   OH2  935   2.541   2.396   1.008
  310TIP3    H1  936   2.452   2.387   1.047
  310TIP3    H2  937   2.533   2.483   0.963
  311TIP3   OH2  938   2.838   1.290   1.372
  311TIP3    H1  939   2.749   1.316   1.341
  311TIP3    H2  940   2.896   1.324   1.301
  312TIP3   OH2  941   2.156   0.969   1.376
  312TIP3    H1  942   2.122   0.892   1.326
  312TIP3    H2  943   2.075   0.996   1.424
  313TIP3   OH2  944   2.238   2.438   0.675
  313TIP3    H1  945   2.289   2.355   0.658
  313TIP3    H2  946   2.302   2.503   0.638
  314TIP3   OH2  947   2.387   2.224   0.593
  314TIP3    H1  948   2.346   2.144   0.559
  314TIP3    H2  949   2.426   2.192   0.678
  315TIP3   OH2  950   2.768   2.304   1.352
  315TIP3    H1  951   2.754   2.227   1.293
  315TIP3    H2  952   2.749   2.379   1.292
  316TIP3   OH2  953   2.067   1.715   0.615
  316TIP3    H1  954   1.984   1.760   0.593
  316TIP3    H2  955   2.115   1.719   0.529
  317TIP3   OH2  956   2.963   1.946   1.201
  317TIP3    H1  957   2.879   1.996   1.205
  317TIP3    H2  958   2.993   1.968   1.111
  318TIP3   OH2  959   2.411   1.783   0.587
  318TIP3    H1  960   2.358   1.809   0.666
  318TIP3    H2  961   2.494   1.753   0.629
  319TIP3   OH2  962   2.641   1.818   1.500
  319TIP3    H1  963   2.639   1.901   1.551
  319TIP3    H2  964   2.555   1.823   1.454
  320TIP3   OH2  965   1.643   1.770   1.009
  320TIP3    H1  966   1.611   1.717   0.936
  320TIP3    H2  967   1.724   1.722   1.037
  321TIP3   OH2  968   1.773   2.192   1.144
  321TIP3    H1  969   1.756   2.158   1.055
  321TIP3    H2  970   1.862   2.155   1.164
  322TIP3   OH2  971   1.786   1.752   1.348
  322TIP3    H1  972   1.821   1.744   1.258
  322TIP3    H2  973   1.819   1.840   1.376
  323TIP3   OH2  974   2.302   2.388   1.132
  323TIP3    H1  975   2.288   2.468   1.186
  323TIP3    H2  976   2.286   2.316   1.195
  324TIP3   OH2  977   1.915   2.305   1.678
  324TIP3    H1  978   1.855   2.367   1.725
  324TIP3    H2  979   1.850   2.252   1.628
  325TIP3   OH2  980   2.245   1.662   0.403
  325TIP3    H1  981   2.307   1.701   0.469
  325TIP3    H2  982   2.309   1.637   0.334
  326TIP3   OH2  983   1.667   1.862   1.777
  326TIP3    H1  984   1.674   1.949   1.820
  326TIP3    H2  985   1.574   1.839   1.799
  327TIP3   OH2  986   1.988   2.326   0.688
  327TIP3    H1  987   2.074   2.371   0.690
  327TIP3    H2  988   1.932   2.391   0.643
  328TIP3   OH2  989   1.709   2.469   1.765
  328TIP3    H1  990   1.673   2.472   1.675
  328TIP3    H2  991   1.628   2.449   1.818
  329TIP3   OH2  992   2.558   2.251  -0.008
  329TIP3    H1  993   2.572   2.347  -0.020
  329TIP3    H2  994   2.650   2.219  -0.009
  330TIP3   OH2  995   1.288   2.008   1.711
  330TIP3    H1  996   1.220   1.991   1.643
  330TIP3    H2  997   1.321   1.918   1.731
  331TIP3   OH2  998   1.144   2.212   1.320
  331TIP3    H1  999   1.237   2.190   1.329
  331TIP3    H2 1000   1.130   2.271   1.396
  332TIP3   OH2 1001   3.006   2.655   1.402
  332TIP3    H1 1002   3.005   2.558   1.419
  332TIP3    H2 1003   2.922   2.680   1.448
  333TIP3   OH2 1004   2.110   2.436   1.534
  333TIP3    H1 1005   2.106   2.528   1.566
  333TIP3    H2 1006   2.040   2.394   1.589
  334TIP3   OH2 1007   1.880   2.559   0.497
  334TIP3    H1 1008   1.841   2.546   0.409
  334TIP3    H2 1009   1.848   2.647   0.523
  335TIP3   OH2 1010   1.342   2.478   0.882
  335TIP3    H1 1011   1.388   2.461   0.967
  335TIP3    H2 1012   1.309   2.387   0.865
  336TIP3   OH2 1013   2.082   2.466   0.135
  336TIP3    H1 1014   2.138   2.408   0.079
  336TIP3    H2 1015   2.132   2.470   0.217
  337TIP3   OH2 1016   2.135   2.519   0.406
  337TIP3    H1 1017   2.045   2.526   0.446
  337TIP3    H2 1018   2.184   2.476   0.477
  338TIP3   OH2 1019   2.895   1.780   1.677
  338TIP3    H1 1020   2.810   1.790   1.632
  338TIP3    H2 1021   2.910   1.683   1.668
  339TIP3   OH2 1022   1.493   2.190   1.694
  339TIP3    H1 1023   1.542   2.175   1.778
  339TIP3    H2 1024   1.419   2.127   1.703
  340TIP3   OH2 1025   1.900   1.020   1.490
  340TIP3    H1 1026   1.827   0.964   1.459
  340TIP3    H2 1027   1.854   1.089   1.543
  341TIP3   OH2 1028   2.428   1.129   1.683
  341TIP3    H1 1029   2.495   1.102   1.749
  341TIP3    H2 1030   2.343   1.109   1.729
  342TIP3   OH2 1031   2.663   1.558   1.601
  342TIP3    H1 1032   2.612   1.555   1.685
  342TIP3    H2 1033   2.637   1.644   1.563
  343TIP3   OH2 1034   2.413   1.617   0.184
  343TIP3    H1 1035   2.338   1.617   0.122
  343TIP3    H2 1036   2.445   1.708   0.172
  344TIP3   OH2 1037   1.830   1.538   1.508
  344TIP3    H1 1038   1.777   1.556   1.589
  344TIP3    H2 1039   1.811   1.618   1.454
  345TIP3   OH2 1040   2.198   1.523   0.760
  345TIP3    H1 1041   2.152   1.594   0.710
  345TIP3    H2 1042   2.260   1.489   0.692
  346TIP3   OH2 1043   2.370   1.772   1.828
  346TIP3    H1 1044   2.347   1.700   1.891
  346TIP3    H2 1045   2.463   1.788   1.852
  347TIP3   OH2 1046   2.352   1.528   0.989
  347TIP3    H1 1047   2.289   1.555   0.918
  347TIP3    H2 1048   2.394   1.453   0.942
  348TIP3   OH2 1049   1.646   1.556   1.710
  348TIP3    H1 1050   1.660   1.616   1.785
  348TIP3    H2 1051   1.622   1.473   1.755
  349TIP3   OH2 1052   2.364   1.771   1.403
  349TIP3    H1 1053   2.397   1.699   1.344
  349TIP3    H2 1054   2.332   1.717   1.478
  350TIP3   OH2 1055   2.078   1.264   1.078
  350TIP3    H1 1056   2.003   1.240   1.134
  350TIP3    H2 1057   2.154   1.242   1.137
  351TIP3   OH2 1058   2.528   1.310   1.280
  351TIP3    H1 1059   2.499   1.324   1.373
  351TIP3    H2 1060   2.457   1.251   1.250
  352TIP3   OH2 1061   2.702   3.000   1.504
  352TIP3    H1 1062   2.699   3.026   1.410
  352TIP3    H2 1063   2.782   3.047   1.535
  353TIP3   OH2 1064   1.654   2.111   1.918
  353TIP3    H1 1065   1.734   2.139   1.967
  353TIP3    H2 1066   1.590   2.108   1.991
  354TIP3   OH2 1067   2.119   1.574   1.177
  354TIP3    H1 1068   2.187   1.526   1.128
  354TIP3    H2 1069   2.121   1.530   1.264
  355TIP3   OH2 1070   2.092   1.470   1.458
  355TIP3    H1 1071   2.002   1.503   1.480
  355TIP3    H2 1072   2.150   1.527   1.512
  356TIP3   OH2 1073   1.808   1.830   0.583
  356TIP3    H1 1074   1.784   1.739   0.606
  356TIP3    H2 1075   1.798   1.876   0.670
  357TIP3   OH2 1076   2.727   2.087   1.185
  357TIP3    H1 1077   2.751   2.138   1.104
  357TIP3    H2 1078   2.642   2.046   1.159
  358TIP3   OH2 1079   2.225   2.169   1.560
  358TIP3    H1 1080   2.262   2.155   1.648
  358TIP3    H2 1081   2.189   2.259   1.565
  359TIP3   OH2 1082   2.356   1.418   0.566
  359TIP3    H1 1083   2.452   1.406   0.562
  359TIP3    H2 1084   2.337   1.412   0.471
  360TIP3   OH2 1085   1.518   1.874   1.240
  360TIP3    H1 1086   1.559   1.838   1.159
  360TIP3    H2 1087   1.556   1.818   1.310
  361TIP3   OH2 1088   2.012   2.048   0.436
  361TIP3    H1 1089   1.950   2.124   0.424
  361TIP3    H2 1090   1.967   1.981   0.383
  362TIP3   OH2 1091   1.406   1.787   1.848
  362TIP3    H1 1092   1.413   1.768   1.943
  362TIP3    H2 1093   1.332   1.727   1.823
  363TIP3   OH2 1094   2.131   1.912   1.869
  363TIP3    H1 1095   2.067   1.849   1.831
  363TIP3    H2 1096   2.216   1.874   1.838
  364TIP3   OH2 1097   2.386   2.430   1.455
  364TIP3    H1 1098   2.290   2.430   1.468
  364TIP3    H2 1099   2.415   2.482   1.533
  365TIP3   OH2 1100   2.802   1.502   0.356
  365TIP3    H1 1101   2.751   1.453   0.288
  365TIP3    H2 1102   2.789   1.592   0.318
  366TIP3   OH2 1103   3.017   2.364   1.441
  366TIP3    H1 1104   2.920   2.357   1.433
  366TIP3    H2 1105   3.044   2.334   1.352
  367TIP3   OH2 1106   2.509   2.321   0.268
  367TIP3    H1 1107   2.468   2.259   0.330
  367TIP3    H2 1108   2.503   2.273   0.183
  368TIP3   OH2 1109   2.495   1.952   1.100
  368TIP3    H1 1110   2.401   1.928   1.115
  368TIP3    H2 1111   2.527   1.871   1.056
  369TIP3   OH2 1112   1.614   2.183   0.862
  369TIP3    H1 1113   1.618   2.261   0.804
  369TIP3    H2 1114   1.521   2.183   0.886
  370TIP3   OH2 1115   1.755   1.948   0.822
  370TIP3    H1 1116   1.717   2.038   0.832
  370TIP3    H2 1117   1.721   1.904   0.902
  371TIP3   OH2 1118   1.897   2.520   1.330
  371TIP3    H1 1119   1.938   2.593   1.279
  371TIP3    H2 1120   1.974   2.485   1.378
  372TIP3   OH2 1121   1.550   2.421   0.709
  372TIP3    H1 1122   1.470   2.447   0.759
  372TIP3    H2 1123   1.597   2.508   0.709
  373TIP3   OH2 1124   2.277   2.159   1.292
  373TIP3    H1 1125   2.265   2.157   1.390
  373TIP3    H2 1126   2.356   2.105   1.281
  374TIP3   OH2 1127   2.275   2.080   0.182
  374TIP3    H1 1128   2.323   2.046   0.261
  374TIP3    H2 1129   2.187   2.040   0.196
  375TIP3   OH2 1130   2.529   2.685   1.339
  375TIP3    H1 1131   2.449   2.629   1.335
  375TIP3    H2 1132   2.511   2.749   1.267
  376TIP3   OH2 1133   2.594   2.528  -0.014
  376TIP3    H1 1134   2.640   2.612  -0.032
  376TIP3    H2 1135   2.509   2.564   0.020
  377TIP3   OH2 1136   1.611   1.297   1.854
  377TIP3    H1 1137   1.513   1.300   1.862
  377TIP3    H2 1138   1.633   1.240   1.930
  378TIP3   OH2 1139   2.424   1.979   0.390
  378TIP3    H1 1140   2.410   1.914   0.462
  378TIP3    H2 1141   2.521   1.978   0.382
  379TIP3   OH2 1142   1.332   2.384   1.488
  379TIP3    H1 1143   1.384   2.311   1.524
  379TIP3    H2 1144   1.358   2.456   1.546
  380TIP3   OH2 1145   1.573   2.038   0.477
  380TIP3    H1 1146   1.660   2.022   0.515
  380TIP3    H2 1147   1.574   2.136   0.471
  381TIP3   OH2 1148   2.458   1.362   1.540
  381TIP3    H1 1149   2.536   1.402   1.582
  381TIP3    H2 1150   2.443   1.282   1.594
  382TIP3   OH2 1151   2.337   1.149   0.694
  382TIP3    H1 1152   2.283   1.177   0.618
  382TIP3    H2 1153   2.373   1.234   0.726
  383TIP3   OH2 1154   1.821   2.238   0.383
  383TIP3    H1 1155   1.732   2.265   0.413
  383TIP3    H2 1156   1.851   2.319   0.340
  384TIP3   OH2 1157   2.019   1.327   0.816
  384TIP3    H1 1158   2.080   1.401   0.796
  384TIP3    H2 1159   2.039   1.313   0.911
  385TIP3   OH2 1160   2.291   1.608   1.611
  385TIP3    H1 1161   2.315   1.662   1.689
  385TIP3    H2 1162   2.344   1.528   1.624
  386TIP3   OH2 1163   2.302   1.033   0.936
  386TIP3    H1 1164   2.237   1.093   0.976
  386TIP3    H2 1165   2.309   1.074   0.846
  387TIP3   OH2 1166   1.566   2.313   0.458
  387TIP3    H1 1167   1.498   2.365   0.412
  387TIP3    H2 1168   1.565   2.356   0.547
  388TIP3   OH2 1169   2.927   1.510   1.596
  388TIP3    H1 1170   2.829   1.512   1.605
  388TIP3    H2 1171   2.934   1.466   1.510
  389TIP3   OH2 1172   2.580   1.704   0.983
  389TIP3    H1 1173   2.501   1.649   0.997
  389TIP3    H2 1174   2.649   1.656   1.034
  390TIP3   OH2 1175   2.550   2.668   0.929
  390TIP3    H1 1176   2.508   2.714   0.854
  390TIP3    H2 1177   2.645   2.686   0.909
  391TIP3   OH2 1178   1.267   2.222   0.863
  391TIP3    H1 1179   1.198   2.234   0.931
  391TIP3    H2 1180   1.239   2.141   0.821
  392TIP3   OH2 1181   1.326   2.701   1.909
  392TIP3    H1 1182   1.411   2.704   1.958
  392TIP3    H2 1183   1.307   2.606   1.912
  393TIP3   OH2 1184   1.796   2.652   1.954
  393TIP3    H1 1185   1.892   2.638   1.964
  393TIP3    H2 1186   1.775   2.588   1.883
  394TIP3   OH2 1187   2.443   2.562   1.687
  394TIP3    H1 1188   2.436   2.493   1.757
  394TIP3    H2 1189   2.519   2.616   1.718
  395TIP3   OH2 1190   2.249   2.287   0.004
  395TIP3    H1 1191   2.253   2.213   0.068
  395TIP3    H2 1192   2.337   2.282  -0.035
  396TIP3   OH2 1193   1.454   2.101   2.111
  396TIP3    H1 1194   1.470   2.005   2.118
  396TIP3    H2 1195   1.366   2.104   2.067
  397TIP3   OH2 1196   2.060   2.188   1.885
  397TIP3    H1 1197   2.018   2.209   1.800
  397TIP3    H2 1198   2.091   2.096   1.873
  398TIP3   OH2 1199   2.551   2.201   1.493
  398TIP3    H1 1200   2.627   2.244   1.449
  398TIP3    H2 1201   2.482   2.268   1.478
  399TIP3   OH2 1202   1.575   1.840   2.097
  399TIP3    H1 1203   1.649   1.785   2.072
  399TIP3    H2 1204   1.603   1.871   2.186
  400TIP3   OH2 1205   1.912   1.724   1.760
  400TIP3    H1 1206   1.830   1.778   1.759
  400TIP3    H2 1207   1.957   1.754   1.678
  401TIP3   OH2 1208   2.423   2.120   1.885
  401TIP3    H1 1209   2.502   2.088   1.842
  401TIP3    H2 1210   2.415   2.058   1.961
  402TIP3   OH2 1211   2.577   1.789   0.009
  402TIP3    H1 1212   2.504   1.748  -0.039
  402TIP3    H2 1213   2.548   1.881   0.013
  403TIP3   OH2 1214   2.033   1.509   1.879
  403TIP3    H1 1215   2.030   1.431   1.820
  403TIP3    H2 1216   1.989   1.578   1.824
  404TIP3   OH2 1217   2.028   1.296   1.687
  404TIP3    H1 1218   2.055   1.334   1.602
  404TIP3    H2 1219   1.936   1.269   1.669
  405TIP3   OH2 1220   2.056   1.826   1.556
  405TIP3    H1 1221   2.143   1.846   1.520
  405TIP3    H2 1222   1.999   1.894   1.512
  406TIP3   OH2 1223   2.637   1.795   1.938
  406TIP3    H1 1224   2.685   1.712   1.953
  406TIP3    H2 1225   2.706   1.853   1.904
  407TIP3   OH2 1226   2.680   2.048   1.674
  407TIP3    H1 1227   2.622   2.105   1.618
  407TIP3    H2 1228   2.768   2.070   1.636
  408TIP3   OH2 1229   1.911   1.611   2.114
  408TIP3    H1 1230   1.842   1.543   2.130
  408TIP3    H2 1231   1.942   1.586   2.025
  409TIP3   OH2 1232   2.168   1.064   1.763
  409TIP3    H1 1233   2.117   1.143   1.737
  409TIP3    H2 1234   2.101   0.993   1.753
  410TIP3   OH2 1235   2.291   1.555   1.973
  410TIP3    H1 1236   2.273   1.542   2.068
  410TIP3    H2 1237   2.202   1.534   1.937
  411TIP3   OH2 1238   2.528   1.507   1.828
  411TIP3    H1 1239   2.452   1.509   1.889
  411TIP3    H2 1240   2.602   1.478   1.886
  412TIP3   OH2 1241   2.764   1.454   1.977
  412TIP3    H1 1242   2.774   1.358   1.992
  412TIP3    H2 1243   2.755   1.489   2.068
  413TIP3   OH2 1244   1.748   1.393   2.170
  413TIP3    H1 1245   1.750   1.302   2.136
  413TIP3    H2 1246   1.785   1.379   2.260
  414TIP3   OH2 1247   2.256   1.064   2.022
  414TIP3    H1 1248   2.322   0.993   2.013
  414TIP3    H2 1249   2.218   1.065   1.932
  415TIP3   OH2 1250   2.325   1.280   2.176
  415TIP3    H1 1251   2.302   1.208   2.112
  415TIP3    H2 1252   2.246   1.338   2.169
  416TIP3   OH2 1253   1.569   2.550   0.174
  416TIP3    H1 1254   1.653   2.538   0.221
  416TIP3    H2 1255   1.517   2.601   0.238
  417TIP3   OH2 1256   0.955   2.493   0.890
  417TIP3    H1 1257   0.882   2.440   0.856
  417TIP3    H2 1258   0.992   2.434   0.959
  418TIP3   OH2 1259   1.081   2.346   1.084
  418TIP3    H1 1260   1.071   2.281   1.156
  418TIP3    H2 1261   1.130   2.414   1.134
  419TIP3   OH2 1262   2.808   2.750   0.894
  419TIP3    H1 1263   2.831   2.780   0.984
  419TIP3    H2 1264   2.874   2.796   0.839
  420TIP3   OH2 1265   2.834   2.772   1.175
  420TIP3    H1 1266   2.787   2.686   1.172
  420TIP3    H2 1267   2.906   2.749   1.236
  421TIP3   OH2 1268   2.880   2.450   1.747
  421TIP3    H1 1269   2.809   2.460   1.813
  421TIP3    H2 1270   2.923   2.538   1.751
  422TIP3   OH2 1271   2.702   1.959   0.362
  422TIP3    H1 1272   2.766   2.028   0.336
  422TIP3    H2 1273   2.745   1.921   0.442
  423TIP3   OH2 1274   2.827   1.828   0.570
  423TIP3    H1 1275   2.759   1.786   0.628
  423TIP3    H2 1276   2.889   1.866   0.635
  424TIP3   OH2 1277   2.883   2.227   1.001
  424TIP3    H1 1278   2.935   2.159   0.955
  424TIP3    H2 1279   2.877   2.297   0.934
  425TIP3   OH2 1280   2.707   2.524   1.194
  425TIP3    H1 1281   2.636   2.565   1.247
  425TIP3    H2 1282   2.656   2.478   1.124
  426TIP3   OH2 1283   2.758   1.736   0.212
  426TIP3    H1 1284   2.696   1.746   0.137
  426TIP3    H2 1285   2.732   1.812   0.268
  427TIP3   OH2 1286   2.648   1.425   0.143
  427TIP3    H1 1287   2.585   1.497   0.125
  427TIP3    H2 1288   2.620   1.359   0.077
  428TIP3   OH2 1289   2.639   1.686   0.713
  428TIP3    H1 1290   2.644   1.590   0.704
  428TIP3    H2 1291   2.623   1.698   0.809
  429TIP3   OH2 1292   1.266   1.748   1.462
  429TIP3    H1 1293   1.271   1.723   1.369
  429TIP3    H2 1294   1.362   1.753   1.484
  430TIP3   OH2 1295   2.927   2.114   1.573
  430TIP3    H1 1296   2.998   2.047   1.559
  430TIP3    H2 1297   2.952   2.183   1.509
  431TIP3   OH2 1298   3.109   1.912   1.574
  431TIP3    H1 1299   3.034   1.865   1.617
  431TIP3    H2 1300   3.181   1.849   1.594
  432TIP3   OH2 1301   2.645   1.405   0.615
  432TIP3    H1 1302   2.684   1.316   0.625
  432TIP3    H2 1303   2.688   1.434   0.533
  433TIP3   OH2 1304   2.793   1.571   1.106
  433TIP3    H1 1305   2.877   1.597   1.063
  433TIP3    H2 1306   2.807   1.612   1.194
  434TIP3   OH2 1307   2.866   1.722   1.333
  434TIP3    H1 1308   2.789   1.755   1.384
  434TIP3    H2 1309   2.897   1.805   1.290
  435TIP3   OH2 1310   1.482   1.450   2.142
  435TIP3    H1 1311   1.580   1.442   2.146
  435TIP3    H2 1312   1.456   1.363   2.177
  436TIP3   OH2 1313   3.320   1.320   1.890
  436TIP3    H1 1314   3.377   1.255   1.844
  436TIP3    H2 1315   3.284   1.371   1.814
  437TIP3   OH2 1316   2.739   1.144   0.641
  437TIP3    H1 1317   2.788   1.131   0.726
  437TIP3    H2 1318   2.670   1.075   0.650
  438TIP3   OH2 1319   1.301   1.439   1.556
  438TIP3    H1 1320   1.254   1.404   1.479
  438TIP3    H2 1321   1.260   1.526   1.568
  439TIP3   OH2 1322   3.183   1.450   1.696
  439TIP3    H1 1323   3.098   1.494   1.719
  439TIP3    H2 1324   3.148   1.379   1.638
  440TIP3   OH2 1325   2.850   1.164   0.182
  440TIP3    H1 1326   2.874   1.080   0.221
  440TIP3    H2 1327   2.912   1.226   0.226
  441TIP3   OH2 1328   2.392   2.619   0.549
  441TIP3    H1 1329   2.445   2.609   0.467
  441TIP3    H2 1330   2.442   2.687   0.598
  442TIP3   OH2 1331   1.454   1.015   1.845
  442TIP3    H1 1332   1.411   0.997   1.930
  442TIP3    H2 1333   1.388   1.071   1.803
  443TIP3   OH2 1334   1.488   2.428   1.929
  443TIP3    H1 1335   1.393   2.405   1.917
  443TIP3    H2 1336   1.501   2.407   2.022
  444TIP3   OH2 1337   1.670   2.461   1.479
  444TIP3    H1 1338   1.622   2.538   1.441
  444TIP3    H2 1339   1.756   2.475   1.433
  445TIP3   OH2 1340   2.105   2.702   1.613
  445TIP3    H1 1341   2.146   2.698   1.702
  445TIP3    H2 1342   2.171   2.755   1.564
  446TIP3   OH2 1343   2.287   2.858   1.478
  446TIP3    H1 1344   2.358   2.805   1.439
  446TIP3    H2 1345   2.338   2.915   1.540
  447TIP3   OH2 1346   3.084   1.213   1.574
  447TIP3    H1 1347   2.993   1.205   1.540
  447TIP3    H2 1348   3.116   1.121   1.564
  448TIP3   OH2 1349   1.342   2.720   1.502
  448TIP3    H1 1350   1.251   2.751   1.484
  448TIP3    H2 1351   1.358   2.761   1.588
  449TIP3   OH2 1352   1.579   2.695   1.363
  449TIP3    H1 1353   1.491   2.706   1.406
  449TIP3    H2 1354   1.559   2.724   1.272
  450TIP3   OH2 1355   2.005   2.719   1.161
  450TIP3    H1 1356   1.933   2.737   1.097
  450TIP3    H2 1357   2.016   2.807   1.203
  451TIP3   OH2 1358   2.273   2.658   1.213
  451TIP3    H1 1359   2.179   2.675   1.194
  451TIP3    H2 1360   2.316   2.732   1.167
  452TIP3   OH2 1361   2.479   2.850   1.124
  452TIP3    H1 1362   2.464   2.935   1.076
  452TIP3    H2 1363   2.504   2.790   1.050
  453TIP3   OH2 1364   1.253   2.509   1.248
  453TIP3    H1 1365   1.281   2.476   1.337
  453TIP3    H2 1366   1.326   2.468   1.195
  454TIP3   OH2 1367   1.456   2.390   1.115
  454TIP3    H1 1368   1.465   2.302   1.158
  454TIP3    H2 1369   1.550   2.420   1.114
  455TIP3   OH2 1370   1.722   2.471   1.115
  455TIP3    H1 1371   1.750   2.378   1.107
  455TIP3    H2 1372   1.772   2.496   1.196
  456TIP3   OH2 1373   2.293   1.147   1.212
  456TIP3    H1 1374   2.252   1.090   1.281
  456TIP3    H2 1375   2.340   1.081   1.159
  457TIP3   OH2 1376   2.815   0.999   1.089
  457TIP3    H1 1377   2.848   1.057   1.017
  457TIP3    H2 1378   2.719   1.021   1.088
  458TIP3   OH2 1379   2.906   1.107   0.856
  458TIP3    H1 1380   2.983   1.057   0.821
  458TIP3    H2 1381   2.939   1.199   0.844
  459TIP3   OH2 1382   2.544   1.021   1.075
  459TIP3    H1 1383   2.469   1.020   1.014
  459TIP3    H2 1384   2.525   0.942   1.130
  460TIP3   OH2 1385   1.831   2.473   0.230
  460TIP3    H1 1386   1.925   2.489   0.202
  460TIP3    H2 1387   1.801   2.429   0.148
  461TIP3   OH2 1388   2.541   2.588   0.314
  461TIP3    H1 1389   2.534   2.491   0.303
  461TIP3    H2 1390   2.490   2.620   0.237
  462TIP3   OH2 1391   1.745   1.119   2.105
  462TIP3    H1 1392   1.710   1.048   2.162
  462TIP3    H2 1393   1.839   1.120   2.132
  463TIP3   OH2 1394   1.997   1.116   2.221
  463TIP3    H1 1395   2.082   1.091   2.181
  463TIP3    H2 1396   1.985   1.044   2.287
  464TIP3   OH2 1397   2.823   1.182   2.007
  464TIP3    H1 1398   2.840   1.153   2.099
  464TIP3    H2 1399   2.912   1.176   1.968
  465TIP3   OH2 1400   2.757   2.729   1.498
  465TIP3    H1 1401   2.677   2.699   1.450
  465TIP3    H2 1402   2.737   2.825   1.508
  466TIP3   OH2 1403   4.023   2.103   0.270
  466TIP3    H1 1404   3.994   2.194   0.247
  466TIP3    H2 1405   3.947   2.052   0.236
  467TIP3   OH2 1406   4.029   2.106   0.654
  467TIP3    H1 1407   4.063   2.080   0.742
  467TIP3    H2 1408   3.985   2.025   0.625
  468TIP3   OH2 1409   3.322   1.994   1.013
  468TIP3    H1 1410   3.352   1.926   1.076
  468TIP3    H2 1411   3.400   2.051   1.009
  469TIP3   OH2 1412   4.277   2.402   0.337
  469TIP3    H1 1413   4.256   2.338   0.406
  469TIP3    H2 1414   4.303   2.480   0.388
  470TIP3   OH2 1415   3.299   2.410   0.734
  470TIP3    H1 1416   3.290   2.312   0.735
  470TIP3    H2 1417   3.396   2.418   0.727
  471TIP3   OH2 1418   3.002   1.611   0.517
  471TIP3    H1 1419   2.954   1.692   0.538
  471TIP3    H2 1420   2.930   1.560   0.475
  472TIP3   OH2 1421   3.060   1.898   0.702
  472TIP3    H1 1422   3.112   1.821   0.734
  472TIP3    H2 1423   3.119   1.936   0.635
  473TIP3   OH2 1424   3.919   2.864   0.357
  473TIP3    H1 1425   3.958   2.793   0.301
  473TIP3    H2 1426   3.911   2.820   0.442
  474TIP3   OH2 1427   3.821   2.331   0.695
  474TIP3    H1 1428   3.862   2.256   0.649
  474TIP3    H2 1429   3.903   2.378   0.722
  475TIP3   OH2 1430   4.838   1.654   0.695
  475TIP3    H1 1431   4.867   1.735   0.742
  475TIP3    H2 1432   4.851   1.680   0.602
  476TIP3   OH2 1433   4.238   1.828   0.726
  476TIP3    H1 1434   4.276   1.741   0.745
  476TIP3    H2 1435   4.201   1.813   0.637
  477TIP3   OH2 1436   3.581   1.489   0.689
  477TIP3    H1 1437   3.558   1.563   0.629
  477TIP3    H2 1438   3.530   1.416   0.647
  478TIP3   OH2 1439   4.278   1.593   0.324
  478TIP3    H1 1440   4.352   1.563   0.381
  478TIP3    H2 1441   4.327   1.629   0.249
  479TIP3   OH2 1442   3.209   1.691   0.802
  479TIP3    H1 1443   3.292   1.672   0.849
  479TIP3    H2 1444   3.221   1.637   0.721
  480TIP3   OH2 1445   3.647   1.890   0.597
  480TIP3    H1 1446   3.741   1.866   0.609
  480TIP3    H2 1447   3.608   1.806   0.564
  481TIP3   OH2 1448   4.911   1.860   0.866
  481TIP3    H1 1449   4.825   1.904   0.850
  481TIP3    H2 1450   4.934   1.895   0.953
  482TIP3   OH2 1451   3.571   1.473   1.129
  482TIP3    H1 1452   3.513   1.511   1.059
  482TIP3    H2 1453   3.516   1.492   1.208
  483TIP3   OH2 1454   3.911   2.322   0.157
  483TIP3    H1 1455   3.884   2.308   0.065
  483TIP3    H2 1456   3.867   2.408   0.176
  484TIP3   OH2 1457   3.677   2.250   0.917
  484TIP3    H1 1458   3.617   2.320   0.953
  484TIP3    H2 1459   3.721   2.297   0.844
  485TIP3   OH2 1460   4.489   1.573   0.506
  485TIP3    H1 1461   4.441   1.554   0.588
  485TIP3    H2 1462   4.531   1.659   0.528
  486TIP3   OH2 1463   3.446   1.588   0.909
  486TIP3    H1 1464   3.506   1.662   0.932
  486TIP3    H2 1465   3.496   1.548   0.834
  487TIP3   OH2 1466   3.509   2.448   1.018
  487TIP3    H1 1467   3.483   2.536   0.983
  487TIP3    H2 1468   3.430   2.430   1.073
  488TIP3   OH2 1469   2.899   2.137   0.259
  488TIP3    H1 1470   2.858   2.160   0.174
  488TIP3    H2 1471   2.928   2.225   0.292
  489TIP3   OH2 1472   4.338   2.653   0.493
  489TIP3    H1 1473   4.248   2.643   0.533
  489TIP3    H2 1474   4.328   2.739   0.448
  490TIP3   OH2 1475   4.631   1.552   0.860
  490TIP3    H1 1476   4.544   1.579   0.825
  490TIP3    H2 1477   4.692   1.583   0.790
  491TIP3   OH2 1478   3.924   1.188   0.849
  491TIP3    H1 1479   3.904   1.094   0.865
  491TIP3    H2 1480   3.847   1.230   0.892
  492TIP3   OH2 1481   4.031   2.696   0.170
  492TIP3    H1 1482   4.087   2.617   0.146
  492TIP3    H2 1483   4.083   2.767   0.127
  493TIP3   OH2 1484   4.182   2.485   0.087
  493TIP3    H1 1485   4.177   2.408   0.027
  493TIP3    H2 1486   4.214   2.443   0.170
  494TIP3   OH2 1487   4.563   2.560   0.839
  494TIP3    H1 1488   4.550   2.483   0.779
  494TIP3    H2 1489   4.545   2.635   0.779
  495TIP3   OH2 1490   3.854   1.954   0.105
  495TIP3    H1 1491   3.771   2.004   0.089
  495TIP3    H2 1492   3.893   1.953   0.017
  496TIP3   OH2 1493   3.816   1.712  -0.177
  496TIP3    H1 1494   3.893   1.767  -0.151
  496TIP3    H2 1495   3.843   1.624  -0.150
  497TIP3   OH2 1496   4.758   2.199   0.688
  497TIP3    H1 1497   4.674   2.251   0.691
  497TIP3    H2 1498   4.789   2.223   0.597
  498TIP3   OH2 1499   4.193   2.025   0.076
  498TIP3    H1 1500   4.140   2.056   0.154
  498TIP3    H2 1501   4.279   2.006   0.119
  499TIP3   OH2 1502   4.438   2.074   0.988
  499TIP3    H1 1503   4.436   2.158   1.038
  499TIP3    H2 1504   4.352   2.080   0.942
  500TIP3   OH2 1505   3.433   2.031   0.488
  500TIP3    H1 1506   3.395   1.973   0.418
  500TIP3    H2 1507   3.511   1.980   0.517
  501TIP3   OH2 1508   3.565   2.451   0.630
  501TIP3    H1 1509   3.545   2.417   0.541
  501TIP3    H2 1510   3.653   2.412   0.648
  502TIP3   OH2 1511   3.572   2.006   0.841
  502TIP3    H1 1512   3.605   1.983   0.752
  502TIP3    H2 1513   3.615   2.093   0.857
  503TIP3   OH2 1514   4.099   2.645   0.619
  503TIP3    H1 1515   4.085   2.725   0.672
  503TIP3    H2 1516   4.082   2.572   0.682
  504TIP3   OH2 1517   3.711   2.562   1.166
  504TIP3    H1 1518   3.650   2.623   1.212
  504TIP3    H2 1519   3.647   2.509   1.114
  505TIP3   OH2 1520   4.041   1.888  -0.101
  505TIP3    H1 1521   4.099   1.940  -0.040
  505TIP3    H2 1522   4.043   1.949  -0.178
  506TIP3   OH2 1523   3.467   2.114   1.272
  506TIP3    H1 1524   3.472   2.204   1.311
  506TIP3    H2 1525   3.371   2.096   1.285
  507TIP3   OH2 1526   3.788   2.571   0.173
  507TIP3    H1 1527   3.872   2.620   0.179
  507TIP3    H2 1528   3.731   2.633   0.125
  508TIP3   OH2 1529   3.504   2.726   1.253
  508TIP3    H1 1530   3.470   2.729   1.162
  508TIP3    H2 1531   3.424   2.705   1.305
  509TIP3   OH2 1532   3.305   1.875   0.285
  509TIP3    H1 1533   3.235   1.924   0.235
  509TIP3    H2 1534   3.260   1.793   0.305
  510TIP3   OH2 1535   3.083   2.263   1.199
  510TIP3    H1 1536   3.014   2.244   1.132
  510TIP3    H2 1537   3.120   2.175   1.218
  511TIP3   OH2 1538   2.939   2.456   0.827
  511TIP3    H1 1539   3.035   2.452   0.822
  511TIP3    H2 1540   2.925   2.533   0.884
  512TIP3   OH2 1541   4.803   2.910   0.893
  512TIP3    H1 1542   4.800   2.814   0.908
  512TIP3    H2 1543   4.718   2.937   0.935
  513TIP3   OH2 1544   3.907   2.692   1.022
  513TIP3    H1 1545   3.903   2.785   1.053
  513TIP3    H2 1546   3.836   2.650   1.076
  514TIP3   OH2 1547   3.662   2.824  -0.034
  514TIP3    H1 1548   3.601   2.819  -0.107
  514TIP3    H2 1549   3.644   2.913   0.002
  515TIP3   OH2 1550   3.109   2.669   0.358
  515TIP3    H1 1551   3.153   2.660   0.445
  515TIP3    H2 1552   3.060   2.585   0.354
  516TIP3   OH2 1553   3.913   2.758  -0.138
  516TIP3    H1 1554   3.828   2.777  -0.093
  516TIP3    H2 1555   3.962   2.711  -0.070
  517TIP3   OH2 1556   4.691   2.037   1.165
  517TIP3    H1 1557   4.607   2.047   1.118
  517TIP3    H2 1558   4.707   1.941   1.156
  518TIP3   OH2 1559   3.289   2.445   1.180
  518TIP3    H1 1560   3.336   2.431   1.264
  518TIP3    H2 1561   3.213   2.383   1.188
  519TIP3   OH2 1562   3.687   1.269   0.975
  519TIP3    H1 1563   3.598   1.238   0.945
  519TIP3    H2 1564   3.660   1.349   1.023
  520TIP3   OH2 1565   4.223   1.378   1.166
  520TIP3    H1 1566   4.292   1.356   1.233
  520TIP3    H2 1567   4.140   1.362   1.215
  521TIP3   OH2 1568   4.455   1.812   1.084
  521TIP3    H1 1569   4.406   1.810   1.169
  521TIP3    H2 1570   4.433   1.901   1.049
  522TIP3   OH2 1571   3.811   1.393  -0.048
  522TIP3    H1 1572   3.778   1.361   0.038
  522TIP3    H2 1573   3.797   1.315  -0.103
  523TIP3   OH2 1574   3.621   1.784   0.990
  523TIP3    H1 1575   3.569   1.803   1.072
  523TIP3    H2 1576   3.604   1.866   0.938
  524TIP3   OH2 1577   3.503   1.672   0.506
  524TIP3    H1 1578   3.410   1.646   0.524
  524TIP3    H2 1579   3.514   1.633   0.417
  525TIP3   OH2 1580   3.990   1.758   0.242
  525TIP3    H1 1581   3.940   1.830   0.197
  525TIP3    H2 1582   4.046   1.725   0.170
  526TIP3   OH2 1583   4.167   2.029   1.314
  526TIP3    H1 1584   4.144   1.957   1.378
  526TIP3    H2 1585   4.260   2.045   1.339
  527TIP3   OH2 1586   4.147   1.784   0.473
  527TIP3    H1 1587   4.083   1.810   0.403
  527TIP3    H2 1588   4.186   1.706   0.427
  528TIP3   OH2 1589   3.440   1.812   1.198
  528TIP3    H1 1590   3.461   1.878   1.265
  528TIP3    H2 1591   3.425   1.731   1.251
  529TIP3   OH2 1592   3.464   1.295  -0.075
  529TIP3    H1 1593   3.467   1.307   0.022
  529TIP3    H2 1594   3.408   1.367  -0.102
  530TIP3   OH2 1595   3.036   1.330   0.780
  530TIP3    H1 1596   3.105   1.366   0.839
  530TIP3    H2 1597   3.084   1.309   0.699
  531TIP3   OH2 1598   3.024   1.344   0.310
  531TIP3    H1 1599   3.064   1.381   0.228
  531TIP3    H2 1600   2.957   1.414   0.329
  532TIP3   OH2 1601   4.161   2.027   0.891
  532TIP3    H1 1602   4.194   1.956   0.831
  532TIP3    H2 1603   4.129   1.973   0.966
  533TIP3   OH2 1604   3.837   1.493   0.567
  533TIP3    H1 1605   3.753   1.492   0.618
  533TIP3    H2 1606   3.903   1.497   0.639
  534TIP3   OH2 1607   3.264   1.551   0.570
  534TIP3    H1 1608   3.170   1.559   0.541
  534TIP3    H2 1609   3.286   1.460   0.545
  535TIP3   OH2 1610   3.530   1.548   0.266
  535TIP3    H1 1611   3.625   1.561   0.246
  535TIP3    H2 1612   3.486   1.565   0.180
  536TIP3   OH2 1613   4.321   1.565   0.759
  536TIP3    H1 1614   4.298   1.578   0.853
  536TIP3    H2 1615   4.248   1.506   0.732
  537TIP3   OH2 1616   3.381   1.567   0.039
  537TIP3    H1 1617   3.286   1.571   0.022
  537TIP3    H2 1618   3.421   1.612  -0.038
  538TIP3   OH2 1619   4.498   3.256   0.992
  538TIP3    H1 1620   4.496   3.281   0.897
  538TIP3    H2 1621   4.579   3.303   1.022
  539TIP3   OH2 1622   3.450   2.365   1.405
  539TIP3    H1 1623   3.529   2.396   1.454
  539TIP3    H2 1624   3.384   2.366   1.477
  540TIP3   OH2 1625   3.912   1.822   0.663
  540TIP3    H1 1626   3.986   1.784   0.614
  540TIP3    H2 1627   3.918   1.779   0.750
  541TIP3   OH2 1628   3.431   1.307   0.546
  541TIP3    H1 1629   3.396   1.230   0.595
  541TIP3    H2 1630   3.466   1.265   0.466
  542TIP3   OH2 1631   3.889   1.723   0.951
  542TIP3    H1 1632   3.798   1.757   0.966
  542TIP3    H2 1633   3.944   1.785   1.001
  543TIP3   OH2 1634   3.624   2.100   0.053
  543TIP3    H1 1635   3.549   2.038   0.038
  543TIP3    H2 1636   3.599   2.137   0.142
  544TIP3   OH2 1637   4.524   2.343   0.672
  544TIP3    H1 1638   4.548   2.394   0.592
  544TIP3    H2 1639   4.438   2.303   0.645
  545TIP3   OH2 1640   4.072   1.450  -0.108
  545TIP3    H1 1641   3.979   1.426  -0.082
  545TIP3    H2 1642   4.085   1.534  -0.060
  546TIP3   OH2 1643   4.021   2.425   1.047
  546TIP3    H1 1644   4.058   2.414   1.135
  546TIP3    H2 1645   3.985   2.515   1.050
  547TIP3   OH2 1646   4.149   1.672   0.030
  547TIP3    H1 1647   4.244   1.687   0.047
  547TIP3    H2 1648   4.125   1.749  -0.026
  548TIP3   OH2 1649   3.320   2.134   0.721
  548TIP3    H1 1650   3.358   2.103   0.636
  548TIP3    H2 1651   3.362   2.074   0.784
  549TIP3   OH2 1652   3.789   2.262  -0.086
  549TIP3    H1 1653   3.730   2.341  -0.090
  549TIP3    H2 1654   3.731   2.202  -0.033
  550TIP3   OH2 1655   3.203   2.046   1.335
  550TIP3    H1 1656   3.215   2.032   1.431
  550TIP3    H2 1657   3.130   1.985   1.316
  551TIP3   OH2 1658   3.928   2.168   1.356
  551TIP3    H1 1659   3.865   2.108   1.313
  551TIP3    H2 1660   4.013   2.132   1.325
  552TIP3   OH2 1661   4.183   2.685   0.943
  552TIP3    H1 1662   4.086   2.686   0.956
  552TIP3    H2 1663   4.211   2.739   1.021
  553TIP3   OH2 1664   4.813   2.618   0.930
  553TIP3    H1 1665   4.715   2.613   0.921
  553TIP3    H2 1666   4.839   2.590   0.840
  554TIP3   OH2 1667   4.289   2.210   0.587
  554TIP3    H1 1668   4.196   2.185   0.602
  554TIP3    H2 1669   4.323   2.128   0.545
  555TIP3   OH2 1670   3.424   2.437   0.354
  555TIP3    H1 1671   3.422   2.514   0.296
  555TIP3    H2 1672   3.331   2.412   0.356
  556TIP3   OH2 1673   2.994   1.735   0.068
  556TIP3    H1 1674   3.034   1.824   0.080
  556TIP3    H2 1675   2.913   1.742   0.122
  557TIP3   OH2 1676   3.549   2.197   0.294
  557TIP3    H1 1677   3.519   2.288   0.312
  557TIP3    H2 1678   3.512   2.149   0.370
  558TIP3   OH2 1679   3.693   2.776   0.816
  558TIP3    H1 1680   3.734   2.849   0.765
  558TIP3    H2 1681   3.769   2.740   0.863
  559TIP3   OH2 1682   3.334   2.677   0.194
  559TIP3    H1 1683   3.250   2.680   0.244
  559TIP3    H2 1684   3.364   2.770   0.203
  560TIP3   OH2 1685   4.073   2.414   0.778
  560TIP3    H1 1686   4.062   2.412   0.876
  560TIP3    H2 1687   4.152   2.361   0.767
  561TIP3   OH2 1688   4.325   2.939   0.829
  561TIP3    H1 1689   4.245   2.883   0.824
  561TIP3    H2 1690   4.308   3.003   0.756
  562TIP3   OH2 1691   3.407   1.555   1.339
  562TIP3    H1 1692   3.310   1.562   1.351
  562TIP3    H2 1693   3.432   1.502   1.416
  563TIP3   OH2 1694   4.212   2.249  -0.081
  563TIP3    H1 1695   4.208   2.171  -0.023
  563TIP3    H2 1696   4.297   2.236  -0.125
  564TIP3   OH2 1697   3.129   2.639   0.973
  564TIP3    H1 1698   3.183   2.568   1.011
  564TIP3    H2 1699   3.150   2.713   1.031
  565TIP3   OH2 1700   3.341   2.301  -0.028
  565TIP3    H1 1701   3.429   2.266  -0.020
  565TIP3    H2 1702   3.357   2.397  -0.044
  566TIP3   OH2 1703   3.097   1.984   0.139
  566TIP3    H1 1704   3.031   2.035   0.191
  566TIP3    H2 1705   3.116   2.048   0.068
  567TIP3   OH2 1706   4.259   1.612   1.020
  567TIP3    H1 1707   4.332   1.658   1.064
  567TIP3    H2 1708   4.244   1.535   1.078
  568TIP3   OH2 1709   4.107   1.392   0.214
  568TIP3    H1 1710   4.099   1.393   0.118
  568TIP3    H2 1711   4.162   1.471   0.233
  569TIP3   OH2 1712   3.625   2.472  -0.115
  569TIP3    H1 1713   3.542   2.519  -0.092
  569TIP3    H2 1714   3.647   2.508  -0.202
  570TIP3   OH2 1715   3.810   1.558   0.298
  570TIP3    H1 1716   3.875   1.628   0.278
  570TIP3    H2 1717   3.818   1.552   0.396
  571TIP3   OH2 1718   4.087   1.866   1.099
  571TIP3    H1 1719   4.110   1.922   1.176
  571TIP3    H2 1720   4.140   1.786   1.116
  572TIP3   OH2 1721   3.950   1.287   0.409
  572TIP3    H1 1722   3.925   1.368   0.459
  572TIP3    H2 1723   4.011   1.327   0.342
  573TIP3   OH2 1724   3.380   2.580  -0.058
  573TIP3    H1 1725   3.359   2.660  -0.107
  573TIP3    H2 1726   3.364   2.608   0.035
  574TIP3   OH2 1727   3.470   1.282   0.207
  574TIP3    H1 1728   3.468   1.374   0.239
  574TIP3    H2 1729   3.567   1.267   0.205
  575TIP3   OH2 1730   4.720   1.769   1.085
  575TIP3    H1 1731   4.622   1.769   1.090
  575TIP3    H2 1732   4.733   1.723   1.001
  576TIP3   OH2 1733   4.375   1.962   0.477
  576TIP3    H1 1734   4.296   1.906   0.490
  576TIP3    H2 1735   4.444   1.913   0.526
  577TIP3   OH2 1736   3.088   2.198  -0.055
  577TIP3    H1 1737   3.170   2.249  -0.040
  577TIP3    H2 1738   3.122   2.134  -0.121
  578TIP3   OH2 1739   3.053   1.472   0.067
  578TIP3    H1 1740   3.035   1.569   0.063
  578TIP3    H2 1741   2.978   1.437   0.018
  579TIP3   OH2 1742   4.335   2.920   0.412
  579TIP3    H1 1743   4.292   2.975   0.343
  579TIP3    H2 1744   4.428   2.950   0.400
  580TIP3   OH2 1745   3.425   1.188   0.942
  580TIP3    H1 1746   3.392   1.155   0.855
  580TIP3    H2 1747   3.412   1.109   0.999
  581TIP3   OH2 1748   2.960   2.412   0.326
  581TIP3    H1 1749   2.894   2.439   0.392
  581TIP3    H2 1750   2.924   2.451   0.244
  582TIP3   OH2 1751   3.122   2.959   1.395
  582TIP3    H1 1752   3.207   2.961   1.445
  582TIP3    H2 1753   3.102   2.864   1.397
  583TIP3   OH2 1754   3.595   2.907   1.442
  583TIP3    H1 1755   3.690   2.891   1.449
  583TIP3    H2 1756   3.570   2.845   1.371
  584TIP3   OH2 1757   4.237   2.821   1.176
  584TIP3    H1 1758   4.232   2.750   1.245
  584TIP3    H2 1759   4.314   2.873   1.205
  585TIP3   OH2 1760   3.248   2.358   1.596
  585TIP3    H1 1761   3.263   2.262   1.604
  585TIP3    H2 1762   3.160   2.361   1.553
  586TIP3   OH2 1763   3.227   2.008  -0.188
  586TIP3    H1 1764   3.309   1.985  -0.141
  586TIP3    H2 1765   3.256   2.072  -0.255
  587TIP3   OH2 1766   3.856   2.445   1.372
  587TIP3    H1 1767   3.813   2.466   1.287
  587TIP3    H2 1768   3.887   2.353   1.359
  588TIP3   OH2 1769   4.347   2.457   0.980
  588TIP3    H1 1770   4.423   2.500   0.936
  588TIP3    H2 1771   4.278   2.525   0.965
  589TIP3   OH2 1772   3.368   2.095   1.585
  589TIP3    H1 1773   3.446   2.046   1.556
  589TIP3    H2 1774   3.397   2.126   1.673
  590TIP3   OH2 1775   3.434   1.909   0.009
  590TIP3    H1 1776   3.401   1.872   0.093
  590TIP3    H2 1777   3.466   1.830  -0.039
  591TIP3   OH2 1778   3.706   1.976   1.245
  591TIP3    H1 1779   3.627   2.033   1.248
  591TIP3    H2 1780   3.752   2.009   1.164
  592TIP3   OH2 1781   3.534   1.698  -0.151
  592TIP3    H1 1782   3.521   1.679  -0.244
  592TIP3    H2 1783   3.632   1.708  -0.148
  593TIP3   OH2 1784   4.219   2.376   1.373
  593TIP3    H1 1785   4.298   2.345   1.327
  593TIP3    H2 1786   4.213   2.314   1.448
  594TIP3   OH2 1787   3.829   1.765   1.366
  594TIP3    H1 1788   3.828   1.687   1.306
  594TIP3    H2 1789   3.785   1.834   1.311
  595TIP3   OH2 1790   3.831   1.550   1.174
  595TIP3    H1 1791   3.857   1.593   1.091
  595TIP3    H2 1792   3.737   1.528   1.156
  596TIP3   OH2 1793   3.853   2.085   1.046
  596TIP3    H1 1794   3.938   2.105   1.008
  596TIP3    H2 1795   3.795   2.150   1.001
  597TIP3   OH2 1796   4.434   2.051   1.425
  597TIP3    H1 1797   4.484   1.969   1.440
  597TIP3    H2 1798   4.503   2.110   1.390
  598TIP3   OH2 1799   4.476   2.304   1.162
  598TIP3    H1 1800   4.419   2.361   1.105
  598TIP3    H2 1801   4.564   2.326   1.123
  599TIP3   OH2 1802   3.707   1.867   1.601
  599TIP3    H1 1803   3.637   1.801   1.617
  599TIP3    H2 1804   3.738   1.843   1.512
  600TIP3   OH2 1805   3.960   1.312   1.248
  600TIP3    H1 1806   3.912   1.394   1.223
  600TIP3    H2 1807   3.889   1.245   1.236
  601TIP3   OH2 1808   4.087   1.812   1.460
  601TIP3    H1 1809   4.070   1.800   1.555
  601TIP3    H2 1810   3.998   1.791   1.425
  602TIP3   OH2 1811   4.322   1.761   1.313
  602TIP3    H1 1812   4.248   1.765   1.376
  602TIP3    H2 1813   4.397   1.735   1.371
  603TIP3   OH2 1814   4.554   1.709   1.464
  603TIP3    H1 1815   4.568   1.614   1.480
  603TIP3    H2 1816   4.549   1.745   1.555
  604TIP3   OH2 1817   3.543   1.648   1.657
  604TIP3    H1 1818   3.547   1.557   1.624
  604TIP3    H2 1819   3.580   1.637   1.747
  605TIP3   OH2 1820   4.049   1.319   1.508
  605TIP3    H1 1821   4.118   1.250   1.497
  605TIP3    H2 1822   4.010   1.318   1.418
  606TIP3   OH2 1823   4.119   1.536   1.662
  606TIP3    H1 1824   4.096   1.465   1.597
  606TIP3    H2 1825   4.042   1.596   1.656
  607TIP3   OH2 1826   2.824   2.156  -0.011
  607TIP3    H1 1827   2.915   2.188  -0.030
  607TIP3    H2 1828   2.826   2.071  -0.056
  608TIP3   OH2 1829   2.742   2.760   0.392
  608TIP3    H1 1830   2.674   2.699   0.355
  608TIP3    H2 1831   2.785   2.701   0.458
  609TIP3   OH2 1832   2.872   2.606   0.580
  609TIP3    H1 1833   2.859   2.536   0.645
  609TIP3    H2 1834   2.924   2.669   0.633
  610TIP3   OH2 1835   4.574   3.038   0.392
  610TIP3    H1 1836   4.609   3.057   0.481
  610TIP3    H2 1837   4.657   3.030   0.341
  611TIP3   OH2 1838   4.629   3.029   0.666
  611TIP3    H1 1839   4.586   2.941   0.664
  611TIP3    H2 1840   4.711   3.007   0.714
  612TIP3   OH2 1841   4.677   2.707   1.234
  612TIP3    H1 1842   4.605   2.718   1.300
  612TIP3    H2 1843   4.720   2.795   1.238
  613TIP3   OH2 1844   4.641   2.049   0.078
  613TIP3    H1 1845   4.556   2.028   0.122
  613TIP3    H2 1846   4.645   2.144   0.084
  614TIP3   OH2 1847   4.679   2.480   0.488
  614TIP3    H1 1848   4.734   2.412   0.444
  614TIP3    H2 1849   4.678   2.551   0.422
  615TIP3   OH2 1850   4.502   2.779   0.681
  615TIP3    H1 1851   4.431   2.821   0.734
  615TIP3    H2 1852   4.451   2.735   0.610
  616TIP3   OH2 1853   4.419   1.953   0.207
  616TIP3    H1 1854   4.424   1.857   0.194
  616TIP3    H2 1855   4.409   1.963   0.304
  617TIP3   OH2 1856   3.057   2.016   0.951
  617TIP3    H1 1857   3.053   1.982   0.860
  617TIP3    H2 1858   3.155   2.018   0.965
  618TIP3   OH2 1859   4.723   2.370   1.060
  618TIP3    H1 1860   4.794   2.303   1.046
  618TIP3    H2 1861   4.748   2.440   0.998
  619TIP3   OH2 1862   4.904   2.168   1.060
  619TIP3    H1 1863   4.830   2.121   1.104
  619TIP3    H2 1864   4.978   2.106   1.080
  620TIP3   OH2 1865   4.421   1.692   0.100
  620TIP3    H1 1866   4.453   1.599   0.116
  620TIP3    H2 1867   4.479   1.717   0.027
  621TIP3   OH2 1868   4.587   1.824   0.593
  621TIP3    H1 1869   4.671   1.851   0.550
  621TIP3    H2 1870   4.601   1.865   0.681
  622TIP3   OH2 1871   4.659   1.978   0.818
  622TIP3    H1 1872   4.584   2.012   0.870
  622TIP3    H2 1873   4.692   2.060   0.775
  623TIP3   OH2 1874   3.276   1.700   1.620
  623TIP3    H1 1875   3.373   1.697   1.628
  623TIP3    H2 1876   3.252   1.615   1.661
  624TIP3   OH2 1877   5.109   1.574   1.377
  624TIP3    H1 1878   5.170   1.510   1.333
  624TIP3    H2 1879   5.079   1.628   1.300
  625TIP3   OH2 1880   4.482   1.438   0.137
  625TIP3    H1 1881   4.528   1.362   0.174
  625TIP3    H2 1882   4.423   1.392   0.071
  626TIP3   OH2 1883   3.240   1.397   0.952
  626TIP3    H1 1884   3.303   1.323   0.961
  626TIP3    H2 1885   3.301   1.472   0.944
  627TIP3   OH2 1886   3.037   1.667   1.026
  627TIP3    H1 1887   3.087   1.666   0.942
  627TIP3    H2 1888   3.061   1.753   1.062
  628TIP3   OH2 1889   4.979   1.710   1.182
  628TIP3    H1 1890   4.893   1.752   1.203
  628TIP3    H2 1891   4.947   1.636   1.126
  629TIP3   OH2 1892   3.022   1.167   0.517
  629TIP3    H1 1893   2.931   1.171   0.551
  629TIP3    H2 1894   3.023   1.239   0.450
  630TIP3   OH2 1895   4.148   2.909   0.038
  630TIP3    H1 1896   4.177   2.851  -0.037
  630TIP3    H2 1897   4.233   2.928   0.080
  631TIP3   OH2 1898   3.244   1.246   1.338
  631TIP3    H1 1899   3.194   1.247   1.422
  631TIP3    H2 1900   3.180   1.290   1.279
  632TIP3   OH2 1901   3.284   2.681   1.416
  632TIP3    H1 1902   3.189   2.661   1.402
  632TIP3    H2 1903   3.293   2.666   1.511
  633TIP3   OH2 1904   3.467   2.718   0.966
  633TIP3    H1 1905   3.417   2.794   0.929
  633TIP3    H2 1906   3.552   2.732   0.919
  634TIP3   OH2 1907   3.902   2.958   1.100
  634TIP3    H1 1908   3.943   2.956   1.189
  634TIP3    H2 1909   3.968   3.011   1.051
  635TIP3   OH2 1910   4.083   3.114   0.965
  635TIP3    H1 1911   4.154   3.062   0.925
  635TIP3    H2 1912   4.135   3.172   1.026
  636TIP3   OH2 1913   4.877   1.479   1.064
  636TIP3    H1 1914   4.787   1.463   1.031
  636TIP3    H2 1915   4.913   1.387   1.061
  637TIP3   OH2 1916   3.139   2.974   0.991
  637TIP3    H1 1917   3.048   3.003   0.970
  637TIP3    H2 1918   3.154   3.021   1.074
  638TIP3   OH2 1919   3.375   2.952   0.850
  638TIP3    H1 1920   3.288   2.963   0.895
  638TIP3    H2 1921   3.354   2.983   0.760
  639TIP3   OH2 1922   3.800   2.976   0.648
  639TIP3    H1 1923   3.731   2.994   0.582
  639TIP3    H2 1924   3.811   3.063   0.690
  640TIP3   OH2 1925   4.068   2.913   0.702
  640TIP3    H1 1926   3.975   2.932   0.681
  640TIP3    H2 1927   4.114   2.985   0.656
  641TIP3   OH2 1928   4.274   3.100   0.615
  641TIP3    H1 1929   4.252   3.186   0.572
  641TIP3    H2 1930   4.299   3.045   0.537
  642TIP3   OH2 1931   3.051   2.765   0.734
  642TIP3    H1 1932   3.076   2.734   0.823
  642TIP3    H2 1933   3.123   2.723   0.682
  643TIP3   OH2 1934   3.247   2.640   0.594
  643TIP3    H1 1935   3.259   2.554   0.642
  643TIP3    H2 1936   3.339   2.673   0.593
  644TIP3   OH2 1937   3.516   2.730   0.599
  644TIP3    H1 1938   3.542   2.636   0.590
  644TIP3    H2 1939   3.564   2.752   0.681
  645TIP3   OH2 1940   4.098   1.390   0.695
  645TIP3    H1 1941   4.046   1.320   0.737
  645TIP3    H2 1942   4.157   1.341   0.635
  646TIP3   OH2 1943   4.599   1.274   0.588
  646TIP3    H1 1944   4.630   1.347   0.533
  646TIP3    H2 1945   4.502   1.281   0.575
  647TIP3   OH2 1946   3.335   1.096   0.695
  647TIP3    H1 1947   3.243   1.062   0.701
  647TIP3    H2 1948   3.384   1.011   0.694
  648TIP3   OH2 1949   3.119   0.966   0.355
  648TIP3    H1 1950   3.169   1.020   0.289
  648TIP3    H2 1951   3.096   1.036   0.421
  649TIP3   OH2 1952   3.786   1.118   0.574
  649TIP3    H1 1953   3.838   1.173   0.512
  649TIP3    H2 1954   3.803   1.162   0.658
  650TIP3   OH2 1955   4.318   1.258   0.548
  650TIP3    H1 1956   4.313   1.236   0.454
  650TIP3    H2 1957   4.313   1.170   0.591
  651TIP3   OH2 1958   2.837   2.533   0.119
  651TIP3    H1 1959   2.751   2.498   0.090
  651TIP3    H2 1960   2.822   2.628   0.101
  652TIP3   OH2 1961   3.262   1.099   0.161
  652TIP3    H1 1962   3.275   1.092   0.066
  652TIP3    H2 1963   3.328   1.169   0.183
  653TIP3   OH2 1964   3.743   1.308   0.210
  653TIP3    H1 1965   3.808   1.254   0.256
  653TIP3    H2 1966   3.769   1.397   0.241
  654TIP3   OH2 1967   3.540   1.373   1.587
  654TIP3    H1 1968   3.505   1.303   1.645
  654TIP3    H2 1969   3.634   1.374   1.615
  655TIP3   OH2 1970   3.790   1.373   1.706
  655TIP3    H1 1971   3.876   1.351   1.667
  655TIP3    H2 1972   3.778   1.301   1.772
  656TIP3   OH2 1973   2.923   2.578  -0.188
  656TIP3    H1 1974   2.872   2.631  -0.125
  656TIP3    H2 1975   2.939   2.498  -0.138
  657TIP3   OH2 1976   4.619   1.438   1.494
  657TIP3    H1 1977   4.637   1.409   1.586
  657TIP3    H2 1978   4.708   1.434   1.453
  658TIP3   OH2 1979   4.553   2.985   0.988
  658TIP3    H1 1980   4.473   2.956   0.939
  658TIP3    H2 1981   4.534   3.081   0.995
  659TIP3   OH2 1982   5.125   2.248   0.494
  659TIP3    H1 1983   5.153   2.180   0.559
  659TIP3    H2 1984   5.183   2.321   0.517
  660TIP3   OH2 1985   5.027   2.644   0.295
  660TIP3    H1 1986   5.078   2.564   0.276
  660TIP3    H2 1987   5.074   2.711   0.243
  661TIP3   OH2 1988   4.807   1.850  -0.003
  661TIP3    H1 1989   4.751   1.926   0.026
  661TIP3    H2 1990   4.749   1.804  -0.065
  662TIP3   OH2 1991   4.894   2.182   0.191
  662TIP3    H1 1992   4.922   2.091   0.214
  662TIP3    H2 1993   4.888   2.178   0.095
  663TIP3   OH2 1994   4.994   1.943   0.290
  663TIP3    H1 1995   5.079   1.930   0.336
  663TIP3    H2 1996   5.009   1.885   0.212
  664TIP3   OH2 1997   5.348   1.732   0.616
  664TIP3    H1 1998   5.293   1.775   0.549
  664TIP3    H2 1999   5.298   1.753   0.698
  665TIP3   OH2 2000   5.483   2.510   0.406
  665TIP3    H1 2001   5.405   2.554   0.446
  665TIP3    H2 2002   5.540   2.586   0.394
  666TIP3   OH2 2003   5.236   1.840   0.382
  666TIP3    H1 2004   5.296   1.912   0.411
  666TIP3    H2 2005   5.269   1.823   0.293
  667TIP3   OH2 2006   5.304   2.684   0.514
  667TIP3    H1 2007   5.287   2.775   0.482
  667TIP3    H2 2008   5.221   2.671   0.566
  668TIP3   OH2 2009   5.421   2.248   0.326
  668TIP3    H1 2010   5.409   2.254   0.231
  668TIP3    H2 2011   5.437   2.343   0.350
  669TIP3   OH2 2012   5.507   2.812   0.657
  669TIP3    H1 2013   5.450   2.878   0.702
  669TIP3    H2 2014   5.438   2.760   0.611
  670TIP3   OH2 2015   5.260   2.374   0.751
  670TIP3    H1 2016   5.267   2.462   0.794
  670TIP3    H2 2017   5.167   2.353   0.772
  671TIP3   OH2 2018   5.304   2.981   0.744
  671TIP3    H1 2019   5.274   2.980   0.651
  671TIP3    H2 2020   5.221   2.962   0.793
  672TIP3   OH2 2021   4.879   2.519   0.688
  672TIP3    H1 2022   4.811   2.501   0.618
  672TIP3    H2 2023   4.914   2.430   0.706
  673TIP3   OH2 2024   4.755   2.690   0.307
  673TIP3    H1 2025   4.852   2.670   0.307
  673TIP3    H2 2026   4.756   2.772   0.360
  674TIP3   OH2 2027   5.691   2.952   0.504
  674TIP3    H1 2028   5.684   3.040   0.547
  674TIP3    H2 2029   5.632   2.899   0.562
  675TIP3   OH2 2030   5.083   2.700   0.670
  675TIP3    H1 2031   5.131   2.686   0.754
  675TIP3    H2 2032   5.008   2.637   0.679
  676TIP3   OH2 2033   5.487   1.541   0.477
  676TIP3    H1 2034   5.418   1.507   0.419
  676TIP3    H2 2035   5.438   1.606   0.531
  677TIP3   OH2 2036   5.407   2.028   0.477
  677TIP3    H1 2037   5.356   2.054   0.556
  677TIP3    H2 2038   5.409   2.113   0.425
  678TIP3   OH2 2039   5.237   2.067   0.689
  678TIP3    H1 2040   5.260   2.132   0.756
  678TIP3    H2 2041   5.222   1.987   0.743
  679TIP3   OH2 2042   5.059   1.786   0.070
  679TIP3    H1 2043   4.967   1.808   0.041
  679TIP3    H2 2044   5.086   1.725   0.001
  680TIP3   OH2 2045   5.248   2.619   0.893
  680TIP3    H1 2046   5.327   2.652   0.940
  680TIP3    H2 2047   5.183   2.622   0.966
  681TIP3   OH2 2048   5.758   2.007   0.183
  681TIP3    H1 2049   5.686   2.056   0.139
  681TIP3    H2 2050   5.727   1.995   0.270
  682TIP3   OH2 2051   5.677   1.989   0.465
  682TIP3    H1 2052   5.581   2.009   0.471
  682TIP3    H2 2053   5.716   2.063   0.511
  683TIP3   OH2 2054   5.801   2.657   0.541
  683TIP3    H1 2055   5.818   2.675   0.634
  683TIP3    H2 2056   5.813   2.744   0.502
  684TIP3   OH2 2057   5.174   2.398   0.228
  684TIP3    H1 2058   5.107   2.397   0.159
  684TIP3    H2 2059   5.150   2.318   0.280
  685TIP3   OH2 2060   5.001   2.301   0.821
  685TIP3    H1 2061   5.016   2.290   0.918
  685TIP3    H2 2062   4.928   2.239   0.806
  686TIP3   OH2 2063   5.718   2.405   0.844
  686TIP3    H1 2064   5.643   2.356   0.806
  686TIP3    H2 2065   5.786   2.335   0.844
  687TIP3   OH2 2066   5.960   2.905   0.438
  687TIP3    H1 2067   5.871   2.941   0.455
  687TIP3    H2 2068   6.017   2.972   0.479
  688TIP3   OH2 2069   5.494   3.009   0.308
  688TIP3    H1 2070   5.518   3.096   0.274
  688TIP3    H2 2071   5.572   2.988   0.364
  689TIP3   OH2 2072   5.202   1.814   0.834
  689TIP3    H1 2073   5.106   1.817   0.850
  689TIP3    H2 2074   5.234   1.761   0.909
  690TIP3   OH2 2075   4.941   2.884   0.493
  690TIP3    H1 2076   4.992   2.809   0.530
  690TIP3    H2 2077   4.972   2.957   0.547
  691TIP3   OH2 2078   4.918   3.215   0.886
  691TIP3    H1 2079   5.004   3.218   0.933
  691TIP3    H2 2080   4.901   3.120   0.884
  692TIP3   OH2 2081   5.391   3.162   0.933
  692TIP3    H1 2082   5.486   3.147   0.938
  692TIP3    H2 2083   5.367   3.100   0.861
  693TIP3   OH2 2084   6.012   3.086   0.684
  693TIP3    H1 2085   5.992   3.010   0.743
  693TIP3    H2 2086   6.102   3.069   0.657
  694TIP3   OH2 2087   5.045   2.615   1.084
  694TIP3    H1 2088   5.059   2.519   1.092
  694TIP3    H2 2089   4.957   2.618   1.040
  695TIP3   OH2 2090   5.653   2.692   0.857
  695TIP3    H1 2091   5.609   2.720   0.774
  695TIP3    H2 2092   5.679   2.599   0.838
  696TIP3   OH2 2093   5.167   2.348   1.070
  696TIP3    H1 2094   5.247   2.301   1.044
  696TIP3    H2 2095   5.192   2.382   1.158
  697TIP3   OH2 2096   5.500   2.237   0.730
  697TIP3    H1 2097   5.420   2.293   0.730
  697TIP3    H2 2098   5.546   2.265   0.648
  698TIP3   OH2 2099   5.607   2.023   0.862
  698TIP3    H1 2100   5.610   1.941   0.808
  698TIP3    H2 2101   5.565   2.087   0.801
  699TIP3   OH2 2102   5.606   1.812   0.681
  699TIP3    H1 2103   5.640   1.848   0.596
  699TIP3    H2 2104   5.518   1.779   0.655
  700TIP3   OH2 2105   5.653   2.319   0.522
  700TIP3    H1 2106   5.737   2.333   0.477
  700TIP3    H2 2107   5.598   2.390   0.483
  701TIP3   OH2 2108   5.500   2.127   1.091
  701TIP3    H1 2109   5.433   2.059   1.110
  701TIP3    H2 2110   5.533   2.097   1.004
  702TIP3   OH2 2111   5.748   1.586   0.760
  702TIP3    H1 2112   5.699   1.669   0.749
  702TIP3    H2 2113   5.675   1.520   0.762
  703TIP3   OH2 2114   5.846   2.160   0.905
  703TIP3    H1 2115   5.908   2.104   0.955
  703TIP3    H2 2116   5.764   2.107   0.908
  704TIP3   OH2 2117   5.339   1.908   1.147
  704TIP3    H1 2118   5.344   1.817   1.112
  704TIP3    H2 2119   5.377   1.895   1.236
  705TIP3   OH2 2120   5.879   1.758   1.097
  705TIP3    H1 2121   5.829   1.684   1.061
  705TIP3    H2 2122   5.809   1.819   1.130
  706TIP3   OH2 2123   4.640   2.850   0.105
  706TIP3    H1 2124   4.647   2.789   0.179
  706TIP3    H2 2125   4.702   2.919   0.134
  707TIP3   OH2 2126   4.857   2.273   0.441
  707TIP3    H1 2127   4.856   2.245   0.347
  707TIP3    H2 2128   4.954   2.271   0.457
  708TIP3   OH2 2129   5.072   1.957   1.103
  708TIP3    H1 2130   5.170   1.955   1.114
  708TIP3    H2 2131   5.049   1.872   1.145
  709TIP3   OH2 2132   5.036   1.634   0.436
  709TIP3    H1 2133   5.100   1.574   0.476
  709TIP3    H2 2134   5.091   1.711   0.413
  710TIP3   OH2 2135   4.832   1.920   0.516
  710TIP3    H1 2136   4.878   1.924   0.430
  710TIP3    H2 2137   4.852   2.006   0.553
  711TIP3   OH2 2138   5.031   1.504   0.824
  711TIP3    H1 2139   4.984   1.502   0.909
  711TIP3    H2 2140   4.966   1.552   0.768
  712TIP3   OH2 2141   5.079   2.935   0.901
  712TIP3    H1 2142   4.984   2.917   0.890
  712TIP3    H2 2143   5.090   2.926   0.996
  713TIP3   OH2 2144   5.276   2.948   0.464
  713TIP3    H1 2145   5.215   3.017   0.428
  713TIP3    H2 2146   5.355   2.968   0.410
  714TIP3   OH2 2147   5.677   3.205   0.606
  714TIP3    H1 2148   5.718   3.207   0.695
  714TIP3    H2 2149   5.747   3.253   0.555
  715TIP3   OH2 2150   5.884   3.339   0.486
  715TIP3    H1 2151   5.968   3.346   0.438
  715TIP3    H2 2152   5.906   3.399   0.560
  716TIP3   OH2 2153   4.916   3.242   0.491
  716TIP3    H1 2154   4.825   3.271   0.469
  716TIP3    H2 2155   4.937   3.301   0.564
  717TIP3   OH2 2156   5.140   3.155   0.360
  717TIP3    H1 2157   5.055   3.189   0.398
  717TIP3    H2 2158   5.139   3.191   0.270
  718TIP3   OH2 2159   4.812   2.986   0.275
  718TIP3    H1 2160   4.873   2.958   0.347
  718TIP3    H2 2161   4.872   3.038   0.217
  719TIP3   OH2 2162   5.335   1.636   1.073
  719TIP3    H1 2163   5.300   1.562   1.125
  719TIP3    H2 2164   5.430   1.632   1.098
  720TIP3   OH2 2165   5.584   1.621   1.196
  720TIP3    H1 2166   5.662   1.578   1.158
  720TIP3    H2 2167   5.559   1.558   1.266
  721TIP3   OH2 2168   0.091   3.390   1.310
  721TIP3    H1 2169   0.113   3.382   1.405
  721TIP3    H2 2170   0.033   3.313   1.300
  722TIP3   OH2 2171   0.340   3.695   1.009
  722TIP3    H1 2172   0.309   3.639   1.082
  722TIP3    H2 2173   0.355   3.780   1.053
  723TIP3   OH2 2174  -0.114   3.618   1.423
  723TIP3    H1 2175  -0.132   3.588   1.333
  723TIP3    H2 2176  -0.019   3.641   1.419
  724TIP3   OH2 2177   0.882   2.947   1.352
  724TIP3    H1 2178   0.913   3.031   1.389
  724TIP3    H2 2179   0.924   2.946   1.264
  725TIP3   OH2 2180   0.295   3.131   1.397
  725TIP3    H1 2181   0.327   3.039   1.407
  725TIP3    H2 2182   0.243   3.125   1.315
  726TIP3   OH2 2183   0.333   2.939   1.021
  726TIP3    H1 2184   0.415   2.899   1.057
  726TIP3    H2 2185   0.291   2.865   0.975
  727TIP3   OH2 2186   0.949   3.195   1.518
  727TIP3    H1 2187   0.852   3.211   1.518
  727TIP3    H2 2188   0.964   3.186   1.609
  728TIP3   OH2 2189  -0.377   2.761   1.788
  728TIP3    H1 2190  -0.458   2.766   1.736
  728TIP3    H2 2191  -0.409   2.793   1.875
  729TIP3   OH2 2192  -0.308   3.581   1.604
  729TIP3    H1 2193  -0.317   3.672   1.633
  729TIP3    H2 2194  -0.245   3.592   1.529
  730TIP3   OH2 2195   0.542   2.860   1.186
  730TIP3    H1 2196   0.496   2.863   1.271
  730TIP3    H2 2197   0.593   2.943   1.188
  731TIP3   OH2 2198   0.389   3.939   1.167
  731TIP3    H1 2199   0.298   3.932   1.205
  731TIP3    H2 2200   0.387   4.030   1.133
  732TIP3   OH2 2201   0.677   2.861   1.530
  732TIP3    H1 2202   0.588   2.878   1.496
  732TIP3    H2 2203   0.734   2.884   1.453
  733TIP3   OH2 2204   0.609   3.854   1.508
  733TIP3    H1 2205   0.596   3.779   1.445
  733TIP3    H2 2206   0.592   3.932   1.451
  734TIP3   OH2 2207   0.801   3.502   1.345
  734TIP3    H1 2208   0.718   3.555   1.347
  734TIP3    H2 2209   0.839   3.532   1.261
  735TIP3   OH2 2210   0.212   3.316   0.839
  735TIP3    H1 2211   0.192   3.406   0.864
  735TIP3    H2 2212   0.307   3.310   0.851
  736TIP3   OH2 2213   0.484   3.377   1.650
  736TIP3    H1 2214   0.480   3.460   1.701
  736TIP3    H2 2215   0.396   3.378   1.606
  737TIP3   OH2 2216  -0.254   3.309   1.544
  737TIP3    H1 2217  -0.307   3.289   1.465
  737TIP3    H2 2218  -0.282   3.400   1.561
  738TIP3   OH2 2219   0.147   3.943   1.289
  738TIP3    H1 2220   0.138   4.023   1.342
  738TIP3    H2 2221   0.142   3.870   1.355
  739TIP3   OH2 2222   0.846   4.211   1.558
  739TIP3    H1 2223   0.845   4.115   1.575
  739TIP3    H2 2224   0.763   4.238   1.605
  740TIP3   OH2 2225  -0.041   3.992   1.694
  740TIP3    H1 2226  -0.025   4.085   1.720
  740TIP3    H2 2227  -0.138   3.996   1.689
  741TIP3   OH2 2228   0.735   3.336   1.827
  741TIP3    H1 2229   0.648   3.347   1.786
  741TIP3    H2 2230   0.750   3.240   1.818
  742TIP3   OH2 2231   0.273   2.713   1.850
  742TIP3    H1 2232   0.343   2.674   1.905
  742TIP3    H2 2233   0.192   2.675   1.890
  743TIP3   OH2 2234   0.509   3.119   1.754
  743TIP3    H1 2235   0.458   3.114   1.838
  743TIP3    H2 2236   0.478   3.204   1.716
  744TIP3   OH2 2237  -0.330   3.066   1.650
  744TIP3    H1 2238  -0.362   3.102   1.735
  744TIP3    H2 2239  -0.313   3.151   1.603
  745TIP3   OH2 2240   0.218   3.331   1.983
  745TIP3    H1 2241   0.194   3.257   2.043
  745TIP3    H2 2242   0.312   3.343   2.006
  746TIP3   OH2 2243   0.182   3.118   1.148
  746TIP3    H1 2244   0.146   3.168   1.074
  746TIP3    H2 2245   0.230   3.045   1.099
  747TIP3   OH2 2246   0.219   3.333   1.558
  747TIP3    H1 2247   0.248   3.262   1.497
  747TIP3    H2 2248   0.181   3.279   1.630
  748TIP3   OH2 2249   0.377   2.863   1.430
  748TIP3    H1 2250   0.343   2.881   1.521
  748TIP3    H2 2251   0.311   2.797   1.400
  749TIP3   OH2 2252   0.541   4.557   1.658
  749TIP3    H1 2253   0.539   4.584   1.565
  749TIP3    H2 2254   0.621   4.603   1.690
  750TIP3   OH2 2255  -0.032   3.138   1.341
  750TIP3    H1 2256   0.023   3.088   1.279
  750TIP3    H2 2257  -0.035   3.081   1.419
  751TIP3   OH2 2258  -0.058   3.023   1.613
  751TIP3    H1 2259  -0.148   3.054   1.633
  751TIP3    H2 2260  -0.002   3.086   1.661
  752TIP3   OH2 2261   0.568   3.644   1.331
  752TIP3    H1 2262   0.586   3.697   1.251
  752TIP3    H2 2263   0.481   3.603   1.308
  753TIP3   OH2 2264   0.072   3.735   1.712
  753TIP3    H1 2265   0.100   3.715   1.802
  753TIP3    H2 2266   0.030   3.823   1.722
  754TIP3   OH2 2267  -0.017   3.466   2.019
  754TIP3    H1 2268  -0.055   3.448   1.931
  754TIP3    H2 2269   0.073   3.429   2.005
  755TIP3   OH2 2270   0.230   4.000   1.601
  755TIP3    H1 2271   0.136   3.984   1.623
  755TIP3    H2 2272   0.259   4.047   1.682
  756TIP3   OH2 2273   0.657   3.030   0.538
  756TIP3    H1 2274   0.610   2.965   0.482
  756TIP3    H2 2275   0.626   3.115   0.498
  757TIP3   OH2 2276   0.858   3.915   1.595
  757TIP3    H1 2277   0.761   3.911   1.585
  757TIP3    H2 2278   0.885   3.886   1.505
  758TIP3   OH2 2279   0.337   3.509   1.253
  758TIP3    H1 2280   0.246   3.477   1.271
  758TIP3    H2 2281   0.374   3.429   1.211
  759TIP3   OH2 2282   0.144   3.713   1.448
  759TIP3    H1 2283   0.128   3.714   1.545
  759TIP3    H2 2284   0.223   3.658   1.442
  760TIP3   OH2 2285   0.370   4.248   1.486
  760TIP3    H1 2286   0.297   4.182   1.485
  760TIP3    H2 2287   0.343   4.308   1.413
  761TIP3   OH2 2288   0.303   2.929   1.688
  761TIP3    H1 2289   0.382   2.970   1.726
  761TIP3    H2 2290   0.287   2.854   1.750
  762TIP3   OH2 2291   0.129   3.176   1.763
  762TIP3    H1 2292   0.157   3.226   1.843
  762TIP3    H2 2293   0.180   3.094   1.772
  763TIP3   OH2 2294   0.768   3.065   1.716
  763TIP3    H1 2295   0.672   3.079   1.735
  763TIP3    H2 2296   0.760   2.988   1.659
  764TIP3   OH2 2297   0.424   3.266   1.142
  764TIP3    H1 2298   0.344   3.213   1.159
  764TIP3    H2 2299   0.492   3.212   1.188
  765TIP3   OH2 2300   0.422   4.218   1.132
  765TIP3    H1 2301   0.366   4.222   1.051
  765TIP3    H2 2302   0.512   4.236   1.096
  766TIP3   OH2 2303   0.283   4.124   1.839
  766TIP3    H1 2304   0.279   4.053   1.907
  766TIP3    H2 2305   0.360   4.176   1.869
  767TIP3   OH2 2306  -0.080   3.741   2.007
  767TIP3    H1 2307  -0.144   3.713   1.941
  767TIP3    H2 2308  -0.044   3.655   2.036
  768TIP3   OH2 2309   0.391   3.759   1.644
  768TIP3    H1 2310   0.469   3.799   1.602
  768TIP3    H2 2311   0.324   3.827   1.627
  769TIP3   OH2 2312  -0.276   3.253   1.881
  769TIP3    H1 2313  -0.297   3.318   1.950
  769TIP3    H2 2314  -0.215   3.305   1.824
  770TIP3   OH2 2315   0.263   3.675   2.037
  770TIP3    H1 2316   0.343   3.646   1.991
  770TIP3    H2 2317   0.261   3.614   2.113
  771TIP3   OH2 2318  -0.124   3.068   2.020
  771TIP3    H1 2319  -0.122   2.983   1.971
  771TIP3    H2 2320  -0.181   3.121   1.961
  772TIP3   OH2 2321  -0.121   2.856   1.832
  772TIP3    H1 2322  -0.089   2.895   1.748
  772TIP3    H2 2323  -0.209   2.821   1.804
  773TIP3   OH2 2324  -0.091   3.419   1.760
  773TIP3    H1 2325  -0.023   3.374   1.707
  773TIP3    H2 2326  -0.134   3.474   1.692
  774TIP3   OH2 2327   0.480   3.352   2.090
  774TIP3    H1 2328   0.526   3.268   2.105
  774TIP3    H2 2329   0.551   3.408   2.057
  775TIP3   OH2 2330   0.520   3.605   1.825
  775TIP3    H1 2331   0.462   3.662   1.769
  775TIP3    H2 2332   0.608   3.628   1.787
  776TIP3   OH2 2333  -0.221   3.201   2.248
  776TIP3    H1 2334  -0.282   3.130   2.279
  776TIP3    H2 2335  -0.187   3.161   2.166
  777TIP3   OH2 2336   0.006   2.627   1.919
  777TIP3    H1 2337  -0.040   2.711   1.894
  777TIP3    H2 2338  -0.041   2.564   1.863
  778TIP3   OH2 2339   0.132   3.114   2.122
  778TIP3    H1 2340   0.114   3.096   2.216
  778TIP3    H2 2341   0.044   3.093   2.084
  779TIP3   OH2 2342   0.371   3.069   1.979
  779TIP3    H1 2343   0.294   3.066   2.040
  779TIP3    H2 2344   0.444   3.036   2.035
  780TIP3   OH2 2345   0.601   3.011   2.127
  780TIP3    H1 2346   0.615   2.915   2.141
  780TIP3    H2 2347   0.595   3.045   2.219
  781TIP3   OH2 2348   0.091   2.618   2.179
  781TIP3    H1 2349   0.162   2.552   2.167
  781TIP3    H2 2350   0.055   2.620   2.088
  782TIP3   OH2 2351   0.171   2.836   2.325
  782TIP3    H1 2352   0.147   2.762   2.264
  782TIP3    H2 2353   0.092   2.893   2.320
  783TIP3   OH2 2354   0.668   4.288   1.050
  783TIP3    H1 2355   0.712   4.343   1.117
  783TIP3    H2 2356   0.692   4.334   0.967
  784TIP3   OH2 2357   0.682   4.331   1.346
  784TIP3    H1 2358   0.641   4.244   1.329
  784TIP3    H2 2359   0.754   4.303   1.405
  785TIP3   OH2 2360   0.721   4.009   1.896
  785TIP3    H1 2361   0.650   4.020   1.963
  785TIP3    H2 2362   0.765   4.096   1.901
  786TIP3   OH2 2363   0.577   3.534   0.509
  786TIP3    H1 2364   0.657   3.580   0.477
  786TIP3    H2 2365   0.608   3.494   0.593
  787TIP3   OH2 2366   0.671   3.394   0.720
  787TIP3    H1 2367   0.602   3.353   0.776
  787TIP3    H2 2368   0.737   3.424   0.785
  788TIP3   OH2 2369   0.732   3.786   1.150
  788TIP3    H1 2370   0.760   3.727   1.079
  788TIP3    H2 2371   0.720   3.870   1.100
  789TIP3   OH2 2372   0.555   4.075   1.359
  789TIP3    H1 2373   0.485   4.127   1.403
  789TIP3    H2 2374   0.506   4.036   1.284
  790TIP3   OH2 2375   0.566   3.264   0.438
  790TIP3    H1 2376   0.469   3.253   0.436
  790TIP3    H2 2377   0.571   3.358   0.468
  791TIP3   OH2 2378   0.490   3.257   0.873
  791TIP3    H1 2379   0.507   3.161   0.854
  791TIP3    H2 2380   0.475   3.255   0.969
  792TIP3   OH2 2381   0.767   3.672   1.725
  792TIP3    H1 2382   0.838   3.605   1.711
  792TIP3    H2 2383   0.795   3.745   1.667
  793TIP3   OH2 2384   0.944   3.466   1.717
  793TIP3    H1 2385   0.872   3.419   1.764
  793TIP3    H2 2386   1.020   3.408   1.738
  794TIP3   OH2 2387   0.557   2.999   0.793
  794TIP3    H1 2388   0.593   2.919   0.833
  794TIP3    H2 2389   0.605   3.002   0.708
  795TIP3   OH2 2390   0.636   3.129   1.253
  795TIP3    H1 2391   0.723   3.147   1.215
  795TIP3    H2 2392   0.644   3.172   1.341
  796TIP3   OH2 2393   0.692   3.283   1.479
  796TIP3    H1 2394   0.618   3.312   1.536
  796TIP3    H2 2395   0.721   3.368   1.440
  797TIP3   OH2 2396   1.153   2.874   2.037
  797TIP3    H1 2397   1.216   2.809   1.999
  797TIP3    H2 2398   1.128   2.926   1.958
  798TIP3   OH2 2399   1.025   3.010   1.838
  798TIP3    H1 2400   0.944   3.050   1.875
  798TIP3    H2 2401   0.987   2.936   1.787
  799TIP3   OH2 2402  -0.021   4.260   1.758
  799TIP3    H1 2403   0.030   4.254   1.841
  799TIP3    H2 2404   0.039   4.314   1.702
  800TIP3   OH2 2405   0.158   4.410   1.615
  800TIP3    H1 2406   0.235   4.356   1.591
  800TIP3    H2 2407   0.199   4.471   1.680
  801TIP3   OH2 2408   0.922   2.768   1.728
  801TIP3    H1 2409   0.833   2.743   1.700
  801TIP3    H2 2410   0.968   2.681   1.719
  802TIP3   OH2 2411   0.117   4.225   1.349
  802TIP3    H1 2412   0.023   4.235   1.370
  802TIP3    H2 2413   0.144   4.315   1.326
  803TIP3   OH2 2414   0.319   4.436   1.257
  803TIP3    H1 2415   0.260   4.458   1.183
  803TIP3    H2 2416   0.368   4.361   1.217
  804TIP3   OH2 2417   3.925   6.438   5.108
  804TIP3    H1 2418   3.835   6.462   5.130
  804TIP3    H2 2419   3.912   6.372   5.039
  805TIP3   OH2 2420   0.640   2.580   1.242
  805TIP3    H1 2421   0.697   2.602   1.165
  805TIP3    H2 2422   0.569   2.644   1.227
  806TIP3   OH2 2423   0.758   2.655   1.009
  806TIP3    H1 2424   0.838   2.614   0.971
  806TIP3    H2 2425   0.778   2.750   0.997
  807TIP3   OH2 2426  -0.429   2.694   2.324
  807TIP3    H1 2427  -0.449   2.621   2.266
  807TIP3    H2 2428  -0.330   2.697   2.319
  808TIP3   OH2 2429  -0.152   2.667   2.351
  808TIP3    H1 2430  -0.067   2.648   2.306
  808TIP3    H2 2431  -0.148   2.605   2.425
  809TIP3   OH2 2432   0.663   2.742   2.158
  809TIP3    H1 2433   0.682   2.710   2.249
  809TIP3    H2 2434   0.752   2.735   2.118
  810TIP3   OH2 2435   0.597   4.288   1.654
  810TIP3    H1 2436   0.520   4.260   1.601
  810TIP3    H2 2437   0.580   4.384   1.662
  811TIP3   OH2 2438   1.872   3.670   0.410
  811TIP3    H1 2439   1.838   3.759   0.393
  811TIP3    H2 2440   1.797   3.615   0.381
  812TIP3   OH2 2441   1.867   3.661   0.806
  812TIP3    H1 2442   1.905   3.641   0.893
  812TIP3    H2 2443   1.826   3.577   0.782
  813TIP3   OH2 2444   2.114   3.973   0.478
  813TIP3    H1 2445   2.096   3.905   0.544
  813TIP3    H2 2446   2.142   4.048   0.534
  814TIP3   OH2 2447   1.140   3.961   0.882
  814TIP3    H1 2448   1.134   3.864   0.891
  814TIP3    H2 2449   1.237   3.973   0.876
  815TIP3   OH2 2450   0.849   3.175   0.676
  815TIP3    H1 2451   0.794   3.254   0.686
  815TIP3    H2 2452   0.783   3.112   0.641
  816TIP3   OH2 2453   0.904   3.454   0.851
  816TIP3    H1 2454   0.955   3.373   0.874
  816TIP3    H2 2455   0.961   3.493   0.783
  817TIP3   OH2 2456   1.754   4.425   0.491
  817TIP3    H1 2457   1.803   4.350   0.452
  817TIP3    H2 2458   1.745   4.398   0.583
  818TIP3   OH2 2459   1.663   3.887   0.845
  818TIP3    H1 2460   1.707   3.809   0.805
  818TIP3    H2 2461   1.744   3.936   0.872
  819TIP3   OH2 2462   2.682   3.208   0.846
  819TIP3    H1 2463   2.710   3.291   0.890
  819TIP3    H2 2464   2.699   3.229   0.752
  820TIP3   OH2 2465   2.080   3.387   0.874
  820TIP3    H1 2466   2.120   3.301   0.895
  820TIP3    H2 2467   2.044   3.369   0.785
  821TIP3   OH2 2468   1.417   3.040   0.841
  821TIP3    H1 2469   1.397   3.115   0.781
  821TIP3    H2 2470   1.374   2.967   0.791
  822TIP3   OH2 2471   2.113   3.140   0.464
  822TIP3    H1 2472   2.185   3.126   0.529
  822TIP3    H2 2473   2.164   3.174   0.388
  823TIP3   OH2 2474   1.053   3.244   0.949
  823TIP3    H1 2475   1.143   3.226   0.982
  823TIP3    H2 2476   1.056   3.189   0.867
  824TIP3   OH2 2477   1.490   3.453   0.752
  824TIP3    H1 2478   1.584   3.425   0.761
  824TIP3    H2 2479   1.448   3.369   0.722
  825TIP3   OH2 2480   2.754   3.419   1.011
  825TIP3    H1 2481   2.667   3.462   0.996
  825TIP3    H2 2482   2.770   3.443   1.104
  826TIP3   OH2 2483   1.413   3.030   1.277
  826TIP3    H1 2484   1.358   3.066   1.204
  826TIP3    H2 2485   1.353   3.042   1.352
  827TIP3   OH2 2486   1.773   3.901   0.274
  827TIP3    H1 2487   1.718   3.860   0.206
  827TIP3    H2 2488   1.716   3.977   0.300
  828TIP3   OH2 2489   1.516   3.802   1.065
  828TIP3    H1 2490   1.457   3.872   1.102
  828TIP3    H2 2491   1.561   3.851   0.993
  829TIP3   OH2 2492   2.315   3.147   0.644
  829TIP3    H1 2493   2.293   3.104   0.728
  829TIP3    H2 2494   2.366   3.225   0.674
  830TIP3   OH2 2495   1.288   3.150   1.061
  830TIP3    H1 2496   1.350   3.224   1.085
  830TIP3    H2 2497   1.338   3.109   0.987
  831TIP3   OH2 2498   1.350   4.004   1.165
  831TIP3    H1 2499   1.326   4.093   1.131
  831TIP3    H2 2500   1.271   3.986   1.220
  832TIP3   OH2 2501   0.764   3.700   0.400
  832TIP3    H1 2502   0.765   3.754   0.320
  832TIP3    H2 2503   0.767   3.772   0.469
  833TIP3   OH2 2504   2.178   4.208   0.640
  833TIP3    H1 2505   2.090   4.200   0.683
  833TIP3    H2 2506   2.170   4.297   0.600
  834TIP3   OH2 2507   2.475   3.106   1.011
  834TIP3    H1 2508   2.387   3.132   0.979
  834TIP3    H2 2509   2.534   3.138   0.940
  835TIP3   OH2 2510   1.767   2.749   0.999
  835TIP3    H1 2511   1.752   2.653   1.011
  835TIP3    H2 2512   1.688   2.785   1.044
  836TIP3   OH2 2513   1.878   4.241   0.318
  836TIP3    H1 2514   1.936   4.165   0.301
  836TIP3    H2 2515   1.936   4.314   0.284
  837TIP3   OH2 2516   2.024   4.020   0.222
  837TIP3    H1 2517   1.944   3.965   0.230
  837TIP3    H2 2518   2.069   3.999   0.307
  838TIP3   OH2 2519   2.405   4.119   0.989
  838TIP3    H1 2520   2.391   4.041   0.931
  838TIP3    H2 2521   2.385   4.193   0.929
  839TIP3   OH2 2522   1.701   3.516   0.254
  839TIP3    H1 2523   1.615   3.560   0.235
  839TIP3    H2 2524   1.736   3.503   0.164
  840TIP3   OH2 2525   1.649   3.288  -0.024
  840TIP3    H1 2526   1.726   3.342   0.002
  840TIP3    H2 2527   1.688   3.199  -0.027
  841TIP3   OH2 2528   2.601   3.761   0.837
  841TIP3    H1 2529   2.516   3.811   0.841
  841TIP3    H2 2530   2.629   3.783   0.745
  842TIP3   OH2 2531   2.046   3.596   0.216
  842TIP3    H1 2532   1.991   3.622   0.294
  842TIP3    H2 2533   2.128   3.567   0.261
  843TIP3   OH2 2534   2.278   3.633   1.139
  843TIP3    H1 2535   2.276   3.715   1.191
  843TIP3    H2 2536   2.192   3.639   1.092
  844TIP3   OH2 2537   1.280   3.598   0.645
  844TIP3    H1 2538   1.240   3.534   0.581
  844TIP3    H2 2539   1.358   3.547   0.675
  845TIP3   OH2 2540   1.405   4.004   0.781
  845TIP3    H1 2541   1.388   3.971   0.692
  845TIP3    H2 2542   1.494   3.967   0.800
  846TIP3   OH2 2543   1.398   3.566   0.986
  846TIP3    H1 2544   1.441   3.539   0.902
  846TIP3    H2 2545   1.446   3.648   1.010
  847TIP3   OH2 2546   1.942   4.201   0.768
  847TIP3    H1 2547   1.925   4.283   0.818
  847TIP3    H2 2548   1.924   4.131   0.834
  848TIP3   OH2 2549   1.553   4.116   1.316
  848TIP3    H1 2550   1.493   4.179   1.360
  848TIP3    H2 2551   1.488   4.064   1.264
  849TIP3   OH2 2552   1.885   3.448   0.047
  849TIP3    H1 2553   1.940   3.506   0.104
  849TIP3    H2 2554   1.918   3.474  -0.042
  850TIP3   OH2 2555   1.315   3.677   1.420
  850TIP3    H1 2556   1.314   3.766   1.459
  850TIP3    H2 2557   1.222   3.650   1.430
  851TIP3   OH2 2558   1.625   4.137   0.313
  851TIP3    H1 2559   1.710   4.183   0.331
  851TIP3    H2 2560   1.564   4.212   0.304
  852TIP3   OH2 2561   1.346   4.278   1.396
  852TIP3    H1 2562   1.309   4.286   1.306
  852TIP3    H2 2563   1.266   4.260   1.450
  853TIP3   OH2 2564   2.404   2.696   0.096
  853TIP3    H1 2565   2.320   2.713   0.143
  853TIP3    H2 2566   2.413   2.775   0.039
  854TIP3   OH2 2567   1.163   3.425   0.467
  854TIP3    H1 2568   1.091   3.468   0.415
  854TIP3    H2 2569   1.147   3.332   0.449
  855TIP3   OH2 2570   0.924   3.810   1.354
  855TIP3    H1 2571   0.856   3.800   1.284
  855TIP3    H2 2572   0.962   3.720   1.361
  856TIP3   OH2 2573   0.776   4.019   0.986
  856TIP3    H1 2574   0.873   4.024   0.981
  856TIP3    H2 2575   0.756   4.104   1.029
  857TIP3   OH2 2576   2.644   4.470   1.040
  857TIP3    H1 2577   2.644   4.373   1.056
  857TIP3    H2 2578   2.560   4.494   1.085
  858TIP3   OH2 2579   1.749   4.241   1.169
  858TIP3    H1 2580   1.750   4.334   1.201
  858TIP3    H2 2581   1.678   4.203   1.226
  859TIP3   OH2 2582   1.512   4.365   0.146
  859TIP3    H1 2583   1.461   4.391   0.067
  859TIP3    H2 2584   1.510   4.448   0.196
  860TIP3   OH2 2585   0.930   4.230   0.519
  860TIP3    H1 2586   1.002   4.229   0.586
  860TIP3    H2 2587   0.862   4.183   0.571
  861TIP3   OH2 2588   1.633   4.236  -0.198
  861TIP3    H1 2589   1.693   4.209  -0.268
  861TIP3    H2 2590   1.694   4.250  -0.123
  862TIP3   OH2 2591   1.756   4.300   0.046
  862TIP3    H1 2592   1.669   4.325   0.088
  862TIP3    H2 2593   1.809   4.281   0.125
  863TIP3   OH2 2594   2.534   3.595   1.312
  863TIP3    H1 2595   2.448   3.604   1.269
  863TIP3    H2 2596   2.550   3.499   1.305
  864TIP3   OH2 2597   1.128   3.999   1.326
  864TIP3    H1 2598   1.176   3.995   1.411
  864TIP3    H2 2599   1.055   3.936   1.342
  865TIP3   OH2 2600   1.527   2.823   1.124
  865TIP3    H1 2601   1.438   2.795   1.094
  865TIP3    H2 2602   1.502   2.904   1.174
  866TIP3   OH2 2603   2.064   2.940   1.318
  866TIP3    H1 2604   2.135   2.914   1.381
  866TIP3    H2 2605   1.982   2.920   1.367
  867TIP3   OH2 2606   2.298   3.371   1.236
  867TIP3    H1 2607   2.249   3.368   1.321
  867TIP3    H2 2608   2.274   3.459   1.201
  868TIP3   OH2 2609   1.962   3.525  -0.203
  868TIP3    H1 2610   1.887   3.522  -0.261
  868TIP3    H2 2611   2.009   3.604  -0.234
  869TIP3   OH2 2612   1.696   2.894   0.080
  869TIP3    H1 2613   1.667   2.881   0.174
  869TIP3    H2 2614   1.638   2.832   0.036
  870TIP3   OH2 2615   1.454   3.351   1.143
  870TIP3    H1 2616   1.471   3.395   1.228
  870TIP3    H2 2617   1.429   3.428   1.087
  871TIP3   OH2 2618   1.343   3.236   0.671
  871TIP3    H1 2619   1.252   3.202   0.680
  871TIP3    H2 2620   1.361   3.212   0.577
  872TIP3   OH2 2621   1.833   3.314   0.390
  872TIP3    H1 2622   1.783   3.385   0.344
  872TIP3    H2 2623   1.887   3.277   0.317
  873TIP3   OH2 2624   2.010   3.586   1.464
  873TIP3    H1 2625   1.986   3.514   1.527
  873TIP3    H2 2626   2.103   3.601   1.490
  874TIP3   OH2 2627   1.990   3.337   0.619
  874TIP3    H1 2628   1.925   3.360   0.550
  874TIP3    H2 2629   2.028   3.258   0.576
  875TIP3   OH2 2630   1.349   2.828   0.099
  875TIP3    H1 2631   1.355   2.806   0.194
  875TIP3    H2 2632   1.263   2.872   0.098
  876TIP3   OH2 2633   0.862   2.898   0.944
  876TIP3    H1 2634   0.949   2.923   0.978
  876TIP3    H2 2635   0.881   2.866   0.853
  877TIP3   OH2 2636   0.857   2.863   0.429
  877TIP3    H1 2637   0.937   2.896   0.387
  877TIP3    H2 2638   0.817   2.945   0.465
  878TIP3   OH2 2639   2.001   3.585   1.039
  878TIP3    H1 2640   2.035   3.513   0.980
  878TIP3    H2 2641   1.971   3.531   1.115
  879TIP3   OH2 2642   1.680   3.048   0.716
  879TIP3    H1 2643   1.597   3.045   0.768
  879TIP3    H2 2644   1.748   3.040   0.784
  880TIP3   OH2 2645   1.108   3.101   0.724
  880TIP3    H1 2646   1.016   3.108   0.691
  880TIP3    H2 2647   1.137   3.012   0.693
  881TIP3   OH2 2648   1.381   3.157   0.420
  881TIP3    H1 2649   1.468   3.121   0.396
  881TIP3    H2 2650   1.327   3.139   0.340
  882TIP3   OH2 2651   2.162   3.125   0.917
  882TIP3    H1 2652   2.133   3.138   1.011
  882TIP3    H2 2653   2.093   3.064   0.886
  883TIP3   OH2 2654   1.213   3.143   0.205
  883TIP3    H1 2655   1.160   3.062   0.189
  883TIP3    H2 2656   1.247   3.164   0.117
  884TIP3   OH2 2657   2.340   4.813   1.140
  884TIP3    H1 2658   2.336   4.839   1.046
  884TIP3    H2 2659   2.419   4.862   1.171
  885TIP3   OH2 2660   1.290   3.924   1.557
  885TIP3    H1 2661   1.371   3.954   1.603
  885TIP3    H2 2662   1.225   3.932   1.629
  886TIP3   OH2 2663   1.756   3.383   0.814
  886TIP3    H1 2664   1.824   3.338   0.763
  886TIP3    H2 2665   1.760   3.336   0.900
  887TIP3   OH2 2666   1.271   2.868   0.675
  887TIP3    H1 2667   1.235   2.790   0.722
  887TIP3    H2 2668   1.281   2.831   0.584
  888TIP3   OH2 2669   1.730   3.281   1.098
  888TIP3    H1 2670   1.642   3.320   1.114
  888TIP3    H2 2671   1.790   3.339   1.149
  889TIP3   OH2 2672   1.471   3.662   0.196
  889TIP3    H1 2673   1.400   3.594   0.187
  889TIP3    H2 2674   1.448   3.699   0.285
  890TIP3   OH2 2675   2.364   3.902   0.822
  890TIP3    H1 2676   2.388   3.953   0.741
  890TIP3    H2 2677   2.279   3.860   0.796
  891TIP3   OH2 2678   1.954   2.977   0.043
  891TIP3    H1 2679   1.861   2.947   0.048
  891TIP3    H2 2680   1.949   3.068   0.077
  892TIP3   OH2 2681   1.863   3.982   1.198
  892TIP3    H1 2682   1.899   3.973   1.286
  892TIP3    H2 2683   1.825   4.071   1.198
  893TIP3   OH2 2684   1.990   3.222   0.173
  893TIP3    H1 2685   2.087   3.224   0.183
  893TIP3    H2 2686   1.973   3.299   0.116
  894TIP3   OH2 2687   1.160   3.673   0.887
  894TIP3    H1 2688   1.189   3.657   0.795
  894TIP3    H2 2689   1.236   3.635   0.935
  895TIP3   OH2 2690   1.615   3.791  -0.001
  895TIP3    H1 2691   1.584   3.884   0.014
  895TIP3    H2 2692   1.561   3.744   0.066
  896TIP3   OH2 2693   1.056   3.577   1.481
  896TIP3    H1 2694   1.087   3.589   1.573
  896TIP3    H2 2695   0.966   3.545   1.498
  897TIP3   OH2 2696   1.775   3.727   1.502
  897TIP3    H1 2697   1.721   3.679   1.438
  897TIP3    H2 2698   1.864   3.693   1.481
  898TIP3   OH2 2699   2.024   4.243   1.091
  898TIP3    H1 2700   1.928   4.242   1.105
  898TIP3    H2 2701   2.053   4.295   1.169
  899TIP3   OH2 2702   2.433   3.314   0.011
  899TIP3    H1 2703   2.356   3.277  -0.037
  899TIP3    H2 2704   2.439   3.402  -0.033
  900TIP3   OH2 2705   2.655   4.180   1.078
  900TIP3    H1 2706   2.557   4.172   1.071
  900TIP3    H2 2707   2.681   4.149   0.988
  901TIP3   OH2 2708   2.172   4.058  -0.105
  901TIP3    H1 2709   2.130   4.059  -0.018
  901TIP3    H2 2710   2.096   4.066  -0.163
  902TIP3   OH2 2711   2.131   3.766   0.734
  902TIP3    H1 2712   2.038   3.742   0.751
  902TIP3    H2 2713   2.164   3.684   0.693
  903TIP3   OH2 2714   1.267   3.989   0.504
  903TIP3    H1 2715   1.264   4.077   0.460
  903TIP3    H2 2716   1.172   3.972   0.511
  904TIP3   OH2 2717   0.817   3.301   0.242
  904TIP3    H1 2718   0.892   3.363   0.236
  904TIP3    H2 2719   0.783   3.320   0.329
  905TIP3   OH2 2720   1.396   3.756   0.439
  905TIP3    H1 2721   1.360   3.845   0.458
  905TIP3    H2 2722   1.361   3.706   0.515
  906TIP3   OH2 2723   1.533   4.334   0.966
  906TIP3    H1 2724   1.572   4.410   0.919
  906TIP3    H2 2725   1.610   4.301   1.016
  907TIP3   OH2 2726   1.204   4.235   0.399
  907TIP3    H1 2727   1.107   4.242   0.398
  907TIP3    H2 2728   1.232   4.326   0.380
  908TIP3   OH2 2729   1.914   3.971   0.930
  908TIP3    H1 2730   1.901   3.971   1.027
  908TIP3    H2 2731   1.996   3.920   0.922
  909TIP3   OH2 2732   1.884   3.882  -0.188
  909TIP3    H1 2733   1.942   3.849  -0.115
  909TIP3    H2 2734   1.797   3.860  -0.151
  910TIP3   OH2 2735   2.166   4.498   0.974
  910TIP3    H1 2736   2.085   4.443   0.971
  910TIP3    H2 2737   2.148   4.563   0.903
  911TIP3   OH2 2738   1.232   3.109   1.491
  911TIP3    H1 2739   1.156   3.093   1.548
  911TIP3    H2 2740   1.301   3.066   1.544
  912TIP3   OH2 2741   2.047   3.781   0.008
  912TIP3    H1 2742   2.030   3.719   0.082
  912TIP3    H2 2743   2.137   3.810   0.032
  913TIP3   OH2 2744   0.978   4.193   1.131
  913TIP3    H1 2745   1.032   4.126   1.176
  913TIP3    H2 2746   1.002   4.273   1.180
  914TIP3   OH2 2747   1.252   3.905   0.050
  914TIP3    H1 2748   1.264   3.815   0.083
  914TIP3    H2 2749   1.203   3.947   0.124
  915TIP3   OH2 2750   0.962   3.533   0.323
  915TIP3    H1 2751   0.899   3.592   0.369
  915TIP3    H2 2752   0.952   3.568   0.232
  916TIP3   OH2 2753   2.093   3.176   1.178
  916TIP3    H1 2754   2.171   3.216   1.218
  916TIP3    H2 2755   2.080   3.095   1.232
  917TIP3   OH2 2756   1.973   2.923   0.345
  917TIP3    H1 2757   1.955   2.947   0.253
  917TIP3    H2 2758   2.012   3.006   0.381
  918TIP3   OH2 2759   1.544   4.043   0.053
  918TIP3    H1 2760   1.489   4.048   0.132
  918TIP3    H2 2761   1.584   4.131   0.054
  919TIP3   OH2 2762   1.661   3.102   0.444
  919TIP3    H1 2763   1.720   3.178   0.429
  919TIP3    H2 2764   1.661   3.096   0.542
  920TIP3   OH2 2765   1.928   3.422   1.248
  920TIP3    H1 2766   1.953   3.476   1.327
  920TIP3    H2 2767   1.982   3.342   1.260
  921TIP3   OH2 2768   1.807   2.828   0.555
  921TIP3    H1 2769   1.788   2.912   0.601
  921TIP3    H2 2770   1.861   2.860   0.479
  922TIP3   OH2 2771   2.563   3.326   1.229
  922TIP3    H1 2772   2.465   3.329   1.240
  922TIP3    H2 2773   2.568   3.272   1.150
  923TIP3   OH2 2774   2.216   3.519   0.619
  923TIP3    H1 2775   2.139   3.462   0.633
  923TIP3    H2 2776   2.286   3.472   0.670
  924TIP3   OH2 2777   2.187   4.478   0.569
  924TIP3    H1 2778   2.145   4.525   0.494
  924TIP3    H2 2779   2.282   4.497   0.550
  925TIP3   OH2 2780   1.257   2.753   1.103
  925TIP3    H1 2781   1.225   2.725   1.014
  925TIP3    H2 2782   1.250   2.670   1.155
  926TIP3   OH2 2783   0.749   3.923   0.552
  926TIP3    H1 2784   0.751   3.997   0.612
  926TIP3    H2 2785   0.775   3.966   0.465
  927TIP3   OH2 2786   0.964   4.519   1.547
  927TIP3    H1 2787   1.046   4.524   1.602
  927TIP3    H2 2788   0.948   4.423   1.546
  928TIP3   OH2 2789   1.426   4.432   1.621
  928TIP3    H1 2790   1.508   4.481   1.611
  928TIP3    H2 2791   1.419   4.385   1.536
  929TIP3   OH2 2792   2.085   4.375   1.322
  929TIP3    H1 2793   2.077   4.307   1.392
  929TIP3    H2 2794   2.157   4.431   1.355
  930TIP3   OH2 2795   1.089   3.917   1.750
  930TIP3    H1 2796   1.104   3.822   1.759
  930TIP3    H2 2797   1.001   3.920   1.705
  931TIP3   OH2 2798   1.163   3.633  -0.050
  931TIP3    H1 2799   1.195   3.577   0.022
  931TIP3    H2 2800   1.172   3.572  -0.126
  932TIP3   OH2 2801   1.697   4.002   1.524
  932TIP3    H1 2802   1.655   4.025   1.438
  932TIP3    H2 2803   1.729   3.911   1.509
  933TIP3   OH2 2804   1.588   3.731  -0.265
  933TIP3    H1 2805   1.595   3.761  -0.172
  933TIP3    H2 2806   1.536   3.651  -0.253
  934TIP3   OH2 2807   2.188   4.014   1.129
  934TIP3    H1 2808   2.264   4.059   1.086
  934TIP3    H2 2809   2.118   4.082   1.115
  935TIP3   OH2 2810   1.206   3.645   1.727
  935TIP3    H1 2811   1.289   3.608   1.697
  935TIP3    H2 2812   1.232   3.679   1.815
  936TIP3   OH2 2813   1.281   3.466   0.162
  936TIP3    H1 2814   1.253   3.425   0.246
  936TIP3    H2 2815   1.306   3.387   0.110
  937TIP3   OH2 2816   1.520   3.503   1.360
  937TIP3    H1 2817   1.451   3.570   1.385
  937TIP3    H2 2818   1.581   3.559   1.308
  938TIP3   OH2 2819   1.372   3.261  -0.004
  938TIP3    H1 2820   1.364   3.212  -0.086
  938TIP3    H2 2821   1.469   3.277  -0.001
  939TIP3   OH2 2822   2.058   3.932   1.522
  939TIP3    H1 2823   2.140   3.902   1.480
  939TIP3    H2 2824   2.052   3.872   1.599
  940TIP3   OH2 2825   1.665   3.325   1.515
  940TIP3    H1 2826   1.672   3.244   1.461
  940TIP3    H2 2827   1.615   3.384   1.455
  941TIP3   OH2 2828   1.672   3.111   1.326
  941TIP3    H1 2829   1.702   3.148   1.241
  941TIP3    H2 2830   1.579   3.086   1.306
  942TIP3   OH2 2831   1.691   3.648   1.210
  942TIP3    H1 2832   1.777   3.660   1.168
  942TIP3    H2 2833   1.635   3.709   1.159
  943TIP3   OH2 2834   2.273   3.608   1.575
  943TIP3    H1 2835   2.320   3.527   1.600
  943TIP3    H2 2836   2.346   3.663   1.543
  944TIP3   OH2 2837   2.318   3.862   1.311
  944TIP3    H1 2838   2.259   3.919   1.255
  944TIP3    H2 2839   2.405   3.884   1.272
  945TIP3   OH2 2840   1.545   3.427   1.750
  945TIP3    H1 2841   1.477   3.359   1.767
  945TIP3    H2 2842   1.580   3.399   1.663
  946TIP3   OH2 2843   1.802   2.870   1.397
  946TIP3    H1 2844   1.753   2.952   1.374
  946TIP3    H2 2845   1.733   2.801   1.386
  947TIP3   OH2 2846   1.928   3.372   1.610
  947TIP3    H1 2847   1.917   3.357   1.706
  947TIP3    H2 2848   1.838   3.351   1.579
  948TIP3   OH2 2849   2.165   3.320   1.464
  948TIP3    H1 2850   2.090   3.322   1.527
  948TIP3    H2 2851   2.239   3.292   1.521
  949TIP3   OH2 2852   2.398   3.266   1.611
  949TIP3    H1 2853   2.410   3.170   1.629
  949TIP3    H2 2854   2.390   3.303   1.701
  950TIP3   OH2 2855   1.383   3.206   1.809
  950TIP3    H1 2856   1.389   3.114   1.779
  950TIP3    H2 2857   1.424   3.198   1.898
  951TIP3   OH2 2858   1.893   2.880   1.656
  951TIP3    H1 2859   1.960   2.810   1.650
  951TIP3    H2 2860   1.855   2.875   1.566
  952TIP3   OH2 2861   1.962   3.095   1.811
  952TIP3    H1 2862   1.940   3.023   1.748
  952TIP3    H2 2863   1.883   3.153   1.805
  953TIP3   OH2 2864   0.751   4.138   0.718
  953TIP3    H1 2865   0.735   4.087   0.800
  953TIP3    H2 2866   0.757   4.228   0.756
  954TIP3   OH2 2867   2.444   4.560   0.532
  954TIP3    H1 2868   2.468   4.597   0.619
  954TIP3    H2 2869   2.513   4.595   0.474
  955TIP3   OH2 2870   2.472   4.587   0.814
  955TIP3    H1 2871   2.424   4.501   0.808
  955TIP3    H2 2872   2.543   4.561   0.875
  956TIP3   OH2 2873   2.517   4.265   1.383
  956TIP3    H1 2874   2.446   4.274   1.449
  956TIP3    H2 2875   2.560   4.353   1.388
  957TIP3   OH2 2876   2.341   3.808   0.009
  957TIP3    H1 2877   2.432   3.843   0.019
  957TIP3    H2 2878   2.345   3.745   0.084
  958TIP3   OH2 2879   2.454   3.648   0.208
  958TIP3    H1 2880   2.393   3.599   0.269
  958TIP3    H2 2881   2.524   3.678   0.269
  959TIP3   OH2 2882   2.520   4.040   0.638
  959TIP3    H1 2883   2.574   3.973   0.592
  959TIP3    H2 2884   2.515   4.111   0.571
  960TIP3   OH2 2885   2.343   4.338   0.829
  960TIP3    H1 2886   2.272   4.380   0.882
  960TIP3    H2 2887   2.292   4.292   0.759
  961TIP3   OH2 2888   2.434   3.554  -0.125
  961TIP3    H1 2889   2.393   3.515  -0.204
  961TIP3    H2 2890   2.370   3.620  -0.096
  962TIP3   OH2 2891   2.231   3.223  -0.140
  962TIP3    H1 2892   2.264   3.264  -0.223
  962TIP3    H2 2893   2.210   3.132  -0.169
  963TIP3   OH2 2894   2.271   3.499   0.350
  963TIP3    H1 2895   2.276   3.402   0.343
  963TIP3    H2 2896   2.256   3.512   0.446
  964TIP3   OH2 2897   0.925   3.556   1.100
  964TIP3    H1 2898   0.904   3.523   1.010
  964TIP3    H2 2899   1.003   3.610   1.078
  965TIP3   OH2 2900   2.565   3.928   1.210
  965TIP3    H1 2901   2.635   3.860   1.197
  965TIP3    H2 2902   2.590   3.997   1.146
  966TIP3   OH2 2903   2.748   3.728   1.210
  966TIP3    H1 2904   2.672   3.680   1.253
  966TIP3    H2 2905   2.820   3.664   1.230
  967TIP3   OH2 2906   2.198   2.957  -0.196
  967TIP3    H1 2907   2.285   2.924  -0.167
  967TIP3    H2 2908   2.139   2.922  -0.128
  968TIP3   OH2 2909   2.271   3.219   0.243
  968TIP3    H1 2910   2.312   3.130   0.259
  968TIP3    H2 2911   2.328   3.251   0.171
  969TIP3   OH2 2912   2.429   3.387   0.741
  969TIP3    H1 2913   2.514   3.412   0.700
  969TIP3    H2 2914   2.443   3.426   0.830
  970TIP3   OH2 2915   2.502   3.537   0.969
  970TIP3    H1 2916   2.427   3.569   1.022
  970TIP3    H2 2917   2.534   3.620   0.927
  971TIP3   OH2 2918   1.119   3.257   1.759
  971TIP3    H1 2919   1.216   3.258   1.774
  971TIP3    H2 2920   1.095   3.174   1.805
  972TIP3   OH2 2921   2.952   3.133   1.525
  972TIP3    H1 2922   3.013   3.068   1.484
  972TIP3    H2 2923   2.922   3.185   1.448
  973TIP3   OH2 2924   2.382   2.969   0.281
  973TIP3    H1 2925   2.426   2.951   0.367
  973TIP3    H2 2926   2.319   2.893   0.278
  974TIP3   OH2 2927   1.081   2.965   1.134
  974TIP3    H1 2928   1.136   2.884   1.132
  974TIP3    H2 2929   1.145   3.030   1.100
  975TIP3   OH2 2930   0.961   3.275   1.204
  975TIP3    H1 2931   0.982   3.240   1.118
  975TIP3    H2 2932   0.911   3.353   1.179
  976TIP3   OH2 2933   2.821   3.266   1.328
  976TIP3    H1 2934   2.736   3.308   1.355
  976TIP3    H2 2935   2.787   3.193   1.273
  977TIP3   OH2 2936   2.462   2.897  -0.099
  977TIP3    H1 2937   2.505   2.854  -0.174
  977TIP3    H2 2938   2.518   2.976  -0.087
  978TIP3   OH2 2939   0.856   2.762   0.699
  978TIP3    H1 2940   0.800   2.684   0.703
  978TIP3    H2 2941   0.868   2.774   0.602
  979TIP3   OH2 2942   2.022   4.426   0.192
  979TIP3    H1 2943   2.075   4.420   0.110
  979TIP3    H2 2944   2.059   4.504   0.236
  980TIP3   OH2 2945   1.085   2.822   1.499
  980TIP3    H1 2946   1.034   2.803   1.580
  980TIP3    H2 2947   1.015   2.841   1.436
  981TIP3   OH2 2948   1.126   4.231   1.557
  981TIP3    H1 2949   1.030   4.215   1.558
  981TIP3    H2 2950   1.146   4.248   1.650
  982TIP3   OH2 2951   1.305   4.272   1.110
  982TIP3    H1 2952   1.256   4.349   1.073
  982TIP3    H2 2953   1.391   4.287   1.066
  983TIP3   OH2 2954   1.754   4.500   1.246
  983TIP3    H1 2955   1.789   4.506   1.337
  983TIP3    H2 2956   1.812   4.565   1.200
  984TIP3   OH2 2957   1.925   4.673   1.114
  984TIP3    H1 2958   1.998   4.618   1.081
  984TIP3    H2 2959   1.973   4.731   1.177
  985TIP3   OH2 2960   2.722   3.026   1.212
  985TIP3    H1 2961   2.631   3.013   1.179
  985TIP3    H2 2962   2.758   2.935   1.203
  986TIP3   OH2 2963   0.981   4.526   1.147
  986TIP3    H1 2964   0.890   4.555   1.126
  986TIP3    H2 2965   0.997   4.574   1.229
  987TIP3   OH2 2966   1.212   4.505   0.998
  987TIP3    H1 2967   1.125   4.517   1.043
  987TIP3    H2 2968   1.192   4.536   0.908
  988TIP3   OH2 2969   1.642   4.534   0.795
  988TIP3    H1 2970   1.574   4.554   0.728
  988TIP3    H2 2971   1.651   4.620   0.840
  989TIP3   OH2 2972   1.910   4.471   0.845
  989TIP3    H1 2973   1.814   4.489   0.831
  989TIP3    H2 2974   1.949   4.551   0.807
  990TIP3   OH2 2975   2.121   4.667   0.761
  990TIP3    H1 2976   2.102   4.751   0.713
  990TIP3    H2 2977   2.142   4.606   0.688
  991TIP3   OH2 2978   0.905   4.314   0.890
  991TIP3    H1 2979   0.929   4.280   0.979
  991TIP3    H2 2980   0.974   4.272   0.835
  992TIP3   OH2 2981   1.094   4.194   0.737
  992TIP3    H1 2982   1.108   4.109   0.785
  992TIP3    H2 2983   1.185   4.231   0.738
  993TIP3   OH2 2984   1.358   4.288   0.751
  993TIP3    H1 2985   1.385   4.194   0.743
  993TIP3    H2 2986   1.406   4.311   0.833
  994TIP3   OH2 2987   1.929   2.946   0.841
  994TIP3    H1 2988   1.886   2.873   0.890
  994TIP3    H2 2989   1.997   2.899   0.789
  995TIP3   OH2 2990   2.446   2.828   0.735
  995TIP3    H1 2991   2.480   2.879   0.659
  995TIP3    H2 2992   2.350   2.845   0.728
  996TIP3   OH2 2993   2.544   2.925   0.499
  996TIP3    H1 2994   2.619   2.873   0.463
  996TIP3    H2 2995   2.577   3.017   0.485
  997TIP3   OH2 2996   1.162   2.677   0.856
  997TIP3    H1 2997   1.078   2.627   0.855
  997TIP3    H2 2998   1.227   2.604   0.849
  998TIP3   OH2 2999   1.642   2.677   0.727
  998TIP3    H1 3000   1.696   2.732   0.667
  998TIP3    H2 3001   1.650   2.726   0.810
  999TIP3   OH2 3002   2.164   2.833   0.710
  999TIP3    H1 3003   2.160   2.791   0.624
  999TIP3    H2 3004   2.154   2.755   0.770
 1000TIP3   OH2 3005   2.200   2.758   0.278
 1000TIP3    H1 3006   2.113   2.800   0.290
 1000TIP3    H2 3007   2.185   2.672   0.322
 1001TIP3   OH2 3008   1.623   2.852   0.338
 1001TIP3    H1 3009   1.634   2.806   0.422
 1001TIP3    H2 3010   1.627   2.945   0.368
 1002TIP3   OH2 3011   2.164   4.379  -0.040
 1002TIP3    H1 3012   2.167   4.293  -0.082
 1002TIP3    H2 3013   2.147   4.438  -0.118
 1003TIP3   OH2 3014   1.384   2.933   1.738
 1003TIP3    H1 3015   1.349   2.862   1.795
 1003TIP3    H2 3016   1.478   2.933   1.766
 1004TIP3   OH2 3017   1.632   2.930   1.856
 1004TIP3    H1 3018   1.719   2.905   1.820
 1004TIP3    H2 3019   1.620   2.861   1.925
 1005TIP3   OH2 3020   2.459   2.996   1.645
 1005TIP3    H1 3021   2.476   2.966   1.737
 1005TIP3    H2 3022   2.549   2.990   1.606
 1006TIP3   OH2 3023   2.395   4.543   1.134
 1006TIP3    H1 3024   2.315   4.512   1.088
 1006TIP3    H2 3025   2.374   4.638   1.145
 1007TIP3   OH2 3026   3.652   3.927   0.292
 1007TIP3    H1 3027   3.690   3.894   0.376
 1007TIP3    H2 3028   3.617   3.845   0.254
 1008TIP3   OH2 3029   2.958   3.805   0.651
 1008TIP3    H1 3030   2.986   3.736   0.714
 1008TIP3    H2 3031   3.034   3.866   0.656
 1009TIP3   OH2 3032   2.928   4.226   0.374
 1009TIP3    H1 3033   2.919   4.128   0.377
 1009TIP3    H2 3034   3.022   4.236   0.391
 1010TIP3   OH2 3035   2.644   3.429   0.149
 1010TIP3    H1 3036   2.592   3.508   0.169
 1010TIP3    H2 3037   2.573   3.369   0.119
 1011TIP3   OH2 3038   2.698   3.711   0.330
 1011TIP3    H1 3039   2.749   3.635   0.366
 1011TIP3    H2 3040   2.761   3.747   0.265
 1012TIP3   OH2 3041   3.469   4.145   0.329
 1012TIP3    H1 3042   3.510   4.062   0.299
 1012TIP3    H2 3043   3.551   4.193   0.354
 1013TIP3   OH2 3044   4.436   3.473   0.371
 1013TIP3    H1 3045   4.483   3.548   0.414
 1013TIP3    H2 3046   4.472   3.479   0.280
 1014TIP3   OH2 3047   3.894   3.653   0.378
 1014TIP3    H1 3048   3.926   3.563   0.401
 1014TIP3    H2 3049   3.848   3.633   0.294
 1015TIP3   OH2 3050   3.208   3.299   0.340
 1015TIP3    H1 3051   3.191   3.376   0.282
 1015TIP3    H2 3052   3.164   3.227   0.289
 1016TIP3   OH2 3053   2.846   3.506   0.433
 1016TIP3    H1 3054   2.927   3.487   0.484
 1016TIP3    H2 3055   2.860   3.449   0.355
 1017TIP3   OH2 3056   3.292   3.716   0.236
 1017TIP3    H1 3057   3.385   3.689   0.249
 1017TIP3    H2 3058   3.250   3.631   0.211
 1018TIP3   OH2 3059   4.541   3.684   0.510
 1018TIP3    H1 3060   4.454   3.726   0.524
 1018TIP3    H2 3061   4.592   3.721   0.585
 1019TIP3   OH2 3062   3.208   3.287   0.766
 1019TIP3    H1 3063   3.148   3.326   0.699
 1019TIP3    H2 3064   3.155   3.303   0.847
 1020TIP3   OH2 3065   3.316   4.066   0.551
 1020TIP3    H1 3066   3.254   4.132   0.589
 1020TIP3    H2 3067   3.360   4.118   0.480
 1021TIP3   OH2 3068   4.081   3.354   0.110
 1021TIP3    H1 3069   4.073   3.356   0.206
 1021TIP3    H2 3070   4.148   3.424   0.091
 1022TIP3   OH2 3071   3.077   3.406   0.552
 1022TIP3    H1 3072   3.140   3.479   0.574
 1022TIP3    H2 3073   3.128   3.361   0.481
 1023TIP3   OH2 3074   3.143   4.261   0.649
 1023TIP3    H1 3075   3.118   4.352   0.622
 1023TIP3    H2 3076   3.066   4.241   0.707
 1024TIP3   OH2 3077   2.525   3.982  -0.100
 1024TIP3    H1 3078   2.597   3.982  -0.164
 1024TIP3    H2 3079   2.545   4.065  -0.050
 1025TIP3   OH2 3080   4.236   3.351   0.513
 1025TIP3    H1 3081   4.149   3.374   0.477
 1025TIP3    H2 3082   4.298   3.394   0.451
 1026TIP3   OH2 3083   3.556   3.000   0.477
 1026TIP3    H1 3084   3.544   2.906   0.501
 1026TIP3    H2 3085   3.480   3.040   0.526
 1027TIP3   OH2 3086   4.202   4.371   0.477
 1027TIP3    H1 3087   4.197   4.291   0.420
 1027TIP3    H2 3088   4.183   4.443   0.413
 1028TIP3   OH2 3089   4.391   3.991   0.342
 1028TIP3    H1 3090   4.317   4.056   0.333
 1028TIP3    H2 3091   4.451   4.022   0.274
 1029TIP3   OH2 3092   4.061   3.893   0.633
 1029TIP3    H1 3093   4.063   3.973   0.688
 1029TIP3    H2 3094   3.976   3.903   0.586
 1030TIP3   OH2 3095   3.065   3.859   0.151
 1030TIP3    H1 3096   3.014   3.808   0.085
 1030TIP3    H2 3097   3.149   3.810   0.156
 1031TIP3   OH2 3098   3.219   4.237   0.245
 1031TIP3    H1 3099   3.181   4.149   0.237
 1031TIP3    H2 3100   3.311   4.215   0.272
 1032TIP3   OH2 3101   3.211   3.820   0.479
 1032TIP3    H1 3102   3.241   3.797   0.389
 1032TIP3    H2 3103   3.253   3.907   0.494
 1033TIP3   OH2 3104   3.731   4.452   0.250
 1033TIP3    H1 3105   3.733   4.530   0.307
 1033TIP3    H2 3106   3.730   4.378   0.313
 1034TIP3   OH2 3107   3.346   4.372   0.798
 1034TIP3    H1 3108   3.286   4.432   0.847
 1034TIP3    H2 3109   3.279   4.320   0.748
 1035TIP3   OH2 3110   3.102   3.934   0.903
 1035TIP3    H1 3111   3.108   4.021   0.948
 1035TIP3    H2 3112   3.009   3.911   0.920
 1036TIP3   OH2 3113   3.143   4.539   0.890
 1036TIP3    H1 3114   3.107   4.543   0.800
 1036TIP3    H2 3115   3.063   4.519   0.944
 1037TIP3   OH2 3116   2.904   3.703  -0.014
 1037TIP3    H1 3117   2.938   3.701  -0.105
 1037TIP3    H2 3118   2.856   3.620  -0.007
 1038TIP3   OH2 3119   2.722   4.078   0.835
 1038TIP3    H1 3120   2.652   4.057   0.770
 1038TIP3    H2 3121   2.757   3.989   0.857
 1039TIP3   OH2 3122   2.573   4.268   0.467
 1039TIP3    H1 3123   2.669   4.268   0.463
 1039TIP3    H2 3124   2.556   4.345   0.523
 1040TIP3   OH2 3125   4.452   4.714   0.562
 1040TIP3    H1 3126   4.441   4.617   0.559
 1040TIP3    H2 3127   4.362   4.742   0.585
 1041TIP3   OH2 3128   3.539   4.514   0.670
 1041TIP3    H1 3129   3.545   4.584   0.737
 1041TIP3    H2 3130   3.465   4.461   0.707
 1042TIP3   OH2 3131   1.519   3.142   6.214
 1042TIP3    H1 3132   1.567   3.148   6.300
 1042TIP3    H2 3133   1.473   3.229   6.218
 1043TIP3   OH2 3134   4.325   3.844   0.815
 1043TIP3    H1 3135   4.244   3.852   0.763
 1043TIP3    H2 3136   4.345   3.749   0.805
 1044TIP3   OH2 3137   2.927   4.259   0.816
 1044TIP3    H1 3138   2.974   4.245   0.901
 1044TIP3    H2 3139   2.852   4.196   0.825
 1045TIP3   OH2 3140   3.323   3.083   0.612
 1045TIP3    H1 3141   3.234   3.052   0.583
 1045TIP3    H2 3142   3.295   3.162   0.663
 1046TIP3   OH2 3143   3.860   3.196   0.805
 1046TIP3    H1 3144   3.930   3.170   0.868
 1046TIP3    H2 3145   3.778   3.176   0.855
 1047TIP3   OH2 3146   4.090   3.628   0.721
 1047TIP3    H1 3147   4.044   3.623   0.808
 1047TIP3    H2 3148   4.064   3.716   0.689
 1048TIP3   OH2 3149   3.258   3.599   0.629
 1048TIP3    H1 3150   3.207   3.618   0.710
 1048TIP3    H2 3151   3.240   3.681   0.577
 1049TIP3   OH2 3152   3.151   3.490   0.157
 1049TIP3    H1 3153   3.058   3.459   0.156
 1049TIP3    H2 3154   3.190   3.449   0.079
 1050TIP3   OH2 3155   3.805   3.845   0.953
 1050TIP3    H1 3156   3.781   3.772   1.015
 1050TIP3    H2 3157   3.898   3.858   0.977
 1051TIP3   OH2 3158   3.780   3.576   0.143
 1051TIP3    H1 3159   3.767   3.620   0.056
 1051TIP3    H2 3160   3.818   3.493   0.113
 1052TIP3   OH2 3161   3.076   3.625   0.836
 1052TIP3    H1 3162   3.102   3.686   0.906
 1052TIP3    H2 3163   3.062   3.542   0.886
 1053TIP3   OH2 3164   2.668   3.150   0.412
 1053TIP3    H1 3165   2.743   3.178   0.468
 1053TIP3    H2 3166   2.710   3.109   0.335
 1054TIP3   OH2 3167   2.629   3.132  -0.059
 1054TIP3    H1 3168   2.669   3.148  -0.145
 1054TIP3    H2 3169   2.568   3.207  -0.046
 1055TIP3   OH2 3170   3.785   3.848   0.528
 1055TIP3    H1 3171   3.830   3.780   0.473
 1055TIP3    H2 3172   3.760   3.792   0.605
 1056TIP3   OH2 3173   3.468   3.295   0.222
 1056TIP3    H1 3174   3.396   3.295   0.288
 1056TIP3    H2 3175   3.547   3.289   0.279
 1057TIP3   OH2 3176   2.906   3.364   0.193
 1057TIP3    H1 3177   2.810   3.378   0.174
 1057TIP3    H2 3178   2.916   3.268   0.183
 1058TIP3   OH2 3179   3.961   3.383   0.411
 1058TIP3    H1 3180   3.928   3.395   0.503
 1058TIP3    H2 3181   3.895   3.321   0.376
 1059TIP3   OH2 3182   4.138   5.062   0.599
 1059TIP3    H1 3183   4.134   5.132   0.530
 1059TIP3    H2 3184   4.206   5.102   0.656
 1060TIP3   OH2 3185   3.089   4.183   1.042
 1060TIP3    H1 3186   3.167   4.210   1.094
 1060TIP3    H2 3187   3.022   4.179   1.114
 1061TIP3   OH2 3188   3.551   3.639   0.304
 1061TIP3    H1 3189   3.624   3.600   0.252
 1061TIP3    H2 3190   3.556   3.589   0.388
 1062TIP3   OH2 3191   3.085   3.109   0.177
 1062TIP3    H1 3192   3.032   3.043   0.228
 1062TIP3    H2 3193   3.158   3.053   0.148
 1063TIP3   OH2 3194   3.526   3.538   0.583
 1063TIP3    H1 3195   3.435   3.570   0.602
 1063TIP3    H2 3196   3.582   3.597   0.637
 1064TIP3   OH2 3197   4.165   4.156   0.309
 1064TIP3    H1 3198   4.162   4.212   0.230
 1064TIP3    H2 3199   4.077   4.112   0.304
 1065TIP3   OH2 3200   3.680   4.254   0.683
 1065TIP3    H1 3201   3.702   4.212   0.768
 1065TIP3    H2 3202   3.619   4.324   0.709
 1066TIP3   OH2 3203   2.956   3.955   0.377
 1066TIP3    H1 3204   2.992   3.924   0.290
 1066TIP3    H2 3205   2.993   3.889   0.437
 1067TIP3   OH2 3206   2.841   3.862   0.972
 1067TIP3    H1 3207   2.855   3.848   1.067
 1067TIP3    H2 3208   2.770   3.798   0.954
 1068TIP3   OH2 3209   3.566   3.986   0.991
 1068TIP3    H1 3210   3.504   3.922   0.953
 1068TIP3    H2 3211   3.652   3.946   0.964
 1069TIP3   OH2 3212   3.812   4.520   0.571
 1069TIP3    H1 3213   3.718   4.497   0.583
 1069TIP3    H2 3214   3.846   4.512   0.661
 1070TIP3   OH2 3215   4.456   4.418   0.559
 1070TIP3    H1 3216   4.359   4.412   0.543
 1070TIP3    H2 3217   4.492   4.392   0.472
 1071TIP3   OH2 3218   3.924   4.026   0.262
 1071TIP3    H1 3219   3.829   4.005   0.256
 1071TIP3    H2 3220   3.961   3.950   0.212
 1072TIP3   OH2 3221   3.331   4.588   0.450
 1072TIP3    H1 3222   3.367   4.659   0.392
 1072TIP3    H2 3223   3.411   4.558   0.495
 1073TIP3   OH2 3224   3.721   4.229   0.415
 1073TIP3    H1 3225   3.710   4.227   0.513
 1073TIP3    H2 3226   3.791   4.164   0.401
 1074TIP3   OH2 3227   3.928   4.783   0.502
 1074TIP3    H1 3228   3.861   4.725   0.458
 1074TIP3    H2 3229   3.945   4.846   0.431
 1075TIP3   OH2 3230   3.045   3.371   0.977
 1075TIP3    H1 3231   2.949   3.375   0.990
 1075TIP3    H2 3232   3.073   3.317   1.053
 1076TIP3   OH2 3233   2.770   4.447   0.615
 1076TIP3    H1 3234   2.821   4.380   0.663
 1076TIP3    H2 3235   2.786   4.525   0.668
 1077TIP3   OH2 3236   3.885   3.434   0.668
 1077TIP3    H1 3237   3.965   3.474   0.707
 1077TIP3    H2 3238   3.873   3.353   0.723
 1078TIP3   OH2 3239   3.375   3.357  -0.032
 1078TIP3    H1 3240   3.463   3.376  -0.069
 1078TIP3    H2 3241   3.403   3.329   0.058
 1079TIP3   OH2 3242   3.725   3.680   0.734
 1079TIP3    H1 3243   3.750   3.729   0.815
 1079TIP3    H2 3244   3.777   3.598   0.743
 1080TIP3   OH2 3245   3.608   3.089   0.042
 1080TIP3    H1 3246   3.606   3.163   0.105
 1080TIP3    H2 3247   3.657   3.130  -0.032
 1081TIP3   OH2 3248   3.127   3.042  -0.169
 1081TIP3    H1 3249   3.109   3.124  -0.120
 1081TIP3    H2 3250   3.221   3.051  -0.191
 1082TIP3   OH2 3251   4.356   3.578   0.728
 1082TIP3    H1 3252   4.257   3.580   0.730
 1082TIP3    H2 3253   4.370   3.534   0.644
 1083TIP3   OH2 3254   4.028   3.812   0.125
 1083TIP3    H1 3255   3.970   3.747   0.083
 1083TIP3    H2 3256   4.084   3.756   0.182
 1084TIP3   OH2 3257   3.060   3.000   0.580
 1084TIP3    H1 3258   3.028   2.965   0.494
 1084TIP3    H2 3259   3.049   2.923   0.639
 1085TIP3   OH2 3260   2.551   4.230   0.001
 1085TIP3    H1 3261   2.522   4.273   0.084
 1085TIP3    H2 3262   2.635   4.279  -0.013
 1086TIP3   OH2 3263   2.759   4.773   1.033
 1086TIP3    H1 3264   2.843   4.772   1.082
 1086TIP3    H2 3265   2.736   4.678   1.034
 1087TIP3   OH2 3266   3.234   4.726   1.074
 1087TIP3    H1 3267   3.325   4.699   1.089
 1087TIP3    H2 3268   3.206   4.660   1.007
 1088TIP3   OH2 3269   3.895   4.641   0.817
 1088TIP3    H1 3270   3.860   4.571   0.878
 1088TIP3    H2 3271   3.974   4.667   0.869
 1089TIP3   OH2 3272   2.886   4.174   1.233
 1089TIP3    H1 3273   2.901   4.078   1.244
 1089TIP3    H2 3274   2.798   4.176   1.190
 1090TIP3   OH2 3275   3.495   4.260   1.007
 1090TIP3    H1 3276   3.445   4.273   0.924
 1090TIP3    H2 3277   3.526   4.167   1.000
 1091TIP3   OH2 3278   3.989   4.265   0.618
 1091TIP3    H1 3279   4.063   4.310   0.573
 1091TIP3    H2 3280   3.912   4.313   0.585
 1092TIP3   OH2 3281   3.009   3.910   1.219
 1092TIP3    H1 3282   3.082   3.852   1.197
 1092TIP3    H2 3283   3.035   3.941   1.308
 1093TIP3   OH2 3284   3.341   3.791   0.882
 1093TIP3    H1 3285   3.261   3.849   0.884
 1093TIP3    H2 3286   3.388   3.825   0.803
 1094TIP3   OH2 3287   3.860   4.198   1.005
 1094TIP3    H1 3288   3.943   4.165   0.970
 1094TIP3    H2 3289   3.847   4.139   1.082
 1095TIP3   OH2 3290   3.465   3.579   1.004
 1095TIP3    H1 3291   3.465   3.501   0.945
 1095TIP3    H2 3292   3.420   3.647   0.948
 1096TIP3   OH2 3293   3.467   3.367   0.812
 1096TIP3    H1 3294   3.494   3.405   0.727
 1096TIP3    H2 3295   3.374   3.342   0.794
 1097TIP3   OH2 3296   3.490   3.902   0.686
 1097TIP3    H1 3297   3.573   3.904   0.638
 1097TIP3    H2 3298   3.434   3.964   0.635
 1098TIP3   OH2 3299   4.071   3.865   1.062
 1098TIP3    H1 3300   4.115   3.780   1.082
 1098TIP3    H2 3301   4.145   3.917   1.026
 1099TIP3   OH2 3302   4.117   4.117   0.802
 1099TIP3    H1 3303   4.061   4.174   0.744
 1099TIP3    H2 3304   4.206   4.136   0.763
 1100TIP3   OH2 3305   3.342   3.683   1.237
 1100TIP3    H1 3306   3.274   3.615   1.255
 1100TIP3    H2 3307   3.376   3.655   1.149
 1101TIP3   OH2 3308   3.598   3.127   0.884
 1101TIP3    H1 3309   3.548   3.209   0.861
 1101TIP3    H2 3310   3.528   3.059   0.873
 1102TIP3   OH2 3311   3.723   3.629   1.097
 1102TIP3    H1 3312   3.709   3.613   1.192
 1102TIP3    H2 3313   3.634   3.605   1.064
 1103TIP3   OH2 3314   3.961   3.580   0.952
 1103TIP3    H1 3315   3.886   3.580   1.015
 1103TIP3    H2 3316   4.036   3.550   1.008
 1104TIP3   OH2 3317   4.189   3.523   1.100
 1104TIP3    H1 3318   4.205   3.427   1.116
 1104TIP3    H2 3319   4.186   3.559   1.191
 1105TIP3   OH2 3320   3.182   3.463   1.294
 1105TIP3    H1 3321   3.185   3.371   1.261
 1105TIP3    H2 3322   3.220   3.452   1.384
 1106TIP3   OH2 3323   3.690   3.137   1.142
 1106TIP3    H1 3324   3.757   3.066   1.136
 1106TIP3    H2 3325   3.651   3.132   1.053
 1107TIP3   OH2 3326   3.758   3.351   1.298
 1107TIP3    H1 3327   3.736   3.279   1.235
 1107TIP3    H2 3328   3.679   3.409   1.292
 1108TIP3   OH2 3329   2.360   4.552   0.049
 1108TIP3    H1 3330   2.287   4.498   0.012
 1108TIP3    H2 3331   2.396   4.490   0.116
 1109TIP3   OH2 3332   2.501   4.389   0.220
 1109TIP3    H1 3333   2.496   4.335   0.301
 1109TIP3    H2 3334   2.560   4.459   0.252
 1110TIP3   OH2 3335   4.305   4.523   0.869
 1110TIP3    H1 3336   4.239   4.534   0.941
 1110TIP3    H2 3337   4.354   4.608   0.875
 1111TIP3   OH2 3338   4.121   4.571   0.312
 1111TIP3    H1 3339   4.041   4.611   0.349
 1111TIP3    H2 3340   4.093   4.538   0.226
 1112TIP3   OH2 3341   2.694   3.832   0.583
 1112TIP3    H1 3342   2.692   3.798   0.491
 1112TIP3    H2 3343   2.791   3.832   0.600
 1113TIP3   OH2 3344   4.362   4.182   0.696
 1113TIP3    H1 3345   4.432   4.113   0.691
 1113TIP3    H2 3346   4.399   4.251   0.637
 1114TIP3   OH2 3347   4.537   3.979   0.716
 1114TIP3    H1 3348   4.464   3.927   0.757
 1114TIP3    H2 3349   4.611   3.915   0.725
 1115TIP3   OH2 3350   4.239   3.693   0.260
 1115TIP3    H1 3351   4.330   3.726   0.266
 1115TIP3    H2 3352   4.217   3.695   0.355
 1116TIP3   OH2 3353   4.292   3.801   0.508
 1116TIP3    H1 3354   4.209   3.836   0.547
 1116TIP3    H2 3355   4.324   3.879   0.458
 1117TIP3   OH2 3356   2.916   3.518   1.259
 1117TIP3    H1 3357   3.013   3.513   1.267
 1117TIP3    H2 3358   2.890   3.431   1.297
 1118TIP3   OH2 3359   4.747   3.387   1.015
 1118TIP3    H1 3360   4.809   3.323   0.973
 1118TIP3    H2 3361   4.718   3.439   0.938
 1119TIP3   OH2 3362   2.877   3.209   0.581
 1119TIP3    H1 3363   2.939   3.135   0.595
 1119TIP3    H2 3364   2.938   3.285   0.582
 1120TIP3   OH2 3365   2.674   3.482   0.661
 1120TIP3    H1 3366   2.725   3.482   0.578
 1120TIP3    H2 3367   2.703   3.564   0.703
 1121TIP3   OH2 3368   4.614   3.519   0.819
 1121TIP3    H1 3369   4.529   3.561   0.841
 1121TIP3    H2 3370   4.582   3.445   0.763
 1122TIP3   OH2 3371   2.662   2.984   0.166
 1122TIP3    H1 3372   2.569   2.979   0.197
 1122TIP3    H2 3373   2.654   3.045   0.090
 1123TIP3   OH2 3374   2.881   3.066   0.978
 1123TIP3    H1 3375   2.831   3.061   1.060
 1123TIP3    H2 3376   2.814   3.105   0.918
 1124TIP3   OH2 3377   2.922   4.496   1.053
 1124TIP3    H1 3378   2.828   4.477   1.039
 1124TIP3    H2 3379   2.931   4.477   1.148
 1125TIP3   OH2 3380   3.108   4.530   0.605
 1125TIP3    H1 3381   3.055   4.604   0.568
 1125TIP3    H2 3382   3.190   4.545   0.552
 1126TIP3   OH2 3383   4.513   3.278   0.704
 1126TIP3    H1 3384   4.423   3.260   0.675
 1126TIP3    H2 3385   4.553   3.188   0.695
 1127TIP3   OH2 3386   2.777   4.784   0.629
 1127TIP3    H1 3387   2.687   4.815   0.604
 1127TIP3    H2 3388   2.789   4.833   0.711
 1128TIP3   OH2 3389   3.015   4.763   0.491
 1128TIP3    H1 3390   2.928   4.775   0.535
 1128TIP3    H2 3391   2.993   4.790   0.399
 1129TIP3   OH2 3392   3.442   4.789   0.291
 1129TIP3    H1 3393   3.370   4.827   0.236
 1129TIP3    H2 3394   3.453   4.863   0.356
 1130TIP3   OH2 3395   3.717   4.724   0.337
 1130TIP3    H1 3396   3.620   4.724   0.338
 1130TIP3    H2 3397   3.731   4.780   0.258
 1131TIP3   OH2 3398   2.683   4.554   0.372
 1131TIP3    H1 3399   2.717   4.523   0.459
 1131TIP3    H2 3400   2.753   4.520   0.313
 1132TIP3   OH2 3401   2.872   4.439   0.214
 1132TIP3    H1 3402   2.889   4.359   0.269
 1132TIP3    H2 3403   2.962   4.480   0.217
 1133TIP3   OH2 3404   3.133   4.513   0.247
 1133TIP3    H1 3405   3.179   4.428   0.240
 1133TIP3    H2 3406   3.190   4.562   0.309
 1134TIP3   OH2 3407   3.722   3.199   0.320
 1134TIP3    H1 3408   3.684   3.125   0.370
 1134TIP3    H2 3409   3.797   3.156   0.274
 1135TIP3   OH2 3410   4.234   3.103   0.237
 1135TIP3    H1 3411   4.259   3.164   0.167
 1135TIP3    H2 3412   4.137   3.104   0.229
 1136TIP3   OH2 3413   2.970   2.909   0.330
 1136TIP3    H1 3414   2.878   2.874   0.335
 1136TIP3    H2 3415   3.020   2.824   0.328
 1137TIP3   OH2 3416   2.746   2.767  -0.002
 1137TIP3    H1 3417   2.774   2.828  -0.074
 1137TIP3    H2 3418   2.717   2.831   0.066
 1138TIP3   OH2 3419   3.410   2.950   0.211
 1138TIP3    H1 3420   3.469   2.993   0.147
 1138TIP3    H2 3421   3.449   2.977   0.295
 1139TIP3   OH2 3422   3.953   3.083   0.207
 1139TIP3    H1 3423   3.975   3.041   0.122
 1139TIP3    H2 3424   3.942   3.004   0.265
 1140TIP3   OH2 3425   2.843   2.937  -0.188
 1140TIP3    H1 3426   2.883   2.901  -0.269
 1140TIP3    H2 3427   2.919   2.987  -0.154
 1141TIP3   OH2 3428   3.178   3.189   1.226
 1141TIP3    H1 3429   3.144   3.119   1.283
 1141TIP3    H2 3430   3.272   3.189   1.253
 1142TIP3   OH2 3431   3.428   3.187   1.344
 1142TIP3    H1 3432   3.514   3.160   1.307
 1142TIP3    H2 3433   3.414   3.117   1.412
 1143TIP3   OH2 3434   4.256   3.253   1.131
 1143TIP3    H1 3435   4.274   3.223   1.223
 1143TIP3    H2 3436   4.345   3.248   1.091
 1144TIP3   OH2 3437   4.191   4.797   0.628
 1144TIP3    H1 3438   4.133   4.767   0.557
 1144TIP3    H2 3439   4.188   4.894   0.615
 1145TIP3   OH2 3440   4.878   4.199   0.426
 1145TIP3    H1 3441   4.894   4.286   0.473
 1145TIP3    H2 3442   4.784   4.186   0.446
 1146TIP3   OH2 3443   4.800   3.920   0.351
 1146TIP3    H1 3444   4.861   3.974   0.402
 1146TIP3    H2 3445   4.850   3.837   0.341
 1147TIP3   OH2 3446   4.891   4.445   0.537
 1147TIP3    H1 3447   4.969   4.471   0.591
 1147TIP3    H2 3448   4.818   4.472   0.596
 1148TIP3   OH2 3449   4.617   4.142   0.495
 1148TIP3    H1 3450   4.656   4.127   0.583
 1148TIP3    H2 3451   4.558   4.065   0.488
 1149TIP3   OH2 3452   4.847   3.603   0.484
 1149TIP3    H1 3453   4.761   3.625   0.523
 1149TIP3    H2 3454   4.887   3.547   0.553
 1150TIP3   OH2 3455   4.544   4.992   0.570
 1150TIP3    H1 3456   4.636   5.005   0.602
 1150TIP3    H2 3457   4.536   4.897   0.564
 1151TIP3   OH2 3458   4.680   4.432   0.727
 1151TIP3    H1 3459   4.706   4.338   0.728
 1151TIP3    H2 3460   4.596   4.428   0.676
 1152TIP3   OH2 3461   4.797   4.162   0.712
 1152TIP3    H1 3462   4.879   4.120   0.681
 1152TIP3    H2 3463   4.826   4.194   0.800
 1153TIP3   OH2 3464   5.164   3.815   0.495
 1153TIP3    H1 3465   5.210   3.731   0.499
 1153TIP3    H2 3466   5.207   3.857   0.419
 1154TIP3   OH2 3467   5.126   3.947   0.732
 1154TIP3    H1 3468   5.058   3.885   0.765
 1154TIP3    H2 3469   5.136   3.913   0.640
 1155TIP3   OH2 3470   5.237   3.423   0.334
 1155TIP3    H1 3471   5.332   3.447   0.338
 1155TIP3    H2 3472   5.238   3.335   0.374
 1156TIP3   OH2 3473   5.503   3.946   0.607
 1156TIP3    H1 3474   5.544   3.949   0.696
 1156TIP3    H2 3475   5.486   3.852   0.599
 1157TIP3   OH2 3476   6.018   3.761   0.649
 1157TIP3    H1 3477   5.951   3.703   0.684
 1157TIP3    H2 3478   6.011   3.836   0.714
 1158TIP3   OH2 3479   4.968   3.724   0.793
 1158TIP3    H1 3480   4.988   3.641   0.746
 1158TIP3    H2 3481   5.009   3.706   0.880
 1159TIP3   OH2 3482   5.470   3.390   0.632
 1159TIP3    H1 3483   5.528   3.312   0.638
 1159TIP3    H2 3484   5.481   3.410   0.536
 1160TIP3   OH2 3485   5.546   3.602   0.789
 1160TIP3    H1 3486   5.522   3.530   0.728
 1160TIP3    H2 3487   5.467   3.660   0.785
 1161TIP3   OH2 3488   4.705   3.764   0.729
 1161TIP3    H1 3489   4.801   3.768   0.747
 1161TIP3    H2 3490   4.683   3.681   0.778
 1162TIP3   OH2 3491   4.658   3.335   0.472
 1162TIP3    H1 3492   4.621   3.322   0.560
 1162TIP3    H2 3493   4.579   3.359   0.422
 1163TIP3   OH2 3494   4.724   4.718   0.577
 1163TIP3    H1 3495   4.632   4.709   0.548
 1163TIP3    H2 3496   4.713   4.723   0.673
 1164TIP3   OH2 3497   4.971   3.438   0.709
 1164TIP3    H1 3498   4.940   3.370   0.772
 1164TIP3    H2 3499   5.065   3.443   0.735
 1165TIP3   OH2 3500   5.222   3.441   0.824
 1165TIP3    H1 3501   5.306   3.418   0.780
 1165TIP3    H2 3502   5.216   3.371   0.892
 1166TIP3   OH2 3503   6.084   3.484   0.630
 1166TIP3    H1 3504   6.093   3.443   0.720
 1166TIP3    H2 3505   6.111   3.574   0.649
 1167TIP3   OH2 3506   0.579   4.964   1.198
 1167TIP3    H1 3507   0.521   5.027   1.154
 1167TIP3    H2 3508   0.632   5.021   1.257
 1168TIP3   OH2 3509   0.390   4.873   1.389
 1168TIP3    H1 3510   0.383   4.953   1.442
 1168TIP3    H2 3511   0.457   4.898   1.321
 1169TIP3   OH2 3512   0.146   5.169   1.780
 1169TIP3    H1 3513   0.162   5.082   1.741
 1169TIP3    H2 3514   0.172   5.229   1.710
 1170TIP3   OH2 3515   0.290   4.833   1.792
 1170TIP3    H1 3516   0.273   4.737   1.797
 1170TIP3    H2 3517   0.245   4.867   1.872
 1171TIP3   OH2 3518   0.566   5.283   1.382
 1171TIP3    H1 3519   0.488   5.237   1.417
 1171TIP3    H2 3520   0.637   5.217   1.394
 1172TIP3   OH2 3521   0.789   4.687   1.676
 1172TIP3    H1 3522   0.852   4.623   1.638
 1172TIP3    H2 3523   0.765   4.740   1.598
 1173TIP3   OH2 3524   0.661   4.828   1.482
 1173TIP3    H1 3525   0.590   4.862   1.540
 1173TIP3    H2 3526   0.615   4.758   1.432
 1174TIP3   OH2 3527   0.564   4.577   1.370
 1174TIP3    H1 3528   0.476   4.551   1.339
 1174TIP3    H2 3529   0.610   4.490   1.368
 1175TIP3   OH2 3530   0.299   4.551   1.799
 1175TIP3    H1 3531   0.316   4.522   1.891
 1175TIP3    H2 3532   0.389   4.553   1.762
 1176TIP3   OH2 3533   2.319   5.022   0.485
 1176TIP3    H1 3534   2.348   5.104   0.530
 1176TIP3    H2 3535   2.324   5.049   0.391
 1177TIP3   OH2 3536   1.728   5.210   0.517
 1177TIP3    H1 3537   1.762   5.120   0.537
 1177TIP3    H2 3538   1.680   5.193   0.434
 1178TIP3   OH2 3539   1.737   4.960   0.122
 1178TIP3    H1 3540   1.818   4.941   0.174
 1178TIP3    H2 3541   1.775   4.969   0.032
 1179TIP3   OH2 3542   2.391   5.234   0.648
 1179TIP3    H1 3543   2.304   5.275   0.630
 1179TIP3    H2 3544   2.393   5.241   0.744
 1180TIP3   OH2 3545   1.047   4.834   0.916
 1180TIP3    H1 3546   0.972   4.823   0.856
 1180TIP3    H2 3547   1.001   4.865   0.997
 1181TIP3   OH2 3548   1.958   4.958   0.284
 1181TIP3    H1 3549   1.927   4.917   0.365
 1181TIP3    H2 3550   2.005   5.037   0.317
 1182TIP3   OH2 3551   2.109   4.925   0.651
 1182TIP3    H1 3552   2.019   4.944   0.617
 1182TIP3    H2 3553   2.166   4.953   0.577
 1183TIP3   OH2 3554   1.398   4.555   0.628
 1183TIP3    H1 3555   1.385   4.463   0.656
 1183TIP3    H2 3556   1.322   4.598   0.675
 1184TIP3   OH2 3557   2.229   5.578   0.488
 1184TIP3    H1 3558   2.147   5.632   0.498
 1184TIP3    H2 3559   2.248   5.591   0.395
 1185TIP3   OH2 3560   1.917   5.448   0.764
 1185TIP3    H1 3561   1.905   5.539   0.794
 1185TIP3    H2 3562   1.829   5.435   0.722
 1186TIP3   OH2 3563   2.169   5.409   0.946
 1186TIP3    H1 3564   2.080   5.418   0.907
 1186TIP3    H2 3565   2.183   5.313   0.938
 1187TIP3   OH2 3566   1.167   4.634   0.759
 1187TIP3    H1 3567   1.079   4.599   0.731
 1187TIP3    H2 3568   1.140   4.715   0.805
 1188TIP3   OH2 3569   1.701   4.755   0.954
 1188TIP3    H1 3570   1.769   4.733   1.020
 1188TIP3    H2 3571   1.619   4.740   1.004
 1189TIP3   OH2 3572   1.942   5.191   0.882
 1189TIP3    H1 3573   1.888   5.183   0.964
 1189TIP3    H2 3574   1.908   5.273   0.841
 1190TIP3   OH2 3575   1.181   5.177   0.842
 1190TIP3    H1 3576   1.094   5.138   0.862
 1190TIP3    H2 3577   1.158   5.267   0.815
 1191TIP3   OH2 3578   1.659   5.392   1.100
 1191TIP3    H1 3579   1.634   5.322   1.164
 1191TIP3    H2 3580   1.749   5.412   1.129
 1192TIP3   OH2 3581   1.631   5.167   0.262
 1192TIP3    H1 3582   1.588   5.212   0.188
 1192TIP3    H2 3583   1.661   5.084   0.218
 1193TIP3   OH2 3584   0.905   5.232   1.070
 1193TIP3    H1 3585   0.976   5.280   1.116
 1193TIP3    H2 3586   0.910   5.144   1.111
 1194TIP3   OH2 3587   1.655   5.411   0.686
 1194TIP3    H1 3588   1.672   5.344   0.616
 1194TIP3    H2 3589   1.620   5.352   0.756
 1195TIP3   OH2 3590   1.802   4.941   0.561
 1195TIP3    H1 3591   1.767   4.956   0.652
 1195TIP3    H2 3592   1.737   4.875   0.530
 1196TIP3   OH2 3593   0.940   5.659   1.168
 1196TIP3    H1 3594   1.007   5.694   1.232
 1196TIP3    H2 3595   0.903   5.587   1.223
 1197TIP3   OH2 3596   1.413   5.204   0.478
 1197TIP3    H1 3597   1.471   5.158   0.416
 1197TIP3    H2 3598   1.415   5.145   0.556
 1198TIP3   OH2 3599   1.404   5.077   0.729
 1198TIP3    H1 3600   1.324   5.120   0.767
 1198TIP3    H2 3601   1.475   5.125   0.775
 1199TIP3   OH2 3602   1.999   5.730   0.500
 1199TIP3    H1 3603   2.023   5.772   0.415
 1199TIP3    H2 3604   1.925   5.671   0.470
 1200TIP3   OH2 3605   1.419   5.507   1.149
 1200TIP3    H1 3606   1.356   5.437   1.126
 1200TIP3    H2 3607   1.505   5.470   1.119
 1201TIP3   OH2 3608   1.809   5.561   0.409
 1201TIP3    H1 3609   1.717   5.545   0.435
 1201TIP3    H2 3610   1.826   5.484   0.350
 1202TIP3   OH2 3611   0.898   4.919   1.144
 1202TIP3    H1 3612   0.808   4.927   1.177
 1202TIP3    H2 3613   0.939   4.863   1.212
 1203TIP3   OH2 3614   1.725   4.998   0.824
 1203TIP3    H1 3615   1.809   5.026   0.865
 1203TIP3    H2 3616   1.708   4.913   0.869
 1204TIP3   OH2 3617   1.576   5.239   0.884
 1204TIP3    H1 3618   1.603   5.288   0.964
 1204TIP3    H2 3619   1.627   5.156   0.893
 1205TIP3   OH2 3620   1.523   4.637   0.214
 1205TIP3    H1 3621   1.457   4.703   0.245
 1205TIP3    H2 3622   1.516   4.648   0.118
 1206TIP3   OH2 3623   2.203   5.137   0.862
 1206TIP3    H1 3624   2.106   5.145   0.879
 1206TIP3    H2 3625   2.200   5.076   0.787
 1207TIP3   OH2 3626   1.862   5.329   0.263
 1207TIP3    H1 3627   1.787   5.269   0.280
 1207TIP3    H2 3628   1.934   5.282   0.308
 1208TIP3   OH2 3629   0.918   4.530   0.723
 1208TIP3    H1 3630   0.831   4.542   0.686
 1208TIP3    H2 3631   0.902   4.461   0.791
 1209TIP3   OH2 3632   1.288   5.741   1.151
 1209TIP3    H1 3633   1.304   5.769   1.062
 1209TIP3    H2 3634   1.345   5.661   1.158
 1210TIP3   OH2 3635   1.832   5.739   0.772
 1210TIP3    H1 3636   1.887   5.767   0.698
 1210TIP3    H2 3637   1.788   5.822   0.797
 1211TIP3   OH2 3638   0.879   5.469   1.353
 1211TIP3    H1 3639   0.935   5.392   1.365
 1211TIP3    H2 3640   0.881   5.508   1.443
 1212TIP3   OH2 3641   1.183   5.385   1.051
 1212TIP3    H1 3642   1.133   5.465   1.073
 1212TIP3    H2 3643   1.222   5.409   0.965
 1213TIP3   OH2 3644   1.721   5.752   1.142
 1213TIP3    H1 3645   1.809   5.713   1.141
 1213TIP3    H2 3646   1.681   5.704   1.216
 1214TIP3   OH2 3647   1.302   5.138   1.153
 1214TIP3    H1 3648   1.308   5.056   1.100
 1214TIP3    H2 3649   1.259   5.199   1.089
 1215TIP3   OH2 3650   1.308   4.920   0.964
 1215TIP3    H1 3651   1.340   4.956   0.880
 1215TIP3    H2 3652   1.216   4.896   0.942
 1216TIP3   OH2 3653   1.320   5.468   0.824
 1216TIP3    H1 3654   1.410   5.437   0.812
 1216TIP3    H2 3655   1.328   5.564   0.818
 1217TIP3   OH2 3656   1.915   5.422   1.215
 1217TIP3    H1 3657   1.954   5.337   1.240
 1217TIP3    H2 3658   1.989   5.465   1.169
 1218TIP3   OH2 3659   1.979   5.668   0.985
 1218TIP3    H1 3660   1.910   5.695   0.921
 1218TIP3    H2 3661   2.060   5.690   0.933
 1219TIP3   OH2 3662   1.158   5.251   1.376
 1219TIP3    H1 3663   1.106   5.173   1.401
 1219TIP3    H2 3664   1.212   5.217   1.302
 1220TIP3   OH2 3665   1.433   4.676   1.015
 1220TIP3    H1 3666   1.386   4.761   1.003
 1220TIP3    H2 3667   1.360   4.611   1.011
 1221TIP3   OH2 3668   1.564   5.188   1.249
 1221TIP3    H1 3669   1.546   5.173   1.345
 1221TIP3    H2 3670   1.477   5.158   1.215
 1222TIP3   OH2 3671   1.804   5.133   1.106
 1222TIP3    H1 3672   1.728   5.131   1.167
 1222TIP3    H2 3673   1.877   5.102   1.163
 1223TIP3   OH2 3674   2.044   5.083   1.249
 1223TIP3    H1 3675   2.052   4.987   1.265
 1223TIP3    H2 3676   2.033   5.118   1.340
 1224TIP3   OH2 3677   1.017   5.019   1.448
 1224TIP3    H1 3678   1.027   4.926   1.419
 1224TIP3    H2 3679   1.060   5.013   1.536
 1225TIP3   OH2 3680   1.578   4.715   1.242
 1225TIP3    H1 3681   1.618   4.630   1.264
 1225TIP3    H2 3682   1.512   4.690   1.175
 1226TIP3   OH2 3683   1.859   5.321  -0.014
 1226TIP3    H1 3684   1.900   5.236  -0.032
 1226TIP3    H2 3685   1.878   5.333   0.082
 1227TIP3   OH2 3686   2.199   5.743   0.840
 1227TIP3    H1 3687   2.268   5.680   0.810
 1227TIP3    H2 3688   2.174   5.791   0.760
 1228TIP3   OH2 3689   2.389   5.543   0.863
 1228TIP3    H1 3690   2.308   5.497   0.896
 1228TIP3    H2 3691   2.456   5.474   0.882
 1229TIP3   OH2 3692   2.073   5.197   0.382
 1229TIP3    H1 3693   2.158   5.226   0.342
 1229TIP3    H2 3694   2.084   5.236   0.471
 1230TIP3   OH2 3695   2.139   5.347   0.609
 1230TIP3    H1 3696   2.061   5.376   0.661
 1230TIP3    H2 3697   2.167   5.432   0.567
 1231TIP3   OH2 3698   0.750   5.071   1.389
 1231TIP3    H1 3699   0.847   5.071   1.406
 1231TIP3    H2 3700   0.726   4.987   1.435
 1232TIP3   OH2 3701   2.591   4.949   1.162
 1232TIP3    H1 3702   2.650   4.883   1.121
 1232TIP3    H2 3703   2.560   5.000   1.084
 1233TIP3   OH2 3704   2.010   4.752  -0.081
 1233TIP3    H1 3705   2.059   4.753   0.003
 1233TIP3    H2 3706   1.959   4.669  -0.073
 1234TIP3   OH2 3707   2.458   5.080   0.963
 1234TIP3    H1 3708   2.372   5.120   0.984
 1234TIP3    H2 3709   2.428   5.004   0.909
 1235TIP3   OH2 3710   0.724   4.624   1.141
 1235TIP3    H1 3711   0.676   4.612   1.225
 1235TIP3    H2 3712   0.671   4.692   1.099
 1236TIP3   OH2 3713   2.359   4.840   0.849
 1236TIP3    H1 3714   2.268   4.825   0.818
 1236TIP3    H2 3715   2.396   4.749   0.841
 1237TIP3   OH2 3716   1.594   4.760   0.498
 1237TIP3    H1 3717   1.524   4.708   0.541
 1237TIP3    H2 3718   1.603   4.715   0.413
 1238TIP3   OH2 3719   2.090   4.638   0.374
 1238TIP3    H1 3720   2.123   4.692   0.299
 1238TIP3    H2 3721   1.993   4.651   0.366
 1239TIP3   OH2 3722   2.177   4.745   0.139
 1239TIP3    H1 3723   2.252   4.698   0.097
 1239TIP3    H2 3724   2.202   4.839   0.131
 1240TIP3   OH2 3725   1.272   4.504   0.369
 1240TIP3    H1 3726   1.322   4.572   0.321
 1240TIP3    H2 3727   1.297   4.527   0.460
 1241TIP3   OH2 3728   1.823   4.640   0.338
 1241TIP3    H1 3729   1.755   4.636   0.270
 1241TIP3    H2 3730   1.794   4.568   0.399
 1242TIP3   OH2 3731   1.829   4.546  -0.067
 1242TIP3    H1 3732   1.752   4.602  -0.046
 1242TIP3    H2 3733   1.812   4.465  -0.015
 1243TIP3   OH2 3734   1.037   4.744   1.379
 1243TIP3    H1 3735   1.005   4.677   1.442
 1243TIP3    H2 3736   1.133   4.737   1.391
 1244TIP3   OH2 3737   2.097   4.813   1.281
 1244TIP3    H1 3738   2.113   4.783   1.373
 1244TIP3    H2 3739   2.187   4.804   1.242
 1245TIP3   OH2 3740   2.549   5.561   0.300
 1245TIP3    H1 3741   2.591   5.515   0.376
 1245TIP3    H2 3742   2.616   5.630   0.284
 1246TIP3   OH2 3743   2.838   5.102   0.407
 1246TIP3    H1 3744   2.834   5.185   0.360
 1246TIP3    H2 3745   2.778   5.119   0.484
 1247TIP3   OH2 3746   2.733   5.709   0.532
 1247TIP3    H1 3747   2.747   5.797   0.572
 1247TIP3    H2 3748   2.637   5.700   0.545
 1248TIP3   OH2 3749   2.412   5.838   0.423
 1248TIP3    H1 3750   2.325   5.823   0.383
 1248TIP3    H2 3751   2.419   5.766   0.489
 1249TIP3   OH2 3752   2.924   4.884   0.263
 1249TIP3    H1 3753   2.830   4.855   0.263
 1249TIP3    H2 3754   2.912   4.971   0.307
 1250TIP3   OH2 3755   3.493   4.991   0.461
 1250TIP3    H1 3756   3.517   5.077   0.492
 1250TIP3    H2 3757   3.398   4.985   0.490
 1251TIP3   OH2 3758   2.856   5.345   0.304
 1251TIP3    H1 3759   2.800   5.400   0.362
 1251TIP3    H2 3760   2.870   5.404   0.227
 1252TIP3   OH2 3761   3.443   5.656   0.587
 1252TIP3    H1 3762   3.432   5.581   0.649
 1252TIP3    H2 3763   3.535   5.682   0.602
 1253TIP3   OH2 3764   2.684   5.434   0.498
 1253TIP3    H1 3765   2.720   5.507   0.552
 1253TIP3    H2 3766   2.688   5.357   0.558
 1254TIP3   OH2 3767   2.294   5.000   0.078
 1254TIP3    H1 3768   2.374   5.000   0.135
 1254TIP3    H2 3769   2.320   4.942   0.003
 1255TIP3   OH2 3770   2.731   5.935   0.685
 1255TIP3    H1 3771   2.809   5.971   0.734
 1255TIP3    H2 3772   2.700   5.869   0.749
 1256TIP3   OH2 3773   2.471   5.664   0.628
 1256TIP3    H1 3774   2.487   5.641   0.722
 1256TIP3    H2 3775   2.405   5.597   0.604
 1257TIP3   OH2 3776   3.199   5.761   0.637
 1257TIP3    H1 3777   3.137   5.698   0.595
 1257TIP3    H2 3778   3.286   5.726   0.609
 1258TIP3   OH2 3779   2.678   5.183   0.622
 1258TIP3    H1 3780   2.581   5.186   0.633
 1258TIP3    H2 3781   2.705   5.124   0.695
 1259TIP3   OH2 3782   3.345   5.463   0.398
 1259TIP3    H1 3783   3.363   5.549   0.442
 1259TIP3    H2 3784   3.433   5.424   0.403
 1260TIP3   OH2 3785   2.663   4.805   0.265
 1260TIP3    H1 3786   2.657   4.781   0.171
 1260TIP3    H2 3787   2.663   4.718   0.309
 1261TIP3   OH2 3788   2.482   5.931   0.873
 1261TIP3    H1 3789   2.535   5.853   0.897
 1261TIP3    H2 3790   2.439   5.900   0.792
 1262TIP3   OH2 3791   3.093   6.006   0.648
 1262TIP3    H1 3792   3.112   6.038   0.559
 1262TIP3    H2 3793   3.143   5.922   0.650
 1263TIP3   OH2 3794   2.674   5.719   0.854
 1263TIP3    H1 3795   2.740   5.650   0.839
 1263TIP3    H2 3796   2.693   5.742   0.948
 1264TIP3   OH2 3797   2.993   5.606   0.506
 1264TIP3    H1 3798   2.904   5.647   0.506
 1264TIP3    H2 3799   3.020   5.615   0.413
 1265TIP3   OH2 3800   3.525   6.019   0.648
 1265TIP3    H1 3801   3.560   6.059   0.728
 1265TIP3    H2 3802   3.461   5.956   0.687
 1266TIP3   OH2 3803   3.102   5.396   0.644
 1266TIP3    H1 3804   3.106   5.318   0.585
 1266TIP3    H2 3805   3.065   5.464   0.584
 1267TIP3   OH2 3806   3.100   5.178   0.452
 1267TIP3    H1 3807   3.124   5.208   0.363
 1267TIP3    H2 3808   3.006   5.153   0.440
 1268TIP3   OH2 3809   3.727   5.690   0.704
 1268TIP3    H1 3810   3.749   5.601   0.735
 1268TIP3    H2 3811   3.809   5.738   0.722
 1269TIP3   OH2 3812   2.971   5.501   0.872
 1269TIP3    H1 3813   2.910   5.426   0.890
 1269TIP3    H2 3814   3.011   5.473   0.787
 1270TIP3   OH2 3815   3.229   4.944   0.523
 1270TIP3    H1 3816   3.180   5.024   0.496
 1270TIP3    H2 3817   3.162   4.874   0.506
 1271TIP3   OH2 3818   3.368   5.437   0.737
 1271TIP3    H1 3819   3.344   5.435   0.831
 1271TIP3    H2 3820   3.281   5.417   0.697
 1272TIP3   OH2 3821   3.595   5.367   0.584
 1272TIP3    H1 3822   3.522   5.385   0.646
 1272TIP3    H2 3823   3.670   5.350   0.643
 1273TIP3   OH2 3824   3.846   5.317   0.751
 1273TIP3    H1 3825   3.852   5.236   0.803
 1273TIP3    H2 3826   3.827   5.384   0.821
 1274TIP3   OH2 3827   2.820   5.276   0.932
 1274TIP3    H1 3828   2.823   5.185   0.898
 1274TIP3    H2 3829   2.857   5.264   1.021
 1275TIP3   OH2 3830   3.329   4.961   0.775
 1275TIP3    H1 3831   3.363   4.872   0.783
 1275TIP3    H2 3832   3.288   4.959   0.686
 1276TIP3   OH2 3833   3.395   5.170   0.938
 1276TIP3    H1 3834   3.374   5.101   0.871
 1276TIP3    H2 3835   3.318   5.229   0.931
 1277TIP3   OH2 3836   2.555   5.334   0.907
 1277TIP3    H1 3837   2.653   5.325   0.909
 1277TIP3    H2 3838   2.528   5.246   0.938
 1278TIP3   OH2 3839   4.385   5.199   0.654
 1278TIP3    H1 3840   4.437   5.118   0.634
 1278TIP3    H2 3841   4.393   5.244   0.568
 1279TIP3   OH2 3842   2.519   5.037   0.232
 1279TIP3    H1 3843   2.572   4.957   0.253
 1279TIP3    H2 3844   2.571   5.105   0.276
 1280TIP3   OH2 3845   2.320   5.295   0.301
 1280TIP3    H1 3846   2.338   5.308   0.207
 1280TIP3    H2 3847   2.371   5.367   0.340
 1281TIP3   OH2 3848   2.521   4.885   0.618
 1281TIP3    H1 3849   2.468   4.876   0.699
 1281TIP3    H2 3850   2.454   4.920   0.556
 1282TIP3   OH2 3851   2.813   5.003   0.864
 1282TIP3    H1 3852   2.779   4.931   0.921
 1282TIP3    H2 3853   2.907   5.004   0.891
 1283TIP3   OH2 3854   3.062   5.002   0.985
 1283TIP3    H1 3855   3.150   4.979   0.952
 1283TIP3    H2 3856   3.047   4.932   1.052
 1284TIP3   OH2 3857   1.242   0.233   3.433
 1284TIP3    H1 3858   1.206   0.318   3.402
 1284TIP3    H2 3859   1.173   0.172   3.402
 1285TIP3   OH2 3860   1.253   0.240   3.808
 1285TIP3    H1 3861   1.244   0.187   3.889
 1285TIP3    H2 3862   1.228   0.176   3.740
 1286TIP3   OH2 3863   1.483   0.529   3.500
 1286TIP3    H1 3864   1.475   0.453   3.560
 1286TIP3    H2 3865   1.528   0.594   3.556
 1287TIP3   OH2 3866   1.135   0.988   3.511
 1287TIP3    H1 3867   1.174   0.914   3.460
 1287TIP3    H2 3868   1.114   0.948   3.595
 1288TIP3   OH2 3869   1.037   0.449   3.839
 1288TIP3    H1 3870   1.020   0.364   3.797
 1288TIP3    H2 3871   1.125   0.431   3.873
 1289TIP3   OH2 3872   2.053  -0.216   3.847
 1289TIP3    H1 3873   2.071  -0.127   3.886
 1289TIP3    H2 3874   2.080  -0.201   3.755
 1290TIP3   OH2 3875   1.438  -0.049   3.898
 1290TIP3    H1 3876   1.455  -0.141   3.919
 1290TIP3    H2 3877   1.406  -0.057   3.806
 1291TIP3   OH2 3878   1.484  -0.341   3.506
 1291TIP3    H1 3879   1.567  -0.327   3.556
 1291TIP3    H2 3880   1.498  -0.290   3.425
 1292TIP3   OH2 3881   2.104  -0.004   4.020
 1292TIP3    H1 3882   2.020   0.046   4.021
 1292TIP3    H2 3883   2.147   0.025   4.102
 1293TIP3   OH2 3884   1.132   0.448   3.303
 1293TIP3    H1 3885   1.098   0.425   3.214
 1293TIP3    H2 3886   1.076   0.524   3.326
 1294TIP3   OH2 3887   1.700  -0.305   3.669
 1294TIP3    H1 3888   1.705  -0.359   3.750
 1294TIP3    H2 3889   1.743  -0.221   3.696
 1295TIP3   OH2 3890   1.556   0.768   3.672
 1295TIP3    H1 3891   1.471   0.760   3.718
 1295TIP3    H2 3892   1.545   0.851   3.621
 1296TIP3   OH2 3893   1.251   0.810   3.336
 1296TIP3    H1 3894   1.301   0.728   3.315
 1296TIP3    H2 3895   1.312   0.876   3.296
 1297TIP3   OH2 3896   1.395   0.596   3.247
 1297TIP3    H1 3897   1.353   0.515   3.214
 1297TIP3    H2 3898   1.432   0.565   3.332
 1298TIP3   OH2 3899   1.776   0.680   4.004
 1298TIP3    H1 3900   1.769   0.602   3.945
 1298TIP3    H2 3901   1.769   0.753   3.936
 1299TIP3   OH2 3902   1.078   0.078   3.265
 1299TIP3    H1 3903   0.998   0.125   3.236
 1299TIP3    H2 3904   1.122   0.058   3.180
 1300TIP3   OH2 3905   1.972   0.322   3.855
 1300TIP3    H1 3906   1.889   0.373   3.857
 1300TIP3    H2 3907   2.002   0.342   3.764
 1301TIP3   OH2 3908   1.420   0.164   3.236
 1301TIP3    H1 3909   1.364   0.185   3.315
 1301TIP3    H2 3910   1.502   0.133   3.280
 1302TIP3   OH2 3911   1.656   0.207   4.149
 1302TIP3    H1 3912   1.649   0.282   4.211
 1302TIP3    H2 3913   1.563   0.203   4.113
 1303TIP3   OH2 3914   0.790   0.582   3.789
 1303TIP3    H1 3915   0.774   0.540   3.704
 1303TIP3    H2 3916   0.877   0.543   3.815
 1304TIP3   OH2 3917   1.322   0.753   3.857
 1304TIP3    H1 3918   1.299   0.848   3.849
 1304TIP3    H2 3919   1.255   0.708   3.812
 1305TIP3   OH2 3920   0.895   0.652   4.346
 1305TIP3    H1 3921   0.880   0.743   4.379
 1305TIP3    H2 3922   0.837   0.650   4.269
 1306TIP3   OH2 3923   1.264   0.014   3.065
 1306TIP3    H1 3924   1.321   0.075   3.117
 1306TIP3    H2 3925   1.297   0.029   2.974
 1307TIP3   OH2 3926   1.000   0.696   3.339
 1307TIP3    H1 3927   1.086   0.741   3.344
 1307TIP3    H2 3928   0.945   0.759   3.291
 1308TIP3   OH2 3929   0.721   0.866   4.400
 1308TIP3    H1 3930   0.692   0.858   4.307
 1308TIP3    H2 3931   0.664   0.802   4.445
 1309TIP3   OH2 3932   1.578   0.613   2.654
 1309TIP3    H1 3933   1.581   0.711   2.645
 1309TIP3    H2 3934   1.673   0.590   2.643
 1310TIP3   OH2 3935   2.025   1.026   4.056
 1310TIP3    H1 3936   2.022   0.930   4.072
 1310TIP3    H2 3937   1.939   1.053   4.096
 1311TIP3   OH2 3938   0.887   0.932   3.146
 1311TIP3    H1 3939   0.844   0.918   3.060
 1311TIP3    H2 3940   0.855   1.020   3.171
 1312TIP3   OH2 3941   0.312   0.771   3.516
 1312TIP3    H1 3942   0.367   0.768   3.598
 1312TIP3    H2 3943   0.240   0.711   3.542
 1313TIP3   OH2 3944   1.084   0.837   2.787
 1313TIP3    H1 3945   1.150   0.774   2.749
 1313TIP3    H2 3946   1.120   0.848   2.878
 1314TIP3   OH2 3947   1.139   0.891   3.052
 1314TIP3    H1 3948   1.051   0.899   3.095
 1314TIP3    H2 3949   1.193   0.854   3.123
 1315TIP3   OH2 3950   1.918   0.153   4.330
 1315TIP3    H1 3951   1.828   0.162   4.296
 1315TIP3    H2 3952   1.933   0.057   4.323
 1316TIP3   OH2 3953   1.675  -0.035   4.278
 1316TIP3    H1 3954   1.654   0.006   4.364
 1316TIP3    H2 3955   1.650   0.038   4.216
 1317TIP3   OH2 3956   1.354   0.058   2.808
 1317TIP3    H1 3957   1.279   0.050   2.748
 1317TIP3    H2 3958   1.386   0.147   2.793
 1318TIP3   OH2 3959   1.231  -0.097   3.417
 1318TIP3    H1 3960   1.166  -0.040   3.372
 1318TIP3    H2 3961   1.279  -0.137   3.341
 1319TIP3   OH2 3962   1.404   0.129   4.479
 1319TIP3    H1 3963   1.371   0.137   4.568
 1319TIP3    H2 3964   1.501   0.139   4.495
 1320TIP3   OH2 3965   1.401  -0.098   3.630
 1320TIP3    H1 3966   1.322  -0.077   3.577
 1320TIP3    H2 3967   1.415  -0.190   3.599
 1321TIP3   OH2 3968   1.400   0.153   4.072
 1321TIP3    H1 3969   1.415   0.082   4.006
 1321TIP3    H2 3970   1.325   0.120   4.121
 1322TIP3   OH2 3971   1.723   1.366   4.140
 1322TIP3    H1 3972   1.717   1.407   4.052
 1322TIP3    H2 3973   1.783   1.426   4.187
 1323TIP3   OH2 3974   0.842   0.222   3.204
 1323TIP3    H1 3975   0.770   0.159   3.217
 1323TIP3    H2 3976   0.837   0.272   3.289
 1324TIP3   OH2 3977   1.736   0.465   3.840
 1324TIP3    H1 3978   1.764   0.512   3.758
 1324TIP3    H2 3979   1.655   0.418   3.809
 1325TIP3   OH2 3980   1.352  -0.213   3.200
 1325TIP3    H1 3981   1.445  -0.233   3.185
 1325TIP3    H2 3982   1.333  -0.144   3.133
 1326TIP3   OH2 3983   1.011   0.386   3.060
 1326TIP3    H1 3984   0.951   0.463   3.057
 1326TIP3    H2 3985   0.951   0.317   3.094
 1327TIP3   OH2 3986   1.810  -0.136   3.024
 1327TIP3    H1 3987   1.752  -0.187   2.962
 1327TIP3    H2 3988   1.807  -0.049   2.979
 1328TIP3   OH2 3989   2.028   0.736   4.096
 1328TIP3    H1 3990   1.931   0.731   4.087
 1328TIP3    H2 3991   2.055   0.707   4.005
 1329TIP3   OH2 3992   1.520   0.694   2.927
 1329TIP3    H1 3993   1.483   0.630   2.989
 1329TIP3    H2 3994   1.516   0.647   2.842
 1330TIP3   OH2 3995   1.514   0.332   3.746
 1330TIP3    H1 3996   1.424   0.307   3.775
 1330TIP3    H2 3997   1.544   0.247   3.706
 1331TIP3   OH2 3998   0.644   0.559   3.512
 1331TIP3    H1 3999   0.661   0.636   3.455
 1331TIP3    H2 4000   0.558   0.581   3.547
 1332TIP3   OH2 4001   0.796   0.336   3.443
 1332TIP3    H1 4002   0.751   0.415   3.478
 1332TIP3    H2 4003   0.764   0.264   3.500
 1333TIP3   OH2 4004   0.910   0.908   3.984
 1333TIP3    H1 4005   0.948   0.973   3.921
 1333TIP3    H2 4006   0.963   0.928   4.063
 1334TIP3   OH2 4007   0.556   0.792   3.366
 1334TIP3    H1 4008   0.467   0.798   3.407
 1334TIP3    H2 4009   0.586   0.886   3.371
 1335TIP3   OH2 4010   1.272   0.422   2.826
 1335TIP3    H1 4011   1.317   0.405   2.912
 1335TIP3    H2 4012   1.182   0.390   2.845
 1336TIP3   OH2 4013   1.528   1.049   3.981
 1336TIP3    H1 4014   1.437   1.023   3.960
 1336TIP3    H2 4015   1.536   1.126   3.922
 1337TIP3   OH2 4016   1.603   0.892   2.643
 1337TIP3    H1 4017   1.635   0.965   2.589
 1337TIP3    H2 4018   1.523   0.934   2.681
 1338TIP3   OH2 4019   1.432   0.355   3.039
 1338TIP3    H1 4020   1.419   0.292   3.112
 1338TIP3    H2 4021   1.529   0.353   3.031
 1339TIP3   OH2 4022   0.588   0.397   3.137
 1339TIP3    H1 4023   0.681   0.381   3.120
 1339TIP3    H2 4024   0.578   0.492   3.118
 1340TIP3   OH2 4025   0.836   0.595   3.050
 1340TIP3    H1 4026   0.751   0.623   3.090
 1340TIP3    H2 4027   0.862   0.676   3.003
 1341TIP3   OH2 4028   0.586   0.677   3.116
 1341TIP3    H1 4029   0.557   0.746   3.052
 1341TIP3    H2 4030   0.571   0.723   3.202
 1342TIP3   OH2 4031   1.934  -0.117   4.235
 1342TIP3    H1 4032   1.838  -0.098   4.238
 1342TIP3    H2 4033   1.949  -0.133   4.141
 1343TIP3   OH2 4034   1.599   0.090   3.637
 1343TIP3    H1 4035   1.524   0.026   3.639
 1343TIP3    H2 4036   1.668   0.038   3.684
 1344TIP3   OH2 4037   1.560   1.036   3.582
 1344TIP3    H1 4038   1.518   1.084   3.507
 1344TIP3    H2 4039   1.655   1.056   3.564
 1345TIP3   OH2 4040   0.829   1.040   4.590
 1345TIP3    H1 4041   0.915   0.995   4.599
 1345TIP3    H2 4042   0.789   0.983   4.521
 1346TIP3   OH2 4043   0.814   0.594   2.766
 1346TIP3    H1 4044   0.793   0.537   2.842
 1346TIP3    H2 4045   0.898   0.558   2.736
 1347TIP3   OH2 4046   1.459   0.875   4.299
 1347TIP3    H1 4047   1.433   0.849   4.391
 1347TIP3    H2 4048   1.524   0.944   4.320
 1348TIP3   OH2 4049   1.253   0.661   2.671
 1348TIP3    H1 4050   1.257   0.575   2.716
 1348TIP3    H2 4051   1.287   0.642   2.582
 1349TIP3   OH2 4052   1.102   0.591   4.517
 1349TIP3    H1 4053   1.040   0.595   4.442
 1349TIP3    H2 4054   1.113   0.495   4.531
 1350TIP3   OH2 4055   1.533   0.637   4.179
 1350TIP3    H1 4056   1.587   0.618   4.104
 1350TIP3    H2 4057   1.605   0.697   4.228
 1351TIP3   OH2 4058   1.442   0.494   4.527
 1351TIP3    H1 4059   1.522   0.478   4.476
 1351TIP3    H2 4060   1.456   0.430   4.600
 1352TIP3   OH2 4061   1.599   0.160   2.634
 1352TIP3    H1 4062   1.534   0.096   2.602
 1352TIP3    H2 4063   1.545   0.243   2.634
 1353TIP3   OH2 4064   1.673   0.115   4.543
 1353TIP3    H1 4065   1.689   0.077   4.631
 1353TIP3    H2 4066   1.699   0.207   4.559
 1354TIP3   OH2 4067   1.695   0.420   4.330
 1354TIP3    H1 4068   1.639   0.487   4.283
 1354TIP3    H2 4069   1.784   0.438   4.294
 1355TIP3   OH2 4070   0.562   0.887   2.932
 1355TIP3    H1 4071   0.657   0.881   2.915
 1355TIP3    H2 4072   0.534   0.932   2.851
 1356TIP3   OH2 4073   1.818   1.122   3.548
 1356TIP3    H1 4074   1.841   1.157   3.636
 1356TIP3    H2 4075   1.879   1.169   3.490
 1357TIP3   OH2 4076   1.843   1.149   3.828
 1357TIP3    H1 4077   1.805   1.058   3.826
 1357TIP3    H2 4078   1.917   1.134   3.889
 1358TIP3   OH2 4079   1.888   0.822   4.399
 1358TIP3    H1 4080   1.817   0.836   4.464
 1358TIP3    H2 4081   1.930   0.911   4.400
 1359TIP3   OH2 4082   1.712   0.331   3.014
 1359TIP3    H1 4083   1.776   0.401   2.989
 1359TIP3    H2 4084   1.754   0.296   3.095
 1360TIP3   OH2 4085   1.836   0.208   3.224
 1360TIP3    H1 4086   1.768   0.165   3.281
 1360TIP3    H2 4087   1.900   0.242   3.290
 1361TIP3   OH2 4088   1.891   0.599   3.653
 1361TIP3    H1 4089   1.946   0.531   3.610
 1361TIP3    H2 4090   1.891   0.671   3.588
 1362TIP3   OH2 4091   1.722   0.901   3.848
 1362TIP3    H1 4092   1.648   0.945   3.894
 1362TIP3    H2 4093   1.676   0.854   3.775
 1363TIP3   OH2 4094   1.766   0.106   2.861
 1363TIP3    H1 4095   1.703   0.123   2.788
 1363TIP3    H2 4096   1.743   0.181   2.921
 1364TIP3   OH2 4097   1.640  -0.233   2.829
 1364TIP3    H1 4098   1.630  -0.146   2.791
 1364TIP3    H2 4099   1.572  -0.281   2.777
 1365TIP3   OH2 4100   1.647   0.069   3.364
 1365TIP3    H1 4101   1.648  -0.028   3.351
 1365TIP3    H2 4102   1.633   0.078   3.461
 1366TIP3   OH2 4103   1.932   0.496   4.225
 1366TIP3    H1 4104   2.003   0.428   4.213
 1366TIP3    H2 4105   1.961   0.565   4.164
 1367TIP3   OH2 4106   2.116   0.303   4.229
 1367TIP3    H1 4107   2.042   0.252   4.270
 1367TIP3    H2 4108   2.185   0.235   4.238
 1368TIP3   OH2 4109   1.654  -0.197   3.265
 1368TIP3    H1 4110   1.661  -0.293   3.265
 1368TIP3    H2 4111   1.710  -0.174   3.188
 1369TIP3   OH2 4112   1.802  -0.053   3.757
 1369TIP3    H1 4113   1.888  -0.028   3.717
 1369TIP3    H2 4114   1.812  -0.010   3.845
 1370TIP3   OH2 4115   1.856   0.107   3.984
 1370TIP3    H1 4116   1.783   0.148   4.034
 1370TIP3    H2 4117   1.894   0.185   3.938
 1371TIP3   OH2 4118   1.398   0.992   3.202
 1371TIP3    H1 4119   1.452   0.983   3.121
 1371TIP3    H2 4120   1.446   1.061   3.250
 1372TIP3   OH2 4121   0.687   0.821   4.120
 1372TIP3    H1 4122   0.642   0.903   4.089
 1372TIP3    H2 4123   0.771   0.832   4.072
 1373TIP3   OH2 4124   1.117   1.082   4.275
 1373TIP3    H1 4125   1.152   1.109   4.363
 1373TIP3    H2 4126   1.184   1.126   4.220
 1374TIP3   OH2 4127   1.307   1.231   4.142
 1374TIP3    H1 4128   1.397   1.204   4.120
 1374TIP3    H2 4129   1.318   1.267   4.232
 1375TIP3   OH2 4130   0.363   1.140   4.134
 1375TIP3    H1 4131   0.278   1.142   4.085
 1375TIP3    H2 4132   0.366   1.051   4.168
 1376TIP3   OH2 4133   0.598   1.064   4.013
 1376TIP3    H1 4134   0.523   1.109   4.057
 1376TIP3    H2 4135   0.585   1.093   3.921
 1377TIP3   OH2 4136   1.016   1.095   3.810
 1377TIP3    H1 4137   0.946   1.115   3.745
 1377TIP3    H2 4138   1.028   1.183   3.853
 1378TIP3   OH2 4139   1.283   1.024   3.848
 1378TIP3    H1 4140   1.189   1.051   3.839
 1378TIP3    H2 4141   1.328   1.103   3.811
 1379TIP3   OH2 4142   1.484   1.222   3.774
 1379TIP3    H1 4143   1.472   1.309   3.731
 1379TIP3    H2 4144   1.513   1.167   3.699
 1380TIP3   OH2 4145   0.470   0.747   3.731
 1380TIP3    H1 4146   0.470   0.673   3.794
 1380TIP3    H2 4147   0.556   0.791   3.749
 1381TIP3   OH2 4148   0.730   0.850   3.769
 1381TIP3    H1 4149   0.756   0.756   3.761
 1381TIP3    H2 4150   0.782   0.874   3.848
 1382TIP3   OH2 4151   0.827   0.845   2.881
 1382TIP3    H1 4152   0.914   0.867   2.842
 1382TIP3    H2 4153   0.803   0.770   2.823
 1383TIP3   OH2 4154   1.548   0.962   2.970
 1383TIP3    H1 4155   1.543   0.864   2.957
 1383TIP3    H2 4156   1.500   0.994   2.891
 1384TIP3   OH2 4157   1.778   1.102   4.136
 1384TIP3    H1 4158   1.692   1.070   4.105
 1384TIP3    H2 4159   1.758   1.199   4.146
 1385TIP3   OH2 4160   3.039   0.483   2.913
 1385TIP3    H1 4161   3.006   0.572   2.890
 1385TIP3    H2 4162   2.963   0.429   2.885
 1386TIP3   OH2 4163   3.040   0.476   3.306
 1386TIP3    H1 4164   3.074   0.457   3.395
 1386TIP3    H2 4165   2.996   0.392   3.283
 1387TIP3   OH2 4166   2.331   0.370   3.664
 1387TIP3    H1 4167   2.361   0.303   3.728
 1387TIP3    H2 4168   2.409   0.426   3.660
 1388TIP3   OH2 4169   3.287   0.782   2.986
 1388TIP3    H1 4170   3.263   0.717   3.054
 1388TIP3    H2 4171   3.313   0.859   3.040
 1389TIP3   OH2 4172   2.310   0.783   3.387
 1389TIP3    H1 4173   2.301   0.686   3.388
 1389TIP3    H2 4174   2.407   0.791   3.383
 1390TIP3   OH2 4175   2.013   0.002   3.167
 1390TIP3    H1 4176   1.955   0.078   3.185
 1390TIP3    H2 4177   1.948  -0.065   3.141
 1391TIP3   OH2 4178   2.071   0.273   3.357
 1391TIP3    H1 4179   2.122   0.195   3.388
 1391TIP3    H2 4180   2.128   0.307   3.287
 1392TIP3   OH2 4181   2.935   1.242   3.001
 1392TIP3    H1 4182   2.977   1.168   2.952
 1392TIP3    H2 4183   2.918   1.202   3.087
 1393TIP3   OH2 4184   2.832   0.704   3.348
 1393TIP3    H1 4185   2.873   0.628   3.304
 1393TIP3    H2 4186   2.914   0.751   3.375
 1394TIP3   OH2 4187   3.845   0.044   3.336
 1394TIP3    H1 4188   3.863   0.128   3.385
 1394TIP3    H2 4189   3.866   0.071   3.245
 1395TIP3   OH2 4190   3.251   0.200   3.385
 1395TIP3    H1 4191   3.263   0.110   3.418
 1395TIP3    H2 4192   3.213   0.184   3.296
 1396TIP3   OH2 4193   2.596  -0.129   3.353
 1396TIP3    H1 4194   2.560  -0.077   3.278
 1396TIP3    H2 4195   2.585  -0.222   3.322
 1397TIP3   OH2 4196   3.283  -0.051   2.978
 1397TIP3    H1 4197   3.355  -0.066   3.044
 1397TIP3    H2 4198   3.331  -0.004   2.909
 1398TIP3   OH2 4199   2.221   0.065   3.453
 1398TIP3    H1 4200   2.306   0.050   3.499
 1398TIP3    H2 4201   2.232   0.006   3.376
 1399TIP3   OH2 4202   2.656   0.262   3.250
 1399TIP3    H1 4203   2.750   0.239   3.264
 1399TIP3    H2 4204   2.618   0.177   3.220
 1400TIP3   OH2 4205   3.894   0.251   3.508
 1400TIP3    H1 4206   3.812   0.305   3.512
 1400TIP3    H2 4207   3.942   0.280   3.588
 1401TIP3   OH2 4208   2.590  -0.154   3.787
 1401TIP3    H1 4209   2.532  -0.144   3.710
 1401TIP3    H2 4210   2.530  -0.124   3.858
 1402TIP3   OH2 4211   2.934   0.703   2.780
 1402TIP3    H1 4212   2.885   0.683   2.698
 1402TIP3    H2 4213   2.884   0.782   2.811
 1403TIP3   OH2 4214   2.688   0.625   3.571
 1403TIP3    H1 4215   2.628   0.693   3.607
 1403TIP3    H2 4216   2.731   0.672   3.498
 1404TIP3   OH2 4217   3.490  -0.046   3.156
 1404TIP3    H1 4218   3.494  -0.107   3.232
 1404TIP3    H2 4219   3.532   0.034   3.191
 1405TIP3   OH2 4220   2.454  -0.032   3.568
 1405TIP3    H1 4221   2.519   0.037   3.594
 1405TIP3    H2 4222   2.504  -0.074   3.494
 1406TIP3   OH2 4223   2.520   0.822   3.671
 1406TIP3    H1 4224   2.494   0.910   3.637
 1406TIP3    H2 4225   2.441   0.803   3.726
 1407TIP3   OH2 4226   1.908   0.511   2.909
 1407TIP3    H1 4227   1.865   0.539   2.827
 1407TIP3    H2 4228   1.938   0.597   2.946
 1408TIP3   OH2 4229   3.350   1.026   3.146
 1408TIP3    H1 4230   3.261   1.016   3.188
 1408TIP3    H2 4231   3.340   1.113   3.103
 1409TIP3   OH2 4232   3.050   1.067   2.819
 1409TIP3    H1 4233   3.102   0.986   2.800
 1409TIP3    H2 4234   3.110   1.134   2.780
 1410TIP3   OH2 4235   3.193   0.848   2.734
 1410TIP3    H1 4236   3.131   0.776   2.719
 1410TIP3    H2 4237   3.237   0.819   2.817
 1411TIP3   OH2 4238   3.575   0.935   3.492
 1411TIP3    H1 4239   3.560   0.857   3.434
 1411TIP3    H2 4240   3.555   1.009   3.432
 1412TIP3   OH2 4241   2.868   0.328   2.756
 1412TIP3    H1 4242   2.785   0.378   2.739
 1412TIP3    H2 4243   2.909   0.327   2.668
 1413TIP3   OH2 4244   2.823   0.120   2.464
 1413TIP3    H1 4245   2.892   0.167   2.513
 1413TIP3    H2 4246   2.877   0.059   2.410
 1414TIP3   OH2 4247   3.768   0.573   3.338
 1414TIP3    H1 4248   3.686   0.627   3.342
 1414TIP3    H2 4249   3.800   0.598   3.249
 1415TIP3   OH2 4250   3.217   0.413   2.720
 1415TIP3    H1 4251   3.159   0.439   2.796
 1415TIP3    H2 4252   3.300   0.394   2.767
 1416TIP3   OH2 4253   3.435   0.467   3.632
 1416TIP3    H1 4254   3.435   0.549   3.685
 1416TIP3    H2 4255   3.346   0.471   3.592
 1417TIP3   OH2 4256   2.448   0.408   3.139
 1417TIP3    H1 4257   2.405   0.348   3.073
 1417TIP3    H2 4258   2.523   0.353   3.170
 1418TIP3   OH2 4259   2.578   0.824   3.284
 1418TIP3    H1 4260   2.558   0.787   3.196
 1418TIP3    H2 4261   2.666   0.786   3.302
 1419TIP3   OH2 4262   2.582   0.381   3.493
 1419TIP3    H1 4263   2.614   0.357   3.404
 1419TIP3    H2 4264   2.625   0.468   3.510
 1420TIP3   OH2 4265   3.113   1.018   3.273
 1420TIP3    H1 4266   3.096   1.098   3.325
 1420TIP3    H2 4267   3.094   0.946   3.336
 1421TIP3   OH2 4268   2.722   0.935   3.819
 1421TIP3    H1 4269   2.662   0.997   3.865
 1421TIP3    H2 4270   2.658   0.883   3.768
 1422TIP3   OH2 4271   3.057   0.263   2.552
 1422TIP3    H1 4272   3.114   0.326   2.601
 1422TIP3    H2 4273   3.083   0.284   2.459
 1423TIP3   OH2 4274   2.476   0.493   3.924
 1423TIP3    H1 4275   2.481   0.581   3.966
 1423TIP3    H2 4276   2.381   0.473   3.937
 1424TIP3   OH2 4277   2.803   0.944   2.823
 1424TIP3    H1 4278   2.883   0.999   2.832
 1424TIP3    H2 4279   2.740   1.004   2.782
 1425TIP3   OH2 4280   2.517   1.100   3.906
 1425TIP3    H1 4281   2.481   1.104   3.816
 1425TIP3    H2 4282   2.437   1.079   3.959
 1426TIP3   OH2 4283   2.314   0.252   2.945
 1426TIP3    H1 4284   2.243   0.296   2.892
 1426TIP3    H2 4285   2.279   0.162   2.952
 1427TIP3   OH2 4286   3.369   0.876   2.146
 1427TIP3    H1 4287   3.376   0.973   2.133
 1427TIP3    H2 4288   3.463   0.849   2.133
 1428TIP3   OH2 4289   2.093   0.637   3.853
 1428TIP3    H1 4290   2.026   0.616   3.785
 1428TIP3    H2 4291   2.131   0.549   3.874
 1429TIP3   OH2 4292   1.949   0.828   3.486
 1429TIP3    H1 4293   2.046   0.824   3.476
 1429TIP3    H2 4294   1.938   0.908   3.539
 1430TIP3   OH2 4295   3.813   1.284   3.544
 1430TIP3    H1 4296   3.812   1.188   3.560
 1430TIP3    H2 4297   3.729   1.310   3.589
 1431TIP3   OH2 4298   2.919   1.064   3.676
 1431TIP3    H1 4299   2.914   1.157   3.707
 1431TIP3    H2 4300   2.847   1.023   3.729
 1432TIP3   OH2 4301   2.686   1.194   2.628
 1432TIP3    H1 4302   2.634   1.176   2.547
 1432TIP3    H2 4303   2.650   1.280   2.657
 1433TIP3   OH2 4304   2.120   1.041   3.012
 1433TIP3    H1 4305   2.165   1.033   3.099
 1433TIP3    H2 4306   2.067   0.959   3.011
 1434TIP3   OH2 4307   2.882   1.098   2.265
 1434TIP3    H1 4308   2.939   1.026   2.230
 1434TIP3    H2 4309   2.916   1.108   2.356
 1435TIP3   OH2 4310   2.935   1.146   2.533
 1435TIP3    H1 4311   2.846   1.156   2.574
 1435TIP3    H2 4312   2.985   1.108   2.608
 1436TIP3   OH2 4313   3.710   0.411   3.825
 1436TIP3    H1 4314   3.621   0.423   3.791
 1436TIP3    H2 4315   3.723   0.315   3.817
 1437TIP3   OH2 4316   2.300   0.818   3.833
 1437TIP3    H1 4317   2.347   0.803   3.918
 1437TIP3    H2 4318   2.224   0.756   3.842
 1438TIP3   OH2 4319   3.474   0.222   3.754
 1438TIP3    H1 4320   3.416   0.216   3.833
 1438TIP3    H2 4321   3.442   0.304   3.710
 1439TIP3   OH2 4322   3.137   0.304   2.297
 1439TIP3    H1 4323   3.095   0.287   2.210
 1439TIP3    H2 4324   3.215   0.356   2.270
 1440TIP3   OH2 4325   2.634   0.163   3.646
 1440TIP3    H1 4326   2.579   0.181   3.725
 1440TIP3    H2 4327   2.614   0.243   3.592
 1441TIP3   OH2 4328   2.509   0.042   3.157
 1441TIP3    H1 4329   2.416   0.016   3.173
 1441TIP3    H2 4330   2.523   0.003   3.068
 1442TIP3   OH2 4331   3.008   0.129   2.891
 1442TIP3    H1 4332   2.954   0.199   2.848
 1442TIP3    H2 4333   3.054   0.090   2.814
 1443TIP3   OH2 4334   3.187   0.415   3.954
 1443TIP3    H1 4335   3.161   0.350   4.023
 1443TIP3    H2 4336   3.279   0.433   3.982
 1444TIP3   OH2 4337   3.166   0.156   3.125
 1444TIP3    H1 4338   3.099   0.183   3.058
 1444TIP3    H2 4339   3.196   0.073   3.082
 1445TIP3   OH2 4340   2.454   0.204   3.848
 1445TIP3    H1 4341   2.476   0.272   3.914
 1445TIP3    H2 4342   2.446   0.124   3.905
 1446TIP3   OH2 4343   2.544  -0.237   2.576
 1446TIP3    H1 4344   2.527  -0.264   2.667
 1446TIP3    H2 4345   2.453  -0.215   2.547
 1447TIP3   OH2 4346   2.071  -0.282   3.387
 1447TIP3    H1 4347   2.104  -0.237   3.467
 1447TIP3    H2 4348   2.096  -0.372   3.405
 1448TIP3   OH2 4349   2.046  -0.290   2.984
 1448TIP3    H1 4350   2.059  -0.245   2.898
 1448TIP3    H2 4351   1.965  -0.243   3.012
 1449TIP3   OH2 4352   3.171   0.407   3.541
 1449TIP3    H1 4353   3.205   0.335   3.483
 1449TIP3    H2 4354   3.140   0.354   3.617
 1450TIP3   OH2 4355   2.849  -0.102   3.236
 1450TIP3    H1 4356   2.765  -0.113   3.283
 1450TIP3    H2 4357   2.912  -0.122   3.308
 1451TIP3   OH2 4358   2.267  -0.075   3.215
 1451TIP3    H1 4359   2.176  -0.045   3.192
 1451TIP3    H2 4360   2.254  -0.171   3.209
 1452TIP3   OH2 4361   2.546  -0.086   2.918
 1452TIP3    H1 4362   2.642  -0.065   2.907
 1452TIP3    H2 4363   2.503  -0.048   2.839
 1453TIP3   OH2 4364   2.389  -0.013   2.704
 1453TIP3    H1 4365   2.322  -0.067   2.658
 1453TIP3    H2 4366   2.446   0.011   2.628
 1454TIP3   OH2 4367   3.510   1.628   3.646
 1454TIP3    H1 4368   3.507   1.648   3.551
 1454TIP3    H2 4369   3.591   1.674   3.675
 1455TIP3   OH2 4370   2.461   0.740   4.060
 1455TIP3    H1 4371   2.540   0.769   4.109
 1455TIP3    H2 4372   2.395   0.740   4.132
 1456TIP3   OH2 4373   2.922   0.200   3.324
 1456TIP3    H1 4374   2.968   0.134   3.268
 1456TIP3    H2 4375   2.917   0.154   3.409
 1457TIP3   OH2 4376   2.900   0.105   3.614
 1457TIP3    H1 4377   2.809   0.140   3.623
 1457TIP3    H2 4378   2.954   0.173   3.660
 1458TIP3   OH2 4379   2.638   0.478   2.702
 1458TIP3    H1 4380   2.564   0.415   2.689
 1458TIP3    H2 4381   2.616   0.513   2.792
 1459TIP3   OH2 4382   3.534   0.716   3.325
 1459TIP3    H1 4383   3.556   0.769   3.245
 1459TIP3    H2 4384   3.449   0.675   3.301
 1460TIP3   OH2 4385   3.084  -0.171   2.496
 1460TIP3    H1 4386   3.023  -0.228   2.545
 1460TIP3    H2 4387   3.107  -0.102   2.562
 1461TIP3   OH2 4388   3.036   0.800   3.700
 1461TIP3    H1 4389   3.065   0.785   3.790
 1461TIP3    H2 4390   2.997   0.889   3.705
 1462TIP3   OH2 4391   3.162   0.035   2.664
 1462TIP3    H1 4392   3.254   0.058   2.684
 1462TIP3    H2 4393   3.131   0.116   2.618
 1463TIP3   OH2 4394   2.332   0.508   3.373
 1463TIP3    H1 4395   2.371   0.477   3.289
 1463TIP3    H2 4396   2.372   0.447   3.437
 1464TIP3   OH2 4397   2.783   0.632   2.529
 1464TIP3    H1 4398   2.734   0.717   2.531
 1464TIP3    H2 4399   2.727   0.575   2.586
 1465TIP3   OH2 4400   2.215   0.424   3.988
 1465TIP3    H1 4401   2.229   0.411   4.084
 1465TIP3    H2 4402   2.144   0.359   3.971
 1466TIP3   OH2 4403   2.940   0.544   4.007
 1466TIP3    H1 4404   2.875   0.483   3.969
 1466TIP3    H2 4405   3.024   0.509   3.971
 1467TIP3   OH2 4406   3.195   1.061   3.595
 1467TIP3    H1 4407   3.098   1.060   3.608
 1467TIP3    H2 4408   3.223   1.113   3.673
 1468TIP3   OH2 4409   3.604   0.135   2.504
 1468TIP3    H1 4410   3.549   0.088   2.436
 1468TIP3    H2 4411   3.597   0.224   2.463
 1469TIP3   OH2 4412   3.824   0.995   3.582
 1469TIP3    H1 4413   3.726   0.989   3.573
 1469TIP3    H2 4414   3.851   0.965   3.492
 1470TIP3   OH2 4415   3.316   0.951   2.417
 1470TIP3    H1 4416   3.276   0.889   2.479
 1470TIP3    H2 4417   3.317   0.902   2.333
 1471TIP3   OH2 4418   3.301   0.582   3.241
 1471TIP3    H1 4419   3.208   0.557   3.256
 1471TIP3    H2 4420   3.333   0.501   3.197
 1472TIP3   OH2 4421   2.432   0.810   3.001
 1472TIP3    H1 4422   2.427   0.891   2.947
 1472TIP3    H2 4423   2.339   0.793   3.018
 1473TIP3   OH2 4424   2.001   0.112   2.712
 1473TIP3    H1 4425   2.046   0.196   2.734
 1473TIP3    H2 4426   1.924   0.116   2.772
 1474TIP3   OH2 4427   2.562   0.573   2.944
 1474TIP3    H1 4428   2.528   0.663   2.963
 1474TIP3    H2 4429   2.526   0.522   3.018
 1475TIP3   OH2 4430   2.703   1.150   3.470
 1475TIP3    H1 4431   2.743   1.224   3.419
 1475TIP3    H2 4432   2.780   1.115   3.517
 1476TIP3   OH2 4433   2.349   1.046   2.854
 1476TIP3    H1 4434   2.263   1.056   2.900
 1476TIP3    H2 4435   2.382   1.139   2.858
 1477TIP3   OH2 4436   3.084   0.787   3.432
 1477TIP3    H1 4437   3.073   0.787   3.529
 1477TIP3    H2 4438   3.164   0.733   3.422
 1478TIP3   OH2 4439   3.064   0.683   2.311
 1478TIP3    H1 4440   3.116   0.655   2.390
 1478TIP3    H2 4441   2.976   0.652   2.336
 1479TIP3   OH2 4442   3.336   1.315   3.478
 1479TIP3    H1 4443   3.256   1.260   3.475
 1479TIP3    H2 4444   3.318   1.380   3.407
 1480TIP3   OH2 4445   3.401   1.152   2.130
 1480TIP3    H1 4446   3.433   1.226   2.076
 1480TIP3    H2 4447   3.321   1.195   2.169
 1481TIP3   OH2 4448   2.460  -0.022   4.003
 1481TIP3    H1 4449   2.384  -0.085   3.993
 1481TIP3    H2 4450   2.508  -0.062   4.076
 1482TIP3   OH2 4451   3.227   0.604   2.517
 1482TIP3    H1 4452   3.214   0.545   2.594
 1482TIP3    H2 4453   3.324   0.606   2.512
 1483TIP3   OH2 4454   2.139   1.014   3.627
 1483TIP3    H1 4455   2.193   0.945   3.668
 1483TIP3    H2 4456   2.161   1.091   3.681
 1484TIP3   OH2 4457   2.429   0.658   2.313
 1484TIP3    H1 4458   2.438   0.564   2.287
 1484TIP3    H2 4459   2.406   0.649   2.408
 1485TIP3   OH2 4460   2.370   0.665   2.584
 1485TIP3    H1 4461   2.441   0.638   2.643
 1485TIP3    H2 4462   2.373   0.763   2.593
 1486TIP3   OH2 4463   2.105   0.358   2.791
 1486TIP3    H1 4464   2.039   0.404   2.847
 1486TIP3    H2 4465   2.120   0.426   2.723
 1487TIP3   OH2 4466   1.986   6.237   2.417
 1487TIP3    H1 4467   2.077   6.266   2.427
 1487TIP3    H2 4468   1.986   6.157   2.470
 1488TIP3   OH2 4469   3.136  -0.234   2.810
 1488TIP3    H1 4470   3.166  -0.195   2.727
 1488TIP3    H2 4471   3.164  -0.168   2.874
 1489TIP3   OH2 4472   2.641   0.862   2.533
 1489TIP3    H1 4473   2.553   0.885   2.569
 1489TIP3    H2 4474   2.655   0.938   2.474
 1490TIP3   OH2 4475   2.819  -0.071   2.962
 1490TIP3    H1 4476   2.888  -0.005   2.944
 1490TIP3    H2 4477   2.832  -0.086   3.058
 1491TIP3   OH2 4478   3.104   0.246   3.750
 1491TIP3    H1 4479   3.128   0.301   3.827
 1491TIP3    H2 4480   3.146   0.161   3.768
 1492TIP3   OH2 4481   2.387   0.937   2.604
 1492TIP3    H1 4482   2.357   1.007   2.542
 1492TIP3    H2 4483   2.370   0.979   2.691
 1493TIP3   OH2 4484   2.462  -0.331   2.829
 1493TIP3    H1 4485   2.491  -0.251   2.878
 1493TIP3    H2 4486   2.529  -0.398   2.855
 1494TIP3   OH2 4487   3.728   0.131   3.721
 1494TIP3    H1 4488   3.636   0.164   3.719
 1494TIP3    H2 4489   3.749   0.122   3.627
 1495TIP3   OH2 4490   3.384   0.337   3.121
 1495TIP3    H1 4491   3.305   0.280   3.135
 1495TIP3    H2 4492   3.452   0.289   3.173
 1496TIP3   OH2 4493   2.105   0.561   2.593
 1496TIP3    H1 4494   2.176   0.628   2.600
 1496TIP3    H2 4495   2.147   0.501   2.527
 1497TIP3   OH2 4496   2.045  -0.159   2.750
 1497TIP3    H1 4497   2.037  -0.061   2.735
 1497TIP3    H2 4498   2.021  -0.196   2.665
 1498TIP3   OH2 4499   3.358   1.297   3.071
 1498TIP3    H1 4500   3.314   1.343   2.996
 1498TIP3    H2 4501   3.452   1.315   3.050
 1499TIP3   OH2 4502   1.965   0.779   2.978
 1499TIP3    H1 4503   1.905   0.810   3.046
 1499TIP3    H2 4504   1.930   0.825   2.898
 1500TIP3   OH2 4505   2.133   1.330   4.050
 1500TIP3    H1 4506   2.218   1.332   4.098
 1500TIP3    H2 4507   2.113   1.235   4.051
 1501TIP3   OH2 4508   2.606   1.279   4.098
 1501TIP3    H1 4509   2.701   1.264   4.103
 1501TIP3    H2 4510   2.581   1.218   4.026
 1502TIP3   OH2 4511   2.590   0.859   2.221
 1502TIP3    H1 4512   2.534   0.789   2.261
 1502TIP3    H2 4513   2.665   0.807   2.189
 1503TIP3   OH2 4514   3.251   1.193   3.828
 1503TIP3    H1 4515   3.244   1.124   3.898
 1503TIP3    H2 4516   3.326   1.247   3.860
 1504TIP3   OH2 4517   3.026   0.900   2.139
 1504TIP3    H1 4518   3.062   0.830   2.198
 1504TIP3    H2 4519   3.085   0.894   2.061
 1505TIP3   OH2 4520   2.258   0.731   4.251
 1505TIP3    H1 4521   2.273   0.635   4.261
 1505TIP3    H2 4522   2.171   0.734   4.206
 1506TIP3   OH2 4523   2.240   0.373   2.450
 1506TIP3    H1 4524   2.297   0.344   2.523
 1506TIP3    H2 4525   2.306   0.378   2.378
 1507TIP3   OH2 4526   2.868   0.819   4.026
 1507TIP3    H1 4527   2.823   0.839   3.941
 1507TIP3    H2 4528   2.898   0.727   4.014
 1508TIP3   OH2 4529   2.764   0.582   2.258
 1508TIP3    H1 4530   2.757   0.593   2.354
 1508TIP3    H2 4531   2.760   0.484   2.250
 1509TIP3   OH2 4532   3.358   0.829   3.633
 1509TIP3    H1 4533   3.432   0.874   3.589
 1509TIP3    H2 4534   3.287   0.895   3.620
 1510TIP3   OH2 4535   2.386   0.464   4.235
 1510TIP3    H1 4536   2.467   0.422   4.205
 1510TIP3    H2 4537   2.412   0.497   4.324
 1511TIP3   OH2 4538   2.439   0.289   2.665
 1511TIP3    H1 4539   2.411   0.245   2.747
 1511TIP3    H2 4540   2.478   0.215   2.614
 1512TIP3   OH2 4541   2.721   0.371   3.902
 1512TIP3    H1 4542   2.637   0.420   3.900
 1512TIP3    H2 4543   2.761   0.393   3.816
 1513TIP3   OH2 4544   2.546   0.089   2.505
 1513TIP3    H1 4545   2.521   0.090   2.411
 1513TIP3    H2 4546   2.644   0.088   2.498
 1514TIP3   OH2 4547   3.232   0.751   4.027
 1514TIP3    H1 4548   3.308   0.713   3.982
 1514TIP3    H2 4549   3.221   0.691   4.103
 1515TIP3   OH2 4550   3.371   0.405   2.174
 1515TIP3    H1 4551   3.345   0.363   2.090
 1515TIP3    H2 4552   3.337   0.496   2.155
 1516TIP3   OH2 4553   2.845   0.184   4.048
 1516TIP3    H1 4554   2.831   0.102   3.995
 1516TIP3    H2 4555   2.797   0.249   3.990
 1517TIP3   OH2 4556   2.812  -0.008   3.863
 1517TIP3    H1 4557   2.842   0.022   3.776
 1517TIP3    H2 4558   2.725  -0.049   3.843
 1518TIP3   OH2 4559   2.864   0.454   3.690
 1518TIP3    H1 4560   2.950   0.479   3.656
 1518TIP3    H2 4561   2.805   0.522   3.650
 1519TIP3   OH2 4562   3.438   0.432   4.068
 1519TIP3    H1 4563   3.470   0.361   4.128
 1519TIP3    H2 4564   3.520   0.479   4.047
 1520TIP3   OH2 4565   3.488   0.682   3.818
 1520TIP3    H1 4566   3.429   0.739   3.762
 1520TIP3    H2 4567   3.575   0.705   3.778
 1521TIP3   OH2 4568   2.724   0.295   4.268
 1521TIP3    H1 4569   2.645   0.238   4.273
 1521TIP3    H2 4570   2.765   0.263   4.184
 1522TIP3   OH2 4571   3.110   0.209   4.108
 1522TIP3    H1 4572   3.097   0.199   4.206
 1522TIP3    H2 4573   3.016   0.196   4.083
 1523TIP3   OH2 4574   3.336   0.120   3.973
 1523TIP3    H1 4575   3.258   0.152   4.022
 1523TIP3    H2 4576   3.369   0.055   4.039
 1524TIP3   OH2 4577   2.521   0.115   4.285
 1524TIP3    H1 4578   2.561   0.034   4.246
 1524TIP3    H2 4579   2.529   0.094   4.379
 1525TIP3   OH2 4580   2.357   1.139   2.416
 1525TIP3    H1 4581   2.452   1.130   2.394
 1525TIP3    H2 4582   2.327   1.191   2.340
 1526TIP3   OH2 4583   1.837   0.523   2.622
 1526TIP3    H1 4584   1.932   0.545   2.614
 1526TIP3    H2 4585   1.835   0.434   2.581
 1527TIP3   OH2 4586   1.752   1.131   3.048
 1527TIP3    H1 4587   1.685   1.071   3.008
 1527TIP3    H2 4588   1.795   1.070   3.111
 1528TIP3   OH2 4589   1.886   0.974   3.231
 1528TIP3    H1 4590   1.872   0.907   3.301
 1528TIP3    H2 4591   1.937   1.040   3.282
 1529TIP3   OH2 4592   3.618   1.375   3.035
 1529TIP3    H1 4593   3.639   1.410   3.124
 1529TIP3    H2 4594   3.678   1.426   2.978
 1530TIP3   OH2 4595   3.641   1.404   3.316
 1530TIP3    H1 4596   3.594   1.318   3.313
 1530TIP3    H2 4597   3.714   1.380   3.376
 1531TIP3   OH2 4598   3.689   1.080   3.888
 1531TIP3    H1 4599   3.617   1.090   3.954
 1531TIP3    H2 4600   3.731   1.169   3.892
 1532TIP3   OH2 4601   3.508   0.590   2.505
 1532TIP3    H1 4602   3.572   0.659   2.480
 1532TIP3    H2 4603   3.551   0.552   2.585
 1533TIP3   OH2 4604   3.638   0.456   2.708
 1533TIP3    H1 4605   3.567   0.420   2.767
 1533TIP3    H2 4606   3.700   0.498   2.772
 1534TIP3   OH2 4607   3.690   0.858   3.143
 1534TIP3    H1 4608   3.742   0.791   3.094
 1534TIP3    H2 4609   3.684   0.930   3.078
 1535TIP3   OH2 4610   3.514   1.155   3.334
 1535TIP3    H1 4611   3.443   1.196   3.387
 1535TIP3    H2 4612   3.463   1.109   3.263
 1536TIP3   OH2 4613   3.571   0.369   2.355
 1536TIP3    H1 4614   3.498   0.370   2.288
 1536TIP3    H2 4615   3.542   0.445   2.410
 1537TIP3   OH2 4616   3.449   0.046   2.300
 1537TIP3    H1 4617   3.397   0.091   2.232
 1537TIP3    H2 4618   3.410  -0.043   2.299
 1538TIP3   OH2 4619   3.447   0.328   2.854
 1538TIP3    H1 4620   3.442   0.231   2.843
 1538TIP3    H2 4621   3.427   0.338   2.950
 1539TIP3   OH2 4622   2.067   0.393   3.605
 1539TIP3    H1 4623   2.063   0.356   3.514
 1539TIP3    H2 4624   2.164   0.393   3.619
 1540TIP3   OH2 4625   3.729   0.751   3.712
 1540TIP3    H1 4626   3.800   0.685   3.697
 1540TIP3    H2 4627   3.754   0.822   3.650
 1541TIP3   OH2 4628   3.909   0.555   3.710
 1541TIP3    H1 4629   3.837   0.508   3.757
 1541TIP3    H2 4630   3.979   0.487   3.721
 1542TIP3   OH2 4631   3.354  -0.206   2.347
 1542TIP3    H1 4632   3.377  -0.219   2.440
 1542TIP3    H2 4633   3.262  -0.237   2.349
 1543TIP3   OH2 4634   3.435   0.059   2.750
 1543TIP3    H1 4635   3.428  -0.037   2.730
 1543TIP3    H2 4636   3.496   0.088   2.678
 1544TIP3   OH2 4637   3.595   0.205   3.244
 1544TIP3    H1 4638   3.682   0.229   3.206
 1544TIP3    H2 4639   3.603   0.247   3.333
 1545TIP3   OH2 4640   3.646   0.365   3.473
 1545TIP3    H1 4641   3.570   0.403   3.522
 1545TIP3    H2 4642   3.683   0.444   3.429
 1546TIP3   OH2 4643   2.251   0.073   4.262
 1546TIP3    H1 4644   2.347   0.082   4.249
 1546TIP3    H2 4645   2.249   0.038   4.352
 1547TIP3   OH2 4646   2.241  -0.222   3.604
 1547TIP3    H1 4647   2.316  -0.281   3.582
 1547TIP3    H2 4648   2.290  -0.138   3.611
 1548TIP3   OH2 4649   2.048   0.042   3.674
 1548TIP3    H1 4650   2.098   0.045   3.590
 1548TIP3    H2 4651   2.080   0.120   3.719
 1549TIP3   OH2 4652   3.198   1.250   2.688
 1549TIP3    H1 4653   3.251   1.243   2.607
 1549TIP3    H2 4654   3.243   1.321   2.737
 1550TIP3   OH2 4655   2.299   1.054   4.070
 1550TIP3    H1 4656   2.204   1.035   4.054
 1550TIP3    H2 4657   2.307   1.039   4.164
 1551TIP3   OH2 4658   2.478   1.091   3.620
 1551TIP3    H1 4659   2.428   1.167   3.583
 1551TIP3    H2 4660   2.562   1.106   3.573
 1552TIP3   OH2 4661   2.913   1.330   3.754
 1552TIP3    H1 4662   2.954   1.329   3.843
 1552TIP3    H2 4663   2.978   1.384   3.705
 1553TIP3   OH2 4664   3.094   1.486   3.620
 1553TIP3    H1 4665   3.165   1.435   3.580
 1553TIP3    H2 4666   3.145   1.544   3.681
 1554TIP3   OH2 4667   2.151   1.343   3.648
 1554TIP3    H1 4668   2.060   1.372   3.624
 1554TIP3    H2 4669   2.167   1.399   3.726
 1555TIP3   OH2 4670   2.385   1.324   3.504
 1555TIP3    H1 4671   2.298   1.335   3.548
 1555TIP3    H2 4672   2.365   1.357   3.414
 1556TIP3   OH2 4673   2.811   1.348   3.300
 1556TIP3    H1 4674   2.739   1.367   3.237
 1556TIP3    H2 4675   2.822   1.436   3.343
 1557TIP3   OH2 4676   3.080   1.289   3.352
 1557TIP3    H1 4677   2.985   1.304   3.335
 1557TIP3    H2 4678   3.120   1.365   3.308
 1558TIP3   OH2 4679   3.291   1.484   3.264
 1558TIP3    H1 4680   3.271   1.567   3.216
 1558TIP3    H2 4681   3.313   1.422   3.191
 1559TIP3   OH2 4682   2.060   1.136   3.386
 1559TIP3    H1 4683   2.086   1.107   3.476
 1559TIP3    H2 4684   2.134   1.097   3.335
 1560TIP3   OH2 4685   2.258   1.012   3.247
 1560TIP3    H1 4686   2.271   0.928   3.297
 1560TIP3    H2 4687   2.349   1.048   3.246
 1561TIP3   OH2 4688   2.525   1.101   3.254
 1561TIP3    H1 4689   2.552   1.007   3.247
 1561TIP3    H2 4690   2.573   1.126   3.335
 1562TIP3   OH2 4691   1.847   0.916   2.774
 1562TIP3    H1 4692   1.760   0.885   2.742
 1562TIP3    H2 4693   1.840   1.009   2.746
 1563TIP3   OH2 4694   2.623   1.091   2.362
 1563TIP3    H1 4695   2.709   1.116   2.323
 1563TIP3    H2 4696   2.600   1.017   2.301
 1564TIP3   OH2 4697   3.347   1.220   2.455
 1564TIP3    H1 4698   3.339   1.122   2.444
 1564TIP3    H2 4699   3.296   1.251   2.377
 1565TIP3   OH2 4700   1.924   0.930   2.416
 1565TIP3    H1 4701   1.928   0.953   2.510
 1565TIP3    H2 4702   2.012   0.888   2.402
 1566TIP3   OH2 4703   3.564   1.358   3.639
 1566TIP3    H1 4704   3.484   1.328   3.591
 1566TIP3    H2 4705   3.543   1.453   3.651
 1567TIP3   OH2 4706   4.828   0.734   2.407
 1567TIP3    H1 4707   4.799   0.826   2.387
 1567TIP3    H2 4708   4.756   0.684   2.364
 1568TIP3   OH2 4709   4.825   0.741   2.791
 1568TIP3    H1 4710   4.860   0.716   2.879
 1568TIP3    H2 4711   4.820   0.657   2.746
 1569TIP3   OH2 4712   4.132   0.626   3.148
 1569TIP3    H1 4713   4.163   0.554   3.206
 1569TIP3    H2 4714   4.196   0.695   3.172
 1570TIP3   OH2 4715   5.079   1.042   2.473
 1570TIP3    H1 4716   5.068   0.975   2.542
 1570TIP3    H2 4717   5.110   1.119   2.524
 1571TIP3   OH2 4718   4.106   1.038   2.871
 1571TIP3    H1 4719   4.095   0.941   2.877
 1571TIP3    H2 4720   4.203   1.046   2.870
 1572TIP3   OH2 4721   3.798   0.230   2.676
 1572TIP3    H1 4722   3.752   0.315   2.695
 1572TIP3    H2 4723   3.732   0.191   2.615
 1573TIP3   OH2 4724   3.871   0.531   2.840
 1573TIP3    H1 4725   3.923   0.454   2.871
 1573TIP3    H2 4726   3.937   0.583   2.794
 1574TIP3   OH2 4727   4.729   1.497   2.488
 1574TIP3    H1 4728   4.770   1.425   2.437
 1574TIP3    H2 4729   4.721   1.458   2.576
 1575TIP3   OH2 4730   4.630   0.958   2.835
 1575TIP3    H1 4731   4.678   0.882   2.798
 1575TIP3    H2 4732   4.708   1.011   2.862
 1576TIP3   OH2 4733   5.607   0.289   2.832
 1576TIP3    H1 4734   5.664   0.359   2.869
 1576TIP3    H2 4735   5.671   0.243   2.775
 1577TIP3   OH2 4736   5.048   0.426   2.883
 1577TIP3    H1 4737   5.144   0.413   2.877
 1577TIP3    H2 4738   5.023   0.429   2.788
 1578TIP3   OH2 4739   4.392   0.131   2.839
 1578TIP3    H1 4740   4.356   0.179   2.761
 1578TIP3    H2 4741   4.385   0.037   2.812
 1579TIP3   OH2 4742   5.089   0.211   2.461
 1579TIP3    H1 4743   5.159   0.196   2.530
 1579TIP3    H2 4744   5.143   0.250   2.390
 1580TIP3   OH2 4745   4.023   0.324   2.934
 1580TIP3    H1 4746   4.104   0.309   2.987
 1580TIP3    H2 4747   4.039   0.264   2.859
 1581TIP3   OH2 4748   4.451   0.515   2.728
 1581TIP3    H1 4749   4.539   0.501   2.694
 1581TIP3    H2 4750   4.405   0.431   2.701
 1582TIP3   OH2 4751   5.718   0.495   2.993
 1582TIP3    H1 4752   5.628   0.532   2.985
 1582TIP3    H2 4753   5.736   0.515   3.086
 1583TIP3   OH2 4754   4.389   0.106   3.274
 1583TIP3    H1 4755   4.326   0.121   3.202
 1583TIP3    H2 4756   4.333   0.131   3.351
 1584TIP3   OH2 4757   4.704   0.948   2.281
 1584TIP3    H1 4758   4.709   0.961   2.186
 1584TIP3    H2 4759   4.670   1.036   2.309
 1585TIP3   OH2 4760   4.482   0.880   3.058
 1585TIP3    H1 4761   4.423   0.950   3.095
 1585TIP3    H2 4762   4.528   0.929   2.987
 1586TIP3   OH2 4763   5.278   0.213   2.656
 1586TIP3    H1 4764   5.291   0.149   2.728
 1586TIP3    H2 4765   5.351   0.276   2.671
 1587TIP3   OH2 4766   4.252   0.227   3.056
 1587TIP3    H1 4767   4.316   0.295   3.085
 1587TIP3    H2 4768   4.303   0.186   2.982
 1588TIP3   OH2 4769   4.315   1.078   3.157
 1588TIP3    H1 4770   4.291   1.167   3.124
 1588TIP3    H2 4771   4.236   1.061   3.213
 1589TIP3   OH2 4772   3.711   0.762   2.393
 1589TIP3    H1 4773   3.657   0.788   2.316
 1589TIP3    H2 4774   3.733   0.850   2.431
 1590TIP3   OH2 4775   5.142   1.281   2.632
 1590TIP3    H1 4776   5.053   1.274   2.672
 1590TIP3    H2 4777   5.137   1.369   2.590
 1591TIP3   OH2 4778   4.842   1.324   2.304
 1591TIP3    H1 4779   4.893   1.242   2.284
 1591TIP3    H2 4780   4.904   1.391   2.266
 1592TIP3   OH2 4781   4.982   1.104   2.222
 1592TIP3    H1 4782   4.981   1.021   2.172
 1592TIP3    H2 4783   5.024   1.077   2.307
 1593TIP3   OH2 4784   5.369   1.191   2.981
 1593TIP3    H1 4785   5.359   1.115   2.920
 1593TIP3    H2 4786   5.352   1.267   2.921
 1594TIP3   OH2 4787   4.665   0.584   2.236
 1594TIP3    H1 4788   4.583   0.568   2.188
 1594TIP3    H2 4789   4.730   0.578   2.163
 1595TIP3   OH2 4790   4.619   0.385   1.969
 1595TIP3    H1 4791   4.696   0.433   2.005
 1595TIP3    H2 4792   4.668   0.320   1.914
 1596TIP3   OH2 4793   5.563   0.830   2.828
 1596TIP3    H1 4794   5.480   0.882   2.829
 1596TIP3    H2 4795   5.593   0.846   2.736
 1597TIP3   OH2 4796   5.011   0.674   2.210
 1597TIP3    H1 4797   4.958   0.696   2.290
 1597TIP3    H2 4798   5.096   0.647   2.251
 1598TIP3   OH2 4799   5.237   0.724   3.123
 1598TIP3    H1 4800   5.247   0.799   3.184
 1598TIP3    H2 4801   5.162   0.754   3.069
 1599TIP3   OH2 4802   4.241   0.662   2.633
 1599TIP3    H1 4803   4.200   0.598   2.573
 1599TIP3    H2 4804   4.316   0.610   2.670
 1600TIP3   OH2 4805   4.374   1.077   2.772
 1600TIP3    H1 4806   4.359   1.046   2.682
 1600TIP3    H2 4807   4.464   1.041   2.791
 1601TIP3   OH2 4808   4.390   0.633   2.981
 1601TIP3    H1 4809   4.418   0.620   2.888
 1601TIP3    H2 4810   4.423   0.723   3.002
 1602TIP3   OH2 4811   4.903   1.275   2.758
 1602TIP3    H1 4812   4.890   1.357   2.809
 1602TIP3    H2 4813   4.887   1.205   2.825
 1603TIP3   OH2 4814   4.518   1.191   3.306
 1603TIP3    H1 4815   4.458   1.253   3.352
 1603TIP3    H2 4816   4.453   1.140   3.255
 1604TIP3   OH2 4817   4.850   0.529   2.044
 1604TIP3    H1 4818   4.915   0.587   2.090
 1604TIP3    H2 4819   4.875   0.547   1.950
 1605TIP3   OH2 4820   4.270   0.748   3.404
 1605TIP3    H1 4821   4.279   0.835   3.448
 1605TIP3    H2 4822   4.177   0.728   3.426
 1606TIP3   OH2 4823   4.598   1.201   2.307
 1606TIP3    H1 4824   4.680   1.253   2.316
 1606TIP3    H2 4825   4.536   1.266   2.270
 1607TIP3   OH2 4826   4.312   1.355   3.393
 1607TIP3    H1 4827   4.277   1.361   3.303
 1607TIP3    H2 4828   4.231   1.335   3.446
 1608TIP3   OH2 4829   4.125   0.514   2.412
 1608TIP3    H1 4830   4.029   0.531   2.395
 1608TIP3    H2 4831   4.127   0.421   2.414
 1609TIP3   OH2 4832   5.167   1.133   1.636
 1609TIP3    H1 4833   5.171   1.230   1.619
 1609TIP3    H2 4834   5.261   1.109   1.625
 1610TIP3   OH2 4835   3.891   0.893   3.340
 1610TIP3    H1 4836   3.820   0.875   3.274
 1610TIP3    H2 4837   3.926   0.804   3.360
 1611TIP3   OH2 4838   3.745   1.086   2.970
 1611TIP3    H1 4839   3.842   1.090   2.968
 1611TIP3    H2 4840   3.724   1.165   3.023
 1612TIP3   OH2 4841   5.606   1.542   3.030
 1612TIP3    H1 4842   5.605   1.445   3.044
 1612TIP3    H2 4843   5.523   1.566   3.076
 1613TIP3   OH2 4844   4.714   1.321   3.161
 1613TIP3    H1 4845   4.711   1.414   3.193
 1613TIP3    H2 4846   4.644   1.280   3.217
 1614TIP3   OH2 4847   4.481   1.447   2.118
 1614TIP3    H1 4848   4.433   1.432   2.034
 1614TIP3    H2 4849   4.448   1.535   2.145
 1615TIP3   OH2 4850   3.916   1.299   2.500
 1615TIP3    H1 4851   3.963   1.292   2.586
 1615TIP3    H2 4852   3.854   1.225   2.507
 1616TIP3   OH2 4853   4.677   1.353   1.751
 1616TIP3    H1 4854   4.735   1.282   1.716
 1616TIP3    H2 4855   4.714   1.364   1.842
 1617TIP3   OH2 4856   4.731   1.403   2.020
 1617TIP3    H1 4857   4.643   1.411   2.064
 1617TIP3    H2 4858   4.786   1.371   2.093
 1618TIP3   OH2 4859   5.506   0.667   3.314
 1618TIP3    H1 4860   5.426   0.678   3.262
 1618TIP3    H2 4861   5.527   0.573   3.297
 1619TIP3   OH2 4862   4.096   1.074   3.320
 1619TIP3    H1 4863   4.143   1.062   3.405
 1619TIP3    H2 4864   4.021   1.013   3.330
 1620TIP3   OH2 4865   5.252   0.466   3.229
 1620TIP3    H1 4866   5.211   0.467   3.318
 1620TIP3    H2 4867   5.236   0.558   3.197
 1621TIP3   OH2 4868   4.934   0.573   1.793
 1621TIP3    H1 4869   4.891   0.555   1.707
 1621TIP3    H2 4870   5.017   0.615   1.764
 1622TIP3   OH2 4871   4.448   0.414   3.130
 1622TIP3    H1 4872   4.394   0.432   3.210
 1622TIP3    H2 4873   4.426   0.495   3.077
 1623TIP3   OH2 4874   4.300   0.302   2.638
 1623TIP3    H1 4875   4.209   0.269   2.654
 1623TIP3    H2 4876   4.320   0.259   2.552
 1624TIP3   OH2 4877   4.818   0.393   2.375
 1624TIP3    H1 4878   4.763   0.460   2.331
 1624TIP3    H2 4879   4.866   0.352   2.300
 1625TIP3   OH2 4880   4.980   0.671   3.438
 1625TIP3    H1 4881   4.957   0.605   3.508
 1625TIP3    H2 4882   5.072   0.691   3.463
 1626TIP3   OH2 4883   4.976   0.414   2.606
 1626TIP3    H1 4884   4.911   0.435   2.536
 1626TIP3    H2 4885   5.010   0.331   2.567
 1627TIP3   OH2 4886   4.259   0.455   3.328
 1627TIP3    H1 4887   4.272   0.526   3.393
 1627TIP3    H2 4888   4.249   0.377   3.388
 1628TIP3   OH2 4889   4.355   0.033   2.059
 1628TIP3    H1 4890   4.425  -0.012   2.113
 1628TIP3    H2 4891   4.281  -0.028   2.068
 1629TIP3   OH2 4892   3.935  -0.089   2.856
 1629TIP3    H1 4893   3.956  -0.044   2.943
 1629TIP3    H2 4894   3.866  -0.029   2.826
 1630TIP3   OH2 4895   3.840  -0.020   2.483
 1630TIP3    H1 4896   3.854   0.015   2.392
 1630TIP3    H2 4897   3.756   0.026   2.500
 1631TIP3   OH2 4898   4.949   0.651   3.019
 1631TIP3    H1 4899   5.009   0.587   2.977
 1631TIP3    H2 4900   4.933   0.610   3.106
 1632TIP3   OH2 4901   4.653   0.160   2.747
 1632TIP3    H1 4902   4.563   0.149   2.786
 1632TIP3    H2 4903   4.690   0.073   2.758
 1633TIP3   OH2 4904   4.061   0.177   2.690
 1633TIP3    H1 4905   3.966   0.201   2.684
 1633TIP3    H2 4906   4.063   0.102   2.631
 1634TIP3   OH2 4907   4.332   0.173   2.401
 1634TIP3    H1 4908   4.430   0.182   2.393
 1634TIP3    H2 4909   4.300   0.196   2.311
 1635TIP3   OH2 4910   4.164   0.251   2.183
 1635TIP3    H1 4911   4.113   0.195   2.123
 1635TIP3    H2 4912   4.231   0.284   2.119
 1636TIP3   OH2 4913   5.305   1.886   3.130
 1636TIP3    H1 4914   5.302   1.912   3.036
 1636TIP3    H2 4915   5.385   1.934   3.160
 1637TIP3   OH2 4916   4.259   0.994   3.546
 1637TIP3    H1 4917   4.338   1.024   3.595
 1637TIP3    H2 4918   4.193   0.994   3.618
 1638TIP3   OH2 4919   4.765   0.402   2.835
 1638TIP3    H1 4920   4.754   0.342   2.758
 1638TIP3    H2 4921   4.677   0.397   2.873
 1639TIP3   OH2 4922   4.719   0.358   3.102
 1639TIP3    H1 4923   4.625   0.387   3.100
 1639TIP3    H2 4924   4.757   0.423   3.166
 1640TIP3   OH2 4925   5.331   0.976   2.812
 1640TIP3    H1 4926   5.358   1.026   2.732
 1640TIP3    H2 4927   5.246   0.936   2.784
 1641TIP3   OH2 4928   4.884   0.027   2.042
 1641TIP3    H1 4929   4.789   0.022   2.058
 1641TIP3    H2 4930   4.903   0.121   2.055
 1642TIP3   OH2 4931   4.825   1.051   3.190
 1642TIP3    H1 4932   4.869   1.044   3.276
 1642TIP3    H2 4933   4.791   1.142   3.190
 1643TIP3   OH2 4934   4.958   0.291   2.152
 1643TIP3    H1 4935   5.055   0.297   2.164
 1643TIP3    H2 4936   4.938   0.368   2.096
 1644TIP3   OH2 4937   4.118   0.757   2.868
 1644TIP3    H1 4938   4.165   0.730   2.787
 1644TIP3    H2 4939   4.162   0.704   2.937
 1645TIP3   OH2 4940   4.580   0.891   2.005
 1645TIP3    H1 4941   4.532   0.978   2.004
 1645TIP3    H2 4942   4.549   0.855   2.088
 1646TIP3   OH2 4943   4.012   0.676   3.474
 1646TIP3    H1 4944   4.027   0.667   3.570
 1646TIP3    H2 4945   3.939   0.613   3.460
 1647TIP3   OH2 4946   4.736   0.800   3.495
 1647TIP3    H1 4947   4.674   0.735   3.459
 1647TIP3    H2 4948   4.822   0.768   3.460
 1648TIP3   OH2 4949   4.988   1.310   3.087
 1648TIP3    H1 4950   4.892   1.316   3.099
 1648TIP3    H2 4951   5.018   1.366   3.162
 1649TIP3   OH2 4952   5.396   0.390   1.999
 1649TIP3    H1 4953   5.345   0.339   1.933
 1649TIP3    H2 4954   5.394   0.477   1.954
 1650TIP3   OH2 4955   5.619   1.253   3.068
 1650TIP3    H1 4956   5.521   1.246   3.061
 1650TIP3    H2 4957   5.644   1.222   2.978
 1651TIP3   OH2 4958   5.101   1.209   1.899
 1651TIP3    H1 4959   5.078   1.138   1.959
 1651TIP3    H2 4960   5.116   1.163   1.814
 1652TIP3   OH2 4961   5.095   0.844   2.733
 1652TIP3    H1 4962   5.000   0.824   2.742
 1652TIP3    H2 4963   5.127   0.763   2.687
 1653TIP3   OH2 4964   4.230   1.058   2.478
 1653TIP3    H1 4965   4.231   1.143   2.430
 1653TIP3    H2 4966   4.141   1.059   2.514
 1654TIP3   OH2 4967   3.794   0.369   2.197
 1654TIP3    H1 4968   3.829   0.458   2.213
 1654TIP3    H2 4969   3.713   0.370   2.253
 1655TIP3   OH2 4970   4.285   0.784   2.386
 1655TIP3    H1 4971   4.296   0.881   2.388
 1655TIP3    H2 4972   4.302   0.763   2.479
 1656TIP3   OH2 4973   4.501   1.406   2.955
 1656TIP3    H1 4974   4.541   1.480   2.906
 1656TIP3    H2 4975   4.577   1.373   3.005
 1657TIP3   OH2 4976   4.147   1.301   2.342
 1657TIP3    H1 4977   4.060   1.312   2.385
 1657TIP3    H2 4978   4.180   1.394   2.344
 1658TIP3   OH2 4979   4.879   1.044   2.921
 1658TIP3    H1 4980   4.869   1.042   3.019
 1658TIP3    H2 4981   4.967   1.005   2.911
 1659TIP3   OH2 4982   4.868   0.936   1.801
 1659TIP3    H1 4983   4.922   0.913   1.880
 1659TIP3    H2 4984   4.780   0.908   1.830
 1660TIP3   OH2 4985   5.131   1.572   2.965
 1660TIP3    H1 4986   5.049   1.520   2.957
 1660TIP3    H2 4987   5.117   1.638   2.893
 1661TIP3   OH2 4988   5.197   1.409   1.618
 1661TIP3    H1 4989   5.234   1.482   1.566
 1661TIP3    H2 4990   5.117   1.454   1.653
 1662TIP3   OH2 4991   4.259   0.231   3.487
 1662TIP3    H1 4992   4.183   0.168   3.480
 1662TIP3    H2 4993   4.304   0.197   3.566
 1663TIP3   OH2 4994   5.024   0.875   2.022
 1663TIP3    H1 4995   5.015   0.803   2.087
 1663TIP3    H2 4996   5.120   0.869   2.004
 1664TIP3   OH2 4997   3.938   1.270   3.113
 1664TIP3    H1 4998   3.990   1.202   3.159
 1664TIP3    H2 4999   3.957   1.348   3.166
 1665TIP3   OH2 5000   4.226   0.917   1.794
 1665TIP3    H1 5001   4.237   0.827   1.756
 1665TIP3    H2 5002   4.232   0.900   1.888
 1666TIP3   OH2 5003   3.924   0.641   2.274
 1666TIP3    H1 5004   3.849   0.673   2.329
 1666TIP3    H2 5005   3.913   0.700   2.196
 1667TIP3   OH2 5006   5.020   0.258   3.121
 1667TIP3    H1 5007   5.108   0.290   3.145
 1667TIP3    H2 5008   5.025   0.168   3.158
 1668TIP3   OH2 5009   4.922   0.027   2.321
 1668TIP3    H1 5010   4.924   0.027   2.224
 1668TIP3    H2 5011   4.974   0.107   2.342
 1669TIP3   OH2 5012   4.425   1.110   2.016
 1669TIP3    H1 5013   4.335   1.128   2.050
 1669TIP3    H2 5014   4.443   1.195   1.971
 1670TIP3   OH2 5015   4.598   0.217   2.453
 1670TIP3    H1 5016   4.678   0.248   2.407
 1670TIP3    H2 5017   4.636   0.167   2.526
 1671TIP3   OH2 5018   4.908   0.497   3.242
 1671TIP3    H1 5019   4.922   0.565   3.313
 1671TIP3    H2 5020   4.958   0.423   3.281
 1672TIP3   OH2 5021   4.175   1.188   2.087
 1672TIP3    H1 5022   4.148   1.260   2.027
 1672TIP3    H2 5023   4.162   1.229   2.175
 1673TIP3   OH2 5024   4.287  -0.101   2.356
 1673TIP3    H1 5025   4.302  -0.006   2.374
 1673TIP3    H2 5026   4.377  -0.125   2.324
 1674TIP3   OH2 5027   5.524   0.412   3.201
 1674TIP3    H1 5028   5.428   0.427   3.194
 1674TIP3    H2 5029   5.538   0.348   3.130
 1675TIP3   OH2 5030   5.174   0.605   2.613
 1675TIP3    H1 5031   5.106   0.535   2.609
 1675TIP3    H2 5032   5.250   0.559   2.655
 1676TIP3   OH2 5033   3.899   0.830   2.075
 1676TIP3    H1 5034   3.920   0.925   2.065
 1676TIP3    H2 5035   3.961   0.788   2.013
 1677TIP3   OH2 5036   3.836   0.098   2.240
 1677TIP3    H1 5037   3.835   0.195   2.229
 1677TIP3    H2 5038   3.804   0.068   2.155
 1678TIP3   OH2 5039   5.154   1.551   2.556
 1678TIP3    H1 5040   5.111   1.598   2.481
 1678TIP3    H2 5041   5.248   1.572   2.538
 1679TIP3   OH2 5042   3.756   1.026   2.464
 1679TIP3    H1 5043   3.702   1.062   2.535
 1679TIP3    H2 5044   3.723   1.077   2.387
 1680TIP3   OH2 5045   3.930   1.587   3.537
 1680TIP3    H1 5046   4.016   1.590   3.586
 1680TIP3    H2 5047   3.912   1.491   3.538
 1681TIP3   OH2 5048   4.401   1.536   3.585
 1681TIP3    H1 5049   4.497   1.524   3.591
 1681TIP3    H2 5050   4.379   1.474   3.513
 1682TIP3   OH2 5051   4.386   1.121   1.703
 1682TIP3    H1 5052   4.333   1.049   1.743
 1682TIP3    H2 5053   4.462   1.071   1.668
 1683TIP3   OH2 5054   5.045   1.449   3.316
 1683TIP3    H1 5055   5.040   1.380   3.385
 1683TIP3    H2 5056   5.122   1.502   3.346
 1684TIP3   OH2 5057   4.821   1.154   1.624
 1684TIP3    H1 5058   4.867   1.092   1.683
 1684TIP3    H2 5059   4.877   1.154   1.544
 1685TIP3   OH2 5060   4.056   0.989   3.737
 1685TIP3    H1 5061   4.067   0.894   3.751
 1685TIP3    H2 5062   3.968   0.992   3.693
 1686TIP3   OH2 5063   4.074   0.632   1.969
 1686TIP3    H1 5064   4.062   0.537   1.969
 1686TIP3    H2 5065   4.133   0.641   1.890
 1687TIP3   OH2 5066   4.664   1.076   3.513
 1687TIP3    H1 5067   4.622   1.097   3.427
 1687TIP3    H2 5068   4.696   0.984   3.501
 1688TIP3   OH2 5069   4.547   0.834   1.739
 1688TIP3    H1 5070   4.553   0.847   1.836
 1688TIP3    H2 5071   4.554   0.736   1.734
 1689TIP3   OH2 5072   5.151   1.084   3.114
 1689TIP3    H1 5073   5.230   1.126   3.073
 1689TIP3    H2 5074   5.086   1.157   3.105
 1690TIP3   OH2 5075   4.183   0.718   3.721
 1690TIP3    H1 5076   4.266   0.675   3.696
 1690TIP3    H2 5077   4.207   0.753   3.810
 1691TIP3   OH2 5078   4.518   0.625   3.381
 1691TIP3    H1 5079   4.435   0.676   3.381
 1691TIP3    H2 5080   4.559   0.651   3.296
 1692TIP3   OH2 5081   4.339   0.374   2.008
 1692TIP3    H1 5082   4.313   0.356   1.916
 1692TIP3    H2 5083   4.437   0.363   2.002
 1693TIP3   OH2 5084   5.025   1.005   3.511
 1693TIP3    H1 5085   5.110   0.977   3.474
 1693TIP3    H2 5086   5.018   0.946   3.589
 1694TIP3   OH2 5087   5.162   0.659   1.661
 1694TIP3    H1 5088   5.145   0.611   1.578
 1694TIP3    H2 5089   5.127   0.749   1.638
 1695TIP3   OH2 5090   4.638   0.441   3.535
 1695TIP3    H1 5091   4.627   0.358   3.483
 1695TIP3    H2 5092   4.590   0.504   3.475
 1696TIP3   OH2 5093   4.607   0.252   3.346
 1696TIP3    H1 5094   4.619   0.293   3.260
 1696TIP3    H2 5095   4.522   0.204   3.334
 1697TIP3   OH2 5096   4.663   0.707   3.167
 1697TIP3    H1 5097   4.748   0.745   3.142
 1697TIP3    H2 5098   4.601   0.774   3.133
 1698TIP3   OH2 5099   5.234   0.687   3.552
 1698TIP3    H1 5100   5.264   0.618   3.616
 1698TIP3    H2 5101   5.318   0.728   3.527
 1699TIP3   OH2 5102   5.283   0.937   3.299
 1699TIP3    H1 5103   5.225   0.995   3.245
 1699TIP3    H2 5104   5.371   0.962   3.262
 1700TIP3   OH2 5105   4.518   0.554   3.753
 1700TIP3    H1 5106   4.440   0.495   3.759
 1700TIP3    H2 5107   4.560   0.519   3.671
 1701TIP3   OH2 5108   4.902   0.467   3.597
 1701TIP3    H1 5109   4.892   0.460   3.695
 1701TIP3    H2 5110   4.808   0.454   3.574
 1702TIP3   OH2 5111   5.123   0.380   3.459
 1702TIP3    H1 5112   5.050   0.411   3.517
 1702TIP3    H2 5113   5.163   0.313   3.520
 1703TIP3   OH2 5114   4.317   0.371   3.770
 1703TIP3    H1 5115   4.359   0.289   3.738
 1703TIP3    H2 5116   4.322   0.357   3.866
 1704TIP3   OH2 5117   4.151   1.391   1.898
 1704TIP3    H1 5118   4.247   1.384   1.881
 1704TIP3    H2 5119   4.125   1.448   1.823
 1705TIP3   OH2 5120   3.628   0.779   2.109
 1705TIP3    H1 5121   3.723   0.799   2.096
 1705TIP3    H2 5122   3.620   0.691   2.067
 1706TIP3   OH2 5123   3.550   1.387   2.534
 1706TIP3    H1 5124   3.482   1.329   2.494
 1706TIP3    H2 5125   3.592   1.325   2.597
 1707TIP3   OH2 5126   3.687   1.228   2.715
 1707TIP3    H1 5127   3.669   1.163   2.786
 1707TIP3    H2 5128   3.735   1.296   2.766
 1708TIP3   OH2 5129   5.409   1.639   2.520
 1708TIP3    H1 5130   5.435   1.670   2.609
 1708TIP3    H2 5131   5.474   1.682   2.463
 1709TIP3   OH2 5132   5.435   1.660   2.803
 1709TIP3    H1 5133   5.392   1.572   2.800
 1709TIP3    H2 5134   5.513   1.638   2.857
 1710TIP3   OH2 5135   5.483   1.337   3.375
 1710TIP3    H1 5136   5.412   1.347   3.441
 1710TIP3    H2 5137   5.526   1.425   3.379
 1711TIP3   OH2 5138   5.300   0.851   1.989
 1711TIP3    H1 5139   5.368   0.915   1.960
 1711TIP3    H2 5140   5.345   0.813   2.068
 1712TIP3   OH2 5141   5.427   0.721   2.193
 1712TIP3    H1 5142   5.364   0.681   2.256
 1712TIP3    H2 5143   5.499   0.754   2.252
 1713TIP3   OH2 5144   5.482   1.111   2.625
 1713TIP3    H1 5145   5.538   1.043   2.582
 1713TIP3    H2 5146   5.482   1.183   2.559
 1714TIP3   OH2 5147   5.309   1.409   2.822
 1714TIP3    H1 5148   5.238   1.452   2.873
 1714TIP3    H2 5149   5.260   1.364   2.750
 1715TIP3   OH2 5150   5.362   0.622   1.846
 1715TIP3    H1 5151   5.289   0.631   1.780
 1715TIP3    H2 5152   5.343   0.699   1.902
 1716TIP3   OH2 5153   5.240   0.292   1.798
 1716TIP3    H1 5154   5.190   0.359   1.750
 1716TIP3    H2 5155   5.199   0.209   1.772
 1717TIP3   OH2 5156   5.236   0.584   2.340
 1717TIP3    H1 5157   5.245   0.487   2.331
 1717TIP3    H2 5158   5.225   0.596   2.437
 1718TIP3   OH2 5159   3.866   0.647   3.091
 1718TIP3    H1 5160   3.860   0.613   2.999
 1718TIP3    H2 5161   3.963   0.649   3.104
 1719TIP3   OH2 5162   5.526   1.006   3.197
 1719TIP3    H1 5163   5.598   0.940   3.188
 1719TIP3    H2 5164   5.553   1.075   3.134
 1720TIP3   OH2 5165   5.710   0.810   3.210
 1720TIP3    H1 5166   5.639   0.759   3.254
 1720TIP3    H2 5167   5.786   0.749   3.227
 1721TIP3   OH2 5168   5.239   0.310   2.238
 1721TIP3    H1 5169   5.249   0.214   2.224
 1721TIP3    H2 5170   5.302   0.344   2.171
 1722TIP3   OH2 5171   5.387   0.483   2.730
 1722TIP3    H1 5172   5.470   0.505   2.681
 1722TIP3    H2 5173   5.421   0.496   2.820
 1723TIP3   OH2 5174   5.466   0.616   2.969
 1723TIP3    H1 5175   5.390   0.658   3.012
 1723TIP3    H2 5176   5.504   0.690   2.918
 1724TIP3   OH2 5177   4.047   0.327   3.745
 1724TIP3    H1 5178   4.144   0.336   3.735
 1724TIP3    H2 5179   4.043   0.296   3.837
 1725TIP3   OH2 5180   4.033   0.031   3.076
 1725TIP3    H1 5181   4.117  -0.020   3.072
 1725TIP3    H2 5182   4.068   0.119   3.099
 1726TIP3   OH2 5183   3.846   0.296   3.162
 1726TIP3    H1 5184   3.896   0.315   3.080
 1726TIP3    H2 5185   3.862   0.375   3.215
 1727TIP3   OH2 5186   4.988   1.507   2.173
 1727TIP3    H1 5187   5.044   1.499   2.093
 1727TIP3    H2 5188   5.036   1.574   2.225
 1728TIP3   OH2 5189   4.091   1.310   3.555
 1728TIP3    H1 5190   3.996   1.291   3.543
 1728TIP3    H2 5191   4.102   1.297   3.650
 1729TIP3   OH2 5192   4.275   1.347   3.105
 1729TIP3    H1 5193   4.225   1.423   3.069
 1729TIP3    H2 5194   4.360   1.363   3.059
 1730TIP3   OH2 5195   4.710   1.587   3.240
 1730TIP3    H1 5196   4.750   1.586   3.330
 1730TIP3    H2 5197   4.775   1.640   3.191
 1731TIP3   OH2 5198   4.891   1.743   3.107
 1731TIP3    H1 5199   4.963   1.694   3.065
 1731TIP3    H2 5200   4.942   1.802   3.167
 1732TIP3   OH2 5201   3.946   1.601   3.135
 1732TIP3    H1 5202   3.855   1.631   3.113
 1732TIP3    H2 5203   3.964   1.656   3.212
 1733TIP3   OH2 5204   4.181   1.579   2.990
 1733TIP3    H1 5205   4.094   1.591   3.035
 1733TIP3    H2 5206   4.161   1.614   2.901
 1734TIP3   OH2 5207   4.608   1.605   2.788
 1734TIP3    H1 5208   4.537   1.625   2.723
 1734TIP3    H2 5209   4.620   1.693   2.830
 1735TIP3   OH2 5210   4.877   1.543   2.839
 1735TIP3    H1 5211   4.783   1.563   2.821
 1735TIP3    H2 5212   4.921   1.618   2.795
 1736TIP3   OH2 5213   5.078   1.734   2.750
 1736TIP3    H1 5214   5.067   1.820   2.704
 1736TIP3    H2 5215   5.107   1.676   2.676
 1737TIP3   OH2 5216   3.857   1.393   2.871
 1737TIP3    H1 5217   3.883   1.364   2.962
 1737TIP3    H2 5218   3.932   1.353   2.821
 1738TIP3   OH2 5219   4.055   1.268   2.733
 1738TIP3    H1 5220   4.068   1.184   2.784
 1738TIP3    H2 5221   4.146   1.305   2.735
 1739TIP3   OH2 5222   4.320   1.357   2.743
 1739TIP3    H1 5223   4.351   1.265   2.737
 1739TIP3    H2 5224   4.369   1.385   2.823
 1740TIP3   OH2 5225   3.646   1.171   2.261
 1740TIP3    H1 5226   3.557   1.142   2.229
 1740TIP3    H2 5227   3.640   1.265   2.235
 1741TIP3   OH2 5228   4.420   1.347   1.853
 1741TIP3    H1 5229   4.506   1.373   1.815
 1741TIP3    H2 5230   4.398   1.273   1.791
 1742TIP3   OH2 5231   5.139   1.476   1.943
 1742TIP3    H1 5232   5.129   1.379   1.930
 1742TIP3    H2 5233   5.093   1.509   1.863
 1743TIP3   OH2 5234   3.717   1.186   1.901
 1743TIP3    H1 5235   3.719   1.218   1.993
 1743TIP3    H2 5236   3.806   1.144   1.891
 1744TIP3   OH2 5237   5.359   1.616   3.129
 1744TIP3    H1 5238   5.280   1.586   3.078
 1744TIP3    H2 5239   5.341   1.712   3.135
 1745TIP3   OH2 5240   5.931   0.897   2.635
 1745TIP3    H1 5241   5.962   0.817   2.682
 1745TIP3    H2 5242   6.000   0.959   2.660
 1746TIP3   OH2 5243   5.867   1.297   2.356
 1746TIP3    H1 5244   5.853   1.203   2.371
 1746TIP3    H2 5245   5.963   1.302   2.366
 1747TIP3   OH2 5246   5.606   0.507   2.142
 1747TIP3    H1 5247   5.555   0.588   2.159
 1747TIP3    H2 5248   5.536   0.448   2.109
 1748TIP3   OH2 5249   5.661   0.783   2.328
 1748TIP3    H1 5250   5.710   0.701   2.354
 1748TIP3    H2 5251   5.735   0.840   2.301
 1749TIP3   OH2 5252   5.828   0.584   2.425
 1749TIP3    H1 5253   5.918   0.601   2.454
 1749TIP3    H2 5254   5.843   0.520   2.352
 1750TIP3   OH2 5255   6.045   1.297   2.629
 1750TIP3    H1 5256   6.037   1.393   2.609
 1750TIP3    H2 5257   5.992   1.294   2.711
 1751TIP3   OH2 5258   5.501   1.021   1.884
 1751TIP3    H1 5259   5.463   1.049   1.799
 1751TIP3    H2 5260   5.532   1.106   1.921
 1752TIP3   OH2 5261   6.050   0.993   2.934
 1752TIP3    H1 5262   6.060   1.089   2.953
 1752TIP3    H2 5263   5.954   0.984   2.940
 1753TIP3   OH2 5264   6.054   1.660   2.881
 1753TIP3    H1 5265   6.027   1.628   2.794
 1753TIP3    H2 5266   5.985   1.622   2.941
 1754TIP3   OH2 5267   5.680   1.151   2.825
 1754TIP3    H1 5268   5.615   1.130   2.755
 1754TIP3    H2 5269   5.715   1.062   2.849
 1755TIP3   OH2 5270   5.544   1.341   2.457
 1755TIP3    H1 5271   5.640   1.339   2.443
 1755TIP3    H2 5272   5.535   1.418   2.516
 1756TIP3   OH2 5273   5.695   1.554   1.996
 1756TIP3    H1 5274   5.750   1.554   2.077
 1756TIP3    H2 5275   5.639   1.477   2.011
 1757TIP3   OH2 5276   5.873   1.347   2.834
 1757TIP3    H1 5277   5.927   1.326   2.913
 1757TIP3    H2 5278   5.803   1.278   2.837
 1758TIP3   OH2 5279   6.027   0.709   2.836
 1758TIP3    H1 5280   6.023   0.785   2.895
 1758TIP3    H2 5281   6.006   0.633   2.893
 1759TIP3   OH2 5282   5.675   0.234   2.372
 1759TIP3    H1 5283   5.712   0.271   2.454
 1759TIP3    H2 5284   5.694   0.141   2.385
 1760TIP3   OH2 5285   5.622   0.216   1.953
 1760TIP3    H1 5286   5.660   0.249   1.870
 1760TIP3    H2 5287   5.556   0.285   1.971
 1761TIP3   OH2 5288   5.851   0.406   2.209
 1761TIP3    H1 5289   5.776   0.453   2.167
 1761TIP3    H2 5290   5.804   0.332   2.248
 1762TIP3   OH2 5291   6.049   1.254   3.042
 1762TIP3    H1 5292   6.132   1.273   3.088
 1762TIP3    H2 5293   5.984   1.259   3.115
 1763TIP3   OH2 5294   5.889   0.948   2.346
 1763TIP3    H1 5295   5.964   1.004   2.320
 1763TIP3    H2 5296   5.921   0.916   2.432
 1764TIP3   OH2 5297   5.784   0.937   2.972
 1764TIP3    H1 5298   5.791   0.915   3.067
 1764TIP3    H2 5299   5.718   0.872   2.942
 1765TIP3   OH2 5300   5.960   1.318   1.965
 1765TIP3    H1 5301   5.942   1.404   1.924
 1765TIP3    H2 5302   5.875   1.297   2.005
 1766TIP3   OH2 5303   5.576   0.627   1.669
 1766TIP3    H1 5304   5.631   0.704   1.696
 1766TIP3    H2 5305   5.509   0.626   1.741
 1767TIP3   OH2 5306   5.901   1.566   1.822
 1767TIP3    H1 5307   5.814   1.562   1.867
 1767TIP3    H2 5308   5.904   1.660   1.799
 1768TIP3   OH2 5309   5.995   0.479   3.000
 1768TIP3    H1 5310   5.902   0.462   2.978
 1768TIP3    H2 5311   6.032   0.390   2.997
 1769TIP3   OH2 5312   5.720   1.531   2.601
 1769TIP3    H1 5313   5.781   1.465   2.637
 1769TIP3    H2 5314   5.747   1.610   2.650
 1770TIP3   OH2 5315   5.702   0.863   1.753
 1770TIP3    H1 5316   5.645   0.903   1.822
 1770TIP3    H2 5317   5.712   0.939   1.692
 1771TIP3   OH2 5318   5.702   1.078   1.568
 1771TIP3    H1 5319   5.722   1.173   1.566
 1771TIP3    H2 5320   5.773   1.043   1.512
 1772TIP3   OH2 5321   5.646   0.359   1.704
 1772TIP3    H1 5322   5.636   0.455   1.689
 1772TIP3    H2 5323   5.571   0.323   1.658
 1773TIP3   OH2 5324   5.558   1.290   1.954
 1773TIP3    H1 5325   5.495   1.318   2.022
 1773TIP3    H2 5326   5.525   1.338   1.875
 1774TIP3   OH2 5327   5.720   1.841   3.023
 1774TIP3    H1 5328   5.804   1.846   3.075
 1774TIP3    H2 5329   5.703   1.746   3.024
 1775TIP3   OH2 5330   6.182   1.798   3.099
 1775TIP3    H1 5331   6.276   1.821   3.094
 1775TIP3    H2 5332   6.160   1.774   3.007
 1776TIP3   OH2 5333   5.847   1.244   3.228
 1776TIP3    H1 5334   5.867   1.149   3.231
 1776TIP3    H2 5335   5.761   1.245   3.181
 1777TIP3   OH2 5336   5.961   0.989   3.220
 1777TIP3    H1 5337   6.019   0.916   3.194
 1777TIP3    H2 5338   5.997   1.014   3.308
 1778TIP3   OH2 5339   5.430   1.050   1.607
 1778TIP3    H1 5340   5.526   1.060   1.593
 1778TIP3    H2 5341   5.415   0.960   1.569
 1779TIP3   OH2 5342   5.343   1.643   2.023
 1779TIP3    H1 5343   5.276   1.583   1.983
 1779TIP3    H2 5344   5.387   1.582   2.086
 1780TIP3   OH2 5345   5.479   1.484   2.205
 1780TIP3    H1 5346   5.465   1.419   2.277
 1780TIP3    H2 5347   5.529   1.552   2.255
 1781TIP3   OH2 5348   5.659   0.906   2.579
 1781TIP3    H1 5349   5.653   0.863   2.491
 1781TIP3    H2 5350   5.756   0.910   2.591
 1782TIP3   OH2 5351   5.886   0.607   3.249
 1782TIP3    H1 5352   5.949   0.567   3.187
 1782TIP3    H2 5353   5.894   0.544   3.323
 1783TIP3   OH2 5354   5.846   0.278   2.592
 1783TIP3    H1 5355   5.863   0.204   2.654
 1783TIP3    H2 5356   5.933   0.319   2.588
 1784TIP3   OH2 5357   5.629   0.573   2.631
 1784TIP3    H1 5358   5.689   0.553   2.557
 1784TIP3    H2 5359   5.682   0.635   2.682
 1785TIP3   OH2 5360   5.880   1.563   3.071
 1785TIP3    H1 5361   5.789   1.540   3.044
 1785TIP3    H2 5362   5.878   1.544   3.166
 1786TIP3   OH2 5363   6.027   1.572   2.598
 1786TIP3    H1 5364   5.989   1.651   2.554
 1786TIP3    H2 5365   6.121   1.589   2.576
 1787TIP3   OH2 5366   5.740   1.851   2.621
 1787TIP3    H1 5367   5.651   1.885   2.598
 1787TIP3    H2 5368   5.760   1.906   2.698
 1788TIP3   OH2 5369   5.976   1.818   2.485
 1788TIP3    H1 5370   5.888   1.837   2.523
 1788TIP3    H2 5371   5.964   1.853   2.394
 1789TIP3   OH2 5372   5.650   1.650   2.358
 1789TIP3    H1 5373   5.674   1.620   2.448
 1789TIP3    H2 5374   5.729   1.617   2.309
 1790TIP3   OH2 5375   5.854   1.531   2.219
 1790TIP3    H1 5376   5.854   1.444   2.264
 1790TIP3    H2 5377   5.947   1.555   2.229
 1791TIP3   OH2 5378   5.440   1.428   1.749
 1791TIP3    H1 5379   5.354   1.397   1.715
 1791TIP3    H2 5380   5.434   1.522   1.724
 1792TIP3   OH2 5381   5.501   1.446   1.395
 1792TIP3    H1 5382   5.508   1.475   1.487
 1792TIP3    H2 5383   5.586   1.398   1.382
 1793TIP3   OH2 5384   0.879   2.037   3.064
 1793TIP3    H1 5385   0.848   2.127   3.042
 1793TIP3    H2 5386   0.803   1.985   3.035
 1794TIP3   OH2 5387   0.179   1.930   3.808
 1794TIP3    H1 5388   0.213   1.893   3.890
 1794TIP3    H2 5389   0.255   1.979   3.774
 1795TIP3   OH2 5390   1.122   2.336   3.141
 1795TIP3    H1 5391   1.114   2.267   3.209
 1795TIP3    H2 5392   1.156   2.410   3.194
 1796TIP3   OH2 5393   0.145   2.342   3.549
 1796TIP3    H1 5394   0.139   2.244   3.543
 1796TIP3    H2 5395   0.242   2.353   3.538
 1797TIP3   OH2 5396  -0.152   1.545   3.324
 1797TIP3    H1 5397  -0.181   1.635   3.348
 1797TIP3    H2 5398  -0.220   1.495   3.370
 1798TIP3   OH2 5399  -0.074   1.833   3.505
 1798TIP3    H1 5400  -0.027   1.754   3.539
 1798TIP3    H2 5401  -0.020   1.861   3.431
 1799TIP3   OH2 5402   0.776   2.799   3.153
 1799TIP3    H1 5403   0.816   2.728   3.099
 1799TIP3    H2 5404   0.764   2.754   3.237
 1800TIP3   OH2 5405   0.654   2.252   3.505
 1800TIP3    H1 5406   0.677   2.199   3.428
 1800TIP3    H2 5407   0.739   2.245   3.553
 1801TIP3   OH2 5408   1.694   1.579   3.500
 1801TIP3    H1 5409   1.721   1.663   3.543
 1801TIP3    H2 5410   1.711   1.599   3.407
 1802TIP3   OH2 5411   1.113   1.761   3.523
 1802TIP3    H1 5412   1.145   1.672   3.545
 1802TIP3    H2 5413   1.058   1.744   3.445
 1803TIP3   OH2 5414   0.427   1.424   3.498
 1803TIP3    H1 5415   0.412   1.498   3.436
 1803TIP3    H2 5416   0.381   1.352   3.450
 1804TIP3   OH2 5417   1.124   1.514   3.117
 1804TIP3    H1 5418   1.195   1.502   3.184
 1804TIP3    H2 5419   1.175   1.550   3.043
 1805TIP3   OH2 5420   0.059   1.616   3.608
 1805TIP3    H1 5421   0.143   1.597   3.654
 1805TIP3    H2 5422   0.072   1.562   3.527
 1806TIP3   OH2 5423   0.500   1.818   3.401
 1806TIP3    H1 5424   0.594   1.790   3.411
 1806TIP3    H2 5425   0.459   1.736   3.367
 1807TIP3   OH2 5426   1.765   1.789   3.671
 1807TIP3    H1 5427   1.680   1.836   3.653
 1807TIP3    H2 5428   1.792   1.831   3.754
 1808TIP3   OH2 5429   0.424   1.403   3.929
 1808TIP3    H1 5430   0.364   1.439   3.861
 1808TIP3    H2 5431   0.370   1.415   4.009
 1809TIP3   OH2 5432   0.759   2.253   2.938
 1809TIP3    H1 5433   0.726   2.242   2.848
 1809TIP3    H2 5434   0.716   2.337   2.964
 1810TIP3   OH2 5435   0.512   2.161   3.745
 1810TIP3    H1 5436   0.462   2.242   3.770
 1810TIP3    H2 5437   0.584   2.199   3.691
 1811TIP3   OH2 5438   1.324   1.520   3.302
 1811TIP3    H1 5439   1.300   1.485   3.389
 1811TIP3    H2 5440   1.376   1.599   3.325
 1812TIP3   OH2 5441   0.295   1.520   3.717
 1812TIP3    H1 5442   0.358   1.593   3.738
 1812TIP3    H2 5443   0.343   1.479   3.641
 1813TIP3   OH2 5444   0.367   2.381   3.826
 1813TIP3    H1 5445   0.351   2.472   3.794
 1813TIP3    H2 5446   0.285   2.367   3.880
 1814TIP3   OH2 5447  -0.251   2.058   3.037
 1814TIP3    H1 5448  -0.346   2.068   3.040
 1814TIP3    H2 5449  -0.222   2.143   3.078
 1815TIP3   OH2 5450   1.188   2.584   3.294
 1815TIP3    H1 5451   1.101   2.574   3.338
 1815TIP3    H2 5452   1.178   2.671   3.251
 1816TIP3   OH2 5453   1.486   1.474   3.663
 1816TIP3    H1 5454   1.399   1.504   3.632
 1816TIP3    H2 5455   1.546   1.509   3.594
 1817TIP3   OH2 5456   0.778   1.116   3.647
 1817TIP3    H1 5457   0.759   1.022   3.666
 1817TIP3    H2 5458   0.702   1.159   3.693
 1818TIP3   OH2 5459   0.885   2.628   2.965
 1818TIP3    H1 5460   0.937   2.545   2.950
 1818TIP3    H2 5461   0.948   2.693   2.927
 1819TIP3   OH2 5462   1.031   2.411   2.891
 1819TIP3    H1 5463   1.004   2.328   2.849
 1819TIP3    H2 5464   1.070   2.378   2.975
 1820TIP3   OH2 5465   1.410   2.497   3.642
 1820TIP3    H1 5466   1.401   2.415   3.589
 1820TIP3    H2 5467   1.400   2.565   3.573
 1821TIP3   OH2 5468   0.706   1.887   2.904
 1821TIP3    H1 5469   0.628   1.940   2.880
 1821TIP3    H2 5470   0.755   1.883   2.819
 1822TIP3   OH2 5471   0.666   1.676   2.615
 1822TIP3    H1 5472   0.735   1.726   2.662
 1822TIP3    H2 5473   0.721   1.611   2.566
 1823TIP3   OH2 5474   1.609   2.129   3.490
 1823TIP3    H1 5475   1.527   2.183   3.495
 1823TIP3    H2 5476   1.641   2.155   3.401
 1824TIP3   OH2 5477   1.057   1.971   2.869
 1824TIP3    H1 5478   1.004   1.995   2.948
 1824TIP3    H2 5479   1.141   1.945   2.913
 1825TIP3   OH2 5480   1.285   2.002   3.783
 1825TIP3    H1 5481   1.278   2.087   3.830
 1825TIP3    H2 5482   1.208   2.008   3.724
 1826TIP3   OH2 5483   0.290   1.964   3.291
 1826TIP3    H1 5484   0.251   1.905   3.223
 1826TIP3    H2 5485   0.367   1.911   3.322
 1827TIP3   OH2 5486   0.410   2.386   3.436
 1827TIP3    H1 5487   0.402   2.346   3.348
 1827TIP3    H2 5488   0.496   2.348   3.467
 1828TIP3   OH2 5489   0.417   1.930   3.643
 1828TIP3    H1 5490   0.456   1.910   3.555
 1828TIP3    H2 5491   0.462   2.015   3.666
 1829TIP3   OH2 5492   0.955   2.580   3.433
 1829TIP3    H1 5493   0.943   2.659   3.489
 1829TIP3    H2 5494   0.929   2.508   3.491
 1830TIP3   OH2 5495   0.567   2.491   3.979
 1830TIP3    H1 5496   0.506   2.555   4.021
 1830TIP3    H2 5497   0.504   2.439   3.925
 1831TIP3   OH2 5498   0.891   1.831   2.702
 1831TIP3    H1 5499   0.953   1.889   2.751
 1831TIP3    H2 5500   0.918   1.851   2.609
 1832TIP3   OH2 5501   0.640   2.504   2.972
 1832TIP3    H1 5502   0.724   2.553   2.980
 1832TIP3    H2 5503   0.582   2.569   2.931
 1833TIP3   OH2 5504   0.365   2.657   4.062
 1833TIP3    H1 5505   0.333   2.663   3.969
 1833TIP3    H2 5506   0.290   2.613   4.108
 1834TIP3   OH2 5507   1.413   1.064   2.751
 1834TIP3    H1 5508   1.331   1.087   2.799
 1834TIP3    H2 5509   1.427   1.146   2.698
 1835TIP3   OH2 5510   0.160   1.809   3.091
 1835TIP3    H1 5511   0.091   1.854   3.038
 1835TIP3    H2 5512   0.118   1.724   3.109
 1836TIP3   OH2 5513   1.213   2.434   2.300
 1836TIP3    H1 5514   1.222   2.530   2.283
 1836TIP3    H2 5515   1.306   2.404   2.285
 1837TIP3   OH2 5516  -0.012   2.150   3.944
 1837TIP3    H1 5517  -0.047   2.092   3.876
 1837TIP3    H2 5518   0.014   2.086   4.011
 1838TIP3   OH2 5519  -0.154   2.383   3.655
 1838TIP3    H1 5520  -0.060   2.376   3.635
 1838TIP3    H2 5521  -0.154   2.432   3.739
 1839TIP3   OH2 5522   1.629   2.851   3.701
 1839TIP3    H1 5523   1.686   2.778   3.668
 1839TIP3    H2 5524   1.598   2.809   3.782
 1840TIP3   OH2 5525   0.730   2.630   3.804
 1840TIP3    H1 5526   0.736   2.718   3.846
 1840TIP3    H2 5527   0.677   2.582   3.871
 1841TIP3   OH2 5528   0.523   2.747   2.779
 1841TIP3    H1 5529   0.477   2.730   2.695
 1841TIP3    H2 5530   0.490   2.836   2.804
 1842TIP3   OH2 5531  -0.023   2.580   3.156
 1842TIP3    H1 5532   0.026   2.571   3.241
 1842TIP3    H2 5533  -0.114   2.562   3.186
 1843TIP3   OH2 5534   0.722   2.654   2.416
 1843TIP3    H1 5535   0.779   2.582   2.380
 1843TIP3    H2 5536   0.759   2.664   2.506
 1844TIP3   OH2 5537   0.775   2.704   2.685
 1844TIP3    H1 5538   0.687   2.711   2.728
 1844TIP3    H2 5539   0.828   2.665   2.756
 1845TIP3   OH2 5540   1.540   1.965   3.971
 1845TIP3    H1 5541   1.457   1.979   3.921
 1845TIP3    H2 5542   1.555   1.869   3.959
 1846TIP3   OH2 5543   0.145   2.376   3.982
 1846TIP3    H1 5544   0.182   2.361   4.071
 1846TIP3    H2 5545   0.079   2.304   3.975
 1847TIP3   OH2 5546   0.548   1.199   3.780
 1847TIP3    H1 5547   0.458   1.167   3.757
 1847TIP3    H2 5548   0.523   1.283   3.824
 1848TIP3   OH2 5549   1.081   1.312   3.972
 1848TIP3    H1 5550   1.151   1.290   4.037
 1848TIP3    H2 5551   0.999   1.294   4.022
 1849TIP3   OH2 5552   1.306   1.739   3.885
 1849TIP3    H1 5553   1.263   1.743   3.974
 1849TIP3    H2 5554   1.283   1.826   3.847
 1850TIP3   OH2 5555   0.973   1.872   2.449
 1850TIP3    H1 5556   0.937   1.848   2.361
 1850TIP3    H2 5557   1.059   1.911   2.423
 1851TIP3   OH2 5558   0.684   1.257   2.746
 1851TIP3    H1 5559   0.652   1.252   2.838
 1851TIP3    H2 5560   0.658   1.169   2.714
 1852TIP3   OH2 5561   0.462   1.721   3.805
 1852TIP3    H1 5562   0.420   1.758   3.883
 1852TIP3    H2 5563   0.450   1.794   3.739
 1853TIP3   OH2 5564   0.355   1.604   3.310
 1853TIP3    H1 5565   0.262   1.576   3.327
 1853TIP3    H2 5566   0.369   1.563   3.222
 1854TIP3   OH2 5567   0.842   1.685   3.037
 1854TIP3    H1 5568   0.793   1.757   2.992
 1854TIP3    H2 5569   0.900   1.653   2.965
 1855TIP3   OH2 5570   1.018   1.977   4.136
 1855TIP3    H1 5571   0.998   1.893   4.183
 1855TIP3    H2 5572   1.113   1.984   4.150
 1856TIP3   OH2 5573   0.990   1.711   3.277
 1856TIP3    H1 5574   0.935   1.741   3.203
 1856TIP3    H2 5575   1.031   1.633   3.234
 1857TIP3   OH2 5576   0.324   1.789   4.063
 1857TIP3    H1 5577   0.234   1.819   4.088
 1857TIP3    H2 5578   0.315   1.692   4.078
 1858TIP3   OH2 5579   0.352   1.218   2.720
 1858TIP3    H1 5580   0.342   1.221   2.818
 1858TIP3    H2 5581   0.267   1.252   2.691
 1859TIP3   OH2 5582  -0.142   1.277   3.584
 1859TIP3    H1 5583  -0.070   1.303   3.645
 1859TIP3    H2 5584  -0.094   1.219   3.524
 1860TIP3   OH2 5585  -0.132   1.274   3.112
 1860TIP3    H1 5586  -0.090   1.294   3.027
 1860TIP3    H2 5587  -0.166   1.361   3.137
 1861TIP3   OH2 5588   0.687   1.411   3.366
 1861TIP3    H1 5589   0.608   1.414   3.423
 1861TIP3    H2 5590   0.755   1.445   3.426
 1862TIP3   OH2 5591   0.116   1.483   3.371
 1862TIP3    H1 5592   0.023   1.485   3.339
 1862TIP3    H2 5593   0.146   1.393   3.348
 1863TIP3   OH2 5594   0.383   1.478   3.072
 1863TIP3    H1 5595   0.478   1.492   3.053
 1863TIP3    H2 5596   0.340   1.498   2.986
 1864TIP3   OH2 5597   1.174   1.493   3.573
 1864TIP3    H1 5598   1.141   1.511   3.664
 1864TIP3    H2 5599   1.102   1.436   3.540
 1865TIP3   OH2 5600   0.233   1.507   2.845
 1865TIP3    H1 5601   0.146   1.496   2.807
 1865TIP3    H2 5602   0.285   1.545   2.770
 1866TIP3   OH2 5603   0.306   2.287   4.223
 1866TIP3    H1 5604   0.387   2.321   4.264
 1866TIP3    H2 5605   0.238   2.328   4.278
 1867TIP3   OH2 5606   0.756   1.725   3.451
 1867TIP3    H1 5607   0.835   1.728   3.395
 1867TIP3    H2 5608   0.794   1.731   3.540
 1868TIP3   OH2 5609   0.286   1.252   3.336
 1868TIP3    H1 5610   0.277   1.170   3.391
 1868TIP3    H2 5611   0.327   1.216   3.256
 1869TIP3   OH2 5612   0.730   1.627   3.773
 1869TIP3    H1 5613   0.646   1.675   3.766
 1869TIP3    H2 5614   0.790   1.691   3.816
 1870TIP3   OH2 5615   0.474   2.040   2.846
 1870TIP3    H1 5616   0.402   1.974   2.835
 1870TIP3    H2 5617   0.456   2.072   2.938
 1871TIP3   OH2 5618   1.381   2.280   3.477
 1871TIP3    H1 5619   1.405   2.329   3.396
 1871TIP3    H2 5620   1.296   2.237   3.450
 1872TIP3   OH2 5621   0.939   1.349   2.729
 1872TIP3    H1 5622   0.841   1.333   2.731
 1872TIP3    H2 5623   0.947   1.445   2.747
 1873TIP3   OH2 5624   0.907   2.401   3.897
 1873TIP3    H1 5625   0.920   2.320   3.852
 1873TIP3    H2 5626   0.837   2.444   3.842
 1874TIP3   OH2 5627   1.003   1.602   2.821
 1874TIP3    H1 5628   1.100   1.608   2.835
 1874TIP3    H2 5629   0.985   1.682   2.768
 1875TIP3   OH2 5630   0.175   2.069   3.519
 1875TIP3    H1 5631   0.213   2.041   3.433
 1875TIP3    H2 5632   0.212   2.002   3.578
 1876TIP3   OH2 5633   0.625   2.189   2.675
 1876TIP3    H1 5634   0.575   2.274   2.680
 1876TIP3    H2 5635   0.571   2.133   2.735
 1877TIP3   OH2 5636   0.086   1.930   4.140
 1877TIP3    H1 5637   0.102   1.966   4.229
 1877TIP3    H2 5638  -0.010   1.913   4.141
 1878TIP3   OH2 5639   1.034   2.664   3.728
 1878TIP3    H1 5640   0.953   2.617   3.751
 1878TIP3    H2 5641   1.064   2.689   3.818
 1879TIP3   OH2 5642   1.442   1.694   2.652
 1879TIP3    H1 5643   1.380   1.649   2.589
 1879TIP3    H2 5644   1.438   1.783   2.612
 1880TIP3   OH2 5645   1.662   2.555   3.731
 1880TIP3    H1 5646   1.565   2.548   3.723
 1880TIP3    H2 5647   1.689   2.521   3.643
 1881TIP3   OH2 5648   1.145   2.510   2.563
 1881TIP3    H1 5649   1.122   2.438   2.623
 1881TIP3    H2 5650   1.161   2.463   2.479
 1882TIP3   OH2 5651   1.152   2.150   3.394
 1882TIP3    H1 5652   1.081   2.143   3.461
 1882TIP3    H2 5653   1.158   2.059   3.360
 1883TIP3   OH2 5654   0.279   2.367   3.151
 1883TIP3    H1 5655   0.283   2.448   3.096
 1883TIP3    H2 5656   0.185   2.357   3.165
 1884TIP3   OH2 5657  -0.169   1.676   2.884
 1884TIP3    H1 5658  -0.111   1.756   2.885
 1884TIP3    H2 5659  -0.250   1.713   2.920
 1885TIP3   OH2 5660   0.400   2.127   3.092
 1885TIP3    H1 5661   0.371   2.218   3.112
 1885TIP3    H2 5662   0.367   2.078   3.169
 1886TIP3   OH2 5663   0.544   2.712   3.612
 1886TIP3    H1 5664   0.592   2.781   3.562
 1886TIP3    H2 5665   0.617   2.674   3.666
 1887TIP3   OH2 5666   0.205   2.605   2.998
 1887TIP3    H1 5667   0.121   2.607   3.046
 1887TIP3    H2 5668   0.233   2.700   3.004
 1888TIP3   OH2 5669   0.908   2.242   2.466
 1888TIP3    H1 5670   0.963   2.217   2.544
 1888TIP3    H2 5671   0.821   2.208   2.495
 1889TIP3   OH2 5672   1.161   2.901   3.654
 1889TIP3    H1 5673   1.104   2.822   3.658
 1889TIP3    H2 5674   1.141   2.937   3.565
 1890TIP3   OH2 5675   1.243   2.712   2.279
 1890TIP3    H1 5676   1.284   2.789   2.237
 1890TIP3    H2 5677   1.161   2.754   2.314
 1891TIP3   OH2 5678   0.280   1.492   4.153
 1891TIP3    H1 5679   0.186   1.484   4.175
 1891TIP3    H2 5680   0.321   1.434   4.221
 1892TIP3   OH2 5681   1.068   2.173   2.679
 1892TIP3    H1 5682   1.058   2.104   2.748
 1892TIP3    H2 5683   1.166   2.169   2.666
 1893TIP3   OH2 5684   0.047   2.598   3.753
 1893TIP3    H1 5685   0.095   2.516   3.770
 1893TIP3    H2 5686   0.021   2.623   3.842
 1894TIP3   OH2 5687   0.266   2.217   2.465
 1894TIP3    H1 5688   0.280   2.124   2.438
 1894TIP3    H2 5689   0.245   2.206   2.560
 1895TIP3   OH2 5690   0.212   2.222   2.739
 1895TIP3    H1 5691   0.291   2.195   2.787
 1895TIP3    H2 5692   0.217   2.321   2.745
 1896TIP3   OH2 5693  -0.043   1.915   2.934
 1896TIP3    H1 5694  -0.114   1.963   2.983
 1896TIP3    H2 5695  -0.025   1.981   2.865
 1897TIP3   OH2 5696   1.096   1.556   3.832
 1897TIP3    H1 5697   1.178   1.599   3.862
 1897TIP3    H2 5698   1.093   1.474   3.887
 1898TIP3   OH2 5699   0.983   1.298   3.004
 1898TIP3    H1 5700   0.969   1.320   2.910
 1898TIP3    H2 5701   1.025   1.380   3.038
 1899TIP3   OH2 5702   0.480   2.417   2.682
 1899TIP3    H1 5703   0.392   2.443   2.717
 1899TIP3    H2 5704   0.498   2.492   2.623
 1900TIP3   OH2 5705   0.662   1.486   3.100
 1900TIP3    H1 5706   0.727   1.557   3.082
 1900TIP3    H2 5707   0.673   1.475   3.197
 1901TIP3   OH2 5708   0.892   1.771   3.945
 1901TIP3    H1 5709   0.933   1.858   3.965
 1901TIP3    H2 5710   0.969   1.721   3.912
 1902TIP3   OH2 5711   0.811   1.199   3.201
 1902TIP3    H1 5712   0.795   1.277   3.258
 1902TIP3    H2 5713   0.875   1.235   3.136
 1903TIP3   OH2 5714   0.225   2.494   2.748
 1903TIP3    H1 5715   0.198   2.567   2.688
 1903TIP3    H2 5716   0.218   2.538   2.836
 1904TIP3   OH2 5717   0.338   1.215   2.995
 1904TIP3    H1 5718   0.334   1.306   3.031
 1904TIP3    H2 5719   0.435   1.199   3.001
 1905TIP3   OH2 5720   1.574   1.699   3.891
 1905TIP3    H1 5721   1.476   1.696   3.894
 1905TIP3    H2 5722   1.590   1.666   3.802
 1906TIP3   OH2 5723   1.227   1.886   3.270
 1906TIP3    H1 5724   1.149   1.834   3.296
 1906TIP3    H2 5725   1.297   1.845   3.325
 1907TIP3   OH2 5726  -0.051   2.126   2.747
 1907TIP3    H1 5727   0.029   2.183   2.756
 1907TIP3    H2 5728  -0.016   2.065   2.679
 1908TIP3   OH2 5729  -0.128   1.411   2.858
 1908TIP3    H1 5730  -0.116   1.508   2.855
 1908TIP3    H2 5731  -0.222   1.408   2.879
 1909TIP3   OH2 5732   1.199   2.857   3.219
 1909TIP3    H1 5733   1.157   2.906   3.145
 1909TIP3    H2 5734   1.294   2.879   3.202
 1910TIP3   OH2 5735   0.287   1.115   3.752
 1910TIP3    H1 5736   0.280   1.087   3.658
 1910TIP3    H2 5737   0.250   1.039   3.799
 1911TIP3   OH2 5738  -0.203   2.317   3.119
 1911TIP3    H1 5739  -0.244   2.390   3.170
 1911TIP3    H2 5740  -0.141   2.365   3.063
 1912TIP3   OH2 5741   0.050   2.804   4.182
 1912TIP3    H1 5742   0.098   2.854   4.252
 1912TIP3    H2 5743  -0.040   2.836   4.188
 1913TIP3   OH2 5744   0.445   2.844   4.247
 1913TIP3    H1 5745   0.539   2.823   4.254
 1913TIP3    H2 5746   0.418   2.781   4.177
 1914TIP3   OH2 5747   0.431   2.417   2.372
 1914TIP3    H1 5748   0.377   2.345   2.412
 1914TIP3    H2 5749   0.507   2.366   2.339
 1915TIP3   OH2 5750   1.089   2.754   3.981
 1915TIP3    H1 5751   1.078   2.678   4.043
 1915TIP3    H2 5752   1.168   2.798   4.017
 1916TIP3   OH2 5753   0.865   2.455   2.289
 1916TIP3    H1 5754   0.904   2.390   2.351
 1916TIP3    H2 5755   0.926   2.451   2.212
 1917TIP3   OH2 5756   0.081   2.272   4.405
 1917TIP3    H1 5757   0.120   2.184   4.390
 1917TIP3    H2 5758   0.007   2.271   4.342
 1918TIP3   OH2 5759   0.090   1.939   2.609
 1918TIP3    H1 5760   0.151   1.908   2.679
 1918TIP3    H2 5761   0.152   1.941   2.533
 1919TIP3   OH2 5762   0.709   2.357   4.173
 1919TIP3    H1 5763   0.664   2.392   4.092
 1919TIP3    H2 5764   0.795   2.335   4.139
 1920TIP3   OH2 5765   0.593   2.137   2.407
 1920TIP3    H1 5766   0.596   2.151   2.504
 1920TIP3    H2 5767   0.599   2.039   2.404
 1921TIP3   OH2 5768   1.208   2.376   3.805
 1921TIP3    H1 5769   1.261   2.432   3.746
 1921TIP3    H2 5770   1.118   2.387   3.771
 1922TIP3   OH2 5771   0.200   2.010   4.394
 1922TIP3    H1 5772   0.248   1.926   4.398
 1922TIP3    H2 5773   0.232   2.054   4.475
 1923TIP3   OH2 5774   0.279   1.844   2.812
 1923TIP3    H1 5775   0.259   1.807   2.900
 1923TIP3    H2 5776   0.321   1.769   2.766
 1924TIP3   OH2 5777   0.389   1.637   2.662
 1924TIP3    H1 5778   0.364   1.647   2.567
 1924TIP3    H2 5779   0.487   1.640   2.654
 1925TIP3   OH2 5780   1.064   2.313   4.191
 1925TIP3    H1 5781   1.117   2.283   4.117
 1925TIP3    H2 5782   1.066   2.237   4.251
 1926TIP3   OH2 5783   1.205   1.965   2.327
 1926TIP3    H1 5784   1.186   1.920   2.242
 1926TIP3    H2 5785   1.172   2.055   2.305
 1927TIP3   OH2 5786   0.680   1.705   4.133
 1927TIP3    H1 5787   0.672   1.608   4.118
 1927TIP3    H2 5788   0.747   1.726   4.067
 1928TIP3   OH2 5789   0.681   1.465   3.990
 1928TIP3    H1 5790   0.711   1.510   3.908
 1928TIP3    H2 5791   0.588   1.444   3.966
 1929TIP3   OH2 5792   1.287   1.989   4.234
 1929TIP3    H1 5793   1.333   1.904   4.238
 1929TIP3    H2 5794   1.352   2.044   4.187
 1930TIP3   OH2 5795   1.340   2.228   3.981
 1930TIP3    H1 5796   1.282   2.285   3.924
 1930TIP3    H2 5797   1.427   2.250   3.940
 1931TIP3   OH2 5798   0.504   1.819   4.314
 1931TIP3    H1 5799   0.464   1.758   4.380
 1931TIP3    H2 5800   0.588   1.770   4.297
 1932TIP3   OH2 5801   0.821   1.235   4.050
 1932TIP3    H1 5802   0.771   1.317   4.028
 1932TIP3    H2 5803   0.752   1.167   4.038
 1933TIP3   OH2 5804   0.949   1.749   4.269
 1933TIP3    H1 5805   0.950   1.735   4.366
 1933TIP3    H2 5806   0.859   1.721   4.247
 1934TIP3   OH2 5807   1.193   1.707   4.129
 1934TIP3    H1 5808   1.113   1.706   4.185
 1934TIP3    H2 5809   1.259   1.662   4.185
 1935TIP3   OH2 5810   1.409   1.617   4.292
 1935TIP3    H1 5811   1.401   1.529   4.332
 1935TIP3    H2 5812   1.405   1.675   4.372
 1936TIP3   OH2 5813   0.416   1.610   4.464
 1936TIP3    H1 5814   0.416   1.519   4.426
 1936TIP3    H2 5815   0.449   1.588   4.554
 1937TIP3   OH2 5816   0.899   1.258   4.313
 1937TIP3    H1 5817   0.971   1.192   4.317
 1937TIP3    H2 5818   0.869   1.245   4.221
 1938TIP3   OH2 5819   0.953   1.474   4.475
 1938TIP3    H1 5820   0.956   1.395   4.416
 1938TIP3    H2 5821   0.871   1.516   4.448
 1939TIP3   OH2 5822   0.199   2.700   2.567
 1939TIP3    H1 5823   0.294   2.689   2.546
 1939TIP3    H2 5824   0.171   2.750   2.488
 1940TIP3   OH2 5825  -0.325   2.097   2.727
 1940TIP3    H1 5826  -0.232   2.122   2.747
 1940TIP3    H2 5827  -0.332   2.016   2.777
 1941TIP3   OH2 5828   1.453   2.954   3.184
 1941TIP3    H1 5829   1.496   2.982   3.267
 1941TIP3    H2 5830   1.524   2.966   3.119
 1942TIP3   OH2 5831   1.477   2.963   3.479
 1942TIP3    H1 5832   1.428   2.879   3.466
 1942TIP3    H2 5833   1.560   2.929   3.516
 1943TIP3   OH2 5834   1.521   2.651   4.029
 1943TIP3    H1 5835   1.455   2.652   4.101
 1943TIP3    H2 5836   1.575   2.729   4.049
 1944TIP3   OH2 5837   1.346   2.151   2.655
 1944TIP3    H1 5838   1.413   2.216   2.626
 1944TIP3    H2 5839   1.391   2.112   2.734
 1945TIP3   OH2 5840   1.473   2.017   2.859
 1945TIP3    H1 5841   1.407   1.977   2.919
 1945TIP3    H2 5842   1.540   2.053   2.921
 1946TIP3   OH2 5843   1.529   2.415   3.288
 1946TIP3    H1 5844   1.583   2.346   3.245
 1946TIP3    H2 5845   1.529   2.487   3.221
 1947TIP3   OH2 5846   1.348   2.717   3.478
 1947TIP3    H1 5847   1.267   2.727   3.531
 1947TIP3    H2 5848   1.314   2.667   3.401
 1948TIP3   OH2 5849   1.409   1.928   2.506
 1948TIP3    H1 5850   1.336   1.930   2.439
 1948TIP3    H2 5851   1.383   2.004   2.561
 1949TIP3   OH2 5852   1.279   1.600   2.457
 1949TIP3    H1 5853   1.233   1.632   2.378
 1949TIP3    H2 5854   1.258   1.504   2.452
 1950TIP3   OH2 5855   1.283   1.877   3.002
 1950TIP3    H1 5856   1.292   1.781   2.996
 1950TIP3    H2 5857   1.267   1.890   3.099
 1951TIP3   OH2 5858  -0.087   1.943   3.757
 1951TIP3    H1 5859  -0.096   1.924   3.661
 1951TIP3    H2 5860   0.010   1.940   3.766
 1952TIP3   OH2 5861   1.580   2.303   3.867
 1952TIP3    H1 5862   1.650   2.235   3.854
 1952TIP3    H2 5863   1.606   2.372   3.804
 1953TIP3   OH2 5864   1.754   2.097   3.870
 1953TIP3    H1 5865   1.680   2.049   3.912
 1953TIP3    H2 5866   1.828   2.036   3.888
 1954TIP3   OH2 5867   1.222   1.335   2.445
 1954TIP3    H1 5868   1.294   1.299   2.500
 1954TIP3    H2 5869   1.148   1.276   2.462
 1955TIP3   OH2 5870   1.282   1.594   2.894
 1955TIP3    H1 5871   1.325   1.506   2.909
 1955TIP3    H2 5872   1.339   1.629   2.823
 1956TIP3   OH2 5873   1.442   1.758   3.396
 1956TIP3    H1 5874   1.527   1.785   3.355
 1956TIP3    H2 5875   1.454   1.798   3.484
 1957TIP3   OH2 5876   1.514   1.909   3.626
 1957TIP3    H1 5877   1.436   1.942   3.673
 1957TIP3    H2 5878   1.545   1.990   3.580
 1958TIP3   OH2 5879   0.144   1.653   4.425
 1958TIP3    H1 5880   0.237   1.627   4.438
 1958TIP3    H2 5881   0.095   1.580   4.465
 1959TIP3   OH2 5882   1.976   1.514   4.183
 1959TIP3    H1 5883   2.029   1.444   4.138
 1959TIP3    H2 5884   1.936   1.560   4.106
 1960TIP3   OH2 5885   1.392   1.344   2.937
 1960TIP3    H1 5886   1.438   1.326   3.021
 1960TIP3    H2 5887   1.330   1.268   2.934
 1961TIP3   OH2 5888   0.092   1.316   3.733
 1961TIP3    H1 5889   0.158   1.246   3.749
 1961TIP3    H2 5890   0.147   1.395   3.738
 1962TIP3   OH2 5891  -0.119   1.633   3.834
 1962TIP3    H1 5892  -0.066   1.609   3.756
 1962TIP3    H2 5893  -0.105   1.729   3.838
 1963TIP3   OH2 5894   1.828   1.634   3.988
 1963TIP3    H1 5895   1.742   1.678   4.001
 1963TIP3    H2 5896   1.802   1.564   3.926
 1964TIP3   OH2 5897   1.466   1.273   2.575
 1964TIP3    H1 5898   1.506   1.205   2.516
 1964TIP3    H2 5899   1.531   1.346   2.569
 1965TIP3   OH2 5900  -0.136   1.101   3.324
 1965TIP3    H1 5901  -0.227   1.127   3.342
 1965TIP3    H2 5902  -0.119   1.151   3.241
 1966TIP3   OH2 5903   1.033   2.814   2.837
 1966TIP3    H1 5904   1.086   2.799   2.756
 1966TIP3    H2 5905   1.090   2.874   2.887
 1967TIP3   OH2 5906   0.162   2.554   4.232
 1967TIP3    H1 5907   0.104   2.624   4.197
 1967TIP3    H2 5908   0.153   2.567   4.328
 1968TIP3   OH2 5909   0.336   2.648   3.780
 1968TIP3    H1 5910   0.267   2.703   3.737
 1968TIP3    H2 5911   0.413   2.677   3.726
 1969TIP3   OH2 5912   0.745   2.887   3.910
 1969TIP3    H1 5913   0.793   2.882   3.995
 1969TIP3    H2 5914   0.809   2.935   3.854
 1970TIP3   OH2 5915   0.930   3.034   3.771
 1970TIP3    H1 5916   0.981   2.984   3.705
 1970TIP3    H2 5917   0.993   3.037   3.844
 1971TIP3   OH2 5918   1.734   1.406   3.855
 1971TIP3    H1 5919   1.643   1.399   3.821
 1971TIP3    H2 5920   1.765   1.313   3.849
 1972TIP3   OH2 5921   0.012   2.954   3.791
 1972TIP3    H1 5922  -0.039   3.020   3.742
 1972TIP3    H2 5923   0.033   3.004   3.872
 1973TIP3   OH2 5924   0.240   2.881   3.644
 1973TIP3    H1 5925   0.155   2.897   3.692
 1973TIP3    H2 5926   0.218   2.910   3.554
 1974TIP3   OH2 5927   0.652   2.911   3.446
 1974TIP3    H1 5928   0.580   2.926   3.383
 1974TIP3    H2 5929   0.661   2.999   3.488
 1975TIP3   OH2 5930   0.918   2.857   3.502
 1975TIP3    H1 5931   0.824   2.869   3.477
 1975TIP3    H2 5932   0.963   2.920   3.444
 1976TIP3   OH2 5933   1.125   3.038   3.413
 1976TIP3    H1 5934   1.113   3.121   3.363
 1976TIP3    H2 5935   1.154   2.976   3.342
 1977TIP3   OH2 5936  -0.102   2.690   3.538
 1977TIP3    H1 5937  -0.058   2.668   3.623
 1977TIP3    H2 5938  -0.043   2.642   3.478
 1978TIP3   OH2 5939   0.100   2.566   3.396
 1978TIP3    H1 5940   0.113   2.486   3.451
 1978TIP3    H2 5941   0.190   2.606   3.401
 1979TIP3   OH2 5942   0.366   2.661   3.403
 1979TIP3    H1 5943   0.391   2.567   3.398
 1979TIP3    H2 5944   0.417   2.686   3.483
 1980TIP3   OH2 5945   0.952   1.320   3.495
 1980TIP3    H1 5946   0.902   1.248   3.535
 1980TIP3    H2 5947   1.020   1.274   3.442
 1981TIP3   OH2 5948   1.455   1.198   3.390
 1981TIP3    H1 5949   1.493   1.250   3.316
 1981TIP3    H2 5950   1.361   1.224   3.385
 1982TIP3   OH2 5951   1.555   1.294   3.155
 1982TIP3    H1 5952   1.629   1.242   3.116
 1982TIP3    H2 5953   1.589   1.385   3.141
 1983TIP3   OH2 5954   0.249   1.034   3.495
 1983TIP3    H1 5955   0.152   1.018   3.502
 1983TIP3    H2 5956   0.282   0.942   3.488
 1984TIP3   OH2 5957   0.633   1.059   3.385
 1984TIP3    H1 5958   0.686   1.104   3.318
 1984TIP3    H2 5959   0.667   1.099   3.467
 1985TIP3   OH2 5960   1.173   1.208   3.361
 1985TIP3    H1 5961   1.177   1.169   3.273
 1985TIP3    H2 5962   1.163   1.127   3.418
 1986TIP3   OH2 5963   1.209   1.133   2.931
 1986TIP3    H1 5964   1.123   1.176   2.947
 1986TIP3    H2 5965   1.194   1.046   2.974
 1987TIP3   OH2 5966   0.610   1.235   3.010
 1987TIP3    H1 5967   0.670   1.189   3.071
 1987TIP3    H2 5968   0.628   1.328   3.036
 1988TIP3   OH2 5969   0.464   2.649   2.512
 1988TIP3    H1 5970   0.551   2.673   2.475
 1988TIP3    H2 5971   0.442   2.575   2.452
 1989TIP3   OH2 5972   1.181   2.776   2.607
 1989TIP3    H1 5973   1.174   2.678   2.595
 1989TIP3    H2 5974   1.137   2.808   2.525
 1990TIP3   OH2 5975   0.407   1.351   4.387
 1990TIP3    H1 5976   0.371   1.264   4.408
 1990TIP3    H2 5977   0.501   1.336   4.409
 1991TIP3   OH2 5978   0.661   1.316   4.489
 1991TIP3    H1 5979   0.741   1.286   4.443
 1991TIP3    H2 5980   0.665   1.261   4.570
 1992TIP3   OH2 5981  -0.227   2.491   2.574
 1992TIP3    H1 5982  -0.199   2.556   2.640
 1992TIP3    H2 5983  -0.141   2.448   2.552
 1993TIP3   OH2 5984   1.390   3.001   3.763
 1993TIP3    H1 5985   1.312   2.941   3.739
 1993TIP3    H2 5986   1.459   2.959   3.722
 1994TIP3   OH2 5987   2.677   2.293   2.549
 1994TIP3    H1 5988   2.647   2.385   2.531
 1994TIP3    H2 5989   2.598   2.243   2.524
 1995TIP3   OH2 5990   2.683   2.277   2.933
 1995TIP3    H1 5991   2.711   2.274   3.026
 1995TIP3    H2 5992   2.629   2.197   2.925
 1996TIP3   OH2 5993   1.968   2.183   3.305
 1996TIP3    H1 5994   2.000   2.115   3.367
 1996TIP3    H2 5995   2.041   2.246   3.307
 1997TIP3   OH2 5996   2.922   2.598   2.624
 1997TIP3    H1 5997   2.902   2.533   2.693
 1997TIP3    H2 5998   2.944   2.677   2.678
 1998TIP3   OH2 5999   1.932   2.593   3.025
 1998TIP3    H1 6000   1.933   2.495   3.021
 1998TIP3    H2 6001   2.022   2.610   3.057
 1999TIP3   OH2 6002   1.651   1.796   2.806
 1999TIP3    H1 6003   1.605   1.879   2.827
 1999TIP3    H2 6004   1.579   1.747   2.763
 2000TIP3   OH2 6005   1.707   2.086   2.991
 2000TIP3    H1 6006   1.759   2.009   3.025
 2000TIP3    H2 6007   1.774   2.134   2.940
 2001TIP3   OH2 6008   2.556   3.070   2.633
 2001TIP3    H1 6009   2.601   2.984   2.624
 2001TIP3    H2 6010   2.532   3.074   2.727
 2002TIP3   OH2 6011   2.466   2.516   2.981
 2002TIP3    H1 6012   2.511   2.443   2.936
 2002TIP3    H2 6013   2.547   2.567   3.006
 2003TIP3   OH2 6014   3.490   1.830   2.975
 2003TIP3    H1 6015   3.524   1.915   3.008
 2003TIP3    H2 6016   3.508   1.840   2.879
 2004TIP3   OH2 6017   2.891   2.013   3.016
 2004TIP3    H1 6018   2.928   1.925   3.034
 2004TIP3    H2 6019   2.853   2.000   2.927
 2005TIP3   OH2 6020   2.230   1.677   2.980
 2005TIP3    H1 6021   2.207   1.750   2.919
 2005TIP3    H2 6022   2.178   1.604   2.939
 2006TIP3   OH2 6023   2.921   1.769   2.603
 2006TIP3    H1 6024   2.993   1.756   2.669
 2006TIP3    H2 6025   2.972   1.806   2.529
 2007TIP3   OH2 6026   1.856   1.880   3.093
 2007TIP3    H1 6027   1.939   1.862   3.140
 2007TIP3    H2 6028   1.870   1.825   3.013
 2008TIP3   OH2 6029   2.295   2.077   2.885
 2008TIP3    H1 6030   2.389   2.053   2.899
 2008TIP3    H2 6031   2.256   1.993   2.853
 2009TIP3   OH2 6032   3.579   2.036   3.131
 2009TIP3    H1 6033   3.502   2.095   3.118
 2009TIP3    H2 6034   3.575   2.017   3.226
 2010TIP3   OH2 6035   2.219   1.661   3.419
 2010TIP3    H1 6036   2.162   1.700   3.350
 2010TIP3    H2 6037   2.165   1.680   3.499
 2011TIP3   OH2 6038   2.571   2.517   2.417
 2011TIP3    H1 6039   2.522   2.500   2.336
 2011TIP3    H2 6040   2.525   2.598   2.449
 2012TIP3   OH2 6041   2.328   2.435   3.208
 2012TIP3    H1 6042   2.261   2.500   3.240
 2012TIP3    H2 6043   2.369   2.485   3.135
 2013TIP3   OH2 6044   3.122   1.774   2.787
 2013TIP3    H1 6045   3.091   1.741   2.873
 2013TIP3    H2 6046   3.173   1.853   2.813
 2014TIP3   OH2 6047   2.093   1.775   3.200
 2014TIP3    H1 6048   2.152   1.851   3.223
 2014TIP3    H2 6049   2.145   1.737   3.126
 2015TIP3   OH2 6050   2.131   2.607   3.282
 2015TIP3    H1 6051   2.136   2.702   3.257
 2015TIP3    H2 6052   2.074   2.616   3.362
 2016TIP3   OH2 6053   1.544   2.323   2.546
 2016TIP3    H1 6054   1.504   2.351   2.462
 2016TIP3    H2 6055   1.575   2.409   2.582
 2017TIP3   OH2 6056   2.958   2.833   2.791
 2017TIP3    H1 6057   2.877   2.842   2.843
 2017TIP3    H2 6058   2.961   2.919   2.744
 2018TIP3   OH2 6059   3.285   1.744   3.156
 2018TIP3    H1 6060   3.195   1.763   3.124
 2018TIP3    H2 6061   3.340   1.770   3.079
 2019TIP3   OH2 6062   2.572   1.377   3.138
 2019TIP3    H1 6063   2.554   1.282   3.155
 2019TIP3    H2 6064   2.495   1.417   3.184
 2020TIP3   OH2 6065   2.692   2.875   2.460
 2020TIP3    H1 6066   2.747   2.797   2.437
 2020TIP3    H2 6067   2.747   2.947   2.423
 2021TIP3   OH2 6068   2.837   2.659   2.367
 2021TIP3    H1 6069   2.771   2.588   2.355
 2021TIP3    H2 6070   2.877   2.633   2.453
 2022TIP3   OH2 6071   3.196   2.755   3.131
 2022TIP3    H1 6072   3.195   2.680   3.067
 2022TIP3    H2 6073   3.184   2.832   3.071
 2023TIP3   OH2 6074   2.502   2.140   2.391
 2023TIP3    H1 6075   2.422   2.193   2.372
 2023TIP3    H2 6076   2.549   2.143   2.305
 2024TIP3   OH2 6077   2.461   1.935   2.099
 2024TIP3    H1 6078   2.528   1.984   2.150
 2024TIP3    H2 6079   2.518   1.871   2.052
 2025TIP3   OH2 6080   3.395   2.364   2.957
 2025TIP3    H1 6081   3.320   2.426   2.973
 2025TIP3    H2 6082   3.431   2.404   2.876
 2026TIP3   OH2 6083   2.854   2.226   2.356
 2026TIP3    H1 6084   2.798   2.252   2.433
 2026TIP3    H2 6085   2.938   2.204   2.402
 2027TIP3   OH2 6086   3.082   2.260   3.262
 2027TIP3    H1 6087   3.084   2.339   3.319
 2027TIP3    H2 6088   2.991   2.267   3.224
 2028TIP3   OH2 6089   2.085   2.220   2.777
 2028TIP3    H1 6090   2.047   2.162   2.708
 2028TIP3    H2 6091   2.162   2.168   2.807
 2029TIP3   OH2 6092   2.222   2.643   2.921
 2029TIP3    H1 6093   2.203   2.600   2.837
 2029TIP3    H2 6094   2.311   2.608   2.943
 2030TIP3   OH2 6095   2.219   2.196   3.129
 2030TIP3    H1 6096   2.254   2.175   3.040
 2030TIP3    H2 6097   2.261   2.283   3.149
 2031TIP3   OH2 6098   2.691   2.084   2.187
 2031TIP3    H1 6099   2.750   2.145   2.236
 2031TIP3    H2 6100   2.716   2.105   2.094
 2032TIP3   OH2 6101   2.118   2.295   3.557
 2032TIP3    H1 6102   2.131   2.389   3.575
 2032TIP3    H2 6103   2.023   2.284   3.579
 2033TIP3   OH2 6104   2.443   2.760   2.455
 2033TIP3    H1 6105   2.523   2.813   2.472
 2033TIP3    H2 6106   2.379   2.827   2.430
 2034TIP3   OH2 6107   3.208   1.320   2.238
 2034TIP3    H1 6108   3.126   1.343   2.287
 2034TIP3    H2 6109   3.222   1.402   2.187
 2035TIP3   OH2 6110   1.955   2.064   2.572
 2035TIP3    H1 6111   1.883   2.110   2.524
 2035TIP3    H2 6112   1.914   1.980   2.594
 2036TIP3   OH2 6113   3.008   2.690   1.783
 2036TIP3    H1 6114   3.015   2.787   1.771
 2036TIP3    H2 6115   3.101   2.662   1.770
 2037TIP3   OH2 6116   1.729   2.450   3.494
 2037TIP3    H1 6117   1.668   2.430   3.420
 2037TIP3    H2 6118   1.771   2.364   3.511
 2038TIP3   OH2 6119   1.596   2.644   3.121
 2038TIP3    H1 6120   1.689   2.626   3.099
 2038TIP3    H2 6121   1.605   2.717   3.184
 2039TIP3   OH2 6122   3.420   3.071   3.145
 2039TIP3    H1 6123   3.456   2.990   3.187
 2039TIP3    H2 6124   3.455   3.142   3.198
 2040TIP3   OH2 6125   2.320   3.007   2.262
 2040TIP3    H1 6126   2.269   2.994   2.181
 2040TIP3    H2 6127   2.287   3.093   2.294
 2041TIP3   OH2 6128   1.754   2.855   2.649
 2041TIP3    H1 6129   1.803   2.850   2.734
 2041TIP3    H2 6130   1.707   2.770   2.650
 2042TIP3   OH2 6131   2.518   2.911   1.902
 2042TIP3    H1 6132   2.576   2.840   1.869
 2042TIP3    H2 6133   2.552   2.922   1.994
 2043TIP3   OH2 6134   2.571   2.960   2.170
 2043TIP3    H1 6135   2.483   2.968   2.214
 2043TIP3    H2 6136   2.625   2.927   2.245
 2044TIP3   OH2 6137   1.949   2.648   3.487
 2044TIP3    H1 6138   2.007   2.672   3.562
 2044TIP3    H2 6139   1.888   2.581   3.523
 2045TIP3   OH2 6140   2.335   1.456   3.266
 2045TIP3    H1 6141   2.246   1.426   3.237
 2045TIP3    H2 6142   2.308   1.537   3.314
 2046TIP3   OH2 6143   2.869   1.567   3.459
 2046TIP3    H1 6144   2.937   1.544   3.525
 2046TIP3    H2 6145   2.785   1.550   3.507
 2047TIP3   OH2 6146   3.123   2.020   3.392
 2047TIP3    H1 6147   3.060   2.005   3.467
 2047TIP3    H2 6148   3.084   2.099   3.348
 2048TIP3   OH2 6149   2.768   2.119   1.929
 2048TIP3    H1 6150   2.734   2.102   1.839
 2048TIP3    H2 6151   2.850   2.167   1.908
 2049TIP3   OH2 6152   2.482   1.501   2.235
 2049TIP3    H1 6153   2.446   1.500   2.326
 2049TIP3    H2 6154   2.439   1.420   2.200
 2050TIP3   OH2 6155   2.267   1.973   3.277
 2050TIP3    H1 6156   2.221   1.994   3.361
 2050TIP3    H2 6157   2.249   2.055   3.226
 2051TIP3   OH2 6158   2.151   1.858   2.794
 2051TIP3    H1 6159   2.058   1.833   2.814
 2051TIP3    H2 6160   2.161   1.816   2.706
 2052TIP3   OH2 6161   2.640   1.942   2.526
 2052TIP3    H1 6162   2.589   2.014   2.482
 2052TIP3    H2 6163   2.695   1.910   2.452
 2053TIP3   OH2 6164   2.822   2.206   3.590
 2053TIP3    H1 6165   2.796   2.146   3.663
 2053TIP3    H2 6166   2.904   2.245   3.625
 2054TIP3   OH2 6167   2.797   1.967   2.762
 2054TIP3    H1 6168   2.733   2.000   2.696
 2054TIP3    H2 6169   2.830   1.889   2.713
 2055TIP3   OH2 6170   2.085   1.999   3.487
 2055TIP3    H1 6171   2.116   2.067   3.550
 2055TIP3    H2 6172   2.075   1.921   3.544
 2056TIP3   OH2 6173   2.140   1.480   2.200
 2056TIP3    H1 6174   2.127   1.479   2.297
 2056TIP3    H2 6175   2.061   1.531   2.172
 2057TIP3   OH2 6176   1.680   1.517   3.073
 2057TIP3    H1 6177   1.753   1.553   3.128
 2057TIP3    H2 6178   1.723   1.493   2.990
 2058TIP3   OH2 6179   1.640   1.501   2.588
 2058TIP3    H1 6180   1.685   1.540   2.510
 2058TIP3    H2 6181   1.579   1.575   2.610
 2059TIP3   OH2 6182   2.808   2.213   3.179
 2059TIP3    H1 6183   2.841   2.142   3.120
 2059TIP3    H2 6184   2.774   2.160   3.254
 2060TIP3   OH2 6185   2.486   1.670   2.854
 2060TIP3    H1 6186   2.403   1.673   2.906
 2060TIP3    H2 6187   2.553   1.677   2.924
 2061TIP3   OH2 6188   1.913   1.739   2.862
 2061TIP3    H1 6189   1.819   1.746   2.833
 2061TIP3    H2 6190   1.935   1.647   2.839
 2062TIP3   OH2 6191   2.176   1.729   2.555
 2062TIP3    H1 6192   2.269   1.747   2.532
 2062TIP3    H2 6193   2.128   1.754   2.473
 2063TIP3   OH2 6194   2.976   1.750   3.053
 2063TIP3    H1 6195   2.951   1.765   3.148
 2063TIP3    H2 6196   2.902   1.694   3.025
 2064TIP3   OH2 6197   2.030   1.765   2.328
 2064TIP3    H1 6198   1.959   1.720   2.279
 2064TIP3    H2 6199   2.081   1.804   2.255
 2065TIP3   OH2 6200   2.559   2.009   2.955
 2065TIP3    H1 6201   2.636   1.971   2.910
 2065TIP3    H2 6202   2.563   1.967   3.043
 2066TIP3   OH2 6203   2.077   1.494   2.840
 2066TIP3    H1 6204   2.041   1.417   2.889
 2066TIP3    H2 6205   2.117   1.451   2.763
 2067TIP3   OH2 6206   2.535   1.912   3.239
 2067TIP3    H1 6207   2.445   1.946   3.256
 2067TIP3    H2 6208   2.592   1.973   3.291
 2068TIP3   OH2 6209   2.275   2.292   2.336
 2068TIP3    H1 6210   2.200   2.230   2.323
 2068TIP3    H2 6211   2.254   2.327   2.426
 2069TIP3   OH2 6212   3.176   2.529   2.963
 2069TIP3    H1 6213   3.200   2.580   2.883
 2069TIP3    H2 6214   3.090   2.490   2.937
 2070TIP3   OH2 6215   2.731   1.604   2.206
 2070TIP3    H1 6216   2.635   1.584   2.215
 2070TIP3    H2 6217   2.737   1.699   2.231
 2071TIP3   OH2 6218   2.694   2.598   3.316
 2071TIP3    H1 6219   2.705   2.574   3.409
 2071TIP3    H2 6220   2.638   2.677   3.319
 2072TIP3   OH2 6221   2.798   1.856   2.307
 2072TIP3    H1 6222   2.894   1.865   2.321
 2072TIP3    H2 6223   2.776   1.937   2.257
 2073TIP3   OH2 6224   1.961   2.311   3.009
 2073TIP3    H1 6225   2.006   2.287   2.925
 2073TIP3    H2 6226   2.014   2.263   3.074
 2074TIP3   OH2 6227   2.418   2.445   2.160
 2074TIP3    H1 6228   2.369   2.530   2.164
 2074TIP3    H2 6229   2.365   2.389   2.220
 2075TIP3   OH2 6230   1.853   2.239   3.630
 2075TIP3    H1 6231   1.877   2.228   3.724
 2075TIP3    H2 6232   1.783   2.172   3.619
 2076TIP3   OH2 6233   2.578   2.323   3.664
 2076TIP3    H1 6234   2.516   2.300   3.593
 2076TIP3    H2 6235   2.663   2.316   3.618
 2077TIP3   OH2 6236   3.240   1.950   2.138
 2077TIP3    H1 6237   3.179   1.905   2.075
 2077TIP3    H2 6238   3.235   2.040   2.099
 2078TIP3   OH2 6239   3.448   2.799   3.233
 2078TIP3    H1 6240   3.357   2.800   3.197
 2078TIP3    H2 6241   3.499   2.783   3.151
 2079TIP3   OH2 6242   2.947   2.768   2.053
 2079TIP3    H1 6243   2.915   2.705   2.118
 2079TIP3    H2 6244   2.954   2.715   1.972
 2080TIP3   OH2 6245   2.941   2.396   2.878
 2080TIP3    H1 6246   2.847   2.375   2.894
 2080TIP3    H2 6247   2.970   2.315   2.832
 2081TIP3   OH2 6248   2.067   2.619   2.627
 2081TIP3    H1 6249   2.067   2.705   2.581
 2081TIP3    H2 6250   1.978   2.615   2.662
 2082TIP3   OH2 6251   1.635   1.925   2.349
 2082TIP3    H1 6252   1.679   2.010   2.371
 2082TIP3    H2 6253   1.557   1.930   2.408
 2083TIP3   OH2 6254   2.199   2.383   2.578
 2083TIP3    H1 6255   2.164   2.473   2.594
 2083TIP3    H2 6256   2.164   2.336   2.656
 2084TIP3   OH2 6257   1.983   2.865   2.489
 2084TIP3    H1 6258   1.899   2.873   2.537
 2084TIP3    H2 6259   2.017   2.958   2.495
 2085TIP3   OH2 6260   2.728   2.559   3.050
 2085TIP3    H1 6261   2.717   2.578   3.145
 2085TIP3    H2 6262   2.822   2.543   3.043
 2086TIP3   OH2 6263   2.702   2.498   1.950
 2086TIP3    H1 6264   2.757   2.470   2.027
 2086TIP3    H2 6265   2.614   2.469   1.981
 2087TIP3   OH2 6266   3.038   2.967   1.767
 2087TIP3    H1 6267   3.075   3.044   1.721
 2087TIP3    H2 6268   2.958   3.008   1.805
 2088TIP3   OH2 6269   2.057   1.742   3.632
 2088TIP3    H1 6270   1.960   1.746   3.643
 2088TIP3    H2 6271   2.083   1.688   3.708
 2089TIP3   OH2 6272   2.865   2.415   2.152
 2089TIP3    H1 6273   2.853   2.358   2.231
 2089TIP3    H2 6274   2.962   2.420   2.148
 2090TIP3   OH2 6275   1.775   2.829   3.273
 2090TIP3    H1 6276   1.834   2.757   3.301
 2090TIP3    H2 6277   1.826   2.905   3.304
 2091TIP3   OH2 6278   2.063   2.473   1.950
 2091TIP3    H1 6279   2.076   2.380   1.926
 2091TIP3    H2 6280   2.044   2.466   2.046
 2092TIP3   OH2 6281   2.006   2.480   2.222
 2092TIP3    H1 6282   2.077   2.453   2.281
 2092TIP3    H2 6283   2.009   2.578   2.232
 2093TIP3   OH2 6284   1.741   2.170   2.428
 2093TIP3    H1 6285   1.674   2.216   2.484
 2093TIP3    H2 6286   1.755   2.238   2.360
 2094TIP3   OH2 6287   2.916   1.797   3.315
 2094TIP3    H1 6288   2.974   1.842   3.378
 2094TIP3    H2 6289   2.888   1.718   3.366
 2095TIP3   OH2 6290   2.783   1.553   2.488
 2095TIP3    H1 6291   2.765   1.576   2.395
 2095TIP3    H2 6292   2.822   1.636   2.523
 2096TIP3   OH2 6293   2.275   2.674   2.166
 2096TIP3    H1 6294   2.188   2.698   2.205
 2096TIP3    H2 6295   2.295   2.756   2.120
 2097TIP3   OH2 6296   2.462   1.740   2.586
 2097TIP3    H1 6297   2.525   1.813   2.569
 2097TIP3    H2 6298   2.468   1.732   2.683
 2098TIP3   OH2 6299   2.732   2.050   3.386
 2098TIP3    H1 6300   2.755   2.112   3.459
 2098TIP3    H2 6301   2.784   1.972   3.410
 2099TIP3   OH2 6302   2.605   1.459   2.687
 2099TIP3    H1 6303   2.588   1.539   2.740
 2099TIP3    H2 6304   2.670   1.494   2.621
 2100TIP3   OH2 6305   2.021   2.752   2.241
 2100TIP3    H1 6306   1.993   2.823   2.180
 2100TIP3    H2 6307   2.007   2.794   2.329
 2101TIP3   OH2 6308   2.121   1.464   2.476
 2101TIP3    H1 6309   2.116   1.554   2.513
 2101TIP3    H2 6310   2.218   1.449   2.483
 2102TIP3   OH2 6311   3.383   1.993   3.359
 2102TIP3    H1 6312   3.288   2.000   3.386
 2102TIP3    H2 6313   3.376   1.912   3.307
 2103TIP3   OH2 6314   3.024   2.146   2.757
 2103TIP3    H1 6315   2.944   2.093   2.774
 2103TIP3    H2 6316   3.092   2.099   2.811
 2104TIP3   OH2 6317   1.740   2.374   2.231
 2104TIP3    H1 6318   1.812   2.440   2.240
 2104TIP3    H2 6319   1.782   2.315   2.164
 2105TIP3   OH2 6320   1.680   1.653   2.364
 2105TIP3    H1 6321   1.681   1.751   2.364
 2105TIP3    H2 6322   1.600   1.634   2.314
 2106TIP3   OH2 6323   2.994   3.089   2.694
 2106TIP3    H1 6324   2.950   3.146   2.628
 2106TIP3    H2 6325   3.086   3.121   2.683
 2107TIP3   OH2 6326   2.073   1.374   3.233
 2107TIP3    H1 6327   2.040   1.341   3.146
 2107TIP3    H2 6328   2.059   1.296   3.291
 2108TIP3   OH2 6329   1.601   2.590   2.614
 2108TIP3    H1 6330   1.542   2.624   2.683
 2108TIP3    H2 6331   1.570   2.638   2.534
 2109TIP3   OH2 6332   1.764   3.137   3.696
 2109TIP3    H1 6333   1.852   3.137   3.741
 2109TIP3    H2 6334   1.746   3.041   3.691
 2110TIP3   OH2 6335   2.236   3.105   3.724
 2110TIP3    H1 6336   2.326   3.089   3.757
 2110TIP3    H2 6337   2.225   3.029   3.664
 2111TIP3   OH2 6338   2.225   2.674   1.855
 2111TIP3    H1 6339   2.170   2.604   1.898
 2111TIP3    H2 6340   2.302   2.622   1.829
 2112TIP3   OH2 6341   2.663   2.713   1.776
 2112TIP3    H1 6342   2.699   2.646   1.838
 2112TIP3    H2 6343   2.724   2.708   1.700
 2113TIP3   OH2 6344   1.859   2.536   3.926
 2113TIP3    H1 6345   1.931   2.490   3.881
 2113TIP3    H2 6346   1.791   2.543   3.856
 2114TIP3   OH2 6347   1.877   2.187   2.087
 2114TIP3    H1 6348   1.934   2.159   2.160
 2114TIP3    H2 6349   1.944   2.194   2.015
 2115TIP3   OH2 6350   2.393   2.393   1.891
 2115TIP3    H1 6351   2.392   2.407   1.988
 2115TIP3    H2 6352   2.392   2.295   1.886
 2116TIP3   OH2 6353   3.003   2.623   3.283
 2116TIP3    H1 6354   3.060   2.682   3.230
 2116TIP3    H2 6355   2.915   2.658   3.268
 2117TIP3   OH2 6356   2.024   2.269   3.865
 2117TIP3    H1 6357   2.114   2.242   3.844
 2117TIP3    H2 6358   2.036   2.309   3.953
 2118TIP3   OH2 6359   2.075   2.101   2.300
 2118TIP3    H1 6360   2.050   2.066   2.387
 2118TIP3    H2 6361   2.114   2.023   2.255
 2119TIP3   OH2 6362   2.347   2.147   3.523
 2119TIP3    H1 6363   2.273   2.211   3.532
 2119TIP3    H2 6364   2.400   2.189   3.452
 2120TIP3   OH2 6365   2.185   1.895   2.144
 2120TIP3    H1 6366   2.159   1.904   2.050
 2120TIP3    H2 6367   2.283   1.901   2.136
 2121TIP3   OH2 6368   2.863   2.516   3.643
 2121TIP3    H1 6369   2.944   2.569   3.646
 2121TIP3    H2 6370   2.853   2.487   3.735
 2122TIP3   OH2 6371   3.002   2.220   1.813
 2122TIP3    H1 6372   2.981   2.177   1.728
 2122TIP3    H2 6373   2.970   2.311   1.793
 2123TIP3   OH2 6374   2.479   1.952   3.657
 2123TIP3    H1 6375   2.477   1.875   3.598
 2123TIP3    H2 6376   2.434   2.021   3.602
 2124TIP3   OH2 6377   2.479   1.738   3.464
 2124TIP3    H1 6378   2.505   1.782   3.380
 2124TIP3    H2 6379   2.385   1.716   3.447
 2125TIP3   OH2 6380   2.503   2.278   3.345
 2125TIP3    H1 6381   2.586   2.298   3.302
 2125TIP3    H2 6382   2.441   2.339   3.298
 2126TIP3   OH2 6383   3.077   2.241   3.727
 2126TIP3    H1 6384   3.133   2.163   3.740
 2126TIP3    H2 6385   3.137   2.307   3.691
 2127TIP3   OH2 6386   3.159   2.478   3.448
 2127TIP3    H1 6387   3.092   2.533   3.400
 2127TIP3    H2 6388   3.241   2.505   3.402
 2128TIP3   OH2 6389   2.356   2.054   3.895
 2128TIP3    H1 6390   2.286   1.986   3.906
 2128TIP3    H2 6391   2.387   2.037   3.805
 2129TIP3   OH2 6392   2.608   1.500   3.538
 2129TIP3    H1 6393   2.560   1.582   3.513
 2129TIP3    H2 6394   2.538   1.432   3.527
 2130TIP3   OH2 6395   2.738   1.998   3.749
 2130TIP3    H1 6396   2.718   1.989   3.844
 2130TIP3    H2 6397   2.649   1.982   3.712
 2131TIP3   OH2 6398   2.970   1.934   3.598
 2131TIP3    H1 6399   2.893   1.951   3.657
 2131TIP3    H2 6400   3.041   1.916   3.662
 2132TIP3   OH2 6401   3.220   1.901   3.753
 2132TIP3    H1 6402   3.225   1.804   3.770
 2132TIP3    H2 6403   3.205   1.937   3.843
 2133TIP3   OH2 6404   2.189   1.835   3.948
 2133TIP3    H1 6405   2.195   1.744   3.915
 2133TIP3    H2 6406   2.227   1.825   4.038
 2134TIP3   OH2 6407   2.701   1.510   3.796
 2134TIP3    H1 6408   2.767   1.438   3.788
 2134TIP3    H2 6409   2.661   1.507   3.707
 2135TIP3   OH2 6410   2.769   1.723   3.954
 2135TIP3    H1 6411   2.745   1.653   3.889
 2135TIP3    H2 6412   2.692   1.784   3.947
 2136TIP3   OH2 6413   1.993   2.953   2.051
 2136TIP3    H1 6414   2.088   2.942   2.032
 2136TIP3    H2 6415   1.967   3.007   1.974
 2137TIP3   OH2 6416   1.470   2.338   2.261
 2137TIP3    H1 6417   1.566   2.358   2.251
 2137TIP3    H2 6418   1.465   2.248   2.221
 2138TIP3   OH2 6419   1.386   2.945   2.687
 2138TIP3    H1 6420   1.321   2.883   2.648
 2138TIP3    H2 6421   1.432   2.886   2.750
 2139TIP3   OH2 6422   1.522   2.789   2.870
 2139TIP3    H1 6423   1.513   2.722   2.940
 2139TIP3    H2 6424   1.580   2.853   2.916
 2140TIP3   OH2 6425   3.249   3.190   2.657
 2140TIP3    H1 6426   3.267   3.205   2.752
 2140TIP3    H2 6427   3.315   3.248   2.616
 2141TIP3   OH2 6428   3.316   3.205   2.917
 2141TIP3    H1 6429   3.280   3.121   2.950
 2141TIP3    H2 6430   3.337   3.247   3.002
 2142TIP3   OH2 6431   3.320   2.894   3.543
 2142TIP3    H1 6432   3.243   2.907   3.603
 2142TIP3    H2 6433   3.347   2.984   3.522
 2143TIP3   OH2 6434   3.145   2.406   2.141
 2143TIP3    H1 6435   3.210   2.474   2.114
 2143TIP3    H2 6436   3.188   2.369   2.221
 2144TIP3   OH2 6437   3.272   2.272   2.346
 2144TIP3    H1 6438   3.203   2.233   2.404
 2144TIP3    H2 6439   3.334   2.311   2.410
 2145TIP3   OH2 6440   3.313   2.663   2.767
 2145TIP3    H1 6441   3.373   2.602   2.722
 2145TIP3    H2 6442   3.314   2.742   2.709
 2146TIP3   OH2 6443   3.136   2.969   2.964
 2146TIP3    H1 6444   3.075   3.043   2.978
 2146TIP3    H2 6445   3.091   2.919   2.893
 2147TIP3   OH2 6446   3.205   2.183   1.991
 2147TIP3    H1 6447   3.132   2.187   1.926
 2147TIP3    H2 6448   3.180   2.260   2.047
 2148TIP3   OH2 6449   3.080   1.852   1.942
 2148TIP3    H1 6450   3.028   1.892   1.871
 2148TIP3    H2 6451   3.057   1.757   1.931
 2149TIP3   OH2 6452   3.081   2.135   2.490
 2149TIP3    H1 6453   3.085   2.038   2.484
 2149TIP3    H2 6454   3.064   2.149   2.585
 2150TIP3   OH2 6455   1.704   2.207   3.242
 2150TIP3    H1 6456   1.701   2.171   3.150
 2150TIP3    H2 6457   1.802   2.208   3.257
 2151TIP3   OH2 6458   3.402   2.547   3.336
 2151TIP3    H1 6459   3.473   2.519   3.274
 2151TIP3    H2 6460   3.396   2.640   3.307
 2152TIP3   OH2 6461   3.021   1.585   1.922
 2152TIP3    H1 6462   3.088   1.555   1.987
 2152TIP3    H2 6463   2.942   1.534   1.945
 2153TIP3   OH2 6464   3.079   1.851   2.383
 2153TIP3    H1 6465   3.121   1.763   2.396
 2153TIP3    H2 6466   3.135   1.886   2.312
 2154TIP3   OH2 6467   3.237   2.015   2.885
 2154TIP3    H1 6468   3.323   2.042   2.845
 2154TIP3    H2 6469   3.244   2.057   2.972
 2155TIP3   OH2 6470   3.350   2.206   3.175
 2155TIP3    H1 6471   3.253   2.215   3.186
 2155TIP3    H2 6472   3.362   2.262   3.094
 2156TIP3   OH2 6473   1.921   1.884   3.908
 2156TIP3    H1 6474   2.019   1.884   3.916
 2156TIP3    H2 6475   1.899   1.800   3.952
 2157TIP3   OH2 6476   3.762   1.757   3.671
 2157TIP3    H1 6477   3.824   1.692   3.631
 2157TIP3    H2 6478   3.735   1.809   3.592
 2158TIP3   OH2 6479   3.189   1.600   2.422
 2158TIP3    H1 6480   3.234   1.582   2.507
 2158TIP3    H2 6481   3.126   1.525   2.419
 2159TIP3   OH2 6482   1.888   1.584   3.242
 2159TIP3    H1 6483   1.951   1.510   3.252
 2159TIP3    H2 6484   1.949   1.660   3.235
 2160TIP3   OH2 6485   1.686   1.855   3.318
 2160TIP3    H1 6486   1.736   1.855   3.234
 2160TIP3    H2 6487   1.711   1.941   3.355
 2161TIP3   OH2 6488   3.629   1.883   3.472
 2161TIP3    H1 6489   3.550   1.918   3.518
 2161TIP3    H2 6490   3.591   1.808   3.421
 2162TIP3   OH2 6491   3.263   1.529   2.063
 2162TIP3    H1 6492   3.303   1.463   2.003
 2162TIP3    H2 6493   3.326   1.603   2.057
 2163TIP3   OH2 6494   1.673   1.357   2.815
 2163TIP3    H1 6495   1.582   1.354   2.847
 2163TIP3    H2 6496   1.666   1.417   2.738
 2164TIP3   OH2 6497   2.828   3.064   2.322
 2164TIP3    H1 6498   2.888   3.059   2.245
 2164TIP3    H2 6499   2.874   3.127   2.380
 2165TIP3   OH2 6500   1.894   1.436   3.626
 2165TIP3    H1 6501   1.844   1.437   3.710
 2165TIP3    H2 6502   1.830   1.478   3.566
 2166TIP3   OH2 6503   2.117   2.873   3.227
 2166TIP3    H1 6504   2.076   2.954   3.186
 2166TIP3    H2 6505   2.181   2.911   3.287
 2167TIP3   OH2 6506   3.523   1.653   3.354
 2167TIP3    H1 6507   3.434   1.635   3.319
 2167TIP3    H2 6508   3.564   1.563   3.344
 2168TIP3   OH2 6509   1.776   3.152   3.286
 2168TIP3    H1 6510   1.691   3.195   3.264
 2168TIP3    H2 6511   1.802   3.201   3.364
 2169TIP3   OH2 6512   2.005   3.096   3.122
 2169TIP3    H1 6513   1.926   3.135   3.165
 2169TIP3    H2 6514   2.044   3.172   3.078
 2170TIP3   OH2 6515   2.468   3.196   2.892
 2170TIP3    H1 6516   2.396   3.237   2.942
 2170TIP3    H2 6517   2.529   3.170   2.963
 2171TIP3   OH2 6518   2.973   3.312   2.904
 2171TIP3    H1 6519   2.939   3.396   2.868
 2171TIP3    H2 6520   2.935   3.246   2.846
 2172TIP3   OH2 6521   1.695   2.948   3.027
 2172TIP3    H1 6522   1.729   2.931   3.117
 2172TIP3    H2 6523   1.771   2.912   2.975
 2173TIP3   OH2 6524   1.889   2.824   2.881
 2173TIP3    H1 6525   1.907   2.740   2.931
 2173TIP3    H2 6526   1.980   2.862   2.878
 2174TIP3   OH2 6527   2.149   2.911   2.882
 2174TIP3    H1 6528   2.191   2.823   2.893
 2174TIP3    H2 6529   2.170   2.952   2.967
 2175TIP3   OH2 6530   2.742   1.576   2.984
 2175TIP3    H1 6531   2.694   1.505   3.030
 2175TIP3    H2 6532   2.809   1.527   2.933
 2176TIP3   OH2 6533   3.253   1.456   2.876
 2176TIP3    H1 6534   3.288   1.509   2.801
 2176TIP3    H2 6535   3.158   1.477   2.872
 2177TIP3   OH2 6536   3.352   1.549   2.640
 2177TIP3    H1 6537   3.426   1.499   2.602
 2177TIP3    H2 6538   3.385   1.641   2.626
 2178TIP3   OH2 6539   1.981   1.280   2.987
 2178TIP3    H1 6540   1.889   1.247   2.990
 2178TIP3    H2 6541   2.030   1.195   2.983
 2179TIP3   OH2 6542   1.778   1.155   2.641
 2179TIP3    H1 6543   1.802   1.212   2.566
 2179TIP3    H2 6544   1.745   1.220   2.706
 2180TIP3   OH2 6545   2.432   1.312   2.869
 2180TIP3    H1 6546   2.487   1.362   2.807
 2180TIP3    H2 6547   2.453   1.354   2.953
 2181TIP3   OH2 6548   2.972   1.462   2.852
 2181TIP3    H1 6549   2.966   1.423   2.764
 2181TIP3    H2 6550   2.961   1.383   2.909
 2182TIP3   OH2 6551   3.005   1.389   2.418
 2182TIP3    H1 6552   2.921   1.435   2.437
 2182TIP3    H2 6553   2.988   1.302   2.460
 2183TIP3   OH2 6554   1.485   2.730   2.412
 2183TIP3    H1 6555   1.399   2.698   2.378
 2183TIP3    H2 6556   1.478   2.824   2.389
 2184TIP3   OH2 6557   1.891   1.310   2.399
 2184TIP3    H1 6558   1.938   1.248   2.342
 2184TIP3    H2 6559   1.964   1.364   2.435
 2185TIP3   OH2 6560   2.397   1.490   2.498
 2185TIP3    H1 6561   2.456   1.444   2.560
 2185TIP3    H2 6562   2.416   1.583   2.523
 2186TIP3   OH2 6563   2.258   2.907   1.996
 2186TIP3    H1 6564   2.346   2.930   1.961
 2186TIP3    H2 6565   2.237   2.830   1.939
 2187TIP3   OH2 6566   2.985   3.036   2.092
 2187TIP3    H1 6567   2.975   2.938   2.083
 2187TIP3    H2 6568   2.934   3.066   2.014
 2188TIP3   OH2 6569   2.188   1.559   3.878
 2188TIP3    H1 6570   2.154   1.489   3.937
 2188TIP3    H2 6571   2.282   1.561   3.906
 2189TIP3   OH2 6572   2.438   1.561   3.998
 2189TIP3    H1 6573   2.524   1.537   3.960
 2189TIP3    H2 6574   2.426   1.490   4.064
 2190TIP3   OH2 6575   1.561   2.747   2.053
 2190TIP3    H1 6576   1.567   2.761   2.149
 2190TIP3    H2 6577   1.647   2.703   2.034
 2191TIP3   OH2 6578   3.267   1.626   3.785
 2191TIP3    H1 6579   3.283   1.597   3.878
 2191TIP3    H2 6580   3.356   1.621   3.747
 2192TIP3   OH2 6581   4.471   2.550   2.039
 2192TIP3    H1 6582   4.440   2.640   2.017
 2192TIP3    H2 6583   4.396   2.498   2.008
 2193TIP3   OH2 6584   4.471   2.551   2.433
 2193TIP3    H1 6585   4.508   2.527   2.520
 2193TIP3    H2 6586   4.429   2.468   2.406
 2194TIP3   OH2 6587   3.766   2.433   2.791
 2194TIP3    H1 6588   3.801   2.369   2.855
 2194TIP3    H2 6589   3.832   2.504   2.796
 2195TIP3   OH2 6590   4.718   2.853   2.112
 2195TIP3    H1 6591   4.701   2.787   2.181
 2195TIP3    H2 6592   4.748   2.930   2.163
 2196TIP3   OH2 6593   3.741   2.852   2.504
 2196TIP3    H1 6594   3.732   2.755   2.510
 2196TIP3    H2 6595   3.838   2.861   2.501
 2197TIP3   OH2 6596   3.448   2.053   2.294
 2197TIP3    H1 6597   3.400   2.135   2.315
 2197TIP3    H2 6598   3.376   2.004   2.249
 2198TIP3   OH2 6599   3.505   2.342   2.477
 2198TIP3    H1 6600   3.556   2.266   2.511
 2198TIP3    H2 6601   3.566   2.383   2.414
 2199TIP3   OH2 6602   4.369   3.312   2.125
 2199TIP3    H1 6603   4.410   3.239   2.073
 2199TIP3    H2 6604   4.349   3.269   2.208
 2200TIP3   OH2 6605   4.267   2.773   2.479
 2200TIP3    H1 6606   4.309   2.698   2.433
 2200TIP3    H2 6607   4.348   2.820   2.507
 2201TIP3   OH2 6608   5.286   2.093   2.472
 2201TIP3    H1 6609   5.314   2.177   2.515
 2201TIP3    H2 6610   5.310   2.110   2.379
 2202TIP3   OH2 6611   4.681   2.272   2.502
 2202TIP3    H1 6612   4.724   2.187   2.523
 2202TIP3    H2 6613   4.648   2.255   2.412
 2203TIP3   OH2 6614   4.025   1.934   2.468
 2203TIP3    H1 6615   4.003   2.007   2.406
 2203TIP3    H2 6616   3.974   1.861   2.426
 2204TIP3   OH2 6617   4.717   2.025   2.090
 2204TIP3    H1 6618   4.789   2.013   2.156
 2204TIP3    H2 6619   4.768   2.062   2.015
 2205TIP3   OH2 6620   3.652   2.135   2.581
 2205TIP3    H1 6621   3.735   2.117   2.627
 2205TIP3    H2 6622   3.665   2.081   2.500
 2206TIP3   OH2 6623   4.093   2.333   2.370
 2206TIP3    H1 6624   4.187   2.309   2.384
 2206TIP3    H2 6625   4.054   2.249   2.339
 2207TIP3   OH2 6626   5.356   2.303   2.643
 2207TIP3    H1 6627   5.271   2.349   2.625
 2207TIP3    H2 6628   5.379   2.340   2.730
 2208TIP3   OH2 6629   4.018   1.916   2.903
 2208TIP3    H1 6630   3.959   1.954   2.835
 2208TIP3    H2 6631   3.965   1.936   2.984
 2209TIP3   OH2 6632   4.358   2.767   1.910
 2209TIP3    H1 6633   4.317   2.755   1.823
 2209TIP3    H2 6634   4.313   2.850   1.939
 2210TIP3   OH2 6635   4.112   2.690   2.694
 2210TIP3    H1 6636   4.055   2.757   2.732
 2210TIP3    H2 6637   4.155   2.738   2.620
 2211TIP3   OH2 6638   4.917   2.033   2.274
 2211TIP3    H1 6639   4.893   1.998   2.361
 2211TIP3    H2 6640   4.970   2.111   2.298
 2212TIP3   OH2 6641   3.889   2.032   2.688
 2212TIP3    H1 6642   3.948   2.106   2.712
 2212TIP3    H2 6643   3.939   1.993   2.613
 2213TIP3   OH2 6644   3.342   2.580   2.032
 2213TIP3    H1 6645   3.298   2.607   1.950
 2213TIP3    H2 6646   3.371   2.666   2.069
 2214TIP3   OH2 6647   4.782   3.095   2.269
 2214TIP3    H1 6648   4.692   3.088   2.309
 2214TIP3    H2 6649   4.776   3.183   2.226
 2215TIP3   OH2 6650   5.079   1.988   2.636
 2215TIP3    H1 6651   4.993   2.019   2.606
 2215TIP3    H2 6652   5.140   2.022   2.567
 2216TIP3   OH2 6653   4.367   1.633   2.623
 2216TIP3    H1 6654   4.351   1.539   2.641
 2216TIP3    H2 6655   4.291   1.674   2.669
 2217TIP3   OH2 6656   4.481   3.139   1.942
 2217TIP3    H1 6657   4.533   3.057   1.923
 2217TIP3    H2 6658   4.541   3.206   1.902
 2218TIP3   OH2 6659   4.626   2.923   1.860
 2218TIP3    H1 6660   4.584   2.842   1.827
 2218TIP3    H2 6661   4.666   2.892   1.944
 2219TIP3   OH2 6662   5.011   3.004   2.617
 2219TIP3    H1 6663   4.997   2.928   2.556
 2219TIP3    H2 6664   4.992   3.080   2.558
 2220TIP3   OH2 6665   4.300   2.399   1.878
 2220TIP3    H1 6666   4.220   2.451   1.859
 2220TIP3    H2 6667   4.346   2.399   1.792
 2221TIP3   OH2 6668   4.258   2.190   1.586
 2221TIP3    H1 6669   4.325   2.240   1.636
 2221TIP3    H2 6670   4.315   2.126   1.539
 2222TIP3   OH2 6671   5.204   2.646   2.466
 2222TIP3    H1 6672   5.120   2.697   2.469
 2222TIP3    H2 6673   5.234   2.668   2.376
 2223TIP3   OH2 6674   4.649   2.483   1.844
 2223TIP3    H1 6675   4.594   2.509   1.922
 2223TIP3    H2 6676   4.733   2.459   1.888
 2224TIP3   OH2 6677   4.882   2.519   2.766
 2224TIP3    H1 6678   4.881   2.603   2.816
 2224TIP3    H2 6679   4.796   2.526   2.719
 2225TIP3   OH2 6680   3.880   2.476   2.264
 2225TIP3    H1 6681   3.841   2.419   2.195
 2225TIP3    H2 6682   3.958   2.423   2.292
 2226TIP3   OH2 6683   4.009   2.886   2.408
 2226TIP3    H1 6684   3.991   2.854   2.319
 2226TIP3    H2 6685   4.100   2.855   2.425
 2227TIP3   OH2 6686   4.022   2.443   2.615
 2227TIP3    H1 6687   4.052   2.423   2.524
 2227TIP3    H2 6688   4.058   2.533   2.632
 2228TIP3   OH2 6689   4.544   3.089   2.396
 2228TIP3    H1 6690   4.525   3.170   2.446
 2228TIP3    H2 6691   4.525   3.018   2.461
 2229TIP3   OH2 6692   4.486   2.341   1.674
 2229TIP3    H1 6693   4.546   2.401   1.723
 2229TIP3    H2 6694   4.512   2.362   1.581
 2230TIP3   OH2 6695   4.236   3.015   1.947
 2230TIP3    H1 6696   4.318   3.068   1.954
 2230TIP3    H2 6697   4.174   3.077   1.907
 2231TIP3   OH2 6698   5.004   1.578   1.724
 2231TIP3    H1 6699   4.922   1.602   1.773
 2231TIP3    H2 6700   5.018   1.660   1.672
 2232TIP3   OH2 6701   3.750   2.322   2.061
 2232TIP3    H1 6702   3.679   2.368   2.012
 2232TIP3    H2 6703   3.708   2.238   2.080
 2233TIP3   OH2 6704   4.805   2.946   1.272
 2233TIP3    H1 6705   4.812   3.043   1.257
 2233TIP3    H2 6706   4.898   2.918   1.258
 2234TIP3   OH2 6707   3.512   2.711   2.982
 2234TIP3    H1 6708   3.453   2.680   2.913
 2234TIP3    H2 6709   3.556   2.632   3.016
 2235TIP3   OH2 6710   3.381   2.899   2.610
 2235TIP3    H1 6711   3.477   2.904   2.612
 2235TIP3    H2 6712   3.356   2.976   2.664
 2236TIP3   OH2 6713   5.248   3.356   2.671
 2236TIP3    H1 6714   5.246   3.260   2.685
 2236TIP3    H2 6715   5.164   3.382   2.715
 2237TIP3   OH2 6716   4.118   3.263   1.752
 2237TIP3    H1 6717   4.068   3.246   1.670
 2237TIP3    H2 6718   4.083   3.349   1.781
 2238TIP3   OH2 6719   3.553   3.113   2.135
 2238TIP3    H1 6720   3.598   3.106   2.222
 2238TIP3    H2 6721   3.497   3.034   2.137
 2239TIP3   OH2 6722   4.314   3.168   1.388
 2239TIP3    H1 6723   4.372   3.096   1.353
 2239TIP3    H2 6724   4.350   3.178   1.479
 2240TIP3   OH2 6725   4.368   3.217   1.656
 2240TIP3    H1 6726   4.280   3.225   1.700
 2240TIP3    H2 6727   4.421   3.181   1.729
 2241TIP3   OH2 6728   5.136   2.481   2.943
 2241TIP3    H1 6729   5.052   2.492   2.896
 2241TIP3    H2 6730   5.151   2.385   2.933
 2242TIP3   OH2 6731   4.131   1.712   2.753
 2242TIP3    H1 6732   4.042   1.682   2.723
 2242TIP3    H2 6733   4.105   1.793   2.801
 2243TIP3   OH2 6734   4.668   1.824   2.946
 2243TIP3    H1 6735   4.737   1.800   3.010
 2243TIP3    H2 6736   4.585   1.807   2.995
 2244TIP3   OH2 6737   4.900   2.257   2.862
 2244TIP3    H1 6738   4.851   2.254   2.947
 2244TIP3    H2 6739   4.878   2.345   2.827
 2245TIP3   OH2 6740   4.564   2.376   1.416
 2245TIP3    H1 6741   4.529   2.359   1.327
 2245TIP3    H2 6742   4.647   2.422   1.395
 2246TIP3   OH2 6743   4.277   1.758   1.722
 2246TIP3    H1 6744   4.242   1.757   1.813
 2246TIP3    H2 6745   4.235   1.677   1.687
 2247TIP3   OH2 6746   4.063   2.227   2.772
 2247TIP3    H1 6747   4.016   2.253   2.853
 2247TIP3    H2 6748   4.048   2.307   2.715
 2248TIP3   OH2 6749   3.947   2.115   2.282
 2248TIP3    H1 6750   3.854   2.090   2.301
 2248TIP3    H2 6751   3.958   2.074   2.193
 2249TIP3   OH2 6752   4.436   2.199   2.012
 2249TIP3    H1 6753   4.386   2.271   1.968
 2249TIP3    H2 6754   4.492   2.166   1.939
 2250TIP3   OH2 6755   4.620   2.469   3.088
 2250TIP3    H1 6756   4.596   2.399   3.153
 2250TIP3    H2 6757   4.711   2.488   3.116
 2251TIP3   OH2 6758   4.593   2.224   2.247
 2251TIP3    H1 6759   4.530   2.252   2.178
 2251TIP3    H2 6760   4.629   2.145   2.201
 2252TIP3   OH2 6761   3.880   2.261   2.984
 2252TIP3    H1 6762   3.935   2.307   3.049
 2252TIP3    H2 6763   3.868   2.174   3.028
 2253TIP3   OH2 6764   3.936   1.736   1.687
 2253TIP3    H1 6765   3.923   1.736   1.784
 2253TIP3    H2 6766   3.858   1.787   1.659
 2254TIP3   OH2 6767   3.477   1.773   2.560
 2254TIP3    H1 6768   3.550   1.810   2.614
 2254TIP3    H2 6769   3.519   1.752   2.476
 2255TIP3   OH2 6770   3.436   1.758   2.075
 2255TIP3    H1 6771   3.480   1.797   1.996
 2255TIP3    H2 6772   3.375   1.831   2.097
 2256TIP3   OH2 6773   4.602   2.471   2.667
 2256TIP3    H1 6774   4.636   2.399   2.608
 2256TIP3    H2 6775   4.572   2.417   2.743
 2257TIP3   OH2 6776   4.282   1.929   2.340
 2257TIP3    H1 6777   4.200   1.932   2.395
 2257TIP3    H2 6778   4.351   1.929   2.408
 2258TIP3   OH2 6779   3.709   1.996   2.349
 2258TIP3    H1 6780   3.615   2.004   2.320
 2258TIP3    H2 6781   3.731   1.904   2.325
 2259TIP3   OH2 6782   3.972   1.986   2.042
 2259TIP3    H1 6783   4.066   2.004   2.021
 2259TIP3    H2 6784   3.925   2.010   1.960
 2260TIP3   OH2 6785   4.768   2.011   2.543
 2260TIP3    H1 6786   4.740   2.024   2.636
 2260TIP3    H2 6787   4.696   1.953   2.511
 2261TIP3   OH2 6788   3.827   2.021   1.815
 2261TIP3    H1 6789   3.756   1.977   1.765
 2261TIP3    H2 6790   3.879   2.061   1.742
 2262TIP3   OH2 6791   4.957   3.696   2.755
 2262TIP3    H1 6792   4.942   3.737   2.668
 2262TIP3    H2 6793   4.956   3.772   2.814
 2263TIP3   OH2 6794   4.357   2.267   2.440
 2263TIP3    H1 6795   4.432   2.228   2.393
 2263TIP3    H2 6796   4.362   2.223   2.528
 2264TIP3   OH2 6797   3.874   1.751   2.326
 2264TIP3    H1 6798   3.838   1.674   2.375
 2264TIP3    H2 6799   3.914   1.709   2.249
 2265TIP3   OH2 6800   4.332   2.168   2.727
 2265TIP3    H1 6801   4.242   2.201   2.745
 2265TIP3    H2 6802   4.389   2.228   2.779
 2266TIP3   OH2 6803   4.071   2.549   1.824
 2266TIP3    H1 6804   3.997   2.487   1.811
 2266TIP3    H2 6805   4.050   2.585   1.914
 2267TIP3   OH2 6806   4.968   2.788   2.448
 2267TIP3    H1 6807   4.994   2.840   2.369
 2267TIP3    H2 6808   4.883   2.749   2.421
 2268TIP3   OH2 6809   4.528   1.861   1.694
 2268TIP3    H1 6810   4.431   1.842   1.702
 2268TIP3    H2 6811   4.534   1.955   1.718
 2269TIP3   OH2 6812   4.504   2.837   2.847
 2269TIP3    H1 6813   4.542   2.795   2.925
 2269TIP3    H2 6814   4.462   2.913   2.888
 2270TIP3   OH2 6815   4.594   2.112   1.794
 2270TIP3    H1 6816   4.691   2.120   1.808
 2270TIP3    H2 6817   4.574   2.193   1.743
 2271TIP3   OH2 6818   3.767   2.575   2.499
 2271TIP3    H1 6819   3.807   2.546   2.415
 2271TIP3    H2 6820   3.806   2.512   2.563
 2272TIP3   OH2 6821   4.216   2.702   1.649
 2272TIP3    H1 6822   4.167   2.787   1.652
 2272TIP3    H2 6823   4.162   2.646   1.709
 2273TIP3   OH2 6824   3.601   2.485   3.156
 2273TIP3    H1 6825   3.686   2.496   3.204
 2273TIP3    H2 6826   3.619   2.418   3.092
 2274TIP3   OH2 6827   4.379   2.587   3.138
 2274TIP3    H1 6828   4.326   2.547   3.068
 2274TIP3    H2 6829   4.469   2.558   3.113
 2275TIP3   OH2 6830   4.644   3.120   2.718
 2275TIP3    H1 6831   4.552   3.145   2.712
 2275TIP3    H2 6832   4.673   3.172   2.796
 2276TIP3   OH2 6833   5.034   2.207   1.626
 2276TIP3    H1 6834   4.973   2.162   1.563
 2276TIP3    H2 6835   5.030   2.297   1.586
 2277TIP3   OH2 6836   5.259   3.064   2.707
 2277TIP3    H1 6837   5.161   3.058   2.698
 2277TIP3    H2 6838   5.285   3.034   2.617
 2278TIP3   OH2 6839   4.740   3.024   1.537
 2278TIP3    H1 6840   4.712   2.954   1.598
 2278TIP3    H2 6841   4.753   2.976   1.453
 2279TIP3   OH2 6842   4.732   2.654   2.362
 2279TIP3    H1 6843   4.640   2.627   2.378
 2279TIP3    H2 6844   4.768   2.574   2.320
 2280TIP3   OH2 6845   3.866   2.880   2.125
 2280TIP3    H1 6846   3.861   2.961   2.071
 2280TIP3    H2 6847   3.773   2.867   2.147
 2281TIP3   OH2 6848   3.432   2.182   1.836
 2281TIP3    H1 6849   3.475   2.268   1.857
 2281TIP3    H2 6850   3.353   2.187   1.894
 2282TIP3   OH2 6851   3.993   2.642   2.067
 2282TIP3    H1 6852   3.960   2.733   2.085
 2282TIP3    H2 6853   3.958   2.593   2.143
 2283TIP3   OH2 6854   4.152   3.221   2.536
 2283TIP3    H1 6855   4.194   3.298   2.495
 2283TIP3    H2 6856   4.174   3.232   2.629
 2284TIP3   OH2 6857   3.781   3.117   1.977
 2284TIP3    H1 6858   3.696   3.125   2.024
 2284TIP3    H2 6859   3.813   3.210   1.982
 2285TIP3   OH2 6860   4.517   2.859   2.567
 2285TIP3    H1 6861   4.521   2.847   2.664
 2285TIP3    H2 6862   4.596   2.811   2.539
 2286TIP3   OH2 6863   4.499   2.753   1.438
 2286TIP3    H1 6864   4.553   2.728   1.517
 2286TIP3    H2 6865   4.411   2.724   1.467
 2287TIP3   OH2 6866   4.775   3.382   2.596
 2287TIP3    H1 6867   4.692   3.332   2.588
 2287TIP3    H2 6868   4.761   3.454   2.531
 2288TIP3   OH2 6869   4.835   3.223   1.255
 2288TIP3    H1 6870   4.873   3.298   1.206
 2288TIP3    H2 6871   4.754   3.267   1.290
 2289TIP3   OH2 6872   3.859   2.001   3.112
 2289TIP3    H1 6873   3.762   2.003   3.115
 2289TIP3    H2 6874   3.881   1.949   3.192
 2290TIP3   OH2 6875   4.660   2.680   1.648
 2290TIP3    H1 6876   4.651   2.616   1.721
 2290TIP3    H2 6877   4.758   2.680   1.638
 2291TIP3   OH2 6878   3.582   3.097   2.748
 2291TIP3    H1 6879   3.651   3.035   2.778
 2291TIP3    H2 6880   3.547   3.128   2.833
 2292TIP3   OH2 6881   3.861   2.730   1.437
 2292TIP3    H1 6882   3.872   2.636   1.412
 2292TIP3    H2 6883   3.840   2.722   1.532
 2293TIP3   OH2 6884   3.804   2.736   1.708
 2293TIP3    H1 6885   3.876   2.709   1.767
 2293TIP3    H2 6886   3.806   2.834   1.717
 2294TIP3   OH2 6887   3.538   2.427   1.915
 2294TIP3    H1 6888   3.471   2.472   1.971
 2294TIP3    H2 6889   3.550   2.495   1.846
 2295TIP3   OH2 6890   4.698   2.060   2.803
 2295TIP3    H1 6891   4.775   2.104   2.844
 2295TIP3    H2 6892   4.685   1.981   2.859
 2296TIP3   OH2 6893   4.578   1.810   1.975
 2296TIP3    H1 6894   4.562   1.833   1.882
 2296TIP3    H2 6895   4.618   1.892   2.010
 2297TIP3   OH2 6896   4.073   2.932   1.656
 2297TIP3    H1 6897   3.986   2.955   1.693
 2297TIP3    H2 6898   4.090   3.010   1.600
 2298TIP3   OH2 6899   4.256   1.997   2.072
 2298TIP3    H1 6900   4.320   2.070   2.055
 2298TIP3    H2 6901   4.264   1.988   2.169
 2299TIP3   OH2 6902   4.530   2.310   2.876
 2299TIP3    H1 6903   4.558   2.364   2.953
 2299TIP3    H2 6904   4.583   2.229   2.888
 2300TIP3   OH2 6905   4.403   1.713   2.172
 2300TIP3    H1 6906   4.390   1.792   2.228
 2300TIP3    H2 6907   4.467   1.748   2.106
 2301TIP3   OH2 6908   3.819   3.008   1.727
 2301TIP3    H1 6909   3.790   3.079   1.666
 2301TIP3    H2 6910   3.803   3.050   1.815
 2302TIP3   OH2 6911   3.917   1.721   1.963
 2302TIP3    H1 6912   3.912   1.811   2.000
 2302TIP3    H2 6913   4.014   1.707   1.971
 2303TIP3   OH2 6914   5.166   2.213   2.863
 2303TIP3    H1 6915   5.068   2.212   2.869
 2303TIP3    H2 6916   5.179   2.173   2.776
 2304TIP3   OH2 6917   4.820   2.407   2.248
 2304TIP3    H1 6918   4.744   2.349   2.261
 2304TIP3    H2 6919   4.891   2.360   2.298
 2305TIP3   OH2 6920   3.536   2.630   1.718
 2305TIP3    H1 6921   3.606   2.697   1.726
 2305TIP3    H2 6922   3.578   2.572   1.651
 2306TIP3   OH2 6923   3.475   1.910   1.850
 2306TIP3    H1 6924   3.479   2.008   1.851
 2306TIP3    H2 6925   3.391   1.895   1.805
 2307TIP3   OH2 6926   4.791   3.366   2.194
 2307TIP3    H1 6927   4.749   3.413   2.118
 2307TIP3    H2 6928   4.886   3.385   2.175
 2308TIP3   OH2 6929   3.868   1.632   2.720
 2308TIP3    H1 6930   3.836   1.599   2.633
 2308TIP3    H2 6931   3.855   1.553   2.777
 2309TIP3   OH2 6932   3.397   2.846   2.102
 2309TIP3    H1 6933   3.341   2.879   2.173
 2309TIP3    H2 6934   3.363   2.894   2.023
 2310TIP3   OH2 6935   4.022   2.931   1.343
 2310TIP3    H1 6936   3.968   2.860   1.384
 2310TIP3    H2 6937   4.099   2.880   1.312
 2311TIP3   OH2 6938   4.673   3.265   2.945
 2311TIP3    H1 6939   4.659   3.205   3.022
 2311TIP3    H2 6940   4.746   3.322   2.978
 2312TIP3   OH2 6941   4.458   2.969   1.262
 2312TIP3    H1 6942   4.498   2.904   1.323
 2312TIP3    H2 6943   4.517   2.966   1.184
 2313TIP3   OH2 6944   3.673   2.444   1.573
 2313TIP3    H1 6945   3.731   2.417   1.646
 2313TIP3    H2 6946   3.740   2.450   1.501
 2314TIP3   OH2 6947   4.347   2.864   3.150
 2314TIP3    H1 6948   4.264   2.872   3.197
 2314TIP3    H2 6949   4.364   2.767   3.155
 2315TIP3   OH2 6950   4.191   2.649   1.379
 2315TIP3    H1 6951   4.189   2.662   1.476
 2315TIP3    H2 6952   4.189   2.551   1.374
 2316TIP3   OH2 6953   4.800   2.892   2.755
 2316TIP3    H1 6954   4.875   2.939   2.712
 2316TIP3    H2 6955   4.730   2.959   2.744
 2317TIP3   OH2 6956   3.808   2.469   3.353
 2317TIP3    H1 6957   3.901   2.492   3.340
 2317TIP3    H2 6958   3.783   2.546   3.407
 2318TIP3   OH2 6959   3.873   2.358   1.788
 2318TIP3    H1 6960   3.846   2.321   1.873
 2318TIP3    H2 6961   3.911   2.280   1.742
 2319TIP3   OH2 6962   4.135   2.413   3.017
 2319TIP3    H1 6963   4.101   2.496   3.051
 2319TIP3    H2 6964   4.189   2.444   2.941
 2320TIP3   OH2 6965   3.982   2.151   1.630
 2320TIP3    H1 6966   3.955   2.160   1.537
 2320TIP3    H2 6967   4.079   2.157   1.622
 2321TIP3   OH2 6968   4.668   2.813   3.141
 2321TIP3    H1 6969   4.756   2.791   3.111
 2321TIP3    H2 6970   4.660   2.758   3.222
 2322TIP3   OH2 6971   4.797   2.476   1.301
 2322TIP3    H1 6972   4.777   2.433   1.215
 2322TIP3    H2 6973   4.766   2.567   1.280
 2323TIP3   OH2 6974   4.272   2.207   3.142
 2323TIP3    H1 6975   4.274   2.128   3.083
 2323TIP3    H2 6976   4.226   2.273   3.086
 2324TIP3   OH2 6977   4.275   1.995   2.951
 2324TIP3    H1 6978   4.303   2.036   2.867
 2324TIP3    H2 6979   4.182   1.972   2.933
 2325TIP3   OH2 6980   4.294   2.533   2.833
 2325TIP3    H1 6981   4.380   2.547   2.791
 2325TIP3    H2 6982   4.237   2.594   2.783
 2326TIP3   OH2 6983   4.881   2.494   3.202
 2326TIP3    H1 6984   4.931   2.412   3.215
 2326TIP3    H2 6985   4.949   2.553   3.165
 2327TIP3   OH2 6986   4.924   2.746   2.942
 2327TIP3    H1 6987   4.865   2.802   2.885
 2327TIP3    H2 6988   5.011   2.769   2.903
 2328TIP3   OH2 6989   4.149   2.305   3.377
 2328TIP3    H1 6990   4.072   2.248   3.391
 2328TIP3    H2 6991   4.182   2.276   3.290
 2329TIP3   OH2 6992   4.404   1.756   3.025
 2329TIP3    H1 6993   4.357   1.838   3.000
 2329TIP3    H2 6994   4.334   1.689   3.014
 2330TIP3   OH2 6995   4.532   2.258   3.237
 2330TIP3    H1 6996   4.516   2.247   3.333
 2330TIP3    H2 6997   4.442   2.236   3.204
 2331TIP3   OH2 6998   4.769   2.204   3.091
 2331TIP3    H1 6999   4.693   2.209   3.153
 2331TIP3    H2 7000   4.843   2.178   3.150
 2332TIP3   OH2 7001   5.001   2.155   3.243
 2332TIP3    H1 7002   5.014   2.059   3.258
 2332TIP3    H2 7003   4.995   2.190   3.334
 2333TIP3   OH2 7004   3.962   2.098   3.433
 2333TIP3    H1 7005   3.974   2.006   3.405
 2333TIP3    H2 7006   4.001   2.095   3.523
 2334TIP3   OH2 7007   4.497   1.766   3.283
 2334TIP3    H1 7008   4.564   1.695   3.276
 2334TIP3    H2 7009   4.457   1.763   3.194
 2335TIP3   OH2 7010   4.564   1.980   3.441
 2335TIP3    H1 7011   4.540   1.910   3.376
 2335TIP3    H2 7012   4.486   2.040   3.435
 2336TIP3   OH2 7013   3.791   3.211   1.540
 2336TIP3    H1 7014   3.885   3.201   1.519
 2336TIP3    H2 7015   3.762   3.263   1.462
 2337TIP3   OH2 7016   3.266   2.594   1.747
 2337TIP3    H1 7017   3.362   2.614   1.738
 2337TIP3    H2 7018   3.260   2.505   1.707
 2338TIP3   OH2 7019   3.187   3.203   2.172
 2338TIP3    H1 7020   3.119   3.144   2.134
 2338TIP3    H2 7021   3.229   3.143   2.237
 2339TIP3   OH2 7022   3.322   3.048   2.357
 2339TIP3    H1 7023   3.305   2.980   2.424
 2339TIP3    H2 7024   3.365   3.116   2.412
 2340TIP3   OH2 7025   5.048   3.449   2.158
 2340TIP3    H1 7026   5.069   3.484   2.247
 2340TIP3    H2 7027   5.110   3.498   2.102
 2341TIP3   OH2 7028   5.071   3.475   2.439
 2341TIP3    H1 7029   5.031   3.386   2.437
 2341TIP3    H2 7030   5.145   3.459   2.498
 2342TIP3   OH2 7031   5.124   3.151   3.013
 2342TIP3    H1 7032   5.050   3.161   3.077
 2342TIP3    H2 7033   5.164   3.241   3.016
 2343TIP3   OH2 7034   4.939   2.663   1.628
 2343TIP3    H1 7035   5.005   2.730   1.599
 2343TIP3    H2 7036   4.984   2.626   1.707
 2344TIP3   OH2 7037   5.067   2.530   1.833
 2344TIP3    H1 7038   4.999   2.490   1.893
 2344TIP3    H2 7039   5.132   2.567   1.896
 2345TIP3   OH2 7040   5.123   2.927   2.265
 2345TIP3    H1 7041   5.176   2.860   2.218
 2345TIP3    H2 7042   5.120   3.001   2.201
 2346TIP3   OH2 7043   4.951   3.221   2.457
 2346TIP3    H1 7044   4.882   3.266   2.510
 2346TIP3    H2 7045   4.899   3.177   2.387
 2347TIP3   OH2 7046   5.001   2.440   1.479
 2347TIP3    H1 7047   4.928   2.443   1.413
 2347TIP3    H2 7048   4.976   2.517   1.534
 2348TIP3   OH2 7049   4.872   2.111   1.430
 2348TIP3    H1 7050   4.824   2.148   1.356
 2348TIP3    H2 7051   4.852   2.015   1.421
 2349TIP3   OH2 7052   4.875   2.392   1.978
 2349TIP3    H1 7053   4.884   2.295   1.972
 2349TIP3    H2 7054   4.861   2.405   2.074
 2350TIP3   OH2 7055   3.502   2.460   2.726
 2350TIP3    H1 7056   3.498   2.428   2.633
 2350TIP3    H2 7057   3.599   2.462   2.740
 2351TIP3   OH2 7058   5.168   2.815   2.838
 2351TIP3    H1 7059   5.239   2.748   2.824
 2351TIP3    H2 7060   5.192   2.884   2.775
 2352TIP3   OH2 7061   5.349   2.613   2.839
 2352TIP3    H1 7062   5.274   2.566   2.883
 2352TIP3    H2 7063   5.422   2.551   2.860
 2353TIP3   OH2 7064   4.817   1.844   1.411
 2353TIP3    H1 7065   4.888   1.813   1.471
 2353TIP3    H2 7066   4.741   1.788   1.435
 2354TIP3   OH2 7067   4.875   2.108   1.869
 2354TIP3    H1 7068   4.917   2.020   1.883
 2354TIP3    H2 7069   4.931   2.143   1.798
 2355TIP3   OH2 7070   5.033   2.274   2.369
 2355TIP3    H1 7071   5.118   2.298   2.327
 2355TIP3    H2 7072   5.048   2.313   2.457
 2356TIP3   OH2 7073   5.106   2.423   2.598
 2356TIP3    H1 7074   5.030   2.457   2.648
 2356TIP3    H2 7075   5.138   2.505   2.554
 2357TIP3   OH2 7076   3.645   2.153   3.392
 2357TIP3    H1 7077   3.727   2.201   3.390
 2357TIP3    H2 7078   3.675   2.070   3.436
 2358TIP3   OH2 7079   5.556   2.019   3.154
 2358TIP3    H1 7080   5.615   1.953   3.111
 2358TIP3    H2 7081   5.525   2.071   3.077
 2359TIP3   OH2 7082   4.984   1.858   1.910
 2359TIP3    H1 7083   5.031   1.840   1.994
 2359TIP3    H2 7084   4.922   1.781   1.908
 2360TIP3   OH2 7085   3.684   1.840   2.732
 2360TIP3    H1 7086   3.748   1.767   2.739
 2360TIP3    H2 7087   3.744   1.916   2.723
 2361TIP3   OH2 7088   3.483   2.112   2.810
 2361TIP3    H1 7089   3.532   2.113   2.726
 2361TIP3    H2 7090   3.488   2.204   2.837
 2362TIP3   OH2 7091   5.423   2.151   2.958
 2362TIP3    H1 7092   5.337   2.194   2.976
 2362TIP3    H2 7093   5.392   2.078   2.901
 2363TIP3   OH2 7094   5.058   1.786   1.548
 2363TIP3    H1 7095   5.098   1.719   1.490
 2363TIP3    H2 7096   5.123   1.859   1.545
 2364TIP3   OH2 7097   3.469   1.612   2.301
 2364TIP3    H1 7098   3.377   1.609   2.334
 2364TIP3    H2 7099   3.462   1.673   2.225
 2365TIP3   OH2 7100   4.625   3.323   1.810
 2365TIP3    H1 7101   4.681   3.314   1.730
 2365TIP3    H2 7102   4.674   3.388   1.862
 2366TIP3   OH2 7103   3.688   1.696   3.118
 2366TIP3    H1 7104   3.634   1.690   3.198
 2366TIP3    H2 7105   3.624   1.735   3.055
 2367TIP3   OH2 7106   4.509   3.535   2.743
 2367TIP3    H1 7107   4.572   3.489   2.685
 2367TIP3    H2 7108   4.573   3.588   2.798
 2368TIP3   OH2 7109   5.325   1.914   2.840
 2368TIP3    H1 7110   5.235   1.905   2.803
 2368TIP3    H2 7111   5.360   1.822   2.829
 2369TIP3   OH2 7112   3.844   3.429   2.629
 2369TIP3    H1 7113   3.777   3.369   2.660
 2369TIP3    H2 7114   3.813   3.449   2.538
 2370TIP3   OH2 7115   4.254   3.438   2.407
 2370TIP3    H1 7116   4.177   3.450   2.349
 2370TIP3    H2 7117   4.265   3.527   2.445
 2371TIP3   OH2 7118   4.512   3.360   2.484
 2371TIP3    H1 7119   4.422   3.383   2.454
 2371TIP3    H2 7120   4.565   3.425   2.434
 2372TIP3   OH2 7121   4.708   3.546   2.387
 2372TIP3    H1 7122   4.699   3.633   2.343
 2372TIP3    H2 7123   4.741   3.490   2.312
 2373TIP3   OH2 7124   3.501   3.215   2.512
 2373TIP3    H1 7125   3.524   3.181   2.602
 2373TIP3    H2 7126   3.569   3.169   2.459
 2374TIP3   OH2 7127   3.687   3.082   2.369
 2374TIP3    H1 7128   3.700   2.998   2.418
 2374TIP3    H2 7129   3.779   3.118   2.369
 2375TIP3   OH2 7130   3.949   3.169   2.364
 2375TIP3    H1 7131   3.977   3.075   2.358
 2375TIP3    H2 7132   4.008   3.196   2.438
 2376TIP3   OH2 7133   4.532   1.831   2.464
 2376TIP3    H1 7134   4.490   1.758   2.513
 2376TIP3    H2 7135   4.605   1.787   2.417
 2377TIP3   OH2 7136   5.047   1.709   2.361
 2377TIP3    H1 7137   5.085   1.762   2.287
 2377TIP3    H2 7138   4.954   1.736   2.359
 2378TIP3   OH2 7139   5.146   1.808   2.127
 2378TIP3    H1 7140   5.221   1.756   2.091
 2378TIP3    H2 7141   5.182   1.899   2.113
 2379TIP3   OH2 7142   3.778   1.538   2.474
 2379TIP3    H1 7143   3.686   1.505   2.477
 2379TIP3    H2 7144   3.827   1.454   2.469
 2380TIP3   OH2 7145   3.576   1.412   2.126
 2380TIP3    H1 7146   3.599   1.470   2.052
 2380TIP3    H2 7147   3.541   1.476   2.192
 2381TIP3   OH2 7148   4.228   1.567   2.357
 2381TIP3    H1 7149   4.282   1.617   2.293
 2381TIP3    H2 7150   4.252   1.610   2.440
 2382TIP3   OH2 7151   4.762   1.720   2.341
 2382TIP3    H1 7152   4.767   1.681   2.253
 2382TIP3    H2 7153   4.754   1.639   2.398
 2383TIP3   OH2 7154   4.800   1.646   1.904
 2383TIP3    H1 7155   4.716   1.691   1.923
 2383TIP3    H2 7156   4.785   1.559   1.946
 2384TIP3   OH2 7157   3.282   2.986   1.898
 2384TIP3    H1 7158   3.195   2.954   1.866
 2384TIP3    H2 7159   3.273   3.080   1.875
 2385TIP3   OH2 7160   3.687   1.567   1.887
 2385TIP3    H1 7161   3.735   1.506   1.828
 2385TIP3    H2 7162   3.760   1.622   1.922
 2386TIP3   OH2 7163   4.193   1.746   1.986
 2386TIP3    H1 7164   4.255   1.703   2.047
 2386TIP3    H2 7165   4.211   1.840   2.009
 2387TIP3   OH2 7166   4.056   3.162   1.486
 2387TIP3    H1 7167   4.143   3.186   1.448
 2387TIP3    H2 7168   4.033   3.087   1.426
 2388TIP3   OH2 7169   4.776   3.291   1.580
 2388TIP3    H1 7170   4.768   3.193   1.568
 2388TIP3    H2 7171   4.730   3.323   1.500
 2389TIP3   OH2 7172   3.983   1.816   3.365
 2389TIP3    H1 7173   3.952   1.745   3.424
 2389TIP3    H2 7174   4.077   1.821   3.392
 2390TIP3   OH2 7175   4.234   1.817   3.483
 2390TIP3    H1 7176   4.321   1.794   3.446
 2390TIP3    H2 7177   4.222   1.747   3.550
 2391TIP3   OH2 7178   3.357   3.003   1.539
 2391TIP3    H1 7179   3.359   3.019   1.635
 2391TIP3    H2 7180   3.444   2.960   1.524
 2392TIP3   OH2 7181   5.063   1.883   3.272
 2392TIP3    H1 7182   5.081   1.853   3.363
 2392TIP3    H2 7183   5.152   1.878   3.232
 2393TIP3   OH2 7184   4.998   3.428   2.768
 2393TIP3    H1 7185   4.918   3.402   2.718
 2393TIP3    H2 7186   4.986   3.526   2.769
 2394TIP3   OH2 7187   6.181   2.775   1.927
 2394TIP3    H1 7188   6.263   2.753   1.973
 2394TIP3    H2 7189   6.155   2.688   1.890
 2395TIP3   OH2 7190   5.562   2.695   2.280
 2395TIP3    H1 7191   5.594   2.627   2.342
 2395TIP3    H2 7192   5.640   2.750   2.270
 2396TIP3   OH2 7193   5.539   3.109   1.998
 2396TIP3    H1 7194   5.530   3.012   2.000
 2396TIP3    H2 7195   5.636   3.118   1.990
 2397TIP3   OH2 7196   5.242   2.309   1.780
 2397TIP3    H1 7197   5.196   2.392   1.801
 2397TIP3    H2 7198   5.171   2.260   1.736
 2398TIP3   OH2 7199   5.300   2.599   1.965
 2398TIP3    H1 7200   5.351   2.522   1.998
 2398TIP3    H2 7201   5.363   2.641   1.905
 2399TIP3   OH2 7202   6.188   3.524   1.602
 2399TIP3    H1 7203   6.237   3.443   1.624
 2399TIP3    H2 7204   6.147   3.542   1.688
 2400TIP3   OH2 7205   6.056   3.025   1.961
 2400TIP3    H1 7206   6.092   2.937   1.939
 2400TIP3    H2 7207   6.132   3.080   1.936
 2401TIP3   OH2 7208   5.799   2.190   1.959
 2401TIP3    H1 7209   5.787   2.264   1.896
 2401TIP3    H2 7210   5.749   2.119   1.913
 2402TIP3   OH2 7211   5.448   2.393   2.065
 2402TIP3    H1 7212   5.531   2.373   2.113
 2402TIP3    H2 7213   5.463   2.338   1.985
 2403TIP3   OH2 7214   5.867   2.590   1.862
 2403TIP3    H1 7215   5.956   2.557   1.887
 2403TIP3    H2 7216   5.827   2.508   1.826
 2404TIP3   OH2 7217   5.805   2.183   2.399
 2404TIP3    H1 7218   5.747   2.213   2.327
 2404TIP3    H2 7219   5.748   2.201   2.477
 2405TIP3   OH2 7220   6.168   3.040   1.379
 2405TIP3    H1 7221   6.091   3.008   1.332
 2405TIP3    H2 7222   6.136   3.127   1.411
 2406TIP3   OH2 7223   5.921   2.951   2.191
 2406TIP3    H1 7224   5.859   3.021   2.223
 2406TIP3    H2 7225   5.964   2.996   2.116
 2407TIP3   OH2 7226   5.679   2.291   2.179
 2407TIP3    H1 7227   5.743   2.363   2.200
 2407TIP3    H2 7228   5.726   2.249   2.103
 2408TIP3   OH2 7229   5.750   3.149   2.282
 2408TIP3    H1 7230   5.725   3.238   2.247
 2408TIP3    H2 7231   5.670   3.132   2.336
 2409TIP3   OH2 7232   5.136   2.836   1.519
 2409TIP3    H1 7233   5.096   2.863   1.435
 2409TIP3    H2 7234   5.166   2.923   1.555
 2410TIP3   OH2 7235   6.043   2.605   1.360
 2410TIP3    H1 7236   5.998   2.690   1.352
 2410TIP3    H2 7237   6.091   2.601   1.276
 2411TIP3   OH2 7238   5.668   2.739   1.747
 2411TIP3    H1 7239   5.632   2.680   1.678
 2411TIP3    H2 7240   5.745   2.687   1.780
 2412TIP3   OH2 7241   5.803   3.148   1.895
 2412TIP3    H1 7242   5.787   3.115   1.806
 2412TIP3    H2 7243   5.891   3.109   1.917
 2413TIP3   OH2 7244   5.808   2.711   2.107
 2413TIP3    H1 7245   5.839   2.685   2.017
 2413TIP3    H2 7246   5.857   2.795   2.123
 2414TIP3   OH2 7247   6.273   3.373   1.846
 2414TIP3    H1 7248   6.287   3.436   1.918
 2414TIP3    H2 7249   6.320   3.294   1.879
 2415TIP3   OH2 7250   5.950   3.258   2.436
 2415TIP3    H1 7251   5.890   3.322   2.479
 2415TIP3    H2 7252   5.885   3.209   2.381
 2416TIP3   OH2 7253   5.707   2.815   2.538
 2416TIP3    H1 7254   5.711   2.905   2.576
 2416TIP3    H2 7255   5.612   2.797   2.549
 2417TIP3   OH2 7256   6.048   3.297   1.423
 2417TIP3    H1 7257   6.053   3.368   1.488
 2417TIP3    H2 7258   5.973   3.324   1.367
 2418TIP3   OH2 7259   5.746   3.427   2.517
 2418TIP3    H1 7260   5.711   3.433   2.426
 2418TIP3    H2 7261   5.664   3.405   2.568
 2419TIP3   OH2 7262   5.546   2.579   1.546
 2419TIP3    H1 7263   5.474   2.623   1.496
 2419TIP3    H2 7264   5.505   2.494   1.567
 2420TIP3   OH2 7265   5.323   2.964   2.464
 2420TIP3    H1 7266   5.255   2.945   2.396
 2420TIP3    H2 7267   5.361   2.876   2.482
 2421TIP3   OH2 7268   5.179   3.155   2.096
 2421TIP3    H1 7269   5.276   3.155   2.088
 2421TIP3    H2 7270   5.165   3.235   2.150
 2422TIP3   OH2 7271   6.139   3.394   2.286
 2422TIP3    H1 7272   6.133   3.485   2.321
 2422TIP3    H2 7273   6.074   3.347   2.344
 2423TIP3   OH2 7274   5.897   3.525   1.244
 2423TIP3    H1 7275   5.851   3.515   1.159
 2423TIP3    H2 7276   5.867   3.615   1.271
 2424TIP3   OH2 7277   5.348   3.370   1.624
 2424TIP3    H1 7278   5.396   3.362   1.710
 2424TIP3    H2 7279   5.296   3.288   1.624
 2425TIP3   OH2 7280   6.121   3.398   0.885
 2425TIP3    H1 7281   6.195   3.334   0.879
 2425TIP3    H2 7282   6.135   3.429   0.977
 2426TIP3   OH2 7283   6.141   3.466   1.146
 2426TIP3    H1 7284   6.054   3.485   1.189
 2426TIP3    H2 7285   6.188   3.425   1.220
 2427TIP3   OH2 7286   5.530   3.145   2.443
 2427TIP3    H1 7287   5.576   3.132   2.528
 2427TIP3    H2 7288   5.454   3.084   2.452
 2428TIP3   OH2 7289   5.911   1.945   2.256
 2428TIP3    H1 7290   5.817   1.933   2.232
 2428TIP3    H2 7291   5.915   2.041   2.269
 2429TIP3   OH2 7292   5.857   2.485   2.250
 2429TIP3    H1 7293   5.807   2.503   2.333
 2429TIP3    H2 7294   5.841   2.568   2.200
 2430TIP3   OH2 7295   5.739   2.369   1.766
 2430TIP3    H1 7296   5.647   2.340   1.782
 2430TIP3    H2 7297   5.755   2.329   1.677
 2431TIP3   OH2 7298   5.683   2.513   2.464
 2431TIP3    H1 7299   5.699   2.579   2.533
 2431TIP3    H2 7300   5.668   2.432   2.515
 2432TIP3   OH2 7301   5.722   1.970   1.178
 2432TIP3    H1 7302   5.716   1.979   1.275
 2432TIP3    H2 7303   5.656   2.035   1.148
 2433TIP3   OH2 7304   5.273   2.030   2.045
 2433TIP3    H1 7305   5.343   2.069   2.102
 2433TIP3    H2 7306   5.320   2.008   1.964
 2434TIP3   OH2 7307   5.231   2.014   1.562
 2434TIP3    H1 7308   5.278   2.052   1.484
 2434TIP3    H2 7309   5.172   2.088   1.583
 2435TIP3   OH2 7310   6.055   2.180   1.854
 2435TIP3    H1 7311   5.961   2.176   1.881
 2435TIP3    H2 7312   6.096   2.177   1.942
 2436TIP3   OH2 7313   5.503   2.249   1.834
 2436TIP3    H1 7314   5.409   2.256   1.806
 2436TIP3    H2 7315   5.527   2.157   1.809
 2437TIP3   OH2 7316   5.772   2.258   1.519
 2437TIP3    H1 7317   5.852   2.291   1.478
 2437TIP3    H2 7318   5.706   2.268   1.446
 2438TIP3   OH2 7319   5.611   2.275   1.304
 2438TIP3    H1 7320   5.545   2.227   1.250
 2438TIP3    H2 7321   5.664   2.316   1.233
 2439TIP3   OH2 7322   5.691   3.065   2.670
 2439TIP3    H1 7323   5.770   3.098   2.718
 2439TIP3    H2 7324   5.625   3.068   2.742
 2440TIP3   OH2 7325   6.108   2.492   1.937
 2440TIP3    H1 7326   6.151   2.469   1.853
 2440TIP3    H2 7327   6.176   2.466   2.001
 2441TIP3   OH2 7328   5.667   2.006   1.806
 2441TIP3    H1 7329   5.631   1.929   1.855
 2441TIP3    H2 7330   5.739   1.965   1.757
 2442TIP3   OH2 7331   6.125   2.420   2.252
 2442TIP3    H1 7332   6.031   2.434   2.229
 2442TIP3    H2 7333   6.154   2.511   2.264
 2443TIP3   OH2 7334   5.856   2.820   1.311
 2443TIP3    H1 7335   5.789   2.749   1.299
 2443TIP3    H2 7336   5.839   2.847   1.405
 2444TIP3   OH2 7337   6.281   3.113   2.330
 2444TIP3    H1 7338   6.258   3.125   2.422
 2444TIP3    H2 7339   6.248   3.194   2.290
 2445TIP3   OH2 7340   5.559   2.831   1.985
 2445TIP3    H1 7341   5.596   2.805   1.898
 2445TIP3    H2 7342   5.609   2.774   2.046
 2446TIP3   OH2 7343   5.994   2.966   1.133
 2446TIP3    H1 7344   5.956   3.057   1.140
 2446TIP3    H2 7345   5.937   2.916   1.195
 2447TIP3   OH2 7346   5.444   2.747   2.599
 2447TIP3    H1 7347   5.457   2.733   2.695
 2447TIP3    H2 7348   5.371   2.685   2.581
 2448TIP3   OH2 7349   6.158   2.851   2.621
 2448TIP3    H1 7350   6.083   2.801   2.583
 2448TIP3    H2 7351   6.227   2.783   2.618
 2449TIP3   OH2 7352   6.404   3.388   2.196
 2449TIP3    H1 7353   6.311   3.397   2.225
 2449TIP3    H2 7354   6.451   3.440   2.264
 2450TIP3   OH2 7355   5.661   3.140   1.612
 2450TIP3    H1 7356   5.655   3.221   1.558
 2450TIP3    H2 7357   5.568   3.123   1.629
 2451TIP3   OH2 7358   5.226   2.440   1.320
 2451TIP3    H1 7359   5.271   2.524   1.342
 2451TIP3    H2 7360   5.148   2.445   1.380
 2452TIP3   OH2 7361   5.790   2.903   1.558
 2452TIP3    H1 7362   5.754   2.993   1.576
 2452TIP3    H2 7363   5.752   2.852   1.633
 2453TIP3   OH2 7364   5.933   3.477   2.078
 2453TIP3    H1 7365   5.974   3.550   2.027
 2453TIP3    H2 7366   6.009   3.442   2.127
 2454TIP3   OH2 7367   5.580   3.374   1.468
 2454TIP3    H1 7368   5.494   3.386   1.512
 2454TIP3    H2 7369   5.615   3.467   1.470
 2455TIP3   OH2 7370   5.644   2.261   2.609
 2455TIP3    H1 7371   5.547   2.262   2.621
 2455TIP3    H2 7372   5.672   2.203   2.682
 2456TIP3   OH2 7373   5.369   3.342   2.237
 2456TIP3    H1 7374   5.424   3.275   2.280
 2456TIP3    H2 7375   5.390   3.421   2.289
 2457TIP3   OH2 7376   5.650   2.992   0.924
 2457TIP3    H1 7377   5.683   2.904   0.899
 2457TIP3    H2 7378   5.628   2.979   1.019
 2458TIP3   OH2 7379   5.600   2.991   1.197
 2458TIP3    H1 7380   5.673   2.965   1.254
 2458TIP3    H2 7381   5.601   3.089   1.206
 2459TIP3   OH2 7382   5.333   2.683   1.401
 2459TIP3    H1 7383   5.266   2.729   1.457
 2459TIP3    H2 7384   5.347   2.751   1.332
 2460TIP3   OH2 7385   5.867   3.205   1.155
 2460TIP3    H1 7386   5.776   3.224   1.183
 2460TIP3    H2 7387   5.881   3.277   1.092
 2461TIP3   OH2 7388   5.607   3.263   1.216
 2461TIP3    H1 7389   5.580   3.333   1.152
 2461TIP3    H2 7390   5.593   3.309   1.301
 2462TIP3   OH2 7391   5.706   1.979   1.454
 2462TIP3    H1 7392   5.702   2.068   1.493
 2462TIP3    H2 7393   5.800   1.958   1.476
 2463TIP3   OH2 7394   5.332   2.887   1.204
 2463TIP3    H1 7395   5.401   2.955   1.212
 2463TIP3    H2 7396   5.375   2.829   1.137
 2464TIP3   OH2 7397   5.272   2.168   1.339
 2464TIP3    H1 7398   5.276   2.266   1.338
 2464TIP3    H2 7399   5.191   2.151   1.290
 2465TIP3   OH2 7400   5.645   1.890   2.211
 2465TIP3    H1 7401   5.622   1.856   2.121
 2465TIP3    H2 7402   5.640   1.809   2.265
 2466TIP3   OH2 7403   5.194   3.103   1.588
 2466TIP3    H1 7404   5.135   3.137   1.657
 2466TIP3    H2 7405   5.161   3.151   1.509
 2467TIP3   OH2 7406   5.361   3.655   2.658
 2467TIP3    H1 7407   5.446   3.658   2.707
 2467TIP3    H2 7408   5.340   3.560   2.662
 2468TIP3   OH2 7409   5.837   3.603   2.711
 2468TIP3    H1 7410   5.933   3.586   2.711
 2468TIP3    H2 7411   5.809   3.545   2.638
 2469TIP3   OH2 7412   5.812   3.200   0.841
 2469TIP3    H1 7413   5.767   3.120   0.877
 2469TIP3    H2 7414   5.891   3.160   0.797
 2470TIP3   OH2 7415   6.459   3.530   2.458
 2470TIP3    H1 7416   6.441   3.456   2.520
 2470TIP3    H2 7417   6.548   3.510   2.427
 2471TIP3   OH2 7418   5.489   3.059   2.863
 2471TIP3    H1 7419   5.504   2.963   2.868
 2471TIP3    H2 7420   5.402   3.063   2.818
 2472TIP3   OH2 7421   5.471   2.702   1.059
 2472TIP3    H1 7422   5.529   2.677   1.133
 2472TIP3    H2 7423   5.538   2.707   0.986
 2473TIP3   OH2 7424   6.099   3.137   2.633
 2473TIP3    H1 7425   6.049   3.165   2.553
 2473TIP3    H2 7426   6.121   3.044   2.616
 2474TIP3   OH2 7427   5.946   2.900   0.867
 2474TIP3    H1 7428   5.955   2.922   0.962
 2474TIP3    H2 7429   6.018   2.835   0.857
 2475TIP3   OH2 7430   5.608   2.794   2.850
 2475TIP3    H1 7431   5.687   2.750   2.817
 2475TIP3    H2 7432   5.638   2.827   2.937
 2476TIP3   OH2 7433   5.667   2.618   1.275
 2476TIP3    H1 7434   5.643   2.582   1.363
 2476TIP3    H2 7435   5.704   2.539   1.230
 2477TIP3   OH2 7436   5.952   2.688   2.510
 2477TIP3    H1 7437   5.868   2.739   2.510
 2477TIP3    H2 7438   5.991   2.711   2.424
 2478TIP3   OH2 7439   5.767   2.405   1.122
 2478TIP3    H1 7440   5.738   2.402   1.028
 2478TIP3    H2 7441   5.863   2.408   1.110
 2479TIP3   OH2 7442   6.052   2.466   2.636
 2479TIP3    H1 7443   6.057   2.386   2.580
 2479TIP3    H2 7444   6.012   2.532   2.575
 2480TIP3   OH2 7445   6.060   2.251   2.458
 2480TIP3    H1 7446   6.089   2.299   2.377
 2480TIP3    H2 7447   5.968   2.226   2.433
 2481TIP3   OH2 7448   6.092   2.764   2.291
 2481TIP3    H1 7449   6.157   2.769   2.221
 2481TIP3    H2 7450   6.035   2.841   2.268
 2482TIP3   OH2 7451   5.948   2.569   2.869
 2482TIP3    H1 7452   5.880   2.502   2.887
 2482TIP3    H2 7453   5.979   2.541   2.780
 2483TIP3   OH2 7454   6.180   2.009   2.514
 2483TIP3    H1 7455   6.141   2.099   2.507
 2483TIP3    H2 7456   6.102   1.954   2.531
 2484TIP3   OH2 7457   6.289   2.605   2.684
 2484TIP3    H1 7458   6.349   2.547   2.733
 2484TIP3    H2 7459   6.207   2.552   2.683
 2485TIP3   OH2 7460   5.783   2.351   2.923
 2485TIP3    H1 7461   5.788   2.261   2.887
 2485TIP3    H2 7462   5.822   2.337   3.013
 2486TIP3   OH2 7463   6.320   2.202   2.874
 2486TIP3    H1 7464   6.266   2.140   2.825
 2486TIP3    H2 7465   6.255   2.268   2.907
 2487TIP3   OH2 7466   5.585   3.459   1.025
 2487TIP3    H1 7467   5.680   3.460   1.006
 2487TIP3    H2 7468   5.553   3.516   0.952
 2488TIP3   OH2 7469   5.063   2.850   1.237
 2488TIP3    H1 7470   5.158   2.871   1.225
 2488TIP3    H2 7471   5.057   2.761   1.195
 2489TIP3   OH2 7472   4.981   3.459   1.659
 2489TIP3    H1 7473   4.914   3.399   1.619
 2489TIP3    H2 7474   5.025   3.398   1.722
 2490TIP3   OH2 7475   5.116   3.301   1.842
 2490TIP3    H1 7476   5.102   3.235   1.912
 2490TIP3    H2 7477   5.167   3.368   1.891
 2491TIP3   OH2 7478   5.298   2.716   2.216
 2491TIP3    H1 7479   5.294   2.683   2.124
 2491TIP3    H2 7480   5.395   2.719   2.230
 2492TIP3   OH2 7481   5.516   2.402   2.885
 2492TIP3    H1 7482   5.614   2.398   2.892
 2492TIP3    H2 7483   5.493   2.316   2.925
 2493TIP3   OH2 7484   5.472   2.104   2.222
 2493TIP3    H1 7485   5.532   2.026   2.228
 2493TIP3    H2 7486   5.537   2.176   2.213
 2494TIP3   OH2 7487   5.276   2.370   2.289
 2494TIP3    H1 7488   5.328   2.366   2.206
 2494TIP3    H2 7489   5.304   2.455   2.325
 2495TIP3   OH2 7490   5.265   1.867   1.788
 2495TIP3    H1 7491   5.174   1.867   1.821
 2495TIP3    H2 7492   5.259   1.929   1.712
 2496TIP3   OH2 7493   5.486   1.953   2.606
 2496TIP3    H1 7494   5.435   1.951   2.688
 2496TIP3    H2 7495   5.421   1.992   2.545
 2497TIP3   OH2 7496   5.526   3.376   2.679
 2497TIP3    H1 7497   5.431   3.361   2.665
 2497TIP3    H2 7498   5.533   3.371   2.775
 2498TIP3   OH2 7499   5.708   3.419   2.231
 2498TIP3    H1 7500   5.658   3.494   2.194
 2498TIP3    H2 7501   5.793   3.434   2.183
 2499TIP3   OH2 7502   6.139   3.657   2.370
 2499TIP3    H1 7503   6.178   3.661   2.459
 2499TIP3    H2 7504   6.204   3.711   2.319
 2500TIP3   OH2 7505   6.317   3.817   2.234
 2500TIP3    H1 7506   6.382   3.782   2.173
 2500TIP3    H2 7507   6.373   3.871   2.294
 2501TIP3   OH2 7508   5.380   3.670   2.260
 2501TIP3    H1 7509   5.289   3.699   2.237
 2501TIP3    H2 7510   5.397   3.728   2.336
 2502TIP3   OH2 7511   5.614   3.651   2.114
 2502TIP3    H1 7512   5.527   3.662   2.159
 2502TIP3    H2 7513   5.594   3.685   2.025
 2503TIP3   OH2 7514   6.040   3.676   1.907
 2503TIP3    H1 7515   5.965   3.694   1.848
 2503TIP3    H2 7516   6.052   3.764   1.950
 2504TIP3   OH2 7517   6.313   3.638   1.944
 2504TIP3    H1 7518   6.215   3.642   1.934
 2504TIP3    H2 7519   6.338   3.726   1.914
 2505TIP3   OH2 7520   5.290   3.464   1.996
 2505TIP3    H1 7521   5.315   3.435   2.086
 2505TIP3    H2 7522   5.364   3.425   1.945
 2506TIP3   OH2 7523   5.487   3.339   1.858
 2506TIP3    H1 7524   5.501   3.255   1.907
 2506TIP3    H2 7525   5.579   3.375   1.857
 2507TIP3   OH2 7526   5.753   3.427   1.866
 2507TIP3    H1 7527   5.781   3.333   1.861
 2507TIP3    H2 7528   5.803   3.454   1.945
 2508TIP3   OH2 7529   5.569   1.797   1.959
 2508TIP3    H1 7530   5.477   1.765   1.961
 2508TIP3    H2 7531   5.617   1.711   1.958
 2509TIP3   OH2 7532   5.367   1.667   1.612
 2509TIP3    H1 7533   5.395   1.725   1.538
 2509TIP3    H2 7534   5.337   1.733   1.678
 2510TIP3   OH2 7535   5.952   1.844   1.845
 2510TIP3    H1 7536   6.036   1.852   1.796
 2510TIP3    H2 7537   5.976   1.880   1.931
 2511TIP3   OH2 7538   5.077   3.244   1.388
 2511TIP3    H1 7539   4.991   3.213   1.354
 2511TIP3    H2 7540   5.071   3.338   1.360
 2512TIP3   OH2 7541   5.482   1.822   1.374
 2512TIP3    H1 7542   5.531   1.763   1.314
 2512TIP3    H2 7543   5.554   1.878   1.409
 2513TIP3   OH2 7544   5.975   1.977   1.509
 2513TIP3    H1 7545   6.047   1.924   1.546
 2513TIP3    H2 7546   6.023   2.039   1.453
 2514TIP3   OH2 7547   5.855   3.428   0.974
 2514TIP3    H1 7548   5.944   3.443   0.938
 2514TIP3    H2 7549   5.827   3.352   0.917
 2515TIP3   OH2 7550   5.778   2.076   2.851
 2515TIP3    H1 7551   5.744   2.004   2.907
 2515TIP3    H2 7552   5.873   2.075   2.879
 2516TIP3   OH2 7553   6.025   2.069   2.977
 2516TIP3    H1 7554   6.111   2.033   2.950
 2516TIP3    H2 7555   6.000   2.006   3.048
 2517TIP3   OH2 7556   5.153   3.257   1.025
 2517TIP3    H1 7557   5.160   3.281   1.118
 2517TIP3    H2 7558   5.241   3.215   1.008
 2518TIP3   OH2 7559   0.516   3.850   2.706
 2518TIP3    H1 7560   0.485   3.940   2.681
 2518TIP3    H2 7561   0.442   3.797   2.672
 2519TIP3   OH2 7562   0.515   3.851   3.096
 2519TIP3    H1 7563   0.554   3.826   3.182
 2519TIP3    H2 7564   0.479   3.766   3.065
 2520TIP3   OH2 7565   0.761   4.155   2.775
 2520TIP3    H1 7566   0.746   4.089   2.843
 2520TIP3    H2 7567   0.792   4.231   2.826
 2521TIP3   OH2 7568   0.404   4.611   2.786
 2521TIP3    H1 7569   0.452   4.541   2.737
 2521TIP3    H2 7570   0.397   4.572   2.874
 2522TIP3   OH2 7571   0.318   4.066   3.145
 2522TIP3    H1 7572   0.362   3.996   3.095
 2522TIP3    H2 7573   0.398   4.119   3.168
 2523TIP3   OH2 7574   1.328   3.393   3.133
 2523TIP3    H1 7575   1.357   3.477   3.173
 2523TIP3    H2 7576   1.359   3.404   3.041
 2524TIP3   OH2 7577   0.726   3.574   3.166
 2524TIP3    H1 7578   0.770   3.489   3.186
 2524TIP3    H2 7579   0.693   3.556   3.076
 2525TIP3   OH2 7580   0.076   3.235   3.128
 2525TIP3    H1 7581   0.057   3.308   3.066
 2525TIP3    H2 7582   0.035   3.161   3.080
 2526TIP3   OH2 7583   0.760   3.328   2.752
 2526TIP3    H1 7584   0.832   3.316   2.819
 2526TIP3    H2 7585   0.813   3.363   2.678
 2527TIP3   OH2 7586   0.147   3.636   3.040
 2527TIP3    H1 7587   0.241   3.611   3.053
 2527TIP3    H2 7588   0.109   3.552   3.005
 2528TIP3   OH2 7589   1.397   3.600   3.312
 2528TIP3    H1 7590   1.314   3.649   3.294
 2528TIP3    H2 7591   1.434   3.650   3.386
 2529TIP3   OH2 7592   0.073   3.216   3.544
 2529TIP3    H1 7593   0.002   3.240   3.482
 2529TIP3    H2 7594   0.027   3.229   3.630
 2530TIP3   OH2 7595   0.406   4.064   2.570
 2530TIP3    H1 7596   0.366   4.051   2.484
 2530TIP3    H2 7597   0.366   4.149   2.597
 2531TIP3   OH2 7598   0.163   4.024   3.362
 2531TIP3    H1 7599   0.149   4.109   3.405
 2531TIP3    H2 7600   0.219   4.052   3.285
 2532TIP3   OH2 7601   0.961   3.338   2.933
 2532TIP3    H1 7602   0.958   3.287   3.015
 2532TIP3    H2 7603   1.016   3.415   2.959
 2533TIP3   OH2 7604  -0.063   3.349   3.336
 2533TIP3    H1 7605   0.005   3.411   3.371
 2533TIP3    H2 7606  -0.010   3.298   3.271
 2534TIP3   OH2 7607   0.828   4.397   2.934
 2534TIP3    H1 7608   0.738   4.389   2.975
 2534TIP3    H2 7609   0.820   4.484   2.890
 2535TIP3   OH2 7610   1.123   3.293   3.300
 2535TIP3    H1 7611   1.035   3.319   3.266
 2535TIP3    H2 7612   1.183   3.325   3.229
 2536TIP3   OH2 7613   0.416   2.929   3.280
 2536TIP3    H1 7614   0.402   2.835   3.303
 2536TIP3    H2 7615   0.339   2.969   3.325
 2537TIP3   OH2 7616   0.530   4.442   2.613
 2537TIP3    H1 7617   0.580   4.360   2.592
 2537TIP3    H2 7618   0.590   4.507   2.571
 2538TIP3   OH2 7619   0.670   4.225   2.523
 2538TIP3    H1 7620   0.630   4.143   2.489
 2538TIP3    H2 7621   0.710   4.193   2.607
 2539TIP3   OH2 7622   1.053   4.305   3.282
 2539TIP3    H1 7623   1.041   4.229   3.220
 2539TIP3    H2 7624   1.034   4.381   3.222
 2540TIP3   OH2 7625   0.351   3.697   2.543
 2540TIP3    H1 7626   0.271   3.751   2.524
 2540TIP3    H2 7627   0.396   3.697   2.457
 2541TIP3   OH2 7628   0.303   3.492   2.250
 2541TIP3    H1 7629   0.370   3.541   2.300
 2541TIP3    H2 7630   0.360   3.428   2.203
 2542TIP3   OH2 7631   1.247   3.947   3.130
 2542TIP3    H1 7632   1.164   3.999   3.132
 2542TIP3    H2 7633   1.279   3.968   3.040
 2543TIP3   OH2 7634   0.693   3.784   2.508
 2543TIP3    H1 7635   0.639   3.810   2.587
 2543TIP3    H2 7636   0.777   3.760   2.551
 2544TIP3   OH2 7637   0.925   3.819   3.430
 2544TIP3    H1 7638   0.924   3.904   3.478
 2544TIP3    H2 7639   0.841   3.825   3.381
 2545TIP3   OH2 7640  -0.053   3.795   2.923
 2545TIP3    H1 7641  -0.098   3.758   2.846
 2545TIP3    H2 7642   0.025   3.737   2.935
 2546TIP3   OH2 7643   0.077   4.245   3.053
 2546TIP3    H1 7644   0.037   4.159   3.033
 2546TIP3    H2 7645   0.169   4.223   3.069
 2547TIP3   OH2 7646   0.113   3.751   3.294
 2547TIP3    H1 7647   0.144   3.734   3.203
 2547TIP3    H2 7648   0.149   3.840   3.314
 2548TIP3   OH2 7649   0.590   4.390   3.061
 2548TIP3    H1 7650   0.572   4.470   3.114
 2548TIP3    H2 7651   0.568   4.317   3.124
 2549TIP3   OH2 7652   0.531   3.643   2.337
 2549TIP3    H1 7653   0.591   3.703   2.387
 2549TIP3    H2 7654   0.557   3.664   2.244
 2550TIP3   OH2 7655   0.285   4.309   2.598
 2550TIP3    H1 7656   0.359   4.370   2.614
 2550TIP3    H2 7657   0.208   4.368   2.600
 2551TIP3   OH2 7658   1.048   2.880   2.386
 2551TIP3    H1 7659   0.967   2.902   2.437
 2551TIP3    H2 7660   1.062   2.963   2.335
 2552TIP3   OH2 7661   0.850   4.247   1.935
 2552TIP3    H1 7662   0.858   4.344   1.920
 2552TIP3    H2 7663   0.943   4.218   1.924
 2553TIP3   OH2 7664   1.290   4.657   3.332
 2553TIP3    H1 7665   1.290   4.560   3.346
 2553TIP3    H2 7666   1.206   4.681   3.377
 2554TIP3   OH2 7667   0.411   4.431   3.495
 2554TIP3    H1 7668   0.418   4.527   3.510
 2554TIP3    H2 7669   0.316   4.419   3.502
 2555TIP3   OH2 7670   0.157   4.571   2.412
 2555TIP3    H1 7671   0.110   4.568   2.327
 2555TIP3    H2 7672   0.146   4.664   2.440
 2556TIP3   OH2 7673   0.351   4.462   2.056
 2556TIP3    H1 7674   0.413   4.395   2.021
 2556TIP3    H2 7675   0.388   4.478   2.145
 2557TIP3   OH2 7676   0.410   4.516   2.322
 2557TIP3    H1 7677   0.323   4.523   2.367
 2557TIP3    H2 7678   0.466   4.482   2.393
 2558TIP3   OH2 7679   1.178   3.779   3.607
 2558TIP3    H1 7680   1.096   3.790   3.556
 2558TIP3    H2 7681   1.193   3.683   3.599
 2559TIP3   OH2 7682   0.186   3.011   3.404
 2559TIP3    H1 7683   0.095   2.978   3.389
 2559TIP3    H2 7684   0.163   3.095   3.448
 2560TIP3   OH2 7685   0.711   3.133   3.608
 2560TIP3    H1 7686   0.778   3.100   3.671
 2560TIP3    H2 7687   0.627   3.109   3.653
 2561TIP3   OH2 7688   0.944   3.557   3.528
 2561TIP3    H1 7689   0.897   3.559   3.614
 2561TIP3    H2 7690   0.923   3.644   3.490
 2562TIP3   OH2 7691   0.607   3.678   2.080
 2562TIP3    H1 7692   0.574   3.660   1.990
 2562TIP3    H2 7693   0.691   3.724   2.059
 2563TIP3   OH2 7694   0.322   3.061   2.385
 2563TIP3    H1 7695   0.288   3.058   2.476
 2563TIP3    H2 7696   0.283   2.978   2.350
 2564TIP3   OH2 7697   0.126   3.523   3.437
 2564TIP3    H1 7698   0.081   3.554   3.518
 2564TIP3    H2 7699   0.118   3.605   3.382
 2565TIP3   OH2 7700   0.013   3.421   2.940
 2565TIP3    H1 7701  -0.078   3.425   2.977
 2565TIP3    H2 7702   0.001   3.372   2.856
 2566TIP3   OH2 7703   0.480   3.496   2.677
 2566TIP3    H1 7704   0.432   3.569   2.632
 2566TIP3    H2 7705   0.538   3.464   2.605
 2567TIP3   OH2 7706   0.660   3.776   3.758
 2567TIP3    H1 7707   0.636   3.705   3.821
 2567TIP3    H2 7708   0.754   3.790   3.780
 2568TIP3   OH2 7709   0.637   3.525   2.910
 2568TIP3    H1 7710   0.574   3.552   2.841
 2568TIP3    H2 7711   0.674   3.447   2.865
 2569TIP3   OH2 7712  -0.014   3.036   2.352
 2569TIP3    H1 7713  -0.032   3.026   2.448
 2569TIP3    H2 7714  -0.089   3.091   2.325
 2570TIP3   OH2 7715   0.649   3.772   3.330
 2570TIP3    H1 7716   0.682   3.701   3.270
 2570TIP3    H2 7717   0.619   3.718   3.406
 2571TIP3   OH2 7718   0.332   3.237   3.005
 2571TIP3    H1 7719   0.253   3.237   3.063
 2571TIP3    H2 7720   0.404   3.225   3.069
 2572TIP3   OH2 7721   0.015   3.286   2.700
 2572TIP3    H1 7722   0.112   3.303   2.694
 2572TIP3    H2 7723  -0.019   3.320   2.615
 2573TIP3   OH2 7724   0.813   3.315   3.216
 2573TIP3    H1 7725   0.775   3.328   3.305
 2573TIP3    H2 7726   0.748   3.254   3.177
 2574TIP3   OH2 7727  -0.136   3.348   2.482
 2574TIP3    H1 7728  -0.196   3.293   2.428
 2574TIP3    H2 7729  -0.077   3.380   2.411
 2575TIP3   OH2 7730   0.986   5.003   3.430
 2575TIP3    H1 7731   0.983   5.027   3.336
 2575TIP3    H2 7732   1.067   5.050   3.459
 2576TIP3   OH2 7733   0.406   3.570   3.107
 2576TIP3    H1 7734   0.476   3.526   3.056
 2576TIP3    H2 7735   0.410   3.523   3.193
 2577TIP3   OH2 7736  -0.048   3.049   2.967
 2577TIP3    H1 7737  -0.048   2.972   3.028
 2577TIP3    H2 7738  -0.000   3.013   2.891
 2578TIP3   OH2 7739   0.389   3.468   3.379
 2578TIP3    H1 7740   0.296   3.491   3.403
 2578TIP3    H2 7741   0.441   3.526   3.437
 2579TIP3   OH2 7742   0.132   3.853   2.494
 2579TIP3    H1 7743   0.059   3.787   2.484
 2579TIP3    H2 7744   0.111   3.892   2.582
 2580TIP3   OH2 7745   1.012   4.090   3.113
 2580TIP3    H1 7746   1.039   4.140   3.032
 2580TIP3    H2 7747   0.928   4.049   3.085
 2581TIP3   OH2 7748   0.572   3.163   2.357
 2581TIP3    H1 7749   0.476   3.143   2.366
 2581TIP3    H2 7750   0.578   3.257   2.382
 2582TIP3   OH2 7751   0.501   4.168   3.494
 2582TIP3    H1 7752   0.545   4.160   3.579
 2582TIP3    H2 7753   0.471   4.261   3.495
 2583TIP3   OH2 7754   0.639   3.414   2.458
 2583TIP3    H1 7755   0.736   3.420   2.472
 2583TIP3    H2 7756   0.620   3.495   2.407
 2584TIP3   OH2 7757   0.258   4.006   2.308
 2584TIP3    H1 7758   0.205   4.088   2.316
 2584TIP3    H2 7759   0.211   3.947   2.372
 2585TIP3   OH2 7760   0.423   3.909   3.795
 2585TIP3    H1 7761   0.374   3.862   3.727
 2585TIP3    H2 7762   0.514   3.879   3.774
 2586TIP3   OH2 7763   0.677   4.427   3.393
 2586TIP3    H1 7764   0.581   4.424   3.406
 2586TIP3    H2 7765   0.702   4.486   3.467
 2587TIP3   OH2 7766   1.077   3.508   2.290
 2587TIP3    H1 7767   1.017   3.463   2.226
 2587TIP3    H2 7768   1.074   3.598   2.250
 2588TIP3   OH2 7769   1.303   4.368   3.369
 2588TIP3    H1 7770   1.205   4.359   3.360
 2588TIP3    H2 7771   1.330   4.337   3.280
 2589TIP3   OH2 7772   0.781   4.325   2.199
 2589TIP3    H1 7773   0.759   4.255   2.261
 2589TIP3    H2 7774   0.799   4.277   2.116
 2590TIP3   OH2 7775   0.779   3.954   3.028
 2590TIP3    H1 7776   0.686   3.929   3.042
 2590TIP3    H2 7777   0.813   3.873   2.985
 2591TIP3   OH2 7778   0.067   3.966   2.731
 2591TIP3    H1 7779   0.049   4.060   2.742
 2591TIP3    H2 7780   0.018   3.926   2.805
 2592TIP3   OH2 7781   0.229   4.490   3.229
 2592TIP3    H1 7782   0.282   4.557   3.185
 2592TIP3    H2 7783   0.210   4.532   3.315
 2593TIP3   OH2 7784   0.563   4.160   3.224
 2593TIP3    H1 7785   0.553   4.156   3.322
 2593TIP3    H2 7786   0.645   4.110   3.211
 2594TIP3   OH2 7787   0.545   4.054   2.102
 2594TIP3    H1 7788   0.599   4.029   2.181
 2594TIP3    H2 7789   0.457   4.023   2.129
 2595TIP3   OH2 7790   0.815   4.692   3.267
 2595TIP3    H1 7791   0.733   4.639   3.257
 2595TIP3    H2 7792   0.804   4.756   3.193
 2596TIP3   OH2 7793   0.880   4.522   1.917
 2596TIP3    H1 7794   0.926   4.596   1.874
 2596TIP3    H2 7795   0.801   4.569   1.950
 2597TIP3   OH2 7796   0.705   3.981   2.312
 2597TIP3    H1 7797   0.696   3.916   2.385
 2597TIP3    H2 7798   0.802   3.981   2.301
 2598TIP3   OH2 7799  -0.080   4.004   2.095
 2598TIP3    H1 7800  -0.071   3.913   2.059
 2598TIP3    H2 7801  -0.076   3.986   2.191
 2599TIP3   OH2 7802  -0.098   3.996   2.368
 2599TIP3    H1 7803  -0.015   4.017   2.411
 2599TIP3    H2 7804  -0.146   4.081   2.375
 2600TIP3   OH2 7805   0.732   3.373   3.474
 2600TIP3    H1 7806   0.818   3.408   3.503
 2600TIP3    H2 7807   0.724   3.290   3.525
 2601TIP3   OH2 7808   0.618   3.113   2.639
 2601TIP3    H1 7809   0.607   3.136   2.544
 2601TIP3    H2 7810   0.661   3.194   2.674
 2602TIP3   OH2 7811   0.105   4.231   2.328
 2602TIP3    H1 7812   0.060   4.276   2.401
 2602TIP3    H2 7813   0.127   4.306   2.270
 2603TIP3   OH2 7814   0.293   3.302   2.738
 2603TIP3    H1 7815   0.360   3.371   2.719
 2603TIP3    H2 7816   0.306   3.291   2.835
 2604TIP3   OH2 7817   0.574   3.613   3.539
 2604TIP3    H1 7818   0.604   3.660   3.619
 2604TIP3    H2 7819   0.627   3.531   3.542
 2605TIP3   OH2 7820   0.448   3.015   2.835
 2605TIP3    H1 7821   0.443   3.091   2.895
 2605TIP3    H2 7822   0.512   3.049   2.768
 2606TIP3   OH2 7823  -0.032   3.021   2.630
 2606TIP3    H1 7824  -0.027   3.114   2.659
 2606TIP3    H2 7825   0.063   2.999   2.632
 2607TIP3   OH2 7826   1.212   3.510   3.533
 2607TIP3    H1 7827   1.114   3.508   3.531
 2607TIP3    H2 7828   1.232   3.486   3.442
 2608TIP3   OH2 7829   0.865   3.708   2.912
 2608TIP3    H1 7830   0.789   3.648   2.924
 2608TIP3    H2 7831   0.936   3.662   2.961
 2609TIP3   OH2 7832   0.836   4.668   2.858
 2609TIP3    H1 7833   0.794   4.715   2.782
 2609TIP3    H2 7834   0.931   4.686   2.838
 2610TIP3   OH2 7835  -0.072   2.932   3.410
 2610TIP3    H1 7836  -0.092   2.902   3.319
 2610TIP3    H2 7837  -0.087   2.850   3.463
 2611TIP3   OH2 7838   0.067   4.227   2.015
 2611TIP3    H1 7839   0.015   4.152   2.052
 2611TIP3    H2 7840   0.150   4.181   1.993
 2612TIP3   OH2 7841   0.720   4.574   3.623
 2612TIP3    H1 7842   0.721   4.499   3.687
 2612TIP3    H2 7843   0.801   4.623   3.648
 2613TIP3   OH2 7844   0.503   4.271   1.927
 2613TIP3    H1 7845   0.545   4.209   1.989
 2613TIP3    H2 7846   0.564   4.270   1.850
 2614TIP3   OH2 7847   0.363   4.186   3.789
 2614TIP3    H1 7848   0.301   4.167   3.719
 2614TIP3    H2 7849   0.397   4.096   3.810
 2615TIP3   OH2 7850   0.243   3.950   2.041
 2615TIP3    H1 7851   0.239   3.963   2.138
 2615TIP3    H2 7852   0.236   3.852   2.035
 2616TIP3   OH2 7853   0.838   4.202   3.422
 2616TIP3    H1 7854   0.915   4.241   3.376
 2616TIP3    H2 7855   0.772   4.273   3.408
 2617TIP3   OH2 7856  -0.050   3.649   2.465
 2617TIP3    H1 7857  -0.104   3.591   2.519
 2617TIP3    H2 7858  -0.020   3.588   2.395
 2618TIP3   OH2 7859   0.183   3.701   3.674
 2618TIP3    H1 7860   0.137   3.774   3.719
 2618TIP3    H2 7861   0.232   3.747   3.603
 2619TIP3   OH2 7862   0.029   3.451   2.292
 2619TIP3    H1 7863   0.000   3.450   2.198
 2619TIP3    H2 7864   0.126   3.457   2.282
 2620TIP3   OH2 7865   0.708   4.119   3.814
 2620TIP3    H1 7866   0.786   4.089   3.765
 2620TIP3    H2 7867   0.707   4.057   3.890
 2621TIP3   OH2 7868   0.840   3.778   1.965
 2621TIP3    H1 7869   0.819   3.735   1.880
 2621TIP3    H2 7870   0.810   3.870   1.944
 2622TIP3   OH2 7871   0.326   3.506   3.801
 2622TIP3    H1 7872   0.324   3.424   3.748
 2622TIP3    H2 7873   0.272   3.566   3.745
 2623TIP3   OH2 7874   0.326   3.297   3.610
 2623TIP3    H1 7875   0.359   3.334   3.526
 2623TIP3    H2 7876   0.234   3.274   3.586
 2624TIP3   OH2 7877   0.341   3.847   3.507
 2624TIP3    H1 7878   0.426   3.837   3.464
 2624TIP3    H2 7879   0.301   3.920   3.457
 2625TIP3   OH2 7880   0.922   3.809   3.860
 2625TIP3    H1 7881   0.972   3.731   3.890
 2625TIP3    H2 7882   0.992   3.864   3.820
 2626TIP3   OH2 7883   0.965   4.052   3.605
 2626TIP3    H1 7884   0.908   4.109   3.547
 2626TIP3    H2 7885   1.053   4.073   3.566
 2627TIP3   OH2 7886   0.227   3.643   4.029
 2627TIP3    H1 7887   0.165   3.572   4.059
 2627TIP3    H2 7888   0.258   3.605   3.944
 2628TIP3   OH2 7889   0.454   3.060   3.689
 2628TIP3    H1 7890   0.402   3.139   3.664
 2628TIP3    H2 7891   0.388   2.988   3.674
 2629TIP3   OH2 7892   0.577   3.557   3.899
 2629TIP3    H1 7893   0.555   3.539   3.992
 2629TIP3    H2 7894   0.490   3.535   3.858
 2630TIP3   OH2 7895   0.816   3.514   3.765
 2630TIP3    H1 7896   0.733   3.519   3.816
 2630TIP3    H2 7897   0.872   3.461   3.823
 2631TIP3   OH2 7898   1.081   3.397   3.951
 2631TIP3    H1 7899   1.036   3.334   4.007
 2631TIP3    H2 7900   1.061   3.481   3.997
 2632TIP3   OH2 7901   0.537   3.067   3.950
 2632TIP3    H1 7902   0.602   2.995   3.944
 2632TIP3    H2 7903   0.501   3.065   3.859
 2633TIP3   OH2 7904   0.619   3.282   4.098
 2633TIP3    H1 7905   0.592   3.208   4.038
 2633TIP3    H2 7906   0.540   3.339   4.096
 2634TIP3   OH2 7907   1.094   4.751   2.822
 2634TIP3    H1 7908   1.119   4.788   2.908
 2634TIP3    H2 7909   1.156   4.794   2.762
 2635TIP3   OH2 7910   1.117   4.776   3.106
 2635TIP3    H1 7911   1.073   4.688   3.100
 2635TIP3    H2 7912   1.194   4.752   3.160
 2636TIP3   OH2 7913   1.167   4.453   3.677
 2636TIP3    H1 7914   1.095   4.464   3.743
 2636TIP3    H2 7915   1.210   4.541   3.680
 2637TIP3   OH2 7916   0.984   3.965   2.291
 2637TIP3    H1 7917   1.049   4.032   2.262
 2637TIP3    H2 7918   1.029   3.928   2.370
 2638TIP3   OH2 7919   1.110   3.832   2.496
 2638TIP3    H1 7920   1.044   3.792   2.557
 2638TIP3    H2 7921   1.177   3.868   2.559
 2639TIP3   OH2 7922   1.167   4.227   2.929
 2639TIP3    H1 7923   1.221   4.160   2.883
 2639TIP3    H2 7924   1.165   4.300   2.864
 2640TIP3   OH2 7925   0.992   4.524   3.124
 2640TIP3    H1 7926   0.919   4.566   3.173
 2640TIP3    H2 7927   0.944   4.479   3.051
 2641TIP3   OH2 7928   1.045   3.741   2.142
 2641TIP3    H1 7929   0.972   3.745   2.076
 2641TIP3    H2 7930   1.021   3.819   2.197
 2642TIP3   OH2 7931   0.916   3.410   2.094
 2642TIP3    H1 7932   0.866   3.447   2.021
 2642TIP3    H2 7933   0.897   3.314   2.083
 2643TIP3   OH2 7934   0.919   3.693   2.641
 2643TIP3    H1 7935   0.930   3.597   2.635
 2643TIP3    H2 7936   0.905   3.706   2.738
 2644TIP3   OH2 7937   1.212   4.116   3.502
 2644TIP3    H1 7938   1.282   4.048   3.489
 2644TIP3    H2 7939   1.235   4.182   3.435
 2645TIP3   OH2 7940   1.392   3.915   3.510
 2645TIP3    H1 7941   1.317   3.865   3.550
 2645TIP3    H2 7942   1.465   3.852   3.528
 2646TIP3   OH2 7943   0.864   3.140   2.066
 2646TIP3    H1 7944   0.935   3.114   2.129
 2646TIP3    H2 7945   0.787   3.089   2.097
 2647TIP3   OH2 7946   0.919   3.408   2.531
 2647TIP3    H1 7947   0.962   3.321   2.546
 2647TIP3    H2 7948   0.977   3.443   2.461
 2648TIP3   OH2 7949   1.078   3.578   3.033
 2648TIP3    H1 7950   1.163   3.602   2.990
 2648TIP3    H2 7951   1.094   3.615   3.121
 2649TIP3   OH2 7952   1.152   3.726   3.265
 2649TIP3    H1 7953   1.074   3.762   3.311
 2649TIP3    H2 7954   1.185   3.806   3.217
 2650TIP3   OH2 7955   1.586   3.306   3.815
 2650TIP3    H1 7956   1.658   3.250   3.778
 2650TIP3    H2 7957   1.571   3.370   3.742
 2651TIP3   OH2 7958   1.027   3.159   2.575
 2651TIP3    H1 7959   1.076   3.141   2.658
 2651TIP3    H2 7960   0.967   3.081   2.572
 2652TIP3   OH2 7961   1.464   3.448   3.625
 2652TIP3    H1 7962   1.377   3.494   3.627
 2652TIP3    H2 7963   1.441   3.373   3.567
 2653TIP3   OH2 7964   1.100   3.089   2.208
 2653TIP3    H1 7965   1.144   3.019   2.155
 2653TIP3    H2 7966   1.168   3.159   2.208
 2654TIP3   OH2 7967   0.671   4.624   2.474
 2654TIP3    H1 7968   0.725   4.614   2.392
 2654TIP3    H2 7969   0.721   4.692   2.522
 2655TIP3   OH2 7970   0.424   4.702   3.551
 2655TIP3    H1 7971   0.483   4.696   3.628
 2655TIP3    H2 7972   0.478   4.758   3.491
 2656TIP3   OH2 7973   0.580   4.866   3.398
 2656TIP3    H1 7974   0.650   4.820   3.349
 2656TIP3    H2 7975   0.632   4.924   3.457
 2657TIP3   OH2 7976   1.357   3.201   3.541
 2657TIP3    H1 7977   1.277   3.197   3.484
 2657TIP3    H2 7978   1.401   3.118   3.512
 2658TIP3   OH2 7979   0.307   4.728   3.086
 2658TIP3    H1 7980   0.218   4.720   3.047
 2658TIP3    H2 7981   0.308   4.822   3.110
 2659TIP3   OH2 7982   0.566   4.660   3.143
 2659TIP3    H1 7983   0.472   4.681   3.122
 2659TIP3    H2 7984   0.612   4.729   3.092
 2660TIP3   OH2 7985   0.764   4.851   3.051
 2660TIP3    H1 7986   0.749   4.937   3.005
 2660TIP3    H2 7987   0.791   4.794   2.976
 2661TIP3   OH2 7988   0.571   3.129   3.122
 2661TIP3    H1 7989   0.534   3.055   3.175
 2661TIP3    H2 7990   0.647   3.087   3.078
 2662TIP3   OH2 7991   1.091   3.020   3.029
 2662TIP3    H1 7992   1.129   3.067   2.951
 2662TIP3    H2 7993   0.996   3.036   3.018
 2663TIP3   OH2 7994   1.191   3.110   2.791
 2663TIP3    H1 7995   1.265   3.056   2.756
 2663TIP3    H2 7996   1.228   3.200   2.777
 2664TIP3   OH2 7997  -0.093   2.846   3.145
 2664TIP3    H1 7998  -0.185   2.832   3.114
 2664TIP3    H2 7999  -0.056   2.756   3.138
 2665TIP3   OH2 8000   0.268   2.877   3.019
 2665TIP3    H1 8001   0.328   2.921   2.957
 2665TIP3    H2 8002   0.301   2.908   3.105
 2666TIP3   OH2 8003   0.807   3.020   3.003
 2666TIP3    H1 8004   0.815   2.977   2.917
 2666TIP3    H2 8005   0.799   2.941   3.062
 2667TIP3   OH2 8006   0.845   2.946   2.567
 2667TIP3    H1 8007   0.759   2.988   2.586
 2667TIP3    H2 8008   0.832   2.859   2.611
 2668TIP3   OH2 8009  -0.245   2.809   2.596
 2668TIP3    H1 8010  -0.236   2.810   2.499
 2668TIP3    H2 8011  -0.191   2.886   2.620
 2669TIP3   OH2 8012   0.241   3.048   2.649
 2669TIP3    H1 8013   0.304   3.003   2.709
 2669TIP3    H2 8014   0.260   3.142   2.674
 2670TIP3   OH2 8015   0.087   4.477   2.139
 2670TIP3    H1 8016   0.179   4.490   2.106
 2670TIP3    H2 8017   0.065   4.394   2.091
 2671TIP3   OH2 8018   0.820   4.592   2.242
 2671TIP3    H1 8019   0.811   4.494   2.230
 2671TIP3    H2 8020   0.775   4.624   2.162
 2672TIP3   OH2 8021   0.032   3.095   4.049
 2672TIP3    H1 8022   0.031   3.003   4.074
 2672TIP3    H2 8023   0.125   3.120   4.070
 2673TIP3   OH2 8024   0.292   3.113   4.133
 2673TIP3    H1 8025   0.374   3.090   4.086
 2673TIP3    H2 8026   0.293   3.050   4.207
 2674TIP3   OH2 8027   1.040   4.732   3.430
 2674TIP3    H1 8028   0.963   4.702   3.378
 2674TIP3    H2 8029   1.022   4.828   3.435
 2675TIP3   OH2 8030   2.314   4.112   2.187
 2675TIP3    H1 8031   2.280   4.201   2.163
 2675TIP3    H2 8032   2.238   4.057   2.162
 2676TIP3   OH2 8033   2.310   4.106   2.585
 2676TIP3    H1 8034   2.349   4.081   2.671
 2676TIP3    H2 8035   2.270   4.022   2.558
 2677TIP3   OH2 8036   1.605   3.998   2.948
 2677TIP3    H1 8037   1.636   3.931   3.012
 2677TIP3    H2 8038   1.689   4.036   2.919
 2678TIP3   OH2 8039   2.559   4.412   2.260
 2678TIP3    H1 8040   2.539   4.343   2.325
 2678TIP3    H2 8041   2.587   4.486   2.317
 2679TIP3   OH2 8042   1.585   4.410   2.663
 2679TIP3    H1 8043   1.575   4.313   2.663
 2679TIP3    H2 8044   1.682   4.418   2.654
 2680TIP3   OH2 8045   1.287   3.609   2.443
 2680TIP3    H1 8046   1.241   3.693   2.464
 2680TIP3    H2 8047   1.215   3.560   2.400
 2681TIP3   OH2 8048   1.345   3.899   2.629
 2681TIP3    H1 8049   1.396   3.821   2.662
 2681TIP3    H2 8050   1.408   3.941   2.570
 2682TIP3   OH2 8051   2.213   4.873   2.278
 2682TIP3    H1 8052   2.251   4.800   2.224
 2682TIP3    H2 8053   2.196   4.828   2.361
 2683TIP3   OH2 8054   2.107   4.332   2.623
 2683TIP3    H1 8055   2.149   4.254   2.582
 2683TIP3    H2 8056   2.189   4.380   2.647
 2684TIP3   OH2 8057   3.119   3.656   2.620
 2684TIP3    H1 8058   3.152   3.738   2.661
 2684TIP3    H2 8059   3.147   3.669   2.527
 2685TIP3   OH2 8060   2.528   3.834   2.650
 2685TIP3    H1 8061   2.566   3.746   2.670
 2685TIP3    H2 8062   2.490   3.817   2.562
 2686TIP3   OH2 8063   1.860   3.495   2.618
 2686TIP3    H1 8064   1.843   3.566   2.553
 2686TIP3    H2 8065   1.812   3.420   2.577
 2687TIP3   OH2 8066   2.557   3.581   2.238
 2687TIP3    H1 8067   2.627   3.569   2.306
 2687TIP3    H2 8068   2.611   3.619   2.165
 2688TIP3   OH2 8069   1.495   3.692   2.729
 2688TIP3    H1 8070   1.578   3.672   2.776
 2688TIP3    H2 8071   1.509   3.639   2.648
 2689TIP3   OH2 8072   1.928   3.893   2.531
 2689TIP3    H1 8073   2.024   3.873   2.536
 2689TIP3    H2 8074   1.892   3.808   2.496
 2690TIP3   OH2 8075   3.195   3.865   2.795
 2690TIP3    H1 8076   3.118   3.920   2.769
 2690TIP3    H2 8077   3.156   3.823   2.873
 2691TIP3   OH2 8078   1.841   3.462   3.062
 2691TIP3    H1 8079   1.795   3.504   2.988
 2691TIP3    H2 8080   1.799   3.503   3.139
 2692TIP3   OH2 8081   2.202   4.330   2.056
 2692TIP3    H1 8082   2.157   4.313   1.972
 2692TIP3    H2 8083   2.154   4.410   2.087
 2693TIP3   OH2 8084   1.963   4.250   2.844
 2693TIP3    H1 8085   1.904   4.320   2.879
 2693TIP3    H2 8086   2.008   4.297   2.770
 2694TIP3   OH2 8087   2.756   3.593   2.420
 2694TIP3    H1 8088   2.741   3.545   2.502
 2694TIP3    H2 8089   2.809   3.670   2.451
 2695TIP3   OH2 8090   1.728   3.588   2.839
 2695TIP3    H1 8091   1.792   3.659   2.863
 2695TIP3    H2 8092   1.779   3.546   2.766
 2696TIP3   OH2 8093   1.795   4.451   2.946
 2696TIP3    H1 8094   1.769   4.538   2.910
 2696TIP3    H2 8095   1.716   4.432   3.000
 2697TIP3   OH2 8096   1.180   4.138   2.184
 2697TIP3    H1 8097   1.143   4.162   2.098
 2697TIP3    H2 8098   1.211   4.224   2.218
 2698TIP3   OH2 8099   2.624   4.656   2.423
 2698TIP3    H1 8100   2.534   4.646   2.462
 2698TIP3    H2 8101   2.614   4.742   2.378
 2699TIP3   OH2 8102   2.906   3.573   2.791
 2699TIP3    H1 8103   2.819   3.580   2.749
 2699TIP3    H2 8104   2.967   3.596   2.718
 2700TIP3   OH2 8105   2.181   3.202   2.738
 2700TIP3    H1 8106   2.205   3.120   2.784
 2700TIP3    H2 8107   2.115   3.239   2.801
 2701TIP3   OH2 8108   2.321   4.698   2.092
 2701TIP3    H1 8109   2.373   4.616   2.075
 2701TIP3    H2 8110   2.382   4.764   2.052
 2702TIP3   OH2 8111   2.467   4.481   2.009
 2702TIP3    H1 8112   2.416   4.403   1.984
 2702TIP3    H2 8113   2.509   4.451   2.093
 2703TIP3   OH2 8114   2.849   4.562   2.767
 2703TIP3    H1 8115   2.835   4.485   2.708
 2703TIP3    H2 8116   2.831   4.637   2.706
 2704TIP3   OH2 8117   2.142   3.957   2.029
 2704TIP3    H1 8118   2.061   4.009   2.009
 2704TIP3    H2 8119   2.187   3.957   1.942
 2705TIP3   OH2 8120   2.098   3.749   1.736
 2705TIP3    H1 8121   2.165   3.797   1.788
 2705TIP3    H2 8122   2.154   3.685   1.689
 2706TIP3   OH2 8123   3.046   4.211   2.617
 2706TIP3    H1 8124   2.960   4.259   2.619
 2706TIP3    H2 8125   3.074   4.230   2.525
 2707TIP3   OH2 8126   2.491   4.042   1.993
 2707TIP3    H1 8127   2.436   4.067   2.071
 2707TIP3    H2 8128   2.574   4.016   2.039
 2708TIP3   OH2 8129   2.723   4.075   2.912
 2708TIP3    H1 8130   2.718   4.160   2.961
 2708TIP3    H2 8131   2.636   4.075   2.868
 2709TIP3   OH2 8132   1.722   4.036   2.414
 2709TIP3    H1 8133   1.683   3.977   2.346
 2709TIP3    H2 8134   1.798   3.983   2.447
 2710TIP3   OH2 8135   1.850   4.450   2.559
 2710TIP3    H1 8136   1.832   4.417   2.469
 2710TIP3    H2 8137   1.939   4.413   2.576
 2711TIP3   OH2 8138   1.845   4.012   2.771
 2711TIP3    H1 8139   1.882   3.980   2.686
 2711TIP3    H2 8140   1.896   4.094   2.787
 2712TIP3   OH2 8141   2.385   4.648   2.547
 2712TIP3    H1 8142   2.370   4.726   2.603
 2712TIP3    H2 8143   2.369   4.573   2.608
 2713TIP3   OH2 8144   1.997   4.564   3.095
 2713TIP3    H1 8145   1.935   4.626   3.139
 2713TIP3    H2 8146   1.933   4.512   3.042
 2714TIP3   OH2 8147   2.328   3.899   1.824
 2714TIP3    H1 8148   2.388   3.959   1.874
 2714TIP3    H2 8149   2.353   3.920   1.731
 2715TIP3   OH2 8150   1.754   4.120   3.207
 2715TIP3    H1 8151   1.754   4.211   3.241
 2715TIP3    H2 8152   1.659   4.101   3.207
 2716TIP3   OH2 8153   2.075   4.574   2.098
 2716TIP3    H1 8154   2.156   4.628   2.105
 2716TIP3    H2 8155   2.014   4.633   2.052
 2717TIP3   OH2 8156   1.790   4.729   3.180
 2717TIP3    H1 8157   1.757   4.733   3.088
 2717TIP3    H2 8158   1.708   4.709   3.231
 2718TIP3   OH2 8159   2.844   3.135   1.874
 2718TIP3    H1 8160   2.763   3.156   1.925
 2718TIP3    H2 8161   2.857   3.219   1.824
 2719TIP3   OH2 8162   1.591   3.883   2.213
 2719TIP3    H1 8163   1.518   3.925   2.162
 2719TIP3    H2 8164   1.556   3.795   2.229
 2720TIP3   OH2 8165   2.645   4.504   1.420
 2720TIP3    H1 8166   2.652   4.601   1.407
 2720TIP3    H2 8167   2.738   4.476   1.407
 2721TIP3   OH2 8168   1.367   4.268   3.126
 2721TIP3    H1 8169   1.301   4.247   3.058
 2721TIP3    H2 8170   1.406   4.180   3.147
 2722TIP3   OH2 8171   1.224   4.455   2.760
 2722TIP3    H1 8172   1.320   4.453   2.749
 2722TIP3    H2 8173   1.213   4.536   2.813
 2723TIP3   OH2 8174   3.086   4.913   2.817
 2723TIP3    H1 8175   3.086   4.817   2.832
 2723TIP3    H2 8176   3.002   4.938   2.863
 2724TIP3   OH2 8177   2.192   4.695   2.951
 2724TIP3    H1 8178   2.188   4.788   2.982
 2724TIP3    H2 8179   2.121   4.654   3.004
 2725TIP3   OH2 8180   1.961   4.821   1.906
 2725TIP3    H1 8181   1.915   4.797   1.823
 2725TIP3    H2 8182   1.920   4.906   1.929
 2726TIP3   OH2 8183   1.393   4.670   2.287
 2726TIP3    H1 8184   1.439   4.661   2.374
 2726TIP3    H2 8185   1.342   4.588   2.284
 2727TIP3   OH2 8186   2.161   4.729   1.535
 2727TIP3    H1 8187   2.218   4.655   1.503
 2727TIP3    H2 8188   2.191   4.738   1.628
 2728TIP3   OH2 8189   2.209   4.775   1.806
 2728TIP3    H1 8190   2.119   4.785   1.845
 2728TIP3    H2 8191   2.257   4.734   1.879
 2729TIP3   OH2 8192   2.982   4.031   3.086
 2729TIP3    H1 8193   2.897   4.045   3.042
 2729TIP3    H2 8194   2.998   3.936   3.067
 2730TIP3   OH2 8195   1.574   4.449   3.108
 2730TIP3    H1 8196   1.622   4.432   3.192
 2730TIP3    H2 8197   1.499   4.386   3.116
 2731TIP3   OH2 8198   1.970   3.281   2.894
 2731TIP3    H1 8199   1.876   3.254   2.887
 2731TIP3    H2 8200   1.963   3.352   2.961
 2732TIP3   OH2 8201   2.746   3.827   3.035
 2732TIP3    H1 8202   2.695   3.852   3.112
 2732TIP3    H2 8203   2.725   3.900   2.973
 2733TIP3   OH2 8204   2.404   3.936   1.566
 2733TIP3    H1 8205   2.370   3.916   1.477
 2733TIP3    H2 8206   2.488   3.981   1.544
 2734TIP3   OH2 8207   2.117   3.318   1.872
 2734TIP3    H1 8208   2.085   3.316   1.965
 2734TIP3    H2 8209   2.077   3.234   1.840
 2735TIP3   OH2 8210   1.900   3.784   2.918
 2735TIP3    H1 8211   1.853   3.804   3.001
 2735TIP3    H2 8212   1.888   3.866   2.867
 2736TIP3   OH2 8213   1.785   3.677   2.429
 2736TIP3    H1 8214   1.694   3.647   2.451
 2736TIP3    H2 8215   1.798   3.633   2.343
 2737TIP3   OH2 8216   2.277   3.757   2.164
 2737TIP3    H1 8217   2.227   3.828   2.119
 2737TIP3    H2 8218   2.332   3.723   2.091
 2738TIP3   OH2 8219   2.463   4.027   3.244
 2738TIP3    H1 8220   2.430   3.962   3.311
 2738TIP3    H2 8221   2.553   4.043   3.276
 2739TIP3   OH2 8222   2.442   3.784   2.394
 2739TIP3    H1 8223   2.372   3.808   2.330
 2739TIP3    H2 8224   2.474   3.703   2.350
 2740TIP3   OH2 8225   1.720   3.817   3.131
 2740TIP3    H1 8226   1.767   3.875   3.193
 2740TIP3    H2 8227   1.711   3.734   3.181
 2741TIP3   OH2 8228   1.774   3.293   1.836
 2741TIP3    H1 8229   1.766   3.291   1.933
 2741TIP3    H2 8230   1.696   3.347   1.812
 2742TIP3   OH2 8231   1.320   3.333   2.711
 2742TIP3    H1 8232   1.391   3.368   2.767
 2742TIP3    H2 8233   1.367   3.306   2.631
 2743TIP3   OH2 8234   1.275   3.314   2.224
 2743TIP3    H1 8235   1.324   3.351   2.148
 2743TIP3    H2 8236   1.218   3.390   2.246
 2744TIP3   OH2 8237   2.454   4.030   2.818
 2744TIP3    H1 8238   2.484   3.959   2.757
 2744TIP3    H2 8239   2.419   3.976   2.892
 2745TIP3   OH2 8240   2.119   3.503   2.495
 2745TIP3    H1 8241   2.043   3.493   2.556
 2745TIP3    H2 8242   2.193   3.474   2.552
 2746TIP3   OH2 8243   1.550   3.552   2.498
 2746TIP3    H1 8244   1.456   3.555   2.469
 2746TIP3    H2 8245   1.578   3.461   2.477
 2747TIP3   OH2 8246   1.812   3.543   2.193
 2747TIP3    H1 8247   1.907   3.559   2.176
 2747TIP3    H2 8248   1.768   3.568   2.108
 2748TIP3   OH2 8249   2.605   3.573   2.701
 2748TIP3    H1 8250   2.566   3.582   2.790
 2748TIP3    H2 8251   2.548   3.504   2.662
 2749TIP3   OH2 8252   1.665   3.582   1.964
 2749TIP3    H1 8253   1.596   3.536   1.913
 2749TIP3    H2 8254   1.718   3.620   1.891
 2750TIP3   OH2 8255   2.783   5.259   2.918
 2750TIP3    H1 8256   2.780   5.283   2.824
 2750TIP3    H2 8257   2.864   5.306   2.948
 2751TIP3   OH2 8258   1.733   4.370   3.335
 2751TIP3    H1 8259   1.813   4.400   3.382
 2751TIP3    H2 8260   1.668   4.371   3.408
 2752TIP3   OH2 8261   2.198   3.841   2.579
 2752TIP3    H1 8262   2.259   3.775   2.544
 2752TIP3    H2 8263   2.188   3.810   2.672
 2753TIP3   OH2 8264   1.709   3.310   2.475
 2753TIP3    H1 8265   1.676   3.233   2.527
 2753TIP3    H2 8266   1.772   3.266   2.415
 2754TIP3   OH2 8267   2.174   3.761   2.836
 2754TIP3    H1 8268   2.089   3.741   2.878
 2754TIP3    H2 8269   2.233   3.772   2.912
 2755TIP3   OH2 8270   1.912   4.107   1.974
 2755TIP3    H1 8271   1.837   4.046   1.960
 2755TIP3    H2 8272   1.890   4.143   2.064
 2756TIP3   OH2 8273   2.807   4.347   2.599
 2756TIP3    H1 8274   2.830   4.397   2.518
 2756TIP3    H2 8275   2.723   4.304   2.574
 2757TIP3   OH2 8276   2.365   3.424   1.834
 2757TIP3    H1 8277   2.270   3.401   1.850
 2757TIP3    H2 8278   2.373   3.515   1.867
 2758TIP3   OH2 8279   2.312   4.432   2.970
 2758TIP3    H1 8280   2.338   4.411   3.061
 2758TIP3    H2 8281   2.272   4.520   2.980
 2759TIP3   OH2 8282   2.435   3.669   1.945
 2759TIP3    H1 8283   2.531   3.676   1.961
 2759TIP3    H2 8284   2.416   3.751   1.894
 2760TIP3   OH2 8285   1.604   4.132   2.646
 2760TIP3    H1 8286   1.642   4.106   2.559
 2760TIP3    H2 8287   1.658   4.079   2.706
 2761TIP3   OH2 8288   2.054   4.263   1.799
 2761TIP3    H1 8289   2.004   4.348   1.803
 2761TIP3    H2 8290   2.000   4.206   1.858
 2762TIP3   OH2 8291   1.485   4.055   3.266
 2762TIP3    H1 8292   1.504   4.037   3.360
 2762TIP3    H2 8293   1.418   3.988   3.245
 2763TIP3   OH2 8294   2.217   4.167   3.289
 2763TIP3    H1 8295   2.156   4.117   3.232
 2763TIP3    H2 8296   2.303   4.132   3.256
 2764TIP3   OH2 8297   2.469   4.695   2.868
 2764TIP3    H1 8298   2.373   4.689   2.881
 2764TIP3    H2 8299   2.496   4.745   2.948
 2765TIP3   OH2 8300   2.877   3.764   1.775
 2765TIP3    H1 8301   2.815   3.719   1.712
 2765TIP3    H2 8302   2.872   3.854   1.737
 2766TIP3   OH2 8303   3.099   4.625   2.855
 2766TIP3    H1 8304   3.002   4.616   2.847
 2766TIP3    H2 8305   3.126   4.593   2.766
 2767TIP3   OH2 8306   2.587   4.581   1.690
 2767TIP3    H1 8307   2.553   4.517   1.753
 2767TIP3    H2 8308   2.593   4.531   1.607
 2768TIP3   OH2 8309   2.574   4.210   2.514
 2768TIP3    H1 8310   2.482   4.183   2.530
 2768TIP3    H2 8311   2.609   4.129   2.472
 2769TIP3   OH2 8312   1.707   4.441   2.279
 2769TIP3    H1 8313   1.704   4.520   2.223
 2769TIP3    H2 8314   1.614   4.420   2.287
 2770TIP3   OH2 8315   1.267   3.741   1.977
 2770TIP3    H1 8316   1.315   3.824   1.999
 2770TIP3    H2 8317   1.193   3.746   2.041
 2771TIP3   OH2 8318   1.834   4.202   2.216
 2771TIP3    H1 8319   1.803   4.292   2.237
 2771TIP3    H2 8320   1.800   4.151   2.292
 2772TIP3   OH2 8321   1.978   4.778   2.744
 2772TIP3    H1 8322   2.018   4.851   2.693
 2772TIP3    H2 8323   2.055   4.742   2.790
 2773TIP3   OH2 8324   1.624   4.673   2.127
 2773TIP3    H1 8325   1.537   4.684   2.170
 2773TIP3    H2 8326   1.658   4.765   2.130
 2774TIP3   OH2 8327   2.360   4.417   2.703
 2774TIP3    H1 8328   2.349   4.416   2.801
 2774TIP3    H2 8329   2.434   4.357   2.691
 2775TIP3   OH2 8330   2.340   4.312   1.587
 2775TIP3    H1 8331   2.393   4.286   1.666
 2775TIP3    H2 8332   2.252   4.281   1.612
 2776TIP3   OH2 8333   2.611   4.945   2.755
 2776TIP3    H1 8334   2.532   4.887   2.752
 2776TIP3    H2 8335   2.591   5.008   2.682
 2777TIP3   OH2 8336   2.675   4.781   1.403
 2777TIP3    H1 8337   2.710   4.858   1.355
 2777TIP3    H2 8338   2.594   4.822   1.442
 2778TIP3   OH2 8339   1.693   3.570   3.275
 2778TIP3    H1 8340   1.596   3.555   3.278
 2778TIP3    H2 8341   1.725   3.500   3.334
 2779TIP3   OH2 8342   2.501   4.237   1.795
 2779TIP3    H1 8343   2.490   4.174   1.870
 2779TIP3    H2 8344   2.599   4.237   1.787
 2780TIP3   OH2 8345   1.413   4.642   2.901
 2780TIP3    H1 8346   1.468   4.571   2.939
 2780TIP3    H2 8347   1.442   4.718   2.954
 2781TIP3   OH2 8348   1.717   4.279   1.586
 2781TIP3    H1 8349   1.720   4.183   1.566
 2781TIP3    H2 8350   1.686   4.279   1.679
 2782TIP3   OH2 8351   1.651   4.297   1.853
 2782TIP3    H1 8352   1.721   4.276   1.916
 2782TIP3    H2 8353   1.646   4.395   1.859
 2783TIP3   OH2 8354   1.376   3.983   2.063
 2783TIP3    H1 8355   1.311   4.030   2.120
 2783TIP3    H2 8356   1.391   4.052   1.995
 2784TIP3   OH2 8357   2.522   3.626   2.968
 2784TIP3    H1 8358   2.614   3.627   2.996
 2784TIP3    H2 8359   2.486   3.546   3.012
 2785TIP3   OH2 8360   2.420   3.368   2.123
 2785TIP3    H1 8361   2.405   3.395   2.031
 2785TIP3    H2 8362   2.461   3.449   2.162
 2786TIP3   OH2 8363   1.911   4.494   1.810
 2786TIP3    H1 8364   1.821   4.518   1.838
 2786TIP3    H2 8365   1.930   4.569   1.752
 2787TIP3   OH2 8366   2.093   3.558   2.226
 2787TIP3    H1 8367   2.159   3.628   2.210
 2787TIP3    H2 8368   2.103   3.545   2.323
 2788TIP3   OH2 8369   2.376   3.868   3.024
 2788TIP3    H1 8370   2.402   3.913   3.107
 2788TIP3    H2 8371   2.424   3.783   3.027
 2789TIP3   OH2 8372   2.247   3.271   2.322
 2789TIP3    H1 8373   2.261   3.334   2.394
 2789TIP3    H2 8374   2.308   3.307   2.254
 2790TIP3   OH2 8375   1.650   4.573   1.866
 2790TIP3    H1 8376   1.598   4.634   1.811
 2790TIP3    H2 8377   1.639   4.613   1.955
 2791TIP3   OH2 8378   1.759   3.279   2.110
 2791TIP3    H1 8379   1.754   3.367   2.153
 2791TIP3    H2 8380   1.855   3.262   2.121
 2792TIP3   OH2 8381   3.008   3.766   2.982
 2792TIP3    H1 8382   2.912   3.775   3.001
 2792TIP3    H2 8383   3.005   3.680   2.937
 2793TIP3   OH2 8384   2.661   3.967   2.397
 2793TIP3    H1 8385   2.584   3.908   2.408
 2793TIP3    H2 8386   2.731   3.918   2.447
 2794TIP3   OH2 8387   1.372   4.189   1.865
 2794TIP3    H1 8388   1.426   4.270   1.861
 2794TIP3    H2 8389   1.422   4.134   1.802
 2795TIP3   OH2 8390   1.316   3.470   2.001
 2795TIP3    H1 8391   1.324   3.567   1.999
 2795TIP3    H2 8392   1.232   3.456   1.958
 2796TIP3   OH2 8393   2.632   4.928   2.344
 2796TIP3    H1 8394   2.589   4.974   2.269
 2796TIP3    H2 8395   2.726   4.946   2.324
 2797TIP3   OH2 8396   1.695   3.192   2.877
 2797TIP3    H1 8397   1.678   3.155   2.789
 2797TIP3    H2 8398   1.697   3.112   2.933
 2798TIP3   OH2 8399   1.242   4.405   2.253
 2798TIP3    H1 8400   1.182   4.438   2.321
 2798TIP3    H2 8401   1.208   4.452   2.173
 2799TIP3   OH2 8402   1.407   4.960   3.326
 2799TIP3    H1 8403   1.493   4.962   3.373
 2799TIP3    H2 8404   1.389   4.865   3.324
 2800TIP3   OH2 8405   1.880   4.907   3.372
 2800TIP3    H1 8406   1.975   4.894   3.376
 2800TIP3    H2 8407   1.855   4.846   3.300
 2801TIP3   OH2 8408   1.863   4.489   1.494
 2801TIP3    H1 8409   1.808   4.418   1.536
 2801TIP3    H2 8410   1.941   4.438   1.468
 2802TIP3   OH2 8411   2.520   4.824   3.105
 2802TIP3    H1 8412   2.516   4.753   3.173
 2802TIP3    H2 8413   2.598   4.875   3.134
 2803TIP3   OH2 8414   2.302   4.527   1.413
 2803TIP3    H1 8415   2.335   4.458   1.475
 2803TIP3    H2 8416   2.363   4.519   1.338
 2804TIP3   OH2 8417   1.532   4.358   3.527
 2804TIP3    H1 8418   1.548   4.262   3.530
 2804TIP3    H2 8419   1.446   4.362   3.481
 2805TIP3   OH2 8420   1.513   4.001   1.724
 2805TIP3    H1 8421   1.571   3.976   1.799
 2805TIP3    H2 8422   1.580   4.008   1.652
 2806TIP3   OH2 8423   2.139   4.445   3.301
 2806TIP3    H1 8424   2.098   4.466   3.215
 2806TIP3    H2 8425   2.172   4.353   3.288
 2807TIP3   OH2 8426   2.042   4.207   1.529
 2807TIP3    H1 8427   2.031   4.222   1.625
 2807TIP3    H2 8428   2.034   4.110   1.524
 2808TIP3   OH2 8429   2.634   4.460   2.911
 2808TIP3    H1 8430   2.708   4.503   2.865
 2808TIP3    H2 8431   2.562   4.523   2.893
 2809TIP3   OH2 8432   1.654   4.094   3.513
 2809TIP3    H1 8433   1.734   4.061   3.472
 2809TIP3    H2 8434   1.686   4.126   3.600
 2810TIP3   OH2 8435   1.713   3.916   1.937
 2810TIP3    H1 8436   1.689   3.879   2.024
 2810TIP3    H2 8437   1.752   3.838   1.892
 2811TIP3   OH2 8438   1.982   3.966   3.175
 2811TIP3    H1 8439   1.909   4.032   3.179
 2811TIP3    H2 8440   2.035   4.003   3.101
 2812TIP3   OH2 8441   1.822   3.710   1.780
 2812TIP3    H1 8442   1.796   3.718   1.686
 2812TIP3    H2 8443   1.920   3.715   1.773
 2813TIP3   OH2 8444   2.507   4.379   3.302
 2813TIP3    H1 8445   2.579   4.343   3.250
 2813TIP3    H2 8446   2.500   4.314   3.375
 2814TIP3   OH2 8447   2.639   4.035   1.450
 2814TIP3    H1 8448   2.618   3.991   1.365
 2814TIP3    H2 8449   2.606   4.125   1.429
 2815TIP3   OH2 8450   2.112   3.758   3.312
 2815TIP3    H1 8451   2.122   3.673   3.267
 2815TIP3    H2 8452   2.071   3.814   3.243
 2816TIP3   OH2 8453   2.137   4.098   2.996
 2816TIP3    H1 8454   2.214   4.080   2.941
 2816TIP3    H2 8455   2.084   4.157   2.939
 2817TIP3   OH2 8456   2.719   4.047   3.355
 2817TIP3    H1 8457   2.766   3.982   3.410
 2817TIP3    H2 8458   2.792   4.098   3.315
 2818TIP3   OH2 8459   2.762   4.309   3.095
 2818TIP3    H1 8460   2.705   4.364   3.037
 2818TIP3    H2 8461   2.850   4.328   3.056
 2819TIP3   OH2 8462   1.993   3.875   3.540
 2819TIP3    H1 8463   1.923   3.807   3.548
 2819TIP3    H2 8464   2.023   3.859   3.448
 2820TIP3   OH2 8465   2.362   3.839   3.407
 2820TIP3    H1 8466   2.353   3.807   3.497
 2820TIP3    H2 8467   2.283   3.799   3.365
 2821TIP3   OH2 8468   1.826   3.654   3.585
 2821TIP3    H1 8469   1.828   3.565   3.546
 2821TIP3    H2 8470   1.862   3.636   3.674
 2822TIP3   OH2 8471   1.106   4.149   1.907
 2822TIP3    H1 8472   1.200   4.173   1.890
 2822TIP3    H2 8473   1.102   4.063   1.860
 2823TIP3   OH2 8474   1.023   4.761   2.323
 2823TIP3    H1 8475   0.959   4.700   2.281
 2823TIP3    H2 8476   1.069   4.700   2.385
 2824TIP3   OH2 8477   1.159   4.604   2.506
 2824TIP3    H1 8478   1.145   4.537   2.574
 2824TIP3    H2 8479   1.211   4.669   2.556
 2825TIP3   OH2 8480   2.890   5.010   2.308
 2825TIP3    H1 8481   2.913   5.040   2.398
 2825TIP3    H2 8482   2.956   5.054   2.253
 2826TIP3   OH2 8483   2.916   5.031   2.590
 2826TIP3    H1 8484   2.869   4.945   2.586
 2826TIP3    H2 8485   2.989   5.006   2.650
 2827TIP3   OH2 8486   2.962   4.710   3.162
 2827TIP3    H1 8487   2.891   4.720   3.228
 2827TIP3    H2 8488   3.005   4.798   3.167
 2828TIP3   OH2 8489   2.781   4.221   1.779
 2828TIP3    H1 8490   2.847   4.287   1.752
 2828TIP3    H2 8491   2.824   4.182   1.859
 2829TIP3   OH2 8492   2.907   4.088   1.985
 2829TIP3    H1 8493   2.839   4.046   2.043
 2829TIP3    H2 8494   2.971   4.124   2.049
 2830TIP3   OH2 8495   2.964   4.485   2.416
 2830TIP3    H1 8496   3.017   4.417   2.371
 2830TIP3    H2 8497   2.957   4.554   2.347
 2831TIP3   OH2 8498   2.788   4.783   2.609
 2831TIP3    H1 8499   2.716   4.823   2.661
 2831TIP3    H2 8500   2.738   4.737   2.538
 2832TIP3   OH2 8501   2.842   3.998   1.629
 2832TIP3    H1 8502   2.769   4.001   1.563
 2832TIP3    H2 8503   2.816   4.074   1.685
 2833TIP3   OH2 8504   2.715   3.668   1.578
 2833TIP3    H1 8505   2.663   3.703   1.505
 2833TIP3    H2 8506   2.695   3.572   1.571
 2834TIP3   OH2 8507   2.717   3.948   2.128
 2834TIP3    H1 8508   2.723   3.851   2.122
 2834TIP3    H2 8509   2.701   3.962   2.224
 2835TIP3   OH2 8510   1.342   4.018   2.880
 2835TIP3    H1 8511   1.339   3.983   2.789
 2835TIP3    H2 8512   1.440   4.021   2.895
 2836TIP3   OH2 8513   3.009   4.370   2.989
 2836TIP3    H1 8514   3.077   4.301   2.974
 2836TIP3    H2 8515   3.030   4.436   2.921
 2837TIP3   OH2 8516   3.193   4.171   2.988
 2837TIP3    H1 8517   3.121   4.115   3.026
 2837TIP3    H2 8518   3.271   4.132   3.027
 2838TIP3   OH2 8519   2.659   3.401   1.560
 2838TIP3    H1 8520   2.729   3.370   1.621
 2838TIP3    H2 8521   2.581   3.347   1.585
 2839TIP3   OH2 8522   2.715   3.665   2.018
 2839TIP3    H1 8523   2.757   3.577   2.034
 2839TIP3    H2 8524   2.774   3.699   1.948
 2840TIP3   OH2 8525   2.873   3.833   2.517
 2840TIP3    H1 8526   2.959   3.856   2.476
 2840TIP3    H2 8527   2.888   3.868   2.607
 2841TIP3   OH2 8528   2.947   3.987   2.743
 2841TIP3    H1 8529   2.870   4.018   2.793
 2841TIP3    H2 8530   2.978   4.069   2.700
 2842TIP3   OH2 8531   1.558   3.702   3.549
 2842TIP3    H1 8532   1.656   3.698   3.549
 2842TIP3    H2 8533   1.537   3.615   3.589
 2843TIP3   OH2 8534   2.824   3.414   2.058
 2843TIP3    H1 8535   2.870   3.398   2.143
 2843TIP3    H2 8536   2.762   3.338   2.057
 2844TIP3   OH2 8537   1.519   3.403   2.892
 2844TIP3    H1 8538   1.579   3.325   2.896
 2844TIP3    H2 8539   1.585   3.474   2.878
 2845TIP3   OH2 8540   1.322   3.673   2.952
 2845TIP3    H1 8541   1.373   3.663   2.869
 2845TIP3    H2 8542   1.356   3.757   2.985
 2846TIP3   OH2 8543   2.898   3.345   1.696
 2846TIP3    H1 8544   2.939   3.275   1.641
 2846TIP3    H2 8545   2.965   3.415   1.694
 2847TIP3   OH2 8546   1.309   3.170   2.451
 2847TIP3    H1 8547   1.218   3.170   2.485
 2847TIP3    H2 8548   1.303   3.231   2.376
 2848TIP3   OH2 8549   2.471   4.880   1.962
 2848TIP3    H1 8550   2.525   4.870   1.881
 2848TIP3    H2 8551   2.522   4.946   2.013
 2849TIP3   OH2 8552   1.527   3.271   3.284
 2849TIP3    H1 8553   1.467   3.255   3.356
 2849TIP3    H2 8554   1.465   3.297   3.212
 2850TIP3   OH2 8555   1.568   4.685   3.343
 2850TIP3    H1 8556   1.474   4.663   3.329
 2850TIP3    H2 8557   1.578   4.670   3.437
 2851TIP3   OH2 8558   1.752   4.722   2.896
 2851TIP3    H1 8559   1.703   4.798   2.857
 2851TIP3    H2 8560   1.837   4.735   2.848
 2852TIP3   OH2 8561   2.187   4.961   3.030
 2852TIP3    H1 8562   2.229   4.959   3.118
 2852TIP3    H2 8563   2.252   5.013   2.979
 2853TIP3   OH2 8564   2.367   5.116   2.894
 2853TIP3    H1 8565   2.437   5.064   2.851
 2853TIP3    H2 8566   2.421   5.173   2.954
 2854TIP3   OH2 8567   1.424   4.973   2.921
 2854TIP3    H1 8568   1.333   5.002   2.898
 2854TIP3    H2 8569   1.439   5.026   3.000
 2855TIP3   OH2 8570   1.660   4.955   2.778
 2855TIP3    H1 8571   1.572   4.965   2.822
 2855TIP3    H2 8572   1.640   4.986   2.688
 2856TIP3   OH2 8573   2.085   4.977   2.576
 2856TIP3    H1 8574   2.014   4.995   2.511
 2856TIP3    H2 8575   2.096   5.066   2.617
 2857TIP3   OH2 8576   2.354   4.919   2.629
 2857TIP3    H1 8577   2.260   4.934   2.609
 2857TIP3    H2 8578   2.396   4.991   2.580
 2858TIP3   OH2 8579   2.562   5.110   2.539
 2858TIP3    H1 8580   2.546   5.194   2.491
 2858TIP3    H2 8581   2.587   5.049   2.466
 2859TIP3   OH2 8582   1.334   4.765   2.661
 2859TIP3    H1 8583   1.361   4.736   2.751
 2859TIP3    H2 8584   1.407   4.726   2.609
 2860TIP3   OH2 8585   1.532   4.641   2.524
 2860TIP3    H1 8586   1.546   4.556   2.571
 2860TIP3    H2 8587   1.623   4.676   2.520
 2861TIP3   OH2 8588   1.799   4.731   2.528
 2861TIP3    H1 8589   1.827   4.638   2.517
 2861TIP3    H2 8590   1.849   4.753   2.609
 2862TIP3   OH2 8591   2.355   3.378   2.594
 2862TIP3    H1 8592   2.316   3.318   2.661
 2862TIP3    H2 8593   2.438   3.333   2.574
 2863TIP3   OH2 8594   2.891   3.262   2.508
 2863TIP3    H1 8595   2.926   3.318   2.435
 2863TIP3    H2 8596   2.796   3.286   2.508
 2864TIP3   OH2 8597   2.988   3.370   2.274
 2864TIP3    H1 8598   3.063   3.317   2.241
 2864TIP3    H2 8599   3.023   3.461   2.261
 2865TIP3   OH2 8600   1.619   3.094   2.624
 2865TIP3    H1 8601   1.528   3.059   2.629
 2865TIP3    H2 8602   1.670   3.010   2.620
 2866TIP3   OH2 8603   1.402   2.969   2.274
 2866TIP3    H1 8604   1.437   3.026   2.203
 2866TIP3    H2 8605   1.377   3.034   2.342
 2867TIP3   OH2 8606   2.060   3.130   2.502
 2867TIP3    H1 8607   2.120   3.181   2.446
 2867TIP3    H2 8608   2.093   3.155   2.591
 2868TIP3   OH2 8609   2.614   3.285   2.489
 2868TIP3    H1 8610   2.608   3.241   2.403
 2868TIP3    H2 8611   2.598   3.208   2.549
 2869TIP3   OH2 8612   2.641   3.203   2.054
 2869TIP3    H1 8613   2.557   3.247   2.076
 2869TIP3    H2 8614   2.627   3.116   2.098
 2870TIP3   OH2 8615   1.117   4.546   2.060
 2870TIP3    H1 8616   1.035   4.512   2.021
 2870TIP3    H2 8617   1.117   4.635   2.022
 2871TIP3   OH2 8618   1.529   3.128   2.034
 2871TIP3    H1 8619   1.578   3.064   1.980
 2871TIP3    H2 8620   1.603   3.181   2.071
 2872TIP3   OH2 8621   2.036   3.306   2.137
 2872TIP3    H1 8622   2.095   3.261   2.200
 2872TIP3    H2 8623   2.054   3.399   2.163
 2873TIP3   OH2 8624   1.909   4.722   1.650
 2873TIP3    H1 8625   1.990   4.736   1.597
 2873TIP3    H2 8626   1.858   4.665   1.589
 2874TIP3   OH2 8627   2.621   4.849   1.730
 2874TIP3    H1 8628   2.613   4.751   1.720
 2874TIP3    H2 8629   2.570   4.879   1.651
 2875TIP3   OH2 8630   1.826   3.381   3.525
 2875TIP3    H1 8631   1.799   3.303   3.577
 2875TIP3    H2 8632   1.922   3.378   3.537
 2876TIP3   OH2 8633   2.087   3.392   3.643
 2876TIP3    H1 8634   2.161   3.373   3.583
 2876TIP3    H2 8635   2.085   3.310   3.696
 2877TIP3   OH2 8636   1.188   4.545   1.696
 2877TIP3    H1 8637   1.218   4.617   1.752
 2877TIP3    H2 8638   1.275   4.507   1.670
 2878TIP3   OH2 8639   2.838   4.988   2.915
 2878TIP3    H1 8640   2.759   4.958   2.866
 2878TIP3    H2 8641   2.818   5.084   2.923
 2879TIP3   OH2 8642   4.110   4.364   1.676
 2879TIP3    H1 8643   4.078   4.454   1.656
 2879TIP3    H2 8644   4.034   4.311   1.648
 2880TIP3   OH2 8645   4.104   4.365   2.072
 2880TIP3    H1 8646   4.144   4.342   2.158
 2880TIP3    H2 8647   4.065   4.280   2.046
 2881TIP3   OH2 8648   3.402   4.254   2.428
 2881TIP3    H1 8649   3.431   4.185   2.491
 2881TIP3    H2 8650   3.483   4.307   2.420
 2882TIP3   OH2 8651   4.353   4.669   1.749
 2882TIP3    H1 8652   4.339   4.601   1.816
 2882TIP3    H2 8653   4.384   4.744   1.803
 2883TIP3   OH2 8654   3.380   4.668   2.148
 2883TIP3    H1 8655   3.370   4.571   2.148
 2883TIP3    H2 8656   3.477   4.676   2.146
 2884TIP3   OH2 8657   3.086   3.871   1.929
 2884TIP3    H1 8658   3.035   3.951   1.951
 2884TIP3    H2 8659   3.015   3.817   1.889
 2885TIP3   OH2 8660   3.141   4.156   2.116
 2885TIP3    H1 8661   3.192   4.079   2.150
 2885TIP3    H2 8662   3.202   4.193   2.051
 2886TIP3   OH2 8663   4.005   5.126   1.764
 2886TIP3    H1 8664   4.046   5.054   1.712
 2886TIP3    H2 8665   3.997   5.085   1.851
 2887TIP3   OH2 8666   3.904   4.590   2.109
 2887TIP3    H1 8667   3.947   4.511   2.071
 2887TIP3    H2 8668   3.986   4.638   2.135
 2888TIP3   OH2 8669   4.922   3.908   2.110
 2888TIP3    H1 8670   4.951   3.991   2.154
 2888TIP3    H2 8671   4.945   3.927   2.017
 2889TIP3   OH2 8672   4.318   4.089   2.138
 2889TIP3    H1 8673   4.361   4.004   2.161
 2889TIP3    H2 8674   4.285   4.069   2.048
 2890TIP3   OH2 8675   3.662   3.750   2.104
 2890TIP3    H1 8676   3.639   3.822   2.041
 2890TIP3    H2 8677   3.611   3.676   2.064
 2891TIP3   OH2 8678   4.355   3.840   1.726
 2891TIP3    H1 8679   4.426   3.827   1.793
 2891TIP3    H2 8680   4.407   3.876   1.652
 2892TIP3   OH2 8681   3.291   3.951   2.216
 2892TIP3    H1 8682   3.374   3.930   2.264
 2892TIP3    H2 8683   3.303   3.895   2.136
 2893TIP3   OH2 8684   3.728   4.149   2.012
 2893TIP3    H1 8685   3.822   4.125   2.025
 2893TIP3    H2 8686   3.690   4.064   1.980
 2894TIP3   OH2 8687   4.996   4.119   2.277
 2894TIP3    H1 8688   4.909   4.163   2.264
 2894TIP3    H2 8689   5.018   4.150   2.366
 2895TIP3   OH2 8690   3.654   3.735   2.542
 2895TIP3    H1 8691   3.598   3.769   2.470
 2895TIP3    H2 8692   3.597   3.755   2.618
 2896TIP3   OH2 8693   3.994   4.582   1.549
 2896TIP3    H1 8694   3.952   4.568   1.463
 2896TIP3    H2 8695   3.950   4.665   1.577
 2897TIP3   OH2 8696   3.758   4.509   2.331
 2897TIP3    H1 8697   3.699   4.579   2.367
 2897TIP3    H2 8698   3.804   4.557   2.259
 2898TIP3   OH2 8699   4.554   3.848   1.910
 2898TIP3    H1 8700   4.532   3.812   1.997
 2898TIP3    H2 8701   4.607   3.926   1.935
 2899TIP3   OH2 8702   3.528   3.847   2.323
 2899TIP3    H1 8703   3.588   3.921   2.347
 2899TIP3    H2 8704   3.578   3.807   2.249
 2900TIP3   OH2 8705   3.590   4.707   2.432
 2900TIP3    H1 8706   3.564   4.796   2.399
 2900TIP3    H2 8707   3.511   4.688   2.488
 2901TIP3   OH2 8708   2.979   4.396   1.669
 2901TIP3    H1 8709   2.935   4.423   1.587
 2901TIP3    H2 8710   3.009   4.482   1.705
 2902TIP3   OH2 8711   4.417   4.912   1.908
 2902TIP3    H1 8712   4.327   4.903   1.948
 2902TIP3    H2 8713   4.410   4.999   1.865
 2903TIP3   OH2 8714   4.716   3.800   2.273
 2903TIP3    H1 8715   4.630   3.834   2.243
 2903TIP3    H2 8716   4.777   3.835   2.205
 2904TIP3   OH2 8717   4.005   3.446   2.262
 2904TIP3    H1 8718   3.986   3.351   2.279
 2904TIP3    H2 8719   3.927   3.487   2.305
 2905TIP3   OH2 8720   4.116   4.954   1.577
 2905TIP3    H1 8721   4.169   4.872   1.560
 2905TIP3    H2 8722   4.178   5.021   1.539
 2906TIP3   OH2 8723   4.263   4.739   1.497
 2906TIP3    H1 8724   4.226   4.656   1.464
 2906TIP3    H2 8725   4.303   4.709   1.582
 2907TIP3   OH2 8726   4.643   4.820   2.253
 2907TIP3    H1 8727   4.632   4.742   2.194
 2907TIP3    H2 8728   4.628   4.894   2.192
 2908TIP3   OH2 8729   3.937   4.214   1.515
 2908TIP3    H1 8730   3.858   4.266   1.493
 2908TIP3    H2 8731   3.985   4.211   1.430
 2909TIP3   OH2 8732   3.894   4.009   1.220
 2909TIP3    H1 8733   3.962   4.056   1.272
 2909TIP3    H2 8734   3.950   3.943   1.174
 2910TIP3   OH2 8735   4.839   4.458   2.101
 2910TIP3    H1 8736   4.756   4.511   2.104
 2910TIP3    H2 8737   4.870   4.482   2.011
 2911TIP3   OH2 8738   4.287   4.299   1.479
 2911TIP3    H1 8739   4.232   4.323   1.558
 2911TIP3    H2 8740   4.370   4.273   1.523
 2912TIP3   OH2 8741   4.520   4.332   2.407
 2912TIP3    H1 8742   4.519   4.415   2.458
 2912TIP3    H2 8743   4.435   4.339   2.359
 2913TIP3   OH2 8744   3.519   4.293   1.900
 2913TIP3    H1 8745   3.480   4.233   1.833
 2913TIP3    H2 8746   3.595   4.239   1.932
 2914TIP3   OH2 8747   3.650   4.710   2.045
 2914TIP3    H1 8748   3.631   4.670   1.959
 2914TIP3    H2 8749   3.739   4.673   2.065
 2915TIP3   OH2 8750   3.650   4.267   2.255
 2915TIP3    H1 8751   3.685   4.241   2.167
 2915TIP3    H2 8752   3.696   4.352   2.273
 2916TIP3   OH2 8753   4.177   4.904   2.032
 2916TIP3    H1 8754   4.166   4.983   2.089
 2916TIP3    H2 8755   4.163   4.830   2.095
 2917TIP3   OH2 8756   3.793   4.822   2.579
 2917TIP3    H1 8757   3.732   4.883   2.626
 2917TIP3    H2 8758   3.729   4.769   2.529
 2918TIP3   OH2 8759   4.121   4.159   1.311
 2918TIP3    H1 8760   4.183   4.216   1.361
 2918TIP3    H2 8761   4.148   4.179   1.218
 2919TIP3   OH2 8762   3.549   4.376   2.687
 2919TIP3    H1 8763   3.552   4.466   2.726
 2919TIP3    H2 8764   3.453   4.356   2.698
 2920TIP3   OH2 8765   3.872   4.831   1.579
 2920TIP3    H1 8766   3.955   4.881   1.589
 2920TIP3    H2 8767   3.810   4.899   1.548
 2921TIP3   OH2 8768   3.585   4.986   2.667
 2921TIP3    H1 8769   3.551   4.988   2.576
 2921TIP3    H2 8770   3.504   4.965   2.719
 2922TIP3   OH2 8771   4.641   3.393   1.360
 2922TIP3    H1 8772   4.560   3.416   1.410
 2922TIP3    H2 8773   4.655   3.475   1.309
 2923TIP3   OH2 8774   3.388   4.138   1.698
 2923TIP3    H1 8775   3.314   4.179   1.649
 2923TIP3    H2 8776   3.352   4.051   1.719
 2924TIP3   OH2 8777   4.441   4.758   0.912
 2924TIP3    H1 8778   4.449   4.855   0.895
 2924TIP3    H2 8779   4.533   4.729   0.895
 2925TIP3   OH2 8780   3.164   4.524   2.613
 2925TIP3    H1 8781   3.095   4.503   2.546
 2925TIP3    H2 8782   3.201   4.435   2.633
 2926TIP3   OH2 8783   3.020   4.716   2.240
 2926TIP3    H1 8784   3.116   4.709   2.236
 2926TIP3    H2 8785   3.008   4.791   2.299
 2927TIP3   OH2 8786   4.880   5.168   2.303
 2927TIP3    H1 8787   4.882   5.072   2.320
 2927TIP3    H2 8788   4.797   5.192   2.350
 2928TIP3   OH2 8789   3.987   4.953   2.435
 2928TIP3    H1 8790   3.983   5.045   2.468
 2928TIP3    H2 8791   3.918   4.910   2.490
 2929TIP3   OH2 8792   3.753   5.077   1.388
 2929TIP3    H1 8793   3.703   5.064   1.306
 2929TIP3    H2 8794   3.721   5.164   1.418
 2930TIP3   OH2 8795   3.190   4.927   1.774
 2930TIP3    H1 8796   3.235   4.918   1.861
 2930TIP3    H2 8797   3.140   4.844   1.771
 2931TIP3   OH2 8798   3.945   4.975   1.032
 2931TIP3    H1 8799   4.013   4.919   0.990
 2931TIP3    H2 8800   3.984   4.990   1.121
 2932TIP3   OH2 8801   4.005   5.032   1.297
 2932TIP3    H1 8802   3.917   5.040   1.340
 2932TIP3    H2 8803   4.059   4.996   1.369
 2933TIP3   OH2 8804   4.775   4.295   2.581
 2933TIP3    H1 8805   4.689   4.304   2.537
 2933TIP3    H2 8806   4.788   4.198   2.577
 2934TIP3   OH2 8807   3.370   4.705   2.595
 2934TIP3    H1 8808   3.418   4.689   2.679
 2934TIP3    H2 8809   3.295   4.642   2.603
 2935TIP3   OH2 8810   3.766   3.530   2.380
 2935TIP3    H1 8811   3.677   3.499   2.354
 2935TIP3    H2 8812   3.741   3.609   2.432
 2936TIP3   OH2 8813   4.310   3.649   2.574
 2936TIP3    H1 8814   4.380   3.618   2.636
 2936TIP3    H2 8815   4.226   3.630   2.622
 2937TIP3   OH2 8816   4.533   4.065   2.499
 2937TIP3    H1 8817   4.497   4.063   2.591
 2937TIP3    H2 8818   4.516   4.157   2.471
 2938TIP3   OH2 8819   4.198   4.197   1.054
 2938TIP3    H1 8820   4.168   4.172   0.965
 2938TIP3    H2 8821   4.284   4.237   1.033
 2939TIP3   OH2 8822   3.913   3.575   1.358
 2939TIP3    H1 8823   3.880   3.573   1.450
 2939TIP3    H2 8824   3.873   3.492   1.325
 2940TIP3   OH2 8825   3.702   4.044   2.403
 2940TIP3    H1 8826   3.651   4.062   2.485
 2940TIP3    H2 8827   3.684   4.126   2.352
 2941TIP3   OH2 8828   3.583   3.931   1.918
 2941TIP3    H1 8829   3.491   3.903   1.939
 2941TIP3    H2 8830   3.594   3.889   1.830
 2942TIP3   OH2 8831   4.073   4.013   1.650
 2942TIP3    H1 8832   4.023   4.085   1.605
 2942TIP3    H2 8833   4.130   3.980   1.577
 2943TIP3   OH2 8834   4.252   4.286   2.733
 2943TIP3    H1 8835   4.227   4.214   2.794
 2943TIP3    H2 8836   4.346   4.299   2.758
 2944TIP3   OH2 8837   4.230   4.038   1.884
 2944TIP3    H1 8838   4.167   4.064   1.814
 2944TIP3    H2 8839   4.268   3.959   1.839
 2945TIP3   OH2 8840   3.520   4.074   2.609
 2945TIP3    H1 8841   3.552   4.134   2.678
 2945TIP3    H2 8842   3.503   3.992   2.658
 2946TIP3   OH2 8843   3.572   3.551   1.323
 2946TIP3    H1 8844   3.561   3.548   1.421
 2946TIP3    H2 8845   3.493   3.602   1.298
 2947TIP3   OH2 8846   3.115   3.593   2.190
 2947TIP3    H1 8847   3.187   3.625   2.248
 2947TIP3    H2 8848   3.161   3.558   2.113
 2948TIP3   OH2 8849   3.074   3.571   1.711
 2948TIP3    H1 8850   3.120   3.610   1.634
 2948TIP3    H2 8851   3.013   3.645   1.733
 2949TIP3   OH2 8852   4.238   4.287   2.304
 2949TIP3    H1 8853   4.273   4.215   2.245
 2949TIP3    H2 8854   4.209   4.233   2.381
 2950TIP3   OH2 8855   3.919   3.747   1.978
 2950TIP3    H1 8856   3.838   3.748   2.034
 2950TIP3    H2 8857   3.989   3.742   2.045
 2951TIP3   OH2 8858   3.347   3.810   1.984
 2951TIP3    H1 8859   3.252   3.816   1.957
 2951TIP3    H2 8860   3.369   3.717   1.965
 2952TIP3   OH2 8861   3.609   3.801   1.680
 2952TIP3    H1 8862   3.703   3.817   1.659
 2952TIP3    H2 8863   3.563   3.825   1.596
 2953TIP3   OH2 8864   4.404   3.826   2.179
 2953TIP3    H1 8865   4.376   3.842   2.272
 2953TIP3    H2 8866   4.333   3.768   2.148
 2954TIP3   OH2 8867   3.462   3.839   1.452
 2954TIP3    H1 8868   3.391   3.793   1.404
 2954TIP3    H2 8869   3.514   3.876   1.378
 2955TIP3   OH2 8870   4.579   5.517   2.405
 2955TIP3    H1 8871   4.578   5.540   2.310
 2955TIP3    H2 8872   4.660   5.562   2.435
 2956TIP3   OH2 8873   3.531   4.626   2.821
 2956TIP3    H1 8874   3.611   4.654   2.869
 2956TIP3    H2 8875   3.466   4.625   2.894
 2957TIP3   OH2 8876   3.994   4.083   2.078
 2957TIP3    H1 8877   4.068   4.042   2.031
 2957TIP3    H2 8878   3.997   4.039   2.165
 2958TIP3   OH2 8879   3.510   3.565   1.964
 2958TIP3    H1 8880   3.473   3.489   2.015
 2958TIP3    H2 8881   3.556   3.519   1.893
 2959TIP3   OH2 8882   3.970   3.983   2.363
 2959TIP3    H1 8883   3.880   4.015   2.382
 2959TIP3    H2 8884   4.027   4.043   2.416
 2960TIP3   OH2 8885   3.708   4.367   1.456
 2960TIP3    H1 8886   3.636   4.302   1.446
 2960TIP3    H2 8887   3.689   4.401   1.547
 2961TIP3   OH2 8888   4.605   4.604   2.085
 2961TIP3    H1 8889   4.631   4.654   2.005
 2961TIP3    H2 8890   4.520   4.563   2.058
 2962TIP3   OH2 8891   4.163   3.677   1.328
 2962TIP3    H1 8892   4.067   3.657   1.339
 2962TIP3    H2 8893   4.170   3.771   1.355
 2963TIP3   OH2 8894   4.102   4.684   2.460
 2963TIP3    H1 8895   4.143   4.669   2.546
 2963TIP3    H2 8896   4.067   4.774   2.468
 2964TIP3   OH2 8897   4.232   3.927   1.432
 2964TIP3    H1 8898   4.328   3.932   1.446
 2964TIP3    H2 8899   4.214   4.008   1.379
 2965TIP3   OH2 8900   3.402   4.393   2.133
 2965TIP3    H1 8901   3.442   4.362   2.049
 2965TIP3    H2 8902   3.445   4.335   2.198
 2966TIP3   OH2 8903   3.847   4.515   1.270
 2966TIP3    H1 8904   3.800   4.601   1.281
 2966TIP3    H2 8905   3.797   4.459   1.334
 2967TIP3   OH2 8906   3.284   4.309   2.749
 2967TIP3    H1 8907   3.298   4.290   2.844
 2967TIP3    H2 8908   3.213   4.246   2.728
 2968TIP3   OH2 8909   4.012   4.428   2.769
 2968TIP3    H1 8910   3.951   4.366   2.726
 2968TIP3    H2 8911   4.099   4.391   2.742
 2969TIP3   OH2 8912   4.263   4.949   2.356
 2969TIP3    H1 8913   4.167   4.947   2.369
 2969TIP3    H2 8914   4.291   5.000   2.435
 2970TIP3   OH2 8915   4.670   4.022   1.265
 2970TIP3    H1 8916   4.609   3.977   1.202
 2970TIP3    H2 8917   4.667   4.111   1.223
 2971TIP3   OH2 8918   4.893   4.880   2.342
 2971TIP3    H1 8919   4.796   4.871   2.334
 2971TIP3    H2 8920   4.920   4.849   2.253
 2972TIP3   OH2 8921   4.369   4.839   1.172
 2972TIP3    H1 8922   4.353   4.768   1.236
 2972TIP3    H2 8923   4.392   4.790   1.091
 2973TIP3   OH2 8924   4.370   4.469   1.998
 2973TIP3    H1 8925   4.278   4.443   2.015
 2973TIP3    H2 8926   4.405   4.387   1.958
 2974TIP3   OH2 8927   3.502   4.695   1.761
 2974TIP3    H1 8928   3.496   4.777   1.708
 2974TIP3    H2 8929   3.409   4.678   1.781
 2975TIP3   OH2 8930   3.066   3.997   1.471
 2975TIP3    H1 8931   3.111   4.081   1.494
 2975TIP3    H2 8932   2.988   4.001   1.531
 2976TIP3   OH2 8933   3.630   4.457   1.700
 2976TIP3    H1 8934   3.598   4.547   1.722
 2976TIP3    H2 8935   3.598   4.406   1.777
 2977TIP3   OH2 8936   3.775   5.035   2.231
 2977TIP3    H1 8937   3.817   5.108   2.181
 2977TIP3    H2 8938   3.851   4.998   2.279
 2978TIP3   OH2 8939   3.417   4.934   1.614
 2978TIP3    H1 8940   3.332   4.941   1.661
 2978TIP3    H2 8941   3.449   5.027   1.619
 2979TIP3   OH2 8942   4.156   4.675   2.192
 2979TIP3    H1 8943   4.143   4.672   2.290
 2979TIP3    H2 8944   4.235   4.621   2.182
 2980TIP3   OH2 8945   4.132   4.570   1.080
 2980TIP3    H1 8946   4.193   4.546   1.153
 2980TIP3    H2 8947   4.049   4.536   1.116
 2981TIP3   OH2 8948   4.405   5.202   2.242
 2981TIP3    H1 8949   4.327   5.144   2.238
 2981TIP3    H2 8950   4.387   5.264   2.169
 2982TIP3   OH2 8951   4.468   5.035   0.893
 2982TIP3    H1 8952   4.506   5.102   0.834
 2982TIP3    H2 8953   4.392   5.085   0.929
 2983TIP3   OH2 8954   3.468   3.828   2.741
 2983TIP3    H1 8955   3.371   3.845   2.750
 2983TIP3    H2 8956   3.473   3.746   2.793
 2984TIP3   OH2 8957   4.298   4.497   1.285
 2984TIP3    H1 8958   4.287   4.431   1.356
 2984TIP3    H2 8959   4.395   4.495   1.274
 2985TIP3   OH2 8960   3.210   4.898   2.388
 2985TIP3    H1 8961   3.263   4.826   2.426
 2985TIP3    H2 8962   3.233   4.971   2.446
 2986TIP3   OH2 8963   3.489   4.545   1.068
 2986TIP3    H1 8964   3.507   4.452   1.047
 2986TIP3    H2 8965   3.475   4.540   1.165
 2987TIP3   OH2 8966   3.442   4.551   1.341
 2987TIP3    H1 8967   3.511   4.520   1.401
 2987TIP3    H2 8968   3.445   4.648   1.356
 2988TIP3   OH2 8969   3.174   4.241   1.552
 2988TIP3    H1 8970   3.107   4.285   1.608
 2988TIP3    H2 8971   3.187   4.309   1.484
 2989TIP3   OH2 8972   4.333   3.884   2.435
 2989TIP3    H1 8973   4.411   3.931   2.471
 2989TIP3    H2 8974   4.326   3.806   2.493
 2990TIP3   OH2 8975   4.214   3.625   1.612
 2990TIP3    H1 8976   4.200   3.649   1.519
 2990TIP3    H2 8977   4.256   3.707   1.648
 2991TIP3   OH2 8978   3.709   4.747   1.285
 2991TIP3    H1 8979   3.622   4.767   1.326
 2991TIP3    H2 8980   3.729   4.833   1.246
 2992TIP3   OH2 8981   3.892   3.813   1.710
 2992TIP3    H1 8982   3.957   3.884   1.694
 2992TIP3    H2 8983   3.900   3.802   1.807
 2993TIP3   OH2 8984   4.169   4.126   2.514
 2993TIP3    H1 8985   4.195   4.177   2.593
 2993TIP3    H2 8986   4.223   4.045   2.523
 2994TIP3   OH2 8987   4.040   3.529   1.809
 2994TIP3    H1 8988   4.031   3.606   1.867
 2994TIP3    H2 8989   4.104   3.562   1.742
 2995TIP3   OH2 8990   3.457   4.822   1.365
 2995TIP3    H1 8991   3.426   4.893   1.304
 2995TIP3    H2 8992   3.440   4.864   1.453
 2996TIP3   OH2 8993   3.555   3.536   1.599
 2996TIP3    H1 8994   3.550   3.624   1.639
 2996TIP3    H2 8995   3.651   3.520   1.607
 2997TIP3   OH2 8996   4.805   4.030   2.492
 2997TIP3    H1 8997   4.709   4.023   2.512
 2997TIP3    H2 8998   4.810   3.984   2.408
 2998TIP3   OH2 8999   4.457   4.222   1.885
 2998TIP3    H1 9000   4.381   4.163   1.899
 2998TIP3    H2 9001   4.528   4.176   1.934
 2999TIP3   OH2 9002   3.175   4.445   1.354
 2999TIP3    H1 9003   3.247   4.510   1.363
 2999TIP3    H2 9004   3.217   4.385   1.288
 3000TIP3   OH2 9005   3.114   3.726   1.486
 3000TIP3    H1 9006   3.115   3.823   1.486
 3000TIP3    H2 9007   3.028   3.707   1.446
 3001TIP3   OH2 9008   4.428   5.183   1.831
 3001TIP3    H1 9009   4.386   5.230   1.756
 3001TIP3    H2 9010   4.522   5.202   1.812
 3002TIP3   OH2 9011   3.503   3.447   2.357
 3002TIP3    H1 9012   3.471   3.411   2.272
 3002TIP3    H2 9013   3.494   3.370   2.416
 3003TIP3   OH2 9014   3.038   4.667   1.739
 3003TIP3    H1 9015   2.977   4.696   1.808
 3003TIP3    H2 9016   3.001   4.712   1.659
 3004TIP3   OH2 9017   3.204   5.218   2.811
 3004TIP3    H1 9018   3.289   5.218   2.859
 3004TIP3    H2 9019   3.184   5.122   2.811
 3005TIP3   OH2 9020   3.677   5.167   2.856
 3005TIP3    H1 9021   3.771   5.149   2.864
 3005TIP3    H2 9022   3.652   5.104   2.785
 3006TIP3   OH2 9023   3.651   4.744   0.970
 3006TIP3    H1 9024   3.582   4.684   1.006
 3006TIP3    H2 9025   3.729   4.691   0.992
 3007TIP3   OH2 9026   4.317   5.079   2.591
 3007TIP3    H1 9027   4.312   5.008   2.659
 3007TIP3    H2 9028   4.395   5.130   2.621
 3008TIP3   OH2 9029   4.105   4.787   0.899
 3008TIP3    H1 9030   4.146   4.732   0.968
 3008TIP3    H2 9031   4.175   4.788   0.830
 3009TIP3   OH2 9032   3.329   4.617   3.012
 3009TIP3    H1 9033   3.342   4.521   3.023
 3009TIP3    H2 9034   3.242   4.620   2.967
 3010TIP3   OH2 9035   3.312   4.258   1.210
 3010TIP3    H1 9036   3.367   4.228   1.285
 3010TIP3    H2 9037   3.381   4.264   1.140
 3011TIP3   OH2 9038   3.936   4.703   2.788
 3011TIP3    H1 9039   3.896   4.723   2.701
 3011TIP3    H2 9040   3.970   4.612   2.775
 3012TIP3   OH2 9041   3.814   4.468   1.004
 3012TIP3    H1 9042   3.819   4.480   1.101
 3012TIP3    H2 9043   3.822   4.370   0.999
 3013TIP3   OH2 9044   4.427   4.717   2.394
 3013TIP3    H1 9045   4.505   4.758   2.350
 3013TIP3    H2 9046   4.360   4.786   2.378
 3014TIP3   OH2 9047   3.451   4.345   3.000
 3014TIP3    H1 9048   3.535   4.311   2.968
 3014TIP3    H2 9049   3.477   4.378   3.089
 3015TIP3   OH2 9050   3.510   4.173   1.424
 3015TIP3    H1 9051   3.484   4.138   1.510
 3015TIP3    H2 9052   3.548   4.094   1.380
 3016TIP3   OH2 9053   3.784   4.232   2.657
 3016TIP3    H1 9054   3.707   4.293   2.661
 3016TIP3    H2 9055   3.833   4.266   2.579
 3017TIP3   OH2 9056   3.619   3.967   1.267
 3017TIP3    H1 9057   3.594   3.974   1.172
 3017TIP3    H2 9058   3.717   3.971   1.260
 3018TIP3   OH2 9059   4.302   4.634   2.788
 3018TIP3    H1 9060   4.382   4.603   2.743
 3018TIP3    H2 9061   4.296   4.571   2.862
 3019TIP3   OH2 9062   4.430   4.293   0.938
 3019TIP3    H1 9063   4.415   4.248   0.852
 3019TIP3    H2 9064   4.398   4.383   0.914
 3020TIP3   OH2 9065   3.902   4.021   2.785
 3020TIP3    H1 9066   3.908   3.945   2.724
 3020TIP3    H2 9067   3.862   4.090   2.727
 3021TIP3   OH2 9068   3.918   3.806   2.593
 3021TIP3    H1 9069   3.942   3.847   2.508
 3021TIP3    H2 9070   3.825   3.779   2.576
 3022TIP3   OH2 9071   3.933   4.342   2.461
 3022TIP3    H1 9072   4.020   4.358   2.424
 3022TIP3    H2 9073   3.878   4.409   2.415
 3023TIP3   OH2 9074   4.523   4.295   2.848
 3023TIP3    H1 9075   4.573   4.213   2.865
 3023TIP3    H2 9076   4.591   4.349   2.807
 3024TIP3   OH2 9077   4.558   4.564   2.576
 3024TIP3    H1 9078   4.501   4.622   2.519
 3024TIP3    H2 9079   4.646   4.586   2.538
 3025TIP3   OH2 9080   3.792   4.129   3.020
 3025TIP3    H1 9081   3.717   4.071   3.040
 3025TIP3    H2 9082   3.823   4.096   2.933
 3026TIP3   OH2 9083   4.073   3.580   2.691
 3026TIP3    H1 9084   4.020   3.658   2.665
 3026TIP3    H2 9085   4.002   3.511   2.682
 3027TIP3   OH2 9086   4.171   4.068   2.873
 3027TIP3    H1 9087   4.165   4.053   2.970
 3027TIP3    H2 9088   4.079   4.046   2.849
 3028TIP3   OH2 9089   4.413   4.014   2.736
 3028TIP3    H1 9090   4.340   4.027   2.800
 3028TIP3    H2 9091   4.491   4.004   2.794
 3029TIP3   OH2 9092   3.425   5.026   1.177
 3029TIP3    H1 9093   3.520   5.016   1.157
 3029TIP3    H2 9094   3.398   5.081   1.101
 3030TIP3   OH2 9095   2.904   4.410   1.384
 3030TIP3    H1 9096   3.000   4.428   1.374
 3030TIP3    H2 9097   2.898   4.320   1.344
 3031TIP3   OH2 9098   2.822   5.019   1.810
 3031TIP3    H1 9099   2.755   4.959   1.770
 3031TIP3    H2 9100   2.865   4.958   1.873
 3032TIP3   OH2 9101   2.955   4.862   1.993
 3032TIP3    H1 9102   2.942   4.793   2.061
 3032TIP3    H2 9103   3.007   4.927   2.045
 3033TIP3   OH2 9104   4.683   5.272   1.795
 3033TIP3    H1 9105   4.711   5.299   1.884
 3033TIP3    H2 9106   4.754   5.307   1.739
 3034TIP3   OH2 9107   4.713   5.287   2.078
 3034TIP3    H1 9108   4.666   5.201   2.074
 3034TIP3    H2 9109   4.786   5.263   2.137
 3035TIP3   OH2 9110   4.756   4.968   2.647
 3035TIP3    H1 9111   4.686   4.977   2.715
 3035TIP3    H2 9112   4.802   5.054   2.654
 3036TIP3   OH2 9113   4.576   4.480   1.265
 3036TIP3    H1 9114   4.643   4.544   1.236
 3036TIP3    H2 9115   4.620   4.441   1.344
 3037TIP3   OH2 9116   4.702   4.347   1.470
 3037TIP3    H1 9117   4.637   4.305   1.530
 3037TIP3    H2 9118   4.770   4.381   1.531
 3038TIP3   OH2 9119   4.757   4.740   1.899
 3038TIP3    H1 9120   4.814   4.673   1.857
 3038TIP3    H2 9121   4.755   4.811   1.832
 3039TIP3   OH2 9122   4.584   5.040   2.094
 3039TIP3    H1 9123   4.512   5.079   2.148
 3039TIP3    H2 9124   4.534   4.993   2.024
 3040TIP3   OH2 9125   4.636   4.255   1.116
 3040TIP3    H1 9126   4.564   4.259   1.050
 3040TIP3    H2 9127   4.611   4.332   1.172
 3041TIP3   OH2 9128   4.505   3.926   1.070
 3041TIP3    H1 9129   4.464   3.960   0.990
 3041TIP3    H2 9130   4.486   3.830   1.062
 3042TIP3   OH2 9131   4.511   4.206   1.614
 3042TIP3    H1 9132   4.522   4.110   1.609
 3042TIP3    H2 9133   4.497   4.220   1.711
 3043TIP3   OH2 9134   3.138   4.278   2.364
 3043TIP3    H1 9135   3.134   4.241   2.274
 3043TIP3    H2 9136   3.236   4.278   2.379
 3044TIP3   OH2 9137   4.806   4.630   2.474
 3044TIP3    H1 9138   4.875   4.561   2.463
 3044TIP3    H2 9139   4.834   4.698   2.412
 3045TIP3   OH2 9140   4.985   4.427   2.477
 3045TIP3    H1 9141   4.912   4.378   2.520
 3045TIP3    H2 9142   5.059   4.365   2.494
 3046TIP3   OH2 9143   4.455   3.659   1.048
 3046TIP3    H1 9144   4.528   3.628   1.106
 3046TIP3    H2 9145   4.381   3.601   1.073
 3047TIP3   OH2 9146   4.511   3.921   1.504
 3047TIP3    H1 9147   4.554   3.834   1.519
 3047TIP3    H2 9148   4.569   3.957   1.434
 3048TIP3   OH2 9149   4.669   4.089   2.005
 3048TIP3    H1 9150   4.755   4.114   1.963
 3048TIP3    H2 9151   4.684   4.128   2.093
 3049TIP3   OH2 9152   4.742   4.236   2.233
 3049TIP3    H1 9153   4.669   4.270   2.288
 3049TIP3    H2 9154   4.775   4.319   2.190
 3050TIP3   OH2 9155   5.224   3.852   2.793
 3050TIP3    H1 9156   5.261   3.775   2.746
 3050TIP3    H2 9157   5.165   3.889   2.725
 3051TIP3   OH2 9158   4.620   3.672   1.548
 3051TIP3    H1 9159   4.668   3.655   1.632
 3051TIP3    H2 9160   4.559   3.595   1.545
 3052TIP3   OH2 9161   3.320   3.657   2.363
 3052TIP3    H1 9162   3.380   3.581   2.376
 3052TIP3    H2 9163   3.384   3.730   2.358
 3053TIP3   OH2 9164   3.120   3.928   2.440
 3053TIP3    H1 9165   3.170   3.924   2.356
 3053TIP3    H2 9166   3.150   4.012   2.476
 3054TIP3   OH2 9167   5.053   3.962   2.607
 3054TIP3    H1 9168   4.965   3.999   2.624
 3054TIP3    H2 9169   5.029   3.893   2.542
 3055TIP3   OH2 9170   4.695   3.601   1.183
 3055TIP3    H1 9171   4.737   3.533   1.128
 3055TIP3    H2 9172   4.761   3.673   1.182
 3056TIP3   OH2 9173   3.106   3.427   1.939
 3056TIP3    H1 9174   3.015   3.424   1.973
 3056TIP3    H2 9175   3.098   3.488   1.863
 3057TIP3   OH2 9176   4.261   5.140   1.447
 3057TIP3    H1 9177   4.317   5.128   1.367
 3057TIP3    H2 9178   4.314   5.202   1.500
 3058TIP3   OH2 9179   3.321   3.538   2.780
 3058TIP3    H1 9180   3.287   3.468   2.837
 3058TIP3    H2 9181   3.243   3.558   2.724
 3059TIP3   OH2 9182   3.364   4.943   2.830
 3059TIP3    H1 9183   3.270   4.920   2.817
 3059TIP3    H2 9184   3.376   4.924   2.924
 3060TIP3   OH2 9185   3.548   4.978   2.381
 3060TIP3    H1 9186   3.499   5.054   2.343
 3060TIP3    H2 9187   3.633   4.991   2.335
 3061TIP3   OH2 9188   3.983   5.218   2.516
 3061TIP3    H1 9189   4.025   5.215   2.605
 3061TIP3    H2 9190   4.050   5.270   2.467
 3062TIP3   OH2 9191   4.165   5.373   2.380
 3062TIP3    H1 9192   4.235   5.320   2.340
 3062TIP3    H2 9193   4.217   5.430   2.440
 3063TIP3   OH2 9194   4.963   3.735   2.465
 3063TIP3    H1 9195   4.872   3.725   2.434
 3063TIP3    H2 9196   4.995   3.642   2.464
 3064TIP3   OH2 9197   3.221   5.233   2.405
 3064TIP3    H1 9198   3.129   5.262   2.384
 3064TIP3    H2 9199   3.235   5.278   2.489
 3065TIP3   OH2 9200   3.456   5.212   2.265
 3065TIP3    H1 9201   3.369   5.222   2.309
 3065TIP3    H2 9202   3.436   5.242   2.174
 3066TIP3   OH2 9203   3.882   5.235   2.061
 3066TIP3    H1 9204   3.810   5.254   1.998
 3066TIP3    H2 9205   3.894   5.322   2.105
 3067TIP3   OH2 9206   4.151   5.175   2.114
 3067TIP3    H1 9207   4.057   5.192   2.094
 3067TIP3    H2 9208   4.195   5.248   2.069
 3068TIP3   OH2 9209   4.354   5.365   2.025
 3068TIP3    H1 9210   4.342   5.450   1.977
 3068TIP3    H2 9211   4.382   5.305   1.952
 3069TIP3   OH2 9212   3.132   5.023   2.148
 3069TIP3    H1 9213   3.158   4.993   2.238
 3069TIP3    H2 9214   3.205   4.982   2.097
 3070TIP3   OH2 9215   3.329   4.898   2.008
 3070TIP3    H1 9216   3.341   4.813   2.057
 3070TIP3    H2 9217   3.421   4.932   2.008
 3071TIP3   OH2 9218   3.597   4.987   2.015
 3071TIP3    H1 9219   3.624   4.893   2.008
 3071TIP3    H2 9220   3.647   5.011   2.096
 3072TIP3   OH2 9221   4.166   3.643   2.098
 3072TIP3    H1 9222   4.126   3.570   2.149
 3072TIP3    H2 9223   4.241   3.600   2.053
 3073TIP3   OH2 9224   4.685   3.524   1.998
 3073TIP3    H1 9225   4.722   3.577   1.924
 3073TIP3    H2 9226   4.591   3.550   1.996
 3074TIP3   OH2 9227   4.784   3.623   1.764
 3074TIP3    H1 9228   4.858   3.570   1.727
 3074TIP3    H2 9229   4.819   3.714   1.750
 3075TIP3   OH2 9230   3.415   3.351   2.110
 3075TIP3    H1 9231   3.323   3.316   2.116
 3075TIP3    H2 9232   3.465   3.267   2.107
 3076TIP3   OH2 9233   3.203   3.226   1.763
 3076TIP3    H1 9234   3.232   3.284   1.690
 3076TIP3    H2 9235   3.174   3.291   1.830
 3077TIP3   OH2 9236   3.862   3.384   1.992
 3077TIP3    H1 9237   3.920   3.433   1.931
 3077TIP3    H2 9238   3.887   3.423   2.078
 3078TIP3   OH2 9239   4.399   3.534   1.977
 3078TIP3    H1 9240   4.406   3.494   1.890
 3078TIP3    H2 9241   4.392   3.454   2.035
 3079TIP3   OH2 9242   4.437   3.460   1.541
 3079TIP3    H1 9243   4.353   3.504   1.561
 3079TIP3    H2 9244   4.423   3.373   1.584
 3080TIP3   OH2 9245   2.919   4.801   1.533
 3080TIP3    H1 9246   2.832   4.767   1.502
 3080TIP3    H2 9247   2.909   4.894   1.507
 3081TIP3   OH2 9248   3.325   3.385   1.521
 3081TIP3    H1 9249   3.372   3.320   1.465
 3081TIP3    H2 9250   3.399   3.437   1.558
 3082TIP3   OH2 9251   3.831   3.562   1.622
 3082TIP3    H1 9252   3.890   3.516   1.684
 3082TIP3    H2 9253   3.850   3.655   1.648
 3083TIP3   OH2 9254   3.688   4.977   1.120
 3083TIP3    H1 9255   3.779   4.995   1.086
 3083TIP3    H2 9256   3.663   4.904   1.060
 3084TIP3   OH2 9257   4.412   5.104   1.217
 3084TIP3    H1 9258   4.402   5.007   1.205
 3084TIP3    H2 9259   4.367   5.137   1.137
 3085TIP3   OH2 9260   2.994   4.818   1.178
 3085TIP3    H1 9261   2.994   4.834   1.274
 3085TIP3    H2 9262   3.082   4.776   1.164
 3086TIP3   OH2 9263   4.668   3.677   2.910
 3086TIP3    H1 9264   4.707   3.660   2.998
 3086TIP3    H2 9265   4.705   3.764   2.888
 3087TIP3   OH2 9266   4.633   5.245   2.402
 3087TIP3    H1 9267   4.554   5.216   2.353
 3087TIP3    H2 9268   4.614   5.341   2.411
 3088TIP3   OH2 9269   5.895   4.626   1.174
 3088TIP3    H1 9270   5.862   4.714   1.145
 3088TIP3    H2 9271   5.825   4.569   1.139
 3089TIP3   OH2 9272   5.886   4.623   1.558
 3089TIP3    H1 9273   5.927   4.598   1.643
 3089TIP3    H2 9274   5.856   4.537   1.524
 3090TIP3   OH2 9275   5.196   4.508   1.918
 3090TIP3    H1 9276   5.226   4.442   1.983
 3090TIP3    H2 9277   5.278   4.559   1.906
 3091TIP3   OH2 9278   6.132   4.938   1.282
 3091TIP3    H1 9279   6.141   4.845   1.312
 3091TIP3    H2 9280   6.072   4.973   1.346
 3092TIP3   OH2 9281   5.174   4.923   1.633
 3092TIP3    H1 9282   5.166   4.826   1.635
 3092TIP3    H2 9283   5.271   4.932   1.634
 3093TIP3   OH2 9284   4.880   4.122   1.418
 3093TIP3    H1 9285   4.834   4.205   1.438
 3093TIP3    H2 9286   4.808   4.073   1.375
 3094TIP3   OH2 9287   4.937   4.412   1.601
 3094TIP3    H1 9288   4.988   4.335   1.635
 3094TIP3    H2 9289   5.001   4.453   1.541
 3095TIP3   OH2 9290   5.699   4.846   1.595
 3095TIP3    H1 9291   5.742   4.766   1.560
 3095TIP3    H2 9292   5.781   4.895   1.620
 3096TIP3   OH2 9293   6.116   4.355   1.626
 3096TIP3    H1 9294   6.146   4.264   1.648
 3096TIP3    H2 9295   6.081   4.340   1.536
 3097TIP3   OH2 9296   5.450   4.008   1.594
 3097TIP3    H1 9297   5.436   4.080   1.529
 3097TIP3    H2 9298   5.402   3.935   1.550
 3098TIP3   OH2 9299   6.144   4.090   1.234
 3098TIP3    H1 9300   6.206   4.046   1.292
 3098TIP3    H2 9301   6.203   4.123   1.164
 3099TIP3   OH2 9302   5.086   4.206   1.701
 3099TIP3    H1 9303   5.169   4.188   1.750
 3099TIP3    H2 9304   5.103   4.154   1.620
 3100TIP3   OH2 9305   5.524   4.406   1.504
 3100TIP3    H1 9306   5.620   4.385   1.514
 3100TIP3    H2 9307   5.490   4.322   1.469
 3101TIP3   OH2 9308   5.449   3.988   2.030
 3101TIP3    H1 9309   5.391   4.026   1.961
 3101TIP3    H2 9310   5.395   4.007   2.109
 3102TIP3   OH2 9311   5.780   4.841   1.044
 3102TIP3    H1 9312   5.759   4.817   0.952
 3102TIP3    H2 9313   5.766   4.936   1.044
 3103TIP3   OH2 9314   5.555   4.765   1.817
 3103TIP3    H1 9315   5.496   4.835   1.853
 3103TIP3    H2 9316   5.600   4.813   1.745
 3104TIP3   OH2 9317   5.320   4.105   1.814
 3104TIP3    H1 9318   5.381   4.179   1.837
 3104TIP3    H2 9319   5.369   4.066   1.738
 3105TIP3   OH2 9320   5.383   4.963   1.917
 3105TIP3    H1 9321   5.358   5.052   1.885
 3105TIP3    H2 9322   5.305   4.944   1.974
 3106TIP3   OH2 9323   4.773   4.652   1.155
 3106TIP3    H1 9324   4.736   4.679   1.069
 3106TIP3    H2 9325   4.806   4.738   1.190
 3107TIP3   OH2 9326   5.802   3.700   1.753
 3107TIP3    H1 9327   5.780   3.606   1.767
 3107TIP3    H2 9328   5.725   3.743   1.795
 3108TIP3   OH2 9329   5.730   4.481   1.002
 3108TIP3    H1 9330   5.650   4.531   0.980
 3108TIP3    H2 9331   5.779   4.481   0.917
 3109TIP3   OH2 9332   5.723   4.213   0.721
 3109TIP3    H1 9333   5.768   4.286   0.765
 3109TIP3    H2 9334   5.683   4.166   0.795
 3110TIP3   OH2 9335   6.084   4.543   0.998
 3110TIP3    H1 9336   6.023   4.570   1.071
 3110TIP3    H2 9337   6.169   4.564   1.038
 3111TIP3   OH2 9338   6.287   4.584   1.897
 3111TIP3    H1 9339   6.279   4.674   1.930
 3111TIP3    H2 9340   6.212   4.580   1.836
 3112TIP3   OH2 9341   5.315   4.551   1.390
 3112TIP3    H1 9342   5.271   4.490   1.326
 3112TIP3    H2 9343   5.391   4.498   1.421
 3113TIP3   OH2 9344   5.446   4.966   1.531
 3113TIP3    H1 9345   5.426   4.925   1.446
 3113TIP3    H2 9346   5.534   4.928   1.552
 3114TIP3   OH2 9347   5.441   4.526   1.742
 3114TIP3    H1 9348   5.478   4.497   1.656
 3114TIP3    H2 9349   5.490   4.609   1.760
 3115TIP3   OH2 9350   5.992   5.148   1.515
 3115TIP3    H1 9351   5.979   5.216   1.582
 3115TIP3    H2 9352   5.978   5.067   1.567
 3116TIP3   OH2 9353   5.585   5.079   2.065
 3116TIP3    H1 9354   5.526   5.141   2.113
 3116TIP3    H2 9355   5.518   5.027   2.015
 3117TIP3   OH2 9356   5.930   4.430   0.804
 3117TIP3    H1 9357   5.985   4.470   0.876
 3117TIP3    H2 9358   5.954   4.493   0.734
 3118TIP3   OH2 9359   5.345   4.632   2.171
 3118TIP3    H1 9360   5.348   4.721   2.213
 3118TIP3    H2 9361   5.250   4.612   2.184
 3119TIP3   OH2 9362   5.684   5.127   1.074
 3119TIP3    H1 9363   5.677   5.111   1.166
 3119TIP3    H2 9364   5.593   5.120   1.040
 3120TIP3   OH2 9365   5.380   5.247   2.152
 3120TIP3    H1 9366   5.345   5.247   2.061
 3120TIP3    H2 9367   5.299   5.227   2.205
 3121TIP3   OH2 9368   5.176   4.392   1.203
 3121TIP3    H1 9369   5.113   4.438   1.144
 3121TIP3    H2 9370   5.147   4.300   1.194
 3122TIP3   OH2 9371   4.961   4.779   2.100
 3122TIP3    H1 9372   4.894   4.755   2.032
 3122TIP3    H2 9373   5.000   4.693   2.124
 3123TIP3   OH2 9374   4.819   4.971   1.728
 3123TIP3    H1 9375   4.914   4.960   1.719
 3123TIP3    H2 9376   4.813   5.045   1.790
 3124TIP3   OH2 9377   5.784   5.205   1.924
 3124TIP3    H1 9378   5.778   5.298   1.956
 3124TIP3    H2 9379   5.714   5.163   1.978
 3125TIP3   OH2 9380   5.468   5.355   0.886
 3125TIP3    H1 9381   5.480   5.320   0.795
 3125TIP3    H2 9382   5.544   5.414   0.887
 3126TIP3   OH2 9383   4.986   5.182   1.261
 3126TIP3    H1 9384   5.032   5.175   1.347
 3126TIP3    H2 9385   4.939   5.097   1.258
 3127TIP3   OH2 9386   5.166   4.961   2.084
 3127TIP3    H1 9387   5.215   4.945   2.167
 3127TIP3    H2 9388   5.092   4.899   2.092
 3128TIP3   OH2 9389   5.564   3.783   1.877
 3128TIP3    H1 9390   5.475   3.754   1.848
 3128TIP3    H2 9391   5.539   3.865   1.924
 3129TIP3   OH2 9392   6.101   3.894   2.067
 3129TIP3    H1 9393   6.166   3.873   2.137
 3129TIP3    H2 9394   6.016   3.881   2.112
 3130TIP3   OH2 9395   6.342   4.322   1.968
 3130TIP3    H1 9396   6.301   4.323   2.056
 3130TIP3    H2 9397   6.333   4.416   1.941
 3131TIP3   OH2 9398   5.710   3.823   0.824
 3131TIP3    H1 9399   5.660   3.872   0.892
 3131TIP3    H2 9400   5.662   3.738   0.823
 3132TIP3   OH2 9401   5.495   4.302   1.890
 3132TIP3    H1 9402   5.448   4.322   1.974
 3132TIP3    H2 9403   5.477   4.384   1.839
 3133TIP3   OH2 9404   5.388   4.188   1.398
 3133TIP3    H1 9405   5.295   4.159   1.410
 3133TIP3    H2 9406   5.404   4.173   1.304
 3134TIP3   OH2 9407   5.886   4.295   1.144
 3134TIP3    H1 9408   5.815   4.345   1.100
 3134TIP3    H2 9409   5.920   4.240   1.072
 3135TIP3   OH2 9410   6.041   4.548   2.220
 3135TIP3    H1 9411   6.017   4.475   2.282
 3135TIP3    H2 9412   6.136   4.555   2.237
 3136TIP3   OH2 9413   6.025   4.301   1.376
 3136TIP3    H1 9414   5.967   4.325   1.299
 3136TIP3    H2 9415   6.059   4.217   1.340
 3137TIP3   OH2 9416   5.315   4.328   2.101
 3137TIP3    H1 9417   5.353   4.389   2.167
 3137TIP3    H2 9418   5.303   4.246   2.154
 3138TIP3   OH2 9419   5.346   3.783   0.804
 3138TIP3    H1 9420   5.347   3.792   0.901
 3138TIP3    H2 9421   5.283   3.852   0.779
 3139TIP3   OH2 9422   4.910   3.846   1.683
 3139TIP3    H1 9423   4.982   3.881   1.740
 3139TIP3    H2 9424   4.956   3.821   1.602
 3140TIP3   OH2 9425   4.868   3.827   1.200
 3140TIP3    H1 9426   4.911   3.863   1.120
 3140TIP3    H2 9427   4.810   3.902   1.222
 3141TIP3   OH2 9428   6.016   4.542   1.789
 3141TIP3    H1 9429   6.058   4.474   1.730
 3141TIP3    H2 9430   5.997   4.487   1.867
 3142TIP3   OH2 9431   5.710   3.961   1.483
 3142TIP3    H1 9432   5.630   3.985   1.532
 3142TIP3    H2 9433   5.782   3.990   1.542
 3143TIP3   OH2 9434   5.145   4.068   1.466
 3143TIP3    H1 9435   5.050   4.073   1.441
 3143TIP3    H2 9436   5.168   3.975   1.449
 3144TIP3   OH2 9437   6.165   4.093   1.663
 3144TIP3    H1 9438   6.151   4.101   1.759
 3144TIP3    H2 9439   6.097   4.027   1.639
 3145TIP3   OH2 9440   5.223   4.103   0.950
 3145TIP3    H1 9441   5.183   4.060   0.872
 3145TIP3    H2 9442   5.317   4.108   0.925
 3146TIP3   OH2 9443   5.327   4.879   2.308
 3146TIP3    H1 9444   5.409   4.901   2.356
 3146TIP3    H2 9445   5.263   4.880   2.382
 3147TIP3   OH2 9446   5.790   4.336   1.562
 3147TIP3    H1 9447   5.862   4.301   1.508
 3147TIP3    H2 9448   5.802   4.291   1.647
 3148TIP3   OH2 9449   5.307   3.823   1.447
 3148TIP3    H1 9450   5.272   3.745   1.496
 3148TIP3    H2 9451   5.357   3.780   1.376
 3149TIP3   OH2 9452   5.765   4.235   1.858
 3149TIP3    H1 9453   5.676   4.274   1.870
 3149TIP3    H2 9454   5.824   4.296   1.906
 3150TIP3   OH2 9455   5.487   4.627   0.943
 3150TIP3    H1 9456   5.419   4.557   0.935
 3150TIP3    H2 9457   5.472   4.658   1.036
 3151TIP3   OH2 9458   5.955   3.947   0.839
 3151TIP3    H1 9459   5.858   3.931   0.833
 3151TIP3    H2 9460   5.961   4.044   0.855
 3152TIP3   OH2 9461   5.913   4.945   1.947
 3152TIP3    H1 9462   5.920   4.920   2.040
 3152TIP3    H2 9463   5.867   5.030   1.952
 3153TIP3   OH2 9464   6.042   4.200   0.900
 3153TIP3    H1 9465   6.130   4.209   0.862
 3153TIP3    H2 9466   5.999   4.282   0.868
 3154TIP3   OH2 9467   5.196   4.647   1.622
 3154TIP3    H1 9468   5.235   4.619   1.536
 3154TIP3    H2 9469   5.247   4.593   1.684
 3155TIP3   OH2 9470   5.663   4.780   0.799
 3155TIP3    H1 9471   5.614   4.862   0.781
 3155TIP3    H2 9472   5.595   4.725   0.843
 3156TIP3   OH2 9473   5.080   4.569   2.238
 3156TIP3    H1 9474   5.105   4.557   2.332
 3156TIP3    H2 9475   5.013   4.499   2.228
 3157TIP3   OH2 9476   5.803   4.688   2.257
 3157TIP3    H1 9477   5.743   4.627   2.214
 3157TIP3    H2 9478   5.890   4.650   2.233
 3158TIP3   OH2 9479   6.058   5.196   1.842
 3158TIP3    H1 9480   5.963   5.196   1.863
 3158TIP3    H2 9481   6.095   5.245   1.918
 3159TIP3   OH2 9482   6.140   4.726   1.483
 3159TIP3    H1 9483   6.050   4.689   1.495
 3159TIP3    H2 9484   6.190   4.647   1.454
 3160TIP3   OH2 9485   5.301   4.955   1.250
 3160TIP3    H1 9486   5.288   5.035   1.196
 3160TIP3    H2 9487   5.210   4.925   1.262
 3161TIP3   OH2 9488   4.862   4.253   0.957
 3161TIP3    H1 9489   4.911   4.335   0.981
 3161TIP3    H2 9490   4.787   4.258   1.020
 3162TIP3   OH2 9491   5.426   4.714   1.192
 3162TIP3    H1 9492   5.392   4.803   1.213
 3162TIP3    H2 9493   5.394   4.662   1.269
 3163TIP3   OH2 9494   5.566   5.290   1.719
 3163TIP3    H1 9495   5.600   5.371   1.674
 3163TIP3    H2 9496   5.647   5.257   1.762
 3164TIP3   OH2 9497   5.212   5.190   1.100
 3164TIP3    H1 9498   5.127   5.193   1.148
 3164TIP3    H2 9499   5.238   5.285   1.106
 3165TIP3   OH2 9500   5.955   4.925   1.673
 3165TIP3    H1 9501   5.949   4.923   1.771
 3165TIP3    H2 9502   6.026   4.862   1.656
 3166TIP3   OH2 9503   5.287   4.071   2.241
 3166TIP3    H1 9504   5.190   4.076   2.255
 3166TIP3    H2 9505   5.315   4.019   2.318
 3167TIP3   OH2 9506   6.071   4.670   0.742
 3167TIP3    H1 9507   6.070   4.664   0.839
 3167TIP3    H2 9508   6.152   4.721   0.727
 3168TIP3   OH2 9509   5.005   5.154   1.876
 3168TIP3    H1 9510   5.059   5.082   1.912
 3168TIP3    H2 9511   5.031   5.227   1.933
 3169TIP3   OH2 9512   5.220   4.806   0.865
 3169TIP3    H1 9513   5.308   4.770   0.879
 3169TIP3    H2 9514   5.239   4.902   0.853
 3170TIP3   OH2 9515   4.972   4.495   1.040
 3170TIP3    H1 9516   4.905   4.541   1.094
 3170TIP3    H2 9517   4.989   4.564   0.973
 3171TIP3   OH2 9518   6.126   4.141   1.931
 3171TIP3    H1 9519   6.213   4.181   1.951
 3171TIP3    H2 9520   6.124   4.060   1.985
 3172TIP3   OH2 9521   6.008   3.881   1.105
 3172TIP3    H1 9522   5.990   3.903   1.011
 3172TIP3    H2 9523   6.045   3.965   1.139
 3173TIP3   OH2 9524   5.514   5.011   0.761
 3173TIP3    H1 9525   5.429   5.040   0.798
 3173TIP3    H2 9526   5.494   5.010   0.666
 3174TIP3   OH2 9527   5.964   4.379   2.000
 3174TIP3    H1 9528   5.993   4.430   2.078
 3174TIP3    H2 9529   6.024   4.301   2.003
 3175TIP3   OH2 9530   5.825   3.791   1.296
 3175TIP3    H1 9531   5.803   3.866   1.355
 3175TIP3    H2 9532   5.895   3.830   1.239
 3176TIP3   OH2 9533   5.262   5.082   0.851
 3176TIP3    H1 9534   5.228   5.155   0.798
 3176TIP3    H2 9535   5.249   5.117   0.942
 3177TIP3   OH2 9536   5.343   3.798   1.079
 3177TIP3    H1 9537   5.339   3.895   1.090
 3177TIP3    H2 9538   5.439   3.784   1.098
 3178TIP3   OH2 9539   6.251   4.484   1.393
 3178TIP3    H1 9540   6.171   4.433   1.370
 3178TIP3    H2 9541   6.292   4.428   1.459
 3179TIP3   OH2 9542   4.969   4.700   0.846
 3179TIP3    H1 9543   5.049   4.755   0.864
 3179TIP3    H2 9544   5.006   4.645   0.774
 3180TIP3   OH2 9545   4.899   3.977   0.975
 3180TIP3    H1 9546   4.924   4.072   0.976
 3180TIP3    H2 9547   4.818   3.978   0.925
 3181TIP3   OH2 9548   5.300   3.703   1.844
 3181TIP3    H1 9549   5.269   3.670   1.758
 3181TIP3    H2 9550   5.288   3.625   1.902
 3182TIP3   OH2 9551   4.835   4.925   1.224
 3182TIP3    H1 9552   4.774   4.955   1.292
 3182TIP3    H2 9553   4.800   4.969   1.144
 3183TIP3   OH2 9554   4.999   5.472   2.299
 3183TIP3    H1 9555   5.086   5.472   2.346
 3183TIP3    H2 9556   4.981   5.377   2.297
 3184TIP3   OH2 9557   5.478   5.426   2.338
 3184TIP3    H1 9558   5.568   5.393   2.352
 3184TIP3    H2 9559   5.448   5.365   2.268
 3185TIP3   OH2 9560   6.139   5.316   2.081
 3185TIP3    H1 9561   6.106   5.249   2.146
 3185TIP3    H2 9562   6.230   5.328   2.112
 3186TIP3   OH2 9563   5.125   4.874   2.496
 3186TIP3    H1 9564   5.140   4.779   2.512
 3186TIP3    H2 9565   5.037   4.875   2.454
 3187TIP3   OH2 9566   5.112   4.520   0.696
 3187TIP3    H1 9567   5.162   4.481   0.771
 3187TIP3    H2 9568   5.183   4.560   0.646
 3188TIP3   OH2 9569   5.767   4.971   2.251
 3188TIP3    H1 9570   5.697   4.982   2.184
 3188TIP3    H2 9571   5.775   4.874   2.260
 3189TIP3   OH2 9572   6.226   4.954   1.876
 3189TIP3    H1 9573   6.286   5.031   1.884
 3189TIP3    H2 9574   6.141   4.999   1.861
 3190TIP3   OH2 9575   5.248   4.601   2.475
 3190TIP3    H1 9576   5.332   4.563   2.448
 3190TIP3    H2 9577   5.271   4.633   2.565
 3191TIP3   OH2 9578   5.299   4.422   0.902
 3191TIP3    H1 9579   5.291   4.373   0.985
 3191TIP3    H2 9580   5.336   4.352   0.843
 3192TIP3   OH2 9581   5.576   4.484   2.140
 3192TIP3    H1 9582   5.502   4.548   2.146
 3192TIP3    H2 9583   5.628   4.520   2.065
 3193TIP3   OH2 9584   5.410   4.232   0.732
 3193TIP3    H1 9585   5.413   4.157   0.672
 3193TIP3    H2 9586   5.480   4.207   0.795
 3194TIP3   OH2 9587   6.104   4.894   2.276
 3194TIP3    H1 9588   6.179   4.856   2.228
 3194TIP3    H2 9589   6.092   4.830   2.349
 3195TIP3   OH2 9590   5.706   4.279   2.267
 3195TIP3    H1 9591   5.707   4.201   2.208
 3195TIP3    H2 9592   5.662   4.347   2.211
 3196TIP3   OH2 9593   5.708   4.064   2.078
 3196TIP3    H1 9594   5.737   4.108   1.995
 3196TIP3    H2 9595   5.615   4.043   2.058
 3197TIP3   OH2 9596   5.729   4.598   1.949
 3197TIP3    H1 9597   5.816   4.608   1.908
 3197TIP3    H2 9598   5.675   4.665   1.902
 3198TIP3   OH2 9599   6.315   4.564   2.337
 3198TIP3    H1 9600   6.350   4.475   2.325
 3198TIP3    H2 9601   6.385   4.619   2.298
 3199TIP3   OH2 9602   6.364   4.830   2.075
 3199TIP3    H1 9603   6.308   4.877   2.009
 3199TIP3    H2 9604   6.439   4.804   2.019
 3200TIP3   OH2 9605   5.578   4.384   2.497
 3200TIP3    H1 9606   5.512   4.314   2.515
 3200TIP3    H2 9607   5.614   4.356   2.411
 3201TIP3   OH2 9608   5.839   3.828   2.149
 3201TIP3    H1 9609   5.791   3.910   2.125
 3201TIP3    H2 9610   5.769   3.760   2.137
 3202TIP3   OH2 9611   5.965   4.326   2.360
 3202TIP3    H1 9612   5.945   4.322   2.456
 3202TIP3    H2 9613   5.876   4.305   2.325
 3203TIP3   OH2 9614   6.207   4.294   2.209
 3203TIP3    H1 9615   6.128   4.289   2.267
 3203TIP3    H2 9616   6.276   4.255   2.266
 3204TIP3   OH2 9617   6.413   4.214   2.370
 3204TIP3    H1 9618   6.436   4.122   2.390
 3204TIP3    H2 9619   6.427   4.259   2.456
 3205TIP3   OH2 9620   5.418   4.162   2.558
 3205TIP3    H1 9621   5.424   4.070   2.527
 3205TIP3    H2 9622   5.455   4.154   2.648
 3206TIP3   OH2 9623   5.928   3.837   2.409
 3206TIP3    H1 9624   5.994   3.765   2.401
 3206TIP3    H2 9625   5.890   3.836   2.319
 3207TIP3   OH2 9626   5.995   4.051   2.567
 3207TIP3    H1 9627   5.973   3.982   2.501
 3207TIP3    H2 9628   5.919   4.112   2.558
 3208TIP3   OH2 9629   4.700   4.668   0.871
 3208TIP3    H1 9630   4.797   4.687   0.863
 3208TIP3    H2 9631   4.695   4.578   0.833
 3209TIP3   OH2 9632   4.617   5.273   1.296
 3209TIP3    H1 9633   4.551   5.212   1.257
 3209TIP3    H2 9634   4.661   5.214   1.361
 3210TIP3   OH2 9635   4.750   5.119   1.482
 3210TIP3    H1 9636   4.740   5.050   1.550
 3210TIP3    H2 9637   4.803   5.183   1.532
 3211TIP3   OH2 9638   4.934   4.536   1.850
 3211TIP3    H1 9639   4.932   4.499   1.760
 3211TIP3    H2 9640   5.032   4.535   1.867
 3212TIP3   OH2 9641   5.150   4.211   2.519
 3212TIP3    H1 9642   5.247   4.209   2.529
 3212TIP3    H2 9643   5.126   4.127   2.564
 3213TIP3   OH2 9644   5.116   3.913   1.856
 3213TIP3    H1 9645   5.178   3.838   1.864
 3213TIP3    H2 9646   5.177   3.988   1.849
 3214TIP3   OH2 9647   4.913   4.183   1.924
 3214TIP3    H1 9648   4.966   4.182   1.841
 3214TIP3    H2 9649   4.945   4.264   1.966
 3215TIP3   OH2 9650   4.903   3.682   1.426
 3215TIP3    H1 9651   4.811   3.681   1.459
 3215TIP3    H2 9652   4.897   3.743   1.350
 3216TIP3   OH2 9653   5.123   3.763   2.236
 3216TIP3    H1 9654   5.074   3.764   2.321
 3216TIP3    H2 9655   5.058   3.806   2.178
 3217TIP3   OH2 9656   5.160   5.205   2.315
 3217TIP3    H1 9657   5.067   5.176   2.311
 3217TIP3    H2 9658   5.186   5.180   2.404
 3218TIP3   OH2 9659   5.342   5.232   1.869
 3218TIP3    H1 9660   5.295   5.309   1.829
 3218TIP3    H2 9661   5.428   5.244   1.823
 3219TIP3   OH2 9662   5.778   5.468   2.008
 3219TIP3    H1 9663   5.827   5.464   2.093
 3219TIP3    H2 9664   5.832   5.531   1.956
 3220TIP3   OH2 9665   5.015   5.489   1.891
 3220TIP3    H1 9666   4.923   5.521   1.872
 3220TIP3    H2 9667   5.031   5.534   1.975
 3221TIP3   OH2 9668   5.246   5.461   1.750
 3221TIP3    H1 9669   5.160   5.473   1.795
 3221TIP3    H2 9670   5.226   5.495   1.660
 3222TIP3   OH2 9671   5.653   5.507   1.570
 3222TIP3    H1 9672   5.661   5.514   1.475
 3222TIP3    H2 9673   5.651   5.600   1.598
 3223TIP3   OH2 9674   4.927   5.278   1.636
 3223TIP3    H1 9675   4.954   5.249   1.726
 3223TIP3    H2 9676   5.000   5.238   1.584
 3224TIP3   OH2 9677   5.125   5.155   1.496
 3224TIP3    H1 9678   5.137   5.070   1.543
 3224TIP3    H2 9679   5.217   5.189   1.496
 3225TIP3   OH2 9680   5.393   5.240   1.504
 3225TIP3    H1 9681   5.419   5.145   1.501
 3225TIP3    H2 9682   5.445   5.267   1.582
 3226TIP3   OH2 9683   5.965   3.909   1.604
 3226TIP3    H1 9684   5.915   3.835   1.643
 3226TIP3    H2 9685   6.029   3.861   1.546
 3227TIP3   OH2 9686   5.211   3.609   1.598
 3227TIP3    H1 9687   5.119   3.575   1.601
 3227TIP3    H2 9688   5.260   3.524   1.594
 3228TIP3   OH2 9689   5.001   3.481   1.248
 3228TIP3    H1 9690   5.032   3.538   1.175
 3228TIP3    H2 9691   4.973   3.547   1.314
 3229TIP3   OH2 9692   5.659   3.640   1.483
 3229TIP3    H1 9693   5.702   3.691   1.413
 3229TIP3    H2 9694   5.683   3.691   1.561
 3230TIP3   OH2 9695   6.145   3.764   1.458
 3230TIP3    H1 9696   6.166   3.745   1.367
 3230TIP3    H2 9697   6.170   3.682   1.504
 3231TIP3   OH2 9698   6.207   3.707   1.010
 3231TIP3    H1 9699   6.137   3.764   1.043
 3231TIP3    H2 9700   6.195   3.626   1.062
 3232TIP3   OH2 9701   4.712   5.059   1.022
 3232TIP3    H1 9702   4.627   5.025   0.990
 3232TIP3    H2 9703   4.702   5.152   0.996
 3233TIP3   OH2 9704   5.121   3.634   1.012
 3233TIP3    H1 9705   5.170   3.575   0.951
 3233TIP3    H2 9706   5.193   3.691   1.044
 3234TIP3   OH2 9707   5.608   3.822   1.125
 3234TIP3    H1 9708   5.687   3.815   1.180
 3234TIP3    H2 9709   5.612   3.914   1.093
 3235TIP3   OH2 9710   5.418   3.887   2.486
 3235TIP3    H1 9711   5.381   3.820   2.547
 3235TIP3    H2 9712   5.512   3.888   2.515
 3236TIP3   OH2 9713   5.668   3.887   2.607
 3236TIP3    H1 9714   5.754   3.864   2.567
 3236TIP3    H2 9715   5.656   3.815   2.672
 3237TIP3   OH2 9716   4.782   5.072   0.689
 3237TIP3    H1 9717   4.778   5.110   0.778
 3237TIP3    H2 9718   4.872   5.038   0.684
 3238TIP3   OH2 9719   6.501   3.945   2.404
 3238TIP3    H1 9720   6.511   3.912   2.496
 3238TIP3    H2 9721   6.590   3.930   2.370
 3239TIP3   OH2 9722   0.969   5.209   2.773
 3239TIP3    H1 9723   0.997   5.293   2.813
 3239TIP3    H2 9724   0.991   5.224   2.679
 3240TIP3   OH2 9725   0.356   5.391   2.800
 3240TIP3    H1 9726   0.399   5.306   2.818
 3240TIP3    H2 9727   0.312   5.373   2.715
 3241TIP3   OH2 9728   0.399   5.142   2.390
 3241TIP3    H1 9729   0.471   5.127   2.456
 3241TIP3    H2 9730   0.452   5.177   2.316
 3242TIP3   OH2 9731   1.042   5.418   2.943
 3242TIP3    H1 9732   0.957   5.462   2.921
 3242TIP3    H2 9733   1.056   5.450   3.033
 3243TIP3   OH2 9734   0.598   5.149   2.575
 3243TIP3    H1 9735   0.570   5.117   2.662
 3243TIP3    H2 9736   0.653   5.226   2.600
 3244TIP3   OH2 9737   0.762   5.105   2.939
 3244TIP3    H1 9738   0.674   5.132   2.908
 3244TIP3    H2 9739   0.820   5.139   2.867
 3245TIP3   OH2 9740   0.881   5.768   2.794
 3245TIP3    H1 9741   0.799   5.820   2.789
 3245TIP3    H2 9742   0.909   5.767   2.699
 3246TIP3   OH2 9743   0.327   5.616   2.166
 3246TIP3    H1 9744   0.295   5.675   2.235
 3246TIP3    H2 9745   0.409   5.579   2.207
 3247TIP3   OH2 9746   0.577   5.639   3.061
 3247TIP3    H1 9747   0.563   5.730   3.092
 3247TIP3    H2 9748   0.487   5.622   3.025
 3248TIP3   OH2 9749   0.189   5.453   1.997
 3248TIP3    H1 9750   0.238   5.519   2.050
 3248TIP3    H2 9751   0.174   5.501   1.914
 3249TIP3   OH2 9752   0.686   4.691   2.021
 3249TIP3    H1 9753   0.607   4.714   2.074
 3249TIP3    H2 9754   0.701   4.774   1.972
 3250TIP3   OH2 9755   0.816   5.596   3.237
 3250TIP3    H1 9756   0.731   5.609   3.193
 3250TIP3    H2 9757   0.830   5.500   3.226
 3251TIP3   OH2 9758   0.337   4.944   3.274
 3251TIP3    H1 9759   0.420   4.915   3.319
 3251TIP3    H2 9760   0.273   4.876   3.299
 3252TIP3   OH2 9761   0.589   5.377   3.161
 3252TIP3    H1 9762   0.534   5.366   3.241
 3252TIP3    H2 9763   0.559   5.463   3.126
 3253TIP3   OH2 9764   0.124   5.348   2.303
 3253TIP3    H1 9765   0.101   5.399   2.225
 3253TIP3    H2 9766   0.177   5.277   2.261
 3254TIP3   OH2 9767   0.284   5.348   2.535
 3254TIP3    H1 9768   0.219   5.370   2.465
 3254TIP3    H2 9769   0.319   5.264   2.499
 3255TIP3   OH2 9770   0.323   5.586   2.989
 3255TIP3    H1 9771   0.321   5.513   2.924
 3255TIP3    H2 9772   0.240   5.573   3.037
 3256TIP3   OH2 9773   0.460   5.129   2.837
 3256TIP3    H1 9774   0.435   5.137   2.932
 3256TIP3    H2 9775   0.385   5.073   2.806
 3257TIP3   OH2 9776   0.645   5.913   2.783
 3257TIP3    H1 9777   0.684   5.961   2.706
 3257TIP3    H2 9778   0.572   5.864   2.740
 3258TIP3   OH2 9779   0.181   4.975   2.007
 3258TIP3    H1 9780   0.089   5.003   2.004
 3258TIP3    H2 9781   0.225   5.062   2.016
 3259TIP3   OH2 9782   0.282   5.216   2.102
 3259TIP3    H1 9783   0.377   5.233   2.110
 3259TIP3    H2 9784   0.252   5.291   2.045
 3260TIP3   OH2 9785   0.715   5.317   1.929
 3260TIP3    H1 9786   0.655   5.274   1.864
 3260TIP3    H2 9787   0.716   5.407   1.889
 3261TIP3   OH2 9788   0.448   5.773   2.653
 3261TIP3    H1 9789   0.375   5.748   2.711
 3261TIP3    H2 9790   0.469   5.687   2.610
 3262TIP3   OH2 9791   0.351   5.777   1.945
 3262TIP3    H1 9792   0.336   5.721   2.024
 3262TIP3    H2 9793   0.446   5.766   1.930
 3263TIP3   OH2 9794   0.387   5.152   3.097
 3263TIP3    H1 9795   0.426   5.224   3.148
 3263TIP3    H2 9796   0.366   5.087   3.167
 3264TIP3   OH2 9797   0.279   4.920   2.265
 3264TIP3    H1 9798   0.230   4.943   2.183
 3264TIP3    H2 9799   0.310   5.008   2.296
 3265TIP3   OH2 9800   0.144   4.843   2.490
 3265TIP3    H1 9801   0.162   4.922   2.542
 3265TIP3    H2 9802   0.181   4.870   2.402
 3266TIP3   OH2 9803   0.852   5.326   3.161
 3266TIP3    H1 9804   0.753   5.330   3.167
 3266TIP3    H2 9805   0.861   5.283   3.075
 3267TIP3   OH2 9806   0.505   5.521   2.548
 3267TIP3    H1 9807   0.428   5.461   2.561
 3267TIP3    H2 9808   0.575   5.473   2.597
 3268TIP3   OH2 9809   0.485   5.927   3.051
 3268TIP3    H1 9810   0.546   5.940   2.976
 3268TIP3    H2 9811   0.422   6.000   3.038
 3269TIP3   OH2 9812   0.601   5.600   3.530
 3269TIP3    H1 9813   0.656   5.531   3.492
 3269TIP3    H2 9814   0.620   5.676   3.475
 3270TIP3   OH2 9815   0.628   5.862   3.271
 3270TIP3    H1 9816   0.559   5.892   3.208
 3270TIP3    H2 9817   0.709   5.884   3.221
 3271TIP3   OH2 9818   0.455   5.315   3.387
 3271TIP3    H1 9819   0.399   5.370   3.442
 3271TIP3    H2 9820   0.533   5.297   3.444
 3272TIP3   OH2 9821   0.674   5.272   3.553
 3272TIP3    H1 9822   0.694   5.177   3.568
 3272TIP3    H2 9823   0.667   5.309   3.643
 3273TIP3   OH2 9824   0.625   5.778   1.925
 3273TIP3    H1 9825   0.680   5.855   1.906
 3273TIP3    H2 9826   0.667   5.744   2.007
 3274TIP3   OH2 9827   0.742   5.650   2.134
 3274TIP3    H1 9828   0.678   5.607   2.195
 3274TIP3    H2 9829   0.815   5.674   2.194
 3275TIP3   OH2 9830   0.681   5.550   1.783
 3275TIP3    H1 9831   0.593   5.532   1.747
 3275TIP3    H2 9832   0.664   5.633   1.834
 3276TIP3   OH2 9833   0.552   5.226   1.727
 3276TIP3    H1 9834   0.497   5.252   1.652
 3276TIP3    H2 9835   0.540   5.129   1.723
 3277TIP3   OH2 9836   0.555   5.505   2.278
 3277TIP3    H1 9837   0.565   5.408   2.267
 3277TIP3    H2 9838   0.545   5.514   2.375
 3278TIP3   OH2 9839   0.853   5.937   3.128
 3278TIP3    H1 9840   0.915   5.867   3.098
 3278TIP3    H2 9841   0.822   5.979   3.047
 3279TIP3   OH2 9842   1.034   5.729   3.148
 3279TIP3    H1 9843   0.955   5.685   3.186
 3279TIP3    H2 9844   1.103   5.663   3.169
 3280TIP3   OH2 9845   0.517   4.951   1.698
 3280TIP3    H1 9846   0.580   4.927   1.769
 3280TIP3    H2 9847   0.433   4.911   1.732
 3281TIP3   OH2 9848   0.562   5.226   2.172
 3281TIP3    H1 9849   0.601   5.137   2.187
 3281TIP3    H2 9850   0.618   5.257   2.098
 3282TIP3   OH2 9851   0.718   5.391   2.668
 3282TIP3    H1 9852   0.804   5.416   2.628
 3282TIP3    H2 9853   0.731   5.427   2.758
 3283TIP3   OH2 9854   0.790   5.533   2.900
 3283TIP3    H1 9855   0.714   5.565   2.953
 3283TIP3    H2 9856   0.822   5.617   2.861
 3284TIP3   OH2 9857   1.237   5.133   3.454
 3284TIP3    H1 9858   1.298   5.069   3.411
 3284TIP3    H2 9859   1.206   5.186   3.378
 3285TIP3   OH2 9860   0.665   4.974   2.211
 3285TIP3    H1 9861   0.712   4.957   2.295
 3285TIP3    H2 9862   0.606   4.896   2.207
 3286TIP3   OH2 9863   1.106   5.267   3.258
 3286TIP3    H1 9864   1.019   5.310   3.272
 3286TIP3    H2 9865   1.077   5.192   3.202
 3287TIP3   OH2 9866   0.745   4.901   1.851
 3287TIP3    H1 9867   0.787   4.831   1.796
 3287TIP3    H2 9868   0.812   4.972   1.848
 3288TIP3   OH2 9869   1.007   5.030   3.141
 3288TIP3    H1 9870   0.918   5.022   3.103
 3288TIP3    H2 9871   1.041   4.938   3.130
 3289TIP3   OH2 9872   0.252   4.957   2.761
 3289TIP3    H1 9873   0.183   4.892   2.779
 3289TIP3    H2 9874   0.320   4.904   2.714
 3290TIP3   OH2 9875   0.733   4.827   2.663
 3290TIP3    H1 9876   0.769   4.880   2.588
 3290TIP3    H2 9877   0.638   4.847   2.656
 3291TIP3   OH2 9878   0.828   4.925   2.427
 3291TIP3    H1 9879   0.902   4.872   2.390
 3291TIP3    H2 9880   0.863   5.016   2.413
 3292TIP3   OH2 9881   0.456   4.825   2.631
 3292TIP3    H1 9882   0.451   4.787   2.543
 3292TIP3    H2 9883   0.441   4.747   2.689
 3293TIP3   OH2 9884   0.491   4.756   2.203
 3293TIP3    H1 9885   0.409   4.808   2.221
 3293TIP3    H2 9886   0.469   4.672   2.248
 3294TIP3   OH2 9887   0.746   5.003   3.574
 3294TIP3    H1 9888   0.764   4.968   3.664
 3294TIP3    H2 9889   0.835   4.997   3.533
 3295TIP3   OH2 9890   1.958   5.909   1.830
 3295TIP3    H1 9891   1.925   6.000   1.831
 3295TIP3    H2 9892   1.882   5.862   1.791
 3296TIP3   OH2 9893   1.957   5.920   2.220
 3296TIP3    H1 9894   1.994   5.893   2.305
 3296TIP3    H2 9895   1.911   5.839   2.192
 3297TIP3   OH2 9896   1.248   5.805   2.575
 3297TIP3    H1 9897   1.289   5.741   2.637
 3297TIP3    H2 9898   1.298   5.885   2.595
 3298TIP3   OH2 9899   0.926   5.423   2.079
 3298TIP3    H1 9900   0.883   5.508   2.099
 3298TIP3    H2 9901   0.852   5.373   2.042
 3299TIP3   OH2 9902   0.982   5.711   2.247
 3299TIP3    H1 9903   1.025   5.637   2.297
 3299TIP3    H2 9904   1.061   5.757   2.215
 3300TIP3   OH2 9905   1.768   6.126   2.203
 3300TIP3    H1 9906   1.835   6.055   2.205
 3300TIP3    H2 9907   1.799   6.186   2.271
 3301TIP3   OH2 9908   2.764   5.467   2.259
 3301TIP3    H1 9909   2.793   5.550   2.301
 3301TIP3    H2 9910   2.785   5.485   2.166
 3302TIP3   OH2 9911   2.164   5.648   2.289
 3302TIP3    H1 9912   2.202   5.561   2.309
 3302TIP3    H2 9913   2.127   5.631   2.199
 3303TIP3   OH2 9914   1.505   5.305   2.253
 3303TIP3    H1 9915   1.481   5.377   2.191
 3303TIP3    H2 9916   1.457   5.231   2.210
 3304TIP3   OH2 9917   2.196   5.399   1.878
 3304TIP3    H1 9918   2.267   5.385   1.944
 3304TIP3    H2 9919   2.247   5.434   1.803
 3305TIP3   OH2 9920   1.127   5.508   2.365
 3305TIP3    H1 9921   1.211   5.492   2.413
 3305TIP3    H2 9922   1.143   5.455   2.284
 3306TIP3   OH2 9923   1.573   5.707   2.137
 3306TIP3    H1 9924   1.665   5.681   2.156
 3306TIP3    H2 9925   1.532   5.621   2.110
 3307TIP3   OH2 9926   2.837   5.677   2.427
 3307TIP3    H1 9927   2.750   5.719   2.408
 3307TIP3    H2 9928   2.845   5.694   2.522
 3308TIP3   OH2 9929   1.493   5.291   2.694
 3308TIP3    H1 9930   1.434   5.326   2.625
 3308TIP3    H2 9931   1.439   5.309   2.774
 3309TIP3   OH2 9932   1.616   6.014   2.430
 3309TIP3    H1 9933   1.545   6.061   2.479
 3309TIP3    H2 9934   1.632   6.075   2.354
 3310TIP3   OH2 9935   2.398   5.406   2.059
 3310TIP3    H1 9936   2.375   5.362   2.142
 3310TIP3    H2 9937   2.448   5.484   2.089
 3311TIP3   OH2 9938   1.367   5.402   2.473
 3311TIP3    H1 9939   1.428   5.475   2.497
 3311TIP3    H2 9940   1.416   5.363   2.398
 3312TIP3   OH2 9941   2.557   5.367   2.426
 3312TIP3    H1 9942   2.468   5.391   2.393
 3312TIP3    H2 9943   2.615   5.398   2.354
 3313TIP3   OH2 9944   1.847   5.007   2.413
 3313TIP3    H1 9945   1.830   4.912   2.427
 3313TIP3    H2 9946   1.768   5.045   2.458
 3314TIP3   OH2 9947   1.787   5.760   1.669
 3314TIP3    H1 9948   1.702   5.807   1.653
 3314TIP3    H2 9949   1.836   5.790   1.591
 3315TIP3   OH2 9950   1.734   5.567   1.369
 3315TIP3    H1 9951   1.793   5.613   1.431
 3315TIP3    H2 9952   1.796   5.505   1.326
 3316TIP3   OH2 9953   2.675   6.025   2.280
 3316TIP3    H1 9954   2.591   6.074   2.274
 3316TIP3    H2 9955   2.704   6.024   2.186
 3317TIP3   OH2 9956   2.138   5.857   1.631
 3317TIP3    H1 9957   2.078   5.874   1.707
 3317TIP3    H2 9958   2.218   5.825   1.678
 3318TIP3   OH2 9959   2.355   5.889   2.543
 3318TIP3    H1 9960   2.348   5.975   2.587
 3318TIP3    H2 9961   2.268   5.887   2.498
 3319TIP3   OH2 9962   1.348   5.854   2.048
 3319TIP3    H1 9963   1.307   5.797   1.980
 3319TIP3    H2 9964   1.433   5.807   2.064
 3320TIP3   OH2 9965   1.480   5.785   2.379
 3320TIP3    H1 9966   1.509   5.758   2.289
 3320TIP3    H2 9967   1.533   5.867   2.392
 3321TIP3   OH2 9968   1.978   5.709   1.462
 3321TIP3    H1 9969   2.030   5.773   1.515
 3321TIP3    H2 9970   2.000   5.738   1.371
 3322TIP3   OH2 9971   1.381   5.895   2.821
 3322TIP3    H1 9972   1.395   5.984   2.860
 3322TIP3    H2 9973   1.287   5.881   2.844
 3323TIP3   OH2 9974   2.481   4.950   1.512
 3323TIP3    H1 9975   2.399   4.969   1.561
 3323TIP3    H2 9976   2.494   5.032   1.461
 3324TIP3   OH2 9977   1.214   5.691   1.863
 3324TIP3    H1 9978   1.137   5.724   1.812
 3324TIP3    H2 9979   1.194   5.597   1.871
 3325TIP3   OH2 9980   1.056   6.020   2.713
 3325TIP3    H1 9981   0.968   6.005   2.672
 3325TIP3    H2 9982   1.064   5.945   2.774
 3326TIP3   OH2 9983   2.616   5.853   2.724
 3326TIP3    H1 9984   2.526   5.861   2.688
 3326TIP3    H2 9985   2.631   5.757   2.717
 3327TIP3   OH2 9986   1.608   5.085   2.541
 3327TIP3    H1 9987   1.521   5.054   2.509
 3327TIP3    H2 9988   1.580   5.165   2.589
 3328TIP3   OH2 9989   2.144   5.199   2.732
 3328TIP3    H1 9990   2.214   5.172   2.796
 3328TIP3    H2 9991   2.062   5.179   2.781
 3329TIP3   OH2 9992   2.383   5.634   2.655
 3329TIP3    H1 9993   2.331   5.627   2.738
 3329TIP3    H2 9994   2.353   5.718   2.617
 3330TIP3   OH2 9995   2.057   5.776   1.216
 3330TIP3    H1 9996   2.019   5.737   1.135
 3330TIP3    H2 9997   2.149   5.790   1.186
 3331TIP3   OH2 9998   1.761   5.130   1.506
 3331TIP3    H1 9999   1.721   5.135   1.596
 3331TIP3    H210000   1.710   5.056   1.471
 3332TIP3   OH210001   1.548   5.594   2.557
 3332TIP3    H110002   1.493   5.610   2.638
 3332TIP3    H210003   1.518   5.668   2.499
 3333TIP3   OH210004   1.425   5.487   2.069
 3333TIP3    H110005   1.333   5.458   2.087
 3333TIP3    H210006   1.437   5.449   1.979
 3334TIP3   OH210007   1.922   5.569   1.807
 3334TIP3    H110008   1.868   5.637   1.759
 3334TIP3    H210009   1.974   5.532   1.733
 3335TIP3   OH210010   2.103   5.837   2.872
 3335TIP3    H110011   2.078   5.769   2.939
 3335TIP3    H210012   2.192   5.860   2.904
 3336TIP3   OH210013   2.077   5.598   2.034
 3336TIP3    H110014   2.010   5.622   1.966
 3336TIP3    H210015   2.111   5.518   1.991
 3337TIP3   OH210016   1.368   5.617   2.760
 3337TIP3    H110017   1.379   5.689   2.824
 3337TIP3    H210018   1.350   5.539   2.818
 3338TIP3   OH210019   1.443   5.109   1.482
 3338TIP3    H110020   1.448   5.026   1.532
 3338TIP3    H210021   1.348   5.129   1.486
 3339TIP3   OH210022   0.954   5.149   2.346
 3339TIP3    H110023   1.029   5.182   2.400
 3339TIP3    H210024   0.997   5.118   2.265
 3340TIP3   OH210025   0.915   5.127   1.862
 3340TIP3    H110026   0.963   5.164   1.786
 3340TIP3    H210027   0.857   5.202   1.884
 3341TIP3   OH210028   2.085   5.843   2.455
 3341TIP3    H110029   2.117   5.771   2.395
 3341TIP3    H210030   2.056   5.788   2.531
 3342TIP3   OH210031   1.763   5.310   2.133
 3342TIP3    H110032   1.679   5.307   2.184
 3342TIP3    H210033   1.830   5.299   2.203
 3343TIP3   OH210034   1.188   5.367   2.136
 3343TIP3    H110035   1.094   5.372   2.106
 3343TIP3    H210036   1.213   5.275   2.113
 3344TIP3   OH210037   1.456   5.376   1.824
 3344TIP3    H110038   1.549   5.378   1.795
 3344TIP3    H210039   1.405   5.388   1.741
 3345TIP3   OH210040   2.243   5.385   2.332
 3345TIP3    H110041   2.214   5.398   2.425
 3345TIP3    H210042   2.174   5.324   2.301
 3346TIP3   OH210043   1.294   5.409   1.605
 3346TIP3    H110044   1.225   5.357   1.560
 3346TIP3    H210045   1.350   5.434   1.529
 3347TIP3   OH210046   1.370   6.124   2.970
 3347TIP3    H110047   1.452   6.150   3.019
 3347TIP3    H210048   1.329   6.067   3.038
 3348TIP3   OH210049   1.835   5.642   2.231
 3348TIP3    H110050   1.902   5.590   2.184
 3348TIP3    H210051   1.832   5.597   2.318
 3349TIP3   OH210052   1.352   5.127   2.106
 3349TIP3    H110053   1.324   5.043   2.148
 3349TIP3    H210054   1.362   5.101   2.013
 3350TIP3   OH210055   1.813   5.543   2.506
 3350TIP3    H110056   1.721   5.569   2.529
 3350TIP3    H210057   1.867   5.599   2.565
 3351TIP3   OH210058   1.571   5.904   1.605
 3351TIP3    H110059   1.490   5.848   1.611
 3351TIP3    H210060   1.544   5.991   1.637
 3352TIP3   OH210061   2.435   6.160   2.264
 3352TIP3    H110062   2.470   6.210   2.188
 3352TIP3    H210063   2.358   6.114   2.225
 3353TIP3   OH210064   2.006   5.237   1.474
 3353TIP3    H110065   1.912   5.211   1.488
 3353TIP3    H210066   2.009   5.329   1.506
 3354TIP3   OH210067   2.071   5.483   1.586
 3354TIP3    H110068   2.168   5.492   1.597
 3354TIP3    H210069   2.048   5.562   1.534
 3355TIP3   OH210070   1.216   5.889   2.291
 3355TIP3    H110071   1.273   5.882   2.212
 3355TIP3    H210072   1.274   5.852   2.360
 3356TIP3   OH210073   1.127   5.842   2.913
 3356TIP3    H110074   1.134   5.821   3.008
 3356TIP3    H210075   1.051   5.786   2.888
 3357TIP3   OH210076   1.857   5.944   2.927
 3357TIP3    H110077   1.795   5.890   2.875
 3357TIP3    H210078   1.944   5.916   2.890
 3358TIP3   OH210079   2.518   5.572   1.413
 3358TIP3    H110080   2.455   5.528   1.352
 3358TIP3    H210081   2.514   5.661   1.372
 3359TIP3   OH210082   2.225   6.029   2.132
 3359TIP3    H110083   2.134   6.006   2.161
 3359TIP3    H210084   2.253   5.943   2.094
 3360TIP3   OH210085   0.899   5.551   1.615
 3360TIP3    H110086   0.946   5.634   1.640
 3360TIP3    H210087   0.824   5.554   1.678
 3361TIP3   OH210088   1.329   5.372   2.907
 3361TIP3    H110089   1.232   5.376   2.916
 3361TIP3    H210090   1.353   5.315   2.982
 3362TIP3   OH210091   2.152   6.052   1.437
 3362TIP3    H110092   2.123   5.988   1.507
 3362TIP3    H210093   2.240   6.017   1.418
 3363TIP3   OH210094   1.006   5.789   1.702
 3363TIP3    H110095   0.931   5.850   1.721
 3363TIP3    H210096   1.066   5.847   1.651
 3364TIP3   OH210097   2.175   5.436   2.594
 3364TIP3    H110098   2.253   5.473   2.638
 3364TIP3    H210099   2.159   5.354   2.645
 3365TIP3   OH210100   2.057   5.182   1.763
 3365TIP3    H110101   2.036   5.205   1.670
 3365TIP3    H210102   2.095   5.265   1.798
 3366TIP3   OH210103   1.742   5.371   1.866
 3366TIP3    H110104   1.805   5.444   1.850
 3366TIP3    H210105   1.744   5.364   1.963
 3367TIP3   OH210106   2.009   5.682   2.661
 3367TIP3    H110107   2.039   5.733   2.739
 3367TIP3    H210108   2.059   5.599   2.671
 3368TIP3   OH210109   1.880   5.089   1.965
 3368TIP3    H110110   1.863   5.172   2.013
 3368TIP3    H210111   1.941   5.120   1.895
 3369TIP3   OH210112   1.365   5.098   1.818
 3369TIP3    H110113   1.414   5.181   1.808
 3369TIP3    H210114   1.425   5.033   1.777
 3370TIP3   OH210115   2.646   5.583   2.644
 3370TIP3    H110116   2.549   5.589   2.656
 3370TIP3    H210117   2.649   5.527   2.565
 3371TIP3   OH210118   2.301   5.778   2.028
 3371TIP3    H110119   2.222   5.720   2.040
 3371TIP3    H210120   2.369   5.729   2.080
 3372TIP3   OH210121   0.955   5.283   1.640
 3372TIP3    H110122   0.959   5.381   1.636
 3372TIP3    H210123   0.872   5.265   1.595
 3373TIP3   OH210124   1.345   5.004   2.508
 3373TIP3    H110125   1.314   4.972   2.420
 3373TIP3    H210126   1.333   4.925   2.564
 3374TIP3   OH210127   1.137   6.119   3.160
 3374TIP3    H110128   1.185   6.039   3.186
 3374TIP3    H210129   1.071   6.083   3.100
 3375TIP3   OH210130   1.109   5.761   1.354
 3375TIP3    H110131   1.154   5.792   1.434
 3375TIP3    H210132   1.183   5.763   1.289
 3376TIP3   OH210133   1.746   6.189   2.934
 3376TIP3    H110134   1.752   6.214   2.842
 3376TIP3    H210135   1.793   6.103   2.935
 3377TIP3   OH210136   2.262   6.191   2.546
 3377TIP3    H110137   2.322   6.219   2.476
 3377TIP3    H210138   2.226   6.276   2.578
 3378TIP3   OH210139   1.318   5.902   3.151
 3378TIP3    H110140   1.388   5.838   3.134
 3378TIP3    H210141   1.341   5.930   3.243
 3379TIP3   OH210142   1.374   5.710   1.607
 3379TIP3    H110143   1.342   5.651   1.677
 3379TIP3    H210144   1.405   5.645   1.540
 3380TIP3   OH210145   1.635   5.787   2.806
 3380TIP3    H110146   1.548   5.831   2.805
 3380TIP3    H210147   1.679   5.828   2.728
 3381TIP3   OH210148   1.463   5.523   1.421
 3381TIP3    H110149   1.438   5.519   1.326
 3381TIP3    H210150   1.560   5.529   1.413
 3382TIP3   OH210151   2.167   6.197   2.918
 3382TIP3    H110152   2.259   6.171   2.934
 3382TIP3    H210153   2.122   6.150   2.990
 3383TIP3   OH210154   2.293   5.822   1.085
 3383TIP3    H110155   2.272   5.775   1.001
 3383TIP3    H210156   2.281   5.913   1.055
 3384TIP3   OH210157   1.752   5.579   2.934
 3384TIP3    H110158   1.751   5.501   2.874
 3384TIP3    H210159   1.709   5.647   2.878
 3385TIP3   OH210160   1.752   5.369   2.738
 3385TIP3    H110161   1.779   5.406   2.652
 3385TIP3    H210162   1.658   5.345   2.722
 3386TIP3   OH210163   1.785   5.910   2.618
 3386TIP3    H110164   1.867   5.889   2.574
 3386TIP3    H210165   1.731   5.951   2.547
 3387TIP3   OH210166   2.359   5.867   2.993
 3387TIP3    H110167   2.402   5.783   3.015
 3387TIP3    H210168   2.432   5.917   2.953
 3388TIP3   OH210169   2.423   6.108   2.747
 3388TIP3    H110170   2.349   6.142   2.692
 3388TIP3    H210171   2.501   6.138   2.697
 3389TIP3   OH210172   1.625   5.686   3.165
 3389TIP3    H110173   1.560   5.614   3.181
 3389TIP3    H210174   1.660   5.660   3.077
 3390TIP3   OH210175   1.883   5.130   2.813
 3390TIP3    H110176   1.834   5.211   2.788
 3390TIP3    H210177   1.814   5.062   2.801
 3391TIP3   OH210178   2.011   5.630   3.024
 3391TIP3    H110179   1.995   5.618   3.120
 3391TIP3    H210180   1.921   5.608   2.991
 3392TIP3   OH210181   2.247   5.574   2.879
 3392TIP3    H110182   2.172   5.579   2.941
 3392TIP3    H210183   2.321   5.547   2.938
 3393TIP3   OH210184   2.482   5.527   3.028
 3393TIP3    H110185   2.494   5.430   3.043
 3393TIP3    H210186   2.474   5.562   3.119
 3394TIP3   OH210187   1.467   5.465   3.222
 3394TIP3    H110188   1.470   5.373   3.189
 3394TIP3    H210189   1.504   5.453   3.312
 3395TIP3   OH210190   1.974   5.138   3.072
 3395TIP3    H110191   2.041   5.068   3.064
 3395TIP3    H210192   1.935   5.135   2.982
 3396TIP3   OH210193   2.042   5.353   3.228
 3396TIP3    H110194   2.020   5.281   3.164
 3396TIP3    H210195   1.964   5.412   3.220
 3397TIP3   OH210196   2.426   6.029   1.414
 3397TIP3    H110197   2.481   6.099   1.374
 3397TIP3    H210198   2.440   6.038   1.508
 3398TIP3   OH210199   2.489   5.804   1.273
 3398TIP3    H110200   2.417   5.796   1.207
 3398TIP3    H210201   2.459   5.882   1.324
 3399TIP3   OH210202   2.349   5.485   1.215
 3399TIP3    H110203   2.304   5.512   1.134
 3399TIP3    H210204   2.329   5.389   1.215
 3400TIP3   OH210205   2.362   5.756   1.757
 3400TIP3    H110206   2.361   5.659   1.751
 3400TIP3    H210207   2.349   5.772   1.853
 3401TIP3   OH210208   0.982   5.764   2.541
 3401TIP3    H110209   0.962   5.795   2.451
 3401TIP3    H210210   1.079   5.785   2.546
 3402TIP3   OH210211   2.651   6.195   2.615
 3402TIP3    H110212   2.710   6.122   2.587
 3402TIP3    H210213   2.617   6.233   2.533
 3403TIP3   OH210214   2.831   5.987   2.632
 3403TIP3    H110215   2.753   5.941   2.670
 3403TIP3    H210216   2.901   5.921   2.653
 3404TIP3   OH210217   2.294   5.219   1.202
 3404TIP3    H110218   2.362   5.183   1.262
 3404TIP3    H210219   2.215   5.165   1.222
 3405TIP3   OH210220   2.356   5.479   1.656
 3405TIP3    H110221   2.395   5.390   1.673
 3405TIP3    H210222   2.411   5.508   1.582
 3406TIP3   OH210223   2.512   5.647   2.155
 3406TIP3    H110224   2.599   5.671   2.116
 3406TIP3    H210225   2.525   5.684   2.245
 3407TIP3   OH210226   2.582   5.791   2.386
 3407TIP3    H110227   2.505   5.820   2.438
 3407TIP3    H210228   2.615   5.875   2.350
 3408TIP3   OH210229   1.200   5.519   3.192
 3408TIP3    H110230   1.298   5.514   3.196
 3408TIP3    H210231   1.176   5.432   3.228
 3409TIP3   OH210232   3.034   5.391   2.940
 3409TIP3    H110233   3.094   5.326   2.899
 3409TIP3    H210234   3.004   5.443   2.862
 3410TIP3   OH210235   2.461   5.228   1.697
 3410TIP3    H110236   2.506   5.211   1.782
 3410TIP3    H210237   2.399   5.153   1.694
 3411TIP3   OH210238   1.161   5.214   2.520
 3411TIP3    H110239   1.223   5.139   2.526
 3411TIP3    H210240   1.222   5.288   2.509
 3412TIP3   OH210241   0.961   5.490   2.590
 3412TIP3    H110242   1.013   5.472   2.510
 3412TIP3    H210243   0.968   5.587   2.591
 3413TIP3   OH210244   2.903   5.525   2.742
 3413TIP3    H110245   2.817   5.565   2.764
 3413TIP3    H210246   2.872   5.450   2.687
 3414TIP3   OH210247   2.538   5.158   1.335
 3414TIP3    H110248   2.574   5.088   1.277
 3414TIP3    H210249   2.606   5.227   1.330
 3415TIP3   OH210250   0.949   4.989   2.094
 3415TIP3    H110251   0.856   4.984   2.123
 3415TIP3    H210252   0.942   5.047   2.015
 3416TIP3   OH210253   1.167   5.067   2.907
 3416TIP3    H110254   1.115   5.066   2.989
 3416TIP3    H210255   1.103   5.108   2.845
 3417TIP3   OH210256   2.804   5.284   2.627
 3417TIP3    H110257   2.713   5.270   2.595
 3417TIP3    H210258   2.840   5.193   2.618
 3418TIP3   OH210259   2.012   5.204   2.258
 3418TIP3    H110260   1.967   5.132   2.305
 3418TIP3    H210261   2.078   5.156   2.205
 3419TIP3   OH210262   2.528   5.087   2.148
 3419TIP3    H110263   2.562   5.140   2.073
 3419TIP3    H210264   2.432   5.103   2.142
 3420TIP3   OH210265   2.627   5.188   1.913
 3420TIP3    H110266   2.701   5.135   1.877
 3420TIP3    H210267   2.660   5.279   1.898
 3421TIP3   OH210268   1.255   4.910   2.263
 3421TIP3    H110269   1.163   4.876   2.265
 3421TIP3    H210270   1.305   4.825   2.257
 3422TIP3   OH210271   1.041   4.781   1.912
 3422TIP3    H110272   1.080   4.837   1.843
 3422TIP3    H210273   1.018   4.847   1.980
 3423TIP3   OH210274   1.712   4.937   2.145
 3423TIP3    H110275   1.763   4.987   2.080
 3423TIP3    H210276   1.733   4.982   2.227
 3424TIP3   OH210277   2.247   5.091   2.125
 3424TIP3    H110278   2.240   5.049   2.039
 3424TIP3    H210279   2.237   5.014   2.185
 3425TIP3   OH210280   2.279   5.018   1.692
 3425TIP3    H110281   2.194   5.062   1.711
 3425TIP3    H210282   2.263   4.930   1.734
 3426TIP3   OH210283   1.163   4.958   1.676
 3426TIP3    H110284   1.237   4.895   1.659
 3426TIP3    H210285   1.213   5.021   1.731
 3427TIP3   OH210286   1.673   5.131   1.763
 3427TIP3    H110287   1.711   5.069   1.826
 3427TIP3    H210288   1.699   5.217   1.802
 3428TIP3   OH210289   1.463   5.190   3.155
 3428TIP3    H110290   1.429   5.119   3.212
 3428TIP3    H210291   1.557   5.191   3.181
 3429TIP3   OH210292   1.714   5.190   3.272
 3429TIP3    H110293   1.799   5.166   3.232
 3429TIP3    H210294   1.703   5.118   3.338
 3430TIP3   OH210295   2.541   5.256   3.059
 3430TIP3    H110296   2.559   5.225   3.151
 3430TIP3    H210297   2.631   5.250   3.019
 3431TIP3   OH210298   3.730   6.169   1.320
 3431TIP3    H110299   3.724   6.255   1.275
 3431TIP3    H210300   3.658   6.121   1.274
 3432TIP3   OH210301   3.756   6.191   1.707
 3432TIP3    H110302   3.787   6.158   1.793
 3432TIP3    H210303   3.708   6.115   1.672
 3433TIP3   OH210304   3.049   6.061   2.062
 3433TIP3    H110305   3.082   5.992   2.122
 3433TIP3    H210306   3.099   6.138   2.095
 3434TIP3   OH210307   2.687   5.741   1.584
 3434TIP3    H110308   2.630   5.733   1.661
 3434TIP3    H210309   2.648   5.673   1.526
 3435TIP3   OH210310   4.558   5.722   1.745
 3435TIP3    H110311   4.586   5.805   1.787
 3435TIP3    H210312   4.587   5.737   1.653
 3436TIP3   OH210313   3.953   5.905   1.776
 3436TIP3    H110314   3.998   5.821   1.799
 3436TIP3    H210315   3.921   5.885   1.687
 3437TIP3   OH210316   3.298   5.566   1.741
 3437TIP3    H110317   3.278   5.637   1.677
 3437TIP3    H210318   3.250   5.491   1.701
 3438TIP3   OH210319   3.991   5.654   1.365
 3438TIP3    H110320   4.062   5.643   1.432
 3438TIP3    H210321   4.042   5.690   1.290
 3439TIP3   OH210322   2.926   5.767   1.852
 3439TIP3    H110323   3.008   5.747   1.900
 3439TIP3    H210324   2.940   5.717   1.770
 3440TIP3   OH210325   3.369   5.964   1.622
 3440TIP3    H110326   3.462   5.940   1.644
 3440TIP3    H210327   3.331   5.878   1.595
 3441TIP3   OH210328   4.628   5.931   1.914
 3441TIP3    H110329   4.550   5.984   1.890
 3441TIP3    H210330   4.648   5.964   2.003
 3442TIP3   OH210331   3.290   5.546   2.181
 3442TIP3    H110332   3.229   5.581   2.113
 3442TIP3    H210333   3.237   5.562   2.261
 3443TIP3   OH210334   3.409   6.275   1.918
 3443TIP3    H110335   3.333   6.300   1.973
 3443TIP3    H210336   3.444   6.363   1.893
 3444TIP3   OH210337   4.191   5.666   1.546
 3444TIP3    H110338   4.178   5.622   1.631
 3444TIP3    H210339   4.248   5.742   1.570
 3445TIP3   OH210340   3.162   5.659   1.961
 3445TIP3    H110341   3.224   5.731   1.987
 3445TIP3    H210342   3.213   5.620   1.887
 3446TIP3   OH210343   4.353   5.620   1.910
 3446TIP3    H110344   4.266   5.650   1.878
 3446TIP3    H210345   4.414   5.653   1.841
 3447TIP3   OH210346   3.639   5.260   1.895
 3447TIP3    H110347   3.626   5.166   1.917
 3447TIP3    H210348   3.563   5.300   1.942
 3448TIP3   OH210349   3.554   6.023   1.149
 3448TIP3    H110350   3.463   6.042   1.116
 3448TIP3    H210351   3.602   6.074   1.082
 3449TIP3   OH210352   3.533   5.813   0.868
 3449TIP3    H110353   3.593   5.866   0.923
 3449TIP3    H210354   3.596   5.765   0.811
 3450TIP3   OH210355   3.925   6.106   1.129
 3450TIP3    H110356   3.869   6.126   1.206
 3450TIP3    H210357   4.010   6.081   1.172
 3451TIP3   OH210358   4.152   6.145   2.033
 3451TIP3    H110359   4.150   6.231   2.078
 3451TIP3    H210360   4.066   6.148   1.988
 3452TIP3   OH210361   3.151   6.116   1.540
 3452TIP3    H110362   3.107   6.057   1.477
 3452TIP3    H210363   3.234   6.066   1.558
 3453TIP3   OH210364   3.273   6.045   1.861
 3453TIP3    H110365   3.306   6.013   1.775
 3453TIP3    H210366   3.328   6.126   1.873
 3454TIP3   OH210367   3.780   5.956   0.949
 3454TIP3    H110368   3.823   6.023   1.008
 3454TIP3    H210369   3.808   5.987   0.861
 3455TIP3   OH210370   3.177   6.160   2.299
 3455TIP3    H110371   3.191   6.245   2.346
 3455TIP3    H210372   3.086   6.140   2.329
 3456TIP3   OH210373   4.279   5.210   0.998
 3456TIP3    H110374   4.198   5.233   1.048
 3456TIP3    H210375   4.292   5.291   0.945
 3457TIP3   OH210376   2.946   5.963   1.409
 3457TIP3    H110377   2.924   5.994   1.318
 3457TIP3    H210378   2.994   5.882   1.385
 3458TIP3   OH210379   2.850   6.276   2.196
 3458TIP3    H110380   2.761   6.257   2.161
 3458TIP3    H210381   2.862   6.205   2.262
 3459TIP3   OH210382   4.409   6.107   2.211
 3459TIP3    H110383   4.323   6.118   2.168
 3459TIP3    H210384   4.425   6.011   2.202
 3460TIP3   OH210385   3.404   5.342   2.026
 3460TIP3    H110386   3.316   5.311   1.998
 3460TIP3    H210387   3.377   5.421   2.077
 3461TIP3   OH210388   3.942   5.455   2.219
 3461TIP3    H110389   4.013   5.429   2.282
 3461TIP3    H210390   3.860   5.435   2.269
 3462TIP3   OH210391   4.174   5.885   2.136
 3462TIP3    H110392   4.127   5.881   2.223
 3462TIP3    H210393   4.151   5.973   2.102
 3463TIP3   OH210394   3.841   6.047   0.692
 3463TIP3    H110395   3.758   6.061   0.645
 3463TIP3    H210396   3.859   6.135   0.727
 3464TIP3   OH210397   3.562   5.382   1.003
 3464TIP3    H110398   3.522   5.384   1.092
 3464TIP3    H210399   3.514   5.306   0.965
 3465TIP3   OH210400   3.341   5.854   2.043
 3465TIP3    H110401   3.289   5.869   2.125
 3465TIP3    H210402   3.311   5.928   1.986
 3466TIP3   OH210403   3.217   5.747   1.551
 3466TIP3    H110404   3.127   5.714   1.573
 3466TIP3    H210405   3.232   5.701   1.465
 3467TIP3   OH210406   3.706   5.832   1.286
 3467TIP3    H110407   3.651   5.898   1.239
 3467TIP3    H210408   3.761   5.797   1.213
 3468TIP3   OH210409   3.899   6.094   2.360
 3468TIP3    H110410   3.876   6.025   2.426
 3468TIP3    H210411   3.989   6.117   2.390
 3469TIP3   OH210412   3.866   5.852   1.521
 3469TIP3    H110413   3.803   5.879   1.451
 3469TIP3    H210414   3.903   5.773   1.476
 3470TIP3   OH210415   3.160   5.873   2.247
 3470TIP3    H110416   3.182   5.939   2.315
 3470TIP3    H210417   3.143   5.793   2.301
 3471TIP3   OH210418   3.206   5.367   0.962
 3471TIP3    H110419   3.195   5.366   1.059
 3471TIP3    H210420   3.131   5.422   0.935
 3472TIP3   OH210421   2.751   5.416   1.821
 3472TIP3    H110422   2.825   5.439   1.881
 3472TIP3    H210423   2.793   5.365   1.750
 3473TIP3   OH210424   2.715   5.384   1.354
 3473TIP3    H110425   2.757   5.421   1.272
 3473TIP3    H210426   2.649   5.454   1.372
 3474TIP3   OH210427   3.869   6.100   1.942
 3474TIP3    H110428   3.905   6.030   1.882
 3474TIP3    H210429   3.848   6.044   2.020
 3475TIP3   OH210430   3.557   5.565   1.617
 3475TIP3    H110431   3.478   5.564   1.674
 3475TIP3    H210432   3.629   5.553   1.681
 3476TIP3   OH210433   2.984   5.622   1.617
 3476TIP3    H110434   2.891   5.611   1.592
 3476TIP3    H210435   3.020   5.531   1.607
 3477TIP3   OH210436   3.246   5.621   1.314
 3477TIP3    H110437   3.340   5.635   1.290
 3477TIP3    H210438   3.199   5.641   1.230
 3478TIP3   OH210439   4.041   5.644   1.821
 3478TIP3    H110440   4.010   5.656   1.914
 3478TIP3    H210441   3.974   5.584   1.787
 3479TIP3   OH210442   3.090   5.647   1.092
 3479TIP3    H110443   3.026   5.605   1.032
 3479TIP3    H210444   3.149   5.691   1.026
 3480TIP3   OH210445   3.166   6.381   2.456
 3480TIP3    H110446   3.249   6.406   2.506
 3480TIP3    H210447   3.123   6.327   2.524
 3481TIP3   OH210448   3.625   5.897   1.715
 3481TIP3    H110449   3.701   5.858   1.669
 3481TIP3    H210450   3.630   5.853   1.802
 3482TIP3   OH210451   3.143   5.383   1.602
 3482TIP3    H110452   3.109   5.305   1.652
 3482TIP3    H210453   3.188   5.340   1.528
 3483TIP3   OH210454   3.608   5.800   1.993
 3483TIP3    H110455   3.517   5.828   2.017
 3483TIP3    H210456   3.664   5.854   2.052
 3484TIP3   OH210457   4.204   6.437   1.781
 3484TIP3    H110458   4.265   6.465   1.709
 3484TIP3    H210459   4.147   6.376   1.730
 3485TIP3   OH210460   3.791   5.508   0.932
 3485TIP3    H110461   3.702   5.477   0.963
 3485TIP3    H210462   3.805   5.590   0.982
 3486TIP3   OH210463   3.871   5.731   1.073
 3486TIP3    H110464   3.967   5.742   1.088
 3486TIP3    H210465   3.848   5.813   1.024
 3487TIP3   OH210466   2.998   6.127   1.772
 3487TIP3    H110467   3.070   6.129   1.707
 3487TIP3    H210468   3.047   6.095   1.851
 3488TIP3   OH210469   2.926   6.102   2.398
 3488TIP3    H110470   2.936   6.085   2.493
 3488TIP3    H210471   2.850   6.043   2.378
 3489TIP3   OH210472   3.655   6.201   2.413
 3489TIP3    H110473   3.595   6.144   2.363
 3489TIP3    H210474   3.743   6.174   2.380
 3490TIP3   OH210475   4.297   5.825   0.904
 3490TIP3    H110476   4.232   5.783   0.844
 3490TIP3    H210477   4.295   5.915   0.863
 3491TIP3   OH210478   4.020   6.283   1.627
 3491TIP3    H110479   3.927   6.261   1.648
 3491TIP3    H210480   4.050   6.199   1.588
 3492TIP3   OH210481   2.706   5.801   1.109
 3492TIP3    H110482   2.748   5.887   1.129
 3492TIP3    H210483   2.629   5.804   1.171
 3493TIP3   OH210484   3.126   5.629   2.392
 3493TIP3    H110485   3.029   5.633   2.404
 3493TIP3    H210486   3.152   5.574   2.468
 3494TIP3   OH210487   3.949   6.290   0.925
 3494TIP3    H110488   3.936   6.227   0.998
 3494TIP3    H210489   4.045   6.280   0.906
 3495TIP3   OH210490   2.801   6.047   1.188
 3495TIP3    H110491   2.731   6.115   1.187
 3495TIP3    H210492   2.875   6.092   1.140
 3496TIP3   OH210493   3.967   5.694   2.081
 3496TIP3    H110494   4.048   5.733   2.118
 3496TIP3    H210495   3.956   5.612   2.135
 3497TIP3   OH210496   3.853   5.442   1.249
 3497TIP3    H110497   3.834   5.474   1.160
 3497TIP3    H210498   3.895   5.521   1.290
 3498TIP3   OH210499   3.531   5.626   1.348
 3498TIP3    H110500   3.594   5.700   1.330
 3498TIP3    H210501   3.540   5.617   1.445
 3499TIP3   OH210502   3.805   5.937   2.150
 3499TIP3    H110503   3.837   5.987   2.228
 3499TIP3    H210504   3.857   5.854   2.156
 3500TIP3   OH210505   3.678   5.343   1.445
 3500TIP3    H110506   3.673   5.419   1.505
 3500TIP3    H210507   3.741   5.377   1.378
 3501TIP3   OH210508   3.190   5.352   1.238
 3501TIP3    H110509   3.185   5.443   1.273
 3501TIP3    H210510   3.287   5.337   1.246
 3502TIP3   OH210511   4.440   5.839   2.136
 3502TIP3    H110512   4.342   5.839   2.141
 3502TIP3    H210513   4.453   5.793   2.053
 3503TIP3   OH210514   4.094   6.033   1.523
 3503TIP3    H110515   4.020   5.971   1.536
 3503TIP3    H210516   4.167   5.988   1.571
 3504TIP3   OH210517   2.747   5.530   1.127
 3504TIP3    H110518   2.752   5.628   1.127
 3504TIP3    H210519   2.669   5.514   1.073
 3505TIP3   OH210520   3.141   5.260   1.995
 3505TIP3    H110521   3.110   5.224   1.909
 3505TIP3    H210522   3.131   5.182   2.054
 3506TIP3   OH210523   2.938   6.376   2.645
 3506TIP3    H110524   2.986   6.298   2.677
 3506TIP3    H210525   2.861   6.336   2.604
 3507TIP3   OH210526   2.925   6.038   0.853
 3507TIP3    H110527   2.977   6.042   0.934
 3507TIP3    H210528   2.996   6.024   0.785
 3508TIP3   OH210529   3.539   6.444   2.419
 3508TIP3    H110530   3.562   6.474   2.331
 3508TIP3    H210531   3.587   6.359   2.424
 3509TIP3   OH210532   4.064   6.446   2.020
 3509TIP3    H110533   4.117   6.445   1.937
 3509TIP3    H210534   4.045   6.540   2.031
 3510TIP3   OH210535   3.117   6.155   2.636
 3510TIP3    H110536   3.185   6.088   2.623
 3510TIP3    H210537   3.137   6.185   2.728
 3511TIP3   OH210538   3.427   6.041   2.291
 3511TIP3    H110539   3.343   6.091   2.290
 3511TIP3    H210540   3.474   6.081   2.215
 3512TIP3   OH210541   3.257   5.751   0.908
 3512TIP3    H110542   3.231   5.765   0.815
 3512TIP3    H210543   3.347   5.788   0.909
 3513TIP3   OH210544   3.960   6.455   2.403
 3513TIP3    H110545   4.052   6.428   2.407
 3513TIP3    H210546   3.923   6.406   2.478
 3514TIP3   OH210547   3.547   5.835   2.422
 3514TIP3    H110548   3.548   5.757   2.364
 3514TIP3    H210549   3.503   5.902   2.364
 3515TIP3   OH210550   3.548   5.626   2.226
 3515TIP3    H110551   3.576   5.662   2.140
 3515TIP3    H210552   3.455   5.601   2.209
 3516TIP3   OH210553   3.579   6.158   2.102
 3516TIP3    H110554   3.667   6.141   2.067
 3516TIP3    H210555   3.531   6.196   2.027
 3517TIP3   OH210556   4.156   6.124   2.478
 3517TIP3    H110557   4.199   6.040   2.499
 3517TIP3    H210558   4.228   6.173   2.436
 3518TIP3   OH210559   4.213   6.368   2.233
 3518TIP3    H110560   4.147   6.405   2.171
 3518TIP3    H210561   4.296   6.389   2.185
 3519TIP3   OH210562   3.419   5.944   2.650
 3519TIP3    H110563   3.356   5.871   2.669
 3519TIP3    H210564   3.457   5.915   2.565
 3520TIP3   OH210565   3.679   5.386   2.298
 3520TIP3    H110566   3.630   5.467   2.276
 3520TIP3    H210567   3.610   5.317   2.288
 3521TIP3   OH210568   3.807   5.888   2.512
 3521TIP3    H110569   3.794   5.874   2.607
 3521TIP3    H210570   3.717   5.864   2.480
 3522TIP3   OH210571   4.045   5.833   2.367
 3522TIP3    H110572   3.970   5.835   2.429
 3522TIP3    H210573   4.119   5.806   2.424
 3523TIP3   OH210574   4.275   5.783   2.515
 3523TIP3    H110575   4.289   5.687   2.531
 3523TIP3    H210576   4.270   5.818   2.607
 3524TIP3   OH210577   3.264   5.722   2.709
 3524TIP3    H110578   3.267   5.630   2.676
 3524TIP3    H210579   3.302   5.710   2.798
 3525TIP3   OH210580   3.771   5.396   2.557
 3525TIP3    H110581   3.838   5.325   2.551
 3525TIP3    H210582   3.732   5.391   2.468
 3526TIP3   OH210583   3.839   5.610   2.713
 3526TIP3    H110584   3.817   5.538   2.650
 3526TIP3    H210585   3.760   5.668   2.706
 3527TIP3   OH210586   4.219   6.296   0.893
 3527TIP3    H110587   4.283   6.360   0.856
 3527TIP3    H210588   4.266   6.264   0.973
 3528TIP3   OH210589   4.337   6.166   1.104
 3528TIP3    H110590   4.277   6.123   1.168
 3528TIP3    H210591   4.415   6.189   1.158
 3529TIP3   OH210592   4.270   6.056   0.767
 3529TIP3    H110593   4.236   6.079   0.680
 3529TIP3    H210594   4.256   6.140   0.815
 3530TIP3   OH210595   4.131   5.737   0.703
 3530TIP3    H110596   4.169   5.751   0.615
 3530TIP3    H210597   4.108   5.642   0.698
 3531TIP3   OH210598   4.154   6.018   1.255
 3531TIP3    H110599   4.164   5.922   1.247
 3531TIP3    H210600   4.141   6.030   1.351
 3532TIP3   OH210601   2.785   6.020   2.032
 3532TIP3    H110602   2.776   6.038   1.937
 3532TIP3    H210603   2.881   6.040   2.044
 3533TIP3   OH210604   4.438   6.434   2.098
 3533TIP3    H110605   4.521   6.383   2.087
 3533TIP3    H210606   4.439   6.487   2.017
 3534TIP3   OH210607   4.634   6.250   2.168
 3534TIP3    H110608   4.551   6.201   2.183
 3534TIP3    H210609   4.698   6.176   2.165
 3535TIP3   OH210610   4.087   5.468   0.681
 3535TIP3    H110611   4.166   5.444   0.735
 3535TIP3    H210612   4.019   5.408   0.717
 3536TIP3   OH210613   4.149   5.735   1.144
 3536TIP3    H110614   4.193   5.648   1.158
 3536TIP3    H210615   4.206   5.770   1.072
 3537TIP3   OH210616   4.311   5.908   1.641
 3537TIP3    H110617   4.395   5.940   1.599
 3537TIP3    H210618   4.325   5.946   1.730
 3538TIP3   OH210619   4.377   6.065   1.868
 3538TIP3    H110620   4.301   6.090   1.923
 3538TIP3    H210621   4.398   6.149   1.823
 3539TIP3   OH210622   2.998   5.779   2.681
 3539TIP3    H110623   3.096   5.771   2.685
 3539TIP3    H210624   2.973   5.691   2.715
 3540TIP3   OH210625   4.832   5.648   2.428
 3540TIP3    H110626   4.892   5.582   2.387
 3540TIP3    H210627   4.801   5.698   2.350
 3541TIP3   OH210628   4.257   5.485   1.185
 3541TIP3    H110629   4.305   5.468   1.269
 3541TIP3    H210630   4.196   5.409   1.183
 3542TIP3   OH210631   2.956   5.467   2.000
 3542TIP3    H110632   3.019   5.393   2.012
 3542TIP3    H210633   3.017   5.543   1.996
 3543TIP3   OH210634   2.757   5.743   2.075
 3543TIP3    H110635   2.808   5.731   1.992
 3543TIP3    H210636   2.768   5.839   2.087
 3544TIP3   OH210637   4.696   5.777   2.231
 3544TIP3    H110638   4.610   5.819   2.249
 3544TIP3    H210639   4.667   5.702   2.175
 3545TIP3   OH210640   4.326   5.416   0.815
 3545TIP3    H110641   4.362   5.348   0.754
 3545TIP3    H210642   4.393   5.486   0.810
 3546TIP3   OH210643   2.744   5.245   1.584
 3546TIP3    H110644   2.651   5.237   1.611
 3546TIP3    H210645   2.737   5.302   1.504
 3547TIP3   OH210646   2.963   5.327   2.394
 3547TIP3    H110647   2.912   5.320   2.476
 3547TIP3    H210648   2.896   5.365   2.333
 3548TIP3   OH210649   4.600   5.540   2.114
 3548TIP3    H110650   4.509   5.525   2.081
 3548TIP3    H210651   4.638   5.449   2.105
 3549TIP3   OH210652   3.798   5.456   1.732
 3549TIP3    H110653   3.762   5.384   1.786
 3549TIP3    H210654   3.875   5.414   1.689
 3550TIP3   OH210655   4.321   5.341   1.637
 3550TIP3    H110656   4.358   5.392   1.561
 3550TIP3    H210657   4.227   5.364   1.632
 3551TIP3   OH210658   4.420   5.437   1.401
 3551TIP3    H110659   4.494   5.384   1.366
 3551TIP3    H210660   4.456   5.528   1.388
 3552TIP3   OH210661   3.052   5.166   1.748
 3552TIP3    H110662   2.960   5.130   1.752
 3552TIP3    H210663   3.102   5.081   1.745
 3553TIP3   OH210664   2.844   5.041   1.400
 3553TIP3    H110665   2.872   5.098   1.326
 3553TIP3    H210666   2.816   5.106   1.467
 3554TIP3   OH210667   3.500   5.201   1.632
 3554TIP3    H110668   3.556   5.248   1.569
 3554TIP3    H210669   3.533   5.234   1.717
 3555TIP3   OH210670   4.036   5.348   1.615
 3555TIP3    H110671   4.045   5.305   1.529
 3555TIP3    H210672   4.028   5.269   1.674
 3556TIP3   OH210673   4.073   5.275   1.178
 3556TIP3    H110674   3.989   5.320   1.201
 3556TIP3    H210675   4.060   5.188   1.222
 3557TIP3   OH210676   2.961   5.198   1.161
 3557TIP3    H110677   3.008   5.135   1.104
 3557TIP3    H210678   3.035   5.252   1.196
 3558TIP3   OH210679   3.466   5.376   1.262
 3558TIP3    H110680   3.526   5.331   1.323
 3558TIP3    H210681   3.485   5.470   1.286
 3559TIP3   OH210682   3.260   5.448   2.642
 3559TIP3    H110683   3.226   5.376   2.699
 3559TIP3    H210684   3.354   5.448   2.669
 3560TIP3   OH210685   3.510   5.446   2.759
 3560TIP3    H110686   3.596   5.420   2.721
 3560TIP3    H210687   3.498   5.376   2.826
 3561TIP3   OH210688   4.337   5.512   2.546
 3561TIP3    H110689   4.355   5.481   2.638
 3561TIP3    H210690   4.427   5.507   2.506
 3562TIP3   OH210691   4.934   6.338   1.540
 3562TIP3    H110692   4.845   6.318   1.576
 3562TIP3    H210693   4.911   6.411   1.482
 3563TIP3   OH210694   4.514   5.929   1.049
 3563TIP3    H110695   4.483   6.018   1.071
 3563TIP3    H210696   4.433   5.890   1.012
 3564TIP3   OH210697   4.587   6.226   1.198
 3564TIP3    H110698   4.623   6.167   1.267
 3564TIP3    H210699   4.670   6.261   1.161
 3565TIP3   OH210700   5.077   5.825   1.235
 3565TIP3    H110701   5.060   5.886   1.161
 3565TIP3    H210702   5.041   5.743   1.197
 3566TIP3   OH210703   4.713   6.023   1.347
 3566TIP3    H110704   4.796   6.006   1.395
 3566TIP3    H210705   4.727   5.967   1.268
 3567TIP3   OH210706   5.082   5.803   1.673
 3567TIP3    H110707   5.024   5.840   1.604
 3567TIP3    H210708   5.027   5.816   1.752
 3568TIP3   OH210709   4.952   5.918   1.457
 3568TIP3    H110710   5.007   5.997   1.475
 3568TIP3    H210711   4.998   5.881   1.378
 3569TIP3   OH210712   5.406   5.507   1.369
 3569TIP3    H110713   5.417   5.418   1.409
 3569TIP3    H210714   5.337   5.544   1.428
 3570TIP3   OH210715   5.193   5.601   1.519
 3570TIP3    H110716   5.108   5.568   1.485
 3570TIP3    H210717   5.160   5.677   1.571
 3571TIP3   OH210718   5.111   6.129   1.531
 3571TIP3    H110719   5.074   6.127   1.623
 3571TIP3    H210720   5.065   6.211   1.501
 3572TIP3   OH210721   4.990   5.981   1.026
 3572TIP3    H110722   4.907   5.947   1.067
 3572TIP3    H210723   4.954   6.019   0.944
 3573TIP3   OH210724   5.008   6.117   1.782
 3573TIP3    H110725   4.941   6.181   1.807
 3573TIP3    H210726   4.975   6.035   1.825
 3574TIP3   OH210727   4.545   5.660   1.320
 3574TIP3    H110728   4.616   5.696   1.377
 3574TIP3    H210729   4.591   5.637   1.239
 3575TIP3   OH210730   4.503   5.643   0.830
 3575TIP3    H110731   4.567   5.679   0.767
 3575TIP3    H210732   4.445   5.719   0.849
 3576TIP3   OH210733   4.765   5.864   1.126
 3576TIP3    H110734   4.673   5.878   1.094
 3576TIP3    H210735   4.784   5.772   1.100
 3577TIP3   OH210736   4.950   5.628   1.082
 3577TIP3    H110737   4.918   5.553   1.138
 3577TIP3    H210738   4.974   5.582   1.001
 3578TIP3   OH210739   4.666   6.444   1.920
 3578TIP3    H110740   4.723   6.376   1.962
 3578TIP3    H210741   4.655   6.409   1.831
 3579TIP3   OH210742   4.921   5.872   1.888
 3579TIP3    H110743   4.824   5.875   1.895
 3579TIP3    H210744   4.945   5.815   1.963
 3580TIP3   OH210745   4.984   5.591   0.747
 3580TIP3    H110746   4.987   5.688   0.745
 3580TIP3    H210747   5.072   5.568   0.715
 3581TIP3   OH210748   4.934   5.516   1.482
 3581TIP3    H110749   4.904   5.481   1.395
 3581TIP3    H210750   4.924   5.438   1.540
 3582TIP3   OH210751   4.729   6.631   2.116
 3582TIP3    H110752   4.817   6.592   2.125
 3582TIP3    H210753   4.692   6.570   2.049
 3583TIP3   OH210754   4.933   6.418   2.109
 3583TIP3    H110755   4.988   6.339   2.112
 3583TIP3    H210756   4.929   6.442   2.204
 3584TIP3   OH210757   5.301   6.093   1.912
 3584TIP3    H110758   5.331   6.002   1.900
 3584TIP3    H210759   5.269   6.114   1.824
 3585TIP3   OH210760   5.341   5.879   1.701
 3585TIP3    H110761   5.366   5.853   1.612
 3585TIP3    H210762   5.245   5.852   1.703
 3586TIP3   OH210763   5.188   6.203   2.135
 3586TIP3    H110764   5.132   6.128   2.164
 3586TIP3    H210765   5.224   6.166   2.051
 3587TIP3   OH210766   5.463   5.632   1.792
 3587TIP3    H110767   5.421   5.713   1.760
 3587TIP3    H210768   5.396   5.563   1.774
 3588TIP3   OH210769   5.054   5.972   2.203
 3588TIP3    H110770   5.060   5.882   2.165
 3588TIP3    H210771   5.093   5.958   2.291
 3589TIP3   OH210772   5.582   5.663   2.030
 3589TIP3    H110773   5.637   5.583   2.037
 3589TIP3    H210774   5.533   5.643   1.947
 3590TIP3   OH210775   5.592   5.847   2.230
 3590TIP3    H110776   5.593   5.787   2.152
 3590TIP3    H210777   5.517   5.907   2.208
 3591TIP3   OH210778   4.789   6.026   2.158
 3591TIP3    H110779   4.887   6.022   2.167
 3591TIP3    H210780   4.765   5.939   2.195
 3592TIP3   OH210781   4.748   5.725   1.497
 3592TIP3    H110782   4.812   5.651   1.503
 3592TIP3    H210783   4.809   5.801   1.489
 3593TIP3   OH210784   4.546   6.029   1.569
 3593TIP3    H110785   4.600   6.019   1.488
 3593TIP3    H210786   4.568   6.121   1.593
 3594TIP3   OH210787   4.538   5.501   1.059
 3594TIP3    H110788   4.448   5.497   1.096
 3594TIP3    H210789   4.526   5.560   0.983
 3595TIP3   OH210790   4.759   5.586   1.882
 3595TIP3    H110791   4.706   5.578   1.963
 3595TIP3    H210792   4.692   5.622   1.820
 3596TIP3   OH210793   4.848   5.421   1.235
 3596TIP3    H110794   4.756   5.387   1.239
 3596TIP3    H210795   4.897   5.336   1.232
 3597TIP3   OH210796   4.645   5.297   0.892
 3597TIP3    H110797   4.664   5.355   0.816
 3597TIP3    H210798   4.611   5.362   0.957
 3598TIP3   OH210799   5.270   5.466   1.128
 3598TIP3    H110800   5.342   5.465   1.064
 3598TIP3    H210801   5.315   5.486   1.212
 3599TIP3   OH210802   4.762   5.450   0.654
 3599TIP3    H110803   4.806   5.375   0.613
 3599TIP3    H210804   4.837   5.501   0.690
 3600TIP3   OH210805   5.052   5.701   2.125
 3600TIP3    H110806   5.019   5.631   2.184
 3600TIP3    H210807   5.147   5.702   2.152
 3601TIP3   OH210808   5.298   5.698   2.246
 3601TIP3    H110809   5.389   5.681   2.217
 3601TIP3    H210810   5.287   5.628   2.314
 3602TIP3   OH210811   1.682   0.675   5.217
 3602TIP3    H110812   1.648   0.761   5.186
 3602TIP3    H210813   1.613   0.616   5.181
 3603TIP3   OH210814   1.700   0.670   5.586
 3603TIP3    H110815   1.707   0.599   5.653
 3603TIP3    H210816   1.674   0.620   5.507
 3604TIP3   OH210817   1.932   0.968   5.277
 3604TIP3    H110818   1.917   0.898   5.343
 3604TIP3    H210819   1.964   1.041   5.331
 3605TIP3   OH210820   1.585   1.430   5.295
 3605TIP3    H110821   1.625   1.361   5.238
 3605TIP3    H210822   1.568   1.380   5.375
 3606TIP3   OH210823   1.485   0.894   5.630
 3606TIP3    H110824   1.519   0.807   5.606
 3606TIP3    H210825   1.568   0.936   5.661
 3607TIP3   OH210826   2.499   0.232   5.627
 3607TIP3    H110827   2.513   0.321   5.666
 3607TIP3    H210828   2.527   0.248   5.535
 3608TIP3   OH210829   1.874   0.406   5.669
 3608TIP3    H110830   1.908   0.321   5.698
 3608TIP3    H210831   1.849   0.386   5.577
 3609TIP3   OH210832   1.927   0.108   5.283
 3609TIP3    H110833   2.008   0.118   5.338
 3609TIP3    H210834   1.953   0.150   5.200
 3610TIP3   OH210835   2.538   0.451   5.795
 3610TIP3    H110836   2.448   0.489   5.788
 3610TIP3    H210837   2.553   0.458   5.891
 3611TIP3   OH210838   1.564   0.881   5.078
 3611TIP3    H110839   1.537   0.877   4.986
 3611TIP3    H210840   1.521   0.965   5.107
 3612TIP3   OH210841   2.140   0.141   5.447
 3612TIP3    H110842   2.147   0.086   5.527
 3612TIP3    H210843   2.188   0.222   5.473
 3613TIP3   OH210844   2.001   1.215   5.439
 3613TIP3    H110845   1.910   1.203   5.476
 3613TIP3    H210846   1.990   1.299   5.391
 3614TIP3   OH210847   1.696   1.258   5.114
 3614TIP3    H110848   1.745   1.175   5.092
 3614TIP3    H210849   1.755   1.323   5.071
 3615TIP3   OH210850   1.836   1.041   5.027
 3615TIP3    H110851   1.818   0.958   4.981
 3615TIP3    H210852   1.875   1.008   5.111
 3616TIP3   OH210853   2.219   1.117   5.787
 3616TIP3    H110854   2.212   1.039   5.729
 3616TIP3    H210855   2.201   1.189   5.723
 3617TIP3   OH210856   1.526   0.521   5.042
 3617TIP3    H110857   1.444   0.571   5.019
 3617TIP3    H210858   1.571   0.517   4.956
 3618TIP3   OH210859   1.517   0.313   4.716
 3618TIP3    H110860   1.587   0.353   4.774
 3618TIP3    H210861   1.456   0.277   4.777
 3619TIP3   OH210862   2.416   0.758   5.629
 3619TIP3    H110863   2.337   0.816   5.637
 3619TIP3    H210864   2.446   0.783   5.539
 3620TIP3   OH210865   1.868   0.614   5.023
 3620TIP3    H110866   1.813   0.637   5.102
 3620TIP3    H210867   1.952   0.587   5.067
 3621TIP3   OH210868   1.249   1.032   5.561
 3621TIP3    H110869   1.224   0.977   5.487
 3621TIP3    H210870   1.332   0.988   5.591
 3622TIP3   OH210871   1.759   1.202   5.558
 3622TIP3    H110872   1.740   1.286   5.605
 3622TIP3    H210873   1.738   1.134   5.624
 3623TIP3   OH210874   1.723   0.461   4.847
 3623TIP3    H110875   1.777   0.525   4.898
 3623TIP3    H210876   1.745   0.486   4.754
 3624TIP3   OH210877   1.448   1.134   5.111
 3624TIP3    H110878   1.531   1.184   5.121
 3624TIP3    H210879   1.391   1.197   5.064
 3625TIP3   OH210880   2.018   1.063   4.437
 3625TIP3    H110881   2.027   1.160   4.422
 3625TIP3    H210882   2.111   1.034   4.424
 3626TIP3   OH210883   2.454   1.484   5.817
 3626TIP3    H110884   2.460   1.386   5.826
 3626TIP3    H210885   2.374   1.502   5.870
 3627TIP3   OH210886   1.316   1.375   4.915
 3627TIP3    H110887   1.263   1.366   4.835
 3627TIP3    H210888   1.295   1.466   4.943
 3628TIP3   OH210889   0.758   1.219   5.294
 3628TIP3    H110890   0.814   1.212   5.375
 3628TIP3    H210891   0.681   1.168   5.321
 3629TIP3   OH210892   1.583   1.361   4.849
 3629TIP3    H110893   1.488   1.352   4.870
 3629TIP3    H210894   1.621   1.286   4.895
 3630TIP3   OH210895   1.782   0.498   4.585
 3630TIP3    H110896   1.748   0.470   4.497
 3630TIP3    H210897   1.864   0.543   4.560
 3631TIP3   OH210898   1.674   0.332   5.173
 3631TIP3    H110899   1.618   0.404   5.139
 3631TIP3    H210900   1.740   0.321   5.103
 3632TIP3   OH210901   1.842   0.349   5.402
 3632TIP3    H110902   1.757   0.365   5.357
 3632TIP3    H210903   1.859   0.258   5.369
 3633TIP3   OH210904   2.136   1.816   5.940
 3633TIP3    H110905   2.139   1.836   5.845
 3633TIP3    H210906   2.221   1.856   5.968
 3634TIP3   OH210907   1.295   0.665   4.987
 3634TIP3    H110908   1.217   0.609   4.993
 3634TIP3    H210909   1.288   0.713   5.073
 3635TIP3   OH210910   2.183   0.907   5.617
 3635TIP3    H110911   2.210   0.956   5.536
 3635TIP3    H210912   2.099   0.866   5.589
 3636TIP3   OH210913   1.716   0.025   4.802
 3636TIP3    H110914   1.700  -0.045   4.866
 3636TIP3    H210915   1.757   0.093   4.861
 3637TIP3   OH210916   1.826   0.230   4.956
 3637TIP3    H110917   1.922   0.238   4.975
 3637TIP3    H210918   1.807   0.311   4.905
 3638TIP3   OH210919   1.432   0.825   4.807
 3638TIP3    H110920   1.384   0.911   4.808
 3638TIP3    H210921   1.379   0.769   4.868
 3639TIP3   OH210922   1.868   1.240   5.876
 3639TIP3    H110923   1.774   1.259   5.896
 3639TIP3    H210924   1.911   1.302   5.936
 3640TIP3   OH210925   2.248   0.318   4.796
 3640TIP3    H110926   2.194   0.273   4.727
 3640TIP3    H210927   2.249   0.407   4.755
 3641TIP3   OH210928   2.459   1.210   5.866
 3641TIP3    H110929   2.367   1.179   5.850
 3641TIP3    H210930   2.502   1.167   5.789
 3642TIP3   OH210931   1.965   1.138   4.704
 3642TIP3    H110932   1.929   1.069   4.763
 3642TIP3    H210933   1.972   1.092   4.619
 3643TIP3   OH210934   1.950   0.777   5.532
 3643TIP3    H110935   1.861   0.743   5.554
 3643TIP3    H210936   1.988   0.697   5.490
 3644TIP3   OH210937   1.086   1.005   5.284
 3644TIP3    H110938   1.097   1.084   5.227
 3644TIP3    H210939   1.013   1.033   5.339
 3645TIP3   OH210940   1.238   0.783   5.218
 3645TIP3    H110941   1.195   0.865   5.250
 3645TIP3    H210942   1.210   0.717   5.283
 3646TIP3   OH210943   1.346   1.355   5.745
 3646TIP3    H110944   1.401   1.421   5.699
 3646TIP3    H210945   1.406   1.317   5.809
 3647TIP3   OH210946   0.999   1.241   5.143
 3647TIP3    H110947   0.911   1.243   5.185
 3647TIP3    H210948   1.027   1.335   5.151
 3648TIP3   OH210949   1.743   0.975   5.724
 3648TIP3    H110950   1.789   0.967   5.809
 3648TIP3    H210951   1.800   0.922   5.667
 3649TIP3   OH210952   1.717   0.861   4.609
 3649TIP3    H110953   1.767   0.838   4.691
 3649TIP3    H210954   1.626   0.844   4.637
 3650TIP3   OH210955   1.983   1.501   5.764
 3650TIP3    H110956   1.904   1.448   5.741
 3650TIP3    H210957   1.982   1.567   5.691
 3651TIP3   OH210958   2.048   1.339   4.419
 3651TIP3    H110959   2.080   1.411   4.362
 3651TIP3    H210960   1.970   1.384   4.459
 3652TIP3   OH210961   1.877   0.807   4.829
 3652TIP3    H110962   1.869   0.741   4.900
 3652TIP3    H210963   1.973   0.801   4.810
 3653TIP3   OH210964   1.038   0.850   4.597
 3653TIP3    H110965   1.076   0.765   4.566
 3653TIP3    H210966   1.074   0.855   4.687
 3654TIP3   OH210967   1.077   0.864   4.876
 3654TIP3    H110968   1.165   0.873   4.911
 3654TIP3    H210969   1.048   0.959   4.875
 3655TIP3   OH210970   1.295   1.061   4.795
 3655TIP3    H110971   1.213   1.100   4.831
 3655TIP3    H210972   1.307   1.112   4.713
 3656TIP3   OH210973   1.042   1.133   4.890
 3656TIP3    H110974   1.024   1.204   4.824
 3656TIP3    H210975   1.023   1.178   4.974
 3657TIP3   OH210976   2.041   0.537   5.417
 3657TIP3    H110977   1.966   0.474   5.419
 3657TIP3    H210978   2.110   0.485   5.464
 3658TIP3   OH210979   2.005   1.487   5.361
 3658TIP3    H110980   1.961   1.537   5.288
 3658TIP3    H210981   2.099   1.506   5.340
 3659TIP3   OH210982   1.652   1.044   4.387
 3659TIP3    H110983   1.684   1.033   4.478
 3659TIP3    H210984   1.728   1.083   4.341
 3660TIP3   OH210985   1.395   0.765   4.535
 3660TIP3    H110986   1.398   0.787   4.630
 3660TIP3    H210987   1.389   0.666   4.538
 3661TIP3   OH210988   1.988   0.989   5.900
 3661TIP3    H110989   2.079   1.011   5.874
 3661TIP3    H210990   1.946   1.077   5.891
 3662TIP3   OH210991   2.012   0.594   4.467
 3662TIP3    H110992   1.993   0.552   4.382
 3662TIP3    H210993   1.980   0.685   4.447
 3663TIP3   OH210994   1.050   1.331   4.698
 3663TIP3    H110995   1.118   1.301   4.634
 3663TIP3    H210996   0.996   1.383   4.636
 3664TIP3   OH210997   2.261   1.573   5.325
 3664TIP3    H110998   2.292   1.607   5.410
 3664TIP3    H210999   2.330   1.605   5.264
 3665TIP3   OH211000   2.289   1.592   5.610
 3665TIP3    H111001   2.247   1.504   5.600
 3665TIP3    H211002   2.366   1.567   5.664
 3666TIP3   OH211003   2.154   0.780   4.794
 3666TIP3    H111004   2.219   0.846   4.765
 3666TIP3    H211005   2.198   0.744   4.874
 3667TIP3   OH211006   2.279   0.655   5.003
 3667TIP3    H111007   2.214   0.613   5.062
 3667TIP3    H211008   2.347   0.687   5.066
 3668TIP3   OH211009   2.339   1.045   5.434
 3668TIP3    H111010   2.392   0.976   5.391
 3668TIP3    H211011   2.334   1.114   5.365
 3669TIP3   OH211012   2.168   1.339   5.623
 3669TIP3    H111013   2.092   1.376   5.671
 3669TIP3    H211014   2.124   1.292   5.549
 3670TIP3   OH211015   2.217   0.555   4.647
 3670TIP3    H111016   2.145   0.558   4.580
 3670TIP3    H211017   2.191   0.632   4.702
 3671TIP3   OH211018   2.097   0.236   4.586
 3671TIP3    H111019   2.042   0.277   4.519
 3671TIP3    H211020   2.061   0.144   4.587
 3672TIP3   OH211021   2.094   0.515   5.147
 3672TIP3    H111022   2.096   0.418   5.134
 3672TIP3    H211023   2.081   0.524   5.244
 3673TIP3   OH211024   2.385   0.880   5.943
 3673TIP3    H111025   2.444   0.867   6.017
 3673TIP3    H211026   2.377   0.975   5.938
 3674TIP3   OH211027   2.015  -0.022   4.644
 3674TIP3    H111028   2.025  -0.020   4.740
 3674TIP3    H211029   1.926  -0.059   4.636
 3675TIP3   OH211030   2.092   0.250   5.037
 3675TIP3    H111031   2.107   0.153   5.036
 3675TIP3    H211032   2.153   0.278   4.966
 3676TIP3   OH211033   2.245   0.394   5.535
 3676TIP3    H111034   2.332   0.418   5.495
 3676TIP3    H211035   2.255   0.436   5.623
 3677TIP3   OH211036   2.289   0.559   5.766
 3677TIP3    H111037   2.215   0.609   5.803
 3677TIP3    H211038   2.338   0.631   5.719
 3678TIP3   OH211039   1.855   1.440   4.990
 3678TIP3    H111040   1.894   1.421   4.902
 3678TIP3    H211041   1.914   1.509   5.023
 3679TIP3   OH211042   1.767   1.677   5.860
 3679TIP3    H111043   1.833   1.617   5.823
 3679TIP3    H211044   1.818   1.721   5.932
 3680TIP3   OH211045   1.058   1.539   5.793
 3680TIP3    H111046   0.975   1.523   5.840
 3680TIP3    H211047   1.030   1.550   5.701
 3681TIP3   OH211048   1.469   1.547   5.587
 3681TIP3    H111049   1.395   1.553   5.523
 3681TIP3    H211050   1.470   1.637   5.624
 3682TIP3   OH211051   1.730   1.469   5.639
 3682TIP3    H111052   1.636   1.488   5.622
 3682TIP3    H211053   1.772   1.543   5.592
 3683TIP3   OH211054   1.941   1.670   5.555
 3683TIP3    H111055   1.923   1.753   5.507
 3683TIP3    H211056   1.964   1.610   5.480
 3684TIP3   OH211057   0.917   1.191   5.506
 3684TIP3    H111058   0.912   1.120   5.573
 3684TIP3    H211059   1.003   1.234   5.527
 3685TIP3   OH211060   1.171   1.296   5.544
 3685TIP3    H111061   1.203   1.202   5.540
 3685TIP3    H211062   1.219   1.322   5.626
 3686TIP3   OH211063   1.990   1.406   4.749
 3686TIP3    H111064   1.985   1.308   4.736
 3686TIP3    H211065   1.943   1.437   4.669
 3687TIP3   OH211066   0.655   1.189   4.732
 3687TIP3    H111067   0.618   1.128   4.796
 3687TIP3    H211068   0.724   1.132   4.692
 3688TIP3   OH211069   2.208   1.547   5.945
 3688TIP3    H111070   2.139   1.515   5.884
 3688TIP3    H211071   2.185   1.641   5.949
 3689TIP3   OH211072   3.484   0.928   4.692
 3689TIP3    H111073   3.450   1.017   4.668
 3689TIP3    H211074   3.409   0.873   4.666
 3690TIP3   OH211075   3.481   0.921   5.086
 3690TIP3    H111076   3.516   0.896   5.173
 3690TIP3    H211077   3.441   0.837   5.058
 3691TIP3   OH211078   2.776   0.818   5.444
 3691TIP3    H111079   2.805   0.751   5.510
 3691TIP3    H211080   2.862   0.849   5.412
 3692TIP3   OH211081   3.729   1.227   4.764
 3692TIP3    H111082   3.708   1.158   4.828
 3692TIP3    H211083   3.757   1.301   4.820
 3693TIP3   OH211084   2.754   1.228   5.167
 3693TIP3    H111085   2.744   1.130   5.166
 3693TIP3    H211086   2.851   1.235   5.159
 3694TIP3   OH211087   2.445   0.438   4.947
 3694TIP3    H111088   2.391   0.518   4.966
 3694TIP3    H211089   2.378   0.378   4.912
 3695TIP3   OH211090   2.516   0.715   5.134
 3695TIP3    H111091   2.567   0.637   5.167
 3695TIP3    H211092   2.574   0.748   5.065
 3696TIP3   OH211093   3.381   1.686   4.781
 3696TIP3    H111094   3.421   1.614   4.727
 3696TIP3    H211095   3.366   1.642   4.865
 3697TIP3   OH211096   3.277   1.149   5.126
 3697TIP3    H111097   3.317   1.070   5.084
 3697TIP3    H211098   3.360   1.195   5.151
 3698TIP3   OH211099   4.291   0.485   5.112
 3698TIP3    H111100   4.309   0.573   5.152
 3698TIP3    H211101   4.320   0.499   5.020
 3699TIP3   OH211102   3.693   0.647   5.161
 3699TIP3    H111103   3.701   0.556   5.192
 3699TIP3    H211104   3.658   0.634   5.070
 3700TIP3   OH211105   2.945   0.288   5.120
 3700TIP3    H111106   2.979   0.356   5.059
 3700TIP3    H211107   2.998   0.210   5.095
 3701TIP3   OH211108   3.724   0.389   4.754
 3701TIP3    H111109   3.797   0.377   4.820
 3701TIP3    H211110   3.771   0.439   4.686
 3702TIP3   OH211111   2.670   0.511   5.234
 3702TIP3    H111112   2.755   0.492   5.279
 3702TIP3    H211113   2.685   0.465   5.148
 3703TIP3   OH211114   3.098   0.710   5.037
 3703TIP3    H111115   3.194   0.688   5.045
 3703TIP3    H211116   3.063   0.625   5.002
 3704TIP3   OH211117   4.342   0.698   5.283
 3704TIP3    H111118   4.259   0.749   5.285
 3704TIP3    H211119   4.386   0.725   5.365
 3705TIP3   OH211120   3.033   0.282   5.577
 3705TIP3    H111121   3.001   0.298   5.486
 3705TIP3    H211122   2.959   0.317   5.629
 3706TIP3   OH211123   3.373   1.146   4.560
 3706TIP3    H111124   3.327   1.127   4.477
 3706TIP3    H211125   3.325   1.226   4.590
 3707TIP3   OH211126   3.134   1.068   5.348
 3707TIP3    H111127   3.074   1.137   5.383
 3707TIP3    H211128   3.178   1.114   5.274
 3708TIP3   OH211129   3.926   0.398   4.936
 3708TIP3    H111130   3.935   0.339   5.012
 3708TIP3    H211131   3.977   0.477   4.964
 3709TIP3   OH211132   2.901   0.408   5.357
 3709TIP3    H111133   2.975   0.473   5.367
 3709TIP3    H211134   2.930   0.361   5.275
 3710TIP3   OH211135   2.965   1.266   5.450
 3710TIP3    H111136   2.938   1.354   5.414
 3710TIP3    H211137   2.885   1.247   5.504
 3711TIP3   OH211138   2.351   0.955   4.686
 3711TIP3    H111139   2.310   0.980   4.601
 3711TIP3    H211140   2.381   1.041   4.720
 3712TIP3   OH211141   3.794   1.471   4.927
 3712TIP3    H111142   3.704   1.462   4.966
 3712TIP3    H211143   3.785   1.557   4.881
 3713TIP3   OH211144   3.492   1.514   4.596
 3713TIP3    H111145   3.544   1.431   4.578
 3713TIP3    H211146   3.553   1.580   4.556
 3714TIP3   OH211147   3.637   1.297   4.512
 3714TIP3    H111148   3.586   1.218   4.488
 3714TIP3    H211149   3.679   1.267   4.596
 3715TIP3   OH211150   4.020   1.378   5.270
 3715TIP3    H111151   4.005   1.301   5.212
 3715TIP3    H211152   4.001   1.453   5.210
 3716TIP3   OH211153   3.313   0.774   4.533
 3716TIP3    H111154   3.230   0.823   4.515
 3716TIP3    H211155   3.355   0.772   4.445
 3717TIP3   OH211156   3.267   0.567   4.239
 3717TIP3    H111157   3.336   0.610   4.292
 3717TIP3    H211158   3.320   0.503   4.188
 3718TIP3   OH211159   4.213   1.024   5.121
 3718TIP3    H111160   4.129   1.075   5.122
 3718TIP3    H211161   4.244   1.042   5.029
 3719TIP3   OH211162   3.660   0.858   4.497
 3719TIP3    H111163   3.604   0.884   4.574
 3719TIP3    H211164   3.744   0.836   4.543
 3720TIP3   OH211165   3.879   0.911   5.409
 3720TIP3    H111166   3.876   0.995   5.458
 3720TIP3    H211167   3.789   0.910   5.368
 3721TIP3   OH211168   2.893   0.853   4.916
 3721TIP3    H111169   2.852   0.793   4.850
 3721TIP3    H211170   2.968   0.798   4.950
 3722TIP3   OH211171   3.021   1.267   5.062
 3722TIP3    H111172   3.001   1.232   4.974
 3722TIP3    H211173   3.110   1.229   5.080
 3723TIP3   OH211174   3.014   0.830   5.274
 3723TIP3    H111175   3.050   0.797   5.188
 3723TIP3    H211176   3.065   0.912   5.289
 3724TIP3   OH211177   3.555   1.464   5.050
 3724TIP3    H111178   3.540   1.542   5.107
 3724TIP3    H211179   3.539   1.389   5.111
 3725TIP3   OH211180   3.166   1.380   5.598
 3725TIP3    H111181   3.105   1.441   5.644
 3725TIP3    H211182   3.101   1.327   5.547
 3726TIP3   OH211183   3.502   0.707   4.330
 3726TIP3    H111184   3.559   0.770   4.380
 3726TIP3    H211185   3.527   0.730   4.237
 3727TIP3   OH211186   2.923   0.929   5.713
 3727TIP3    H111187   2.925   1.023   5.743
 3727TIP3    H211188   2.826   0.917   5.703
 3728TIP3   OH211189   3.246   1.390   4.601
 3728TIP3    H111190   3.327   1.443   4.608
 3728TIP3    H211191   3.185   1.451   4.558
 3729TIP3   OH211192   2.960   1.545   5.686
 3729TIP3    H111193   2.923   1.547   5.596
 3729TIP3    H211194   2.881   1.524   5.741
 3730TIP3   OH211195   2.759   0.699   4.722
 3730TIP3    H111196   2.686   0.737   4.669
 3730TIP3    H211197   2.729   0.608   4.734
 3731TIP3   OH211198   3.816   1.320   3.924
 3731TIP3    H111199   3.823   1.417   3.911
 3731TIP3    H211200   3.909   1.292   3.911
 3732TIP3   OH211201   2.537   1.087   5.637
 3732TIP3    H111202   2.471   1.065   5.568
 3732TIP3    H211203   2.575   0.999   5.659
 3733TIP3   OH211204   2.395   1.273   5.260
 3733TIP3    H111205   2.491   1.263   5.248
 3733TIP3    H211206   2.390   1.349   5.318
 3734TIP3   OH211207   4.257   1.732   5.319
 3734TIP3    H111208   4.257   1.635   5.332
 3734TIP3    H211209   4.173   1.754   5.365
 3735TIP3   OH211210   3.362   1.510   5.454
 3735TIP3    H111211   3.357   1.603   5.485
 3735TIP3    H211212   3.290   1.469   5.508
 3736TIP3   OH211213   3.129   1.637   4.406
 3736TIP3    H111214   3.079   1.619   4.325
 3736TIP3    H211215   3.094   1.724   4.433
 3737TIP3   OH211216   2.563   1.484   4.790
 3737TIP3    H111217   2.608   1.475   4.877
 3737TIP3    H211218   2.514   1.401   4.785
 3738TIP3   OH211219   3.326   1.542   4.042
 3738TIP3    H111220   3.384   1.470   4.008
 3738TIP3    H211221   3.361   1.552   4.133
 3739TIP3   OH211222   3.379   1.590   4.310
 3739TIP3    H111223   3.291   1.599   4.352
 3739TIP3    H211224   3.430   1.551   4.383
 3740TIP3   OH211225   4.151   0.858   5.602
 3740TIP3    H111226   4.064   0.863   5.559
 3740TIP3    H211227   4.169   0.762   5.596
 3741TIP3   OH211228   2.742   1.267   5.611
 3741TIP3    H111229   2.794   1.249   5.693
 3741TIP3    H211230   2.669   1.203   5.620
 3742TIP3   OH211231   3.928   0.667   5.533
 3742TIP3    H111232   3.868   0.657   5.610
 3742TIP3    H211233   3.889   0.743   5.486
 3743TIP3   OH211234   3.578   0.747   4.073
 3743TIP3    H111235   3.540   0.731   3.984
 3743TIP3    H211236   3.659   0.797   4.049
 3744TIP3   OH211237   3.079   0.608   5.422
 3744TIP3    H111238   3.024   0.625   5.501
 3744TIP3    H211239   3.059   0.687   5.367
 3745TIP3   OH211240   2.962   0.493   4.932
 3745TIP3    H111241   2.867   0.472   4.947
 3745TIP3    H211242   2.975   0.450   4.845
 3746TIP3   OH211243   3.458   0.578   4.664
 3746TIP3    H111244   3.404   0.648   4.622
 3746TIP3    H211245   3.505   0.539   4.588
 3747TIP3   OH211246   3.638   0.867   5.743
 3747TIP3    H111247   3.609   0.802   5.811
 3747TIP3    H211248   3.732   0.878   5.768
 3748TIP3   OH211249   3.617   0.601   4.899
 3748TIP3    H111250   3.547   0.627   4.837
 3748TIP3    H211251   3.643   0.517   4.858
 3749TIP3   OH211252   2.903   0.650   5.627
 3749TIP3    H111253   2.926   0.720   5.689
 3749TIP3    H211254   2.891   0.573   5.686
 3750TIP3   OH211255   2.994   0.210   4.354
 3750TIP3    H111256   2.975   0.186   4.446
 3750TIP3    H211257   2.904   0.228   4.322
 3751TIP3   OH211258   2.505   0.163   5.179
 3751TIP3    H111259   2.546   0.204   5.257
 3751TIP3    H211260   2.550   0.079   5.176
 3752TIP3   OH211261   2.487   0.154   4.759
 3752TIP3    H111262   2.503   0.197   4.672
 3752TIP3    H211263   2.409   0.206   4.787
 3753TIP3   OH211264   3.616   0.849   5.322
 3753TIP3    H111265   3.648   0.777   5.262
 3753TIP3    H211266   3.585   0.796   5.398
 3754TIP3   OH211267   3.297   0.323   4.969
 3754TIP3    H111268   3.211   0.295   5.002
 3754TIP3    H211269   3.344   0.310   5.053
 3755TIP3   OH211270   2.709   0.399   4.983
 3755TIP3    H111271   2.612   0.404   4.963
 3755TIP3    H211272   2.719   0.305   5.000
 3756TIP3   OH211273   2.991   0.360   4.695
 3756TIP3    H111274   3.085   0.381   4.677
 3756TIP3    H211275   2.944   0.397   4.617
 3757TIP3   OH211276   2.834   0.434   4.482
 3757TIP3    H111277   2.767   0.383   4.433
 3757TIP3    H211278   2.893   0.458   4.408
 3758TIP3   OH211279   3.953   2.075   5.421
 3758TIP3    H111280   3.949   2.099   5.326
 3758TIP3    H211281   4.031   2.126   5.450
 3759TIP3   OH211282   2.907   1.181   5.826
 3759TIP3    H111283   2.983   1.215   5.877
 3759TIP3    H211284   2.839   1.179   5.898
 3760TIP3   OH211285   3.366   0.653   5.089
 3760TIP3    H111286   3.405   0.571   5.054
 3760TIP3    H211287   3.361   0.631   5.185
 3761TIP3   OH211288   3.353   0.614   5.357
 3761TIP3    H111289   3.263   0.596   5.390
 3761TIP3    H211290   3.401   0.640   5.439
 3762TIP3   OH211291   3.082   0.924   4.478
 3762TIP3    H111292   3.008   0.860   4.466
 3762TIP3    H211293   3.061   0.959   4.568
 3763TIP3   OH211294   3.977   1.163   5.104
 3763TIP3    H111295   4.000   1.213   5.022
 3763TIP3    H211296   3.892   1.120   5.078
 3764TIP3   OH211297   3.527   0.276   4.272
 3764TIP3    H111298   3.472   0.217   4.325
 3764TIP3    H211299   3.555   0.342   4.340
 3765TIP3   OH211300   3.486   1.250   5.474
 3765TIP3    H111301   3.503   1.224   5.565
 3765TIP3    H211302   3.442   1.336   5.483
 3766TIP3   OH211303   3.614   0.478   4.440
 3766TIP3    H111304   3.707   0.495   4.463
 3766TIP3    H211305   3.587   0.561   4.396
 3767TIP3   OH211306   2.776   0.953   5.147
 3767TIP3    H111307   2.813   0.924   5.061
 3767TIP3    H211308   2.823   0.896   5.209
 3768TIP3   OH211309   3.226   1.075   4.303
 3768TIP3    H111310   3.177   1.161   4.307
 3768TIP3    H211311   3.172   1.019   4.362
 3769TIP3   OH211312   2.654   0.867   5.753
 3769TIP3    H111313   2.684   0.851   5.844
 3769TIP3    H211314   2.577   0.807   5.744
 3770TIP3   OH211315   3.386   0.990   5.782
 3770TIP3    H111316   3.322   0.934   5.734
 3770TIP3    H211317   3.471   0.955   5.748
 3771TIP3   OH211318   3.640   1.512   5.371
 3771TIP3    H111319   3.544   1.504   5.384
 3771TIP3    H211320   3.665   1.562   5.452
 3772TIP3   OH211321   4.048   0.573   4.285
 3772TIP3    H111322   3.995   0.530   4.214
 3772TIP3    H211323   4.048   0.664   4.246
 3773TIP3   OH211324   4.270   1.445   5.356
 3773TIP3    H111325   4.173   1.435   5.349
 3773TIP3    H211326   4.297   1.411   5.268
 3774TIP3   OH211327   3.754   1.397   4.192
 3774TIP3    H111328   3.723   1.330   4.255
 3774TIP3    H211329   3.764   1.347   4.109
 3775TIP3   OH211330   3.744   1.026   5.020
 3775TIP3    H111331   3.651   0.998   5.034
 3775TIP3    H211332   3.779   0.945   4.976
 3776TIP3   OH211333   2.877   1.256   4.783
 3776TIP3    H111334   2.872   1.336   4.727
 3776TIP3    H211335   2.783   1.234   4.792
 3777TIP3   OH211336   2.441   0.557   4.486
 3777TIP3    H111337   2.486   0.642   4.508
 3777TIP3    H211338   2.363   0.562   4.546
 3778TIP3   OH211339   3.006   1.018   4.720
 3778TIP3    H111340   2.973   1.107   4.742
 3778TIP3    H211341   2.971   0.966   4.795
 3779TIP3   OH211342   3.148   1.594   5.248
 3779TIP3    H111343   3.188   1.667   5.197
 3779TIP3    H211344   3.225   1.557   5.293
 3780TIP3   OH211345   2.793   1.491   4.632
 3780TIP3    H111346   2.707   1.501   4.677
 3780TIP3    H211347   2.826   1.584   4.635
 3781TIP3   OH211348   3.530   1.233   5.206
 3781TIP3    H111349   3.521   1.232   5.304
 3781TIP3    H211350   3.603   1.171   5.193
 3782TIP3   OH211351   3.510   1.127   4.091
 3782TIP3    H111352   3.564   1.101   4.169
 3782TIP3    H211353   3.422   1.097   4.119
 3783TIP3   OH211354   3.781   1.761   5.259
 3783TIP3    H111355   3.703   1.703   5.256
 3783TIP3    H211356   3.762   1.823   5.185
 3784TIP3   OH211357   3.846   1.597   3.909
 3784TIP3    H111358   3.883   1.673   3.861
 3784TIP3    H211359   3.765   1.640   3.944
 3785TIP3   OH211360   2.882   0.434   5.794
 3785TIP3    H111361   2.795   0.395   5.773
 3785TIP3    H211362   2.917   0.361   5.845
 3786TIP3   OH211363   3.672   1.052   4.298
 3786TIP3    H111364   3.660   0.990   4.373
 3786TIP3    H211365   3.769   1.052   4.291
 3787TIP3   OH211366   2.582   1.457   5.407
 3787TIP3    H111367   2.635   1.383   5.441
 3787TIP3    H211368   2.614   1.529   5.462
 3788TIP3   OH211369   2.873   1.102   4.091
 3788TIP3    H111370   2.883   1.009   4.066
 3788TIP3    H211371   2.850   1.094   4.186
 3789TIP3   OH211372   2.814   1.109   4.361
 3789TIP3    H111373   2.886   1.080   4.418
 3789TIP3    H211374   2.818   1.207   4.372
 3790TIP3   OH211375   2.547   0.800   4.568
 3790TIP3    H111376   2.481   0.845   4.624
 3790TIP3    H211377   2.562   0.868   4.500
 3791TIP3   OH211378   2.437   6.718   4.230
 3791TIP3    H111379   2.527   6.687   4.212
 3791TIP3    H211380   2.386   6.636   4.222
 3792TIP3   OH211381   3.581   0.208   4.583
 3792TIP3    H111382   3.629   0.246   4.509
 3792TIP3    H211383   3.605   0.269   4.654
 3793TIP3   OH211384   3.085   1.307   4.310
 3793TIP3    H111385   2.998   1.329   4.347
 3793TIP3    H211386   3.099   1.383   4.252
 3794TIP3   OH211387   3.262   0.383   4.705
 3794TIP3    H111388   3.332   0.449   4.692
 3794TIP3    H211389   3.278   0.359   4.800
 3795TIP3   OH211390   3.552   0.696   5.538
 3795TIP3    H111391   3.587   0.745   5.615
 3795TIP3    H211392   3.605   0.614   5.536
 3796TIP3   OH211393   2.831   1.381   4.382
 3796TIP3    H111394   2.802   1.451   4.320
 3796TIP3    H211395   2.814   1.424   4.469
 3797TIP3   OH211396   2.907   0.115   4.605
 3797TIP3    H111397   2.935   0.195   4.656
 3797TIP3    H211398   2.973   0.048   4.632
 3798TIP3   OH211399   4.182   0.576   5.498
 3798TIP3    H111400   4.088   0.608   5.498
 3798TIP3    H211401   4.200   0.569   5.404
 3799TIP3   OH211402   3.830   0.784   4.901
 3799TIP3    H111403   3.753   0.724   4.910
 3799TIP3    H211404   3.899   0.735   4.950
 3800TIP3   OH211405   2.548   1.004   4.371
 3800TIP3    H111406   2.619   1.070   4.378
 3800TIP3    H211407   2.589   0.944   4.305
 3801TIP3   OH211408   2.485   0.289   4.522
 3801TIP3    H111409   2.493   0.386   4.522
 3801TIP3    H211410   2.417   0.276   4.456
 3802TIP3   OH211411   3.802   1.742   4.848
 3802TIP3    H111412   3.759   1.789   4.773
 3802TIP3    H211413   3.896   1.759   4.827
 3803TIP3   OH211414   2.412   1.228   4.755
 3803TIP3    H111415   2.349   1.256   4.822
 3803TIP3    H211416   2.377   1.272   4.674
 3804TIP3   OH211417   2.578   1.774   5.830
 3804TIP3    H111418   2.665   1.775   5.876
 3804TIP3    H211419   2.562   1.678   5.826
 3805TIP3   OH211420   3.058   1.729   5.866
 3805TIP3    H111421   3.150   1.700   5.870
 3805TIP3    H211422   3.023   1.667   5.800
 3806TIP3   OH211423   3.033   1.304   3.998
 3806TIP3    H111424   2.978   1.233   4.039
 3806TIP3    H211425   3.110   1.251   3.968
 3807TIP3   OH211426   3.689   1.642   5.610
 3807TIP3    H111427   3.686   1.570   5.677
 3807TIP3    H211428   3.768   1.692   5.637
 3808TIP3   OH211429   3.471   1.343   3.917
 3808TIP3    H111430   3.506   1.276   3.979
 3808TIP3    H211431   3.531   1.337   3.841
 3809TIP3   OH211432   2.704   1.166   6.004
 3809TIP3    H111433   2.675   1.107   6.074
 3809TIP3    H211434   2.619   1.194   5.965
 3810TIP3   OH211435   2.684   0.817   4.227
 3810TIP3    H111436   2.740   0.787   4.301
 3810TIP3    H211437   2.751   0.823   4.156
 3811TIP3   OH211438   3.316   1.263   5.800
 3811TIP3    H111439   3.269   1.281   5.716
 3811TIP3    H211440   3.344   1.169   5.789
 3812TIP3   OH211441   3.204   1.025   4.033
 3812TIP3    H111442   3.200   1.037   4.130
 3812TIP3    H211443   3.202   0.926   4.027
 3813TIP3   OH211444   3.804   1.274   5.414
 3813TIP3    H111445   3.877   1.319   5.367
 3813TIP3    H211446   3.731   1.336   5.397
 3814TIP3   OH211447   2.813   0.848   5.984
 3814TIP3    H111448   2.896   0.845   5.933
 3814TIP3    H211449   2.835   0.920   6.047
 3815TIP3   OH211450   2.883   0.735   4.443
 3815TIP3    H111451   2.855   0.692   4.525
 3815TIP3    H211452   2.922   0.660   4.393
 3816TIP3   OH211453   3.167   0.810   5.693
 3816TIP3    H111454   3.083   0.860   5.688
 3816TIP3    H211455   3.207   0.831   5.605
 3817TIP3   OH211456   2.992   0.535   4.284
 3817TIP3    H111457   2.966   0.536   4.190
 3817TIP3    H211458   3.089   0.533   4.277
 3818TIP3   OH211459   3.681   1.196   5.806
 3818TIP3    H111460   3.749   1.155   5.751
 3818TIP3    H211461   3.667   1.129   5.875
 3819TIP3   OH211462   3.810   0.850   3.953
 3819TIP3    H111463   3.787   0.808   3.868
 3819TIP3    H211464   3.778   0.941   3.934
 3820TIP3   OH211465   3.289   0.618   5.833
 3820TIP3    H111466   3.282   0.549   5.758
 3820TIP3    H211467   3.245   0.691   5.784
 3821TIP3   OH211468   3.257   0.459   5.618
 3821TIP3    H111469   3.303   0.436   5.534
 3821TIP3    H211470   3.166   0.424   5.596
 3822TIP3   OH211471   3.309   0.910   5.488
 3822TIP3    H111472   3.387   0.901   5.433
 3822TIP3    H211473   3.252   0.971   5.435
 3823TIP3   OH211474   3.891   0.877   5.853
 3823TIP3    H111475   3.926   0.802   5.906
 3823TIP3    H211476   3.972   0.913   5.815
 3824TIP3   OH211477   3.931   1.129   5.600
 3824TIP3    H111478   3.874   1.185   5.542
 3824TIP3    H211479   4.018   1.147   5.559
 3825TIP3   OH211480   3.092   0.710   6.019
 3825TIP3    H111481   3.057   0.623   6.002
 3825TIP3    H211482   3.175   0.709   5.971
 3826TIP3   OH211483   3.553   0.656   5.890
 3826TIP3    H111484   3.552   0.600   5.969
 3826TIP3    H211485   3.459   0.653   5.865
 3827TIP3   OH211486   3.795   0.579   5.764
 3827TIP3    H111487   3.707   0.603   5.798
 3827TIP3    H211488   3.824   0.518   5.835
 3828TIP3   OH211489   2.802   1.584   4.195
 3828TIP3    H111490   2.896   1.575   4.172
 3828TIP3    H211491   2.771   1.636   4.118
 3829TIP3   OH211492   2.278   0.967   4.404
 3829TIP3    H111493   2.373   0.987   4.392
 3829TIP3    H211494   2.271   0.878   4.362
 3830TIP3   OH211495   2.193   1.576   4.827
 3830TIP3    H111496   2.128   1.515   4.786
 3830TIP3    H211497   2.239   1.515   4.889
 3831TIP3   OH211498   2.328   1.420   5.010
 3831TIP3    H111499   2.316   1.351   5.078
 3831TIP3    H211500   2.381   1.484   5.061
 3832TIP3   OH211501   4.061   1.822   4.812
 3832TIP3    H111502   4.085   1.857   4.900
 3832TIP3    H211503   4.122   1.869   4.754
 3833TIP3   OH211504   4.087   1.846   5.095
 3833TIP3    H111505   4.038   1.762   5.087
 3833TIP3    H211506   4.157   1.818   5.156
 3834TIP3   OH211507   4.134   1.526   5.667
 3834TIP3    H111508   4.061   1.535   5.731
 3834TIP3    H211509   4.176   1.614   5.671
 3835TIP3   OH211510   3.952   1.036   4.281
 3835TIP3    H111511   4.017   1.103   4.253
 3835TIP3    H211512   3.995   0.999   4.362
 3836TIP3   OH211513   4.077   0.908   4.488
 3836TIP3    H111514   4.009   0.868   4.548
 3836TIP3    H211515   4.142   0.943   4.552
 3837TIP3   OH211516   4.135   1.301   4.921
 3837TIP3    H111517   4.187   1.232   4.875
 3837TIP3    H211518   4.129   1.371   4.852
 3838TIP3   OH211519   3.958   1.599   5.112
 3838TIP3    H111520   3.886   1.639   5.164
 3838TIP3    H211521   3.909   1.552   5.041
 3839TIP3   OH211522   4.013   0.812   4.133
 3839TIP3    H111523   3.940   0.815   4.067
 3839TIP3    H211524   3.988   0.888   4.189
 3840TIP3   OH211525   3.899   0.490   4.070
 3840TIP3    H111526   3.839   0.537   4.011
 3840TIP3    H211527   3.859   0.400   4.072
 3841TIP3   OH211528   3.887   0.772   4.632
 3841TIP3    H111529   3.889   0.675   4.622
 3841TIP3    H211530   3.871   0.783   4.728
 3842TIP3   OH211531   2.512   0.838   5.382
 3842TIP3    H111532   2.510   0.801   5.291
 3842TIP3    H211533   2.609   0.840   5.398
 3843TIP3   OH211534   4.173   1.196   5.491
 3843TIP3    H111535   4.244   1.128   5.478
 3843TIP3    H211536   4.193   1.260   5.421
 3844TIP3   OH211537   4.354   1.001   5.495
 3844TIP3    H111538   4.280   0.952   5.538
 3844TIP3    H211539   4.423   0.932   5.503
 3845TIP3   OH211540   3.806   0.235   4.134
 3845TIP3    H111541   3.824   0.244   4.229
 3845TIP3    H211542   3.715   0.203   4.138
 3846TIP3   OH211543   3.882   0.501   4.528
 3846TIP3    H111544   3.894   0.405   4.521
 3846TIP3    H211545   3.945   0.532   4.460
 3847TIP3   OH211546   4.040   0.651   5.022
 3847TIP3    H111547   4.127   0.675   4.982
 3847TIP3    H211548   4.051   0.691   5.110
 3848TIP3   OH211549   4.094   0.811   5.253
 3848TIP3    H111550   4.016   0.849   5.298
 3848TIP3    H211551   4.131   0.889   5.207
 3849TIP3   OH211552   2.689   0.220   5.385
 3849TIP3    H111553   2.763   0.161   5.361
 3849TIP3    H211554   2.738   0.304   5.389
 3850TIP3   OH211555   2.493   0.485   5.452
 3850TIP3    H111556   2.544   0.486   5.369
 3850TIP3    H211557   2.524   0.565   5.495
 3851TIP3   OH211558   3.640   1.696   4.465
 3851TIP3    H111559   3.693   1.686   4.384
 3851TIP3    H211560   3.691   1.764   4.513
 3852TIP3   OH211561   2.741   1.510   5.852
 3852TIP3    H111562   2.652   1.476   5.831
 3852TIP3    H211563   2.737   1.508   5.950
 3853TIP3   OH211564   2.921   1.537   5.399
 3853TIP3    H111565   2.873   1.613   5.360
 3853TIP3    H211566   3.007   1.550   5.352
 3854TIP3   OH211567   3.357   1.776   5.534
 3854TIP3    H111568   3.400   1.775   5.622
 3854TIP3    H211569   3.423   1.828   5.482
 3855TIP3   OH211570   3.537   1.932   5.398
 3855TIP3    H111571   3.605   1.880   5.352
 3855TIP3    H211572   3.592   1.988   5.457
 3856TIP3   OH211573   2.595   1.791   5.422
 3856TIP3    H111574   2.504   1.821   5.400
 3856TIP3    H211575   2.608   1.836   5.506
 3857TIP3   OH211576   2.831   1.771   5.282
 3857TIP3    H111577   2.743   1.782   5.325
 3857TIP3    H211578   2.811   1.801   5.191
 3858TIP3   OH211579   3.255   1.793   5.079
 3858TIP3    H111580   3.185   1.810   5.014
 3858TIP3    H211581   3.266   1.882   5.119
 3859TIP3   OH211582   3.524   1.736   5.134
 3859TIP3    H111583   3.430   1.750   5.112
 3859TIP3    H211584   3.567   1.806   5.083
 3860TIP3   OH211585   3.731   1.925   5.042
 3860TIP3    H111586   3.716   2.009   4.994
 3860TIP3    H211587   3.756   1.865   4.969
 3861TIP3   OH211588   2.503   1.581   5.167
 3861TIP3    H111589   2.532   1.552   5.256
 3861TIP3    H211590   2.576   1.541   5.114
 3862TIP3   OH211591   2.701   1.458   5.027
 3862TIP3    H111592   2.715   1.372   5.075
 3862TIP3    H211593   2.793   1.492   5.024
 3863TIP3   OH211594   2.970   1.546   5.031
 3863TIP3    H111595   2.997   1.452   5.022
 3863TIP3    H211596   3.019   1.568   5.113
 3864TIP3   OH211597   2.291   1.362   4.551
 3864TIP3    H111598   2.205   1.329   4.519
 3864TIP3    H211599   2.284   1.454   4.520
 3865TIP3   OH211600   3.067   1.535   4.140
 3865TIP3    H111601   3.154   1.560   4.101
 3865TIP3    H211602   3.044   1.461   4.079
 3866TIP3   OH211603   3.788   1.664   4.233
 3866TIP3    H111604   3.780   1.566   4.221
 3866TIP3    H211605   3.741   1.696   4.153
 3867TIP3   OH211606   2.368   1.375   4.192
 3867TIP3    H111607   2.371   1.397   4.286
 3867TIP3    H211608   2.455   1.332   4.177
 3868TIP3   OH211609   4.008   1.804   5.419
 3868TIP3    H111610   3.930   1.774   5.369
 3868TIP3    H211611   3.988   1.900   5.426
 3869TIP3   OH211612   5.279   1.182   4.180
 3869TIP3    H111613   5.246   1.271   4.157
 3869TIP3    H211614   5.204   1.127   4.150
 3870TIP3   OH211615   5.274   1.181   4.572
 3870TIP3    H111616   5.313   1.159   4.658
 3870TIP3    H211617   5.236   1.096   4.546
 3871TIP3   OH211618   4.571   1.072   4.929
 3871TIP3    H111619   4.601   1.005   4.995
 3871TIP3    H211620   4.654   1.121   4.915
 3872TIP3   OH211621   5.524   1.485   4.251
 3872TIP3    H111622   5.508   1.416   4.318
 3872TIP3    H211623   5.554   1.560   4.305
 3873TIP3   OH211624   4.553   1.485   4.655
 3873TIP3    H111625   4.542   1.388   4.655
 3873TIP3    H211626   4.650   1.492   4.643
 3874TIP3   OH211627   4.254   0.702   4.431
 3874TIP3    H111628   4.197   0.779   4.449
 3874TIP3    H211629   4.188   0.637   4.403
 3875TIP3   OH211630   4.312   0.974   4.620
 3875TIP3    H111631   4.363   0.896   4.652
 3875TIP3    H211632   4.371   1.009   4.553
 3876TIP3   OH211633   5.177   1.943   4.267
 3876TIP3    H111634   5.216   1.871   4.213
 3876TIP3    H211635   5.166   1.899   4.352
 3877TIP3   OH211636   5.074   1.405   4.614
 3877TIP3    H111637   5.115   1.327   4.572
 3877TIP3    H211638   5.155   1.453   4.639
 3878TIP3   OH211639   6.080   0.724   4.583
 3878TIP3    H111640   6.123   0.798   4.629
 3878TIP3    H211641   6.108   0.741   4.492
 3879TIP3   OH211642   5.484   0.901   4.649
 3879TIP3    H111643   5.520   0.817   4.680
 3879TIP3    H211644   5.454   0.879   4.559
 3880TIP3   OH211645   4.833   0.571   4.618
 3880TIP3    H111646   4.802   0.624   4.542
 3880TIP3    H211647   4.825   0.479   4.585
 3881TIP3   OH211648   5.521   0.649   4.242
 3881TIP3    H111649   5.593   0.636   4.308
 3881TIP3    H211650   5.570   0.694   4.171
 3882TIP3   OH211651   4.462   0.766   4.718
 3882TIP3    H111652   4.547   0.751   4.764
 3882TIP3    H211653   4.474   0.708   4.640
 3883TIP3   OH211654   4.896   0.963   4.518
 3883TIP3    H111655   4.991   0.941   4.529
 3883TIP3    H211656   4.859   0.878   4.486
 3884TIP3   OH211657   6.149   0.928   4.762
 3884TIP3    H111658   6.062   0.968   4.739
 3884TIP3    H211659   6.123   0.879   4.842
 3885TIP3   OH211660   4.826   0.546   5.051
 3885TIP3    H111661   4.772   0.558   4.972
 3885TIP3    H211662   4.764   0.574   5.121
 3886TIP3   OH211663   5.164   1.399   4.051
 3886TIP3    H111664   5.124   1.385   3.964
 3886TIP3    H211665   5.119   1.481   4.080
 3887TIP3   OH211666   4.929   1.325   4.835
 3887TIP3    H111667   4.869   1.395   4.870
 3887TIP3    H211668   4.974   1.372   4.762
 3888TIP3   OH211669   5.720   0.654   4.426
 3888TIP3    H111670   5.734   0.595   4.501
 3888TIP3    H211671   5.775   0.732   4.450
 3889TIP3   OH211672   4.694   0.669   4.832
 3889TIP3    H111673   4.759   0.738   4.858
 3889TIP3    H211674   4.744   0.627   4.758
 3890TIP3   OH211675   4.760   1.523   4.938
 3890TIP3    H111676   4.733   1.608   4.900
 3890TIP3    H211677   4.681   1.503   4.993
 3891TIP3   OH211678   4.148   1.211   4.173
 3891TIP3    H111679   4.106   1.238   4.089
 3891TIP3    H211680   4.178   1.297   4.208
 3892TIP3   OH211681   5.585   1.725   4.409
 3892TIP3    H111682   5.496   1.718   4.449
 3892TIP3    H211683   5.579   1.813   4.366
 3893TIP3   OH211684   5.286   1.770   4.081
 3893TIP3    H111685   5.338   1.688   4.064
 3893TIP3    H211686   5.348   1.836   4.042
 3894TIP3   OH211687   5.432   1.554   4.000
 3894TIP3    H111688   5.393   1.472   3.968
 3894TIP3    H211689   5.473   1.524   4.084
 3895TIP3   OH211690   5.802   1.633   4.753
 3895TIP3    H111691   5.795   1.557   4.692
 3895TIP3    H211692   5.789   1.709   4.693
 3896TIP3   OH211693   5.109   1.029   4.020
 3896TIP3    H111694   5.028   1.080   4.000
 3896TIP3    H211695   5.154   1.027   3.934
 3897TIP3   OH211696   5.064   0.823   3.724
 3897TIP3    H111697   5.132   0.867   3.778
 3897TIP3    H211698   5.119   0.761   3.674
 3898TIP3   OH211699   6.011   1.275   4.605
 3898TIP3    H111700   5.928   1.327   4.610
 3898TIP3    H211701   6.041   1.300   4.515
 3899TIP3   OH211702   5.455   1.115   3.984
 3899TIP3    H111703   5.400   1.139   4.062
 3899TIP3    H211704   5.540   1.092   4.028
 3900TIP3   OH211705   5.682   1.166   4.879
 3900TIP3    H111706   5.672   1.245   4.935
 3900TIP3    H211707   5.594   1.165   4.835
 3901TIP3   OH211708   4.689   1.109   4.404
 3901TIP3    H111709   4.647   1.050   4.338
 3901TIP3    H211710   4.764   1.054   4.436
 3902TIP3   OH211711   4.817   1.522   4.549
 3902TIP3    H111712   4.799   1.488   4.460
 3902TIP3    H211713   4.906   1.484   4.568
 3903TIP3   OH211714   4.817   1.084   4.758
 3903TIP3    H111715   4.852   1.056   4.671
 3903TIP3    H211716   4.865   1.169   4.774
 3904TIP3   OH211717   5.348   1.721   4.537
 3904TIP3    H111718   5.335   1.799   4.593
 3904TIP3    H211719   5.333   1.647   4.599
 3905TIP3   OH211720   4.961   1.642   5.082
 3905TIP3    H111721   4.897   1.699   5.129
 3905TIP3    H211722   4.900   1.585   5.031
 3906TIP3   OH211723   5.296   0.967   3.815
 3906TIP3    H111724   5.355   1.028   3.866
 3906TIP3    H211725   5.322   0.989   3.722
 3907TIP3   OH211726   4.716   1.193   5.190
 3907TIP3    H111727   4.721   1.281   5.232
 3907TIP3    H211728   4.621   1.173   5.202
 3908TIP3   OH211729   5.041   1.646   4.088
 3908TIP3    H111730   5.124   1.697   4.095
 3908TIP3    H211731   4.981   1.709   4.046
 3909TIP3   OH211732   4.751   1.809   5.171
 3909TIP3    H111733   4.720   1.801   5.079
 3909TIP3    H211734   4.671   1.783   5.222
 3910TIP3   OH211735   4.554   0.954   4.209
 3910TIP3    H111736   4.483   0.997   4.156
 3910TIP3    H211737   4.521   0.864   4.217
 3911TIP3   OH211738   5.613   1.576   3.413
 3911TIP3    H111739   5.619   1.673   3.398
 3911TIP3    H211740   5.705   1.548   3.397
 3912TIP3   OH211741   4.336   1.340   5.115
 3912TIP3    H111742   4.267   1.320   5.049
 3912TIP3    H211743   4.373   1.252   5.136
 3913TIP3   OH211744   4.188   1.530   4.746
 3913TIP3    H111745   4.284   1.527   4.739
 3913TIP3    H211746   4.174   1.609   4.800
 3914TIP3   OH211747   6.031   2.008   4.783
 3914TIP3    H111748   6.067   1.922   4.810
 3914TIP3    H211749   5.953   2.015   4.842
 3915TIP3   OH211750   5.159   1.771   4.941
 3915TIP3    H111751   5.150   1.862   4.975
 3915TIP3    H211752   5.088   1.725   4.992
 3916TIP3   OH211753   4.925   1.893   3.894
 3916TIP3    H111754   4.876   1.875   3.811
 3916TIP3    H211755   4.890   1.979   3.921
 3917TIP3   OH211756   4.360   1.741   4.277
 3917TIP3    H111757   4.405   1.732   4.364
 3917TIP3    H211758   4.309   1.659   4.274
 3918TIP3   OH211759   5.122   1.798   3.529
 3918TIP3    H111760   5.180   1.726   3.494
 3918TIP3    H211761   5.158   1.808   3.620
 3919TIP3   OH211762   5.176   1.848   3.797
 3919TIP3    H111763   5.087   1.856   3.840
 3919TIP3    H211764   5.228   1.810   3.870
 3920TIP3   OH211765   5.905   1.122   5.081
 3920TIP3    H111766   5.839   1.164   5.024
 3920TIP3    H211767   5.975   1.099   5.018
 3921TIP3   OH211768   4.541   1.524   5.103
 3921TIP3    H111769   4.590   1.502   5.185
 3921TIP3    H211770   4.466   1.460   5.108
 3922TIP3   OH211771   5.714   0.902   4.960
 3922TIP3    H111772   5.657   0.896   5.040
 3922TIP3    H211773   5.700   0.995   4.933
 3923TIP3   OH211774   5.369   1.007   3.556
 3923TIP3    H111775   5.337   0.986   3.467
 3923TIP3    H211776   5.453   1.052   3.535
 3924TIP3   OH211777   4.872   0.866   4.911
 3924TIP3    H111778   4.817   0.884   4.990
 3924TIP3    H211779   4.852   0.945   4.856
 3925TIP3   OH211780   4.750   0.744   4.422
 3925TIP3    H111781   4.657   0.717   4.438
 3925TIP3    H211782   4.765   0.704   4.333
 3926TIP3   OH211783   5.248   0.827   4.154
 3926TIP3    H111784   5.196   0.898   4.110
 3926TIP3    H211785   5.297   0.789   4.079
 3927TIP3   OH211786   5.414   1.129   5.219
 3927TIP3    H111787   5.396   1.057   5.283
 3927TIP3    H211788   5.505   1.151   5.241
 3928TIP3   OH211789   5.404   0.854   4.389
 3928TIP3    H111790   5.341   0.880   4.319
 3928TIP3    H211791   5.438   0.772   4.347
 3929TIP3   OH211792   4.694   0.906   5.114
 3929TIP3    H111793   4.718   0.973   5.179
 3929TIP3    H211794   4.686   0.826   5.170
 3930TIP3   OH211795   4.789   0.466   3.842
 3930TIP3    H111796   4.773   0.441   3.935
 3930TIP3    H211797   4.698   0.482   3.813
 3931TIP3   OH211798   4.310   0.421   4.653
 3931TIP3    H111799   4.346   0.464   4.732
 3931TIP3    H211800   4.331   0.330   4.670
 3932TIP3   OH211801   4.287   0.414   4.246
 3932TIP3    H111802   4.302   0.457   4.159
 3932TIP3    H211803   4.207   0.462   4.273
 3933TIP3   OH211804   5.410   1.109   4.802
 3933TIP3    H111805   5.442   1.035   4.744
 3933TIP3    H211806   5.377   1.057   4.878
 3934TIP3   OH211807   5.089   0.593   4.502
 3934TIP3    H111808   5.005   0.585   4.552
 3934TIP3    H211809   5.153   0.576   4.574
 3935TIP3   OH211810   4.508   0.626   4.480
 3935TIP3    H111811   4.416   0.655   4.457
 3935TIP3    H211812   4.496   0.531   4.475
 3936TIP3   OH211813   4.787   0.615   4.184
 3936TIP3    H111814   4.883   0.635   4.175
 3936TIP3    H211815   4.747   0.655   4.104
 3937TIP3   OH211816   4.630   0.690   3.969
 3937TIP3    H111817   4.563   0.640   3.919
 3937TIP3    H211818   4.690   0.714   3.895
 3938TIP3   OH211819   5.748   2.334   4.911
 3938TIP3    H111820   5.748   2.357   4.816
 3938TIP3    H211821   5.831   2.377   4.940
 3939TIP3   OH211822   4.702   1.444   5.325
 3939TIP3    H111823   4.782   1.468   5.375
 3939TIP3    H211824   4.637   1.438   5.398
 3940TIP3   OH211825   5.163   0.902   4.584
 3940TIP3    H111826   5.221   0.848   4.529
 3940TIP3    H211827   5.162   0.851   4.667
 3941TIP3   OH211828   5.138   0.800   4.882
 3941TIP3    H111829   5.049   0.841   4.888
 3941TIP3    H211830   5.196   0.867   4.924
 3942TIP3   OH211831   4.878   1.181   3.964
 3942TIP3    H111832   4.804   1.117   3.952
 3942TIP3    H211833   4.857   1.215   4.055
 3943TIP3   OH211834   5.776   1.415   4.588
 3943TIP3    H111835   5.802   1.466   4.508
 3943TIP3    H211836   5.691   1.374   4.561
 3944TIP3   OH211837   5.316   0.535   3.764
 3944TIP3    H111838   5.265   0.476   3.821
 3944TIP3    H211839   5.351   0.599   3.829
 3945TIP3   OH211840   5.271   1.497   4.966
 3945TIP3    H111841   5.316   1.484   5.050
 3945TIP3    H211842   5.240   1.589   4.971
 3946TIP3   OH211843   5.409   0.738   3.929
 3946TIP3    H111844   5.504   0.752   3.949
 3946TIP3    H211845   5.385   0.820   3.882
 3947TIP3   OH211846   4.572   1.210   4.637
 3947TIP3    H111847   4.611   1.180   4.552
 3947TIP3    H211848   4.616   1.150   4.700
 3948TIP3   OH211849   5.022   1.332   3.787
 3948TIP3    H111850   4.973   1.417   3.792
 3948TIP3    H211851   4.969   1.276   3.848
 3949TIP3   OH211852   4.454   1.125   5.253
 3949TIP3    H111853   4.468   1.110   5.348
 3949TIP3    H211854   4.384   1.061   5.233
 3950TIP3   OH211855   5.170   1.249   5.273
 3950TIP3    H111856   5.108   1.187   5.231
 3950TIP3    H211857   5.256   1.217   5.240
 3951TIP3   OH211858   5.431   1.764   4.865
 3951TIP3    H111859   5.335   1.764   4.876
 3951TIP3    H211860   5.459   1.819   4.941
 3952TIP3   OH211861   5.844   0.835   3.770
 3952TIP3    H111862   5.789   0.790   3.702
 3952TIP3    H211863   5.842   0.925   3.730
 3953TIP3   OH211864   6.052   1.687   4.844
 3953TIP3    H111865   5.954   1.685   4.834
 3953TIP3    H211866   6.080   1.668   4.751
 3954TIP3   OH211867   5.548   1.654   3.678
 3954TIP3    H111868   5.521   1.585   3.740
 3954TIP3    H211869   5.561   1.605   3.595
 3955TIP3   OH211870   5.540   1.283   4.505
 3955TIP3    H111871   5.447   1.258   4.519
 3955TIP3    H211872   5.574   1.202   4.463
 3956TIP3   OH211873   4.674   1.513   4.269
 3956TIP3    H111874   4.670   1.593   4.214
 3956TIP3    H211875   4.580   1.492   4.280
 3957TIP3   OH211876   4.236   0.815   3.971
 3957TIP3    H111877   4.281   0.899   3.994
 3957TIP3    H211878   4.159   0.819   4.032
 3958TIP3   OH211879   4.800   1.274   4.206
 3958TIP3    H111880   4.769   1.364   4.228
 3958TIP3    H211881   4.766   1.223   4.282
 3959TIP3   OH211882   4.944   1.851   4.735
 3959TIP3    H111883   4.984   1.923   4.683
 3959TIP3    H211884   5.023   1.813   4.777
 3960TIP3   OH211885   4.589   1.747   4.119
 3960TIP3    H111886   4.503   1.757   4.164
 3960TIP3    H211887   4.622   1.840   4.122
 3961TIP3   OH211888   5.325   1.491   4.697
 3961TIP3    H111889   5.314   1.485   4.794
 3961TIP3    H211890   5.404   1.437   4.683
 3962TIP3   OH211891   5.306   1.384   3.579
 3962TIP3    H111892   5.361   1.358   3.657
 3962TIP3    H211893   5.219   1.354   3.609
 3963TIP3   OH211894   5.575   2.019   4.742
 3963TIP3    H111895   5.494   1.966   4.734
 3963TIP3    H211896   5.561   2.085   4.670
 3964TIP3   OH211897   5.642   1.853   3.395
 3964TIP3    H111898   5.677   1.926   3.343
 3964TIP3    H211899   5.562   1.896   3.432
 3965TIP3   OH211900   4.697   0.681   5.269
 3965TIP3    H111901   4.622   0.618   5.258
 3965TIP3    H211902   4.747   0.638   5.340
 3966TIP3   OH211903   5.467   1.312   3.789
 3966TIP3    H111904   5.457   1.246   3.861
 3966TIP3    H211905   5.565   1.310   3.778
 3967TIP3   OH211906   4.381   1.712   4.890
 3967TIP3    H111907   4.433   1.637   4.923
 3967TIP3    H211908   4.407   1.781   4.953
 3968TIP3   OH211909   4.668   1.359   3.577
 3968TIP3    H111910   4.680   1.265   3.554
 3968TIP3    H211911   4.647   1.352   3.673
 3969TIP3   OH211912   4.611   1.366   3.848
 3969TIP3    H111913   4.684   1.337   3.905
 3969TIP3    H211914   4.614   1.463   3.859
 3970TIP3   OH211915   4.344   1.056   4.055
 3970TIP3    H111916   4.278   1.102   4.111
 3970TIP3    H211917   4.359   1.125   3.987
 3971TIP3   OH211918   4.228   6.927   3.659
 3971TIP3    H111919   4.310   6.975   3.679
 3971TIP3    H211920   4.242   6.848   3.712
 3972TIP3   OH211921   5.373   0.472   4.070
 3972TIP3    H111922   5.434   0.493   3.999
 3972TIP3    H211923   5.401   0.536   4.138
 3973TIP3   OH211924   4.881   1.562   3.797
 3973TIP3    H111925   4.793   1.585   3.833
 3973TIP3    H211926   4.897   1.640   3.741
 3974TIP3   OH211927   5.058   0.628   4.228
 3974TIP3    H111928   5.129   0.692   4.207
 3974TIP3    H211929   5.074   0.614   4.324
 3975TIP3   OH211930   5.333   0.953   5.010
 3975TIP3    H111931   5.354   1.013   5.083
 3975TIP3    H211932   5.394   0.879   5.029
 3976TIP3   OH211933   4.626   1.637   3.869
 3976TIP3    H111934   4.598   1.708   3.807
 3976TIP3    H211935   4.610   1.680   3.955
 3977TIP3   OH211936   4.704   0.371   4.093
 3977TIP3    H111937   4.732   0.451   4.143
 3977TIP3    H211938   4.770   0.304   4.120
 3978TIP3   OH211939   5.986   0.837   4.960
 3978TIP3    H111940   5.896   0.872   4.973
 3978TIP3    H211941   5.967   0.757   4.909
 3979TIP3   OH211942   5.624   1.039   4.390
 3979TIP3    H111943   5.548   0.979   4.401
 3979TIP3    H211944   5.696   0.991   4.436
 3980TIP3   OH211945   4.344   1.261   3.858
 3980TIP3    H111946   4.415   1.327   3.865
 3980TIP3    H211947   4.386   1.201   3.791
 3981TIP3   OH211948   4.281   0.546   4.007
 3981TIP3    H111949   4.291   0.643   4.008
 3981TIP3    H211950   4.205   0.537   3.949
 3982TIP3   OH211951   5.598   1.996   4.335
 3982TIP3    H111952   5.556   2.043   4.259
 3982TIP3    H211953   5.693   2.016   4.316
 3983TIP3   OH211954   4.207   1.481   4.242
 3983TIP3    H111955   4.146   1.511   4.310
 3983TIP3    H211956   4.172   1.526   4.162
 3984TIP3   OH211957   4.374   2.031   5.308
 3984TIP3    H111958   4.460   2.029   5.355
 3984TIP3    H211959   4.348   1.937   5.311
 3985TIP3   OH211960   4.902   2.002   5.290
 3985TIP3    H111961   4.966   1.945   5.338
 3985TIP3    H211962   4.842   1.931   5.256
 3986TIP3   OH211963   4.829   1.561   3.484
 3986TIP3    H111964   4.775   1.490   3.525
 3986TIP3    H211965   4.906   1.510   3.454
 3987TIP3   OH211966   5.481   1.903   5.099
 3987TIP3    H111967   5.477   1.829   5.163
 3987TIP3    H211968   5.563   1.949   5.125
 3988TIP3   OH211969   5.265   1.599   3.402
 3988TIP3    H111970   5.305   1.534   3.463
 3988TIP3    H211971   5.324   1.595   3.325
 3989TIP3   OH211972   4.499   1.433   5.515
 3989TIP3    H111973   4.513   1.338   5.527
 3989TIP3    H211974   4.412   1.435   5.470
 3990TIP3   OH211975   4.480   1.073   3.714
 3990TIP3    H111976   4.536   1.045   3.788
 3990TIP3    H211977   4.548   1.080   3.643
 3991TIP3   OH211978   5.106   1.522   5.291
 3991TIP3    H111979   5.066   1.538   5.203
 3991TIP3    H211980   5.137   1.429   5.282
 3992TIP3   OH211981   4.997   1.278   3.519
 3992TIP3    H111982   4.996   1.292   3.616
 3992TIP3    H211983   4.995   1.180   3.514
 3993TIP3   OH211984   5.588   1.535   4.892
 3993TIP3    H111985   5.665   1.574   4.846
 3993TIP3    H211986   5.523   1.607   4.879
 3994TIP3   OH211987   4.627   1.167   5.498
 3994TIP3    H111988   4.707   1.123   5.469
 3994TIP3    H211989   4.653   1.197   5.588
 3995TIP3   OH211990   4.678   0.991   3.928
 3995TIP3    H111991   4.651   0.948   4.011
 3995TIP3    H211992   4.718   0.917   3.879
 3996TIP3   OH211993   4.960   1.070   5.167
 3996TIP3    H111994   4.877   1.121   5.164
 3996TIP3    H211995   5.002   1.093   5.081
 3997TIP3   OH211996   4.790   0.792   3.772
 3997TIP3    H111997   4.764   0.794   3.677
 3997TIP3    H211998   4.887   0.790   3.765
 3998TIP3   OH211999   5.469   1.459   5.284
 3998TIP3    H112000   5.553   1.431   5.247
 3998TIP3    H212001   5.461   1.401   5.363
 3999TIP3   OH212002   5.602   1.105   3.441
 3999TIP3    H112003   5.585   1.064   3.354
 3999TIP3    H212004   5.572   1.197   3.421
 4000TIP3   OH212005   5.071   0.874   5.309
 4000TIP3    H112006   5.060   0.795   5.251
 4000TIP3    H212007   5.030   0.943   5.252
 4001TIP3   OH212008   5.052   0.685   5.123
 4001TIP3    H112009   5.084   0.717   5.037
 4001TIP3    H212010   4.964   0.647   5.101
 4002TIP3   OH212011   5.104   1.158   4.959
 4002TIP3    H112012   5.191   1.177   4.922
 4002TIP3    H212013   5.048   1.226   4.915
 4003TIP3   OH212014   5.721   1.378   5.063
 4003TIP3    H112015   5.664   1.437   5.008
 4003TIP3    H212016   5.808   1.392   5.020
 4004TIP3   OH212017   4.948   1.004   5.517
 4004TIP3    H112018   4.874   0.941   5.529
 4004TIP3    H212019   4.993   0.963   5.440
 4005TIP3   OH212020   5.337   0.904   5.346
 4005TIP3    H112021   5.321   0.911   5.443
 4005TIP3    H212022   5.243   0.891   5.321
 4006TIP3   OH212023   5.539   0.850   5.168
 4006TIP3    H112024   5.467   0.867   5.232
 4006TIP3    H212025   5.600   0.798   5.223
 4007TIP3   OH212026   4.758   0.812   5.549
 4007TIP3    H112027   4.800   0.731   5.514
 4007TIP3    H212028   4.766   0.798   5.644
 4008TIP3   OH212029   4.598   1.839   3.680
 4008TIP3    H112030   4.693   1.831   3.659
 4008TIP3    H212031   4.568   1.893   3.604
 4009TIP3   OH212032   4.074   1.225   3.890
 4009TIP3    H112033   4.170   1.245   3.879
 4009TIP3    H212034   4.069   1.136   3.849
 4010TIP3   OH212035   3.992   1.832   4.312
 4010TIP3    H112036   3.925   1.772   4.272
 4010TIP3    H212037   4.036   1.771   4.375
 4011TIP3   OH212038   4.125   1.676   4.497
 4011TIP3    H112039   4.112   1.608   4.565
 4011TIP3    H212040   4.177   1.741   4.548
 4012TIP3   OH212041   5.852   2.082   4.295
 4012TIP3    H112042   5.877   2.105   4.387
 4012TIP3    H212043   5.918   2.131   4.243
 4013TIP3   OH212044   5.876   2.097   4.570
 4013TIP3    H112045   5.836   2.008   4.571
 4013TIP3    H212046   5.946   2.082   4.638
 4014TIP3   OH212047   5.930   1.779   5.157
 4014TIP3    H112048   5.851   1.793   5.213
 4014TIP3    H212049   5.965   1.870   5.150
 4015TIP3   OH212050   5.745   1.295   3.767
 4015TIP3    H112051   5.813   1.360   3.739
 4015TIP3    H212052   5.789   1.256   3.846
 4016TIP3   OH212053   5.871   1.163   3.970
 4016TIP3    H112054   5.806   1.124   4.033
 4016TIP3    H212055   5.941   1.197   4.031
 4017TIP3   OH212056   5.931   1.557   4.407
 4017TIP3    H112057   5.982   1.489   4.359
 4017TIP3    H212058   5.929   1.631   4.343
 4018TIP3   OH212059   5.750   1.852   4.596
 4018TIP3    H112060   5.680   1.897   4.647
 4018TIP3    H212061   5.698   1.807   4.525
 4019TIP3   OH212062   5.807   1.069   3.621
 4019TIP3    H112063   5.735   1.072   3.554
 4019TIP3    H212064   5.782   1.146   3.676
 4020TIP3   OH212065   5.689   0.750   3.562
 4020TIP3    H112066   5.639   0.791   3.491
 4020TIP3    H212067   5.650   0.659   3.563
 4021TIP3   OH212068   5.681   1.029   4.119
 4021TIP3    H112069   5.686   0.932   4.109
 4021TIP3    H212070   5.666   1.039   4.216
 4022TIP3   OH212071   4.307   1.093   4.869
 4022TIP3    H112072   4.304   1.057   4.778
 4022TIP3    H212073   4.405   1.093   4.884
 4023TIP3   OH212074   5.971   1.418   4.955
 4023TIP3    H112075   6.046   1.356   4.954
 4023TIP3    H212076   6.001   1.487   4.893
 4024TIP3   OH212077   5.592   0.498   3.613
 4024TIP3    H112078   5.628   0.488   3.702
 4024TIP3    H212079   5.503   0.461   3.626
 4025TIP3   OH212080   5.679   0.758   4.016
 4025TIP3    H112081   5.690   0.661   4.006
 4025TIP3    H212082   5.743   0.790   3.949
 4026TIP3   OH212083   5.837   0.906   4.503
 4026TIP3    H112084   5.924   0.928   4.462
 4026TIP3    H212085   5.852   0.942   4.592
 4027TIP3   OH212086   5.907   1.057   4.729
 4027TIP3    H112087   5.828   1.093   4.774
 4027TIP3    H212088   5.944   1.138   4.688
 4028TIP3   OH212089   4.489   0.770   5.527
 4028TIP3    H112090   4.585   0.782   5.512
 4028TIP3    H212091   4.489   0.736   5.617
 4029TIP3   OH212092   4.482   0.479   4.869
 4029TIP3    H112093   4.556   0.419   4.847
 4029TIP3    H212094   4.531   0.563   4.874
 4030TIP3   OH212095   4.288   0.744   4.938
 4030TIP3    H112096   4.339   0.746   4.855
 4030TIP3    H212097   4.320   0.822   4.984
 4031TIP3   OH212098   5.433   1.953   3.951
 4031TIP3    H112099   5.488   1.942   3.871
 4031TIP3    H212100   5.485   2.015   4.004
 4032TIP3   OH212101   4.534   1.762   5.341
 4032TIP3    H112102   4.441   1.738   5.322
 4032TIP3    H212103   4.544   1.728   5.430
 4033TIP3   OH212104   4.720   1.795   4.889
 4033TIP3    H112105   4.670   1.870   4.848
 4033TIP3    H212106   4.804   1.808   4.840
 4034TIP3   OH212107   5.144   2.044   5.038
 4034TIP3    H112108   5.203   2.029   5.114
 4034TIP3    H212109   5.207   2.087   4.975
 4035TIP3   OH212110   5.329   2.186   4.889
 4035TIP3    H112111   5.396   2.137   4.839
 4035TIP3    H212112   5.385   2.245   4.943
 4036TIP3   OH212113   4.391   2.051   4.912
 4036TIP3    H112114   4.304   2.084   4.879
 4036TIP3    H212115   4.379   2.065   5.006
 4037TIP3   OH212116   4.628   2.029   4.772
 4037TIP3    H112117   4.540   2.042   4.815
 4037TIP3    H212118   4.610   2.059   4.681
 4038TIP3   OH212119   5.051   2.049   4.566
 4038TIP3    H112120   4.982   2.068   4.500
 4038TIP3    H212121   5.062   2.137   4.608
 4039TIP3   OH212122   5.320   1.990   4.622
 4039TIP3    H112123   5.227   2.008   4.599
 4039TIP3    H212124   5.366   2.060   4.572
 4040TIP3   OH212125   5.517   2.178   4.527
 4040TIP3    H112126   5.506   2.263   4.483
 4040TIP3    H212127   5.550   2.121   4.453
 4041TIP3   OH212128   4.302   1.839   4.652
 4041TIP3    H112129   4.328   1.807   4.741
 4041TIP3    H212130   4.375   1.798   4.599
 4042TIP3   OH212131   4.499   1.713   4.513
 4042TIP3    H112132   4.513   1.629   4.562
 4042TIP3    H212133   4.590   1.748   4.510
 4043TIP3   OH212134   4.766   1.802   4.518
 4043TIP3    H112135   4.794   1.709   4.508
 4043TIP3    H212136   4.816   1.825   4.599
 4044TIP3   OH212137   4.088   1.618   4.039
 4044TIP3    H112138   4.002   1.585   4.007
 4044TIP3    H212139   4.080   1.711   4.014
 4045TIP3   OH212140   4.864   1.792   3.627
 4045TIP3    H112141   4.951   1.817   3.589
 4045TIP3    H212142   4.841   1.718   3.567
 4046TIP3   OH212143   5.584   1.920   3.721
 4046TIP3    H112144   5.575   1.822   3.709
 4046TIP3    H212145   5.537   1.952   3.641
 4047TIP3   OH212146   4.164   1.631   3.679
 4047TIP3    H112147   4.169   1.653   3.773
 4047TIP3    H212148   4.251   1.589   3.663
 4048TIP3   OH212149   5.792   2.060   4.912
 4048TIP3    H112150   5.716   2.034   4.856
 4048TIP3    H212151   5.779   2.157   4.914
 4049TIP3   OH212152   6.370   1.366   4.400
 4049TIP3    H112153   6.392   1.310   4.475
 4049TIP3    H212154   6.448   1.424   4.398
 4050TIP3   OH212155   6.315   1.748   4.150
 4050TIP3    H112156   6.318   1.652   4.141
 4050TIP3    H212157   6.409   1.772   4.132
 4051TIP3   OH212158   6.049   0.952   3.921
 4051TIP3    H112159   5.996   1.033   3.936
 4051TIP3    H212160   5.982   0.893   3.884
 4052TIP3   OH212161   6.105   1.225   4.106
 4052TIP3    H112162   6.155   1.144   4.129
 4052TIP3    H212163   6.177   1.283   4.077
 4053TIP3   OH212164   6.274   1.025   4.207
 4053TIP3    H112165   6.364   1.057   4.215
 4053TIP3    H212166   6.284   0.961   4.133
 4054TIP3   OH212167   6.462   1.773   4.532
 4054TIP3    H112168   6.484   1.839   4.463
 4054TIP3    H212169   6.389   1.727   4.492
 4055TIP3   OH212170   5.946   1.466   3.660
 4055TIP3    H112171   5.904   1.495   3.577
 4055TIP3    H212172   5.977   1.551   3.697
 4056TIP3   OH212173   6.473   2.150   4.635
 4056TIP3    H112174   6.471   2.085   4.562
 4056TIP3    H212175   6.434   2.100   4.709
 4057TIP3   OH212176   6.142   1.603   4.603
 4057TIP3    H112177   6.074   1.575   4.538
 4057TIP3    H212178   6.179   1.518   4.636
 4058TIP3   OH212179   5.986   1.787   4.234
 4058TIP3    H112180   6.082   1.786   4.220
 4058TIP3    H212181   5.976   1.865   4.291
 4059TIP3   OH212182   6.137   2.000   3.773
 4059TIP3    H112183   6.192   2.000   3.855
 4059TIP3    H212184   6.081   1.923   3.790
 4060TIP3   OH212185   6.109   0.679   4.149
 4060TIP3    H112186   6.151   0.716   4.229
 4060TIP3    H212187   6.136   0.587   4.156
 4061TIP3   OH212188   6.073   0.661   3.732
 4061TIP3    H112189   6.104   0.692   3.644
 4061TIP3    H212190   6.003   0.726   3.748
 4062TIP3   OH212191   6.296   0.855   3.983
 4062TIP3    H112192   6.219   0.906   3.946
 4062TIP3    H212193   6.251   0.774   4.004
 4063TIP3   OH212194   6.330   1.387   4.113
 4063TIP3    H112195   6.407   1.428   4.072
 4063TIP3    H212196   6.362   1.379   4.205
 4064TIP3   OH212197   6.225   1.379   4.754
 4064TIP3    H112198   6.248   1.350   4.844
 4064TIP3    H212199   6.160   1.312   4.725
 4065TIP3   OH212200   6.401   1.756   3.748
 4065TIP3    H112201   6.395   1.848   3.717
 4065TIP3    H212202   6.310   1.740   3.775
 4066TIP3   OH212203   6.036   1.062   3.468
 4066TIP3    H112204   6.083   1.146   3.489
 4066TIP3    H212205   5.958   1.070   3.527
 4067TIP3   OH212206   6.346   2.006   3.600
 4067TIP3    H112207   6.261   2.002   3.649
 4067TIP3    H212208   6.344   2.097   3.569
 4068TIP3   OH212209   6.161   1.986   4.370
 4068TIP3    H112210   6.240   1.931   4.382
 4068TIP3    H212211   6.176   2.058   4.433
 4069TIP3   OH212212   6.143   1.307   3.533
 4069TIP3    H112213   6.084   1.349   3.599
 4069TIP3    H212214   6.155   1.381   3.470
 4070TIP3   OH212215   6.145   1.522   3.349
 4070TIP3    H112216   6.166   1.616   3.349
 4070TIP3    H212217   6.217   1.485   3.295
 4071TIP3   OH212218   6.084   0.792   3.483
 4071TIP3    H112219   6.082   0.890   3.483
 4071TIP3    H212220   5.999   0.770   3.443
 4072TIP3   OH212221   6.002   1.734   3.732
 4072TIP3    H112222   5.939   1.761   3.799
 4072TIP3    H212223   5.970   1.782   3.653
 4073TIP3   OH212224   6.165   2.273   4.804
 4073TIP3    H112225   6.250   2.264   4.850
 4073TIP3    H212226   6.137   2.180   4.798
 4074TIP3   OH212227   6.642   2.249   4.872
 4074TIP3    H112228   6.714   2.306   4.841
 4074TIP3    H212229   6.600   2.221   4.789
 4075TIP3   OH212230   6.311   1.655   4.901
 4075TIP3    H112231   6.309   1.572   4.948
 4075TIP3    H212232   6.216   1.675   4.895
 4076TIP3   OH212233   5.872   1.482   3.368
 4076TIP3    H112234   5.969   1.495   3.363
 4076TIP3    H212235   5.863   1.390   3.335
 4077TIP3   OH212236   5.784   2.090   3.803
 4077TIP3    H112237   5.720   2.028   3.761
 4077TIP3    H212238   5.831   2.029   3.864
 4078TIP3   OH212239   5.923   1.930   3.982
 4078TIP3    H112240   5.908   1.866   4.054
 4078TIP3    H212241   5.973   1.998   4.031
 4079TIP3   OH212242   6.100   1.344   4.354
 4079TIP3    H112243   6.093   1.305   4.264
 4079TIP3    H212244   6.197   1.356   4.361
 4080TIP3   OH212245   6.297   0.733   4.349
 4080TIP3    H112246   6.372   0.683   4.318
 4080TIP3    H212247   6.340   0.819   4.363
 4081TIP3   OH212248   6.087   0.996   4.420
 4081TIP3    H112249   6.144   0.999   4.341
 4081TIP3    H212250   6.105   1.082   4.460
 4082TIP3   OH212251   6.468   2.001   4.368
 4082TIP3    H112252   6.431   2.083   4.330
 4082TIP3    H212253   6.559   2.011   4.335
 4083TIP3   OH212254   6.188   2.297   4.393
 4083TIP3    H112255   6.099   2.333   4.373
 4083TIP3    H212256   6.205   2.338   4.478
 4084TIP3   OH212257   6.427   2.258   4.262
 4084TIP3    H112258   6.339   2.277   4.302
 4084TIP3    H212259   6.414   2.294   4.171
 4085TIP3   OH212260   6.091   2.100   4.130
 4085TIP3    H112261   6.114   2.072   4.222
 4085TIP3    H212262   6.169   2.064   4.082
 4086TIP3   OH212263   6.292   1.983   3.994
 4086TIP3    H112264   6.315   1.903   4.045
 4086TIP3    H212265   6.381   2.026   3.983
 4087TIP3   OH212266   5.885   1.872   3.526
 4087TIP3    H112267   5.799   1.841   3.493
 4087TIP3    H212268   5.878   1.966   3.501
 4088TIP3   OH212269   5.944   1.896   3.176
 4088TIP3    H112270   5.948   1.919   3.269
 4088TIP3    H212271   6.029   1.847   3.164
 4089TIP3   OH212272   1.322   2.481   4.847
 4089TIP3    H112273   1.289   2.570   4.822
 4089TIP3    H212274   1.250   2.427   4.810
 4090TIP3   OH212275   1.322   2.485   5.237
 4090TIP3    H112276   1.358   2.453   5.322
 4090TIP3    H212277   1.284   2.404   5.199
 4091TIP3   OH212278   0.635   2.397   5.612
 4091TIP3    H112279   0.662   2.316   5.658
 4091TIP3    H212280   0.709   2.409   5.549
 4092TIP3   OH212281   1.568   2.787   4.914
 4092TIP3    H112282   1.551   2.717   4.978
 4092TIP3    H212283   1.602   2.859   4.969
 4093TIP3   OH212284   0.594   2.778   5.355
 4093TIP3    H112285   0.590   2.680   5.343
 4093TIP3    H212286   0.688   2.793   5.331
 4094TIP3   OH212287   0.297   2.003   5.106
 4094TIP3    H112288   0.253   2.083   5.138
 4094TIP3    H212289   0.232   1.937   5.131
 4095TIP3   OH212290   0.371   2.283   5.294
 4095TIP3    H112291   0.418   2.200   5.318
 4095TIP3    H212292   0.409   2.304   5.207
 4096TIP3   OH212293   1.225   3.248   4.932
 4096TIP3    H112294   1.263   3.173   4.882
 4096TIP3    H212295   1.188   3.204   5.009
 4097TIP3   OH212296   1.118   2.704   5.280
 4097TIP3    H112297   1.160   2.629   5.235
 4097TIP3    H212298   1.199   2.754   5.303
 4098TIP3   OH212299   2.137   2.022   5.276
 4098TIP3    H112300   2.166   2.107   5.314
 4098TIP3    H212301   2.162   2.034   5.183
 4099TIP3   OH212302   1.531   2.203   5.308
 4099TIP3    H112303   1.577   2.119   5.326
 4099TIP3    H212304   1.499   2.188   5.217
 4100TIP3   OH212305   0.874   1.868   5.275
 4100TIP3    H112306   0.857   1.941   5.212
 4100TIP3    H212307   0.828   1.796   5.227
 4101TIP3   OH212308   1.567   1.962   4.893
 4101TIP3    H112309   1.639   1.948   4.959
 4101TIP3    H212310   1.619   1.993   4.817
 4102TIP3   OH212311   0.506   2.060   5.386
 4102TIP3    H112312   0.588   2.037   5.432
 4102TIP3    H212313   0.517   2.007   5.304
 4103TIP3   OH212314   0.940   2.264   5.192
 4103TIP3    H112315   1.036   2.243   5.197
 4103TIP3    H212316   0.904   2.182   5.152
 4104TIP3   OH212317   2.212   2.234   5.447
 4104TIP3    H112318   2.126   2.279   5.430
 4104TIP3    H212319   2.236   2.272   5.533
 4105TIP3   OH212320   0.872   1.846   5.710
 4105TIP3    H112321   0.807   1.884   5.648
 4105TIP3    H212322   0.818   1.809   5.780
 4106TIP3   OH212323   1.205   2.695   4.718
 4106TIP3    H112324   1.173   2.684   4.627
 4106TIP3    H212325   1.161   2.779   4.743
 4107TIP3   OH212326   0.969   2.624   5.499
 4107TIP3    H112327   0.911   2.695   5.533
 4107TIP3    H212328   1.015   2.669   5.424
 4108TIP3   OH212329   1.768   1.968   5.074
 4108TIP3    H112330   1.778   1.907   5.148
 4108TIP3    H212331   1.823   2.044   5.103
 4109TIP3   OH212332   0.742   1.960   5.495
 4109TIP3    H112333   0.806   2.033   5.512
 4109TIP3    H212334   0.788   1.919   5.418
 4110TIP3   OH212335   0.805   2.820   5.619
 4110TIP3    H112336   0.782   2.904   5.574
 4110TIP3    H212337   0.728   2.808   5.677
 4111TIP3   OH212338   0.201   2.499   4.821
 4111TIP3    H112339   0.107   2.510   4.804
 4111TIP3    H212340   0.222   2.587   4.860
 4112TIP3   OH212341   1.638   3.031   5.079
 4112TIP3    H112342   1.547   3.019   5.117
 4112TIP3    H212343   1.625   3.113   5.028
 4113TIP3   OH212344   1.928   1.924   5.443
 4113TIP3    H112345   1.841   1.946   5.407
 4113TIP3    H212346   1.989   1.954   5.372
 4114TIP3   OH212347   1.222   1.557   5.426
 4114TIP3    H112348   1.207   1.463   5.449
 4114TIP3    H212349   1.143   1.598   5.469
 4115TIP3   OH212350   1.333   3.071   4.750
 4115TIP3    H112351   1.382   2.988   4.729
 4115TIP3    H212352   1.393   3.136   4.706
 4116TIP3   OH212353   1.476   2.856   4.662
 4116TIP3    H112354   1.456   2.773   4.615
 4116TIP3    H212355   1.514   2.822   4.746
 4117TIP3   OH212356   1.858   2.934   5.423
 4117TIP3    H112357   1.849   2.858   5.361
 4117TIP3    H212358   1.842   3.010   5.363
 4118TIP3   OH212359   1.154   2.333   4.683
 4118TIP3    H112360   1.075   2.385   4.660
 4118TIP3    H212361   1.200   2.326   4.597
 4119TIP3   OH212362   1.115   2.117   4.407
 4119TIP3    H112363   1.186   2.173   4.443
 4119TIP3    H212364   1.168   2.056   4.351
 4120TIP3   OH212365   2.055   2.579   5.272
 4120TIP3    H112366   1.971   2.630   5.272
 4120TIP3    H212367   2.086   2.598   5.181
 4121TIP3   OH212368   1.500   2.417   4.648
 4121TIP3    H112369   1.447   2.441   4.727
 4121TIP3    H212370   1.584   2.390   4.690
 4122TIP3   OH212371   1.734   2.447   5.567
 4122TIP3    H112372   1.733   2.530   5.620
 4122TIP3    H212373   1.648   2.453   5.522
 4123TIP3   OH212374   0.732   2.407   5.069
 4123TIP3    H112375   0.693   2.351   4.999
 4123TIP3    H212376   0.808   2.353   5.099
 4124TIP3   OH212377   0.853   2.805   5.225
 4124TIP3    H112378   0.838   2.781   5.133
 4124TIP3    H212379   0.946   2.778   5.238
 4125TIP3   OH212380   0.852   2.385   5.427
 4125TIP3    H112381   0.888   2.358   5.340
 4125TIP3    H212382   0.900   2.470   5.442
 4126TIP3   OH212383   1.398   3.021   5.201
 4126TIP3    H112384   1.377   3.102   5.251
 4126TIP3    H212385   1.377   2.950   5.263
 4127TIP3   OH212386   1.004   2.931   5.768
 4127TIP3    H112387   0.940   2.997   5.803
 4127TIP3    H212388   0.946   2.882   5.707
 4128TIP3   OH212389   1.335   2.274   4.481
 4128TIP3    H112390   1.397   2.333   4.528
 4128TIP3    H212391   1.360   2.294   4.387
 4129TIP3   OH212392   0.751   2.486   5.863
 4129TIP3    H112393   0.705   2.547   5.923
 4129TIP3    H212394   0.696   2.490   5.783
 4130TIP3   OH212395   1.088   2.946   4.752
 4130TIP3    H112396   1.170   2.999   4.759
 4130TIP3    H212397   1.026   3.008   4.713
 4131TIP3   OH212398   0.795   3.105   5.822
 4131TIP3    H112399   0.781   3.103   5.724
 4131TIP3    H212400   0.710   3.141   5.852
 4132TIP3   OH212401   1.860   1.509   4.528
 4132TIP3    H112402   1.777   1.529   4.576
 4132TIP3    H212403   1.871   1.591   4.476
 4133TIP3   OH212404   0.603   2.255   4.869
 4133TIP3    H112405   0.535   2.300   4.815
 4133TIP3    H212406   0.561   2.170   4.886
 4134TIP3   OH212407   1.672   2.874   4.076
 4134TIP3    H112408   1.677   2.971   4.063
 4134TIP3    H212409   1.764   2.846   4.059
 4135TIP3   OH212410   0.396   2.618   5.760
 4135TIP3    H112411   0.395   2.547   5.695
 4135TIP3    H212412   0.373   2.570   5.843
 4136TIP3   OH212413   0.299   2.804   5.460
 4136TIP3    H112414   0.384   2.794   5.415
 4136TIP3    H212415   0.309   2.892   5.498
 4137TIP3   OH212416   2.099   3.285   5.472
 4137TIP3    H112417   2.098   3.189   5.487
 4137TIP3    H212418   2.014   3.310   5.515
 4138TIP3   OH212419   1.211   3.062   5.618
 4138TIP3    H112420   1.201   3.158   5.637
 4138TIP3    H212421   1.133   3.026   5.664
 4139TIP3   OH212422   0.969   3.196   4.555
 4139TIP3    H112423   0.919   3.178   4.474
 4139TIP3    H212424   0.934   3.282   4.584
 4140TIP3   OH212425   0.414   3.035   4.922
 4140TIP3    H112426   0.472   2.999   4.993
 4140TIP3    H212427   0.326   3.015   4.959
 4141TIP3   OH212428   1.162   3.109   4.193
 4141TIP3    H112429   1.216   3.038   4.153
 4141TIP3    H212430   1.201   3.115   4.282
 4142TIP3   OH212431   1.220   3.151   4.461
 4142TIP3    H112432   1.132   3.157   4.504
 4142TIP3    H212433   1.271   3.107   4.531
 4143TIP3   OH212434   1.979   2.410   5.747
 4143TIP3    H112435   1.905   2.418   5.685
 4143TIP3    H212436   2.003   2.315   5.738
 4144TIP3   OH212437   0.590   2.805   5.812
 4144TIP3    H112438   0.605   2.762   5.897
 4144TIP3    H212439   0.511   2.755   5.781
 4145TIP3   OH212440   0.985   1.645   5.546
 4145TIP3    H112441   0.896   1.612   5.526
 4145TIP3    H212442   0.962   1.728   5.593
 4146TIP3   OH212443   1.517   1.773   5.747
 4146TIP3    H112444   1.591   1.732   5.794
 4146TIP3    H212445   1.438   1.742   5.797
 4147TIP3   OH212446   1.754   2.189   5.666
 4147TIP3    H112447   1.702   2.191   5.749
 4147TIP3    H212448   1.733   2.275   5.625
 4148TIP3   OH212449   1.415   2.318   4.229
 4148TIP3    H112450   1.378   2.291   4.143
 4148TIP3    H212451   1.500   2.357   4.201
 4149TIP3   OH212452   1.122   1.691   4.523
 4149TIP3    H112453   1.093   1.687   4.616
 4149TIP3    H212454   1.096   1.601   4.494
 4150TIP3   OH212455   0.925   2.158   5.559
 4150TIP3    H112456   0.872   2.176   5.639
 4150TIP3    H212457   0.908   2.240   5.508
 4151TIP3   OH212458   0.800   2.049   5.086
 4151TIP3    H112459   0.708   2.021   5.105
 4151TIP3    H212460   0.813   2.007   4.999
 4152TIP3   OH212461   1.288   2.130   4.817
 4152TIP3    H112462   1.239   2.202   4.771
 4152TIP3    H212463   1.345   2.096   4.745
 4153TIP3   OH212464   1.468   2.397   5.899
 4153TIP3    H112465   1.427   2.379   5.983
 4153TIP3    H212466   1.563   2.398   5.921
 4154TIP3   OH212467   1.444   2.157   5.051
 4154TIP3    H112468   1.382   2.182   4.979
 4154TIP3    H212469   1.483   2.078   5.006
 4155TIP3   OH212470   0.751   2.191   5.767
 4155TIP3    H112471   0.815   2.237   5.823
 4155TIP3    H212472   0.726   2.115   5.822
 4156TIP3   OH212473   0.753   1.674   4.481
 4156TIP3    H112474   0.794   1.670   4.569
 4156TIP3    H212475   0.660   1.668   4.505
 4157TIP3   OH212476   0.292   1.720   5.370
 4157TIP3    H112477   0.374   1.739   5.422
 4157TIP3    H212478   0.328   1.668   5.297
 4158TIP3   OH212479   0.318   1.729   4.895
 4158TIP3    H112480   0.364   1.735   4.810
 4158TIP3    H212481   0.267   1.810   4.894
 4159TIP3   OH212482   1.458   2.404   5.473
 4159TIP3    H112483   1.489   2.332   5.413
 4159TIP3    H212484   1.424   2.350   5.547
 4160TIP3   OH212485   1.137   1.869   5.148
 4160TIP3    H112486   1.058   1.865   5.205
 4160TIP3    H212487   1.209   1.856   5.212
 4161TIP3   OH212488   0.563   1.926   5.150
 4161TIP3    H112489   0.471   1.932   5.116
 4161TIP3    H212490   0.590   1.835   5.125
 4162TIP3   OH212491   0.826   1.916   4.849
 4162TIP3    H112492   0.921   1.931   4.832
 4162TIP3    H212493   0.784   1.944   4.764
 4163TIP3   OH212494   1.619   1.945   5.362
 4163TIP3    H112495   1.572   1.958   5.446
 4163TIP3    H212496   1.560   1.883   5.316
 4164TIP3   OH212497   0.679   1.963   4.624
 4164TIP3    H112498   0.594   1.937   4.588
 4164TIP3    H212499   0.730   1.988   4.544
 4165TIP3   OH212500   1.794   3.632   5.574
 4165TIP3    H112501   1.791   3.654   5.479
 4165TIP3    H212502   1.875   3.679   5.602
 4166TIP3   OH212503   1.210   2.200   5.242
 4166TIP3    H112504   1.280   2.160   5.188
 4166TIP3    H212505   1.218   2.151   5.326
 4167TIP3   OH212506   0.734   1.695   5.114
 4167TIP3    H112507   0.721   1.615   5.170
 4167TIP3    H212508   0.781   1.657   5.039
 4168TIP3   OH212509   1.190   2.096   5.525
 4168TIP3    H112510   1.099   2.128   5.539
 4168TIP3    H212511   1.244   2.157   5.579
 4169TIP3   OH212512   0.922   2.481   4.627
 4169TIP3    H112513   0.848   2.419   4.613
 4169TIP3    H212514   0.903   2.514   4.718
 4170TIP3   OH212515   1.817   2.720   5.255
 4170TIP3    H112516   1.847   2.768   5.174
 4170TIP3    H212517   1.734   2.678   5.225
 4171TIP3   OH212518   1.376   1.793   4.500
 4171TIP3    H112519   1.279   1.775   4.505
 4171TIP3    H212520   1.382   1.889   4.519
 4172TIP3   OH212521   1.312   2.796   5.643
 4172TIP3    H112522   1.395   2.809   5.685
 4172TIP3    H212523   1.280   2.889   5.629
 4173TIP3   OH212524   1.446   2.046   4.600
 4173TIP3    H112525   1.543   2.051   4.610
 4173TIP3    H212526   1.426   2.123   4.544
 4174TIP3   OH212527   0.619   2.511   5.298
 4174TIP3    H112528   0.650   2.489   5.208
 4174TIP3    H212529   0.663   2.442   5.350
 4175TIP3   OH212530   1.071   2.634   4.456
 4175TIP3    H112531   1.020   2.719   4.459
 4175TIP3    H212532   1.016   2.577   4.514
 4176TIP3   OH212533   1.479   3.057   5.534
 4176TIP3    H112534   1.382   3.063   5.543
 4176TIP3    H212535   1.507   3.118   5.605
 4177TIP3   OH212536   1.886   2.139   4.430
 4177TIP3    H112537   1.825   2.094   4.368
 4177TIP3    H212538   1.883   2.228   4.388
 4178TIP3   OH212539   2.109   2.997   5.510
 4178TIP3    H112540   2.012   2.988   5.501
 4178TIP3    H212541   2.137   2.966   5.420
 4179TIP3   OH212542   1.591   2.953   4.338
 4179TIP3    H112543   1.569   2.883   4.401
 4179TIP3    H212544   1.614   2.904   4.257
 4180TIP3   OH212545   1.586   2.583   5.171
 4180TIP3    H112546   1.492   2.557   5.184
 4180TIP3    H212547   1.621   2.503   5.128
 4181TIP3   OH212548   0.723   2.810   4.924
 4181TIP3    H112549   0.717   2.883   4.860
 4181TIP3    H212550   0.659   2.838   4.991
 4182TIP3   OH212551   0.271   2.119   4.638
 4182TIP3    H112552   0.332   2.195   4.654
 4182TIP3    H212553   0.190   2.155   4.677
 4183TIP3   OH212554   0.846   2.570   4.871
 4183TIP3    H112555   0.809   2.660   4.886
 4183TIP3    H212556   0.810   2.522   4.948
 4184TIP3   OH212557   1.001   3.160   5.429
 4184TIP3    H112558   1.013   3.211   5.347
 4184TIP3    H212559   1.090   3.127   5.445
 4185TIP3   OH212560   0.647   3.050   4.773
 4185TIP3    H112561   0.560   3.054   4.818
 4185TIP3    H212562   0.675   3.144   4.779
 4186TIP3   OH212563   1.368   2.791   5.363
 4186TIP3    H112564   1.360   2.776   5.459
 4186TIP3    H212565   1.444   2.737   5.340
 4187TIP3   OH212566   1.352   2.692   4.246
 4187TIP3    H112567   1.407   2.666   4.324
 4187TIP3    H212568   1.267   2.651   4.271
 4188TIP3   OH212569   1.619   3.320   5.407
 4188TIP3    H112570   1.536   3.271   5.395
 4188TIP3    H212571   1.609   3.387   5.336
 4189TIP3   OH212572   1.682   3.150   4.058
 4189TIP3    H112573   1.719   3.217   3.999
 4189TIP3    H212574   1.605   3.199   4.094
 4190TIP3   OH212575   1.512   2.624   4.461
 4190TIP3    H112576   1.501   2.550   4.525
 4190TIP3    H212577   1.609   2.615   4.444
 4191TIP3   OH212578   0.452   3.024   5.569
 4191TIP3    H112579   0.514   2.951   5.567
 4191TIP3    H212580   0.481   3.073   5.648
 4192TIP3   OH212581   0.707   2.675   4.245
 4192TIP3    H112582   0.727   2.586   4.213
 4192TIP3    H212583   0.687   2.658   4.339
 4193TIP3   OH212584   0.655   2.666   4.517
 4193TIP3    H112585   0.731   2.641   4.572
 4193TIP3    H212586   0.658   2.764   4.523
 4194TIP3   OH212587   0.399   2.352   4.710
 4194TIP3    H112588   0.330   2.400   4.762
 4194TIP3    H212589   0.413   2.421   4.641
 4195TIP3   OH212590   1.535   2.015   5.623
 4195TIP3    H112591   1.629   2.038   5.636
 4195TIP3    H212592   1.528   1.927   5.667
 4196TIP3   OH212593   1.415   1.751   4.780
 4196TIP3    H112594   1.407   1.769   4.684
 4196TIP3    H212595   1.462   1.830   4.811
 4197TIP3   OH212596   0.925   2.863   4.461
 4197TIP3    H112597   0.836   2.885   4.494
 4197TIP3    H212598   0.942   2.939   4.403
 4198TIP3   OH212599   1.105   1.931   4.879
 4198TIP3    H112600   1.171   2.000   4.858
 4198TIP3    H212601   1.118   1.922   4.976
 4199TIP3   OH212602   1.378   2.241   5.678
 4199TIP3    H112603   1.408   2.289   5.759
 4199TIP3    H212604   1.436   2.162   5.675
 4200TIP3   OH212605   1.254   1.644   4.976
 4200TIP3    H112606   1.247   1.723   5.032
 4200TIP3    H212607   1.316   1.678   4.907
 4201TIP3   OH212608   0.671   2.938   4.526
 4201TIP3    H112609   0.642   3.010   4.466
 4201TIP3    H212610   0.661   2.981   4.614
 4202TIP3   OH212611   0.770   1.652   4.765
 4202TIP3    H112612   0.768   1.742   4.803
 4202TIP3    H212613   0.867   1.635   4.772
 4203TIP3   OH212614   2.020   2.144   5.666
 4203TIP3    H112615   1.922   2.145   5.665
 4203TIP3    H212616   2.037   2.100   5.582
 4204TIP3   OH212617   1.672   2.338   5.054
 4204TIP3    H112618   1.596   2.277   5.062
 4204TIP3    H212619   1.743   2.290   5.101
 4205TIP3   OH212620   0.392   2.562   4.524
 4205TIP3    H112621   0.466   2.624   4.533
 4205TIP3    H212622   0.429   2.506   4.453
 4206TIP3   OH212623   0.337   1.853   4.641
 4206TIP3    H112624   0.319   1.949   4.650
 4206TIP3    H212625   0.256   1.819   4.603
 4207TIP3   OH212626   1.662   3.311   4.996
 4207TIP3    H112627   1.608   3.352   4.925
 4207TIP3    H212628   1.746   3.298   4.952
 4208TIP3   OH212629   0.722   1.552   5.537
 4208TIP3    H112630   0.715   1.534   5.441
 4208TIP3    H212631   0.711   1.463   5.573
 4209TIP3   OH212632   0.239   2.761   4.897
 4209TIP3    H112633   0.198   2.836   4.944
 4209TIP3    H212634   0.311   2.804   4.851
 4210TIP3   OH212635   0.502   3.256   5.927
 4210TIP3    H112636   0.546   3.275   6.012
 4210TIP3    H212637   0.414   3.230   5.958
 4211TIP3   OH212638   0.913   3.285   5.996
 4211TIP3    H112639   1.006   3.304   5.980
 4211TIP3    H212640   0.888   3.233   5.917
 4212TIP3   OH212641   0.878   2.865   4.148
 4212TIP3    H112642   0.819   2.798   4.190
 4212TIP3    H212643   0.953   2.809   4.121
 4213TIP3   OH212644   1.532   3.201   5.760
 4213TIP3    H112645   1.532   3.129   5.827
 4213TIP3    H212646   1.610   3.254   5.785
 4214TIP3   OH212647   1.311   2.905   4.074
 4214TIP3    H112648   1.338   2.838   4.141
 4214TIP3    H212649   1.384   2.899   4.011
 4215TIP3   OH212650   0.531   2.374   4.380
 4215TIP3    H112651   0.593   2.356   4.453
 4215TIP3    H212652   0.594   2.367   4.304
 4216TIP3   OH212653   1.114   2.729   5.915
 4216TIP3    H112654   1.073   2.802   5.863
 4216TIP3    H212655   1.178   2.697   5.850
 4217TIP3   OH212656   1.035   2.587   4.187
 4217TIP3    H112657   1.042   2.592   4.284
 4217TIP3    H212658   1.036   2.489   4.174
 4218TIP3   OH212659   1.640   2.838   5.564
 4218TIP3    H112660   1.720   2.870   5.517
 4218TIP3    H212661   1.578   2.911   5.544
 4219TIP3   OH212662   0.724   2.287   4.585
 4219TIP3    H112663   0.703   2.249   4.672
 4219TIP3    H212664   0.764   2.211   4.538
 4220TIP3   OH212665   0.987   2.345   5.822
 4220TIP3    H112666   0.918   2.415   5.830
 4220TIP3    H212667   1.048   2.386   5.757
 4221TIP3   OH212668   0.845   2.067   4.430
 4221TIP3    H112669   0.850   2.044   4.336
 4221TIP3    H212670   0.940   2.088   4.444
 4222TIP3   OH212671   1.505   2.746   5.972
 4222TIP3    H112672   1.574   2.751   5.904
 4222TIP3    H212673   1.537   2.670   6.022
 4223TIP3   OH212674   1.641   2.412   4.109
 4223TIP3    H112675   1.632   2.365   4.024
 4223TIP3    H212676   1.621   2.503   4.078
 4224TIP3   OH212677   1.109   2.122   5.922
 4224TIP3    H112678   1.132   2.056   5.853
 4224TIP3    H212679   1.072   2.196   5.868
 4225TIP3   OH212680   1.136   1.917   5.739
 4225TIP3    H112681   1.160   1.954   5.652
 4225TIP3    H212682   1.042   1.891   5.726
 4226TIP3   OH212683   1.144   2.464   5.635
 4226TIP3    H112684   1.231   2.473   5.595
 4226TIP3    H212685   1.090   2.526   5.582
 4227TIP3   OH212686   1.743   2.433   5.979
 4227TIP3    H112687   1.803   2.364   5.948
 4227TIP3    H212688   1.791   2.513   5.949
 4228TIP3   OH212689   1.772   2.675   5.732
 4228TIP3    H112690   1.717   2.735   5.676
 4228TIP3    H212691   1.861   2.697   5.697
 4229TIP3   OH212692   1.275   1.694   5.845
 4229TIP3    H112693   1.223   1.771   5.813
 4229TIP3    H212694   1.209   1.622   5.829
 4230TIP3   OH212695   1.631   2.147   5.905
 4230TIP3    H112696   1.555   2.092   5.927
 4230TIP3    H212697   1.697   2.119   5.972
 4231TIP3   OH212698   1.837   2.078   6.076
 4231TIP3    H112699   1.908   2.061   6.014
 4231TIP3    H212700   1.885   2.110   6.153
 4232TIP3   OH212701   0.643   3.145   4.344
 4232TIP3    H112702   0.737   3.133   4.322
 4232TIP3    H212703   0.614   3.193   4.265
 4233TIP3   OH212704   0.110   2.545   4.504
 4233TIP3    H112705   0.202   2.558   4.534
 4233TIP3    H212706   0.105   2.448   4.499
 4234TIP3   OH212707   1.978   3.438   4.967
 4234TIP3    H112708   1.933   3.417   5.054
 4234TIP3    H212709   1.899   3.480   4.916
 4235TIP3   OH212710   1.921   3.402   5.245
 4235TIP3    H112711   1.879   3.313   5.247
 4235TIP3    H212712   1.998   3.385   5.302
 4236TIP3   OH212713   1.975   3.083   5.814
 4236TIP3    H112714   1.900   3.093   5.876
 4236TIP3    H212715   2.018   3.171   5.820
 4237TIP3   OH212716   1.789   2.598   4.432
 4237TIP3    H112717   1.856   2.659   4.397
 4237TIP3    H212718   1.836   2.558   4.509
 4238TIP3   OH212719   1.917   2.463   4.637
 4238TIP3    H112720   1.851   2.421   4.696
 4238TIP3    H212721   1.983   2.498   4.700
 4239TIP3   OH212722   1.968   2.847   5.071
 4239TIP3    H112723   2.026   2.784   5.025
 4239TIP3    H212724   1.980   2.928   5.017
 4240TIP3   OH212725   1.800   3.157   5.265
 4240TIP3    H112726   1.726   3.196   5.315
 4240TIP3    H212727   1.752   3.107   5.194
 4241TIP3   OH212728   1.851   2.372   4.282
 4241TIP3    H112729   1.780   2.375   4.214
 4241TIP3    H212730   1.825   2.449   4.336
 4242TIP3   OH212731   1.721   2.041   4.239
 4242TIP3    H112732   1.681   2.077   4.159
 4242TIP3    H212733   1.697   1.946   4.231
 4243TIP3   OH212734   1.726   2.323   4.781
 4243TIP3    H112735   1.735   2.226   4.771
 4243TIP3    H212736   1.713   2.333   4.878
 4244TIP3   OH212737   0.363   2.384   5.549
 4244TIP3    H112738   0.355   2.367   5.453
 4244TIP3    H212739   0.459   2.398   5.557
 4245TIP3   OH212740   2.020   2.745   5.640
 4245TIP3    H112741   2.090   2.678   5.629
 4245TIP3    H212742   2.046   2.813   5.576
 4246TIP3   OH212743   2.198   2.543   5.651
 4246TIP3    H112744   2.124   2.494   5.692
 4246TIP3    H212745   2.272   2.482   5.669
 4247TIP3   OH212746   1.664   1.774   4.225
 4247TIP3    H112747   1.739   1.744   4.279
 4247TIP3    H212748   1.594   1.709   4.244
 4248TIP3   OH212749   1.728   2.040   4.673
 4248TIP3    H112750   1.770   1.952   4.687
 4248TIP3    H212751   1.784   2.073   4.600
 4249TIP3   OH212752   1.886   2.207   5.174
 4249TIP3    H112753   1.971   2.232   5.131
 4249TIP3    H212754   1.903   2.245   5.263
 4250TIP3   OH212755   1.962   2.356   5.405
 4250TIP3    H112756   1.882   2.391   5.449
 4250TIP3    H212757   1.994   2.436   5.357
 4251TIP3   OH212758   2.388   1.921   5.965
 4251TIP3    H112759   2.461   1.870   5.925
 4251TIP3    H212760   2.372   1.990   5.897
 4252TIP3   OH212761   1.834   1.789   4.717
 4252TIP3    H112762   1.880   1.768   4.800
 4252TIP3    H212763   1.772   1.713   4.710
 4253TIP3   OH212764   0.533   1.760   5.513
 4253TIP3    H112765   0.594   1.686   5.532
 4253TIP3    H212766   0.594   1.836   5.512
 4254TIP3   OH212767   0.316   2.081   5.598
 4254TIP3    H112768   0.374   2.053   5.525
 4254TIP3    H212769   0.338   2.175   5.605
 4255TIP3   OH212770   2.276   2.081   5.763
 4255TIP3    H112771   2.187   2.121   5.772
 4255TIP3    H212772   2.253   2.003   5.710
 4256TIP3   OH212773   1.911   1.719   4.353
 4256TIP3    H112774   1.952   1.651   4.294
 4256TIP3    H212775   1.976   1.792   4.347
 4257TIP3   OH212776   0.309   1.560   5.109
 4257TIP3    H112777   0.218   1.533   5.092
 4257TIP3    H212778   0.326   1.613   5.028
 4258TIP3   OH212779   1.478   3.254   4.614
 4258TIP3    H112780   1.528   3.243   4.531
 4258TIP3    H212781   1.531   3.320   4.662
 4259TIP3   OH212782   0.769   3.087   5.551
 4259TIP3    H112783   0.714   3.157   5.510
 4259TIP3    H212784   0.854   3.112   5.509
 4260TIP3   OH212785   1.200   3.332   5.683
 4260TIP3    H112786   1.245   3.333   5.770
 4260TIP3    H212787   1.262   3.386   5.630
 4261TIP3   OH212788   1.378   3.488   5.549
 4261TIP3    H112789   1.447   3.442   5.500
 4261TIP3    H212790   1.432   3.546   5.607
 4262TIP3   OH212791   2.177   1.842   5.649
 4262TIP3    H112792   2.089   1.828   5.609
 4262TIP3    H212793   2.216   1.753   5.637
 4263TIP3   OH212794   0.453   3.402   5.571
 4263TIP3    H112795   0.391   3.458   5.523
 4263TIP3    H212796   0.465   3.454   5.652
 4264TIP3   OH212797   0.689   3.332   5.443
 4264TIP3    H112798   0.605   3.359   5.487
 4264TIP3    H212799   0.654   3.301   5.357
 4265TIP3   OH212800   1.106   3.351   5.226
 4265TIP3    H112801   1.035   3.360   5.160
 4265TIP3    H212802   1.108   3.440   5.265
 4266TIP3   OH212803   1.367   3.288   5.287
 4266TIP3    H112804   1.272   3.306   5.266
 4266TIP3    H212805   1.410   3.359   5.236
 4267TIP3   OH212806   1.563   3.478   5.192
 4267TIP3    H112807   1.553   3.567   5.149
 4267TIP3    H212808   1.596   3.424   5.117
 4268TIP3   OH212809   0.311   3.082   5.340
 4268TIP3    H112810   0.373   3.077   5.416
 4268TIP3    H212811   0.371   3.121   5.274
 4269TIP3   OH212812   0.563   2.918   5.119
 4269TIP3    H112813   0.560   2.866   5.202
 4269TIP3    H212814   0.571   3.009   5.153
 4270TIP3   OH212815   0.869   3.126   5.155
 4270TIP3    H112816   0.873   3.029   5.148
 4270TIP3    H212817   0.786   3.138   5.203
 4271TIP3   OH212818   1.380   1.759   5.266
 4271TIP3    H112819   1.343   1.684   5.316
 4271TIP3    H212820   1.453   1.717   5.217
 4272TIP3   OH212821   1.898   1.663   5.179
 4272TIP3    H112822   1.935   1.701   5.097
 4272TIP3    H212823   1.803   1.662   5.160
 4273TIP3   OH212824   1.997   1.737   4.936
 4273TIP3    H112825   2.070   1.685   4.896
 4273TIP3    H212826   2.032   1.828   4.920
 4274TIP3   OH212827   0.694   1.482   5.276
 4274TIP3    H112828   0.597   1.463   5.279
 4274TIP3    H212829   0.729   1.391   5.266
 4275TIP3   OH212830   0.476   1.315   4.984
 4275TIP3    H112831   0.536   1.356   4.921
 4275TIP3    H212832   0.393   1.362   4.964
 4276TIP3   OH212833   1.076   1.508   5.163
 4276TIP3    H112834   1.133   1.548   5.096
 4276TIP3    H212835   1.118   1.537   5.245
 4277TIP3   OH212836   1.616   1.648   5.140
 4277TIP3    H112837   1.619   1.605   5.054
 4277TIP3    H212838   1.608   1.569   5.200
 4278TIP3   OH212839   1.654   1.577   4.702
 4278TIP3    H112840   1.563   1.611   4.706
 4278TIP3    H212841   1.642   1.493   4.752
 4279TIP3   OH212842   0.542   1.507   4.684
 4279TIP3    H112843   0.585   1.430   4.642
 4279TIP3    H212844   0.619   1.551   4.726
 4280TIP3   OH212845   1.043   1.679   4.789
 4280TIP3    H112846   1.105   1.628   4.843
 4280TIP3    H212847   1.067   1.770   4.816
 4281TIP3   OH212848   0.907   3.096   4.288
 4281TIP3    H112849   0.995   3.118   4.252
 4281TIP3    H212850   0.886   3.019   4.230
 4282TIP3   OH212851   1.619   3.217   4.378
 4282TIP3    H112852   1.612   3.119   4.367
 4282TIP3    H212853   1.573   3.248   4.297
 4283TIP3   OH212854   0.216   2.942   4.357
 4283TIP3    H112855   0.246   3.002   4.428
 4283TIP3    H212856   0.301   2.897   4.333
 4284TIP3   OH212857   1.848   3.361   5.568
 4284TIP3    H112858   1.769   3.333   5.516
 4284TIP3    H212859   1.831   3.457   5.574
 4285TIP3   OH212860   3.118   2.740   4.331
 4285TIP3    H112861   3.086   2.829   4.305
 4285TIP3    H212862   3.046   2.686   4.296
 4286TIP3   OH212863   3.123   2.739   4.722
 4286TIP3    H112864   3.155   2.710   4.809
 4286TIP3    H212865   3.078   2.660   4.688
 4287TIP3   OH212866   2.414   2.629   5.088
 4287TIP3    H112867   2.448   2.561   5.148
 4287TIP3    H212868   2.495   2.673   5.061
 4288TIP3   OH212869   3.367   3.041   4.400
 4288TIP3    H112870   3.344   2.975   4.467
 4288TIP3    H212871   3.396   3.117   4.454
 4289TIP3   OH212872   2.383   3.034   4.843
 4289TIP3    H112873   2.384   2.937   4.826
 4289TIP3    H212874   2.466   3.060   4.799
 4290TIP3   OH212875   2.093   2.240   4.587
 4290TIP3    H112876   2.046   2.323   4.602
 4290TIP3    H212877   2.024   2.190   4.539
 4291TIP3   OH212878   2.151   2.530   4.771
 4291TIP3    H112879   2.204   2.453   4.802
 4291TIP3    H212880   2.209   2.568   4.703
 4292TIP3   OH212881   3.022   3.501   4.420
 4292TIP3    H112882   3.056   3.429   4.363
 4292TIP3    H212883   3.004   3.453   4.501
 4293TIP3   OH212884   2.914   2.963   4.766
 4293TIP3    H112885   2.953   2.890   4.716
 4293TIP3    H212886   2.996   3.010   4.791
 4294TIP3   OH212887   3.936   2.281   4.763
 4294TIP3    H112888   3.963   2.366   4.803
 4294TIP3    H212889   3.956   2.297   4.669
 4295TIP3   OH212890   3.329   2.460   4.794
 4295TIP3    H112891   3.372   2.374   4.812
 4295TIP3    H212892   3.296   2.445   4.703
 4296TIP3   OH212893   2.673   2.122   4.759
 4296TIP3    H112894   2.651   2.194   4.696
 4296TIP3    H212895   2.624   2.048   4.716
 4297TIP3   OH212896   3.365   2.214   4.381
 4297TIP3    H112897   3.438   2.202   4.447
 4297TIP3    H212898   3.416   2.250   4.306
 4298TIP3   OH212899   2.301   2.322   4.872
 4298TIP3    H112900   2.385   2.302   4.916
 4298TIP3    H212901   2.312   2.269   4.790
 4299TIP3   OH212902   2.737   2.520   4.673
 4299TIP3    H112903   2.832   2.498   4.680
 4299TIP3    H212904   2.699   2.438   4.635
 4300TIP3   OH212905   4.008   2.493   4.932
 4300TIP3    H112906   3.922   2.538   4.914
 4300TIP3    H212907   4.028   2.528   5.021
 4301TIP3   OH212908   2.664   2.107   5.197
 4301TIP3    H112909   2.607   2.142   5.126
 4301TIP3    H212910   2.609   2.125   5.276
 4302TIP3   OH212911   3.011   2.960   4.204
 4302TIP3    H112912   2.973   2.940   4.116
 4302TIP3    H212913   2.954   3.035   4.231
 4303TIP3   OH212914   2.770   2.880   4.986
 4303TIP3    H112915   2.711   2.951   5.020
 4303TIP3    H212916   2.814   2.926   4.911
 4304TIP3   OH212917   3.566   2.221   4.563
 4304TIP3    H112918   3.547   2.180   4.648
 4304TIP3    H212919   3.618   2.300   4.590
 4305TIP3   OH212920   2.539   2.220   4.977
 4305TIP3    H112921   2.600   2.293   4.999
 4305TIP3    H212922   2.587   2.179   4.902
 4306TIP3   OH212923   2.604   3.078   5.092
 4306TIP3    H112924   2.576   3.157   5.043
 4306TIP3    H212925   2.522   3.061   5.142
 4307TIP3   OH212926   1.988   2.764   4.311
 4307TIP3    H112927   1.962   2.783   4.218
 4307TIP3    H212928   2.017   2.853   4.342
 4308TIP3   OH212929   3.431   3.285   4.564
 4308TIP3    H112930   3.341   3.277   4.602
 4308TIP3    H212931   3.423   3.371   4.517
 4309TIP3   OH212932   3.727   2.180   4.928
 4309TIP3    H112933   3.639   2.205   4.895
 4309TIP3    H212934   3.786   2.212   4.857
 4310TIP3   OH212935   3.016   1.820   4.915
 4310TIP3    H112936   3.000   1.725   4.932
 4310TIP3    H212937   2.938   1.859   4.960
 4311TIP3   OH212938   3.125   3.329   4.228
 4311TIP3    H112939   3.176   3.246   4.211
 4311TIP3    H212940   3.189   3.395   4.192
 4312TIP3   OH212941   3.274   3.114   4.147
 4312TIP3    H112942   3.232   3.034   4.113
 4312TIP3    H212943   3.313   3.080   4.231
 4313TIP3   OH212944   3.655   3.191   4.908
 4313TIP3    H112945   3.643   3.116   4.847
 4313TIP3    H212946   3.637   3.267   4.849
 4314TIP3   OH212947   2.954   2.586   4.172
 4314TIP3    H112948   2.871   2.636   4.159
 4314TIP3    H212949   2.991   2.590   4.082
 4315TIP3   OH212950   2.904   2.379   3.891
 4315TIP3    H112951   2.975   2.428   3.935
 4315TIP3    H212952   2.957   2.316   3.838
 4316TIP3   OH212953   3.851   2.834   4.758
 4316TIP3    H112954   3.767   2.885   4.760
 4316TIP3    H212955   3.882   2.856   4.668
 4317TIP3   OH212956   3.297   2.671   4.137
 4317TIP3    H112957   3.241   2.698   4.214
 4317TIP3    H212958   3.380   2.649   4.182
 4318TIP3   OH212959   3.530   2.706   5.057
 4318TIP3    H112960   3.528   2.792   5.103
 4318TIP3    H212961   3.445   2.709   5.009
 4319TIP3   OH212962   2.527   2.666   4.557
 4319TIP3    H112963   2.483   2.607   4.491
 4319TIP3    H212964   2.604   2.612   4.584
 4320TIP3   OH212965   2.646   3.080   4.705
 4320TIP3    H112966   2.629   3.055   4.613
 4320TIP3    H212967   2.737   3.046   4.718
 4321TIP3   OH212968   2.656   2.640   4.912
 4321TIP3    H112969   2.690   2.612   4.824
 4321TIP3    H212970   2.703   2.725   4.926
 4322TIP3   OH212971   3.191   3.278   4.687
 4322TIP3    H112972   3.176   3.358   4.741
 4322TIP3    H212973   3.174   3.205   4.749
 4323TIP3   OH212974   2.806   3.195   5.241
 4323TIP3    H112975   2.743   3.258   5.281
 4323TIP3    H212976   2.743   3.142   5.186
 4324TIP3   OH212977   3.141   2.524   3.964
 4324TIP3    H112978   3.196   2.589   4.014
 4324TIP3    H212979   3.166   2.546   3.871
 4325TIP3   OH212980   2.561   2.745   5.347
 4325TIP3    H112981   2.562   2.837   5.381
 4325TIP3    H212982   2.464   2.727   5.349
 4326TIP3   OH212983   2.876   3.208   4.252
 4326TIP3    H112984   2.960   3.257   4.249
 4326TIP3    H212985   2.823   3.253   4.184
 4327TIP3   OH212986   2.598   3.358   5.322
 4327TIP3    H112987   2.568   3.362   5.229
 4327TIP3    H212988   2.515   3.338   5.371
 4328TIP3   OH212989   3.651   1.768   4.013
 4328TIP3    H112990   3.570   1.788   4.064
 4328TIP3    H212991   3.662   1.850   3.962
 4329TIP3   OH212992   2.386   2.507   4.376
 4329TIP3    H112993   2.327   2.554   4.313
 4329TIP3    H212994   2.353   2.417   4.368
 4330TIP3   OH212995   2.174   2.896   5.267
 4330TIP3    H112996   2.109   2.875   5.197
 4330TIP3    H212997   2.213   2.808   5.285
 4331TIP3   OH212998   2.051   3.071   4.933
 4331TIP3    H112999   2.129   3.065   4.876
 4331TIP3    H213000   2.042   3.165   4.953
 4332TIP3   OH213001   3.894   3.544   4.960
 4332TIP3    H113002   3.893   3.447   4.974
 4332TIP3    H213003   3.810   3.569   5.004
 4333TIP3   OH213004   3.002   3.323   5.094
 4333TIP3    H113005   2.996   3.417   5.122
 4333TIP3    H213006   2.930   3.283   5.147
 4334TIP3   OH213007   2.762   3.439   4.055
 4334TIP3    H113008   2.722   3.415   3.968
 4334TIP3    H213009   2.734   3.532   4.066
 4335TIP3   OH213010   2.950   3.355   3.699
 4335TIP3    H113011   2.987   3.278   3.655
 4335TIP3    H213012   2.998   3.360   3.783
 4336TIP3   OH213013   3.018   3.407   3.963
 4336TIP3    H113014   2.926   3.408   3.999
 4336TIP3    H213015   3.066   3.366   4.037
 4337TIP3   OH213016   3.781   2.668   5.234
 4337TIP3    H113017   3.699   2.678   5.182
 4337TIP3    H213018   3.798   2.572   5.223
 4338TIP3   OH213019   2.376   3.083   5.250
 4338TIP3    H113020   2.427   3.063   5.331
 4338TIP3    H213021   2.304   3.017   5.255
 4339TIP3   OH213022   2.778   1.900   5.043
 4339TIP3    H113023   2.690   1.869   5.013
 4339TIP3    H213024   2.751   1.980   5.091
 4340TIP3   OH213025   3.315   2.016   5.237
 4340TIP3    H113026   3.384   1.987   5.300
 4340TIP3    H213027   3.232   1.994   5.284
 4341TIP3   OH213028   3.551   2.444   5.152
 4341TIP3    H113029   3.501   2.444   5.237
 4341TIP3    H213030   3.528   2.532   5.115
 4342TIP3   OH213031   3.217   2.555   3.705
 4342TIP3    H113032   3.186   2.536   3.614
 4342TIP3    H213033   3.292   2.614   3.684
 4343TIP3   OH213034   2.931   1.942   4.015
 4343TIP3    H113035   2.892   1.943   4.104
 4343TIP3    H213036   2.885   1.863   3.978
 4344TIP3   OH213037   2.714   2.417   5.059
 4344TIP3    H113038   2.661   2.434   5.140
 4344TIP3    H213039   2.696   2.499   5.007
 4345TIP3   OH213040   2.597   2.303   4.573
 4345TIP3    H113041   2.503   2.280   4.590
 4345TIP3    H213042   2.608   2.264   4.484
 4346TIP3   OH213043   3.086   2.387   4.306
 4346TIP3    H113044   3.035   2.459   4.261
 4346TIP3    H213045   3.140   2.354   4.232
 4347TIP3   OH213046   3.262   2.669   5.390
 4347TIP3    H113047   3.240   2.590   5.444
 4347TIP3    H213048   3.358   2.676   5.406
 4348TIP3   OH213049   3.241   2.413   4.538
 4348TIP3    H113050   3.178   2.441   4.469
 4348TIP3    H213051   3.277   2.334   4.492
 4349TIP3   OH213052   2.535   2.444   5.267
 4349TIP3    H113053   2.560   2.508   5.335
 4349TIP3    H213054   2.520   2.363   5.319
 4350TIP3   OH213055   2.586   1.925   3.979
 4350TIP3    H113056   2.571   1.925   4.075
 4350TIP3    H213057   2.508   1.975   3.949
 4351TIP3   OH213058   2.122   1.962   4.856
 4351TIP3    H113059   2.199   1.997   4.904
 4351TIP3    H213060   2.157   1.937   4.770
 4352TIP3   OH213061   2.085   1.946   4.368
 4352TIP3    H113062   2.127   1.982   4.288
 4352TIP3    H213063   2.023   2.019   4.388
 4353TIP3   OH213064   3.256   2.658   4.960
 4353TIP3    H113065   3.287   2.587   4.899
 4353TIP3    H213066   3.222   2.603   5.034
 4354TIP3   OH213067   2.932   2.118   4.633
 4354TIP3    H113068   2.849   2.120   4.686
 4354TIP3    H213069   3.000   2.117   4.703
 4355TIP3   OH213070   2.356   2.182   4.641
 4355TIP3    H113071   2.262   2.189   4.611
 4355TIP3    H213072   2.380   2.091   4.616
 4356TIP3   OH213073   2.622   2.177   4.333
 4356TIP3    H113074   2.714   2.194   4.307
 4356TIP3    H213075   2.572   2.199   4.251
 4357TIP3   OH213076   3.415   2.199   4.839
 4357TIP3    H113077   3.383   2.213   4.930
 4357TIP3    H213078   3.346   2.139   4.805
 4358TIP3   OH213079   2.471   2.208   4.109
 4358TIP3    H113080   2.405   2.162   4.053
 4358TIP3    H213081   2.526   2.251   4.040
 4359TIP3   OH213082   3.590   3.889   5.058
 4359TIP3    H113083   3.587   3.914   4.964
 4359TIP3    H213084   3.670   3.936   5.088
 4360TIP3   OH213085   2.534   2.999   5.469
 4360TIP3    H113086   2.612   3.038   5.513
 4360TIP3    H213087   2.471   2.998   5.543
 4361TIP3   OH213088   3.005   2.455   4.731
 4361TIP3    H113089   3.078   2.416   4.681
 4361TIP3    H213090   3.011   2.408   4.817
 4362TIP3   OH213091   2.523   1.939   4.617
 4362TIP3    H113092   2.488   1.860   4.665
 4362TIP3    H213093   2.558   1.898   4.537
 4363TIP3   OH213094   2.981   2.353   5.020
 4363TIP3    H113095   2.890   2.387   5.034
 4363TIP3    H213096   3.036   2.415   5.070
 4364TIP3   OH213097   2.734   2.736   4.122
 4364TIP3    H113098   2.658   2.674   4.106
 4364TIP3    H213099   2.705   2.777   4.206
 4365TIP3   OH213100   3.616   2.976   4.740
 4365TIP3    H113101   3.641   3.027   4.660
 4365TIP3    H213102   3.531   2.935   4.713
 4366TIP3   OH213103   3.176   2.051   3.980
 4366TIP3    H113104   3.080   2.028   3.991
 4366TIP3    H213105   3.180   2.145   4.008
 4367TIP3   OH213106   3.111   3.056   5.115
 4367TIP3    H113107   3.153   3.050   5.202
 4367TIP3    H213108   3.079   3.148   5.113
 4368TIP3   OH213109   3.244   2.299   4.088
 4368TIP3    H113110   3.340   2.311   4.102
 4368TIP3    H213111   3.220   2.380   4.038
 4369TIP3   OH213112   2.410   2.759   4.788
 4369TIP3    H113113   2.447   2.737   4.700
 4369TIP3    H213114   2.464   2.702   4.845
 4370TIP3   OH213115   2.892   2.901   3.958
 4370TIP3    H113116   2.834   2.980   3.944
 4370TIP3    H213117   2.826   2.839   3.997
 4371TIP3   OH213118   2.294   2.681   5.405
 4371TIP3    H113119   2.308   2.665   5.500
 4371TIP3    H213120   2.223   2.617   5.384
 4372TIP3   OH213121   3.019   2.798   5.437
 4372TIP3    H113122   2.955   2.741   5.389
 4372TIP3    H213123   3.104   2.762   5.402
 4373TIP3   OH213124   3.276   3.316   5.016
 4373TIP3    H113125   3.179   3.319   5.025
 4373TIP3    H213126   3.303   3.373   5.091
 4374TIP3   OH213127   3.688   2.397   3.921
 4374TIP3    H113128   3.634   2.351   3.853
 4374TIP3    H213129   3.682   2.487   3.882
 4375TIP3   OH213130   3.905   3.251   4.997
 4375TIP3    H113131   3.808   3.245   4.987
 4375TIP3    H213132   3.933   3.222   4.908
 4376TIP3   OH213133   3.388   3.201   3.822
 4376TIP3    H113134   3.353   3.158   3.902
 4376TIP3    H213135   3.416   3.125   3.770
 4377TIP3   OH213136   3.383   2.840   4.658
 4377TIP3    H113137   3.289   2.815   4.671
 4377TIP3    H213138   3.416   2.760   4.613
 4378TIP3   OH213139   2.520   3.063   4.426
 4378TIP3    H113140   2.530   3.117   4.346
 4378TIP3    H213141   2.427   3.037   4.420
 4379TIP3   OH213142   2.076   2.364   4.120
 4379TIP3    H113143   2.124   2.447   4.139
 4379TIP3    H213144   1.997   2.374   4.176
 4380TIP3   OH213145   2.654   2.828   4.367
 4380TIP3    H113146   2.621   2.918   4.386
 4380TIP3    H213147   2.609   2.776   4.436
 4381TIP3   OH213148   2.784   3.409   4.887
 4381TIP3    H113149   2.823   3.480   4.833
 4381TIP3    H213150   2.863   3.372   4.928
 4382TIP3   OH213151   2.426   3.309   4.263
 4382TIP3    H113152   2.353   3.310   4.326
 4382TIP3    H213153   2.494   3.360   4.307
 4383TIP3   OH213154   3.166   3.048   4.846
 4383TIP3    H113155   3.156   3.042   4.943
 4383TIP3    H213156   3.244   2.992   4.831
 4384TIP3   OH213157   3.132   2.924   3.740
 4384TIP3    H113158   3.190   2.906   3.818
 4384TIP3    H213159   3.045   2.919   3.781
 4385TIP3   OH213160   3.417   3.576   4.894
 4385TIP3    H113161   3.336   3.523   4.886
 4385TIP3    H213162   3.404   3.641   4.822
 4386TIP3   OH213163   2.500   2.189   5.409
 4386TIP3    H113164   2.403   2.189   5.418
 4386TIP3    H213165   2.526   2.130   5.482
 4387TIP3   OH213166   3.309   2.872   3.946
 4387TIP3    H113167   3.299   2.805   4.017
 4387TIP3    H213168   3.406   2.869   3.932
 4388TIP3   OH213169   2.222   3.300   5.068
 4388TIP3    H113170   2.264   3.214   5.046
 4388TIP3    H213171   2.265   3.308   5.160
 4389TIP3   OH213172   2.194   2.604   4.197
 4389TIP3    H113173   2.127   2.660   4.239
 4389TIP3    H213174   2.212   2.651   4.114
 4390TIP3   OH213175   3.342   2.255   5.100
 4390TIP3    H113176   3.425   2.291   5.133
 4390TIP3    H213177   3.331   2.172   5.152
 4391TIP3   OH213178   3.226   1.998   4.265
 4391TIP3    H113179   3.208   2.022   4.172
 4391TIP3    H213180   3.266   2.081   4.300
 4392TIP3   OH213181   2.732   3.125   3.955
 4392TIP3    H113182   2.637   3.113   3.976
 4392TIP3    H213183   2.725   3.195   3.889
 4393TIP3   OH213184   2.909   2.183   4.364
 4393TIP3    H113185   2.970   2.257   4.346
 4393TIP3    H213186   2.915   2.177   4.461
 4394TIP3   OH213187   3.179   2.496   5.168
 4394TIP3    H113188   3.207   2.547   5.246
 4394TIP3    H213189   3.233   2.415   5.173
 4395TIP3   OH213190   3.050   1.903   4.463
 4395TIP3    H113191   3.033   1.984   4.515
 4395TIP3    H213192   3.114   1.937   4.397
 4396TIP3   OH213193   2.464   3.197   4.009
 4396TIP3    H113194   2.440   3.264   3.945
 4396TIP3    H213195   2.448   3.240   4.095
 4397TIP3   OH213196   2.563   1.910   4.256
 4397TIP3    H113197   2.559   2.001   4.290
 4397TIP3    H213198   2.660   1.895   4.262
 4398TIP3   OH213199   3.816   2.400   5.152
 4398TIP3    H113200   3.718   2.400   5.158
 4398TIP3    H213201   3.826   2.358   5.065
 4399TIP3   OH213202   3.469   2.594   4.540
 4399TIP3    H113203   3.391   2.536   4.550
 4399TIP3    H213204   3.538   2.545   4.589
 4400TIP3   OH213205   2.121   2.095   4.144
 4400TIP3    H113206   2.127   2.193   4.141
 4400TIP3    H213207   2.049   2.080   4.082
 4401TIP3   OH213208   3.439   3.556   4.485
 4401TIP3    H113209   3.396   3.604   4.411
 4401TIP3    H213210   3.534   3.574   4.465
 4402TIP3   OH213211   2.514   1.820   5.012
 4402TIP3    H113212   2.484   1.786   4.925
 4402TIP3    H213213   2.502   1.741   5.069
 4403TIP3   OH213214   2.053   3.032   4.387
 4403TIP3    H113215   2.005   3.073   4.460
 4403TIP3    H213216   2.034   3.094   4.314
 4404TIP3   OH213217   2.211   3.584   5.472
 4404TIP3    H113218   2.300   3.590   5.514
 4404TIP3    H213219   2.197   3.488   5.473
 4405TIP3   OH213220   2.688   3.532   5.519
 4405TIP3    H113221   2.784   3.528   5.513
 4405TIP3    H213222   2.663   3.474   5.444
 4406TIP3   OH213223   3.325   3.456   5.249
 4406TIP3    H113224   3.323   3.384   5.316
 4406TIP3    H213225   3.405   3.506   5.275
 4407TIP3   OH213226   2.339   2.991   5.667
 4407TIP3    H113227   2.356   2.895   5.673
 4407TIP3    H213228   2.252   2.992   5.621
 4408TIP3   OH213229   2.947   3.074   5.444
 4408TIP3    H113230   2.908   3.100   5.358
 4408TIP3    H213231   2.979   2.983   5.426
 4409TIP3   OH213232   3.441   3.091   5.052
 4409TIP3    H113233   3.517   3.130   5.005
 4409TIP3    H213234   3.372   3.159   5.034
 4410TIP3   OH213235   2.457   2.730   5.652
 4410TIP3    H113236   2.535   2.681   5.620
 4410TIP3    H213237   2.485   2.759   5.741
 4411TIP3   OH213238   2.546   2.538   4.103
 4411TIP3    H113239   2.498   2.486   4.168
 4411TIP3    H213240   2.567   2.472   4.034
 4412TIP3   OH213241   2.799   2.610   5.316
 4412TIP3    H113242   2.719   2.666   5.317
 4412TIP3    H213243   2.846   2.643   5.236
 4413TIP3   OH213244   2.629   2.336   3.930
 4413TIP3    H113245   2.600   2.336   3.836
 4413TIP3    H213246   2.725   2.348   3.919
 4414TIP3   OH213247   3.315   3.007   5.443
 4414TIP3    H113248   3.389   2.982   5.386
 4414TIP3    H213249   3.318   2.939   5.511
 4415TIP3   OH213250   3.448   2.661   3.586
 4415TIP3    H113251   3.449   2.624   3.496
 4415TIP3    H213252   3.413   2.752   3.567
 4416TIP3   OH213253   2.923   2.396   5.430
 4416TIP3    H113254   2.919   2.318   5.373
 4416TIP3    H213255   2.877   2.465   5.376
 4417TIP3   OH213256   2.922   2.185   5.245
 4417TIP3    H113257   2.951   2.225   5.161
 4417TIP3    H213258   2.830   2.160   5.226
 4418TIP3   OH213259   2.947   2.722   5.121
 4418TIP3    H113260   3.031   2.735   5.077
 4418TIP3    H213261   2.889   2.785   5.072
 4419TIP3   OH213262   3.530   2.685   5.496
 4419TIP3    H113263   3.576   2.600   5.502
 4419TIP3    H213264   3.597   2.742   5.455
 4420TIP3   OH213265   3.567   2.940   5.234
 4420TIP3    H113266   3.511   2.996   5.175
 4420TIP3    H213267   3.656   2.959   5.196
 4421TIP3   OH213268   2.805   2.507   5.651
 4421TIP3    H113269   2.739   2.444   5.685
 4421TIP3    H213270   2.827   2.468   5.562
 4422TIP3   OH213271   3.053   1.946   5.317
 4422TIP3    H113272   3.004   2.027   5.292
 4422TIP3    H213273   2.985   1.877   5.304
 4423TIP3   OH213274   3.180   2.445   5.519
 4423TIP3    H113275   3.157   2.425   5.612
 4423TIP3    H213276   3.093   2.425   5.478
 4424TIP3   OH213277   3.422   2.406   5.385
 4424TIP3    H113278   3.344   2.399   5.443
 4424TIP3    H213279   3.494   2.370   5.440
 4425TIP3   OH213280   3.649   2.341   5.534
 4425TIP3    H113281   3.662   2.245   5.548
 4425TIP3    H213282   3.644   2.376   5.625
 4426TIP3   OH213283   2.637   2.285   5.723
 4426TIP3    H113284   2.640   2.193   5.688
 4426TIP3    H213285   2.674   2.270   5.813
 4427TIP3   OH213286   3.147   1.956   5.574
 4427TIP3    H113287   3.212   1.883   5.567
 4427TIP3    H213288   3.107   1.952   5.485
 4428TIP3   OH213289   3.216   2.169   5.727
 4428TIP3    H113290   3.195   2.095   5.666
 4428TIP3    H213291   3.138   2.227   5.715
 4429TIP3   OH213292   1.940   2.771   4.032
 4429TIP3    H113293   2.012   2.775   3.965
 4429TIP3    H213294   1.906   2.682   4.008
 4430TIP3   OH213295   1.804   3.379   4.495
 4430TIP3    H113296   1.754   3.316   4.438
 4430TIP3    H213297   1.882   3.328   4.523
 4431TIP3   OH213298   3.696   3.639   4.449
 4431TIP3    H113299   3.723   3.675   4.535
 4431TIP3    H213300   3.761   3.678   4.389
 4432TIP3   OH213301   3.721   3.663   4.733
 4432TIP3    H113302   3.677   3.576   4.727
 4432TIP3    H213303   3.797   3.638   4.789
 4433TIP3   OH213304   3.770   3.340   5.303
 4433TIP3    H113305   3.699   3.351   5.369
 4433TIP3    H213306   3.813   3.428   5.307
 4434TIP3   OH213307   3.586   2.851   3.922
 4434TIP3    H113308   3.652   2.918   3.891
 4434TIP3    H213309   3.633   2.813   3.999
 4435TIP3   OH213310   3.716   2.716   4.124
 4435TIP3    H113311   3.647   2.678   4.183
 4435TIP3    H213312   3.778   2.756   4.188
 4436TIP3   OH213313   3.772   3.115   4.558
 4436TIP3    H113314   3.823   3.047   4.509
 4436TIP3    H213315   3.769   3.189   4.494
 4437TIP3   OH213316   3.596   3.412   4.751
 4437TIP3    H113317   3.524   3.455   4.801
 4437TIP3    H213318   3.547   3.367   4.679
 4438TIP3   OH213319   3.644   2.627   3.774
 4438TIP3    H113320   3.576   2.634   3.703
 4438TIP3    H213321   3.621   2.706   3.826
 4439TIP3   OH213322   3.533   2.300   3.725
 4439TIP3    H113323   3.462   2.359   3.697
 4439TIP3    H213324   3.498   2.210   3.705
 4440TIP3   OH213325   3.524   2.581   4.270
 4440TIP3    H113326   3.531   2.484   4.263
 4440TIP3    H213327   3.509   2.594   4.366
 4441TIP3   OH213328   2.150   2.647   5.022
 4441TIP3    H113329   2.146   2.613   4.929
 4441TIP3    H213330   2.248   2.650   5.035
 4442TIP3   OH213331   3.814   3.002   5.130
 4442TIP3    H113332   3.885   2.936   5.116
 4442TIP3    H213333   3.837   3.071   5.066
 4443TIP3   OH213334   3.995   2.801   5.132
 4443TIP3    H113335   3.920   2.753   5.174
 4443TIP3    H213336   4.068   2.739   5.151
 4444TIP3   OH213337   3.464   2.032   3.680
 4444TIP3    H113338   3.531   2.008   3.747
 4444TIP3    H213339   3.385   1.983   3.711
 4445TIP3   OH213340   3.525   2.297   4.161
 4445TIP3    H113341   3.567   2.209   4.174
 4445TIP3    H213342   3.583   2.334   4.092
 4446TIP3   OH213343   3.682   2.460   4.661
 4446TIP3    H113344   3.767   2.485   4.618
 4446TIP3    H213345   3.697   2.501   4.749
 4447TIP3   OH213346   3.756   2.611   4.889
 4447TIP3    H113347   3.679   2.645   4.937
 4447TIP3    H213348   3.788   2.693   4.844
 4448TIP3   OH213349   2.369   2.334   5.692
 4448TIP3    H113350   2.467   2.331   5.697
 4448TIP3    H213351   2.348   2.246   5.730
 4449TIP3   OH213352   4.211   2.209   5.444
 4449TIP3    H113353   4.266   2.142   5.399
 4449TIP3    H213354   4.175   2.260   5.369
 4450TIP3   OH213355   3.633   2.045   4.200
 4450TIP3    H113356   3.679   2.027   4.285
 4450TIP3    H213357   3.570   1.970   4.197
 4451TIP3   OH213358   2.332   2.030   5.029
 4451TIP3    H113359   2.394   1.954   5.033
 4451TIP3    H213360   2.394   2.103   5.015
 4452TIP3   OH213361   2.131   2.303   5.095
 4452TIP3    H113362   2.179   2.293   5.010
 4452TIP3    H213363   2.160   2.390   5.123
 4453TIP3   OH213364   4.070   2.337   5.252
 4453TIP3    H113365   3.986   2.382   5.272
 4453TIP3    H213366   4.038   2.267   5.193
 4454TIP3   OH213367   3.701   1.978   3.831
 4454TIP3    H113368   3.748   1.908   3.782
 4454TIP3    H213369   3.766   2.050   3.833
 4455TIP3   OH213370   2.118   1.810   4.600
 4455TIP3    H113371   2.024   1.800   4.624
 4455TIP3    H213372   2.112   1.866   4.519
 4456TIP3   OH213373   3.277   3.514   4.104
 4456TIP3    H113374   3.325   3.498   4.020
 4456TIP3    H213375   3.336   3.576   4.149
 4457TIP3   OH213376   2.338   1.888   5.414
 4457TIP3    H113377   2.284   1.883   5.494
 4457TIP3    H213378   2.273   1.923   5.350
 4458TIP3   OH213379   2.376   3.314   5.484
 4458TIP3    H113380   2.283   3.288   5.470
 4458TIP3    H213381   2.387   3.301   5.579
 4459TIP3   OH213382   2.561   3.355   5.041
 4459TIP3    H113383   2.514   3.431   5.001
 4459TIP3    H213384   2.646   3.363   4.993
 4460TIP3   OH213385   2.994   3.590   5.170
 4460TIP3    H113386   3.037   3.590   5.258
 4460TIP3    H213387   3.059   3.642   5.118
 4461TIP3   OH213388   3.175   3.745   5.036
 4461TIP3    H113389   3.245   3.697   4.989
 4461TIP3    H213390   3.229   3.803   5.095
 4462TIP3   OH213391   3.972   2.100   5.131
 4462TIP3    H113392   3.882   2.090   5.095
 4462TIP3    H213393   4.007   2.009   5.120
 4463TIP3   OH213394   2.459   3.584   4.921
 4463TIP3    H113395   2.389   3.648   4.940
 4463TIP3    H213396   2.468   3.594   4.825
 4464TIP3   OH213397   2.895   3.606   4.721
 4464TIP3    H113398   2.824   3.623   4.655
 4464TIP3    H213399   2.908   3.695   4.759
 4465TIP3   OH213400   3.164   3.547   4.772
 4465TIP3    H113401   3.070   3.563   4.751
 4465TIP3    H213402   3.207   3.617   4.721
 4466TIP3   OH213403   3.366   3.738   4.678
 4466TIP3    H113404   3.353   3.823   4.631
 4466TIP3    H213405   3.393   3.679   4.605
 4467TIP3   OH213406   2.620   3.382   4.654
 4467TIP3    H113407   2.603   3.287   4.642
 4467TIP3    H213408   2.661   3.381   4.742
 4468TIP3   OH213409   3.184   2.020   4.761
 4468TIP3    H113410   3.139   1.947   4.806
 4468TIP3    H213411   3.252   1.974   4.709
 4469TIP3   OH213412   3.697   1.903   4.655
 4469TIP3    H113413   3.732   1.953   4.579
 4469TIP3    H213414   3.601   1.921   4.648
 4470TIP3   OH213415   3.795   1.994   4.418
 4470TIP3    H113416   3.869   1.942   4.380
 4470TIP3    H213417   3.830   2.085   4.404
 4471TIP3   OH213418   2.426   1.725   4.767
 4471TIP3    H113419   2.333   1.693   4.768
 4471TIP3    H213420   2.473   1.639   4.761
 4472TIP3   OH213421   2.226   1.601   4.420
 4472TIP3    H113422   2.249   1.655   4.342
 4472TIP3    H213423   2.193   1.667   4.483
 4473TIP3   OH213424   2.877   1.757   4.647
 4473TIP3    H113425   2.931   1.805   4.583
 4473TIP3    H213426   2.903   1.798   4.731
 4474TIP3   OH213427   3.414   1.907   4.631
 4474TIP3    H113428   3.413   1.867   4.543
 4474TIP3    H213429   3.405   1.828   4.689
 4475TIP3   OH213430   3.449   1.834   4.195
 4475TIP3    H113431   3.365   1.879   4.214
 4475TIP3    H213432   3.433   1.747   4.238
 4476TIP3   OH213433   1.930   3.183   4.189
 4476TIP3    H113434   1.847   3.140   4.161
 4476TIP3    H213435   1.914   3.273   4.154
 4477TIP3   OH213436   2.334   1.754   4.179
 4477TIP3    H113437   2.382   1.692   4.120
 4477TIP3    H213438   2.408   1.809   4.213
 4478TIP3   OH213439   2.839   1.934   4.276
 4478TIP3    H113440   2.900   1.888   4.337
 4478TIP3    H213441   2.860   2.028   4.300
 4479TIP3   OH213442   2.695   3.360   3.797
 4479TIP3    H113443   2.781   3.358   3.750
 4479TIP3    H213444   2.633   3.342   3.724
 4480TIP3   OH213445   3.421   3.471   3.872
 4480TIP3    H113446   3.418   3.375   3.852
 4480TIP3    H213447   3.383   3.506   3.788
 4481TIP3   OH213448   2.633   2.008   5.661
 4481TIP3    H113449   2.600   1.936   5.718
 4481TIP3    H213450   2.727   2.007   5.686
 4482TIP3   OH213451   2.888   2.007   5.773
 4482TIP3    H113452   2.971   1.978   5.732
 4482TIP3    H213453   2.875   1.937   5.841
 4483TIP3   OH213454   2.002   3.189   3.831
 4483TIP3    H113455   2.013   3.188   3.927
 4483TIP3    H213456   2.085   3.144   3.802
 4484TIP3   OH213457   3.712   2.072   5.563
 4484TIP3    H113458   3.730   2.040   5.654
 4484TIP3    H213459   3.800   2.065   5.522
 4485TIP3   OH213460   3.644   3.618   5.057
 4485TIP3    H113461   3.566   3.589   5.005
 4485TIP3    H213462   3.626   3.714   5.062
 4486TIP3   OH213463   4.921   3.000   3.814
 4486TIP3    H113464   4.883   3.087   3.787
 4486TIP3    H213465   4.847   2.942   3.788
 4487TIP3   OH213466   4.881   2.997   4.221
 4487TIP3    H113467   4.942   2.970   4.292
 4487TIP3    H213468   4.852   2.912   4.185
 4488TIP3   OH213469   4.211   2.884   4.569
 4488TIP3    H113470   4.243   2.816   4.632
 4488TIP3    H213471   4.290   2.938   4.557
 4489TIP3   OH213472   5.167   3.290   3.886
 4489TIP3    H113473   5.092   3.252   3.933
 4489TIP3    H213474   5.191   3.367   3.940
 4490TIP3   OH213475   4.189   3.300   4.293
 4490TIP3    H113476   4.179   3.202   4.292
 4490TIP3    H213477   4.286   3.307   4.279
 4491TIP3   OH213478   3.893   2.497   4.077
 4491TIP3    H113479   3.845   2.581   4.094
 4491TIP3    H213480   3.823   2.449   4.028
 4492TIP3   OH213481   3.949   2.788   4.258
 4492TIP3    H113482   4.002   2.711   4.288
 4492TIP3    H213483   4.004   2.825   4.187
 4493TIP3   OH213484   4.823   3.781   3.907
 4493TIP3    H113485   4.859   3.715   3.844
 4493TIP3    H213486   4.796   3.726   3.980
 4494TIP3   OH213487   4.708   3.219   4.251
 4494TIP3    H113488   4.750   3.137   4.218
 4494TIP3    H213489   4.788   3.269   4.273
 4495TIP3   OH213490   5.739   2.532   4.236
 4495TIP3    H113491   5.752   2.610   4.293
 4495TIP3    H213492   5.778   2.562   4.152
 4496TIP3   OH213493   5.212   2.733   4.237
 4496TIP3    H113494   5.196   2.644   4.278
 4496TIP3    H213495   5.138   2.731   4.171
 4497TIP3   OH213496   4.470   2.378   4.245
 4497TIP3    H113497   4.447   2.451   4.183
 4497TIP3    H213498   4.419   2.305   4.204
 4498TIP3   OH213499   5.163   2.473   3.869
 4498TIP3    H113500   5.234   2.463   3.937
 4498TIP3    H213501   5.214   2.506   3.794
 4499TIP3   OH213502   4.097   2.579   4.359
 4499TIP3    H113503   4.181   2.561   4.404
 4499TIP3    H213504   4.110   2.526   4.277
 4500TIP3   OH213505   4.535   2.778   4.156
 4500TIP3    H113506   4.630   2.754   4.164
 4500TIP3    H213507   4.496   2.695   4.120
 4501TIP3   OH213508   5.801   2.746   4.410
 4501TIP3    H113509   5.712   2.780   4.394
 4501TIP3    H213510   5.784   2.709   4.499
 4502TIP3   OH213511   4.459   2.364   4.685
 4502TIP3    H113512   4.403   2.400   4.614
 4502TIP3    H213513   4.403   2.383   4.763
 4503TIP3   OH213514   4.807   3.213   3.686
 4503TIP3    H113515   4.759   3.193   3.604
 4503TIP3    H213516   4.762   3.296   3.713
 4504TIP3   OH213517   4.566   3.139   4.474
 4504TIP3    H113518   4.505   3.208   4.508
 4504TIP3    H213519   4.608   3.185   4.398
 4505TIP3   OH213520   5.364   2.486   4.060
 4505TIP3    H113521   5.326   2.444   4.139
 4505TIP3    H213522   5.457   2.465   4.066
 4506TIP3   OH213523   4.335   2.476   4.465
 4506TIP3    H113524   4.396   2.551   4.487
 4506TIP3    H213525   4.384   2.437   4.389
 4507TIP3   OH213526   4.398   3.337   4.574
 4507TIP3    H113527   4.372   3.423   4.537
 4507TIP3    H213528   4.319   3.319   4.629
 4508TIP3   OH213529   3.784   3.021   3.829
 4508TIP3    H113530   3.752   3.030   3.736
 4508TIP3    H213531   3.817   3.111   3.847
 4509TIP3   OH213532   5.228   3.535   4.054
 4509TIP3    H113533   5.140   3.527   4.096
 4509TIP3    H213534   5.219   3.621   4.009
 4510TIP3   OH213535   4.812   2.077   4.400
 4510TIP3    H113536   4.796   1.982   4.418
 4510TIP3    H213537   4.735   2.116   4.447
 4511TIP3   OH213538   4.934   3.599   3.723
 4511TIP3    H113539   4.980   3.514   3.702
 4511TIP3    H213540   4.998   3.663   3.689
 4512TIP3   OH213541   5.069   3.374   3.639
 4512TIP3    H113542   5.027   3.297   3.599
 4512TIP3    H213543   5.115   3.334   3.715
 4513TIP3   OH213544   5.456   3.450   4.393
 4513TIP3    H113545   5.452   3.375   4.331
 4513TIP3    H213546   5.438   3.526   4.333
 4514TIP3   OH213547   4.750   2.844   3.659
 4514TIP3    H113548   4.667   2.895   3.648
 4514TIP3    H213549   4.785   2.844   3.568
 4515TIP3   OH213550   4.703   2.634   3.362
 4515TIP3    H113551   4.769   2.684   3.413
 4515TIP3    H213552   4.760   2.570   3.316
 4516TIP3   OH213553   5.659   3.100   4.244
 4516TIP3    H113554   5.572   3.144   4.243
 4516TIP3    H213555   5.689   3.119   4.152
 4517TIP3   OH213556   5.094   2.929   3.617
 4517TIP3    H113557   5.037   2.956   3.693
 4517TIP3    H213558   5.177   2.906   3.662
 4518TIP3   OH213559   5.332   2.978   4.540
 4518TIP3    H113560   5.328   3.057   4.598
 4518TIP3    H213561   5.238   2.971   4.513
 4519TIP3   OH213562   4.323   2.922   4.043
 4519TIP3    H113563   4.280   2.864   3.976
 4519TIP3    H213564   4.400   2.869   4.070
 4520TIP3   OH213565   4.451   3.337   4.184
 4520TIP3    H113566   4.427   3.307   4.095
 4520TIP3    H213567   4.539   3.296   4.198
 4521TIP3   OH213568   4.461   2.894   4.398
 4521TIP3    H113569   4.491   2.870   4.308
 4521TIP3    H213570   4.502   2.982   4.412
 4522TIP3   OH213571   4.992   3.531   4.177
 4522TIP3    H113572   4.971   3.613   4.226
 4522TIP3    H213573   4.972   3.461   4.242
 4523TIP3   OH213574   4.601   3.450   4.721
 4523TIP3    H113575   4.540   3.512   4.767
 4523TIP3    H213576   4.536   3.398   4.669
 4524TIP3   OH213577   4.933   2.781   3.449
 4524TIP3    H113578   4.989   2.844   3.498
 4524TIP3    H213579   4.957   2.803   3.356
 4525TIP3   OH213580   4.357   3.000   4.833
 4525TIP3    H113581   4.362   3.092   4.868
 4525TIP3    H213582   4.260   2.985   4.840
 4526TIP3   OH213583   4.687   3.460   3.719
 4526TIP3    H113584   4.757   3.525   3.735
 4526TIP3    H213585   4.613   3.513   3.687
 4527TIP3   OH213586   4.394   3.614   4.808
 4527TIP3    H113587   4.360   3.618   4.717
 4527TIP3    H213588   4.313   3.594   4.860
 4528TIP3   OH213589   5.448   2.022   3.502
 4528TIP3    H113590   5.367   2.045   3.551
 4528TIP3    H213591   5.462   2.104   3.449
 4529TIP3   OH213592   4.190   2.762   3.857
 4529TIP3    H113593   4.124   2.814   3.805
 4529TIP3    H213594   4.149   2.675   3.854
 4530TIP3   OH213595   5.249   3.393   3.052
 4530TIP3    H113596   5.255   3.489   3.033
 4530TIP3    H213597   5.342   3.365   3.037
 4531TIP3   OH213598   3.971   3.152   4.755
 4531TIP3    H113599   3.904   3.135   4.686
 4531TIP3    H213600   4.009   3.063   4.771
 4532TIP3   OH213601   3.828   3.340   4.391
 4532TIP3    H113602   3.924   3.340   4.375
 4532TIP3    H213603   3.817   3.422   4.442
 4533TIP3   OH213604   5.693   3.800   4.446
 4533TIP3    H113605   5.692   3.704   4.464
 4533TIP3    H213606   5.609   3.826   4.490
 4534TIP3   OH213607   4.797   3.580   4.578
 4534TIP3    H113608   4.792   3.674   4.609
 4534TIP3    H213609   4.725   3.540   4.632
 4535TIP3   OH213610   4.564   3.711   3.530
 4535TIP3    H113611   4.516   3.697   3.445
 4535TIP3    H213612   4.528   3.796   3.559
 4536TIP3   OH213613   3.991   3.560   3.916
 4536TIP3    H113614   4.039   3.546   4.001
 4536TIP3    H213615   3.943   3.475   3.907
 4537TIP3   OH213616   4.752   3.604   3.171
 4537TIP3    H113617   4.812   3.538   3.129
 4537TIP3    H213618   4.796   3.617   3.258
 4538TIP3   OH213619   4.815   3.658   3.443
 4538TIP3    H113620   4.725   3.675   3.478
 4538TIP3    H213621   4.855   3.610   3.517
 4539TIP3   OH213622   5.567   2.917   4.704
 4539TIP3    H113623   5.478   2.929   4.668
 4539TIP3    H213624   5.578   2.820   4.691
 4540TIP3   OH213625   4.179   3.333   4.736
 4540TIP3    H113626   4.225   3.318   4.821
 4540TIP3    H213627   4.102   3.272   4.744
 4541TIP3   OH213628   4.576   2.156   4.532
 4541TIP3    H113629   4.487   2.126   4.501
 4541TIP3    H213630   4.549   2.238   4.579
 4542TIP3   OH213631   5.105   2.268   4.726
 4542TIP3    H113632   5.177   2.244   4.787
 4542TIP3    H213633   5.024   2.248   4.779
 4543TIP3   OH213634   5.009   2.822   3.193
 4543TIP3    H113635   4.975   2.802   3.103
 4543TIP3    H213636   5.092   2.869   3.171
 4544TIP3   OH213637   4.722   2.201   3.499
 4544TIP3    H113638   4.686   2.202   3.590
 4544TIP3    H213639   4.679   2.120   3.465
 4545TIP3   OH213640   4.511   2.673   4.547
 4545TIP3    H113641   4.458   2.691   4.627
 4545TIP3    H213642   4.494   2.754   4.494
 4546TIP3   OH213643   4.394   2.559   4.060
 4546TIP3    H113644   4.300   2.538   4.077
 4546TIP3    H213645   4.404   2.520   3.971
 4547TIP3   OH213646   4.883   2.645   3.791
 4547TIP3    H113647   4.831   2.716   3.746
 4547TIP3    H213648   4.936   2.610   3.717
 4548TIP3   OH213649   5.055   2.915   4.870
 4548TIP3    H113650   5.035   2.844   4.934
 4548TIP3    H213651   5.149   2.932   4.891
 4549TIP3   OH213652   5.024   2.663   4.033
 4549TIP3    H113653   4.965   2.689   3.959
 4549TIP3    H213654   5.067   2.587   3.989
 4550TIP3   OH213655   4.331   2.702   4.753
 4550TIP3    H113656   4.349   2.770   4.820
 4550TIP3    H213657   4.315   2.623   4.807
 4551TIP3   OH213658   4.380   2.181   3.466
 4551TIP3    H113659   4.368   2.180   3.563
 4551TIP3    H213660   4.302   2.234   3.439
 4552TIP3   OH213661   3.922   2.217   4.339
 4552TIP3    H113662   3.994   2.254   4.394
 4552TIP3    H213663   3.964   2.198   4.255
 4553TIP3   OH213664   3.879   2.202   3.852
 4553TIP3    H113665   3.921   2.241   3.772
 4553TIP3    H213666   3.822   2.278   3.877
 4554TIP3   OH213667   5.060   2.909   4.436
 4554TIP3    H113668   5.104   2.840   4.385
 4554TIP3    H213669   5.027   2.859   4.513
 4555TIP3   OH213670   4.727   2.375   4.119
 4555TIP3    H113671   4.645   2.377   4.172
 4555TIP3    H213672   4.795   2.371   4.189
 4556TIP3   OH213673   4.154   2.440   4.128
 4556TIP3    H113674   4.060   2.448   4.099
 4556TIP3    H213675   4.177   2.349   4.102
 4557TIP3   OH213676   4.419   2.431   3.821
 4557TIP3    H113677   4.511   2.452   3.795
 4557TIP3    H213678   4.368   2.454   3.739
 4558TIP3   OH213679   5.177   2.473   4.311
 4558TIP3    H113680   5.174   2.474   4.409
 4558TIP3    H213681   5.109   2.406   4.291
 4559TIP3   OH213682   4.270   2.457   3.596
 4559TIP3    H113683   4.196   2.421   3.544
 4559TIP3    H213684   4.322   2.501   3.525
 4560TIP3   OH213685   5.387   4.145   4.546
 4560TIP3    H113686   5.384   4.174   4.454
 4560TIP3    H213687   5.468   4.190   4.578
 4561TIP3   OH213688   4.340   3.253   4.963
 4561TIP3    H113689   4.419   3.285   5.010
 4561TIP3    H213690   4.274   3.256   5.034
 4562TIP3   OH213691   4.805   2.710   4.219
 4562TIP3    H113692   4.875   2.668   4.166
 4562TIP3    H213693   4.807   2.660   4.302
 4563TIP3   OH213694   4.319   2.195   4.104
 4563TIP3    H113695   4.284   2.117   4.152
 4563TIP3    H213696   4.356   2.155   4.024
 4564TIP3   OH213697   4.780   2.610   4.508
 4564TIP3    H113698   4.689   2.644   4.522
 4564TIP3    H213699   4.836   2.672   4.559
 4565TIP3   OH213700   4.531   3.001   3.611
 4565TIP3    H113701   4.462   2.932   3.599
 4565TIP3    H213702   4.503   3.038   3.698
 4566TIP3   OH213703   5.417   3.235   4.220
 4566TIP3    H113704   5.449   3.284   4.141
 4566TIP3    H213705   5.321   3.245   4.212
 4567TIP3   OH213706   4.972   2.304   3.474
 4567TIP3    H113707   4.876   2.284   3.481
 4567TIP3    H213708   4.977   2.399   3.496
 4568TIP3   OH213709   4.913   3.320   4.604
 4568TIP3    H113710   4.943   3.303   4.695
 4568TIP3    H213711   4.873   3.408   4.611
 4569TIP3   OH213712   5.039   2.557   3.573
 4569TIP3    H113713   5.136   2.567   3.582
 4569TIP3    H213714   5.015   2.635   3.520
 4570TIP3   OH213715   4.210   3.023   4.276
 4570TIP3    H113716   4.246   2.995   4.189
 4570TIP3    H213717   4.253   2.960   4.336
 4571TIP3   OH213718   4.657   3.156   3.424
 4571TIP3    H113719   4.601   3.237   3.426
 4571TIP3    H213720   4.606   3.097   3.485
 4572TIP3   OH213721   4.092   2.934   4.891
 4572TIP3    H113722   4.104   2.921   4.987
 4572TIP3    H213723   4.019   2.874   4.871
 4573TIP3   OH213724   4.817   3.058   4.912
 4573TIP3    H113725   4.755   3.001   4.865
 4573TIP3    H213726   4.903   3.021   4.883
 4574TIP3   OH213727   5.073   3.577   4.496
 4574TIP3    H113728   4.976   3.575   4.511
 4574TIP3    H213729   5.102   3.627   4.575
 4575TIP3   OH213730   5.477   2.651   3.405
 4575TIP3    H113731   5.417   2.607   3.340
 4575TIP3    H213732   5.474   2.741   3.364
 4576TIP3   OH213733   5.704   3.509   4.486
 4576TIP3    H113734   5.606   3.502   4.479
 4576TIP3    H213735   5.729   3.479   4.396
 4577TIP3   OH213736   5.191   3.464   3.316
 4577TIP3    H113737   5.156   3.393   3.370
 4577TIP3    H213738   5.201   3.423   3.229
 4578TIP3   OH213739   4.312   3.323   3.919
 4578TIP3    H113740   4.308   3.408   3.869
 4578TIP3    H213741   4.221   3.294   3.911
 4579TIP3   OH213742   3.872   2.620   3.604
 4579TIP3    H113743   3.913   2.707   3.590
 4579TIP3    H213744   3.802   2.641   3.668
 4580TIP3   OH213745   4.448   3.091   3.854
 4580TIP3    H113746   4.410   3.179   3.870
 4580TIP3    H213747   4.404   3.038   3.923
 4581TIP3   OH213748   4.581   3.664   4.373
 4581TIP3    H113749   4.620   3.738   4.323
 4581TIP3    H213750   4.659   3.630   4.420
 4582TIP3   OH213751   4.247   3.561   3.796
 4582TIP3    H113752   4.150   3.568   3.809
 4582TIP3    H213753   4.268   3.651   3.766
 4583TIP3   OH213754   4.960   3.303   4.338
 4583TIP3    H113755   4.945   3.311   4.435
 4583TIP3    H213756   5.018   3.226   4.336
 4584TIP3   OH213757   4.943   3.196   3.214
 4584TIP3    H113758   4.994   3.173   3.295
 4584TIP3    H213759   4.853   3.169   3.240
 4585TIP3   OH213760   5.214   3.830   4.381
 4585TIP3    H113761   5.134   3.773   4.378
 4585TIP3    H213762   5.193   3.895   4.311
 4586TIP3   OH213763   5.276   3.668   3.028
 4586TIP3    H113764   5.298   3.734   2.960
 4586TIP3    H213765   5.198   3.712   3.068
 4587TIP3   OH213766   4.290   2.445   4.894
 4587TIP3    H113767   4.193   2.454   4.901
 4587TIP3    H213768   4.309   2.386   4.968
 4588TIP3   OH213769   5.105   3.134   3.429
 4588TIP3    H113770   5.093   3.065   3.497
 4588TIP3    H213771   5.202   3.129   3.416
 4589TIP3   OH213772   4.017   3.530   4.529
 4589TIP3    H113773   4.071   3.458   4.564
 4589TIP3    H213774   4.044   3.604   4.585
 4590TIP3   OH213775   4.235   3.195   3.465
 4590TIP3    H113776   4.315   3.210   3.517
 4590TIP3    H213777   4.221   3.281   3.419
 4591TIP3   OH213778   3.988   2.868   3.712
 4591TIP3    H113779   3.917   2.912   3.762
 4591TIP3    H213780   4.002   2.936   3.642
 4592TIP3   OH213781   5.158   2.504   4.585
 4592TIP3    H113782   5.213   2.547   4.652
 4592TIP3    H213783   5.131   2.423   4.632
 4593TIP3   OH213784   5.022   2.254   3.753
 4593TIP3    H113785   5.004   2.275   3.659
 4593TIP3    H213786   5.060   2.337   3.787
 4594TIP3   OH213787   4.495   3.382   3.422
 4594TIP3    H113788   4.399   3.398   3.414
 4594TIP3    H213789   4.530   3.471   3.416
 4595TIP3   OH213790   4.706   2.440   3.850
 4595TIP3    H113791   4.767   2.515   3.833
 4595TIP3    H213792   4.711   2.433   3.948
 4596TIP3   OH213793   4.984   2.755   4.651
 4596TIP3    H113794   5.001   2.813   4.728
 4596TIP3    H213795   5.041   2.680   4.672
 4597TIP3   OH213796   4.846   2.159   3.950
 4597TIP3    H113797   4.830   2.239   4.003
 4597TIP3    H213798   4.910   2.193   3.884
 4598TIP3   OH213799   4.361   2.165   3.742
 4598TIP3    H113800   4.355   2.257   3.776
 4598TIP3    H213801   4.458   2.152   3.749
 4599TIP3   OH213802   3.992   3.078   3.540
 4599TIP3    H113803   4.057   3.149   3.524
 4599TIP3    H213804   4.006   3.024   3.459
 4600TIP3   OH213805   3.922   2.354   3.630
 4600TIP3    H113806   3.930   2.452   3.633
 4600TIP3    H213807   3.854   2.347   3.563
 4601TIP3   OH213808   5.230   3.814   3.969
 4601TIP3    H113809   5.197   3.798   3.880
 4601TIP3    H213810   5.324   3.840   3.950
 4602TIP3   OH213811   4.312   2.076   4.498
 4602TIP3    H113812   4.281   2.044   4.411
 4602TIP3    H213813   4.300   1.997   4.554
 4603TIP3   OH213814   3.852   3.302   3.877
 4603TIP3    H113815   3.777   3.329   3.932
 4603TIP3    H213816   3.824   3.342   3.791
 4604TIP3   OH213817   4.011   3.848   4.952
 4604TIP3    H113818   4.096   3.850   5.002
 4604TIP3    H213819   3.993   3.753   4.952
 4605TIP3   OH213820   4.482   3.796   4.998
 4605TIP3    H113821   4.577   3.784   5.006
 4605TIP3    H213822   4.460   3.733   4.927
 4606TIP3   OH213823   5.131   3.707   4.728
 4606TIP3    H113824   5.123   3.639   4.799
 4606TIP3    H213825   5.205   3.762   4.761
 4607TIP3   OH213826   4.898   3.413   3.038
 4607TIP3    H113827   4.940   3.346   3.095
 4607TIP3    H213828   4.954   3.415   2.959
 4608TIP3   OH213829   4.136   3.246   5.152
 4608TIP3    H113830   4.152   3.149   5.158
 4608TIP3    H213831   4.049   3.249   5.108
 4609TIP3   OH213832   4.745   3.335   4.927
 4609TIP3    H113833   4.701   3.356   4.843
 4609TIP3    H213834   4.775   3.242   4.914
 4610TIP3   OH213835   4.623   3.093   3.151
 4610TIP3    H113836   4.621   3.108   3.248
 4610TIP3    H213837   4.615   2.996   3.147
 4611TIP3   OH213838   5.237   3.343   4.527
 4611TIP3    H113839   5.312   3.391   4.489
 4611TIP3    H213840   5.165   3.409   4.516
 4612TIP3   OH213841   4.254   2.982   5.143
 4612TIP3    H113842   4.334   2.941   5.108
 4612TIP3    H213843   4.285   3.015   5.230
 4613TIP3   OH213844   4.364   2.789   3.599
 4613TIP3    H113845   4.292   2.763   3.658
 4613TIP3    H213846   4.365   2.719   3.532
 4614TIP3   OH213847   4.596   2.863   4.804
 4614TIP3    H113848   4.516   2.920   4.807
 4614TIP3    H213849   4.641   2.897   4.723
 4615TIP3   OH213850   4.425   2.585   3.412
 4615TIP3    H113851   4.396   2.587   3.318
 4615TIP3    H213852   4.520   2.601   3.402
 4616TIP3   OH213853   5.108   3.264   4.927
 4616TIP3    H113854   5.190   3.236   4.885
 4616TIP3    H213855   5.102   3.203   5.002
 4617TIP3   OH213856   5.243   2.920   3.078
 4617TIP3    H113857   5.223   2.877   2.993
 4617TIP3    H213858   5.212   3.011   3.058
 4618TIP3   OH213859   4.722   2.652   4.920
 4618TIP3    H113860   4.719   2.576   4.858
 4618TIP3    H213861   4.677   2.722   4.867
 4619TIP3   OH213862   4.719   2.440   4.733
 4619TIP3    H113863   4.747   2.479   4.648
 4619TIP3    H213864   4.626   2.416   4.713
 4620TIP3   OH213865   4.740   2.975   4.606
 4620TIP3    H113866   4.823   2.988   4.559
 4620TIP3    H213867   4.681   3.039   4.560
 4621TIP3   OH213868   5.325   2.934   4.980
 4621TIP3    H113869   5.373   2.850   4.979
 4621TIP3    H213870   5.392   2.996   4.949
 4622TIP3   OH213871   5.364   3.200   4.719
 4622TIP3    H113872   5.307   3.255   4.659
 4622TIP3    H213873   5.452   3.218   4.680
 4623TIP3   OH213874   4.605   2.749   5.159
 4623TIP3    H113875   4.529   2.688   5.172
 4623TIP3    H213876   4.629   2.732   5.066
 4624TIP3   OH213877   4.850   2.208   4.828
 4624TIP3    H113878   4.803   2.287   4.797
 4624TIP3    H213879   4.785   2.138   4.810
 4625TIP3   OH213880   4.980   2.696   5.017
 4625TIP3    H113881   4.964   2.694   5.113
 4625TIP3    H213882   4.889   2.679   4.984
 4626TIP3   OH213883   5.202   2.629   4.847
 4626TIP3    H113884   5.139   2.649   4.919
 4626TIP3    H213885   5.286   2.621   4.895
 4627TIP3   OH213886   5.427   2.602   5.020
 4627TIP3    H113887   5.452   2.508   5.030
 4627TIP3    H213888   5.438   2.637   5.111
 4628TIP3   OH213889   4.429   2.540   5.214
 4628TIP3    H113890   4.426   2.446   5.186
 4628TIP3    H213891   4.467   2.530   5.304
 4629TIP3   OH213892   4.935   2.359   5.172
 4629TIP3    H113893   4.982   2.401   5.100
 4629TIP3    H213894   4.879   2.435   5.201
 4630TIP3   OH213895   3.725   3.014   3.564
 4630TIP3    H113896   3.810   3.057   3.543
 4630TIP3    H213897   3.721   2.948   3.494
 4631TIP3   OH213898   3.622   3.652   3.953
 4631TIP3    H113899   3.565   3.588   3.905
 4631TIP3    H213900   3.670   3.591   4.014
 4632TIP3   OH213901   3.758   3.496   4.135
 4632TIP3    H113902   3.748   3.423   4.198
 4632TIP3    H213903   3.813   3.557   4.187
 4633TIP3   OH213904   5.484   3.905   3.933
 4633TIP3    H113905   5.514   3.934   4.021
 4633TIP3    H213906   5.555   3.938   3.875
 4634TIP3   OH213907   5.521   3.917   4.217
 4634TIP3    H113908   5.475   3.830   4.214
 4634TIP3    H213909   5.593   3.895   4.278
 4635TIP3   OH213910   5.564   3.596   4.788
 4635TIP3    H113911   5.493   3.605   4.854
 4635TIP3    H213912   5.608   3.684   4.794
 4636TIP3   OH213913   5.384   3.108   3.406
 4636TIP3    H113914   5.447   3.175   3.375
 4636TIP3    H213915   5.430   3.071   3.484
 4637TIP3   OH213916   5.510   2.973   3.613
 4637TIP3    H113917   5.444   2.933   3.673
 4637TIP3    H213918   5.576   3.010   3.675
 4638TIP3   OH213919   5.567   3.374   4.042
 4638TIP3    H113920   5.623   3.308   3.996
 4638TIP3    H213921   5.565   3.448   3.977
 4639TIP3   OH213922   5.392   3.670   4.237
 4639TIP3    H113923   5.322   3.711   4.292
 4639TIP3    H213924   5.340   3.622   4.169
 4640TIP3   OH213925   5.446   2.885   3.257
 4640TIP3    H113926   5.374   2.886   3.190
 4640TIP3    H213927   5.419   2.962   3.311
 4641TIP3   OH213928   5.317   2.555   3.209
 4641TIP3    H113929   5.270   2.592   3.134
 4641TIP3    H213930   5.296   2.460   3.200
 4642TIP3   OH213931   5.316   2.823   3.754
 4642TIP3    H113932   5.328   2.731   3.722
 4642TIP3    H213933   5.283   2.809   3.843
 4643TIP3   OH213934   3.946   2.901   4.509
 4643TIP3    H113935   3.941   2.869   4.416
 4643TIP3    H213936   4.044   2.905   4.521
 4644TIP3   OH213937   5.612   3.259   4.616
 4644TIP3    H113938   5.680   3.188   4.606
 4644TIP3    H213939   5.644   3.327   4.554
 4645TIP3   OH213940   5.788   3.054   4.620
 4645TIP3    H113941   5.713   3.001   4.654
 4645TIP3    H213942   5.862   2.994   4.644
 4646TIP3   OH213943   5.260   2.289   3.192
 4646TIP3    H113944   5.330   2.256   3.251
 4646TIP3    H213945   5.184   2.233   3.212
 4647TIP3   OH213946   5.326   2.558   3.646
 4647TIP3    H113947   5.364   2.469   3.662
 4647TIP3    H213948   5.379   2.586   3.570
 4648TIP3   OH213949   5.507   2.882   4.345
 4648TIP3    H113950   5.469   2.906   4.433
 4648TIP3    H213951   5.575   2.953   4.335
 4649TIP3   OH213952   4.161   2.589   5.175
 4649TIP3    H113953   4.259   2.588   5.183
 4649TIP3    H213954   4.140   2.503   5.216
 4650TIP3   OH213955   6.003   2.458   4.929
 4650TIP3    H113956   6.060   2.392   4.883
 4650TIP3    H213957   5.974   2.514   4.853
 4651TIP3   OH213958   5.425   2.304   3.690
 4651TIP3    H113959   5.474   2.283   3.772
 4651TIP3    H213960   5.364   2.228   3.685
 4652TIP3   OH213961   4.128   2.286   4.512
 4652TIP3    H113962   4.191   2.211   4.517
 4652TIP3    H213963   4.190   2.361   4.501
 4653TIP3   OH213964   3.927   2.557   4.582
 4653TIP3    H113965   3.976   2.554   4.498
 4653TIP3    H213966   3.949   2.646   4.613
 4654TIP3   OH213967   5.875   2.608   4.739
 4654TIP3    H113968   5.784   2.644   4.747
 4654TIP3    H213969   5.853   2.529   4.685
 4655TIP3   OH213970   5.503   2.229   3.326
 4655TIP3    H113971   5.543   2.162   3.267
 4655TIP3    H213972   5.568   2.302   3.321
 4656TIP3   OH213973   3.913   2.057   4.079
 4656TIP3    H113974   3.822   2.055   4.113
 4656TIP3    H213975   3.906   2.118   4.003
 4657TIP3   OH213976   5.107   3.782   3.611
 4657TIP3    H113977   5.131   3.745   3.523
 4657TIP3    H213978   5.137   3.874   3.599
 4658TIP3   OH213979   4.134   2.142   4.897
 4658TIP3    H113980   4.080   2.138   4.978
 4658TIP3    H213981   4.069   2.182   4.835
 4659TIP3   OH213982   4.173   3.569   4.971
 4659TIP3    H113983   4.078   3.550   4.958
 4659TIP3    H213984   4.183   3.557   5.066
 4660TIP3   OH213985   4.355   3.608   4.523
 4660TIP3    H113986   4.305   3.683   4.484
 4660TIP3    H213987   4.439   3.621   4.475
 4661TIP3   OH213988   4.791   3.846   4.654
 4661TIP3    H113989   4.832   3.844   4.743
 4661TIP3    H213990   4.856   3.901   4.605
 4662TIP3   OH213991   4.973   4.003   4.519
 4662TIP3    H113992   5.045   3.947   4.487
 4662TIP3    H213993   5.022   4.061   4.581
 4663TIP3   OH213994   5.788   2.368   4.628
 4663TIP3    H113995   5.701   2.407   4.603
 4663TIP3    H213996   5.782   2.274   4.602
 4664TIP3   OH213997   4.029   3.862   4.548
 4664TIP3    H113998   3.938   3.890   4.525
 4664TIP3    H213999   4.043   3.913   4.629
 4665TIP3   OH214000   4.264   3.842   4.406
 4665TIP3    H114001   4.177   3.852   4.450
 4665TIP3    H214002   4.243   3.871   4.315
 4666TIP3   OH214003   4.689   3.863   4.206
 4666TIP3    H114004   4.619   3.879   4.140
 4666TIP3    H214005   4.697   3.952   4.247
 4667TIP3   OH214006   4.957   3.803   4.253
 4667TIP3    H114007   4.861   3.815   4.236
 4667TIP3    H214008   4.993   3.884   4.214
 4668TIP3   OH214009   5.172   4.003   4.163
 4668TIP3    H114010   5.146   4.075   4.104
 4668TIP3    H214011   5.194   3.932   4.098
 4669TIP3   OH214012   3.937   3.653   4.291
 4669TIP3    H114013   3.966   3.623   4.380
 4669TIP3    H214014   4.009   3.613   4.237
 4670TIP3   OH214015   4.133   3.529   4.152
 4670TIP3    H114016   4.149   3.444   4.198
 4670TIP3    H214017   4.225   3.563   4.142
 4671TIP3   OH214018   4.406   3.622   4.153
 4671TIP3    H114019   4.429   3.528   4.139
 4671TIP3    H214020   4.452   3.638   4.237
 4672TIP3   OH214021   4.976   2.273   4.246
 4672TIP3    H114022   4.933   2.199   4.291
 4672TIP3    H214023   5.047   2.228   4.196
 4673TIP3   OH214024   5.493   2.155   4.141
 4673TIP3    H114025   5.531   2.204   4.064
 4673TIP3    H214026   5.398   2.174   4.133
 4674TIP3   OH214027   5.590   2.257   3.907
 4674TIP3    H114028   5.662   2.199   3.872
 4674TIP3    H214029   5.630   2.345   3.888
 4675TIP3   OH214030   4.222   1.981   4.253
 4675TIP3    H114031   4.130   1.949   4.255
 4675TIP3    H214032   4.270   1.896   4.248
 4676TIP3   OH214033   4.011   1.856   3.901
 4676TIP3    H114034   4.041   1.913   3.828
 4676TIP3    H214035   3.982   1.922   3.968
 4677TIP3   OH214036   4.673   2.013   4.134
 4677TIP3    H114037   4.727   2.061   4.070
 4677TIP3    H214038   4.698   2.055   4.217
 4678TIP3   OH214039   5.212   2.162   4.115
 4678TIP3    H114040   5.209   2.119   4.028
 4678TIP3    H214041   5.201   2.085   4.175
 4679TIP3   OH214042   5.245   2.091   3.682
 4679TIP3    H114043   5.160   2.135   3.701
 4679TIP3    H214044   5.230   2.003   3.724
 4680TIP3   OH214045   3.714   3.432   3.685
 4680TIP3    H114046   3.692   3.381   3.607
 4680TIP3    H214047   3.699   3.523   3.651
 4681TIP3   OH214048   4.128   2.011   3.665
 4681TIP3    H114049   4.176   1.952   3.604
 4681TIP3    H214050   4.201   2.067   3.699
 4682TIP3   OH214051   4.637   2.191   3.762
 4682TIP3    H114052   4.697   2.147   3.824
 4682TIP3    H214053   4.656   2.285   3.787
 4683TIP3   OH214054   4.498   3.630   3.273
 4683TIP3    H114055   4.584   3.622   3.226
 4683TIP3    H214056   4.450   3.552   3.244
 4684TIP3   OH214057   5.212   3.732   3.358
 4684TIP3    H114058   5.209   3.635   3.343
 4684TIP3    H214059   5.166   3.765   3.278
 4685TIP3   OH214060   4.423   2.268   5.160
 4685TIP3    H114061   4.392   2.194   5.215
 4685TIP3    H214062   4.515   2.243   5.146
 4686TIP3   OH214063   5.505   2.331   5.049
 4686TIP3    H114064   5.527   2.298   5.139
 4686TIP3    H214065   5.594   2.327   5.006
 4687TIP3   OH214066   5.444   3.875   4.539
 4687TIP3    H114067   5.363   3.845   4.493
 4687TIP3    H214068   5.423   3.970   4.550
 4688TIP3   OH214069   6.617   3.218   3.720
 4688TIP3    H114070   6.708   3.198   3.745
 4688TIP3    H214071   6.588   3.132   3.683
 4689TIP3   OH214072   6.006   3.138   4.056
 4689TIP3    H114073   6.035   3.070   4.119
 4689TIP3    H214074   6.085   3.193   4.051
 4690TIP3   OH214075   5.985   3.556   3.776
 4690TIP3    H114076   5.975   3.458   3.777
 4690TIP3    H214077   6.082   3.563   3.771
 4691TIP3   OH214078   5.687   2.754   3.557
 4691TIP3    H114079   5.638   2.836   3.576
 4691TIP3    H214080   5.617   2.703   3.513
 4692TIP3   OH214081   5.744   3.043   3.744
 4692TIP3    H114082   5.794   2.966   3.779
 4692TIP3    H214083   5.803   3.076   3.675
 4693TIP3   OH214084   6.629   3.975   3.378
 4693TIP3    H114085   6.678   3.892   3.379
 4693TIP3    H214086   6.603   3.983   3.471
 4694TIP3   OH214087   6.501   3.467   3.735
 4694TIP3    H114088   6.531   3.375   3.720
 4694TIP3    H214089   6.583   3.513   3.712
 4695TIP3   OH214090   6.244   2.636   3.736
 4695TIP3    H114091   6.229   2.708   3.672
 4695TIP3    H214092   6.197   2.562   3.692
 4696TIP3   OH214093   5.888   2.836   3.846
 4696TIP3    H114094   5.969   2.816   3.896
 4696TIP3    H214095   5.903   2.780   3.766
 4697TIP3   OH214096   6.309   3.036   3.642
 4697TIP3    H114097   6.400   3.004   3.663
 4697TIP3    H214098   6.270   2.953   3.605
 4698TIP3   OH214099   6.249   2.627   4.176
 4698TIP3    H114100   6.189   2.657   4.106
 4698TIP3    H214101   6.193   2.643   4.255
 4699TIP3   OH214102   6.607   3.483   3.170
 4699TIP3    H114103   6.540   3.452   3.108
 4699TIP3    H214104   6.573   3.571   3.193
 4700TIP3   OH214105   6.368   3.397   3.968
 4700TIP3    H114106   6.302   3.462   4.000
 4700TIP3    H214107   6.406   3.442   3.890
 4701TIP3   OH214108   6.125   2.737   3.956
 4701TIP3    H114109   6.190   2.807   3.978
 4701TIP3    H214110   6.172   2.694   3.880
 4702TIP3   OH214111   6.189   3.587   4.058
 4702TIP3    H114112   6.159   3.674   4.024
 4702TIP3    H214113   6.113   3.566   4.115
 4703TIP3   OH214114   5.580   3.282   3.297
 4703TIP3    H114115   5.539   3.304   3.211
 4703TIP3    H214116   5.608   3.370   3.329
 4704TIP3   OH214117   6.495   3.057   3.142
 4704TIP3    H114118   6.444   3.138   3.127
 4704TIP3    H214119   6.535   3.043   3.054
 4705TIP3   OH214120   6.112   3.185   3.525
 4705TIP3    H114121   6.073   3.125   3.457
 4705TIP3    H214122   6.188   3.131   3.557
 4706TIP3   OH214123   6.253   3.602   3.671
 4706TIP3    H114124   6.227   3.566   3.584
 4706TIP3    H214125   6.337   3.555   3.688
 4707TIP3   OH214126   6.256   3.153   3.887
 4707TIP3    H114127   6.281   3.126   3.796
 4707TIP3    H214128   6.301   3.239   3.898
 4708TIP3   OH214129   6.705   3.827   3.654
 4708TIP3    H114130   6.790   3.845   3.697
 4708TIP3    H214131   6.710   3.731   3.649
 4709TIP3   OH214132   6.394   3.684   4.218
 4709TIP3    H114133   6.342   3.757   4.258
 4709TIP3    H214134   6.325   3.641   4.163
 4710TIP3   OH214135   6.154   3.265   4.312
 4710TIP3    H114136   6.157   3.352   4.355
 4710TIP3    H214137   6.059   3.242   4.327
 4711TIP3   OH214138   6.490   3.743   3.201
 4711TIP3    H114139   6.484   3.820   3.258
 4711TIP3    H214140   6.418   3.758   3.138
 4712TIP3   OH214141   6.189   3.870   4.295
 4712TIP3    H114142   6.147   3.869   4.207
 4712TIP3    H214143   6.112   3.850   4.353
 4713TIP3   OH214144   5.988   3.025   3.329
 4713TIP3    H114145   5.917   3.069   3.276
 4713TIP3    H214146   5.950   2.937   3.342
 4714TIP3   OH214147   5.769   3.407   4.243
 4714TIP3    H114148   5.704   3.386   4.173
 4714TIP3    H214149   5.808   3.320   4.265
 4715TIP3   OH214150   5.624   3.600   3.876
 4715TIP3    H114151   5.720   3.594   3.863
 4715TIP3    H214152   5.617   3.678   3.932
 4716TIP3   OH214153   6.347   3.965   3.022
 4716TIP3    H114154   6.299   3.950   2.938
 4716TIP3    H214155   6.315   4.054   3.048
 4717TIP3   OH214156   5.791   3.811   3.398
 4717TIP3    H114157   5.832   3.802   3.487
 4717TIP3    H214158   5.739   3.729   3.393
 4718TIP3   OH214159   6.568   3.852   2.653
 4718TIP3    H114160   6.639   3.785   2.645
 4718TIP3    H214161   6.581   3.879   2.746
 4719TIP3   OH214162   6.589   3.909   2.918
 4719TIP3    H114163   6.501   3.926   2.960
 4719TIP3    H214164   6.632   3.856   2.986
 4720TIP3   OH214165   5.974   3.590   4.223
 4720TIP3    H114166   6.021   3.577   4.308
 4720TIP3    H214167   5.899   3.527   4.233
 4721TIP3   OH214168   6.356   2.400   4.040
 4721TIP3    H114169   6.267   2.377   4.008
 4721TIP3    H214170   6.341   2.491   4.071
 4722TIP3   OH214171   6.304   2.929   4.033
 4722TIP3    H114172   6.251   2.944   4.114
 4722TIP3    H214173   6.285   3.011   3.982
 4723TIP3   OH214174   6.183   2.815   3.543
 4723TIP3    H114175   6.091   2.785   3.560
 4723TIP3    H214176   6.200   2.776   3.455
 4724TIP3   OH214177   6.127   2.956   4.242
 4724TIP3    H114178   6.136   3.018   4.316
 4724TIP3    H214179   6.110   2.872   4.290
 4725TIP3   OH214180   6.170   2.416   2.954
 4725TIP3    H114181   6.162   2.425   3.052
 4725TIP3    H214182   6.102   2.478   2.923
 4726TIP3   OH214183   5.714   2.478   3.823
 4726TIP3    H114184   5.788   2.515   3.877
 4726TIP3    H214185   5.758   2.451   3.741
 4727TIP3   OH214186   5.676   2.458   3.340
 4727TIP3    H114187   5.722   2.496   3.262
 4727TIP3    H214188   5.615   2.532   3.360
 4728TIP3   OH214189   6.502   2.631   3.636
 4728TIP3    H114190   6.408   2.627   3.662
 4728TIP3    H214191   6.543   2.612   3.722
 4729TIP3   OH214192   5.948   2.693   3.614
 4729TIP3    H114193   5.854   2.700   3.585
 4729TIP3    H214194   5.972   2.602   3.589
 4730TIP3   OH214195   6.217   2.705   3.297
 4730TIP3    H114196   6.298   2.730   3.252
 4730TIP3    H214197   6.151   2.713   3.225
 4731TIP3   OH214198   6.055   2.722   3.082
 4731TIP3    H114199   5.990   2.671   3.030
 4731TIP3    H214200   6.108   2.761   3.010
 4732TIP3   OH214201   6.137   3.513   4.447
 4732TIP3    H114202   6.215   3.544   4.497
 4732TIP3    H214203   6.071   3.510   4.520
 4733TIP3   OH214204   6.554   2.944   3.717
 4733TIP3    H114205   6.596   2.906   3.639
 4733TIP3    H214206   6.606   2.905   3.789
 4734TIP3   OH214207   6.114   2.450   3.585
 4734TIP3    H114208   6.075   2.374   3.634
 4734TIP3    H214209   6.189   2.407   3.541
 4735TIP3   OH214210   6.572   2.864   4.020
 4735TIP3    H114211   6.476   2.876   4.003
 4735TIP3    H214212   6.595   2.952   4.051
 4736TIP3   OH214213   6.300   3.265   3.090
 4736TIP3    H114214   6.234   3.193   3.078
 4736TIP3    H214215   6.283   3.291   3.184
 4737TIP3   OH214216   6.734   3.590   4.121
 4737TIP3    H114217   6.707   3.529   4.191
 4737TIP3    H214218   6.653   3.641   4.108
 4738TIP3   OH214219   6.008   3.281   3.763
 4738TIP3    H114220   6.041   3.251   3.676
 4738TIP3    H214221   6.047   3.216   3.824
 4739TIP3   OH214222   6.444   3.413   2.918
 4739TIP3    H114223   6.402   3.502   2.921
 4739TIP3    H214224   6.384   3.361   2.976
 4740TIP3   OH214225   5.895   3.194   4.380
 4740TIP3    H114226   5.907   3.180   4.476
 4740TIP3    H214227   5.822   3.131   4.361
 4741TIP3   OH214228   6.605   3.294   4.392
 4741TIP3    H114229   6.527   3.247   4.356
 4741TIP3    H214230   6.667   3.219   4.400
 4742TIP3   OH214231   6.772   3.920   3.953
 4742TIP3    H114232   6.808   3.834   3.934
 4742TIP3    H214233   6.814   3.938   4.042
 4743TIP3   OH214234   6.106   3.587   3.398
 4743TIP3    H114235   6.099   3.667   3.342
 4743TIP3    H214236   6.013   3.561   3.403
 4744TIP3   OH214237   5.672   2.884   3.100
 4744TIP3    H114238   5.715   2.969   3.120
 4744TIP3    H214239   5.593   2.889   3.158
 4745TIP3   OH214240   6.235   3.350   3.338
 4745TIP3    H114241   6.200   3.439   3.358
 4745TIP3    H214242   6.196   3.297   3.410
 4746TIP3   OH214243   6.026   3.816   3.247
 4746TIP3    H114244   5.938   3.828   3.288
 4746TIP3    H214245   6.061   3.908   3.249
 4747TIP3   OH214246   6.085   2.711   4.384
 4747TIP3    H114247   5.988   2.718   4.395
 4747TIP3    H214248   6.107   2.650   4.456
 4748TIP3   OH214249   5.812   3.785   4.018
 4748TIP3    H114250   5.867   3.717   4.059
 4748TIP3    H214251   5.831   3.861   4.075
 4749TIP3   OH214252   6.094   3.439   2.701
 4749TIP3    H114253   6.124   3.350   2.674
 4749TIP3    H214254   6.072   3.424   2.795
 4750TIP3   OH214255   6.046   3.436   2.974
 4750TIP3    H114256   6.119   3.409   3.031
 4750TIP3    H214257   6.046   3.534   2.983
 4751TIP3   OH214258   5.778   3.129   3.179
 4751TIP3    H114259   5.710   3.175   3.234
 4751TIP3    H214260   5.791   3.196   3.109
 4752TIP3   OH214261   6.315   3.651   2.935
 4752TIP3    H114262   6.223   3.668   2.961
 4752TIP3    H214263   6.325   3.718   2.865
 4753TIP3   OH214264   6.054   3.708   2.993
 4753TIP3    H114265   6.026   3.777   2.929
 4753TIP3    H214266   6.037   3.753   3.079
 4754TIP3   OH214267   6.150   2.423   3.231
 4754TIP3    H114268   6.144   2.510   3.273
 4754TIP3    H214269   6.244   2.402   3.252
 4755TIP3   OH214270   5.776   3.330   2.982
 4755TIP3    H114271   5.844   3.400   2.987
 4755TIP3    H214272   5.819   3.273   2.914
 4756TIP3   OH214273   5.717   2.612   3.118
 4756TIP3    H114274   5.719   2.710   3.116
 4756TIP3    H214275   5.640   2.593   3.063
 4757TIP3   OH214276   6.091   2.338   3.987
 4757TIP3    H114277   6.068   2.302   3.899
 4757TIP3    H214278   6.086   2.258   4.043
 4758TIP3   OH214279   5.639   3.553   3.364
 4758TIP3    H114280   5.576   3.583   3.431
 4758TIP3    H214281   5.605   3.598   3.283
 4759TIP3   OH214282   5.809   4.102   4.439
 4759TIP3    H114283   5.894   4.104   4.488
 4759TIP3    H214284   5.789   4.007   4.440
 4760TIP3   OH214285   6.288   4.052   4.481
 4760TIP3    H114286   6.379   4.019   4.490
 4760TIP3    H214287   6.255   3.993   4.411
 4761TIP3   OH214288   6.257   3.645   2.616
 4761TIP3    H114289   6.207   3.566   2.649
 4761TIP3    H214290   6.335   3.602   2.573
 4762TIP3   OH214291   6.894   3.961   4.213
 4762TIP3    H114292   6.872   3.900   4.286
 4762TIP3    H214293   6.990   3.947   4.206
 4763TIP3   OH214294   5.935   3.504   4.639
 4763TIP3    H114295   5.950   3.408   4.648
 4763TIP3    H214296   5.847   3.506   4.596
 4764TIP3   OH214297   5.916   3.147   2.835
 4764TIP3    H114298   5.973   3.120   2.908
 4764TIP3    H214299   5.982   3.152   2.762
 4765TIP3   OH214300   6.556   3.581   4.411
 4765TIP3    H114301   6.498   3.609   4.336
 4765TIP3    H214302   6.565   3.484   4.398
 4766TIP3   OH214303   6.392   3.348   2.647
 4766TIP3    H114304   6.402   3.367   2.742
 4766TIP3    H214305   6.460   3.280   2.634
 4767TIP3   OH214306   6.053   3.241   4.625
 4767TIP3    H114307   6.123   3.179   4.604
 4767TIP3    H214308   6.081   3.271   4.714
 4768TIP3   OH214309   6.116   3.060   3.055
 4768TIP3    H114310   6.089   3.022   3.140
 4768TIP3    H214311   6.151   2.983   3.006
 4769TIP3   OH214312   6.398   3.138   4.285
 4769TIP3    H114313   6.311   3.184   4.289
 4769TIP3    H214314   6.432   3.163   4.197
 4770TIP3   OH214315   6.211   2.850   2.897
 4770TIP3    H114316   6.179   2.847   2.804
 4770TIP3    H214317   6.307   2.847   2.882
 4771TIP3   OH214318   6.500   2.914   4.410
 4771TIP3    H114319   6.504   2.832   4.356
 4771TIP3    H214320   6.455   2.977   4.349
 4772TIP3   OH214321   6.503   2.701   4.232
 4772TIP3    H114322   6.532   2.739   4.147
 4772TIP3    H214323   6.412   2.672   4.210
 4773TIP3   OH214324   6.548   3.217   4.064
 4773TIP3    H114325   6.585   3.199   3.977
 4773TIP3    H214326   6.489   3.292   4.043
 4774TIP3   OH214327   6.394   3.014   4.643
 4774TIP3    H114328   6.326   2.946   4.663
 4774TIP3    H214329   6.425   2.983   4.556
 4775TIP3   OH214330   6.622   2.458   4.300
 4775TIP3    H114331   6.582   2.547   4.294
 4775TIP3    H214332   6.545   2.401   4.316
 4776TIP3   OH214333   6.730   3.056   4.465
 4776TIP3    H114334   6.790   2.998   4.514
 4776TIP3    H214335   6.650   3.000   4.460
 4777TIP3   OH214336   6.235   2.794   4.699
 4777TIP3    H114337   6.233   2.703   4.664
 4777TIP3    H214338   6.270   2.779   4.789
 4778TIP3   OH214339   6.769   2.670   4.629
 4778TIP3    H114340   6.725   2.586   4.613
 4778TIP3    H214341   6.700   2.723   4.675
 4779TIP3   OH214342   6.032   3.910   2.806
 4779TIP3    H114343   6.126   3.907   2.781
 4779TIP3    H214344   5.998   3.962   2.731
 4780TIP3   OH214345   5.507   3.292   3.018
 4780TIP3    H114346   5.602   3.313   3.003
 4780TIP3    H214347   5.500   3.205   2.974
 4781TIP3   OH214348   5.409   3.906   3.450
 4781TIP3    H114349   5.348   3.845   3.403
 4781TIP3    H214350   5.460   3.843   3.505
 4782TIP3   OH214351   5.559   3.746   3.619
 4782TIP3    H114352   5.547   3.677   3.687
 4782TIP3    H214353   5.609   3.812   3.670
 4783TIP3   OH214354   5.744   3.172   3.988
 4783TIP3    H114355   5.738   3.132   3.899
 4783TIP3    H214356   5.841   3.168   4.004
 4784TIP3   OH214357   5.973   2.866   4.690
 4784TIP3    H114358   6.069   2.848   4.685
 4784TIP3    H214359   5.940   2.777   4.713
 4785TIP3   OH214360   5.919   2.552   3.997
 4785TIP3    H114361   5.975   2.472   4.004
 4785TIP3    H214362   5.986   2.621   3.985
 4786TIP3   OH214363   5.678   2.828   4.063
 4786TIP3    H114364   5.731   2.814   3.983
 4786TIP3    H214365   5.734   2.888   4.113
 4787TIP3   OH214366   5.709   2.317   3.569
 4787TIP3    H114367   5.616   2.312   3.597
 4787TIP3    H214368   5.704   2.376   3.491
 4788TIP3   OH214369   5.934   2.400   4.384
 4788TIP3    H114370   5.887   2.394   4.469
 4788TIP3    H214371   5.863   2.434   4.325
 4789TIP3   OH214372   5.971   3.825   4.460
 4789TIP3    H114373   5.876   3.806   4.445
 4789TIP3    H214374   5.978   3.811   4.555
 4790TIP3   OH214375   6.140   3.856   4.011
 4790TIP3    H114376   6.092   3.931   3.970
 4790TIP3    H214377   6.230   3.877   3.986
 4791TIP3   OH214378   6.785   4.205   3.958
 4791TIP3    H114379   6.880   4.217   3.954
 4791TIP3    H214380   6.763   4.294   3.986
 4792TIP3   OH214381   5.831   4.117   4.037
 4792TIP3    H114382   5.739   4.143   4.012
 4792TIP3    H214383   5.844   4.175   4.113
 4793TIP3   OH214384   6.062   4.089   3.888
 4793TIP3    H114385   5.977   4.104   3.936
 4793TIP3    H214386   6.040   4.128   3.800
 4794TIP3   OH214387   6.523   4.116   3.720
 4794TIP3    H114388   6.449   4.106   3.657
 4794TIP3    H214389   6.517   4.213   3.736
 4795TIP3   OH214390   5.730   3.907   3.779
 4795TIP3    H114391   5.760   3.878   3.867
 4795TIP3    H214392   5.802   3.869   3.724
 4796TIP3   OH214393   5.924   3.783   3.637
 4796TIP3    H114394   5.941   3.699   3.685
 4796TIP3    H214395   6.016   3.815   3.621
 4797TIP3   OH214396   6.191   3.871   3.622
 4797TIP3    H114397   6.224   3.779   3.623
 4797TIP3    H214398   6.214   3.902   3.710
 4798TIP3   OH214399   6.013   2.242   3.737
 4798TIP3    H114400   5.920   2.210   3.740
 4798TIP3    H214401   6.060   2.157   3.737
 4799TIP3   OH214402   5.813   2.113   3.391
 4799TIP3    H114403   5.839   2.169   3.316
 4799TIP3    H214404   5.783   2.179   3.457
 4800TIP3   OH214405   6.393   2.295   3.619
 4800TIP3    H114406   6.479   2.297   3.573
 4800TIP3    H214407   6.418   2.318   3.709
 4801TIP3   OH214408   5.519   3.690   3.165
 4801TIP3    H114409   5.431   3.662   3.131
 4801TIP3    H214410   5.519   3.781   3.128
 4802TIP3   OH214411   5.924   2.268   3.152
 4802TIP3    H114412   5.973   2.207   3.093
 4802TIP3    H214413   5.997   2.323   3.187
 4803TIP3   OH214414   6.419   2.422   3.289
 4803TIP3    H114415   6.486   2.366   3.331
 4803TIP3    H214416   6.473   2.480   3.235
 4804TIP3   OH214417   6.300   3.872   2.751
 4804TIP3    H114418   6.385   3.893   2.708
 4804TIP3    H214419   6.272   3.798   2.693
 4805TIP3   OH214420   6.224   2.521   4.633
 4805TIP3    H114421   6.190   2.447   4.687
 4805TIP3    H214422   6.318   2.520   4.658
 4806TIP3   OH214423   6.475   2.521   4.747
 4806TIP3    H114424   6.541   2.467   4.701
 4806TIP3    H214425   6.450   2.462   4.822
 4807TIP3   OH214426   5.597   3.700   2.801
 4807TIP3    H114427   5.599   3.733   2.892
 4807TIP3    H214428   5.685   3.659   2.790
 4808TIP3   OH214429   0.961   4.296   4.484
 4808TIP3    H114430   0.929   4.385   4.458
 4808TIP3    H214431   0.888   4.241   4.450
 4809TIP3   OH214432   0.958   4.297   4.876
 4809TIP3    H114433   0.997   4.268   4.961
 4809TIP3    H214434   0.921   4.213   4.842
 4810TIP3   OH214435   1.206   4.598   4.553
 4810TIP3    H114436   1.191   4.531   4.620
 4810TIP3    H214437   1.238   4.673   4.605
 4811TIP3   OH214438   0.854   5.051   4.573
 4811TIP3    H114439   0.897   4.991   4.508
 4811TIP3    H214440   0.859   4.997   4.652
 4812TIP3   OH214441   0.763   4.519   4.919
 4812TIP3    H114442   0.800   4.443   4.871
 4812TIP3    H214443   0.848   4.564   4.941
 4813TIP3   OH214444   1.751   3.846   4.913
 4813TIP3    H114445   1.800   3.913   4.964
 4813TIP3    H214446   1.763   3.879   4.822
 4814TIP3   OH214447   1.172   4.021   4.943
 4814TIP3    H114448   1.213   3.935   4.963
 4814TIP3    H214449   1.137   4.003   4.853
 4815TIP3   OH214450   0.518   3.683   4.901
 4815TIP3    H114451   0.499   3.756   4.838
 4815TIP3    H214452   0.479   3.608   4.852
 4816TIP3   OH214453   1.206   3.771   4.530
 4816TIP3    H114454   1.277   3.760   4.598
 4816TIP3    H214455   1.259   3.807   4.457
 4817TIP3   OH214456   0.588   4.082   4.820
 4817TIP3    H114457   0.683   4.057   4.832
 4817TIP3    H214458   0.551   3.999   4.784
 4818TIP3   OH214459   1.849   4.044   5.085
 4818TIP3    H114460   1.764   4.089   5.067
 4818TIP3    H214461   1.872   4.081   5.172
 4819TIP3   OH214462   0.506   3.657   5.324
 4819TIP3    H114463   0.434   3.686   5.266
 4819TIP3    H214464   0.464   3.672   5.412
 4820TIP3   OH214465   0.849   4.507   4.349
 4820TIP3    H114466   0.810   4.495   4.261
 4820TIP3    H214467   0.807   4.592   4.376
 4821TIP3   OH214468   0.613   4.463   5.136
 4821TIP3    H114469   0.586   4.545   5.178
 4821TIP3    H214470   0.667   4.496   5.060
 4822TIP3   OH214471   1.404   3.782   4.713
 4822TIP3    H114472   1.391   3.736   4.797
 4822TIP3    H214473   1.458   3.859   4.740
 4823TIP3   OH214474   0.386   3.796   5.110
 4823TIP3    H114475   0.456   3.854   5.146
 4823TIP3    H214476   0.437   3.742   5.046
 4824TIP3   OH214477   1.268   4.842   4.715
 4824TIP3    H114478   1.177   4.835   4.749
 4824TIP3    H214479   1.264   4.928   4.668
 4825TIP3   OH214480   1.567   3.732   5.082
 4825TIP3    H114481   1.480   3.762   5.052
 4825TIP3    H214482   1.627   3.769   5.013
 4826TIP3   OH214483   0.887   3.384   5.051
 4826TIP3    H114484   0.870   3.291   5.076
 4826TIP3    H214485   0.810   3.430   5.092
 4827TIP3   OH214486   0.971   4.890   4.387
 4827TIP3    H114487   1.020   4.807   4.369
 4827TIP3    H214488   1.034   4.954   4.346
 4828TIP3   OH214489   1.110   4.672   4.303
 4828TIP3    H114490   1.079   4.590   4.263
 4828TIP3    H214491   1.151   4.638   4.386
 4829TIP3   OH214492   1.496   4.749   5.059
 4829TIP3    H114493   1.487   4.673   4.998
 4829TIP3    H214494   1.480   4.825   4.999
 4830TIP3   OH214495   0.796   4.143   4.321
 4830TIP3    H114496   0.716   4.196   4.303
 4830TIP3    H214497   0.839   4.142   4.234
 4831TIP3   OH214498   0.747   3.937   4.030
 4831TIP3    H114499   0.816   3.985   4.079
 4831TIP3    H214500   0.804   3.876   3.977
 4832TIP3   OH214501   1.689   4.386   4.902
 4832TIP3    H114502   1.608   4.440   4.906
 4832TIP3    H214503   1.724   4.412   4.814
 4833TIP3   OH214504   1.137   4.229   4.286
 4833TIP3    H114505   1.083   4.255   4.365
 4833TIP3    H214506   1.222   4.205   4.330
 4834TIP3   OH214507   1.373   4.262   5.206
 4834TIP3    H114508   1.372   4.345   5.258
 4834TIP3    H214509   1.287   4.268   5.160
 4835TIP3   OH214510   0.392   4.239   4.694
 4835TIP3    H114511   0.344   4.196   4.622
 4835TIP3    H214512   0.467   4.179   4.712
 4836TIP3   OH214513   0.532   4.694   4.849
 4836TIP3    H114514   0.485   4.635   4.790
 4836TIP3    H214515   0.619   4.652   4.854
 4837TIP3   OH214516   0.568   4.190   5.075
 4837TIP3    H114517   0.587   4.172   4.981
 4837TIP3    H214518   0.597   4.282   5.088
 4838TIP3   OH214519   1.024   4.836   4.836
 4838TIP3    H114520   1.021   4.915   4.893
 4838TIP3    H214521   1.017   4.762   4.899
 4839TIP3   OH214522   0.978   4.082   4.116
 4839TIP3    H114523   1.038   4.143   4.165
 4839TIP3    H214524   1.003   4.104   4.023
 4840TIP3   OH214525   0.729   4.753   4.384
 4840TIP3    H114526   0.804   4.815   4.392
 4840TIP3    H214527   0.654   4.812   4.367
 4841TIP3   OH214528   1.488   3.324   4.159
 4841TIP3    H114529   1.409   3.346   4.212
 4841TIP3    H214530   1.504   3.409   4.113
 4842TIP3   OH214531   1.295   4.692   3.715
 4842TIP3    H114532   1.302   4.788   3.698
 4842TIP3    H214533   1.387   4.663   3.700
 4843TIP3   OH214534   1.732   5.098   5.108
 4843TIP3    H114535   1.733   5.002   5.123
 4843TIP3    H214536   1.648   5.123   5.153
 4844TIP3   OH214537   0.846   4.871   5.258
 4844TIP3    H114538   0.861   4.968   5.270
 4844TIP3    H214539   0.759   4.864   5.299
 4845TIP3   OH214540   0.599   5.012   4.192
 4845TIP3    H114541   0.558   5.008   4.104
 4845TIP3    H214542   0.591   5.107   4.216
 4846TIP3   OH214543   0.796   4.908   3.832
 4846TIP3    H114544   0.856   4.839   3.796
 4846TIP3    H214545   0.834   4.922   3.922
 4847TIP3   OH214546   0.854   4.961   4.100
 4847TIP3    H114547   0.766   4.966   4.145
 4847TIP3    H214548   0.910   4.925   4.170
 4848TIP3   OH214549   1.620   4.224   5.385
 4848TIP3    H114550   1.539   4.233   5.332
 4848TIP3    H214551   1.638   4.128   5.377
 4849TIP3   OH214552   0.662   3.502   5.149
 4849TIP3    H114553   0.612   3.418   5.153
 4849TIP3    H214554   0.608   3.559   5.206
 4850TIP3   OH214555   1.158   3.578   5.385
 4850TIP3    H114556   1.225   3.546   5.449
 4850TIP3    H214557   1.073   3.555   5.429
 4851TIP3   OH214558   1.388   3.999   5.302
 4851TIP3    H114559   1.342   4.002   5.389
 4851TIP3    H214560   1.369   4.088   5.265
 4852TIP3   OH214561   1.053   4.123   3.859
 4852TIP3    H114562   1.017   4.106   3.770
 4852TIP3    H214563   1.138   4.167   3.836
 4853TIP3   OH214564   0.782   3.497   4.165
 4853TIP3    H114565   0.744   3.499   4.255
 4853TIP3    H214566   0.733   3.420   4.130
 4854TIP3   OH214567   0.573   3.966   5.220
 4854TIP3    H114568   0.513   3.992   5.291
 4854TIP3    H214569   0.570   4.047   5.165
 4855TIP3   OH214570   0.455   3.871   4.714
 4855TIP3    H114571   0.365   3.872   4.754
 4855TIP3    H214572   0.443   3.818   4.633
 4856TIP3   OH214573   0.926   3.942   4.454
 4856TIP3    H114574   0.877   4.014   4.410
 4856TIP3    H214575   0.981   3.908   4.381
 4857TIP3   OH214576   1.099   4.239   5.570
 4857TIP3    H114577   1.087   4.149   5.607
 4857TIP3    H214578   1.197   4.250   5.585
 4858TIP3   OH214579   1.084   3.971   4.687
 4858TIP3    H114580   1.019   3.996   4.618
 4858TIP3    H214581   1.120   3.891   4.643
 4859TIP3   OH214582   0.436   3.483   4.130
 4859TIP3    H114583   0.416   3.471   4.225
 4859TIP3    H214584   0.360   3.536   4.101
 4860TIP3   OH214585   1.092   4.216   5.111
 4860TIP3    H114586   1.126   4.146   5.050
 4860TIP3    H214587   1.067   4.161   5.187
 4861TIP3   OH214588   0.776   3.682   4.786
 4861TIP3    H114589   0.696   3.681   4.843
 4861TIP3    H214590   0.847   3.667   4.851
 4862TIP3   OH214591   0.459   3.731   4.478
 4862TIP3    H114592   0.556   3.747   4.471
 4862TIP3    H214593   0.425   3.764   4.393
 4863TIP3   OH214594   1.251   3.759   4.991
 4863TIP3    H114595   1.215   3.772   5.082
 4863TIP3    H214596   1.184   3.698   4.954
 4864TIP3   OH214597   0.309   3.795   4.260
 4864TIP3    H114598   0.249   3.739   4.209
 4864TIP3    H214599   0.367   3.825   4.187
 4865TIP3   OH214600   1.428   5.445   5.209
 4865TIP3    H114601   1.423   5.471   5.115
 4865TIP3    H214602   1.511   5.487   5.237
 4866TIP3   OH214603   0.848   4.017   4.885
 4866TIP3    H114604   0.916   3.966   4.837
 4866TIP3    H214605   0.849   3.973   4.973
 4867TIP3   OH214606   0.396   3.500   4.737
 4867TIP3    H114607   0.391   3.427   4.803
 4867TIP3    H214608   0.447   3.456   4.667
 4868TIP3   OH214609   0.834   3.920   5.148
 4868TIP3    H114610   0.742   3.934   5.179
 4868TIP3    H214611   0.887   3.970   5.213
 4869TIP3   OH214612   0.574   4.297   4.274
 4869TIP3    H114613   0.501   4.231   4.266
 4869TIP3    H214614   0.556   4.335   4.363
 4870TIP3   OH214615   1.457   4.535   4.890
 4870TIP3    H114616   1.484   4.584   4.810
 4870TIP3    H214617   1.372   4.494   4.862
 4871TIP3   OH214618   1.010   3.621   4.084
 4871TIP3    H114619   0.922   3.590   4.117
 4871TIP3    H214620   1.025   3.704   4.135
 4872TIP3   OH214621   0.942   4.612   5.263
 4872TIP3    H114622   0.963   4.599   5.356
 4872TIP3    H214623   0.916   4.706   5.261
 4873TIP3   OH214624   1.083   3.848   4.233
 4873TIP3    H114625   1.179   3.858   4.248
 4873TIP3    H214626   1.061   3.930   4.182
 4874TIP3   OH214627   0.704   4.449   4.091
 4874TIP3    H114628   0.652   4.532   4.097
 4874TIP3    H214629   0.656   4.390   4.153
 4875TIP3   OH214630   0.856   4.354   5.563
 4875TIP3    H114631   0.799   4.295   5.510
 4875TIP3    H214632   0.943   4.313   5.547
 4876TIP3   OH214633   1.118   4.876   5.160
 4876TIP3    H114634   1.023   4.874   5.179
 4876TIP3    H214635   1.150   4.930   5.236
 4877TIP3   OH214636   1.525   3.952   4.068
 4877TIP3    H114637   1.464   3.907   4.005
 4877TIP3    H214638   1.522   4.041   4.027
 4878TIP3   OH214639   1.746   4.811   5.148
 4878TIP3    H114640   1.649   4.801   5.138
 4878TIP3    H214641   1.775   4.781   5.058
 4879TIP3   OH214642   1.229   4.769   3.978
 4879TIP3    H114643   1.202   4.697   4.036
 4879TIP3    H214644   1.244   4.724   3.893
 4880TIP3   OH214645   1.221   4.400   4.806
 4880TIP3    H114646   1.128   4.372   4.820
 4880TIP3    H214647   1.257   4.319   4.764
 4881TIP3   OH214648   0.517   4.412   4.512
 4881TIP3    H114649   0.481   4.501   4.514
 4881TIP3    H214650   0.464   4.365   4.580
 4882TIP3   OH214651   0.674   4.966   5.050
 4882TIP3    H114652   0.721   5.008   4.975
 4882TIP3    H214653   0.739   4.905   5.084
 4883TIP3   OH214654   1.012   4.607   4.997
 4883TIP3    H114655   1.004   4.598   5.094
 4883TIP3    H214656   1.088   4.550   4.978
 4884TIP3   OH214657   0.989   4.501   3.880
 4884TIP3    H114658   1.041   4.475   3.960
 4884TIP3    H214659   0.901   4.467   3.903
 4885TIP3   OH214660   1.257   5.137   5.045
 4885TIP3    H114661   1.176   5.084   5.035
 4885TIP3    H214662   1.246   5.200   4.970
 4886TIP3   OH214663   1.324   4.967   3.695
 4886TIP3    H114664   1.360   5.040   3.642
 4886TIP3    H214665   1.244   5.012   3.731
 4887TIP3   OH214666   1.149   4.430   4.094
 4887TIP3    H114667   1.139   4.363   4.164
 4887TIP3    H214668   1.246   4.427   4.080
 4888TIP3   OH214669   0.367   4.450   3.871
 4888TIP3    H114670   0.374   4.358   3.835
 4888TIP3    H214671   0.369   4.431   3.967
 4889TIP3   OH214672   0.346   4.440   4.143
 4889TIP3    H114673   0.429   4.458   4.189
 4889TIP3    H214674   0.300   4.526   4.152
 4890TIP3   OH214675   1.176   3.819   5.252
 4890TIP3    H114676   1.263   3.854   5.280
 4890TIP3    H214677   1.169   3.736   5.304
 4891TIP3   OH214678   1.068   3.562   4.416
 4891TIP3    H114679   1.049   3.596   4.327
 4891TIP3    H214680   1.111   3.639   4.458
 4892TIP3   OH214681   0.552   4.674   4.108
 4892TIP3    H114682   0.499   4.728   4.169
 4892TIP3    H214683   0.567   4.736   4.035
 4893TIP3   OH214684   0.739   3.746   4.518
 4893TIP3    H114685   0.805   3.816   4.499
 4893TIP3    H214686   0.751   3.735   4.615
 4894TIP3   OH214687   1.024   4.049   5.318
 4894TIP3    H114688   1.050   4.075   5.407
 4894TIP3    H214689   1.075   3.966   5.306
 4895TIP3   OH214690   0.896   3.462   4.614
 4895TIP3    H114691   0.890   3.539   4.674
 4895TIP3    H214692   0.958   3.496   4.546
 4896TIP3   OH214693   0.412   3.466   4.406
 4896TIP3    H114694   0.416   3.557   4.439
 4896TIP3    H214695   0.508   3.444   4.409
 4897TIP3   OH214696   1.656   3.959   5.306
 4897TIP3    H114697   1.558   3.956   5.309
 4897TIP3    H214698   1.672   3.916   5.221
 4898TIP3   OH214699   1.307   4.156   4.689
 4898TIP3    H114700   1.231   4.095   4.701
 4898TIP3    H214701   1.378   4.109   4.738
 4899TIP3   OH214702   1.281   5.111   4.636
 4899TIP3    H114703   1.239   5.160   4.561
 4899TIP3    H214704   1.375   5.131   4.617
 4900TIP3   OH214705   0.275   3.357   5.184
 4900TIP3    H114706   0.296   3.361   5.089
 4900TIP3    H214707   0.361   3.329   5.218
 4901TIP3   OH214708   0.520   4.672   3.806
 4901TIP3    H114709   0.466   4.594   3.834
 4901TIP3    H214710   0.599   4.626   3.771
 4902TIP3   OH214711   1.176   5.005   5.396
 4902TIP3    H114712   1.189   4.929   5.457
 4902TIP3    H214713   1.253   5.061   5.418
 4903TIP3   OH214714   0.947   4.717   3.703
 4903TIP3    H114715   0.990   4.652   3.762
 4903TIP3    H214716   1.004   4.714   3.624
 4904TIP3   OH214717   0.819   4.625   5.570
 4904TIP3    H114718   0.743   4.627   5.511
 4904TIP3    H214719   0.832   4.528   5.580
 4905TIP3   OH214720   0.692   4.394   3.822
 4905TIP3    H114721   0.685   4.405   3.919
 4905TIP3    H214722   0.683   4.297   3.814
 4906TIP3   OH214723   1.280   4.651   5.200
 4906TIP3    H114724   1.360   4.687   5.155
 4906TIP3    H214725   1.216   4.722   5.179
 4907TIP3   OH214726   0.391   4.093   4.245
 4907TIP3    H114727   0.340   4.030   4.296
 4907TIP3    H214728   0.423   4.036   4.172
 4908TIP3   OH214729   0.641   4.157   5.463
 4908TIP3    H114730   0.575   4.222   5.489
 4908TIP3    H214731   0.681   4.195   5.382
 4909TIP3   OH214732   0.474   3.898   4.069
 4909TIP3    H114733   0.445   3.899   3.975
 4909TIP3    H214734   0.571   3.903   4.059
 4910TIP3   OH214735   1.178   4.540   5.667
 4910TIP3    H114736   1.272   4.561   5.612
 4910TIP3    H214737   1.139   4.462   5.597
 4911TIP3   OH214738   1.286   4.221   3.743
 4911TIP3    H114739   1.267   4.178   3.657
 4911TIP3    H214740   1.255   4.312   3.722
 4912TIP3   OH214741   0.772   3.947   5.576
 4912TIP3    H114742   0.766   3.866   5.521
 4912TIP3    H214743   0.718   4.009   5.522
 4913TIP3   OH214744   0.763   3.741   5.383
 4913TIP3    H114745   0.795   3.766   5.295
 4913TIP3    H214746   0.671   3.713   5.363
 4914TIP3   OH214747   0.788   4.291   5.278
 4914TIP3    H114748   0.871   4.277   5.231
 4914TIP3    H214749   0.745   4.359   5.225
 4915TIP3   OH214750   1.380   4.239   5.648
 4915TIP3    H114751   1.429   4.158   5.658
 4915TIP3    H214752   1.445   4.297   5.607
 4916TIP3   OH214753   1.411   4.493   5.377
 4916TIP3    H114754   1.354   4.552   5.322
 4916TIP3    H214755   1.499   4.517   5.340
 4917TIP3   OH214756   0.689   4.104   5.801
 4917TIP3    H114757   0.619   4.040   5.830
 4917TIP3    H214758   0.714   4.061   5.717
 4918TIP3   OH214759   0.900   3.513   5.467
 4918TIP3    H114760   0.848   3.591   5.439
 4918TIP3    H214761   0.834   3.441   5.452
 4919TIP3   OH214762   1.015   4.010   5.679
 4919TIP3    H114763   0.996   3.984   5.771
 4919TIP3    H214764   0.930   3.983   5.638
 4920TIP3   OH214765   1.261   3.969   5.539
 4920TIP3    H114766   1.188   3.965   5.603
 4920TIP3    H214767   1.337   3.939   5.594
 4921TIP3   OH214768   1.488   3.901   5.687
 4921TIP3    H114769   1.499   3.804   5.700
 4921TIP3    H214770   1.484   3.934   5.779
 4922TIP3   OH214771   0.981   3.502   5.728
 4922TIP3    H114772   1.051   3.436   5.713
 4922TIP3    H214773   0.944   3.507   5.637
 4923TIP3   OH214774   1.062   3.724   5.867
 4923TIP3    H114775   1.032   3.651   5.808
 4923TIP3    H214776   0.984   3.783   5.869
 4924TIP3   OH214777   1.537   5.197   4.600
 4924TIP3    H114778   1.564   5.234   4.685
 4924TIP3    H214779   1.600   5.237   4.538
 4925TIP3   OH214780   1.560   5.220   4.884
 4925TIP3    H114781   1.519   5.132   4.877
 4925TIP3    H214782   1.639   5.198   4.936
 4926TIP3   OH214783   1.610   4.897   5.452
 4926TIP3    H114784   1.541   4.909   5.519
 4926TIP3    H214785   1.657   4.983   5.456
 4927TIP3   OH214786   1.428   4.409   4.069
 4927TIP3    H114787   1.493   4.475   4.040
 4927TIP3    H214788   1.473   4.371   4.148
 4928TIP3   OH214789   1.555   4.276   4.274
 4928TIP3    H114790   1.489   4.236   4.334
 4928TIP3    H214791   1.621   4.314   4.337
 4929TIP3   OH214792   1.609   4.671   4.705
 4929TIP3    H114793   1.665   4.605   4.660
 4929TIP3    H214794   1.610   4.745   4.641
 4930TIP3   OH214795   1.436   4.969   4.901
 4930TIP3    H114796   1.364   5.012   4.950
 4930TIP3    H214797   1.389   4.923   4.829
 4931TIP3   OH214798   1.491   4.186   3.920
 4931TIP3    H114799   1.419   4.188   3.853
 4931TIP3    H214800   1.465   4.263   3.974
 4932TIP3   OH214801   1.361   3.856   3.875
 4932TIP3    H114802   1.321   3.895   3.797
 4932TIP3    H214803   1.334   3.762   3.865
 4933TIP3   OH214804   1.365   4.137   4.419
 4933TIP3    H114805   1.373   4.041   4.414
 4933TIP3    H214806   1.349   4.151   4.515
 4934TIP3   OH214807   1.657   4.561   5.280
 4934TIP3    H114808   1.727   4.493   5.269
 4934TIP3    H214809   1.685   4.629   5.217
 4935TIP3   OH214810   1.835   4.359   5.290
 4935TIP3    H114811   1.760   4.308   5.328
 4935TIP3    H214812   1.909   4.296   5.304
 4936TIP3   OH214813   1.305   3.587   3.868
 4936TIP3    H114814   1.388   3.566   3.916
 4936TIP3    H214815   1.242   3.523   3.904
 4937TIP3   OH214816   1.363   3.852   4.309
 4937TIP3    H114817   1.406   3.765   4.324
 4937TIP3    H214818   1.420   3.888   4.239
 4938TIP3   OH214819   1.520   4.025   4.807
 4938TIP3    H114820   1.605   4.050   4.765
 4938TIP3    H214821   1.537   4.059   4.897
 4939TIP3   OH214822   1.598   4.166   5.039
 4939TIP3    H114823   1.521   4.201   5.089
 4939TIP3    H214824   1.630   4.247   4.994
 4940TIP3   OH214825   2.046   3.763   5.595
 4940TIP3    H114826   2.105   3.699   5.550
 4940TIP3    H214827   2.014   3.816   5.518
 4941TIP3   OH214828   1.475   3.601   4.350
 4941TIP3    H114829   1.520   3.586   4.436
 4941TIP3    H214830   1.411   3.527   4.350
 4942TIP3   OH214831   1.912   3.896   5.398
 4942TIP3    H114832   1.824   3.937   5.408
 4942TIP3    H214833   1.887   3.817   5.345
 4943TIP3   OH214834   1.551   3.533   3.985
 4943TIP3    H114835   1.590   3.462   3.931
 4943TIP3    H214836   1.619   3.603   3.980
 4944TIP3   OH214837   1.118   5.069   4.252
 4944TIP3    H114838   1.170   5.058   4.170
 4944TIP3    H214839   1.169   5.138   4.298
 4945TIP3   OH214840   0.872   5.136   5.298
 4945TIP3    H114841   0.913   5.134   5.388
 4945TIP3    H214842   0.930   5.202   5.254
 4946TIP3   OH214843   1.032   5.315   5.168
 4946TIP3    H114844   1.106   5.267   5.128
 4946TIP3    H214845   1.079   5.369   5.235
 4947TIP3   OH214846   1.810   3.659   5.294
 4947TIP3    H114847   1.730   3.661   5.239
 4947TIP3    H214848   1.849   3.573   5.268
 4948TIP3   OH214849   0.741   5.177   4.863
 4948TIP3    H114850   0.716   5.190   4.770
 4948TIP3    H214851   0.749   5.269   4.895
 4949TIP3   OH214852   1.005   5.104   4.922
 4949TIP3    H114853   0.913   5.129   4.901
 4949TIP3    H214854   1.054   5.171   4.872
 4950TIP3   OH214855   1.199   5.292   4.827
 4950TIP3    H114856   1.189   5.379   4.782
 4950TIP3    H214857   1.231   5.236   4.752
 4951TIP3   OH214858   1.019   3.576   4.900
 4951TIP3    H114859   0.978   3.505   4.954
 4951TIP3    H214860   1.093   3.529   4.857
 4952TIP3   OH214861   1.541   3.455   4.803
 4952TIP3    H114862   1.573   3.509   4.727
 4952TIP3    H214863   1.445   3.475   4.799
 4953TIP3   OH214864   1.631   3.565   4.575
 4953TIP3    H114865   1.701   3.504   4.544
 4953TIP3    H214866   1.673   3.652   4.555
 4954TIP3   OH214867   0.350   3.310   4.919
 4954TIP3    H114868   0.265   3.274   4.887
 4954TIP3    H214869   0.401   3.228   4.937
 4955TIP3   OH214870   0.707   3.321   4.792
 4955TIP3    H114871   0.775   3.370   4.744
 4955TIP3    H214872   0.721   3.349   4.883
 4956TIP3   OH214873   1.258   3.466   4.781
 4956TIP3    H114874   1.257   3.423   4.695
 4956TIP3    H214875   1.247   3.388   4.841
 4957TIP3   OH214876   1.289   3.393   4.346
 4957TIP3    H114877   1.204   3.436   4.367
 4957TIP3    H214878   1.275   3.305   4.388
 4958TIP3   OH214879   0.196   3.259   4.371
 4958TIP3    H114880   0.214   3.253   4.276
 4958TIP3    H214881   0.253   3.333   4.396
 4959TIP3   OH214882   0.688   3.493   4.426
 4959TIP3    H114883   0.745   3.446   4.489
 4959TIP3    H214884   0.706   3.586   4.453
 4960TIP3   OH214885   0.533   4.925   3.918
 4960TIP3    H114886   0.624   4.936   3.885
 4960TIP3    H214887   0.510   4.841   3.871
 4961TIP3   OH214888   1.265   5.036   4.020
 4961TIP3    H114889   1.257   4.938   4.008
 4961TIP3    H214890   1.220   5.068   3.940
 4962TIP3   OH214891   0.478   3.546   5.843
 4962TIP3    H114892   0.471   3.451   5.859
 4962TIP3    H214893   0.575   3.561   5.855
 4963TIP3   OH214894   0.741   3.562   5.911
 4963TIP3    H114895   0.817   3.531   5.859
 4963TIP3    H214896   0.764   3.531   6.001
 4964TIP3   OH214897   1.553   3.630   5.711
 4964TIP3    H114898   1.576   3.600   5.802
 4964TIP3    H214899   1.642   3.627   5.668
 4965TIP3   OH214900   1.483   5.175   5.208
 4965TIP3    H114901   1.407   5.147   5.153
 4965TIP3    H214902   1.467   5.272   5.211
 4966TIP3   OH214903   2.756   4.551   3.967
 4966TIP3    H114904   2.725   4.642   3.946
 4966TIP3    H214905   2.681   4.499   3.934
 4967TIP3   OH214906   2.755   4.554   4.362
 4967TIP3    H114907   2.792   4.531   4.449
 4967TIP3    H214908   2.716   4.470   4.334
 4968TIP3   OH214909   2.049   4.439   4.725
 4968TIP3    H114910   2.080   4.371   4.789
 4968TIP3    H214911   2.125   4.499   4.725
 4969TIP3   OH214912   3.002   4.855   4.040
 4969TIP3    H114913   2.987   4.789   4.108
 4969TIP3    H214914   3.032   4.932   4.092
 4970TIP3   OH214915   2.026   4.852   4.439
 4970TIP3    H114916   2.017   4.755   4.440
 4970TIP3    H214917   2.123   4.862   4.437
 4971TIP3   OH214918   1.732   4.066   4.220
 4971TIP3    H114919   1.680   4.146   4.240
 4971TIP3    H214920   1.663   4.011   4.179
 4972TIP3   OH214921   1.789   4.349   4.406
 4972TIP3    H114922   1.842   4.272   4.437
 4972TIP3    H214923   1.854   4.399   4.356
 4973TIP3   OH214924   2.654   5.315   4.055
 4973TIP3    H114925   2.694   5.243   4.001
 4973TIP3    H214926   2.643   5.272   4.140
 4974TIP3   OH214927   2.552   4.778   4.401
 4974TIP3    H114928   2.596   4.701   4.361
 4974TIP3    H214929   2.633   4.827   4.428
 4975TIP3   OH214930   3.571   4.095   4.400
 4975TIP3    H114931   3.600   4.179   4.441
 4975TIP3    H214932   3.595   4.110   4.307
 4976TIP3   OH214933   2.962   4.274   4.431
 4976TIP3    H114934   3.010   4.192   4.452
 4976TIP3    H214935   2.933   4.255   4.339
 4977TIP3   OH214936   2.282   3.926   4.395
 4977TIP3    H114937   2.274   4.002   4.333
 4977TIP3    H214938   2.195   3.884   4.387
 4978TIP3   OH214939   3.001   4.031   4.016
 4978TIP3    H114940   3.071   4.017   4.084
 4978TIP3    H214941   3.055   4.064   3.943
 4979TIP3   OH214942   1.938   4.139   4.504
 4979TIP3    H114943   2.020   4.123   4.554
 4979TIP3    H214944   1.947   4.071   4.434
 4980TIP3   OH214945   2.380   4.337   4.300
 4980TIP3    H114946   2.475   4.315   4.313
 4980TIP3    H214947   2.343   4.251   4.272
 4981TIP3   OH214948   3.644   4.307   4.569
 4981TIP3    H114949   3.557   4.351   4.553
 4981TIP3    H214950   3.665   4.340   4.658
 4982TIP3   OH214951   2.297   3.924   4.834
 4982TIP3    H114952   2.245   3.974   4.769
 4982TIP3    H214953   2.244   3.943   4.916
 4983TIP3   OH214954   2.640   4.768   3.839
 4983TIP3    H114955   2.604   4.758   3.750
 4983TIP3    H214956   2.596   4.851   3.867
 4984TIP3   OH214957   2.404   4.696   4.622
 4984TIP3    H114958   2.345   4.765   4.660
 4984TIP3    H214959   2.451   4.745   4.553
 4985TIP3   OH214960   3.200   4.040   4.199
 4985TIP3    H114961   3.192   3.993   4.283
 4985TIP3    H214962   3.255   4.116   4.224
 4986TIP3   OH214963   2.174   4.043   4.618
 4986TIP3    H114964   2.228   4.122   4.645
 4986TIP3    H214965   2.232   4.007   4.547
 4987TIP3   OH214966   2.232   4.891   4.723
 4987TIP3    H114967   2.213   4.982   4.692
 4987TIP3    H214968   2.155   4.877   4.781
 4988TIP3   OH214969   1.625   4.582   3.960
 4988TIP3    H114970   1.585   4.607   3.875
 4988TIP3    H214971   1.655   4.669   3.994
 4989TIP3   OH214972   3.066   5.099   4.199
 4989TIP3    H114973   2.976   5.091   4.239
 4989TIP3    H214974   3.058   5.186   4.155
 4990TIP3   OH214975   3.365   3.993   4.566
 4990TIP3    H114976   3.278   4.021   4.534
 4990TIP3    H214977   3.425   4.025   4.496
 4991TIP3   OH214978   2.664   3.640   4.557
 4991TIP3    H114979   2.651   3.544   4.571
 4991TIP3    H214980   2.579   3.674   4.593
 4992TIP3   OH214981   2.764   5.142   3.868
 4992TIP3    H114982   2.816   5.060   3.851
 4992TIP3    H214983   2.826   5.208   3.830
 4993TIP3   OH214984   2.910   4.926   3.788
 4993TIP3    H114985   2.877   4.843   3.751
 4993TIP3    H214986   2.950   4.895   3.873
 4994TIP3   OH214987   3.293   5.008   4.545
 4994TIP3    H114988   3.280   4.930   4.486
 4994TIP3    H214989   3.275   5.082   4.484
 4995TIP3   OH214990   2.584   4.401   3.804
 4995TIP3    H114991   2.506   4.456   3.784
 4995TIP3    H214992   2.631   4.400   3.719
 4996TIP3   OH214993   2.543   4.190   3.518
 4996TIP3    H114994   2.613   4.241   3.562
 4996TIP3    H214995   2.597   4.123   3.471
 4997TIP3   OH214996   3.489   4.649   4.394
 4997TIP3    H114997   3.405   4.700   4.397
 4997TIP3    H214998   3.519   4.671   4.303
 4998TIP3   OH214999   2.934   4.486   3.771
 4998TIP3    H115000   2.880   4.511   3.850
 4998TIP3    H215001   3.018   4.461   3.815
 4999TIP3   OH215002   3.167   4.522   4.694
 4999TIP3    H115003   3.165   4.605   4.746
 4999TIP3    H215004   3.081   4.527   4.648
 5000TIP3   OH215005   2.166   4.478   4.193
 5000TIP3    H115006   2.128   4.418   4.126
 5000TIP3    H215007   2.245   4.429   4.224
 5001TIP3   OH215008   2.296   4.895   4.337
 5001TIP3    H115009   2.280   4.862   4.247
 5001TIP3    H215010   2.385   4.859   4.356
 5002TIP3   OH215011   2.295   4.458   4.539
 5002TIP3    H115012   2.336   4.435   4.454
 5002TIP3    H215013   2.341   4.542   4.563
 5003TIP3   OH215014   2.827   5.093   4.325
 5003TIP3    H115015   2.814   5.171   4.381
 5003TIP3    H215016   2.812   5.019   4.387
 5004TIP3   OH215017   2.440   5.033   4.853
 5004TIP3    H115018   2.382   5.081   4.915
 5004TIP3    H215019   2.382   4.961   4.826
 5005TIP3   OH215020   2.771   4.341   3.603
 5005TIP3    H115021   2.831   4.402   3.652
 5005TIP3    H215022   2.798   4.362   3.510
 5006TIP3   OH215023   2.194   4.561   4.975
 5006TIP3    H115024   2.203   4.650   5.013
 5006TIP3    H215025   2.099   4.544   4.990
 5007TIP3   OH215026   2.520   5.018   3.875
 5007TIP3    H115027   2.602   5.069   3.883
 5007TIP3    H215028   2.460   5.081   3.833
 5008TIP3   OH215029   2.228   5.186   4.959
 5008TIP3    H115030   2.198   5.179   4.867
 5008TIP3    H215031   2.147   5.160   5.009
 5009TIP3   OH215032   3.287   3.576   3.660
 5009TIP3    H115033   3.204   3.596   3.709
 5009TIP3    H215034   3.290   3.646   3.595
 5010TIP3   OH215035   2.032   4.317   3.993
 5010TIP3    H115036   1.970   4.374   3.942
 5010TIP3    H215037   1.978   4.238   4.003
 5011TIP3   OH215038   3.091   4.949   3.201
 5011TIP3    H115039   3.098   5.046   3.185
 5011TIP3    H215040   3.184   4.920   3.186
 5012TIP3   OH215041   1.812   4.711   4.905
 5012TIP3    H115042   1.747   4.688   4.835
 5012TIP3    H215043   1.850   4.624   4.929
 5013TIP3   OH215044   1.670   4.899   4.539
 5013TIP3    H115045   1.765   4.895   4.525
 5013TIP3    H215046   1.662   4.979   4.594
 5014TIP3   OH215047   3.530   5.357   4.595
 5014TIP3    H115048   3.531   5.261   4.611
 5014TIP3    H215049   3.447   5.382   4.641
 5015TIP3   OH215050   2.640   5.148   4.716
 5015TIP3    H115051   2.637   5.238   4.753
 5015TIP3    H215052   2.568   5.105   4.768
 5016TIP3   OH215053   2.403   5.265   3.681
 5016TIP3    H115054   2.354   5.248   3.598
 5016TIP3    H215055   2.369   5.352   3.708
 5017TIP3   OH215056   1.838   5.114   4.066
 5017TIP3    H115057   1.885   5.106   4.152
 5017TIP3    H215058   1.786   5.032   4.064
 5018TIP3   OH215059   2.600   5.170   3.317
 5018TIP3    H115060   2.658   5.098   3.281
 5018TIP3    H215061   2.636   5.181   3.407
 5019TIP3   OH215062   2.654   5.220   3.585
 5019TIP3    H115063   2.565   5.228   3.628
 5019TIP3    H215064   2.706   5.182   3.658
 5020TIP3   OH215065   3.420   4.483   4.870
 5020TIP3    H115066   3.336   4.493   4.822
 5020TIP3    H215067   3.436   4.387   4.861
 5021TIP3   OH215068   2.017   4.895   4.893
 5021TIP3    H115069   2.070   4.873   4.972
 5021TIP3    H215070   1.944   4.831   4.900
 5022TIP3   OH215071   2.421   3.718   4.677
 5022TIP3    H115072   2.336   3.669   4.658
 5022TIP3    H215073   2.387   3.799   4.720
 5023TIP3   OH215074   2.955   3.828   4.875
 5023TIP3    H115075   3.025   3.803   4.938
 5023TIP3    H215076   2.873   3.809   4.925
 5024TIP3   OH215077   3.185   4.260   4.790
 5024TIP3    H115078   3.136   4.255   4.875
 5024TIP3    H215079   3.162   4.348   4.756
 5025TIP3   OH215080   2.852   4.381   3.348
 5025TIP3    H115081   2.814   4.362   3.260
 5025TIP3    H215082   2.936   4.425   3.323
 5026TIP3   OH215083   2.570   3.785   3.671
 5026TIP3    H115084   2.528   3.759   3.754
 5026TIP3    H215085   2.540   3.717   3.610
 5027TIP3   OH215086   2.347   4.238   4.690
 5027TIP3    H115087   2.325   4.270   4.780
 5027TIP3    H215088   2.330   4.320   4.638
 5028TIP3   OH215089   2.226   4.117   4.213
 5028TIP3    H115090   2.130   4.100   4.224
 5028TIP3    H215091   2.240   4.093   4.120
 5029TIP3   OH215092   2.725   4.205   3.937
 5029TIP3    H115093   2.675   4.276   3.891
 5029TIP3    H215094   2.780   4.169   3.864
 5030TIP3   OH215095   2.913   4.472   5.010
 5030TIP3    H115096   2.872   4.415   5.078
 5030TIP3    H215097   3.002   4.485   5.047
 5031TIP3   OH215098   2.876   4.225   4.175
 5031TIP3    H115099   2.815   4.255   4.104
 5031TIP3    H215100   2.915   4.148   4.128
 5032TIP3   OH215101   2.159   4.260   4.909
 5032TIP3    H115102   2.215   4.321   4.959
 5032TIP3    H215103   2.157   4.181   4.966
 5033TIP3   OH215104   2.223   3.729   3.650
 5033TIP3    H115105   2.196   3.647   3.610
 5033TIP3    H215106   2.162   3.794   3.606
 5034TIP3   OH215107   1.761   3.782   4.485
 5034TIP3    H115108   1.843   3.804   4.533
 5034TIP3    H215109   1.792   3.736   4.405
 5035TIP3   OH215110   1.726   3.765   4.008
 5035TIP3    H115111   1.763   3.804   3.925
 5035TIP3    H215112   1.661   3.835   4.029
 5036TIP3   OH215113   2.889   4.474   4.595
 5036TIP3    H115114   2.921   4.402   4.537
 5036TIP3    H215115   2.858   4.422   4.672
 5037TIP3   OH215116   2.544   3.933   4.266
 5037TIP3    H115117   2.481   3.928   4.340
 5037TIP3    H215118   2.628   3.908   4.310
 5038TIP3   OH215119   1.983   3.980   4.268
 5038TIP3    H115120   1.895   4.021   4.251
 5038TIP3    H215121   1.964   3.891   4.238
 5039TIP3   OH215122   2.276   3.990   3.972
 5039TIP3    H115123   2.360   4.034   3.948
 5039TIP3    H215124   2.219   4.012   3.894
 5040TIP3   OH215125   3.062   4.017   4.473
 5040TIP3    H115126   3.030   4.028   4.566
 5040TIP3    H215127   2.997   3.955   4.438
 5041TIP3   OH215128   2.118   4.014   3.754
 5041TIP3    H115129   2.046   3.976   3.699
 5041TIP3    H215130   2.169   4.060   3.683
 5042TIP3   OH215131   3.225   5.704   4.695
 5042TIP3    H115132   3.224   5.726   4.600
 5042TIP3    H215133   3.308   5.748   4.724
 5043TIP3   OH215134   2.185   4.807   5.103
 5043TIP3    H115135   2.277   4.831   5.129
 5043TIP3    H215136   2.141   4.817   5.189
 5044TIP3   OH215137   2.643   4.267   4.365
 5044TIP3    H115138   2.721   4.234   4.317
 5044TIP3    H215139   2.652   4.225   4.452
 5045TIP3   OH215140   2.618   4.169   4.665
 5045TIP3    H115141   2.532   4.214   4.675
 5045TIP3    H215142   2.679   4.231   4.710
 5046TIP3   OH215143   2.355   4.553   3.751
 5046TIP3    H115144   2.281   4.490   3.738
 5046TIP3    H215145   2.334   4.588   3.841
 5047TIP3   OH215146   3.253   4.792   4.377
 5047TIP3    H115147   3.278   4.842   4.297
 5047TIP3    H215148   3.168   4.750   4.350
 5048TIP3   OH215149   2.807   3.890   3.573
 5048TIP3    H115150   2.723   3.855   3.610
 5048TIP3    H215151   2.825   3.968   3.629
 5049TIP3   OH215152   2.753   4.873   4.749
 5049TIP3    H115153   2.771   4.845   4.840
 5049TIP3    H215154   2.712   4.960   4.762
 5050TIP3   OH215155   2.881   4.111   3.722
 5050TIP3    H115156   2.978   4.119   3.737
 5050TIP3    H215157   2.861   4.192   3.671
 5051TIP3   OH215158   2.045   4.571   4.426
 5051TIP3    H115159   2.087   4.547   4.341
 5051TIP3    H215160   2.101   4.524   4.489
 5052TIP3   OH215161   2.503   4.705   3.578
 5052TIP3    H115162   2.453   4.790   3.581
 5052TIP3    H215163   2.448   4.649   3.638
 5053TIP3   OH215164   1.927   4.502   5.048
 5053TIP3    H115165   1.955   4.488   5.141
 5053TIP3    H215166   1.866   4.428   5.034
 5054TIP3   OH215167   2.915   5.138   4.645
 5054TIP3    H115168   2.818   5.135   4.657
 5054TIP3    H215169   2.940   5.189   4.725
 5055TIP3   OH215170   3.318   4.212   3.553
 5055TIP3    H115171   3.261   4.166   3.487
 5055TIP3    H215172   3.313   4.302   3.514
 5056TIP3   OH215173   3.543   5.067   4.634
 5056TIP3    H115174   3.445   5.060   4.625
 5056TIP3    H215175   3.570   5.037   4.544
 5057TIP3   OH215176   3.027   5.026   3.465
 5057TIP3    H115177   2.998   4.957   3.526
 5057TIP3    H215178   3.039   4.978   3.381
 5058TIP3   OH215179   3.020   4.657   4.289
 5058TIP3    H115180   2.927   4.631   4.307
 5058TIP3    H215181   3.053   4.574   4.248
 5059TIP3   OH215182   2.152   4.884   4.053
 5059TIP3    H115183   2.150   4.965   3.999
 5059TIP3    H215184   2.058   4.868   4.067
 5060TIP3   OH215185   1.720   4.185   3.764
 5060TIP3    H115186   1.762   4.271   3.784
 5060TIP3    H215187   1.639   4.190   3.821
 5061TIP3   OH215188   2.276   4.644   3.994
 5061TIP3    H115189   2.247   4.735   4.013
 5061TIP3    H215190   2.243   4.597   4.073
 5062TIP3   OH215191   2.421   5.222   4.522
 5062TIP3    H115192   2.464   5.295   4.471
 5062TIP3    H215193   2.498   5.186   4.570
 5063TIP3   OH215194   2.068   5.121   3.906
 5063TIP3    H115195   1.982   5.130   3.952
 5063TIP3    H215196   2.101   5.213   3.910
 5064TIP3   OH215197   2.804   4.863   4.483
 5064TIP3    H115198   2.792   4.862   4.581
 5064TIP3    H215199   2.884   4.808   4.474
 5065TIP3   OH215200   2.785   4.757   3.367
 5065TIP3    H115201   2.839   4.732   3.445
 5065TIP3    H215202   2.698   4.725   3.393
 5066TIP3   OH215203   3.054   5.390   4.533
 5066TIP3    H115204   2.976   5.331   4.530
 5066TIP3    H215205   3.035   5.452   4.459
 5067TIP3   OH215206   3.119   5.225   3.181
 5067TIP3    H115207   3.157   5.301   3.133
 5067TIP3    H215208   3.039   5.268   3.218
 5068TIP3   OH215209   2.139   3.993   5.050
 5068TIP3    H115210   2.042   4.000   5.065
 5068TIP3    H215211   2.169   3.949   5.132
 5069TIP3   OH215212   2.945   4.686   3.579
 5069TIP3    H115213   2.935   4.619   3.649
 5069TIP3    H215214   3.043   4.684   3.567
 5070TIP3   OH215215   1.857   5.087   4.680
 5070TIP3    H115216   1.912   5.016   4.718
 5070TIP3    H215217   1.890   5.164   4.729
 5071TIP3   OH215218   2.145   4.732   3.366
 5071TIP3    H115219   2.157   4.639   3.339
 5071TIP3    H215220   2.124   4.723   3.461
 5072TIP3   OH215221   2.088   4.738   3.638
 5072TIP3    H115222   2.165   4.713   3.691
 5072TIP3    H215223   2.090   4.836   3.645
 5073TIP3   OH215224   1.826   4.431   3.844
 5073TIP3    H115225   1.758   4.476   3.899
 5073TIP3    H215226   1.839   4.498   3.775
 5074TIP3   OH215227   2.985   4.060   4.729
 5074TIP3    H115228   3.059   4.106   4.772
 5074TIP3    H215229   2.972   3.982   4.787
 5075TIP3   OH215230   2.854   3.831   3.889
 5075TIP3    H115231   2.854   3.853   3.795
 5075TIP3    H215232   2.902   3.908   3.928
 5076TIP3   OH215233   2.358   4.933   3.585
 5076TIP3    H115234   2.270   4.959   3.621
 5076TIP3    H215235   2.374   5.009   3.527
 5077TIP3   OH215236   2.546   4.014   4.003
 5077TIP3    H115237   2.613   4.083   3.982
 5077TIP3    H215238   2.561   4.003   4.100
 5078TIP3   OH215239   2.817   4.314   4.805
 5078TIP3    H115240   2.841   4.374   4.879
 5078TIP3    H215241   2.871   4.236   4.825
 5079TIP3   OH215242   2.716   3.713   4.093
 5079TIP3    H115243   2.741   3.759   4.176
 5079TIP3    H215244   2.775   3.757   4.028
 5080TIP3   OH215245   2.103   5.010   3.656
 5080TIP3    H115246   2.075   5.081   3.593
 5080TIP3    H215247   2.088   5.053   3.742
 5081TIP3   OH215248   2.200   3.722   3.925
 5081TIP3    H115249   2.143   3.789   3.883
 5081TIP3    H215250   2.244   3.687   3.845
 5082TIP3   OH215251   3.451   4.215   4.790
 5082TIP3    H115252   3.353   4.216   4.796
 5082TIP3    H215253   3.462   4.171   4.705
 5083TIP3   OH215254   3.105   4.409   4.176
 5083TIP3    H115255   3.030   4.349   4.190
 5083TIP3    H215256   3.177   4.363   4.225
 5084TIP3   OH215257   1.822   4.632   3.646
 5084TIP3    H115258   1.893   4.698   3.653
 5084TIP3    H215259   1.863   4.573   3.579
 5085TIP3   OH215260   1.761   3.913   3.783
 5085TIP3    H115261   1.760   4.011   3.781
 5085TIP3    H215262   1.698   3.892   3.714
 5086TIP3   OH215263   3.076   5.371   4.122
 5086TIP3    H115264   3.034   5.418   4.047
 5086TIP3    H215265   3.171   5.389   4.103
 5087TIP3   OH215266   1.683   4.850   4.028
 5087TIP3    H115267   1.623   4.883   4.096
 5087TIP3    H215268   1.651   4.897   3.949
 5088TIP3   OH215269   1.861   5.395   5.092
 5088TIP3    H115270   1.947   5.397   5.141
 5088TIP3    H215271   1.846   5.298   5.089
 5089TIP3   OH215272   2.328   5.357   5.148
 5089TIP3    H115273   2.420   5.329   5.158
 5089TIP3    H215274   2.299   5.297   5.077
 5090TIP3   OH215275   2.308   4.934   3.273
 5090TIP3    H115276   2.254   4.862   3.313
 5090TIP3    H215277   2.384   4.883   3.239
 5091TIP3   OH215278   2.964   5.271   4.882
 5091TIP3    H115279   2.960   5.199   4.950
 5091TIP3    H215280   3.043   5.321   4.910
 5092TIP3   OH215281   2.744   4.971   3.190
 5092TIP3    H115282   2.782   4.905   3.251
 5092TIP3    H215283   2.803   4.966   3.113
 5093TIP3   OH215284   1.977   4.806   5.308
 5093TIP3    H115285   2.000   4.711   5.306
 5093TIP3    H215286   1.893   4.807   5.257
 5094TIP3   OH215287   1.957   4.446   3.501
 5094TIP3    H115288   2.017   4.419   3.574
 5094TIP3    H215289   2.022   4.451   3.428
 5095TIP3   OH215290   2.477   4.652   3.309
 5095TIP3    H115291   2.475   4.665   3.406
 5095TIP3    H215292   2.477   4.554   3.303
 5096TIP3   OH215293   3.077   4.901   4.686
 5096TIP3    H115294   3.152   4.946   4.642
 5096TIP3    H215295   3.006   4.966   4.673
 5097TIP3   OH215296   2.099   4.536   5.287
 5097TIP3    H115297   2.183   4.511   5.248
 5097TIP3    H215298   2.127   4.568   5.375
 5098TIP3   OH215299   2.157   4.360   3.714
 5098TIP3    H115300   2.132   4.318   3.797
 5098TIP3    H215301   2.198   4.286   3.664
 5099TIP3   OH215302   2.416   4.398   4.929
 5099TIP3    H115303   2.358   4.475   4.948
 5099TIP3    H215304   2.481   4.439   4.867
 5100TIP3   OH215305   2.266   4.152   3.565
 5100TIP3    H115306   2.239   4.155   3.471
 5100TIP3    H215307   2.364   4.156   3.555
 5101TIP3   OH215308   2.957   4.828   5.078
 5101TIP3    H115309   3.026   4.786   5.027
 5101TIP3    H215310   2.942   4.762   5.149
 5102TIP3   OH215311   3.083   4.479   3.228
 5102TIP3    H115312   3.063   4.435   3.143
 5102TIP3    H215313   3.050   4.570   3.206
 5103TIP3   OH215314   2.555   4.211   5.075
 5103TIP3    H115315   2.561   4.132   5.017
 5103TIP3    H215316   2.512   4.276   5.016
 5104TIP3   OH215317   2.560   3.996   4.881
 5104TIP3    H115318   2.590   4.042   4.800
 5104TIP3    H215319   2.466   3.977   4.859
 5105TIP3   OH215320   2.574   4.512   4.738
 5105TIP3    H115321   2.664   4.541   4.721
 5105TIP3    H215322   2.521   4.586   4.701
 5106TIP3   OH215323   3.168   4.495   5.135
 5106TIP3    H115324   3.218   4.413   5.144
 5106TIP3    H215325   3.234   4.554   5.096
 5107TIP3   OH215326   3.207   4.752   4.871
 5107TIP3    H115327   3.149   4.808   4.813
 5107TIP3    H215328   3.295   4.773   4.832
 5108TIP3   OH215329   2.431   4.317   5.306
 5108TIP3    H115330   2.365   4.246   5.319
 5108TIP3    H215331   2.468   4.294   5.219
 5109TIP3   OH215332   2.694   3.763   4.958
 5109TIP3    H115333   2.645   3.843   4.930
 5109TIP3    H215334   2.629   3.693   4.943
 5110TIP3   OH215335   2.818   4.263   5.163
 5110TIP3    H115336   2.805   4.259   5.260
 5110TIP3    H215337   2.728   4.241   5.133
 5111TIP3   OH215338   3.053   4.202   5.017
 5111TIP3    H115339   2.978   4.214   5.078
 5111TIP3    H215340   3.126   4.178   5.078
 5112TIP3   OH215341   3.286   4.157   5.172
 5112TIP3    H115342   3.299   4.061   5.186
 5112TIP3    H215343   3.281   4.192   5.263
 5113TIP3   OH215344   2.269   4.100   5.368
 5113TIP3    H115345   2.274   4.008   5.335
 5113TIP3    H215346   2.309   4.089   5.456
 5114TIP3   OH215347   2.781   3.765   5.218
 5114TIP3    H115348   2.849   3.696   5.208
 5114TIP3    H215349   2.744   3.766   5.127
 5115TIP3   OH215350   2.848   3.982   5.372
 5115TIP3    H115351   2.826   3.912   5.307
 5115TIP3    H215352   2.771   4.043   5.362
 5116TIP3   OH215353   2.076   5.212   3.468
 5116TIP3    H115354   2.171   5.203   3.447
 5116TIP3    H215355   2.047   5.265   3.391
 5117TIP3   OH215356   1.552   4.594   3.680
 5117TIP3    H115357   1.647   4.615   3.666
 5117TIP3    H215358   1.545   4.506   3.637
 5118TIP3   OH215359   1.469   5.204   4.100
 5118TIP3    H115360   1.404   5.144   4.059
 5118TIP3    H215361   1.514   5.143   4.163
 5119TIP3   OH215362   1.604   5.047   4.283
 5119TIP3    H115363   1.591   4.980   4.353
 5119TIP3    H215364   1.657   5.113   4.333
 5120TIP3   OH215365   3.333   5.455   4.086
 5120TIP3    H115366   3.359   5.486   4.175
 5120TIP3    H215367   3.400   5.497   4.030
 5121TIP3   OH215368   3.360   5.476   4.369
 5121TIP3    H115369   3.314   5.390   4.365
 5121TIP3    H215370   3.434   5.451   4.428
 5122TIP3   OH215371   3.407   5.156   4.940
 5122TIP3    H115372   3.336   5.166   5.006
 5122TIP3    H215373   3.451   5.243   4.945
 5123TIP3   OH215374   3.224   4.667   3.557
 5123TIP3    H115375   3.290   4.733   3.528
 5123TIP3    H215376   3.268   4.629   3.636
 5124TIP3   OH215377   3.350   4.534   3.762
 5124TIP3    H115378   3.284   4.493   3.821
 5124TIP3    H215379   3.417   4.569   3.825
 5125TIP3   OH215380   3.408   4.929   4.192
 5125TIP3    H115381   3.462   4.861   4.147
 5125TIP3    H215382   3.404   5.000   4.126
 5126TIP3   OH215383   3.232   5.227   4.386
 5126TIP3    H115384   3.160   5.268   4.438
 5126TIP3    H215385   3.182   5.181   4.315
 5127TIP3   OH215386   3.285   4.445   3.407
 5127TIP3    H115387   3.212   4.447   3.341
 5127TIP3    H215388   3.259   4.521   3.462
 5128TIP3   OH215389   3.165   4.114   3.349
 5128TIP3    H115390   3.102   4.142   3.282
 5128TIP3    H215391   3.138   4.020   3.362
 5129TIP3   OH215392   3.160   4.393   3.905
 5129TIP3    H115393   3.170   4.297   3.899
 5129TIP3    H215394   3.146   4.406   4.002
 5130TIP3   OH215395   1.787   4.466   4.657
 5130TIP3    H115396   1.784   4.432   4.565
 5130TIP3    H215397   1.885   4.466   4.672
 5131TIP3   OH215398   3.453   4.817   4.766
 5131TIP3    H115399   3.523   4.749   4.753
 5131TIP3    H215400   3.478   4.886   4.702
 5132TIP3   OH215401   3.634   4.615   4.768
 5132TIP3    H115402   3.559   4.567   4.810
 5132TIP3    H215403   3.707   4.553   4.787
 5133TIP3   OH215404   3.095   3.853   3.383
 5133TIP3    H115405   3.163   3.787   3.373
 5133TIP3    H215406   3.017   3.799   3.403
 5134TIP3   OH215407   3.159   4.110   3.796
 5134TIP3    H115408   3.202   4.022   3.811
 5134TIP3    H215409   3.218   4.144   3.726
 5135TIP3   OH215410   3.318   4.278   4.297
 5135TIP3    H115411   3.404   4.302   4.255
 5135TIP3    H215412   3.334   4.316   4.385
 5136TIP3   OH215413   3.392   4.426   4.526
 5136TIP3    H115414   3.316   4.460   4.577
 5136TIP3    H215415   3.424   4.508   4.482
 5137TIP3   OH215416   2.002   4.147   5.324
 5137TIP3    H115417   2.100   4.146   5.334
 5137TIP3    H215418   1.981   4.060   5.365
 5138TIP3   OH215419   3.839   4.020   5.081
 5138TIP3    H115420   3.901   3.956   5.039
 5138TIP3    H215421   3.809   4.073   5.004
 5139TIP3   OH215422   3.265   3.859   3.839
 5139TIP3    H115423   3.315   3.843   3.921
 5139TIP3    H215424   3.206   3.781   3.838
 5140TIP3   OH215425   1.982   3.836   4.639
 5140TIP3    H115426   2.019   3.763   4.695
 5140TIP3    H215427   2.046   3.906   4.650
 5141TIP3   OH215428   1.767   4.112   4.732
 5141TIP3    H115429   1.817   4.114   4.648
 5141TIP3    H215430   1.796   4.195   4.773
 5142TIP3   OH215431   3.708   4.154   4.885
 5142TIP3    H115432   3.622   4.197   4.905
 5142TIP3    H215433   3.677   4.080   4.829
 5143TIP3   OH215434   1.753   3.633   4.242
 5143TIP3    H115435   1.660   3.617   4.266
 5143TIP3    H215436   1.744   3.685   4.159
 5144TIP3   OH215437   2.913   5.326   3.739
 5144TIP3    H115438   2.967   5.315   3.658
 5144TIP3    H215439   2.964   5.391   3.790
 5145TIP3   OH215440   2.009   5.136   5.123
 5145TIP3    H115441   1.917   5.103   5.111
 5145TIP3    H215442   2.031   5.104   5.211
 5146TIP3   OH215443   2.193   5.164   4.673
 5146TIP3    H115444   2.149   5.242   4.634
 5146TIP3    H215445   2.281   5.175   4.631
 5147TIP3   OH215446   2.632   5.409   4.812
 5147TIP3    H115447   2.675   5.403   4.900
 5147TIP3    H215448   2.700   5.459   4.762
 5148TIP3   OH215449   2.813   5.561   4.672
 5148TIP3    H115450   2.882   5.507   4.629
 5148TIP3    H215451   2.868   5.617   4.731
 5149TIP3   OH215452   3.610   3.916   4.768
 5149TIP3    H115453   3.520   3.905   4.732
 5149TIP3    H215454   3.645   3.825   4.758
 5150TIP3   OH215455   1.868   5.415   4.696
 5150TIP3    H115456   1.777   5.446   4.674
 5150TIP3    H215457   1.883   5.462   4.779
 5151TIP3   OH215458   2.105   5.399   4.556
 5151TIP3    H115459   2.017   5.409   4.599
 5151TIP3    H215460   2.086   5.431   4.465
 5152TIP3   OH215461   2.530   5.423   4.353
 5152TIP3    H115462   2.460   5.441   4.287
 5152TIP3    H215463   2.541   5.511   4.394
 5153TIP3   OH215464   2.799   5.364   4.406
 5153TIP3    H115465   2.705   5.380   4.386
 5153TIP3    H215466   2.842   5.436   4.358
 5154TIP3   OH215467   3.004   5.554   4.316
 5154TIP3    H115468   2.990   5.638   4.268
 5154TIP3    H215469   3.031   5.494   4.243
 5155TIP3   OH215470   1.778   5.208   4.439
 5155TIP3    H115471   1.805   5.181   4.529
 5155TIP3    H215472   1.852   5.170   4.387
 5156TIP3   OH215473   1.977   5.085   4.301
 5156TIP3    H115474   1.991   5.000   4.348
 5156TIP3    H215475   2.068   5.121   4.299
 5157TIP3   OH215476   2.243   5.174   4.308
 5157TIP3    H115477   2.272   5.081   4.300
 5157TIP3    H215478   2.293   5.199   4.388
 5158TIP3   OH215479   2.792   3.817   4.355
 5158TIP3    H115480   2.765   3.755   4.427
 5158TIP3    H215481   2.881   3.785   4.333
 5159TIP3   OH215482   3.333   3.722   4.297
 5159TIP3    H115483   3.369   3.769   4.218
 5159TIP3    H215484   3.237   3.737   4.286
 5160TIP3   OH215485   3.428   3.814   4.058
 5160TIP3    H115486   3.500   3.759   4.021
 5160TIP3    H215487   3.465   3.904   4.043
 5161TIP3   OH215488   1.851   3.415   4.058
 5161TIP3    H115489   1.878   3.467   3.980
 5161TIP3    H215490   1.833   3.483   4.125
 5162TIP3   OH215491   3.044   3.721   4.268
 5162TIP3    H115492   3.059   3.678   4.183
 5162TIP3    H215493   3.040   3.642   4.328
 5163TIP3   OH215494   3.083   3.645   3.836
 5163TIP3    H115495   2.991   3.676   3.837
 5163TIP3    H215496   3.074   3.559   3.882
 5164TIP3   OH215497   1.565   4.991   3.828
 5164TIP3    H115498   1.479   4.959   3.795
 5164TIP3    H215499   1.559   5.084   3.799
 5165TIP3   OH215500   1.958   3.562   3.820
 5165TIP3    H115501   2.001   3.498   3.760
 5165TIP3    H215502   2.033   3.599   3.868
 5166TIP3   OH215503   2.495   3.757   3.947
 5166TIP3    H115504   2.569   3.709   3.990
 5166TIP3    H215505   2.539   3.844   3.937
 5167TIP3   OH215506   2.341   5.165   3.414
 5167TIP3    H115507   2.429   5.189   3.376
 5167TIP3    H215508   2.319   5.090   3.354
 5168TIP3   OH215509   3.062   5.293   3.508
 5168TIP3    H115510   3.054   5.195   3.497
 5168TIP3    H215511   3.015   5.324   3.428
 5169TIP3   OH215512   2.270   3.835   5.294
 5169TIP3    H115513   2.236   3.753   5.333
 5169TIP3    H215514   2.364   3.829   5.319
 5170TIP3   OH215515   2.520   3.820   5.412
 5170TIP3    H115516   2.605   3.800   5.371
 5170TIP3    H215517   2.510   3.746   5.475
 5171TIP3   OH215518   1.643   5.004   3.467
 5171TIP3    H115519   1.649   5.026   3.561
 5171TIP3    H215520   1.730   4.960   3.450
 5172TIP3   OH215521   3.349   3.886   5.200
 5172TIP3    H115522   3.368   3.856   5.291
 5172TIP3    H215523   3.438   3.881   5.159
 5173TIP3   OH215524   3.282   5.433   4.693
 5173TIP3    H115525   3.203   5.403   4.643
 5173TIP3    H215526   3.262   5.529   4.701
 5174TIP3   OH215527   4.553   4.806   3.458
 5174TIP3    H115528   4.521   4.896   3.437
 5174TIP3    H215529   4.479   4.754   3.422
 5175TIP3   OH215530   4.526   4.802   3.850
 5175TIP3    H115531   4.573   4.783   3.933
 5175TIP3    H215532   4.488   4.714   3.829
 5176TIP3   OH215533   3.847   4.697   4.207
 5176TIP3    H115534   3.877   4.628   4.270
 5176TIP3    H215535   3.926   4.752   4.201
 5177TIP3   OH215536   4.800   5.114   3.524
 5177TIP3    H115537   4.789   5.043   3.588
 5177TIP3    H215538   4.833   5.187   3.580
 5178TIP3   OH215539   3.825   5.113   3.926
 5178TIP3    H115540   3.815   5.015   3.927
 5178TIP3    H215541   3.922   5.121   3.921
 5179TIP3   OH215542   3.529   4.316   3.708
 5179TIP3    H115543   3.477   4.396   3.727
 5179TIP3    H215544   3.462   4.260   3.667
 5180TIP3   OH215545   3.585   4.601   3.894
 5180TIP3    H115546   3.636   4.523   3.927
 5180TIP3    H215547   3.646   4.637   3.828
 5181TIP3   OH215548   4.452   5.571   3.544
 5181TIP3    H115549   4.490   5.501   3.488
 5181TIP3    H215550   4.438   5.525   3.627
 5182TIP3   OH215551   4.350   5.034   3.889
 5182TIP3    H115552   4.391   4.954   3.850
 5182TIP3    H215553   4.432   5.083   3.910
 5183TIP3   OH215554   5.365   4.350   3.891
 5183TIP3    H115555   5.387   4.435   3.933
 5183TIP3    H215556   5.390   4.368   3.799
 5184TIP3   OH215557   4.760   4.530   3.924
 5184TIP3    H115558   4.795   4.442   3.945
 5184TIP3    H215559   4.724   4.515   3.834
 5185TIP3   OH215560   4.108   4.191   3.880
 5185TIP3    H115561   4.082   4.264   3.819
 5185TIP3    H215562   4.057   4.117   3.840
 5186TIP3   OH215563   4.811   4.309   3.511
 5186TIP3    H115564   4.907   4.309   3.499
 5186TIP3    H215565   4.784   4.339   3.423
 5187TIP3   OH215566   3.735   4.394   3.994
 5187TIP3    H115567   3.818   4.373   4.040
 5187TIP3    H215568   3.746   4.339   3.913
 5188TIP3   OH215569   4.170   4.592   3.791
 5188TIP3    H115570   4.264   4.568   3.801
 5188TIP3    H215571   4.131   4.509   3.757
 5189TIP3   OH215572   5.422   4.564   4.068
 5189TIP3    H115573   5.352   4.624   4.035
 5189TIP3    H215574   5.462   4.616   4.139
 5190TIP3   OH215575   4.097   4.177   4.321
 5190TIP3    H115576   4.038   4.212   4.252
 5190TIP3    H215577   4.043   4.194   4.401
 5191TIP3   OH215578   4.433   5.022   3.330
 5191TIP3    H115579   4.402   5.012   3.239
 5191TIP3    H215580   4.391   5.107   3.355
 5192TIP3   OH215581   4.204   4.953   4.110
 5192TIP3    H115582   4.144   5.022   4.145
 5192TIP3    H215583   4.248   5.000   4.036
 5193TIP3   OH215584   3.972   4.290   4.100
 5193TIP3    H115585   4.033   4.364   4.123
 5193TIP3    H215586   4.022   4.249   4.026
 5194TIP3   OH215587   4.034   5.151   4.209
 5194TIP3    H115588   4.009   5.239   4.175
 5194TIP3    H215589   3.956   5.132   4.265
 5195TIP3   OH215590   3.422   4.840   3.447
 5195TIP3    H115591   3.381   4.866   3.362
 5195TIP3    H215592   3.453   4.926   3.482
 5196TIP3   OH215593   4.859   5.361   3.683
 5196TIP3    H115594   4.770   5.347   3.723
 5196TIP3    H215595   4.846   5.447   3.639
 5197TIP3   OH215596   5.130   4.236   3.977
 5197TIP3    H115597   5.100   4.306   4.037
 5197TIP3    H215598   5.218   4.273   3.949
 5198TIP3   OH215599   4.451   3.895   4.042
 5198TIP3    H115600   4.434   3.799   4.057
 5198TIP3    H215601   4.372   3.933   4.086
 5199TIP3   OH215602   4.559   5.400   3.357
 5199TIP3    H115603   4.610   5.317   3.338
 5199TIP3    H215604   4.621   5.465   3.315
 5200TIP3   OH215605   4.702   5.184   3.276
 5200TIP3    H115606   4.682   5.101   3.231
 5200TIP3    H215607   4.743   5.152   3.360
 5201TIP3   OH215608   5.084   5.243   4.008
 5201TIP3    H115609   5.103   5.165   3.951
 5201TIP3    H215610   5.072   5.315   3.943
 5202TIP3   OH215611   4.383   4.658   3.294
 5202TIP3    H115612   4.304   4.711   3.271
 5202TIP3    H215613   4.429   4.652   3.208
 5203TIP3   OH215614   4.340   4.447   2.999
 5203TIP3    H115615   4.410   4.496   3.046
 5203TIP3    H215616   4.394   4.375   2.960
 5204TIP3   OH215617   4.725   4.742   3.256
 5204TIP3    H115618   4.674   4.766   3.336
 5204TIP3    H215619   4.811   4.718   3.296
 5205TIP3   OH215620   4.961   4.777   4.184
 5205TIP3    H115621   4.960   4.862   4.232
 5205TIP3    H215622   4.880   4.787   4.130
 5206TIP3   OH215623   3.961   4.738   3.679
 5206TIP3    H115624   3.921   4.679   3.612
 5206TIP3    H215625   4.038   4.684   3.710
 5207TIP3   OH215626   4.093   5.153   3.823
 5207TIP3    H115627   4.074   5.118   3.734
 5207TIP3    H215628   4.182   5.115   3.841
 5208TIP3   OH215629   4.097   4.710   4.034
 5208TIP3    H115630   4.129   4.685   3.945
 5208TIP3    H215631   4.140   4.796   4.050
 5209TIP3   OH215632   4.622   5.350   3.810
 5209TIP3    H115633   4.608   5.425   3.870
 5209TIP3    H215634   4.609   5.272   3.868
 5210TIP3   OH215635   4.238   5.261   4.357
 5210TIP3    H115636   4.178   5.323   4.404
 5210TIP3    H215637   4.172   5.210   4.306
 5211TIP3   OH215638   4.566   4.590   3.090
 5211TIP3    H115639   4.627   4.648   3.140
 5211TIP3    H215640   4.592   4.612   2.997
 5212TIP3   OH215641   3.993   4.819   4.465
 5212TIP3    H115642   3.998   4.908   4.504
 5212TIP3    H215643   3.898   4.800   4.477
 5213TIP3   OH215644   4.316   5.275   3.362
 5213TIP3    H115645   4.399   5.325   3.369
 5213TIP3    H215646   4.256   5.338   3.319
 5214TIP3   OH215647   4.033   5.424   4.444
 5214TIP3    H115648   3.996   5.430   4.354
 5214TIP3    H215649   3.952   5.408   4.498
 5215TIP3   OH215650   5.084   3.833   3.136
 5215TIP3    H115651   4.999   3.860   3.177
 5215TIP3    H215652   5.107   3.914   3.086
 5216TIP3   OH215653   3.829   4.582   3.482
 5216TIP3    H115654   3.758   4.625   3.430
 5216TIP3    H215655   3.795   4.493   3.493
 5217TIP3   OH215656   4.890   5.203   2.689
 5217TIP3    H115657   4.900   5.300   2.673
 5217TIP3    H215658   4.982   5.172   2.677
 5218TIP3   OH215659   3.609   4.966   4.391
 5218TIP3    H115660   3.541   4.946   4.324
 5218TIP3    H215661   3.647   4.879   4.412
 5219TIP3   OH215662   3.465   5.158   4.020
 5219TIP3    H115663   3.561   5.153   4.013
 5219TIP3    H215664   3.454   5.235   4.078
 5220TIP3   OH215665   5.315   5.590   4.037
 5220TIP3    H115666   5.308   5.499   4.070
 5220TIP3    H215667   5.302   5.643   4.119
 5221TIP3   OH215668   4.433   5.391   4.212
 5221TIP3    H115669   4.427   5.485   4.240
 5221TIP3    H215670   4.363   5.351   4.268
 5222TIP3   OH215671   4.198   5.521   3.168
 5222TIP3    H115672   4.150   5.503   3.085
 5222TIP3    H215673   4.164   5.609   3.194
 5223TIP3   OH215674   3.634   5.371   3.552
 5223TIP3    H115675   3.680   5.362   3.639
 5223TIP3    H215676   3.585   5.287   3.549
 5224TIP3   OH215677   4.396   5.426   2.803
 5224TIP3    H115678   4.453   5.354   2.768
 5224TIP3    H215679   4.432   5.437   2.894
 5225TIP3   OH215680   4.449   5.476   3.071
 5225TIP3    H115681   4.361   5.484   3.115
 5225TIP3    H215682   4.502   5.436   3.142
 5226TIP3   OH215683   5.217   4.739   4.355
 5226TIP3    H115684   5.134   4.750   4.307
 5226TIP3    H215685   5.228   4.642   4.355
 5227TIP3   OH215686   3.815   5.148   4.372
 5227TIP3    H115687   3.863   5.134   4.457
 5227TIP3    H215688   3.740   5.086   4.382
 5228TIP3   OH215689   4.212   3.972   4.167
 5228TIP3    H115690   4.124   3.940   4.137
 5228TIP3    H215691   4.183   4.051   4.217
 5229TIP3   OH215692   4.747   4.089   4.358
 5229TIP3    H115693   4.814   4.064   4.424
 5229TIP3    H215694   4.663   4.071   4.405
 5230TIP3   OH215695   4.982   4.514   4.270
 5230TIP3    H115696   4.935   4.510   4.356
 5230TIP3    H215697   4.961   4.604   4.239
 5231TIP3   OH215698   4.644   4.639   2.833
 5231TIP3    H115699   4.611   4.617   2.744
 5231TIP3    H215700   4.729   4.680   2.812
 5232TIP3   OH215701   4.347   4.030   3.130
 5232TIP3    H115702   4.315   4.034   3.222
 5232TIP3    H215703   4.348   3.936   3.114
 5233TIP3   OH215704   4.148   4.487   4.182
 5233TIP3    H115705   4.096   4.504   4.264
 5233TIP3    H215706   4.130   4.569   4.131
 5234TIP3   OH215707   4.028   4.374   3.697
 5234TIP3    H115708   3.935   4.347   3.715
 5234TIP3    H215709   4.039   4.335   3.607
 5235TIP3   OH215710   4.515   4.459   3.433
 5235TIP3    H115711   4.466   4.531   3.388
 5235TIP3    H215712   4.574   4.428   3.361
 5236TIP3   OH215713   4.692   4.734   4.508
 5236TIP3    H115714   4.669   4.663   4.571
 5236TIP3    H215715   4.786   4.748   4.531
 5237TIP3   OH215716   4.665   4.482   3.674
 5237TIP3    H115717   4.608   4.516   3.602
 5237TIP3    H215718   4.708   4.409   3.624
 5238TIP3   OH215719   3.967   4.514   4.390
 5238TIP3    H115720   3.991   4.578   4.458
 5238TIP3    H215721   3.952   4.433   4.442
 5239TIP3   OH215722   4.026   3.996   3.102
 5239TIP3    H115723   4.015   3.982   3.198
 5239TIP3    H215724   3.945   4.046   3.082
 5240TIP3   OH215725   3.555   4.038   3.977
 5240TIP3    H115726   3.634   4.067   4.026
 5240TIP3    H215727   3.591   4.003   3.893
 5241TIP3   OH215728   3.545   4.040   3.506
 5241TIP3    H115729   3.586   4.054   3.419
 5241TIP3    H215730   3.476   4.109   3.507
 5242TIP3   OH215731   4.671   4.729   4.082
 5242TIP3    H115732   4.710   4.661   4.023
 5242TIP3    H215733   4.650   4.674   4.160
 5243TIP3   OH215734   4.360   4.192   3.758
 5243TIP3    H115735   4.272   4.185   3.801
 5243TIP3    H215736   4.416   4.207   3.835
 5244TIP3   OH215737   3.791   4.252   3.763
 5244TIP3    H115738   3.697   4.259   3.734
 5244TIP3    H215739   3.813   4.160   3.741
 5245TIP3   OH215740   4.055   4.251   3.455
 5245TIP3    H115741   4.148   4.261   3.429
 5245TIP3    H215742   4.006   4.272   3.373
 5246TIP3   OH215743   4.834   4.229   3.926
 5246TIP3    H115744   4.822   4.251   4.019
 5246TIP3    H215745   4.751   4.179   3.908
 5247TIP3   OH215746   3.904   4.289   3.231
 5247TIP3    H115747   3.839   4.236   3.182
 5247TIP3    H215748   3.959   4.323   3.157
 5248TIP3   OH215749   4.986   5.940   4.151
 5248TIP3    H115750   5.013   6.027   4.112
 5248TIP3    H215751   5.052   5.937   4.221
 5249TIP3   OH215752   3.977   5.070   4.599
 5249TIP3    H115753   4.056   5.100   4.648
 5249TIP3    H215754   3.912   5.070   4.671
 5250TIP3   OH215755   4.436   4.525   3.855
 5250TIP3    H115756   4.510   4.487   3.805
 5250TIP3    H215757   4.443   4.482   3.942
 5251TIP3   OH215758   3.959   4.007   3.741
 5251TIP3    H115759   3.919   3.932   3.791
 5251TIP3    H215760   3.992   3.961   3.663
 5252TIP3   OH215761   4.417   4.429   4.138
 5252TIP3    H115762   4.326   4.459   4.155
 5252TIP3    H215763   4.471   4.489   4.194
 5253TIP3   OH215764   4.151   4.809   3.237
 5253TIP3    H115765   4.078   4.745   3.225
 5253TIP3    H215766   4.131   4.844   3.328
 5254TIP3   OH215767   4.570   5.138   4.233
 5254TIP3    H115768   4.580   5.115   4.326
 5254TIP3    H215769   4.516   5.219   4.237
 5255TIP3   OH215770   4.692   4.369   3.243
 5255TIP3    H115771   4.787   4.369   3.219
 5255TIP3    H215772   4.654   4.419   3.168
 5256TIP3   OH215773   3.846   4.836   3.913
 5256TIP3    H115774   3.885   4.807   3.828
 5256TIP3    H215775   3.890   4.777   3.976
 5257TIP3   OH215776   4.297   4.960   3.061
 5257TIP3    H115777   4.248   5.046   3.067
 5257TIP3    H215778   4.244   4.904   3.122
 5258TIP3   OH215779   3.729   4.752   4.528
 5258TIP3    H115780   3.745   4.738   4.624
 5258TIP3    H215781   3.658   4.688   4.511
 5259TIP3   OH215782   4.453   4.873   4.547
 5259TIP3    H115783   4.390   4.811   4.507
 5259TIP3    H215784   4.539   4.836   4.519
 5260TIP3   OH215785   4.716   5.435   4.120
 5260TIP3    H115786   4.624   5.404   4.128
 5260TIP3    H215787   4.735   5.457   4.214
 5261TIP3   OH215788   5.117   4.463   3.039
 5261TIP3    H115789   5.058   4.414   2.978
 5261TIP3    H215790   5.110   4.552   2.997
 5262TIP3   OH215791   5.326   5.314   4.107
 5262TIP3    H115792   5.231   5.297   4.092
 5262TIP3    H215793   5.362   5.284   4.020
 5263TIP3   OH215794   4.819   5.285   2.951
 5263TIP3    H115795   4.800   5.213   3.013
 5263TIP3    H215796   4.839   5.237   2.868
 5264TIP3   OH215797   4.782   4.930   3.810
 5264TIP3    H115798   4.703   4.877   3.789
 5264TIP3    H215799   4.854   4.875   3.776
 5265TIP3   OH215800   3.948   5.141   3.543
 5265TIP3    H115801   3.945   5.221   3.487
 5265TIP3    H215802   3.854   5.122   3.555
 5266TIP3   OH215803   3.510   4.441   3.249
 5266TIP3    H115804   3.557   4.525   3.271
 5266TIP3    H215805   3.433   4.447   3.310
 5267TIP3   OH215806   4.073   4.901   3.480
 5267TIP3    H115807   4.043   4.992   3.501
 5267TIP3    H215808   4.040   4.851   3.557
 5268TIP3   OH215809   4.217   5.478   4.009
 5268TIP3    H115810   4.257   5.552   3.959
 5268TIP3    H215811   4.294   5.443   4.056
 5269TIP3   OH215812   3.862   5.378   3.392
 5269TIP3    H115813   3.777   5.386   3.439
 5269TIP3    H215814   3.895   5.471   3.396
 5270TIP3   OH215815   4.607   5.117   3.960
 5270TIP3    H115816   4.606   5.104   4.058
 5270TIP3    H215817   4.674   5.052   3.930
 5271TIP3   OH215818   4.581   5.014   2.855
 5271TIP3    H115819   4.636   4.991   2.933
 5271TIP3    H215820   4.495   4.981   2.884
 5272TIP3   OH215821   4.834   5.668   4.032
 5272TIP3    H115822   4.802   5.585   4.075
 5272TIP3    H215823   4.775   5.662   3.953
 5273TIP3   OH215824   4.921   5.479   2.672
 5273TIP3    H115825   4.958   5.553   2.620
 5273TIP3    H215826   4.842   5.523   2.708
 5274TIP3   OH215827   3.934   4.260   4.532
 5274TIP3    H115828   3.837   4.262   4.544
 5274TIP3    H215829   3.961   4.205   4.608
 5275TIP3   OH215830   4.736   4.948   3.071
 5275TIP3    H115831   4.725   4.876   3.136
 5275TIP3    H215832   4.833   4.941   3.055
 5276TIP3   OH215833   3.654   5.342   4.166
 5276TIP3    H115834   3.708   5.271   4.204
 5276TIP3    H215835   3.678   5.416   4.223
 5277TIP3   OH215836   3.940   4.989   2.852
 5277TIP3    H115837   3.954   4.896   2.827
 5277TIP3    H215838   3.920   4.980   2.948
 5278TIP3   OH215839   3.884   4.995   3.124
 5278TIP3    H115840   3.960   4.966   3.177
 5278TIP3    H215841   3.888   5.092   3.134
 5279TIP3   OH215842   3.618   4.684   3.330
 5279TIP3    H115843   3.552   4.731   3.385
 5279TIP3    H215844   3.634   4.752   3.261
 5280TIP3   OH215845   4.817   4.293   4.183
 5280TIP3    H115846   4.861   4.360   4.238
 5280TIP3    H215847   4.785   4.229   4.252
 5281TIP3   OH215848   4.633   4.082   3.379
 5281TIP3    H115849   4.605   4.108   3.290
 5281TIP3    H215850   4.688   4.158   3.405
 5282TIP3   OH215851   4.154   5.190   3.071
 5282TIP3    H115852   4.067   5.215   3.108
 5282TIP3    H215853   4.170   5.266   3.013
 5283TIP3   OH215854   4.343   4.252   3.489
 5283TIP3    H115855   4.403   4.327   3.468
 5283TIP3    H215856   4.345   4.252   3.587
 5284TIP3   OH215857   4.619   4.567   4.298
 5284TIP3    H115858   4.631   4.636   4.368
 5284TIP3    H215859   4.667   4.493   4.338
 5285TIP3   OH215860   4.490   3.985   3.598
 5285TIP3    H115861   4.456   4.068   3.636
 5285TIP3    H215862   4.544   4.018   3.523
 5286TIP3   OH215863   3.900   5.267   3.143
 5286TIP3    H115864   3.871   5.338   3.081
 5286TIP3    H215865   3.884   5.310   3.230
 5287TIP3   OH215866   4.003   3.982   3.379
 5287TIP3    H115867   3.996   4.071   3.416
 5287TIP3    H215868   4.100   3.968   3.386
 5288TIP3   OH215869   5.249   4.466   4.283
 5288TIP3    H115870   5.151   4.468   4.277
 5288TIP3    H215871   5.277   4.481   4.192
 5289TIP3   OH215872   4.905   4.659   3.655
 5289TIP3    H115873   4.827   4.609   3.684
 5289TIP3    H215874   4.976   4.620   3.710
 5290TIP3   OH215875   3.619   4.889   3.132
 5290TIP3    H115876   3.692   4.953   3.140
 5290TIP3    H215877   3.659   4.829   3.066
 5291TIP3   OH215878   3.554   4.168   3.251
 5291TIP3    H115879   3.562   4.265   3.256
 5291TIP3    H215880   3.459   4.156   3.248
 5292TIP3   OH215881   4.870   5.639   3.617
 5292TIP3    H115882   4.827   5.681   3.539
 5292TIP3    H215883   4.964   5.654   3.594
 5293TIP3   OH215884   3.949   3.890   4.135
 5293TIP3    H115885   3.917   3.857   4.048
 5293TIP3    H215886   3.936   3.812   4.192
 5294TIP3   OH215887   3.482   5.110   3.516
 5294TIP3    H115888   3.421   5.141   3.584
 5294TIP3    H215889   3.447   5.156   3.436
 5295TIP3   OH215890   3.650   5.664   4.591
 5295TIP3    H115891   3.734   5.667   4.642
 5295TIP3    H215892   3.632   5.569   4.590
 5296TIP3   OH215893   4.112   5.628   4.619
 5296TIP3    H115894   4.199   5.613   4.659
 5296TIP3    H215895   4.105   5.554   4.555
 5297TIP3   OH215896   4.104   5.190   2.759
 5297TIP3    H115897   4.050   5.118   2.800
 5297TIP3    H215898   4.180   5.139   2.728
 5298TIP3   OH215899   4.773   5.524   4.366
 5298TIP3    H115900   4.752   5.453   4.432
 5298TIP3    H215901   4.854   5.563   4.404
 5299TIP3   OH215902   4.539   5.227   2.677
 5299TIP3    H115903   4.578   5.162   2.740
 5299TIP3    H215904   4.601   5.222   2.602
 5300TIP3   OH215905   3.774   5.060   4.789
 5300TIP3    H115906   3.790   4.964   4.796
 5300TIP3    H215907   3.686   5.063   4.745
 5301TIP3   OH215908   3.754   4.702   2.988
 5301TIP3    H115909   3.812   4.673   3.062
 5301TIP3    H215910   3.821   4.708   2.916
 5302TIP3   OH215911   4.384   5.148   4.564
 5302TIP3    H115912   4.337   5.168   4.480
 5302TIP3    H215913   4.412   5.055   4.552
 5303TIP3   OH215914   4.269   4.907   2.793
 5303TIP3    H115915   4.270   4.920   2.890
 5303TIP3    H215916   4.270   4.809   2.788
 5304TIP3   OH215917   4.885   5.159   4.182
 5304TIP3    H115918   4.949   5.192   4.117
 5304TIP3    H215919   4.803   5.201   4.154
 5305TIP3   OH215920   3.895   4.796   4.776
 5305TIP3    H115921   3.974   4.750   4.747
 5305TIP3    H215922   3.923   4.829   4.865
 5306TIP3   OH215923   3.953   4.616   3.201
 5306TIP3    H115924   3.930   4.575   3.286
 5306TIP3    H215925   3.993   4.541   3.152
 5307TIP3   OH215926   4.233   4.680   4.435
 5307TIP3    H115927   4.153   4.737   4.439
 5307TIP3    H215928   4.278   4.714   4.355
 5308TIP3   OH215929   4.064   4.414   3.045
 5308TIP3    H115930   4.038   4.419   2.951
 5308TIP3    H215931   4.161   4.414   3.037
 5309TIP3   OH215932   4.747   5.079   4.563
 5309TIP3    H115933   4.820   5.039   4.516
 5309TIP3    H215934   4.738   5.020   4.641
 5310TIP3   OH215935   4.877   4.736   2.716
 5310TIP3    H115936   4.858   4.692   2.631
 5310TIP3    H215937   4.845   4.827   2.694
 5311TIP3   OH215938   4.355   4.469   4.558
 5311TIP3    H115939   4.353   4.391   4.500
 5311TIP3    H215940   4.310   4.537   4.503
 5312TIP3   OH215941   4.356   4.256   4.367
 5312TIP3    H115942   4.381   4.295   4.281
 5312TIP3    H215943   4.262   4.231   4.350
 5313TIP3   OH215944   4.382   4.788   4.237
 5313TIP3    H115945   4.466   4.804   4.193
 5313TIP3    H215946   4.323   4.852   4.193
 5314TIP3   OH215947   4.958   4.751   4.616
 5314TIP3    H115948   5.004   4.674   4.653
 5314TIP3    H215949   5.032   4.804   4.583
 5315TIP3   OH215950   5.008   5.005   4.363
 5315TIP3    H115951   4.952   5.064   4.306
 5315TIP3    H215952   5.096   5.025   4.324
 5316TIP3   OH215953   4.231   4.571   4.792
 5316TIP3    H115954   4.163   4.503   4.810
 5316TIP3    H215955   4.264   4.545   4.705
 5317TIP3   OH215956   4.486   4.016   4.438
 5317TIP3    H115957   4.436   4.097   4.415
 5317TIP3    H215958   4.417   3.947   4.428
 5318TIP3   OH215959   4.614   4.516   4.650
 5318TIP3    H115960   4.601   4.503   4.746
 5318TIP3    H215961   4.524   4.494   4.619
 5319TIP3   OH215962   4.846   4.461   4.499
 5319TIP3    H115963   4.774   4.467   4.564
 5319TIP3    H215964   4.922   4.435   4.555
 5320TIP3   OH215965   5.082   4.408   4.647
 5320TIP3    H115966   5.094   4.313   4.668
 5320TIP3    H215967   5.072   4.449   4.735
 5321TIP3   OH215968   4.069   4.352   4.850
 5321TIP3    H115969   4.073   4.260   4.817
 5321TIP3    H215970   4.108   4.341   4.940
 5322TIP3   OH215971   4.579   4.026   4.697
 5322TIP3    H115972   4.645   3.954   4.690
 5322TIP3    H215973   4.539   4.021   4.608
 5323TIP3   OH215974   4.647   4.240   4.853
 5323TIP3    H115975   4.623   4.168   4.790
 5323TIP3    H215976   4.568   4.298   4.848
 5324TIP3   OH215977   3.873   5.472   2.955
 5324TIP3    H115978   3.967   5.460   2.934
 5324TIP3    H215979   3.845   5.523   2.877
 5325TIP3   OH215980   3.349   4.853   3.164
 5325TIP3    H115981   3.444   4.873   3.153
 5325TIP3    H215982   3.343   4.764   3.123
 5326TIP3   OH215983   3.266   5.462   3.587
 5326TIP3    H115984   3.200   5.401   3.547
 5326TIP3    H215985   3.310   5.401   3.651
 5327TIP3   OH215986   3.399   5.306   3.772
 5327TIP3    H115987   3.387   5.237   3.840
 5327TIP3    H215988   3.451   5.371   3.822
 5328TIP3   OH215989   5.130   5.711   3.568
 5328TIP3    H115990   5.156   5.733   3.660
 5328TIP3    H215991   5.182   5.774   3.517
 5329TIP3   OH215992   5.162   5.714   3.844
 5329TIP3    H115993   5.112   5.630   3.841
 5329TIP3    H215994   5.233   5.687   3.906
 5330TIP3   OH215995   5.231   5.429   4.455
 5330TIP3    H115996   5.143   5.428   4.499
 5330TIP3    H215997   5.221   5.496   4.388
 5331TIP3   OH215998   5.008   4.921   3.044
 5331TIP3    H115999   5.070   4.992   3.014
 5331TIP3    H216000   5.059   4.883   3.119
 5332TIP3   OH216001   5.144   4.790   3.241
 5332TIP3    H116002   5.080   4.753   3.305
 5332TIP3    H216003   5.215   4.826   3.298
 5333TIP3   OH216004   5.023   5.476   3.868
 5333TIP3    H116005   4.946   5.490   3.923
 5333TIP3    H216006   4.982   5.433   3.790
 5334TIP3   OH216007   5.081   4.698   2.897
 5334TIP3    H116008   5.012   4.703   2.827
 5334TIP3    H216009   5.055   4.775   2.952
 5335TIP3   OH216010   4.950   4.345   2.854
 5335TIP3    H116011   4.911   4.385   2.775
 5335TIP3    H216012   4.909   4.257   2.853
 5336TIP3   OH216013   4.953   4.652   3.385
 5336TIP3    H116014   4.965   4.557   3.373
 5336TIP3    H216015   4.940   4.661   3.482
 5337TIP3   OH216016   3.583   4.721   4.143
 5337TIP3    H116017   3.579   4.685   4.052
 5337TIP3    H216018   3.680   4.722   4.158
 5338TIP3   OH216019   5.255   5.075   4.262
 5338TIP3    H116020   5.320   5.003   4.246
 5338TIP3    H216021   5.264   5.127   4.181
 5339TIP3   OH216022   5.434   4.872   4.258
 5339TIP3    H116023   5.359   4.822   4.295
 5339TIP3    H216024   5.508   4.810   4.278
 5340TIP3   OH216025   4.973   4.373   3.281
 5340TIP3    H116026   5.008   4.282   3.293
 5340TIP3    H216027   5.028   4.404   3.206
 5341TIP3   OH216028   5.111   4.535   3.795
 5341TIP3    H116029   5.193   4.558   3.746
 5341TIP3    H216030   5.126   4.590   3.874
 5342TIP3   OH216031   5.178   4.693   4.014
 5342TIP3    H116032   5.103   4.728   4.065
 5342TIP3    H216033   5.202   4.776   3.964
 5343TIP3   OH216034   3.802   4.405   4.813
 5343TIP3    H116035   3.900   4.401   4.821
 5343TIP3    H216036   3.779   4.319   4.853
 5344TIP3   OH216037   5.636   4.273   4.567
 5344TIP3    H116038   5.698   4.210   4.525
 5344TIP3    H216039   5.607   4.327   4.490
 5345TIP3   OH216040   5.054   4.117   3.336
 5345TIP3    H116041   5.110   4.089   3.412
 5345TIP3    H216042   4.996   4.039   3.325
 5346TIP3   OH216043   3.765   4.100   4.149
 5346TIP3    H116044   3.826   4.024   4.155
 5346TIP3    H216045   3.828   4.173   4.138
 5347TIP3   OH216046   3.562   4.372   4.217
 5347TIP3    H116047   3.613   4.367   4.133
 5347TIP3    H216048   3.593   4.456   4.253
 5348TIP3   OH216049   5.507   4.410   4.373
 5348TIP3    H116050   5.422   4.452   4.397
 5348TIP3    H216051   5.473   4.339   4.314
 5349TIP3   OH216052   5.187   4.039   2.990
 5349TIP3    H116053   5.200   3.981   2.912
 5349TIP3    H216054   5.226   4.123   2.959
 5350TIP3   OH216055   3.553   3.891   3.729
 5350TIP3    H116056   3.459   3.877   3.747
 5350TIP3    H216057   3.551   3.945   3.647
 5351TIP3   OH216058   4.707   5.581   3.224
 5351TIP3    H116059   4.763   5.571   3.145
 5351TIP3    H216060   4.756   5.647   3.276
 5352TIP3   OH216061   3.771   3.955   4.534
 5352TIP3    H116062   3.719   3.952   4.617
 5352TIP3    H216063   3.706   3.993   4.473
 5353TIP3   OH216064   3.809   5.387   4.607
 5353TIP3    H116065   3.715   5.365   4.596
 5353TIP3    H216066   3.823   5.371   4.701
 5354TIP3   OH216067   3.991   5.421   4.158
 5354TIP3    H116068   3.942   5.497   4.121
 5354TIP3    H216069   4.076   5.435   4.111
 5355TIP3   OH216070   4.421   5.657   4.281
 5355TIP3    H116071   4.460   5.655   4.372
 5355TIP3    H216072   4.482   5.720   4.237
 5356TIP3   OH216073   4.602   5.821   4.153
 5356TIP3    H116074   4.664   5.751   4.131
 5356TIP3    H216075   4.652   5.874   4.219
 5357TIP3   OH216076   5.409   4.168   4.254
 5357TIP3    H116077   5.317   4.143   4.237
 5357TIP3    H216078   5.452   4.080   4.245
 5358TIP3   OH216079   3.665   5.676   4.184
 5358TIP3    H116080   3.574   5.706   4.163
 5358TIP3    H216081   3.681   5.724   4.266
 5359TIP3   OH216082   3.900   5.655   4.042
 5359TIP3    H116083   3.813   5.666   4.087
 5359TIP3    H216084   3.880   5.687   3.952
 5360TIP3   OH216085   4.322   5.678   3.842
 5360TIP3    H116086   4.253   5.695   3.775
 5360TIP3    H216087   4.334   5.767   3.882
 5361TIP3   OH216088   4.591   5.626   3.888
 5361TIP3    H116089   4.495   5.633   3.873
 5361TIP3    H216090   4.622   5.701   3.835
 5362TIP3   OH216091   4.780   5.815   3.807
 5362TIP3    H116092   4.772   5.895   3.749
 5362TIP3    H216093   4.810   5.751   3.739
 5363TIP3   OH216094   3.575   5.467   3.926
 5363TIP3    H116095   3.602   5.437   4.016
 5363TIP3    H216096   3.649   5.426   3.874
 5364TIP3   OH216097   3.773   5.343   3.787
 5364TIP3    H116098   3.786   5.258   3.835
 5364TIP3    H216099   3.864   5.377   3.785
 5365TIP3   OH216100   4.041   5.432   3.792
 5365TIP3    H116101   4.068   5.338   3.783
 5365TIP3    H216102   4.089   5.454   3.874
 5366TIP3   OH216103   4.619   4.067   3.881
 5366TIP3    H116104   4.569   4.010   3.944
 5366TIP3    H216105   4.624   4.008   3.805
 5367TIP3   OH216106   5.211   4.059   3.563
 5367TIP3    H116107   5.286   4.008   3.528
 5367TIP3    H216108   5.247   4.149   3.547
 5368TIP3   OH216109   3.856   3.799   3.891
 5368TIP3    H116110   3.763   3.766   3.890
 5368TIP3    H216111   3.904   3.713   3.884
 5369TIP3   OH216112   3.651   3.676   3.568
 5369TIP3    H116113   3.685   3.722   3.489
 5369TIP3    H216114   3.628   3.750   3.627
 5370TIP3   OH216115   4.309   3.835   3.761
 5370TIP3    H116116   4.373   3.887   3.709
 5370TIP3    H216117   4.325   3.867   3.850
 5371TIP3   OH216118   4.881   3.901   3.319
 5371TIP3    H116119   4.790   3.931   3.307
 5371TIP3    H216120   4.867   3.817   3.368
 5372TIP3   OH216121   3.362   5.246   3.313
 5372TIP3    H116122   3.276   5.213   3.280
 5372TIP3    H216123   3.354   5.340   3.286
 5373TIP3   OH216124   3.771   3.819   3.332
 5373TIP3    H116125   3.810   3.738   3.296
 5373TIP3    H216126   3.849   3.875   3.347
 5374TIP3   OH216127   4.278   4.003   3.398
 5374TIP3    H116128   4.331   3.951   3.460
 5374TIP3    H216129   4.302   4.094   3.426
 5375TIP3   OH216130   4.137   5.422   2.900
 5375TIP3    H116131   4.225   5.445   2.863
 5375TIP3    H216132   4.115   5.346   2.841
 5376TIP3   OH216133   4.860   5.550   2.995
 5376TIP3    H116134   4.850   5.452   2.983
 5376TIP3    H216135   4.813   5.581   2.915
 5377TIP3   OH216136   4.067   4.077   4.781
 5377TIP3    H116137   4.033   4.006   4.839
 5377TIP3    H216138   4.161   4.078   4.809
 5378TIP3   OH216139   4.317   4.075   4.900
 5378TIP3    H116140   4.403   4.051   4.863
 5378TIP3    H216141   4.304   4.005   4.967
 5379TIP3   OH216142   3.440   5.262   2.954
 5379TIP3    H116143   3.444   5.277   3.050
 5379TIP3    H216144   3.527   5.218   2.937
 5380TIP3   OH216145   5.144   4.140   4.686
 5380TIP3    H116146   5.161   4.111   4.779
 5380TIP3    H216147   5.234   4.135   4.648
 5381TIP3   OH216148   5.064   5.653   4.205
 5381TIP3    H116149   4.997   5.647   4.136
 5381TIP3    H216150   5.120   5.726   4.175
 5382TIP3   OH216151   6.342   5.064   2.950
 5382TIP3    H116152   6.313   5.155   2.929
 5382TIP3    H216153   6.269   5.014   2.910
 5383TIP3   OH216154   6.324   5.067   3.334
 5383TIP3    H116155   6.363   5.042   3.421
 5383TIP3    H216156   6.292   4.980   3.303
 5384TIP3   OH216157   5.663   4.952   3.672
 5384TIP3    H116158   5.667   4.883   3.741
 5384TIP3    H216159   5.729   5.015   3.704
 5385TIP3   OH216160   6.571   5.359   3.047
 5385TIP3    H116161   6.576   5.275   3.096
 5385TIP3    H216162   6.538   5.419   3.114
 5386TIP3   OH216163   5.587   5.357   3.327
 5386TIP3    H116164   5.602   5.267   3.366
 5386TIP3    H216165   5.659   5.405   3.372
 5387TIP3   OH216166   5.323   4.564   3.200
 5387TIP3    H116167   5.280   4.649   3.219
 5387TIP3    H216168   5.251   4.520   3.150
 5388TIP3   OH216169   5.383   4.850   3.356
 5388TIP3    H116170   5.429   4.790   3.418
 5388TIP3    H216171   5.453   4.870   3.293
 5389TIP3   OH216172   6.149   5.293   3.378
 5389TIP3    H116173   6.187   5.211   3.339
 5389TIP3    H216174   6.233   5.336   3.404
 5390TIP3   OH216175   6.558   4.804   3.407
 5390TIP3    H116176   6.589   4.713   3.426
 5390TIP3    H216177   6.525   4.792   3.316
 5391TIP3   OH216178   5.905   4.449   3.368
 5391TIP3    H116179   5.880   4.522   3.308
 5391TIP3    H216180   5.855   4.376   3.325
 5392TIP3   OH216181   6.594   4.540   3.005
 5392TIP3    H116182   6.649   4.491   3.067
 5392TIP3    H216183   6.657   4.557   2.933
 5393TIP3   OH216184   5.526   4.652   3.488
 5393TIP3    H116185   5.612   4.634   3.531
 5393TIP3    H216186   5.537   4.601   3.405
 5394TIP3   OH216187   5.967   4.852   3.270
 5394TIP3    H116188   6.060   4.825   3.284
 5394TIP3    H216189   5.926   4.768   3.240
 5395TIP3   OH216190   5.894   4.431   3.808
 5395TIP3    H116191   5.838   4.469   3.737
 5395TIP3    H216192   5.838   4.452   3.886
 5396TIP3   OH216193   6.216   5.278   2.820
 5396TIP3    H116194   6.203   5.266   2.725
 5396TIP3    H216195   6.199   5.374   2.830
 5397TIP3   OH216196   6.006   5.213   3.600
 5397TIP3    H116197   5.935   5.276   3.627
 5397TIP3    H216198   6.045   5.259   3.523
 5398TIP3   OH216199   5.767   4.544   3.589
 5398TIP3    H116200   5.826   4.619   3.612
 5398TIP3    H216201   5.816   4.507   3.512
 5399TIP3   OH216202   5.817   5.396   3.678
 5399TIP3    H116203   5.785   5.483   3.646
 5399TIP3    H216204   5.742   5.375   3.738
 5400TIP3   OH216205   5.183   5.104   2.938
 5400TIP3    H116206   5.173   5.094   2.841
 5400TIP3    H216207   5.263   5.154   2.945
 5401TIP3   OH216208   6.262   4.143   3.543
 5401TIP3    H116209   6.231   4.052   3.535
 5401TIP3    H216210   6.182   4.187   3.580
 5402TIP3   OH216211   6.179   4.918   2.780
 5402TIP3    H116212   6.094   4.962   2.759
 5402TIP3    H216213   6.219   4.910   2.692
 5403TIP3   OH216214   6.138   4.710   2.488
 5403TIP3    H116215   6.208   4.761   2.532
 5403TIP3    H216216   6.191   4.642   2.442
 5404TIP3   OH216217   6.523   4.988   2.763
 5404TIP3    H116218   6.463   5.015   2.837
 5404TIP3    H216219   6.609   5.010   2.800
 5405TIP3   OH216220   5.760   5.006   3.167
 5405TIP3    H116221   5.708   4.948   3.105
 5405TIP3    H216222   5.832   4.945   3.193
 5406TIP3   OH216223   5.901   5.409   3.295
 5406TIP3    H116224   5.875   5.321   3.269
 5406TIP3    H216225   5.992   5.393   3.326
 5407TIP3   OH216226   5.930   4.956   3.526
 5407TIP3    H116227   5.938   4.940   3.430
 5407TIP3    H216228   5.948   5.051   3.535
 5408TIP3   OH216229   6.434   5.585   3.283
 5408TIP3    H116230   6.408   5.667   3.326
 5408TIP3    H216231   6.416   5.517   3.350
 5409TIP3   OH216232   6.030   5.560   3.765
 5409TIP3    H116233   5.983   5.621   3.825
 5409TIP3    H216234   5.955   5.504   3.737
 5410TIP3   OH216235   6.363   4.855   2.577
 5410TIP3    H116236   6.422   4.913   2.630
 5410TIP3    H216237   6.393   4.876   2.485
 5411TIP3   OH216238   5.787   5.072   3.937
 5411TIP3    H116239   5.787   5.160   3.981
 5411TIP3    H216240   5.695   5.046   3.957
 5412TIP3   OH216241   6.131   5.556   2.850
 5412TIP3    H116242   6.118   5.566   2.943
 5412TIP3    H216243   6.042   5.573   2.812
 5413TIP3   OH216244   5.802   5.675   3.899
 5413TIP3    H116245   5.764   5.675   3.810
 5413TIP3    H216246   5.725   5.647   3.954
 5414TIP3   OH216247   5.622   4.850   2.994
 5414TIP3    H116248   5.597   4.890   2.907
 5414TIP3    H216249   5.587   4.761   2.978
 5415TIP3   OH216250   5.409   5.211   3.868
 5415TIP3    H116251   5.335   5.158   3.832
 5415TIP3    H216252   5.459   5.137   3.909
 5416TIP3   OH216253   5.274   5.428   3.475
 5416TIP3    H116254   5.334   5.369   3.520
 5416TIP3    H216255   5.244   5.486   3.547
 5417TIP3   OH216256   5.922   5.774   2.665
 5417TIP3    H116257   5.910   5.732   2.578
 5417TIP3    H216258   5.986   5.842   2.645
 5418TIP3   OH216259   5.600   5.398   3.842
 5418TIP3    H116260   5.644   5.384   3.928
 5418TIP3    H216261   5.527   5.332   3.847
 5419TIP3   OH216262   6.012   4.226   3.655
 5419TIP3    H116263   5.924   4.196   3.624
 5419TIP3    H216264   5.985   4.309   3.699
 5420TIP3   OH216265   6.536   4.348   3.868
 5420TIP3    H116266   6.558   4.416   3.931
 5420TIP3    H216267   6.443   4.325   3.894
 5421TIP3   OH216268   6.454   4.893   2.325
 5421TIP3    H116269   6.419   4.873   2.235
 5421TIP3    H216270   6.504   4.975   2.308
 5422TIP3   OH216271   6.159   4.270   2.624
 5422TIP3    H116272   6.119   4.271   2.713
 5422TIP3    H216273   6.114   4.192   2.586
 5423TIP3   OH216274   5.942   4.736   3.675
 5423TIP3    H116275   5.887   4.758   3.754
 5423TIP3    H216276   5.932   4.818   3.622
 5424TIP3   OH216277   5.825   4.631   3.185
 5424TIP3    H116278   5.731   4.608   3.202
 5424TIP3    H216279   5.836   4.592   3.095
 5425TIP3   OH216280   6.318   4.717   2.914
 5425TIP3    H116281   6.266   4.788   2.869
 5425TIP3    H216282   6.380   4.691   2.844
 5426TIP3   OH216283   6.468   4.748   3.150
 5426TIP3    H116284   6.405   4.772   3.078
 5426TIP3    H216285   6.506   4.668   3.107
 5427TIP3   OH216286   5.768   4.768   3.885
 5427TIP3    H116287   5.791   4.832   3.954
 5427TIP3    H216288   5.752   4.687   3.936
 5428TIP3   OH216289   5.810   4.252   2.590
 5428TIP3    H116290   5.797   4.253   2.687
 5428TIP3    H216291   5.737   4.310   2.563
 5429TIP3   OH216292   5.340   4.279   3.481
 5429TIP3    H116293   5.421   4.320   3.518
 5429TIP3    H216294   5.365   4.259   3.389
 5430TIP3   OH216295   5.330   4.285   2.982
 5430TIP3    H116296   5.366   4.321   2.899
 5430TIP3    H216297   5.265   4.354   3.003
 5431TIP3   OH216298   6.434   4.984   3.571
 5431TIP3    H116299   6.494   4.929   3.515
 5431TIP3    H216300   6.431   4.928   3.651
 5432TIP3   OH216301   6.160   4.442   3.242
 5432TIP3    H116302   6.078   4.450   3.295
 5432TIP3    H216303   6.228   4.444   3.312
 5433TIP3   OH216304   5.585   4.512   3.254
 5433TIP3    H116305   5.491   4.522   3.225
 5433TIP3    H216306   5.605   4.421   3.227
 5434TIP3   OH216307   5.853   4.506   2.945
 5434TIP3    H116308   5.944   4.524   2.916
 5434TIP3    H216309   5.800   4.525   2.864
 5435TIP3   OH216310   6.613   4.541   3.441
 5435TIP3    H116311   6.602   4.546   3.538
 5435TIP3    H216312   6.550   4.472   3.416
 5436TIP3   OH216313   5.707   4.516   2.718
 5436TIP3    H116314   5.632   4.490   2.663
 5436TIP3    H216315   5.760   4.567   2.652
 5437TIP3   OH216316   5.753   5.317   4.069
 5437TIP3    H116317   5.838   5.354   4.100
 5437TIP3    H216318   5.700   5.318   4.152
 5438TIP3   OH216319   6.234   4.782   3.339
 5438TIP3    H116320   6.308   4.745   3.289
 5438TIP3    H216321   6.242   4.738   3.425
 5439TIP3   OH216322   5.761   4.263   3.225
 5439TIP3    H116323   5.721   4.187   3.271
 5439TIP3    H216324   5.778   4.228   3.137
 5440TIP3   OH216325   6.207   4.677   3.633
 5440TIP3    H116326   6.115   4.709   3.645
 5440TIP3    H216327   6.259   4.741   3.685
 5441TIP3   OH216328   5.942   5.057   2.720
 5441TIP3    H116329   5.864   5.001   2.708
 5441TIP3    H216330   5.924   5.095   2.809
 5442TIP3   OH216331   6.407   4.372   2.603
 5442TIP3    H116332   6.311   4.349   2.603
 5442TIP3    H216333   6.406   4.469   2.613
 5443TIP3   OH216334   6.486   4.636   2.684
 5443TIP3    H116335   6.571   4.632   2.638
 5443TIP3    H216336   6.444   4.714   2.643
 5444TIP3   OH216337   5.649   5.108   3.409
 5444TIP3    H116338   5.687   5.056   3.335
 5444TIP3    H216339   5.646   5.042   3.482
 5445TIP3   OH216340   6.095   5.213   2.546
 5445TIP3    H116341   6.046   5.298   2.555
 5445TIP3    H216342   6.041   5.155   2.605
 5446TIP3   OH216343   5.533   5.012   4.023
 5446TIP3    H116344   5.541   4.991   4.118
 5446TIP3    H216345   5.452   4.962   3.999
 5447TIP3   OH216346   6.216   5.076   4.082
 5447TIP3    H116347   6.159   5.022   4.024
 5447TIP3    H216348   6.281   5.112   4.020
 5448TIP3   OH216349   6.573   5.174   3.264
 5448TIP3    H116350   6.487   5.130   3.269
 5448TIP3    H216351   6.631   5.101   3.235
 5449TIP3   OH216352   5.308   4.690   2.723
 5449TIP3    H116353   5.374   4.764   2.722
 5449TIP3    H216354   5.247   4.718   2.793
 5450TIP3   OH216355   5.872   5.159   2.962
 5450TIP3    H116356   5.877   5.246   3.001
 5450TIP3    H216357   5.835   5.104   3.035
 5451TIP3   OH216358   5.998   5.732   3.505
 5451TIP3    H116359   6.034   5.814   3.469
 5451TIP3    H216360   6.055   5.714   3.581
 5452TIP3   OH216361   5.627   5.635   2.906
 5452TIP3    H116362   5.554   5.681   2.865
 5452TIP3    H216363   5.681   5.710   2.935
 5453TIP3   OH216364   6.409   5.367   3.454
 5453TIP3    H116365   6.452   5.364   3.540
 5453TIP3    H216366   6.467   5.310   3.400
 5454TIP3   OH216367   6.323   5.212   2.369
 5454TIP3    H116368   6.388   5.180   2.435
 5454TIP3    H216369   6.241   5.210   2.422
 5455TIP3   OH216370   5.730   4.513   4.020
 5455TIP3    H116371   5.633   4.512   4.032
 5455TIP3    H216372   5.761   4.465   4.097
 5456TIP3   OH216373   6.522   5.141   2.538
 5456TIP3    H116374   6.516   5.093   2.623
 5456TIP3    H216375   6.587   5.209   2.565
 5457TIP3   OH216376   5.450   5.599   3.662
 5457TIP3    H116377   5.496   5.525   3.706
 5457TIP3    H216378   5.476   5.673   3.718
 5458TIP3   OH216379   5.727   5.239   2.331
 5458TIP3    H116380   5.750   5.147   2.305
 5458TIP3    H216381   5.705   5.227   2.426
 5459TIP3   OH216382   5.671   5.257   2.597
 5459TIP3    H116383   5.726   5.214   2.664
 5459TIP3    H216384   5.679   5.352   2.619
 5460TIP3   OH216385   6.572   4.581   3.718
 5460TIP3    H116386   6.623   4.610   3.795
 5460TIP3    H216387   6.550   4.490   3.746
 5461TIP3   OH216388   6.445   4.329   2.878
 5461TIP3    H116389   6.431   4.343   2.781
 5461TIP3    H216390   6.481   4.415   2.905
 5462TIP3   OH216391   5.954   5.444   2.572
 5462TIP3    H116392   5.865   5.462   2.608
 5462TIP3    H216393   5.954   5.510   2.500
 5463TIP3   OH216394   6.142   4.510   2.973
 5463TIP3    H116395   6.203   4.585   2.956
 5463TIP3    H216396   6.145   4.504   3.071
 5464TIP3   OH216397   6.404   4.811   3.778
 5464TIP3    H116398   6.456   4.854   3.849
 5464TIP3    H216399   6.457   4.731   3.762
 5465TIP3   OH216400   6.276   4.230   3.076
 5465TIP3    H116401   6.257   4.311   3.127
 5465TIP3    H216402   6.337   4.266   3.007
 5466TIP3   OH216403   5.699   5.525   2.639
 5466TIP3    H116404   5.668   5.592   2.573
 5466TIP3    H216405   5.690   5.576   2.722
 5467TIP3   OH216406   5.793   4.236   2.870
 5467TIP3    H116407   5.785   4.330   2.897
 5467TIP3    H216408   5.890   4.226   2.874
 5468TIP3   OH216409   6.692   4.935   3.173
 5468TIP3    H116410   6.615   4.881   3.148
 5468TIP3    H216411   6.744   4.872   3.224
 5469TIP3   OH216412   5.402   5.177   2.600
 5469TIP3    H116413   5.489   5.219   2.586
 5469TIP3    H216414   5.433   5.092   2.636
 5470TIP3   OH216415   5.351   4.422   2.750
 5470TIP3    H116416   5.358   4.520   2.748
 5470TIP3    H216417   5.270   4.410   2.700
 5471TIP3   OH216418   5.749   4.146   3.621
 5471TIP3    H116419   5.715   4.116   3.534
 5471TIP3    H216420   5.731   4.069   3.678
 5472TIP3   OH216421   5.339   5.417   3.051
 5472TIP3    H116422   5.256   5.449   3.091
 5472TIP3    H216423   5.318   5.433   2.957
 5473TIP3   OH216424   5.905   5.426   2.246
 5473TIP3    H116425   5.839   5.361   2.280
 5473TIP3    H216426   5.979   5.366   2.228
 5474TIP3   OH216427   5.555   5.299   4.275
 5474TIP3    H116428   5.583   5.205   4.277
 5474TIP3    H216429   5.473   5.296   4.223
 5475TIP3   OH216430   6.034   5.160   2.275
 5475TIP3    H116431   6.042   5.169   2.371
 5475TIP3    H216432   6.039   5.062   2.267
 5476TIP3   OH216433   5.699   5.052   4.279
 5476TIP3    H116434   5.775   5.003   4.242
 5476TIP3    H216435   5.724   5.060   4.373
 5477TIP3   OH216436   6.034   4.940   3.914
 5477TIP3    H116437   5.949   4.990   3.918
 5477TIP3    H216438   6.077   4.980   3.836
 5478TIP3   OH216439   5.866   4.633   2.530
 5478TIP3    H116440   5.830   4.664   2.444
 5478TIP3    H216441   5.959   4.661   2.522
 5479TIP3   OH216442   6.145   4.722   4.042
 5479TIP3    H116443   6.145   4.644   3.984
 5479TIP3    H216444   6.109   4.792   3.983
 5480TIP3   OH216445   6.154   4.505   3.852
 5480TIP3    H116446   6.178   4.554   3.770
 5480TIP3    H216447   6.059   4.487   3.835
 5481TIP3   OH216448   6.200   5.065   3.725
 5481TIP3    H116449   6.260   5.039   3.652
 5481TIP3    H216450   6.132   5.117   3.678
 5482TIP3   OH216451   5.927   4.855   4.210
 5482TIP3    H116452   5.906   4.768   4.250
 5482TIP3    H216453   6.001   4.830   4.152
 5483TIP3   OH216454   6.278   4.270   3.923
 5483TIP3    H116455   6.233   4.354   3.900
 5483TIP3    H216456   6.206   4.205   3.908
 5484TIP3   OH216457   6.417   4.736   4.113
 5484TIP3    H116458   6.411   4.783   4.197
 5484TIP3    H216459   6.322   4.732   4.089
 5485TIP3   OH216460   6.635   4.623   3.989
 5485TIP3    H116461   6.556   4.654   4.041
 5485TIP3    H216462   6.709   4.650   4.046
 5486TIP3   OH216463   5.865   4.601   4.315
 5486TIP3    H116464   5.875   4.506   4.295
 5486TIP3    H216465   5.891   4.603   4.409
 5487TIP3   OH216466   6.350   4.272   4.189
 5487TIP3    H116467   6.412   4.199   4.200
 5487TIP3    H216468   6.324   4.266   4.095
 5488TIP3   OH216469   6.443   4.501   4.307
 5488TIP3    H116470   6.396   4.427   4.263
 5488TIP3    H216471   6.372   4.568   4.317
 5489TIP3   OH216472   5.655   5.733   2.464
 5489TIP3    H116473   5.746   5.710   2.435
 5489TIP3    H216474   5.624   5.778   2.383
 5490TIP3   OH216475   5.146   5.104   2.655
 5490TIP3    H116476   5.238   5.135   2.636
 5490TIP3    H216477   5.147   5.017   2.610
 5491TIP3   OH216478   5.060   5.717   3.075
 5491TIP3    H116479   4.994   5.656   3.034
 5491TIP3    H216480   5.105   5.656   3.138
 5492TIP3   OH216481   5.214   5.570   3.250
 5492TIP3    H116482   5.200   5.504   3.322
 5492TIP3    H216483   5.264   5.636   3.302
 5493TIP3   OH216484   5.599   4.660   4.298
 5493TIP3    H116485   5.697   4.654   4.297
 5493TIP3    H216486   5.577   4.572   4.336
 5494TIP3   OH216487   5.561   4.355   3.642
 5494TIP3    H116488   5.627   4.283   3.643
 5494TIP3    H216489   5.619   4.432   3.627
 5495TIP3   OH216490   5.352   4.642   3.712
 5495TIP3    H116491   5.409   4.641   3.632
 5495TIP3    H216492   5.342   4.737   3.728
 5496TIP3   OH216493   5.347   4.156   3.221
 5496TIP3    H116494   5.255   4.126   3.218
 5496TIP3    H216495   5.354   4.202   3.135
 5497TIP3   OH216496   5.571   4.207   4.019
 5497TIP3    H116497   5.518   4.208   4.101
 5497TIP3    H216498   5.508   4.250   3.957
 5498TIP3   OH216499   5.588   5.620   4.066
 5498TIP3    H116500   5.496   5.611   4.036
 5498TIP3    H216501   5.578   5.602   4.162
 5499TIP3   OH216502   5.764   5.654   3.624
 5499TIP3    H116503   5.713   5.729   3.584
 5499TIP3    H216504   5.852   5.676   3.587
 5500TIP3   OH216505   5.460   5.939   3.676
 5500TIP3    H116506   5.371   5.971   3.650
 5500TIP3    H216507   5.452   5.938   3.771
 5501TIP3   OH216508   5.658   5.867   3.503
 5501TIP3    H116509   5.595   5.911   3.565
 5501TIP3    H216510   5.673   5.937   3.438
 5502TIP3   OH216511   5.391   5.725   3.414
 5502TIP3    H116512   5.385   5.682   3.502
 5502TIP3    H216513   5.487   5.735   3.409
 5503TIP3   OH216514   5.842   5.693   3.264
 5503TIP3    H116515   5.862   5.597   3.259
 5503TIP3    H216516   5.870   5.711   3.355
 5504TIP3   OH216517   6.400   4.350   3.378
 5504TIP3    H116518   6.361   4.275   3.426
 5504TIP3    H216519   6.467   4.305   3.321
 5505TIP3   OH216520   5.653   4.054   3.379
 5505TIP3    H116521   5.558   4.029   3.376
 5505TIP3    H216522   5.696   3.966   3.370
 5506TIP3   OH216523   5.472   3.925   3.028
 5506TIP3    H116524   5.486   3.978   2.948
 5506TIP3    H216525   5.410   3.981   3.077
 5507TIP3   OH216526   6.113   4.078   3.260
 5507TIP3    H116527   6.162   4.129   3.192
 5507TIP3    H216528   6.105   4.143   3.330
 5508TIP3   OH216529   6.593   4.215   3.238
 5508TIP3    H116530   6.597   4.191   3.145
 5508TIP3    H216531   6.612   4.130   3.283
 5509TIP3   OH216532   6.662   4.161   2.812
 5509TIP3    H116533   6.581   4.212   2.827
 5509TIP3    H216534   6.638   4.072   2.845
 5510TIP3   OH216535   5.175   5.506   2.824
 5510TIP3    H116536   5.099   5.452   2.797
 5510TIP3    H216537   5.149   5.590   2.782
 5511TIP3   OH216538   5.564   4.080   2.788
 5511TIP3    H116539   5.612   4.021   2.727
 5511TIP3    H216540   5.636   4.136   2.823
 5512TIP3   OH216541   6.069   4.262   2.886
 5512TIP3    H116542   6.130   4.218   2.947
 5512TIP3    H216543   6.088   4.356   2.909
 5513TIP3   OH216544   5.912   5.657   2.399
 5513TIP3    H116545   5.971   5.729   2.366
 5513TIP3    H216546   5.913   5.593   2.324
 5514TIP3   OH216547   5.867   4.322   4.266
 5514TIP3    H116548   5.832   4.253   4.327
 5514TIP3    H216549   5.960   4.327   4.296
 5515TIP3   OH216550   6.114   4.333   4.389
 5515TIP3    H116551   6.199   4.305   4.351
 5515TIP3    H216552   6.099   4.264   4.457
 5516TIP3   OH216553   5.238   5.515   2.442
 5516TIP3    H116554   5.242   5.526   2.537
 5516TIP3    H216555   5.324   5.470   2.423
 5517TIP3   OH216556   1.412   5.651   4.551
 5517TIP3    H116557   1.440   5.735   4.592
 5517TIP3    H216558   1.435   5.667   4.458
 5518TIP3   OH216559   0.801   5.838   4.574
 5518TIP3    H116560   0.844   5.752   4.592
 5518TIP3    H216561   0.757   5.819   4.489
 5519TIP3   OH216562   0.843   5.588   4.168
 5519TIP3    H116563   0.916   5.574   4.232
 5519TIP3    H216564   0.894   5.622   4.091
 5520TIP3   OH216565   1.487   5.856   4.724
 5520TIP3    H116566   1.405   5.905   4.703
 5520TIP3    H216567   1.518   5.901   4.804
 5521TIP3   OH216568   1.044   5.594   4.350
 5521TIP3    H116569   1.023   5.556   4.436
 5521TIP3    H216570   1.098   5.672   4.374
 5522TIP3   OH216571   1.205   5.544   4.713
 5522TIP3    H116572   1.119   5.575   4.681
 5522TIP3    H216573   1.266   5.579   4.645
 5523TIP3   OH216574   1.339   6.205   4.572
 5523TIP3    H116575   1.254   6.256   4.571
 5523TIP3    H216576   1.361   6.209   4.476
 5524TIP3   OH216577   0.772   6.059   3.935
 5524TIP3    H116578   0.743   6.118   4.007
 5524TIP3    H216579   0.855   6.022   3.973
 5525TIP3   OH216580   1.029   6.056   4.833
 5525TIP3    H116581   1.020   6.151   4.859
 5525TIP3    H216582   0.936   6.045   4.800
 5526TIP3   OH216583   0.620   5.897   3.773
 5526TIP3    H116584   0.673   5.967   3.816
 5526TIP3    H216585   0.637   5.916   3.678
 5527TIP3   OH216586   1.132   5.137   3.800
 5527TIP3    H116587   1.053   5.160   3.852
 5527TIP3    H216588   1.146   5.219   3.748
 5528TIP3   OH216589   1.272   6.047   4.988
 5528TIP3    H116590   1.184   6.049   4.946
 5528TIP3    H216591   1.286   5.951   4.998
 5529TIP3   OH216592   0.794   5.381   5.052
 5529TIP3    H116593   0.887   5.375   5.084
 5529TIP3    H216594   0.755   5.308   5.101
 5530TIP3   OH216595   1.018   5.796   4.934
 5530TIP3    H116596   0.991   5.814   5.027
 5530TIP3    H216597   1.015   5.885   4.895
 5531TIP3   OH216598   0.696   5.955   3.515
 5531TIP3    H116599   0.655   5.920   3.433
 5531TIP3    H216600   0.787   5.972   3.483
 5532TIP3   OH216601   0.564   5.797   4.078
 5532TIP3    H116602   0.556   5.855   4.001
 5532TIP3    H216603   0.612   5.723   4.037
 5533TIP3   OH216604   0.725   5.792   4.312
 5533TIP3    H116605   0.662   5.816   4.242
 5533TIP3    H216606   0.763   5.711   4.273
 5534TIP3   OH216607   0.766   6.022   4.768
 5534TIP3    H116608   0.779   5.957   4.695
 5534TIP3    H216609   0.674   6.009   4.789
 5535TIP3   OH216610   0.898   5.574   4.617
 5535TIP3    H116611   0.869   5.588   4.710
 5535TIP3    H216612   0.831   5.507   4.591
 5536TIP3   OH216613   1.100   6.329   4.548
 5536TIP3    H116614   1.133   6.393   4.481
 5536TIP3    H216615   1.018   6.296   4.505
 5537TIP3   OH216616   0.633   5.422   3.785
 5537TIP3    H116617   0.543   5.453   3.771
 5537TIP3    H216618   0.678   5.509   3.796
 5538TIP3   OH216619   0.725   5.666   3.880
 5538TIP3    H116620   0.820   5.685   3.885
 5538TIP3    H216621   0.691   5.740   3.825
 5539TIP3   OH216622   1.158   5.761   3.709
 5539TIP3    H116623   1.100   5.718   3.643
 5539TIP3    H216624   1.157   5.852   3.669
 5540TIP3   OH216625   0.882   6.217   4.421
 5540TIP3    H116626   0.810   6.191   4.479
 5540TIP3    H216627   0.908   6.131   4.382
 5541TIP3   OH216628   0.797   6.228   3.715
 5541TIP3    H116629   0.777   6.167   3.788
 5541TIP3    H216630   0.894   6.214   3.705
 5542TIP3   OH216631   0.825   5.607   4.874
 5542TIP3    H116632   0.895   5.669   4.904
 5542TIP3    H216633   0.816   5.543   4.947
 5543TIP3   OH216634   0.726   5.363   4.043
 5543TIP3    H116635   0.677   5.386   3.960
 5543TIP3    H216636   0.755   5.451   4.074
 5544TIP3   OH216637   0.597   5.291   4.272
 5544TIP3    H116638   0.579   5.382   4.297
 5544TIP3    H216639   0.635   5.307   4.183
 5545TIP3   OH216640   1.291   5.768   4.940
 5545TIP3    H116641   1.193   5.757   4.938
 5545TIP3    H216642   1.314   5.747   4.849
 5546TIP3   OH216643   0.948   5.964   4.326
 5546TIP3    H116644   0.874   5.903   4.340
 5546TIP3    H216645   1.021   5.918   4.374
 5547TIP3   OH216646   0.936   6.006   3.379
 5547TIP3    H116647   0.920   5.968   3.290
 5547TIP3    H216648   0.911   6.099   3.362
 5548TIP3   OH216649   3.449   0.798   0.193
 5548TIP3    H116650   3.399   0.826   0.270
 5548TIP3    H216651   3.532   0.769   0.236
 5549TIP3   OH216652   1.157   5.713   5.349
 5549TIP3    H116653   1.155   5.615   5.360
 5549TIP3    H216654   1.168   5.745   5.441
 5550TIP3   OH216655   1.068   6.223   3.701
 5550TIP3    H116656   1.130   6.294   3.674
 5550TIP3    H216657   1.113   6.189   3.782
 5551TIP3   OH216658   1.189   6.092   3.908
 5551TIP3    H116659   1.125   6.053   3.971
 5551TIP3    H216660   1.262   6.122   3.967
 5552TIP3   OH216661   1.135   5.993   3.566
 5552TIP3    H116662   1.063   5.989   3.499
 5552TIP3    H216663   1.109   6.074   3.614
 5553TIP3   OH216664   1.002   5.671   3.507
 5553TIP3    H116665   0.951   5.707   3.434
 5553TIP3    H216666   0.979   5.576   3.501
 5554TIP3   OH216667   0.997   5.950   4.055
 5554TIP3    H116668   1.011   5.854   4.044
 5554TIP3    H216669   0.989   5.959   4.152
 5555TIP3   OH216670   1.511   6.172   4.960
 5555TIP3    H116671   1.424   6.133   4.981
 5555TIP3    H216672   1.566   6.091   4.959
 5556TIP3   OH216673   0.942   5.406   3.496
 5556TIP3    H116674   1.016   5.373   3.551
 5556TIP3    H216675   0.868   5.347   3.519
 5557TIP3   OH216676   1.006   5.671   3.950
 5557TIP3    H116677   1.047   5.583   3.964
 5557TIP3    H216678   1.061   5.703   3.875
 5558TIP3   OH216679   1.163   5.833   4.442
 5558TIP3    H116680   1.249   5.859   4.400
 5558TIP3    H216681   1.180   5.871   4.531
 5559TIP3   OH216682   1.241   5.972   4.671
 5559TIP3    H116683   1.165   6.005   4.723
 5559TIP3    H216684   1.275   6.055   4.633
 5560TIP3   OH216685   1.687   5.555   5.224
 5560TIP3    H116686   1.749   5.493   5.180
 5560TIP3    H216687   1.652   5.605   5.147
 5561TIP3   OH216688   1.111   5.418   3.989
 5561TIP3    H116689   1.157   5.400   4.074
 5561TIP3    H216690   1.052   5.340   3.985
 5562TIP3   OH216691   1.546   5.701   5.046
 5562TIP3    H116692   1.467   5.751   5.074
 5562TIP3    H216693   1.505   5.637   4.985
 5563TIP3   OH216694   1.185   5.346   3.625
 5563TIP3    H116695   1.225   5.278   3.567
 5563TIP3    H216696   1.250   5.418   3.622
 5564TIP3   OH216697   1.447   5.473   4.919
 5564TIP3    H116698   1.360   5.467   4.875
 5564TIP3    H216699   1.482   5.382   4.906
 5565TIP3   OH216700   0.700   5.380   4.567
 5565TIP3    H116701   0.614   5.349   4.540
 5565TIP3    H216702   0.759   5.342   4.498
 5566TIP3   OH216703   1.177   5.273   4.444
 5566TIP3    H116704   1.215   5.324   4.368
 5566TIP3    H216705   1.082   5.291   4.433
 5567TIP3   OH216706   1.273   5.366   4.206
 5567TIP3    H116707   1.347   5.314   4.168
 5567TIP3    H216708   1.308   5.457   4.192
 5568TIP3   OH216709   0.900   5.270   4.411
 5568TIP3    H116710   0.891   5.233   4.323
 5568TIP3    H216711   0.885   5.191   4.469
 5569TIP3   OH216712   0.936   5.200   3.981
 5569TIP3    H116713   0.855   5.253   3.999
 5569TIP3    H216714   0.913   5.116   4.025
 5570TIP3   OH216715   1.187   5.438   5.351
 5570TIP3    H116716   1.203   5.404   5.442
 5570TIP3    H216717   1.277   5.435   5.312
 5571TIP3   OH216718   2.401   6.353   3.609
 5571TIP3    H116719   2.374   6.445   3.616
 5571TIP3    H216720   2.322   6.311   3.570
 5572TIP3   OH216721   2.431   6.367   3.981
 5572TIP3    H116722   2.431   6.330   4.071
 5572TIP3    H216723   2.350   6.330   3.944
 5573TIP3   OH216724   1.688   6.257   4.371
 5573TIP3    H116725   1.742   6.195   4.422
 5573TIP3    H216726   1.745   6.336   4.364
 5574TIP3   OH216727   1.370   5.864   3.858
 5574TIP3    H116728   1.330   5.951   3.877
 5574TIP3    H216729   1.295   5.819   3.816
 5575TIP3   OH216730   1.432   6.159   4.021
 5575TIP3    H116731   1.471   6.083   4.070
 5575TIP3    H216732   1.512   6.213   4.010
 5576TIP3   OH216733   3.208   5.910   4.037
 5576TIP3    H116734   3.238   5.994   4.078
 5576TIP3    H216735   3.231   5.926   3.944
 5577TIP3   OH216736   2.605   6.091   4.070
 5577TIP3    H116737   2.645   6.004   4.087
 5577TIP3    H216738   2.570   6.078   3.980
 5578TIP3   OH216739   1.947   5.750   4.034
 5578TIP3    H116740   1.926   5.823   3.972
 5578TIP3    H216741   1.896   5.677   3.992
 5579TIP3   OH216742   2.639   5.842   3.655
 5579TIP3    H116743   2.711   5.830   3.722
 5579TIP3    H216744   2.690   5.879   3.581
 5580TIP3   OH216745   1.570   5.950   4.144
 5580TIP3    H116746   1.656   5.939   4.190
 5580TIP3    H216747   1.587   5.900   4.062
 5581TIP3   OH216748   2.014   6.148   3.914
 5581TIP3    H116749   2.106   6.122   3.937
 5581TIP3    H216750   1.975   6.062   3.886
 5582TIP3   OH216751   3.282   6.119   4.206
 5582TIP3    H116752   3.197   6.163   4.186
 5582TIP3    H216753   3.293   6.144   4.299
 5583TIP3   OH216754   1.937   5.734   4.472
 5583TIP3    H116755   1.881   5.772   4.401
 5583TIP3    H216756   1.882   5.754   4.550
 5584TIP3   OH216757   2.044   6.434   4.297
 5584TIP3    H116758   1.960   6.471   4.323
 5584TIP3    H216759   2.050   6.468   4.204
 5585TIP3   OH216760   2.840   5.851   3.837
 5585TIP3    H116761   2.821   5.809   3.922
 5585TIP3    H216762   2.894   5.928   3.864
 5586TIP3   OH216763   1.812   5.849   4.253
 5586TIP3    H116764   1.873   5.922   4.275
 5586TIP3    H216765   1.861   5.809   4.177
 5587TIP3   OH216766   3.000   5.810   4.203
 5587TIP3    H116767   2.913   5.835   4.169
 5587TIP3    H216768   3.060   5.842   4.132
 5588TIP3   OH216769   2.289   5.449   4.188
 5588TIP3    H116770   2.274   5.354   4.206
 5588TIP3    H216771   2.212   5.489   4.234
 5589TIP3   OH216772   2.232   6.203   3.444
 5589TIP3    H116773   2.145   6.249   3.431
 5589TIP3    H216774   2.281   6.245   3.371
 5590TIP3   OH216775   2.177   6.009   3.150
 5590TIP3    H116776   2.234   6.057   3.212
 5590TIP3    H216777   2.241   5.950   3.106
 5591TIP3   OH216778   3.121   6.469   4.058
 5591TIP3    H116779   3.038   6.520   4.052
 5591TIP3    H216780   3.149   6.469   3.964
 5592TIP3   OH216781   2.580   6.299   3.409
 5592TIP3    H116782   2.520   6.319   3.485
 5592TIP3    H216783   2.661   6.272   3.457
 5593TIP3   OH216784   2.800   6.337   4.322
 5593TIP3    H116785   2.792   6.432   4.341
 5593TIP3    H216786   2.711   6.323   4.281
 5594TIP3   OH216787   1.803   6.302   3.807
 5594TIP3    H116788   1.770   6.234   3.745
 5594TIP3    H216789   1.887   6.263   3.839
 5595TIP3   OH216790   1.914   6.227   4.155
 5595TIP3    H116791   1.944   6.209   4.063
 5595TIP3    H216792   1.960   6.311   4.170
 5596TIP3   OH216793   2.426   6.150   3.237
 5596TIP3    H116794   2.475   6.215   3.291
 5596TIP3    H216795   2.445   6.182   3.146
 5597TIP3   OH216796   1.835   6.359   4.622
 5597TIP3    H116797   1.835   6.445   4.664
 5597TIP3    H216798   1.741   6.331   4.631
 5598TIP3   OH216799   2.926   5.395   3.289
 5598TIP3    H116800   2.845   5.417   3.339
 5598TIP3    H216801   2.939   5.477   3.238
 5599TIP3   OH216802   1.665   6.123   3.626
 5599TIP3    H116803   1.588   6.167   3.584
 5599TIP3    H216804   1.626   6.040   3.655
 5600TIP3   OH216805   1.489   6.465   4.510
 5600TIP3    H116806   1.404   6.455   4.463
 5600TIP3    H216807   1.506   6.374   4.540
 5601TIP3   OH216808   3.055   6.299   4.502
 5601TIP3    H116809   2.970   6.307   4.455
 5601TIP3    H216810   3.073   6.203   4.494
 5602TIP3   OH216811   2.053   5.529   4.318
 5602TIP3    H116812   1.965   5.499   4.288
 5602TIP3    H216813   2.026   5.610   4.366
 5603TIP3   OH216814   2.591   5.644   4.512
 5603TIP3    H116815   2.660   5.615   4.574
 5603TIP3    H216816   2.508   5.622   4.559
 5604TIP3   OH216817   2.825   6.075   4.428
 5604TIP3    H116818   2.775   6.073   4.513
 5604TIP3    H216819   2.799   6.161   4.390
 5605TIP3   OH216820   2.491   6.211   2.984
 5605TIP3    H116821   2.463   6.172   2.899
 5605TIP3    H216822   2.585   6.230   2.965
 5606TIP3   OH216823   2.200   5.574   3.287
 5606TIP3    H116824   2.165   5.574   3.378
 5606TIP3    H216825   2.158   5.493   3.253
 5607TIP3   OH216826   1.993   6.042   4.335
 5607TIP3    H116827   1.940   6.062   4.415
 5607TIP3    H216828   1.964   6.113   4.274
 5608TIP3   OH216829   1.870   5.925   3.845
 5608TIP3    H116830   1.777   5.904   3.865
 5608TIP3    H216831   1.879   5.885   3.756
 5609TIP3   OH216832   2.362   6.008   3.581
 5609TIP3    H116833   2.312   6.079   3.536
 5609TIP3    H216834   2.418   5.975   3.508
 5610TIP3   OH216835   2.543   6.296   4.666
 5610TIP3    H116836   2.518   6.219   4.722
 5610TIP3    H216837   2.638   6.301   4.685
 5611TIP3   OH216838   2.517   6.043   3.815
 5611TIP3    H116839   2.453   6.072   3.747
 5611TIP3    H216840   2.550   5.963   3.769
 5612TIP3   OH216841   1.817   6.068   4.544
 5612TIP3    H116842   1.799   6.135   4.611
 5612TIP3    H216843   1.797   5.986   4.592
 5613TIP3   OH216844   1.857   5.554   3.252
 5613TIP3    H116845   1.845   5.552   3.349
 5613TIP3    H216846   1.779   5.605   3.225
 5614TIP3   OH216847   1.399   5.590   4.128
 5614TIP3    H116848   1.472   5.627   4.181
 5614TIP3    H216849   1.440   5.570   4.043
 5615TIP3   OH216850   1.358   5.572   3.641
 5615TIP3    H116851   1.403   5.610   3.562
 5615TIP3    H216852   1.299   5.646   3.664
 5616TIP3   OH216853   2.534   6.284   4.243
 5616TIP3    H116854   2.562   6.218   4.176
 5616TIP3    H216855   2.502   6.225   4.314
 5617TIP3   OH216856   2.204   5.742   3.906
 5617TIP3    H116857   2.123   5.747   3.960
 5617TIP3    H216858   2.273   5.750   3.974
 5618TIP3   OH216859   1.631   5.811   3.914
 5618TIP3    H116860   1.537   5.817   3.885
 5618TIP3    H216861   1.655   5.720   3.890
 5619TIP3   OH216862   1.895   5.801   3.605
 5619TIP3    H116863   1.988   5.821   3.585
 5619TIP3    H216864   1.848   5.826   3.522
 5620TIP3   OH216865   2.689   5.829   4.112
 5620TIP3    H116866   2.657   5.842   4.204
 5620TIP3    H216867   2.619   5.769   4.078
 5621TIP3   OH216868   1.746   5.838   3.380
 5621TIP3    H116869   1.676   5.794   3.329
 5621TIP3    H216870   1.800   5.876   3.308
 5622TIP3   OH216871   2.270   6.071   4.007
 5622TIP3    H116872   2.353   6.050   3.962
 5622TIP3    H216873   2.281   6.029   4.094
 5623TIP3   OH216874   1.795   5.568   3.891
 5623TIP3    H116875   1.761   5.490   3.940
 5623TIP3    H216876   1.838   5.526   3.815
 5624TIP3   OH216877   2.258   5.977   4.293
 5624TIP3    H116878   2.167   6.012   4.308
 5624TIP3    H216879   2.314   6.038   4.345
 5625TIP3   OH216880   2.016   6.347   3.387
 5625TIP3    H116881   1.934   6.293   3.388
 5625TIP3    H216882   1.988   6.437   3.404
 5626TIP3   OH216883   2.879   6.607   4.045
 5626TIP3    H116884   2.916   6.656   3.968
 5626TIP3    H216885   2.804   6.560   4.003
 5627TIP3   OH216886   2.448   5.679   3.255
 5627TIP3    H116887   2.353   5.658   3.267
 5627TIP3    H216888   2.455   5.772   3.283
 5628TIP3   OH216889   2.518   5.925   3.361
 5628TIP3    H116890   2.614   5.937   3.374
 5628TIP3    H216891   2.493   6.006   3.310
 5629TIP3   OH216892   1.658   6.322   4.070
 5629TIP3    H116893   1.709   6.361   3.997
 5629TIP3    H216894   1.732   6.284   4.123
 5630TIP3   OH216895   1.591   6.256   4.685
 5630TIP3    H116896   1.565   6.295   4.770
 5630TIP3    H216897   1.508   6.213   4.657
 5631TIP3   OH216898   2.294   6.406   4.725
 5631TIP3    H116899   2.231   6.357   4.669
 5631TIP3    H216900   2.378   6.379   4.681
 5632TIP3   OH216901   2.956   6.017   3.195
 5632TIP3    H116902   2.895   5.974   3.130
 5632TIP3    H216903   2.955   6.107   3.155
 5633TIP3   OH216904   2.677   6.473   3.912
 5633TIP3    H116905   2.585   6.447   3.939
 5633TIP3    H216906   2.705   6.388   3.873
 5634TIP3   OH216907   1.355   5.990   3.405
 5634TIP3    H116908   1.398   6.077   3.423
 5634TIP3    H216909   1.278   5.996   3.466
 5635TIP3   OH216910   1.774   5.815   4.683
 5635TIP3    H116911   1.677   5.820   4.695
 5635TIP3    H216912   1.799   5.756   4.756
 5636TIP3   OH216913   2.595   6.482   3.202
 5636TIP3    H116914   2.577   6.420   3.275
 5636TIP3    H216915   2.692   6.470   3.192
 5637TIP3   OH216916   1.452   6.235   3.482
 5637TIP3    H116917   1.376   6.295   3.499
 5637TIP3    H216918   1.510   6.293   3.428
 5638TIP3   OH216919   2.618   5.882   4.374
 5638TIP3    H116920   2.702   5.917   4.408
 5638TIP3    H216921   2.607   5.799   4.426
 5639TIP3   OH216922   2.499   5.627   3.540
 5639TIP3    H116923   2.484   5.651   3.447
 5639TIP3    H216924   2.540   5.709   3.576
 5640TIP3   OH216925   2.178   5.813   3.639
 5640TIP3    H116926   2.243   5.884   3.621
 5640TIP3    H216927   2.185   5.804   3.736
 5641TIP3   OH216928   2.455   6.118   4.443
 5641TIP3    H116929   2.479   6.169   4.522
 5641TIP3    H216930   2.510   6.038   4.450
 5642TIP3   OH216931   2.323   5.531   3.737
 5642TIP3    H116932   2.307   5.610   3.792
 5642TIP3    H216933   2.388   5.566   3.672
 5643TIP3   OH216934   1.839   5.537   3.528
 5643TIP3    H116935   1.835   5.628   3.564
 5643TIP3    H216936   1.936   5.522   3.535
 5644TIP3   OH216937   3.090   6.030   4.425
 5644TIP3    H116938   2.992   6.031   4.433
 5644TIP3    H216939   3.099   5.979   4.343
 5645TIP3   OH216940   2.745   6.220   3.811
 5645TIP3    H116941   2.666   6.165   3.824
 5645TIP3    H216942   2.814   6.171   3.862
 5646TIP3   OH216943   1.399   5.721   3.417
 5646TIP3    H116944   1.403   5.819   3.421
 5646TIP3    H216945   1.318   5.706   3.368
 5647TIP3   OH216946   1.789   5.448   4.286
 5647TIP3    H116947   1.758   5.416   4.199
 5647TIP3    H216948   1.777   5.370   4.342
 5648TIP3   OH216949   1.567   6.203   3.136
 5648TIP3    H116950   1.605   6.247   3.213
 5648TIP3    H216951   1.642   6.205   3.072
 5649TIP3   OH216952   2.211   6.671   4.766
 5649TIP3    H116953   2.164   6.688   4.683
 5649TIP3    H216954   2.241   6.579   4.752
 5650TIP3   OH216955   2.717   6.630   4.320
 5650TIP3    H116956   2.774   6.659   4.247
 5650TIP3    H216957   2.674   6.714   4.346
 5651TIP3   OH216958   1.803   6.331   4.967
 5651TIP3    H116959   1.818   6.255   4.909
 5651TIP3    H216960   1.717   6.363   4.937
 5652TIP3   OH216961   1.818   6.157   3.384
 5652TIP3    H116962   1.783   6.105   3.459
 5652TIP3    H216963   1.846   6.086   3.322
 5653TIP3   OH216964   2.083   6.240   4.592
 5653TIP3    H116965   1.995   6.284   4.588
 5653TIP3    H216966   2.129   6.278   4.514
 5654TIP3   OH216967   1.906   5.961   3.199
 5654TIP3    H116968   1.879   5.957   3.104
 5654TIP3    H216969   2.003   5.973   3.189
 5655TIP3   OH216970   2.614   6.646   4.711
 5655TIP3    H116971   2.695   6.612   4.672
 5655TIP3    H216972   2.577   6.568   4.753
 5656TIP3   OH216973   2.733   6.268   2.865
 5656TIP3    H116974   2.716   6.228   2.777
 5656TIP3    H216975   2.696   6.358   2.850
 5657TIP3   OH216976   2.197   6.023   4.706
 5657TIP3    H116977   2.195   5.946   4.646
 5657TIP3    H216978   2.155   6.093   4.651
 5658TIP3   OH216979   2.196   5.813   4.520
 5658TIP3    H116980   2.224   5.852   4.435
 5658TIP3    H216981   2.103   5.790   4.500
 5659TIP3   OH216982   2.265   6.358   4.426
 5659TIP3    H116983   2.337   6.346   4.362
 5659TIP3    H216984   2.192   6.393   4.369
 5660TIP3   OH216985   2.807   6.313   4.774
 5660TIP3    H116986   2.849   6.226   4.784
 5660TIP3    H216987   2.875   6.362   4.726
 5661TIP3   OH216988   2.855   6.569   4.544
 5661TIP3    H116989   2.793   6.592   4.471
 5661TIP3    H216990   2.940   6.583   4.496
 5662TIP3   OH216991   2.079   6.115   4.935
 5662TIP3    H116992   2.007   6.051   4.950
 5662TIP3    H216993   2.106   6.094   4.843
 5663TIP3   OH216994   2.328   5.575   4.591
 5663TIP3    H116995   2.279   5.656   4.566
 5663TIP3    H216996   2.260   5.505   4.578
 5664TIP3   OH216997   2.453   6.075   4.797
 5664TIP3    H116998   2.434   6.053   4.890
 5664TIP3    H216999   2.366   6.054   4.758
 5665TIP3   OH217000   2.695   6.035   4.660
 5665TIP3    H117001   2.618   6.029   4.720
 5665TIP3    H217002   2.768   6.000   4.715
 5666TIP3   OH217003   2.921   5.969   4.808
 5666TIP3    H117004   2.936   5.873   4.821
 5666TIP3    H217005   2.919   6.003   4.899
 5667TIP3   OH217006   1.913   5.908   5.005
 5667TIP3    H117007   1.918   5.819   4.966
 5667TIP3    H217008   1.951   5.891   5.094
 5668TIP3   OH217009   2.418   5.584   4.849
 5668TIP3    H117010   2.485   5.512   4.844
 5668TIP3    H217011   2.380   5.579   4.759
 5669TIP3   OH217012   2.496   5.795   5.001
 5669TIP3    H117013   2.472   5.722   4.940
 5669TIP3    H217014   2.417   5.853   4.994
 5670TIP3   OH217015   2.867   6.480   3.188
 5670TIP3    H117016   2.929   6.551   3.166
 5670TIP3    H217017   2.908   6.444   3.270
 5671TIP3   OH217018   2.983   6.354   3.398
 5671TIP3    H117019   2.920   6.308   3.458
 5671TIP3    H217020   3.057   6.376   3.459
 5672TIP3   OH217021   2.931   6.250   3.053
 5672TIP3    H117022   2.859   6.247   2.986
 5672TIP3    H217023   2.906   6.331   3.102
 5673TIP3   OH217024   2.795   5.929   2.993
 5673TIP3    H117025   2.749   5.958   2.914
 5673TIP3    H217026   2.775   5.832   2.990
 5674TIP3   OH217027   2.803   6.205   3.543
 5674TIP3    H117028   2.808   6.108   3.535
 5674TIP3    H217029   2.787   6.217   3.639
 5675TIP3   OH217030   1.429   6.209   4.317
 5675TIP3    H117031   1.409   6.249   4.231
 5675TIP3    H217032   1.525   6.230   4.325
 5676TIP3   OH217033   3.080   6.628   4.397
 5676TIP3    H117034   3.151   6.568   4.364
 5676TIP3    H217035   3.054   6.680   4.319
 5677TIP3   OH217036   3.276   6.432   4.416
 5677TIP3    H117037   3.197   6.387   4.451
 5677TIP3    H217038   3.344   6.364   4.436
 5678TIP3   OH217039   2.739   5.662   2.978
 5678TIP3    H117040   2.809   5.629   3.037
 5678TIP3    H217041   2.662   5.607   3.000
 5679TIP3   OH217042   2.799   5.925   3.435
 5679TIP3    H117043   2.840   5.837   3.450
 5679TIP3    H217044   2.856   5.958   3.363
 5680TIP3   OH217045   2.958   6.090   3.934
 5680TIP3    H117046   3.043   6.117   3.893
 5680TIP3    H217047   2.972   6.128   4.023
 5681TIP3   OH217048   3.028   6.236   4.166
 5681TIP3    H117049   2.949   6.269   4.214
 5681TIP3    H217050   3.061   6.319   4.126
 5682TIP3   OH217051   1.646   5.936   4.947
 5682TIP3    H117052   1.743   5.938   4.963
 5682TIP3    H217053   1.622   5.851   4.989
 5683TIP3   OH217054   3.472   5.834   4.717
 5683TIP3    H117055   3.537   5.771   4.679
 5683TIP3    H217056   3.447   5.887   4.638
 5684TIP3   OH217057   2.906   5.674   3.475
 5684TIP3    H117058   2.952   5.656   3.559
 5684TIP3    H217059   2.844   5.598   3.472
 5685TIP3   OH217060   1.605   5.659   4.300
 5685TIP3    H117061   1.669   5.585   4.305
 5685TIP3    H217062   1.666   5.734   4.288
 5686TIP3   OH217063   1.405   5.935   4.367
 5686TIP3    H117064   1.458   5.918   4.286
 5686TIP3    H217065   1.412   6.032   4.368
 5687TIP3   OH217066   3.346   5.969   4.516
 5687TIP3    H117067   3.258   6.009   4.532
 5687TIP3    H217068   3.320   5.891   4.463
 5688TIP3   OH217069   2.980   5.603   3.112
 5688TIP3    H117070   3.020   5.534   3.055
 5688TIP3    H217071   3.047   5.674   3.109
 5689TIP3   OH217072   1.392   5.430   3.868
 5689TIP3    H117073   1.300   5.428   3.899
 5689TIP3    H217074   1.386   5.490   3.791
 5690TIP3   OH217075   1.611   5.511   4.685
 5690TIP3    H117076   1.559   5.513   4.767
 5690TIP3    H217077   1.548   5.552   4.622
 5691TIP3   OH217078   3.248   5.728   4.406
 5691TIP3    H117079   3.158   5.714   4.372
 5691TIP3    H217080   3.286   5.638   4.396
 5692TIP3   OH217081   2.460   5.649   4.034
 5692TIP3    H117082   2.413   5.576   4.079
 5692TIP3    H217083   2.529   5.602   3.983
 5693TIP3   OH217084   2.971   5.530   3.928
 5693TIP3    H117085   3.007   5.581   3.852
 5693TIP3    H217086   2.875   5.550   3.922
 5694TIP3   OH217087   3.069   5.626   3.692
 5694TIP3    H117088   3.143   5.573   3.655
 5694TIP3    H217089   3.104   5.717   3.678
 5695TIP3   OH217090   1.700   5.354   4.040
 5695TIP3    H117091   1.608   5.321   4.042
 5695TIP3    H217092   1.749   5.269   4.036
 5696TIP3   OH217093   1.494   5.228   3.692
 5696TIP3    H117094   1.522   5.285   3.618
 5696TIP3    H217095   1.464   5.294   3.757
 5697TIP3   OH217096   2.150   5.386   3.922
 5697TIP3    H117097   2.204   5.434   3.858
 5697TIP3    H217098   2.178   5.426   4.006
 5698TIP3   OH217099   2.688   5.535   3.904
 5698TIP3    H117100   2.689   5.494   3.817
 5698TIP3    H217101   2.679   5.456   3.963
 5699TIP3   OH217102   2.723   5.463   3.469
 5699TIP3    H117103   2.638   5.507   3.489
 5699TIP3    H217104   2.708   5.376   3.512
 5700TIP3   OH217105   1.609   5.383   3.452
 5700TIP3    H117106   1.657   5.321   3.394
 5700TIP3    H217107   1.683   5.437   3.487
 5701TIP3   OH217108   2.115   5.563   3.550
 5701TIP3    H117109   2.176   5.518   3.611
 5701TIP3    H217110   2.133   5.656   3.575
 5702TIP3   OH217111   1.908   5.637   4.935
 5702TIP3    H117112   1.876   5.561   4.987
 5702TIP3    H217113   2.003   5.636   4.960
 5703TIP3   OH217114   2.161   5.636   5.051
 5703TIP3    H117115   2.244   5.611   5.008
 5703TIP3    H217116   2.150   5.563   5.116
 5704TIP3   OH217117   2.986   5.701   4.837
 5704TIP3    H117118   3.005   5.669   4.928
 5704TIP3    H217119   3.075   5.695   4.796
 5705TIP3   OH217120   4.195   6.612   3.095
 5705TIP3    H117121   4.169   6.704   3.097
 5705TIP3    H217122   4.118   6.569   3.053
 5706TIP3   OH217123   4.195   6.621   3.481
 5706TIP3    H117124   4.230   6.596   3.568
 5706TIP3    H217125   4.151   6.538   3.454
 5707TIP3   OH217126   3.488   6.505   3.843
 5707TIP3    H117127   3.530   6.442   3.904
 5707TIP3    H217128   3.541   6.585   3.857
 5708TIP3   OH217129   3.167   6.125   3.343
 5708TIP3    H117130   3.123   6.209   3.364
 5708TIP3    H217131   3.093   6.075   3.305
 5709TIP3   OH217132   3.224   6.413   3.512
 5709TIP3    H117133   3.265   6.338   3.561
 5709TIP3    H217134   3.303   6.461   3.484
 5710TIP3   OH217135   4.005   6.824   3.472
 5710TIP3    H117136   4.075   6.755   3.468
 5710TIP3    H217137   4.045   6.888   3.533
 5711TIP3   OH217138   5.006   6.158   3.522
 5711TIP3    H117139   5.028   6.241   3.570
 5711TIP3    H217140   5.024   6.184   3.430
 5712TIP3   OH217141   4.400   6.350   3.553
 5712TIP3    H117142   4.442   6.265   3.575
 5712TIP3    H217143   4.366   6.331   3.463
 5713TIP3   OH217144   3.743   6.008   3.520
 5713TIP3    H117145   3.722   6.080   3.457
 5713TIP3    H217146   3.693   5.934   3.479
 5714TIP3   OH217147   4.436   6.099   3.142
 5714TIP3    H117148   4.507   6.086   3.209
 5714TIP3    H217149   4.488   6.135   3.068
 5715TIP3   OH217150   3.368   6.209   3.630
 5715TIP3    H117151   3.451   6.194   3.678
 5715TIP3    H217152   3.384   6.156   3.549
 5716TIP3   OH217153   3.812   6.407   3.402
 5716TIP3    H117154   3.905   6.383   3.421
 5716TIP3    H217155   3.774   6.321   3.374
 5717TIP3   OH217156   5.062   6.371   3.687
 5717TIP3    H117157   4.979   6.417   3.660
 5717TIP3    H217158   5.094   6.436   3.752
 5718TIP3   OH217159   3.734   5.991   3.958
 5718TIP3    H117160   3.675   6.027   3.889
 5718TIP3    H217161   3.680   6.008   4.038
 5719TIP3   OH217162   3.857   6.713   3.691
 5719TIP3    H117163   3.792   6.768   3.739
 5719TIP3    H217164   3.882   6.771   3.615
 5720TIP3   OH217165   4.636   6.106   3.325
 5720TIP3    H117166   4.619   6.065   3.411
 5720TIP3    H217167   4.688   6.184   3.350
 5721TIP3   OH217168   3.606   6.104   3.738
 5721TIP3    H117169   3.668   6.177   3.764
 5721TIP3    H217170   3.657   6.065   3.664
 5722TIP3   OH217171   4.784   6.034   3.650
 5722TIP3    H117172   4.707   6.092   3.644
 5722TIP3    H217173   4.851   6.081   3.597
 5723TIP3   OH217174   4.084   5.704   3.674
 5723TIP3    H117175   4.069   5.610   3.694
 5723TIP3    H217176   4.008   5.745   3.720
 5724TIP3   OH217177   4.027   6.461   2.931
 5724TIP3    H117178   3.944   6.511   2.912
 5724TIP3    H217179   4.078   6.487   2.853
 5725TIP3   OH217180   3.974   6.265   2.636
 5725TIP3    H117181   4.033   6.314   2.695
 5725TIP3    H217182   4.037   6.206   2.591
 5726TIP3   OH217183   4.904   6.713   3.524
 5726TIP3    H117184   4.835   6.782   3.525
 5726TIP3    H217185   4.949   6.732   3.439
 5727TIP3   OH217186   4.374   6.551   2.898
 5727TIP3    H117187   4.316   6.573   2.975
 5727TIP3    H217188   4.456   6.526   2.945
 5728TIP3   OH217189   4.578   6.594   3.797
 5728TIP3    H117190   4.574   6.691   3.813
 5728TIP3    H217191   4.489   6.582   3.760
 5729TIP3   OH217192   3.589   6.554   3.312
 5729TIP3    H117193   3.550   6.497   3.243
 5729TIP3    H217194   3.674   6.509   3.330
 5730TIP3   OH217195   3.717   6.487   3.643
 5730TIP3    H117196   3.749   6.459   3.555
 5730TIP3    H217197   3.771   6.568   3.658
 5731TIP3   OH217198   4.216   6.412   2.723
 5731TIP3    H117199   4.271   6.473   2.777
 5731TIP3    H217200   4.240   6.440   2.632
 5732TIP3   OH217201   3.623   6.599   4.085
 5732TIP3    H117202   3.636   6.686   4.127
 5732TIP3    H217203   3.529   6.583   4.108
 5733TIP3   OH217204   4.724   5.652   2.777
 5733TIP3    H117205   4.642   5.673   2.825
 5733TIP3    H217206   4.737   5.733   2.724
 5734TIP3   OH217207   3.456   6.389   3.124
 5734TIP3    H117208   3.380   6.425   3.074
 5734TIP3    H217209   3.428   6.299   3.142
 5735TIP3   OH217210   3.294   6.723   3.977
 5735TIP3    H117211   3.208   6.705   3.936
 5735TIP3    H217212   3.305   6.647   4.038
 5736TIP3   OH217213   4.839   6.647   3.943
 5736TIP3    H117214   4.765   6.591   3.917
 5736TIP3    H217215   4.884   6.590   4.011
 5737TIP3   OH217216   3.849   5.786   3.805
 5737TIP3    H117217   3.760   5.756   3.775
 5737TIP3    H217218   3.822   5.866   3.854
 5738TIP3   OH217219   4.383   5.902   3.994
 5738TIP3    H117220   4.453   5.877   4.058
 5738TIP3    H217221   4.300   5.883   4.042
 5739TIP3   OH217222   4.630   6.339   3.914
 5739TIP3    H117223   4.583   6.336   4.000
 5739TIP3    H217224   4.601   6.425   3.877
 5740TIP3   OH217225   4.291   6.469   2.471
 5740TIP3    H117226   4.261   6.431   2.386
 5740TIP3    H217227   4.384   6.490   2.447
 5741TIP3   OH217228   3.994   5.833   2.773
 5741TIP3    H117229   3.961   5.831   2.864
 5741TIP3    H217230   3.955   5.750   2.740
 5742TIP3   OH217231   3.786   6.295   3.821
 5742TIP3    H117232   3.735   6.313   3.903
 5742TIP3    H217233   3.758   6.370   3.763
 5743TIP3   OH217234   3.665   6.186   3.331
 5743TIP3    H117235   3.573   6.161   3.353
 5743TIP3    H217236   3.675   6.144   3.243
 5744TIP3   OH217237   4.158   6.266   3.068
 5744TIP3    H117238   4.107   6.337   3.022
 5744TIP3    H217239   4.214   6.233   2.994
 5745TIP3   OH217240   4.341   6.550   4.141
 5745TIP3    H117241   4.320   6.475   4.201
 5745TIP3    H217242   4.439   6.548   4.142
 5746TIP3   OH217243   4.313   6.297   3.299
 5746TIP3    H117244   4.248   6.322   3.230
 5746TIP3    H217245   4.349   6.217   3.255
 5747TIP3   OH217246   3.607   6.318   4.027
 5747TIP3    H117247   3.625   6.386   4.093
 5747TIP3    H217248   3.591   6.238   4.082
 5748TIP3   OH217249   3.651   5.810   2.738
 5748TIP3    H117250   3.642   5.808   2.836
 5748TIP3    H217251   3.573   5.862   2.713
 5749TIP3   OH217252   3.195   5.850   3.610
 5749TIP3    H117253   3.269   5.883   3.665
 5749TIP3    H217254   3.238   5.820   3.529
 5750TIP3   OH217255   3.156   5.828   3.127
 5750TIP3    H117256   3.202   5.866   3.049
 5750TIP3    H217257   3.096   5.902   3.149
 5751TIP3   OH217258   4.307   6.539   3.720
 5751TIP3    H117259   4.345   6.471   3.659
 5751TIP3    H217260   4.285   6.482   3.797
 5752TIP3   OH217261   4.001   6.007   3.394
 5752TIP3    H117262   3.921   6.007   3.450
 5752TIP3    H217263   4.072   5.999   3.461
 5753TIP3   OH217264   3.428   6.068   3.399
 5753TIP3    H117265   3.334   6.074   3.372
 5753TIP3    H217266   3.451   5.976   3.379
 5754TIP3   OH217267   3.691   6.060   3.092
 5754TIP3    H117268   3.785   6.076   3.073
 5754TIP3    H217269   3.646   6.083   3.008
 5755TIP3   OH217270   4.479   6.089   3.596
 5755TIP3    H117271   4.451   6.101   3.690
 5755TIP3    H217272   4.411   6.027   3.564
 5756TIP3   OH217273   3.541   6.099   2.867
 5756TIP3    H117274   3.471   6.053   2.818
 5756TIP3    H217275   3.595   6.134   2.793
 5757TIP3   OH217276   3.615   6.824   4.243
 5757TIP3    H117277   3.698   6.849   4.291
 5757TIP3    H217278   3.582   6.756   4.305
 5758TIP3   OH217279   4.075   6.341   3.492
 5758TIP3    H117280   4.147   6.296   3.445
 5758TIP3    H217281   4.075   6.296   3.579
 5759TIP3   OH217282   3.591   5.824   3.379
 5759TIP3    H117283   3.556   5.747   3.429
 5759TIP3    H217284   3.638   5.779   3.307
 5760TIP3   OH217285   4.053   6.242   3.772
 5760TIP3    H117286   3.962   6.271   3.794
 5760TIP3    H217287   4.108   6.297   3.830
 5761TIP3   OH217288   3.811   6.606   2.868
 5761TIP3    H117289   3.730   6.552   2.876
 5761TIP3    H217290   3.787   6.693   2.902
 5762TIP3   OH217291   4.670   6.880   3.537
 5762TIP3    H117292   4.711   6.918   3.456
 5762TIP3    H217293   4.600   6.825   3.498
 5763TIP3   OH217294   4.245   5.935   2.744
 5763TIP3    H117295   4.149   5.915   2.754
 5763TIP3    H217296   4.251   6.029   2.770
 5764TIP3   OH217297   4.313   6.184   2.847
 5764TIP3    H117298   4.409   6.193   2.860
 5764TIP3    H217299   4.290   6.264   2.795
 5765TIP3   OH217300   3.455   6.588   3.555
 5765TIP3    H117301   3.513   6.585   3.476
 5765TIP3    H217302   3.516   6.552   3.623
 5766TIP3   OH217303   3.366   6.547   4.180
 5766TIP3    H117304   3.375   6.522   4.274
 5766TIP3    H217305   3.292   6.490   4.153
 5767TIP3   OH217306   4.085   6.638   4.165
 5767TIP3    H117307   4.024   6.585   4.111
 5767TIP3    H217308   4.172   6.606   4.134
 5768TIP3   OH217309   4.751   6.274   2.681
 5768TIP3    H117310   4.689   6.230   2.618
 5768TIP3    H217311   4.749   6.364   2.641
 5769TIP3   OH217312   4.471   6.731   3.403
 5769TIP3    H117313   4.379   6.711   3.428
 5769TIP3    H217314   4.498   6.645   3.364
 5770TIP3   OH217315   3.149   6.248   2.889
 5770TIP3    H117316   3.192   6.334   2.908
 5770TIP3    H217317   3.074   6.252   2.952
 5771TIP3   OH217318   3.570   6.073   4.170
 5771TIP3    H117319   3.473   6.076   4.180
 5771TIP3    H217320   3.596   6.017   4.246
 5772TIP3   OH217321   4.389   6.739   2.700
 5772TIP3    H117322   4.376   6.673   2.771
 5772TIP3    H217323   4.484   6.729   2.683
 5773TIP3   OH217324   3.248   6.491   2.967
 5773TIP3    H117325   3.172   6.551   2.984
 5773TIP3    H217326   3.307   6.549   2.914
 5774TIP3   OH217327   4.415   6.142   3.859
 5774TIP3    H117328   4.494   6.181   3.901
 5774TIP3    H217329   4.402   6.060   3.911
 5775TIP3   OH217330   4.294   5.884   3.027
 5775TIP3    H117331   4.280   5.908   2.933
 5775TIP3    H217332   4.336   5.966   3.062
 5776TIP3   OH217333   3.972   6.071   3.126
 5776TIP3    H117334   4.039   6.141   3.108
 5776TIP3    H217335   3.982   6.061   3.223
 5777TIP3   OH217336   4.249   6.377   3.929
 5777TIP3    H117337   4.279   6.424   4.008
 5777TIP3    H217338   4.304   6.296   3.932
 5778TIP3   OH217339   4.120   5.787   3.224
 5778TIP3    H117340   4.112   5.866   3.281
 5778TIP3    H217341   4.185   5.821   3.157
 5779TIP3   OH217342   3.636   5.795   3.014
 5779TIP3    H117343   3.631   5.884   3.054
 5779TIP3    H217344   3.732   5.779   3.022
 5780TIP3   OH217345   4.884   6.217   3.876
 5780TIP3    H117346   4.797   6.255   3.903
 5780TIP3    H217347   4.916   6.284   3.816
 5781TIP3   OH217348   4.539   6.477   3.297
 5781TIP3    H117349   4.462   6.419   3.310
 5781TIP3    H217350   4.609   6.429   3.346
 5782TIP3   OH217351   3.197   5.979   2.903
 5782TIP3    H117352   3.198   6.077   2.907
 5782TIP3    H217353   3.113   5.961   2.859
 5783TIP3   OH217354   3.585   5.705   3.773
 5783TIP3    H117355   3.554   5.670   3.686
 5783TIP3    H217356   3.574   5.627   3.831
 5784TIP3   OH217357   3.369   6.813   4.429
 5784TIP3    H117358   3.424   6.734   4.447
 5784TIP3    H217359   3.322   6.786   4.350
 5785TIP3   OH217360   3.362   6.461   2.623
 5785TIP3    H117361   3.402   6.501   2.701
 5785TIP3    H217362   3.437   6.463   2.558
 5786TIP3   OH217363   4.022   6.894   4.209
 5786TIP3    H117364   3.985   6.923   4.125
 5786TIP3    H217365   4.044   6.800   4.190
 5787TIP3   OH217366   4.510   6.863   3.796
 5787TIP3    H117367   4.559   6.892   3.717
 5787TIP3    H217368   4.528   6.936   3.859
 5788TIP3   OH217369   3.564   6.602   4.410
 5788TIP3    H117370   3.631   6.534   4.393
 5788TIP3    H217371   3.587   6.627   4.502
 5789TIP3   OH217372   3.614   6.412   2.872
 5789TIP3    H117373   3.581   6.355   2.943
 5789TIP3    H217374   3.645   6.346   2.806
 5790TIP3   OH217375   3.871   6.482   4.056
 5790TIP3    H117376   3.786   6.531   4.062
 5790TIP3    H217377   3.912   6.520   3.976
 5791TIP3   OH217378   3.703   6.220   2.685
 5791TIP3    H117379   3.677   6.214   2.590
 5791TIP3    H217380   3.800   6.229   2.676
 5792TIP3   OH217381   4.532   6.523   2.349
 5792TIP3    H117382   4.521   6.471   2.267
 5792TIP3    H217383   4.528   6.613   2.311
 5793TIP3   OH217384   3.986   6.279   4.197
 5793TIP3    H117385   3.991   6.201   4.140
 5793TIP3    H217386   3.946   6.346   4.137
 5794TIP3   OH217387   3.993   6.069   4.003
 5794TIP3    H117388   4.020   6.108   3.917
 5794TIP3    H217389   3.899   6.046   3.986
 5795TIP3   OH217390   4.027   6.603   3.872
 5795TIP3    H117391   4.112   6.594   3.830
 5795TIP3    H217392   3.973   6.648   3.804
 5796TIP3   OH217393   3.817   6.392   4.397
 5796TIP3    H117394   3.776   6.307   4.424
 5796TIP3    H217395   3.877   6.363   4.326
 5797TIP3   OH217396   4.123   5.830   4.074
 5797TIP3    H117397   4.073   5.912   4.051
 5797TIP3    H217398   4.053   5.762   4.064
 5798TIP3   OH217399   4.248   6.335   4.278
 5798TIP3    H117400   4.251   6.322   4.374
 5798TIP3    H217401   4.155   6.310   4.260
 5799TIP3   OH217402   4.481   6.287   4.137
 5799TIP3    H117403   4.402   6.284   4.194
 5799TIP3    H217404   4.550   6.260   4.201
 5800TIP3   OH217405   4.670   6.212   4.318
 5800TIP3    H117406   4.703   6.120   4.325
 5800TIP3    H217407   4.721   6.258   4.385
 5801TIP3   OH217408   3.705   6.158   4.486
 5801TIP3    H117409   3.708   6.065   4.455
 5801TIP3    H217410   3.745   6.147   4.575
 5802TIP3   OH217411   4.218   5.843   4.331
 5802TIP3    H117412   4.278   5.766   4.324
 5802TIP3    H217413   4.175   5.839   4.242
 5803TIP3   OH217414   4.279   6.057   4.490
 5803TIP3    H117415   4.262   5.983   4.428
 5803TIP3    H217416   4.197   6.111   4.479
 5804TIP3   OH217417   4.660   6.738   2.675
 5804TIP3    H117418   4.721   6.806   2.640
 5804TIP3    H217419   4.707   6.708   2.756
 5805TIP3   OH217420   4.787   6.613   2.888
 5805TIP3    H117421   4.720   6.568   2.944
 5805TIP3    H217422   4.856   6.638   2.952
 5806TIP3   OH217423   4.724   6.507   2.541
 5806TIP3    H117424   4.653   6.502   2.473
 5806TIP3    H217425   4.698   6.588   2.589
 5807TIP3   OH217426   4.588   6.187   2.484
 5807TIP3    H117427   4.564   6.218   2.396
 5807TIP3    H217428   4.564   6.092   2.478
 5808TIP3   OH217429   4.602   6.463   3.029
 5808TIP3    H117430   4.606   6.366   3.021
 5808TIP3    H217431   4.584   6.475   3.125
 5809TIP3   OH217432   3.223   6.466   3.806
 5809TIP3    H117433   3.204   6.495   3.715
 5809TIP3    H217434   3.319   6.486   3.812
 5810TIP3   OH217435   4.534   5.921   2.468
 5810TIP3    H117436   4.606   5.886   2.525
 5810TIP3    H217437   4.459   5.862   2.487
 5811TIP3   OH217438   4.595   6.182   2.921
 5811TIP3    H117439   4.636   6.093   2.936
 5811TIP3    H217440   4.651   6.213   2.848
 5812TIP3   OH217441   4.752   6.344   3.417
 5812TIP3    H117442   4.838   6.371   3.378
 5812TIP3    H217443   4.763   6.384   3.506
 5813TIP3   OH217444   4.814   6.490   3.647
 5813TIP3    H117445   4.737   6.525   3.695
 5813TIP3    H217446   4.849   6.572   3.605
 5814TIP3   OH217447   3.441   6.223   4.460
 5814TIP3    H117448   3.539   6.215   4.463
 5814TIP3    H217449   3.417   6.134   4.492
 5815TIP3   OH217450   4.702   5.930   2.962
 5815TIP3    H117451   4.748   5.912   3.047
 5815TIP3    H217452   4.640   5.854   2.959
 5816TIP3   OH217453   3.401   5.915   3.783
 5816TIP3    H117454   3.464   5.840   3.791
 5816TIP3    H217455   3.463   5.990   3.774
 5817TIP3   OH217456   3.199   6.191   3.854
 5817TIP3    H117457   3.253   6.173   3.774
 5817TIP3    H217458   3.208   6.288   3.855
 5818TIP3   OH217459   5.096   6.185   4.090
 5818TIP3    H117460   5.066   6.274   4.123
 5818TIP3    H217461   5.072   6.195   3.997
 5819TIP3   OH217462   4.778   5.859   2.598
 5819TIP3    H117463   4.816   5.789   2.540
 5819TIP3    H217464   4.845   5.929   2.593
 5820TIP3   OH217465   3.188   5.688   3.356
 5820TIP3    H117466   3.096   5.684   3.387
 5820TIP3    H217467   3.181   5.747   3.279
 5821TIP3   OH217468   3.408   5.771   4.172
 5821TIP3    H117469   3.356   5.766   4.253
 5821TIP3    H217470   3.342   5.810   4.111
 5822TIP3   OH217471   5.013   5.954   3.870
 5822TIP3    H117472   4.979   6.024   3.810
 5822TIP3    H217473   5.082   5.910   3.817
 5823TIP3   OH217474   4.247   5.902   3.514
 5823TIP3    H117475   4.208   5.829   3.564
 5823TIP3    H217476   4.321   5.859   3.468
 5824TIP3   OH217477   4.766   5.782   3.411
 5824TIP3    H117478   4.802   5.836   3.338
 5824TIP3    H217479   4.672   5.809   3.411
 5825TIP3   OH217480   4.865   5.883   3.179
 5825TIP3    H117481   4.939   5.829   3.142
 5825TIP3    H217482   4.901   5.974   3.165
 5826TIP3   OH217483   3.496   5.610   3.527
 5826TIP3    H117484   3.404   5.576   3.530
 5826TIP3    H217485   3.545   5.525   3.523
 5827TIP3   OH217486   3.286   5.485   3.179
 5827TIP3    H117487   3.315   5.542   3.105
 5827TIP3    H217488   3.258   5.551   3.245
 5828TIP3   OH217489   3.944   5.645   3.409
 5828TIP3    H117490   4.001   5.691   3.345
 5828TIP3    H217491   3.975   5.680   3.493
 5829TIP3   OH217492   4.480   5.792   3.392
 5829TIP3    H117493   4.488   5.750   3.306
 5829TIP3    H217494   4.473   5.713   3.452
 5830TIP3   OH217495   4.519   5.719   2.956
 5830TIP3    H117496   4.434   5.762   2.975
 5830TIP3    H217497   4.505   5.632   2.999
 5831TIP3   OH217498   3.406   5.642   2.936
 5831TIP3    H117499   3.454   5.578   2.881
 5831TIP3    H217500   3.480   5.695   2.973
 5832TIP3   OH217501   3.912   5.821   3.036
 5832TIP3    H117502   3.971   5.774   3.098
 5832TIP3    H217503   3.931   5.913   3.062
 5833TIP3   OH217504   3.704   5.886   4.420
 5833TIP3    H117505   3.672   5.815   4.479
 5833TIP3    H217506   3.799   5.888   4.446
 5834TIP3   OH217507   3.954   5.888   4.539
 5834TIP3    H117508   4.040   5.861   4.502
 5834TIP3    H217509   3.942   5.819   4.607
 5835TIP3   OH217510   4.766   5.945   4.336
 5835TIP3    H117511   4.777   5.900   4.422
 5835TIP3    H217512   4.855   5.940   4.297
 5836TIP3   OH217513   4.955   6.383   2.832
 5836TIP3    H117514   4.910   6.468   2.849
 5836TIP3    H217515   4.884   6.333   2.790
 5837TIP3   OH217516   5.043   6.682   2.995
 5837TIP3    H117517   5.077   6.602   3.041
 5837TIP3    H217518   5.122   6.703   2.940
 5838TIP3   OH217519   5.520   6.275   3.017
 5838TIP3    H117520   5.501   6.333   2.941
 5838TIP3    H217521   5.484   6.191   2.982
 5839TIP3   OH217522   5.159   6.466   3.118
 5839TIP3    H117523   5.241   6.447   3.167
 5839TIP3    H217524   5.171   6.408   3.040
 5840TIP3   OH217525   5.526   6.244   3.446
 5840TIP3    H117526   5.463   6.289   3.388
 5840TIP3    H217527   5.484   6.261   3.534
 5841TIP3   OH217528   5.394   6.377   3.235
 5841TIP3    H117529   5.452   6.452   3.252
 5841TIP3    H217530   5.442   6.333   3.160
 5842TIP3   OH217531   5.846   5.953   3.142
 5842TIP3    H117532   5.855   5.864   3.181
 5842TIP3    H217533   5.780   5.992   3.204
 5843TIP3   OH217534   5.643   6.049   3.299
 5843TIP3    H117535   5.553   6.023   3.272
 5843TIP3    H217536   5.621   6.128   3.353
 5844TIP3   OH217537   5.436   6.426   2.806
 5844TIP3    H117538   5.351   6.389   2.840
 5844TIP3    H217539   5.404   6.465   2.722
 5845TIP3   OH217540   5.385   6.021   2.233
 5845TIP3    H117541   5.391   6.038   2.329
 5845TIP3    H217542   5.337   6.099   2.201
 5846TIP3   OH217543   4.990   6.107   3.099
 5846TIP3    H117544   5.065   6.141   3.151
 5846TIP3    H217545   5.029   6.080   3.015
 5847TIP3   OH217546   4.954   6.087   2.616
 5847TIP3    H117547   4.995   6.123   2.534
 5847TIP3    H217548   4.892   6.159   2.637
 5848TIP3   OH217549   5.208   6.309   2.898
 5848TIP3    H117550   5.115   6.325   2.867
 5848TIP3    H217551   5.224   6.217   2.871
 5849TIP3   OH217552   5.262   6.400   2.320
 5849TIP3    H117553   5.221   6.329   2.267
 5849TIP3    H217554   5.324   6.438   2.256
 5850TIP3   OH217555   5.396   6.073   2.868
 5850TIP3    H117556   5.362   5.997   2.920
 5850TIP3    H217557   5.418   6.032   2.784
 5851TIP3   OH217558   4.935   6.503   2.370
 5851TIP3    H117559   4.970   6.593   2.379
 5851TIP3    H217560   4.861   6.505   2.434
 5852TIP3   OH217561   5.359   6.313   3.657
 5852TIP3    H117562   5.269   6.344   3.640
 5852TIP3    H217563   5.357   6.305   3.754
 5853TIP3   OH217564   5.428   6.051   2.504
 5853TIP3    H117565   5.444   6.148   2.510
 5853TIP3    H217566   5.516   6.015   2.522
 5854TIP3   OH217567   4.985   6.232   2.386
 5854TIP3    H117568   4.997   6.329   2.388
 5854TIP3    H217569   4.898   6.223   2.346
 5855TIP3   OH217570   5.379   5.963   3.260
 5855TIP3    H117571   5.349   5.928   3.174
 5855TIP3    H217572   5.372   5.885   3.318
 5856TIP3   OH217573   5.044   6.730   3.287
 5856TIP3    H117574   5.009   6.734   3.196
 5856TIP3    H217575   5.117   6.791   3.280
 5857TIP3   OH217576   5.199   6.174   3.266
 5857TIP3    H117577   5.263   6.100   3.275
 5857TIP3    H217578   5.259   6.251   3.266
 5858TIP3   OH217579   4.995   6.446   3.343
 5858TIP3    H117580   5.045   6.438   3.260
 5858TIP3    H217581   5.009   6.540   3.362
 5859TIP3   OH217582   4.987   5.950   2.847
 5859TIP3    H117583   4.895   5.940   2.875
 5859TIP3    H217584   4.978   6.005   2.766
 5860TIP3   OH217585   5.196   6.015   3.660
 5860TIP3    H117586   5.191   6.083   3.728
 5860TIP3    H217587   5.134   6.052   3.593
 5861TIP3   OH217588   5.290   5.861   3.015
 5861TIP3    H117589   5.193   5.842   3.018
 5861TIP3    H217590   5.323   5.771   3.006
 5862TIP3   OH217591   5.092   5.738   2.671
 5862TIP3    H117592   5.116   5.790   2.592
 5862TIP3    H217593   5.059   5.807   2.732
 5863TIP3   OH217594   5.710   5.903   2.908
 5863TIP3    H117595   5.778   5.910   2.840
 5863TIP3    H217596   5.758   5.928   2.989
 5864TIP3   OH217597   5.194   5.888   2.435
 5864TIP3    H117598   5.243   5.832   2.370
 5864TIP3    H217599   5.266   5.945   2.468
 5865TIP3   OH217600   3.840   1.603   6.313
 5865TIP3    H117601   3.793   1.563   6.238
 5865TIP3    H217602   3.792   1.687   6.323
 5866TIP3   OH217603   3.947   1.966   6.335
 5866TIP3    H117604   4.009   1.891   6.319
 5866TIP3    H217605   4.005   2.042   6.312
 5867TIP3   OH217606   4.095   1.744   6.287
 5867TIP3    H117607   4.033   1.673   6.263
 5867TIP3    H217608   4.136   1.709   6.368
 5868TIP3   OH217609   3.756   1.208   6.286
 5868TIP3    H117610   3.675   1.260   6.266
 5868TIP3    H217611   3.803   1.207   6.201
 5869TIP3   OH217612   3.717   1.003   6.026
 5869TIP3    H117613   3.788   1.054   6.070
 5869TIP3    H217614   3.772   0.944   5.971
 5870TIP3   OH217615   4.089   1.302   6.284
 5870TIP3    H117616   4.021   1.286   6.351
 5870TIP3    H217617   4.164   1.256   6.323
 5871TIP3   OH217618   3.946   1.158   6.096
 5871TIP3    H117619   4.003   1.222   6.143
 5871TIP3    H217620   3.972   1.176   6.002
 5872TIP3   OH217621   3.698   1.868   6.341
 5872TIP3    H117622   3.784   1.911   6.341
 5872TIP3    H217623   3.643   1.929   6.289
 5873TIP3   OH217624   4.262   1.765   5.705
 5873TIP3    H117625   4.269   1.862   5.688
 5873TIP3    H217626   4.354   1.736   5.689
 5874TIP3   OH217627   3.568   2.075   6.183
 5874TIP3    H117628   3.525   2.055   6.098
 5874TIP3    H217629   3.542   2.168   6.197
 5875TIP3   OH217630   3.770   1.985   5.820
 5875TIP3    H117631   3.827   1.914   5.784
 5875TIP3    H217632   3.807   1.996   5.910
 5876TIP3   OH217633   3.822   2.038   6.086
 5876TIP3    H117634   3.733   2.045   6.127
 5876TIP3    H217635   3.875   2.005   6.161
 5877TIP3   OH217636   4.027   1.202   5.847
 5877TIP3    H117637   3.985   1.181   5.761
 5877TIP3    H217638   4.111   1.243   5.817
 5878TIP3   OH217639   4.778   2.606   0.003
 5878TIP3    H117640   4.699   2.555  -0.018
 5878TIP3    H217641   4.760   2.637   0.093
 5879TIP3   OH217642   3.985   0.705   6.044
 5879TIP3    H117643   3.922   0.652   6.096
 5879TIP3    H217644   4.011   0.774   6.110
 5880TIP3   OH217645   4.037   0.919   6.205
 5880TIP3    H117646   4.127   0.947   6.231
 5880TIP3    H217647   4.000   1.003   6.170
 5881TIP3   OH217648   3.670   1.519   6.088
 5881TIP3    H117649   3.621   1.605   6.088
 5881TIP3    H217650   3.611   1.463   6.143
 5882TIP3   OH217651   4.481   1.023   6.052
 5882TIP3    H117652   4.431   0.976   5.981
 5882TIP3    H217653   4.480   1.113   6.008
 5883TIP3   OH217654   4.197   1.840   5.969
 5883TIP3    H117655   4.169   1.770   6.029
 5883TIP3    H217656   4.208   1.794   5.885
 5884TIP3   OH217657   3.954   1.574   5.867
 5884TIP3    H117658   4.006   1.547   5.946
 5884TIP3    H217659   3.867   1.537   5.889
 5885TIP3   OH217660   4.290   2.042   5.684
 5885TIP3    H117661   4.320   2.118   5.631
 5885TIP3    H217662   4.209   2.081   5.722
 5886TIP3   OH217663   4.114   1.499   6.078
 5886TIP3    H117664   4.103   1.439   6.154
 5886TIP3    H217665   4.211   1.496   6.066
 5887TIP3   OH217666   3.319   1.547   5.853
 5887TIP3    H117667   3.328   1.453   5.827
 5887TIP3    H217668   3.303   1.538   5.949
 5888TIP3   OH217669   3.267   1.560   6.120
 5888TIP3    H117670   3.316   1.556   6.205
 5888TIP3    H217671   3.253   1.657   6.118
 5889TIP3   OH217672   3.531   1.752   6.088
 5889TIP3    H117673   3.440   1.763   6.120
 5889TIP3    H217674   3.537   1.823   6.023
 5890TIP3   OH217675   3.266   1.832   6.141
 5890TIP3    H117676   3.240   1.899   6.073
 5890TIP3    H217677   3.263   1.884   6.221
 5891TIP3   OH217678   3.002   1.488   6.115
 5891TIP3    H117679   3.098   1.504   6.109
 5891TIP3    H217680   2.998   1.399   6.076
 5892TIP3   OH217681   4.269   2.192   6.616
 5892TIP3    H117682   4.241   2.253   6.546
 5892TIP3    H217683   4.366   2.211   6.612
 5893TIP3   OH217684   3.481   1.752   5.777
 5893TIP3    H117685   3.426   1.677   5.809
 5893TIP3    H217686   3.557   1.704   5.739
 5894TIP3   OH217687   3.914   1.789   5.693
 5894TIP3    H117688   3.951   1.721   5.754
 5894TIP3    H217689   3.973   1.782   5.616
 5895TIP3   OH217690   3.120   1.258   5.990
 5895TIP3    H117691   3.168   1.222   6.065
 5895TIP3    H217692   3.193   1.266   5.923
 5896TIP3   OH217693   3.654   1.469   5.815
 5896TIP3    H117694   3.646   1.479   5.911
 5896TIP3    H217695   3.652   1.371   5.806
 5897TIP3   OH217696   3.439   1.008   6.063
 5897TIP3    H117697   3.413   0.997   5.970
 5897TIP3    H217698   3.536   0.998   6.058
 5898TIP3   OH217699   4.259   1.296   5.728
 5898TIP3    H117700   4.236   1.253   5.644
 5898TIP3    H217701   4.225   1.387   5.709
 5899TIP3   OH217702   3.249   2.042   5.970
 5899TIP3    H117703   3.342   2.029   5.946
 5899TIP3    H217704   3.217   2.086   5.889
 5900TIP3   OH217705   4.507   2.308   6.560
 5900TIP3    H117706   4.519   2.391   6.611
 5900TIP3    H217707   4.580   2.316   6.496
 5901TIP3   OH217708   4.392   1.485   6.058
 5901TIP3    H117709   4.460   1.549   6.029
 5901TIP3    H217710   4.432   1.451   6.141
 5902TIP3   OH217711   4.509   1.366   6.276
 5902TIP3    H117712   4.476   1.323   6.356
 5902TIP3    H217713   4.595   1.401   6.308
 5903TIP3   OH217714   4.456   1.260   5.912
 5903TIP3    H117715   4.385   1.262   5.843
 5903TIP3    H217716   4.429   1.338   5.964
 5904TIP3   OH217717   4.334   0.934   5.842
 5904TIP3    H117718   4.280   0.976   5.774
 5904TIP3    H217719   4.295   0.845   5.846
 5905TIP3   OH217720   4.240   0.684   5.900
 5905TIP3    H117721   4.275   0.673   5.989
 5905TIP3    H217722   4.147   0.659   5.915
 5906TIP3   OH217723   4.303   0.963   6.271
 5906TIP3    H117724   4.295   0.867   6.253
 5906TIP3    H217725   4.368   0.991   6.205
 5907TIP3   OH217726   4.089   2.167   6.232
 5907TIP3    H117727   4.145   2.152   6.153
 5907TIP3    H217728   4.141   2.231   6.283
 5908TIP3   OH217729   3.512   1.983   5.917
 5908TIP3    H117730   3.600   2.005   5.879
 5908TIP3    H217731   3.489   1.909   5.856
 5909TIP3   OH217732   4.238   2.108   6.006
 5909TIP3    H117733   4.227   2.010   5.997
 5909TIP3    H217734   4.189   2.139   5.927
 5910TIP3   OH217735   2.819   1.825   5.968
 5910TIP3    H117736   2.807   1.814   6.063
 5910TIP3    H217737   2.904   1.777   5.953
 5911TIP3   OH217738   4.673   1.131   6.220
 5911TIP3    H117739   4.629   1.218   6.224
 5911TIP3    H217740   4.611   1.080   6.166
 5912TIP3   OH217741   4.763   1.411   6.359
 5912TIP3    H117742   4.809   1.358   6.426
 5912TIP3    H217743   4.833   1.423   6.294
 5913TIP3   OH217744   5.617   1.903   5.789
 5913TIP3    H117745   5.573   1.858   5.716
 5913TIP3    H217746   5.549   1.966   5.820
 5914TIP3   OH217747   4.589   1.657   5.950
 5914TIP3    H117748   4.549   1.683   5.865
 5914TIP3    H217749   4.620   1.744   5.985
 5915TIP3   OH217750   5.481   1.292   5.509
 5915TIP3    H117751   5.550   1.334   5.564
 5915TIP3    H217752   5.506   1.197   5.517
 5916TIP3   OH217753   5.456   2.119   5.872
 5916TIP3    H117754   5.531   2.178   5.881
 5916TIP3    H217755   5.396   2.172   5.816
 5917TIP3   OH217756   5.005   1.403   5.958
 5917TIP3    H117757   4.920   1.429   5.917
 5917TIP3    H217758   4.988   1.313   5.988
 5918TIP3   OH217759   6.041   2.027   5.176
 5918TIP3    H117760   6.043   2.124   5.160
 5918TIP3    H217761   6.135   2.007   5.182
 5919TIP3   OH217762   4.619   1.977   6.482
 5919TIP3    H117763   4.687   1.919   6.515
 5919TIP3    H217764   4.592   2.025   6.562
 5920TIP3   OH217765   5.372   2.330   5.681
 5920TIP3    H117766   5.330   2.320   5.593
 5920TIP3    H217767   5.344   2.420   5.707
 5921TIP3   OH217768   4.801   2.186   6.043
 5921TIP3    H117769   4.843   2.176   6.132
 5921TIP3    H217770   4.743   2.109   6.042
 5922TIP3   OH217771   5.559   2.239   5.309
 5922TIP3    H117772   5.618   2.171   5.268
 5922TIP3    H217773   5.600   2.248   5.397
 5923TIP3   OH217774   5.625   2.292   5.571
 5923TIP3    H117775   5.545   2.295   5.629
 5923TIP3    H217776   5.698   2.295   5.636
 5924TIP3   OH217777   5.812   1.485   5.299
 5924TIP3    H117778   5.779   1.460   5.211
 5924TIP3    H217779   5.902   1.515   5.277
 5925TIP3   OH217780   5.225   0.919   5.586
 5925TIP3    H117781   5.215   0.870   5.671
 5925TIP3    H217782   5.137   0.959   5.578
 5926TIP3   OH217783   4.704   0.840   6.027
 5926TIP3    H117784   4.748   0.873   5.945
 5926TIP3    H217785   4.639   0.910   6.038
 5927TIP3   OH217786   5.058   1.106   5.747
 5927TIP3    H117787   4.997   1.077   5.677
 5927TIP3    H217788   5.130   1.144   5.693
 5928TIP3   OH217789   5.289   1.653   5.718
 5928TIP3    H117790   5.243   1.567   5.707
 5928TIP3    H217791   5.273   1.669   5.814
 5929TIP3   OH217792   5.471   1.780   5.559
 5929TIP3    H117793   5.419   1.863   5.568
 5929TIP3    H217794   5.416   1.719   5.614
 5930TIP3   OH217795   5.975   2.094   5.438
 5930TIP3    H117796   5.993   2.023   5.501
 5930TIP3    H217797   5.999   2.055   5.352
 5931TIP3   OH217798   5.112   1.967   6.056
 5931TIP3    H117799   5.118   2.046   5.999
 5931TIP3    H217800   5.017   1.963   6.070
 5932TIP3   OH217801   4.679   1.257   5.750
 5932TIP3    H117802   4.724   1.341   5.771
 5932TIP3    H217803   4.602   1.261   5.810
 5933TIP3   OH217804   5.208   1.717   5.971
 5933TIP3    H117805   5.169   1.804   5.995
 5933TIP3    H217806   5.145   1.655   6.010
 5934TIP3   OH217807   5.035   2.194   5.896
 5934TIP3    H117808   4.947   2.203   5.938
 5934TIP3    H217809   5.067   2.287   5.901
 5935TIP3   OH217810   5.742   1.834   5.352
 5935TIP3    H117811   5.812   1.799   5.412
 5935TIP3    H217812   5.662   1.807   5.399
 5936TIP3   OH217813   6.076   2.301   5.171
 5936TIP3    H117814   6.105   2.366   5.106
 5936TIP3    H217815   6.000   2.349   5.209
 5937TIP3   OH217816   4.884   2.138   6.628
 5937TIP3    H117817   4.959   2.083   6.650
 5937TIP3    H217818   4.881   2.197   6.707
 5938TIP3   OH217819   5.100   1.808   5.359
 5938TIP3    H117820   5.120   1.717   5.328
 5938TIP3    H217821   5.086   1.791   5.455
 5939TIP3   OH217822   5.053   1.808   5.632
 5939TIP3    H117823   5.133   1.768   5.671
 5939TIP3    H217824   5.068   1.904   5.647
 5940TIP3   OH217825   4.780   1.500   5.828
 5940TIP3    H117826   4.715   1.548   5.885
 5940TIP3    H217827   4.800   1.570   5.763
 5941TIP3   OH217828   5.329   2.007   5.584
 5941TIP3    H117829   5.241   2.036   5.617
 5941TIP3    H217830   5.345   2.074   5.516
 5942TIP3   OH217831   5.074   2.085   5.647
 5942TIP3    H117832   5.037   2.150   5.585
 5942TIP3    H217833   5.056   2.126   5.735
 5943TIP3   OH217834   4.792   1.707   5.633
 5943TIP3    H117835   4.872   1.762   5.646
 5943TIP3    H217836   4.829   1.643   5.568
 5944TIP3   OH217837   4.721   0.983   5.787
 5944TIP3    H117838   4.740   1.079   5.789
 5944TIP3    H217839   4.649   0.981   5.725
 5945TIP3   OH217840   4.651   1.924   6.022
 5945TIP3    H117841   4.594   1.956   6.092
 5945TIP3    H217842   4.614   1.968   5.943
 5946TIP3   OH217843   5.276   2.006   5.273
 5946TIP3    H117844   5.226   1.929   5.308
 5946TIP3    H217845   5.353   1.960   5.233
 5947TIP3   OH217846   5.706   2.051   5.179
 5947TIP3    H117847   5.748   1.987   5.240
 5947TIP3    H217848   5.763   2.047   5.100
 5948TIP3   OH217849   4.925   1.517   5.493
 5948TIP3    H117850   4.981   1.483   5.566
 5948TIP3    H217851   4.992   1.522   5.421
 5949TIP3   OH217852   5.420   1.726   5.293
 5949TIP3    H117853   5.433   1.736   5.389
 5949TIP3    H217854   5.426   1.629   5.284
 5950TIP3   OH217855   5.122   1.436   5.706
 5950TIP3    H117856   5.098   1.405   5.796
 5950TIP3    H217857   5.154   1.353   5.664
 5951TIP3   OH217858   5.213   1.233   5.550
 5951TIP3    H117859   5.186   1.232   5.456
 5951TIP3    H217860   5.309   1.253   5.541
 5952TIP3   OH217861   6.056   1.544   5.185
 5952TIP3    H117862   6.023   1.513   5.099
 5952TIP3    H217863   6.032   1.639   5.178
 5953TIP3   OH217864   5.031   2.261   5.421
 5953TIP3    H117865   5.128   2.268   5.427
 5953TIP3    H217866   5.007   2.350   5.389
 5954TIP3   OH217867   4.521   1.670   5.666
 5954TIP3    H117868   4.616   1.689   5.655
 5954TIP3    H217869   4.514   1.580   5.627
 5955TIP3   OH217870   4.438   2.278   6.082
 5955TIP3    H117871   4.371   2.217   6.044
 5955TIP3    H217872   4.482   2.218   6.146
 5956TIP3   OH217873   4.577   2.126   6.258
 5956TIP3    H117874   4.577   2.057   6.329
 5956TIP3    H217875   4.618   2.198   6.309
 5957TIP3   OH217876   5.848   2.354   5.721
 5957TIP3    H117877   5.909   2.352   5.644
 5957TIP3    H217878   5.866   2.445   5.755
 5958TIP3   OH217879   4.841   2.475   6.636
 5958TIP3    H117880   4.756   2.512   6.607
 5958TIP3    H217881   4.832   2.491   6.732
 5959TIP3   OH217882   5.102   2.487   6.526
 5959TIP3    H117883   5.017   2.475   6.573
 5959TIP3    H217884   5.070   2.520   6.440
 5960TIP3   OH217885   4.746   2.292   6.410
 5960TIP3    H117886   4.784   2.285   6.500
 5960TIP3    H217887   4.811   2.238   6.361
 5961TIP3   OH217888   4.933   2.141   6.279
 5961TIP3    H117889   4.951   2.080   6.351
 5961TIP3    H217890   5.020   2.188   6.273
 5962TIP3   OH217891   5.181   2.246   6.281
 5962TIP3    H117892   5.250   2.181   6.263
 5962TIP3    H217893   5.225   2.296   6.352
 5963TIP3   OH217894   4.533   2.060   5.818
 5963TIP3    H117895   4.446   2.030   5.784
 5963TIP3    H217896   4.526   2.155   5.795
 5964TIP3   OH217897   5.302   2.246   5.400
 5964TIP3    H117898   5.393   2.267   5.368
 5964TIP3    H217899   5.288   2.164   5.347
 5965TIP3   OH217900   6.010   2.356   5.503
 5965TIP3    H117901   6.007   2.260   5.479
 5965TIP3    H217902   5.981   2.397   5.419
 5966TIP3   OH217903   4.605   2.099   5.458
 5966TIP3    H117904   4.579   2.131   5.546
 5966TIP3    H217905   4.681   2.044   5.478
 5967TIP3   OH217906   6.324   2.294   5.294
 5967TIP3    H117907   6.231   2.287   5.263
 5967TIP3    H217908   6.326   2.387   5.318
 5968TIP3   OH217909   6.404   2.361   4.953
 5968TIP3    H117910   6.398   2.387   5.046
 5968TIP3    H217911   6.488   2.310   4.949
 5969TIP3   OH217912   2.102   3.323   5.856
 5969TIP3    H117913   2.109   3.419   5.837
 5969TIP3    H217914   2.194   3.293   5.841
 5970TIP3   OH217915   1.423   3.675   6.256
 5970TIP3    H117916   1.384   3.657   6.169
 5970TIP3    H217917   1.384   3.760   6.280
 5971TIP3   OH217918   1.617   3.541   5.966
 5971TIP3    H117919   1.674   3.471   5.927
 5971TIP3    H217920   1.656   3.550   6.056
 5972TIP3   OH217921   1.681   3.593   6.235
 5972TIP3    H117922   1.587   3.614   6.252
 5972TIP3    H217923   1.714   3.586   6.326
 5973TIP3   OH217924   1.841   2.753   5.986
 5973TIP3    H117925   1.822   2.735   5.893
 5973TIP3    H217926   1.929   2.794   5.982
 5974TIP3   OH217927   2.352   2.580   6.183
 5974TIP3    H117928   2.277   2.542   6.132
 5974TIP3    H217929   2.344   2.673   6.154
 5975TIP3   OH217930   2.039   3.388   6.118
 5975TIP3    H117931   2.003   3.312   6.164
 5975TIP3    H217932   2.056   3.354   6.028
 5976TIP3   OH217933   1.793   3.135   6.013
 5976TIP3    H117934   1.856   3.107   6.084
 5976TIP3    H217935   1.709   3.124   6.060
 5977TIP3   OH217936   2.130   3.598   5.835
 5977TIP3    H117937   2.167   3.668   5.778
 5977TIP3    H217938   2.050   3.644   5.867
 5978TIP3   OH217939   1.969   3.076   6.213
 5978TIP3    H117940   1.949   3.043   6.302
 5978TIP3    H217941   2.065   3.058   6.208
 5979TIP3   OH217942   1.163   3.107   6.016
 5979TIP3    H117943   1.190   3.028   5.967
 5979TIP3    H217944   1.170   3.078   6.108
 5980TIP3   OH217945   1.368   3.372   6.249
 5980TIP3    H117946   1.272   3.357   6.263
 5980TIP3    H217947   1.367   3.439   6.180
 5981TIP3   OH217948   1.324   3.304   5.923
 5981TIP3    H117949   1.269   3.234   5.964
 5981TIP3    H217950   1.397   3.252   5.884
 5982TIP3   OH217951   1.756   3.346   5.836
 5982TIP3    H117952   1.796   3.280   5.896
 5982TIP3    H217953   1.814   3.342   5.757
 5983TIP3   OH217954   1.473   3.027   5.962
 5983TIP3    H117955   1.488   3.058   6.054
 5983TIP3    H217956   1.484   2.930   5.971
 5984TIP3   OH217957   2.089   2.849   5.884
 5984TIP3    H117958   2.073   2.807   5.798
 5984TIP3    H217959   2.059   2.940   5.862
 5985TIP3   OH217960   1.102   3.606   6.115
 5985TIP3    H117961   1.190   3.581   6.079
 5985TIP3    H217962   1.063   3.643   6.033
 5986TIP3   OH217963   2.245   3.039   6.226
 5986TIP3    H117964   2.308   3.101   6.182
 5986TIP3    H217965   2.285   3.034   6.314
 5987TIP3   OH217966   2.298   2.824   6.059
 5987TIP3    H117967   2.223   2.824   5.996
 5987TIP3    H217968   2.270   2.896   6.120
 5988TIP3   OH217969   2.159   2.496   6.007
 5988TIP3    H117970   2.123   2.547   5.934
 5988TIP3    H217971   2.131   2.405   5.984
 5989TIP3   OH217972   2.119   2.223   5.974
 5989TIP3    H117973   2.216   2.217   5.983
 5989TIP3    H217974   2.094   2.184   6.060
 5990TIP3   OH217975   2.372   2.184   6.097
 5990TIP3    H117976   2.433   2.108   6.087
 5990TIP3    H217977   2.437   2.257   6.105
 5991TIP3   OH217978   2.017   3.703   6.412
 5991TIP3    H117979   2.021   3.679   6.317
 5991TIP3    H217980   2.003   3.799   6.406
 5992TIP3   OH217981   1.352   3.550   6.024
 5992TIP3    H117982   1.444   3.564   5.993
 5992TIP3    H217983   1.333   3.465   5.977
 5993TIP3   OH217984   2.076   3.658   6.150
 5993TIP3    H117985   2.064   3.561   6.138
 5993TIP3    H217986   2.025   3.693   6.074
 5994TIP3   OH217987   3.561   3.177   6.106
 5994TIP3    H117988   3.533   3.269   6.088
 5994TIP3    H217989   3.480   3.129   6.083
 5995TIP3   OH217990   3.560   3.188   6.490
 5995TIP3    H117991   3.584   3.165   6.581
 5995TIP3    H217992   3.535   3.103   6.452
 5996TIP3   OH217993   3.807   3.486   6.180
 5996TIP3    H117994   3.801   3.422   6.252
 5996TIP3    H217995   3.839   3.566   6.227
 5997TIP3   OH217996   3.458   3.941   6.193
 5997TIP3    H117997   3.499   3.870   6.140
 5997TIP3    H217998   3.465   3.904   6.282
 5998TIP3   OH217999   3.366   3.400   6.520
 5998TIP3    H118000   3.417   3.323   6.490
 5998TIP3    H218001   3.439   3.459   6.544
 5999TIP3   OH218002   4.397   2.731   6.526
 5999TIP3    H118003   4.414   2.810   6.582
 5999TIP3    H218004   4.422   2.765   6.438
 6000TIP3   OH218005   3.845   2.841   6.555
 6000TIP3    H118006   3.796   2.880   6.625
 6000TIP3    H218007   3.782   2.850   6.481
 6001TIP3   OH218008   3.814   2.661   6.166
 6001TIP3    H118009   3.882   2.646   6.235
 6001TIP3    H218010   3.870   2.695   6.094
 6002TIP3   OH218011   3.178   2.966   6.398
 6002TIP3    H118012   3.274   2.953   6.413
 6002TIP3    H218013   3.153   2.889   6.346
 6003TIP3   OH218014   4.453   2.937   6.704
 6003TIP3    H118015   4.366   2.978   6.685
 6003TIP3    H218016   4.453   2.944   6.802
 6004TIP3   OH218017   3.431   3.390   5.983
 6004TIP3    H118018   3.422   3.398   5.888
 6004TIP3    H218019   3.396   3.478   6.012
 6005TIP3   OH218020   4.018   2.666   6.346
 6005TIP3    H118021   4.042   2.634   6.434
 6005TIP3    H218022   4.055   2.756   6.355
 6006TIP3   OH218023   2.431   3.207   6.102
 6006TIP3    H118024   2.395   3.233   6.015
 6006TIP3    H218025   2.463   3.292   6.137
 6007TIP3   OH218026   3.868   3.725   6.330
 6007TIP3    H118027   3.777   3.724   6.369
 6007TIP3    H218028   3.870   3.815   6.292
 6008TIP3   OH218029   4.143   2.636   6.595
 6008TIP3    H118030   4.155   2.693   6.673
 6008TIP3    H218031   4.230   2.649   6.553
 6009TIP3   OH218032   3.569   3.770   6.006
 6009TIP3    H118033   3.620   3.688   5.988
 6009TIP3    H218034   3.631   3.837   5.969
 6010TIP3   OH218035   3.709   3.550   5.929
 6010TIP3    H118036   3.709   3.468   5.879
 6010TIP3    H218037   3.750   3.523   6.014
 6011TIP3   OH218038   4.104   3.645   6.709
 6011TIP3    H118039   4.092   3.566   6.654
 6011TIP3    H218040   4.101   3.716   6.643
 6012TIP3   OH218041   3.382   3.017   5.940
 6012TIP3    H118042   3.311   3.082   5.919
 6012TIP3    H218043   3.441   3.027   5.863
 6013TIP3   OH218044   3.364   2.819   5.666
 6013TIP3    H118045   3.435   2.875   5.704
 6013TIP3    H218046   3.418   2.758   5.612
 6014TIP3   OH218047   4.298   3.278   6.535
 6014TIP3    H118048   4.216   3.332   6.538
 6014TIP3    H218049   4.329   3.300   6.444
 6015TIP3   OH218050   3.741   3.113   5.913
 6015TIP3    H118051   3.688   3.139   5.992
 6015TIP3    H218052   3.826   3.088   5.956
 6016TIP3   OH218053   2.956   3.108   6.344
 6016TIP3    H118054   2.936   3.048   6.271
 6016TIP3    H218055   3.045   3.074   6.372
 6017TIP3   OH218056   3.118   3.548   6.470
 6017TIP3    H118057   3.079   3.475   6.420
 6017TIP3    H218058   3.203   3.507   6.498
 6018TIP3   OH218059   3.625   3.735   6.453
 6018TIP3    H118060   3.616   3.815   6.509
 6018TIP3    H218061   3.621   3.661   6.516
 6019TIP3   OH218062   3.576   2.978   5.743
 6019TIP3    H118063   3.639   3.035   5.793
 6019TIP3    H218064   3.604   2.998   5.650
 6020TIP3   OH218065   3.323   3.648   6.012
 6020TIP3    H118066   3.408   3.696   6.023
 6020TIP3    H218067   3.267   3.717   5.973
 6021TIP3   OH218068   4.096   2.209   5.791
 6021TIP3    H118069   4.015   2.232   5.842
 6021TIP3    H218070   4.110   2.292   5.741
 6022TIP3   OH218071   3.898   3.579   5.342
 6022TIP3    H118072   3.906   3.676   5.325
 6022TIP3    H218073   3.991   3.550   5.326
 6023TIP3   OH218074   3.207   3.890   5.824
 6023TIP3    H118075   3.165   3.876   5.738
 6023TIP3    H218076   3.177   3.980   5.848
 6024TIP3   OH218077   2.646   3.746   6.210
 6024TIP3    H118078   2.689   3.736   6.297
 6024TIP3    H218079   2.594   3.664   6.204
 6025TIP3   OH218080   3.407   3.799   5.458
 6025TIP3    H118081   3.465   3.728   5.422
 6025TIP3    H218082   3.444   3.811   5.548
 6026TIP3   OH218083   3.459   3.850   5.727
 6026TIP3    H118084   3.372   3.856   5.773
 6026TIP3    H218085   3.517   3.819   5.799
 6027TIP3   OH218086   3.657   3.009   5.488
 6027TIP3    H118087   3.621   2.992   5.398
 6027TIP3    H218088   3.741   3.053   5.465
 6028TIP3   OH218089   3.365   2.396   5.794
 6028TIP3    H118090   3.332   2.388   5.885
 6028TIP3    H218091   3.329   2.314   5.756
 6029TIP3   OH218092   3.028   2.748   6.286
 6029TIP3    H118093   2.946   2.716   6.327
 6029TIP3    H218094   3.079   2.667   6.280
 6030TIP3   OH218095   3.523   2.821   6.075
 6030TIP3    H118096   3.478   2.896   6.030
 6030TIP3    H218097   3.585   2.791   6.006
 6031TIP3   OH218098   3.679   2.862   6.310
 6031TIP3    H118099   3.624   2.883   6.233
 6031TIP3    H218100   3.723   2.781   6.275
 6032TIP3   OH218101   3.038   2.378   5.743
 6032TIP3    H118102   3.014   2.367   5.838
 6032TIP3    H218103   2.955   2.417   5.709
 6033TIP3   OH218104   2.551   2.404   6.140
 6033TIP3    H118105   2.592   2.438   6.056
 6033TIP3    H218106   2.484   2.475   6.150
 6034TIP3   OH218107   3.343   2.581   6.428
 6034TIP3    H118108   3.311   2.580   6.519
 6034TIP3    H218109   3.438   2.583   6.446
 6035TIP3   OH218110   2.930   2.633   5.891
 6035TIP3    H118111   2.854   2.707   5.952
 6035TIP3    H218112   2.833   2.654   5.819
 6036TIP3   OH218113   3.434   2.886   6.448
 6036TIP3    H118114   3.521   2.873   6.405
 6036TIP3    H218115   3.448   2.835   6.529
 6037TIP3   OH218116   3.016   2.311   6.281
 6037TIP3    H118117   2.998   2.364   6.363
 6037TIP3    H218118   3.110   2.294   6.291
 6038TIP3   OH218119   3.162   3.181   5.894
 6038TIP3    H118120   3.072   3.183   5.861
 6038TIP3    H218121   3.149   3.218   5.985
 6039TIP3   OH218122   4.064   3.424   6.524
 6039TIP3    H118123   4.094   3.477   6.447
 6039TIP3    H218124   3.980   3.386   6.491
 6040TIP3   OH218125   3.619   2.494   5.763
 6040TIP3    H118126   3.523   2.475   5.771
 6040TIP3    H218127   3.627   2.589   5.782
 6041TIP3   OH218128   3.689   2.746   5.862
 6041TIP3    H118129   3.785   2.749   5.879
 6041TIP3    H218130   3.674   2.827   5.809
 6042TIP3   OH218131   3.311   3.334   5.714
 6042TIP3    H118132   3.262   3.420   5.719
 6042TIP3    H218133   3.264   3.281   5.781
 6043TIP3   OH218134   4.125   2.839   5.695
 6043TIP3    H118135   4.064   2.795   5.631
 6043TIP3    H218136   4.122   2.929   5.655
 6044TIP3   OH218137   3.827   3.657   5.603
 6044TIP3    H118138   3.809   3.584   5.663
 6044TIP3    H218139   3.846   3.612   5.519
 6045TIP3   OH218140   3.825   3.287   6.433
 6045TIP3    H118141   3.732   3.262   6.441
 6045TIP3    H218142   3.862   3.206   6.393
 6046TIP3   OH218143   2.938   3.514   6.193
 6046TIP3    H118144   2.960   3.597   6.148
 6046TIP3    H218145   2.849   3.498   6.162
 6047TIP3   OH218146   2.521   2.818   5.899
 6047TIP3    H118147   2.569   2.900   5.924
 6047TIP3    H218148   2.445   2.823   5.961
 6048TIP3   OH218149   3.073   3.275   6.133
 6048TIP3    H118150   3.052   3.368   6.154
 6048TIP3    H218151   3.048   3.232   6.217
 6049TIP3   OH218152   3.198   3.906   6.628
 6049TIP3    H118153   3.271   3.953   6.584
 6049TIP3    H218154   3.246   3.841   6.684
 6050TIP3   OH218155   2.874   3.752   6.045
 6050TIP3    H118156   2.789   3.766   6.091
 6050TIP3    H218157   2.911   3.844   6.048
 6051TIP3   OH218158   3.627   3.503   6.608
 6051TIP3    H118159   3.589   3.484   6.697
 6051TIP3    H218160   3.698   3.438   6.601
 6052TIP3   OH218161   3.595   3.383   5.510
 6052TIP3    H118162   3.648   3.361   5.589
 6052TIP3    H218163   3.506   3.357   5.539
 6053TIP3   OH218164   3.927   3.855   5.322
 6053TIP3    H118165   3.965   3.931   5.275
 6053TIP3    H218166   3.847   3.899   5.358
 6054TIP3   OH218167   3.754   3.320   5.729
 6054TIP3    H118168   3.746   3.248   5.794
 6054TIP3    H218169   3.850   3.316   5.710
 6055TIP3   OH218170   2.954   3.364   5.509
 6055TIP3    H118171   2.966   3.274   5.477
 6055TIP3    H218172   2.941   3.350   5.605
 6056TIP3   OH218173   2.914   3.368   5.790
 6056TIP3    H118174   2.980   3.376   5.860
 6056TIP3    H218175   2.896   3.464   5.775
 6057TIP3   OH218176   2.633   3.059   5.970
 6057TIP3    H118177   2.574   3.096   6.037
 6057TIP3    H218178   2.638   3.135   5.908
 6058TIP3   OH218179   3.679   2.450   6.035
 6058TIP3    H118180   3.667   2.474   5.941
 6058TIP3    H218181   3.720   2.531   6.073
 6059TIP3   OH218182   3.162   3.561   5.726
 6059TIP3    H118183   3.075   3.591   5.759
 6059TIP3    H218184   3.185   3.636   5.670
 6060TIP3   OH218185   3.325   2.643   6.151
 6060TIP3    H118186   3.400   2.703   6.130
 6060TIP3    H218187   3.339   2.627   6.247
 6061TIP3   OH218188   3.509   2.348   6.223
 6061TIP3    H118189   3.550   2.382   6.305
 6061TIP3    H218190   3.571   2.388   6.156
 6062TIP3   OH218191   2.904   3.638   5.794
 6062TIP3    H118192   2.880   3.709   5.730
 6062TIP3    H218193   2.892   3.685   5.879
 6063TIP3   OH218194   3.007   2.346   6.011
 6063TIP3    H118195   2.985   2.343   6.104
 6063TIP3    H218196   3.106   2.345   6.016
 6064TIP3   OH218197   3.909   3.042   6.317
 6064TIP3    H118198   3.836   2.980   6.330
 6064TIP3    H218199   3.983   2.996   6.362
 6065TIP3   OH218200   2.626   3.269   5.786
 6065TIP3    H118201   2.692   3.341   5.790
 6065TIP3    H218202   2.667   3.214   5.716
 6066TIP3   OH218203   2.566   2.541   5.912
 6066TIP3    H118204   2.580   2.637   5.908
 6066TIP3    H218205   2.491   2.531   5.853
 6067TIP3   OH218206   3.885   3.995   6.261
 6067TIP3    H118207   3.842   4.043   6.187
 6067TIP3    H218208   3.978   4.021   6.244
 6068TIP3   OH218209   2.501   3.488   6.169
 6068TIP3    H118210   2.431   3.508   6.232
 6068TIP3    H218211   2.466   3.530   6.088
 6069TIP3   OH218212   3.116   3.566   5.413
 6069TIP3    H118213   3.065   3.492   5.453
 6069TIP3    H218214   3.192   3.518   5.373
 6070TIP3   OH218215   3.551   3.601   5.329
 6070TIP3    H118216   3.597   3.540   5.390
 6070TIP3    H218217   3.608   3.600   5.250
 6071TIP3   OH218218   2.749   3.087   5.627
 6071TIP3    H118219   2.787   3.022   5.687
 6071TIP3    H218220   2.821   3.093   5.560
 6072TIP3   OH218221   3.280   3.280   5.448
 6072TIP3    H118222   3.283   3.295   5.544
 6072TIP3    H218223   3.282   3.182   5.444
 6073TIP3   OH218224   3.097   2.795   5.699
 6073TIP3    H118225   3.054   2.799   5.615
 6073TIP3    H218226   3.190   2.809   5.671
 6074TIP3   OH218227   3.888   3.108   5.371
 6074TIP3    H118228   3.870   3.065   5.285
 6074TIP3    H218229   3.858   3.199   5.349
 6075TIP3   OH218230   2.883   3.838   5.608
 6075TIP3    H118231   2.978   3.832   5.588
 6075TIP3    H218232   2.854   3.893   5.532
 6076TIP3   OH218233   2.358   3.223   5.822
 6076TIP3    H118234   2.453   3.246   5.806
 6076TIP3    H218235   2.351   3.136   5.778
 6077TIP3   OH218236   2.273   3.839   6.230
 6077TIP3    H118237   2.209   3.777   6.187
 6077TIP3    H218238   2.327   3.777   6.282
 6078TIP3   OH218239   2.408   3.684   6.416
 6078TIP3    H118240   2.325   3.664   6.460
 6078TIP3    H218241   2.450   3.748   6.479
 6079TIP3   OH218242   4.134   4.097   6.221
 6079TIP3    H118243   4.162   4.122   6.311
 6079TIP3    H218244   4.212   4.118   6.168
 6080TIP3   OH218245   4.161   4.102   6.503
 6080TIP3    H118246   4.121   4.012   6.505
 6080TIP3    H218247   4.248   4.084   6.540
 6081TIP3   OH218248   4.029   3.297   5.695
 6081TIP3    H118249   4.096   3.363   5.666
 6081TIP3    H218250   4.075   3.258   5.773
 6082TIP3   OH218251   4.156   3.160   5.895
 6082TIP3    H118252   4.095   3.124   5.962
 6082TIP3    H218253   4.228   3.198   5.951
 6083TIP3   OH218254   4.212   3.556   6.332
 6083TIP3    H118255   4.271   3.493   6.287
 6083TIP3    H218256   4.218   3.634   6.272
 6084TIP3   OH218257   4.035   3.852   6.523
 6084TIP3    H118258   3.950   3.884   6.556
 6084TIP3    H218259   4.006   3.800   6.446
 6085TIP3   OH218260   4.094   3.072   5.547
 6085TIP3    H118261   4.021   3.076   5.482
 6085TIP3    H218262   4.070   3.150   5.603
 6086TIP3   OH218263   3.963   2.743   5.499
 6086TIP3    H118264   3.919   2.781   5.423
 6086TIP3    H218265   3.942   2.648   5.488
 6087TIP3   OH218266   3.965   3.023   6.048
 6087TIP3    H118267   3.981   2.928   6.045
 6087TIP3    H218268   3.953   3.040   6.144
 6088TIP3   OH218269   3.909   2.475   5.479
 6088TIP3    H118270   3.979   2.445   5.540
 6088TIP3    H218271   3.833   2.420   5.502
 6089TIP3   OH218272   3.966   2.737   5.936
 6089TIP3    H118273   4.010   2.650   5.950
 6089TIP3    H218274   4.023   2.775   5.868
 6090TIP3   OH218275   4.129   2.913   6.415
 6090TIP3    H118276   4.220   2.937   6.386
 6090TIP3    H218277   4.136   2.937   6.509
 6091TIP3   OH218278   4.202   3.049   6.655
 6091TIP3    H118279   4.147   3.081   6.727
 6091TIP3    H218280   4.232   3.132   6.612
 6092TIP3   OH218281   4.077   2.489   5.978
 6092TIP3    H118282   4.125   2.472   6.062
 6092TIP3    H218283   4.016   2.412   5.977
 6093TIP3   OH218284   4.150   2.418   5.616
 6093TIP3    H118285   4.191   2.353   5.556
 6093TIP3    H218286   4.213   2.493   5.613
 6094TIP3   OH218287   3.714   3.954   5.877
 6094TIP3    H118288   3.773   3.947   5.799
 6094TIP3    H218289   3.763   4.017   5.934
 6095TIP3   OH218290   2.878   4.033   6.695
 6095TIP3    H118291   2.847   4.110   6.744
 6095TIP3    H218292   2.879   4.065   6.602
 6096TIP3   OH218293   3.352   4.079   6.476
 6096TIP3    H118294   3.280   4.095   6.413
 6096TIP3    H218295   3.360   4.164   6.522
 6097TIP3   OH218296   3.607   3.993   6.557
 6097TIP3    H118297   3.524   4.026   6.518
 6097TIP3    H218298   3.671   4.059   6.525
 6098TIP3   OH218299   3.787   4.177   6.453
 6098TIP3    H118300   3.783   4.262   6.405
 6098TIP3    H218301   3.829   4.118   6.387
 6099TIP3   OH218302   2.591   3.831   6.577
 6099TIP3    H118303   2.632   3.871   6.655
 6099TIP3    H218304   2.668   3.788   6.533
 6100TIP3   OH218305   2.794   3.699   6.446
 6100TIP3    H118306   2.840   3.618   6.421
 6100TIP3    H218307   2.872   3.761   6.443
 6101TIP3   OH218308   3.040   3.812   6.432
 6101TIP3    H118309   3.078   3.721   6.432
 6101TIP3    H218310   3.090   3.849   6.508
 6102TIP3   OH218311   3.611   2.414   6.473
 6102TIP3    H118312   3.606   2.383   6.566
 6102TIP3    H218313   3.706   2.395   6.453
 6103TIP3   OH218314   4.159   2.356   6.429
 6103TIP3    H118315   4.198   2.406   6.354
 6103TIP3    H218316   4.071   2.396   6.435
 6104TIP3   OH218317   4.245   2.441   6.189
 6104TIP3    H118318   4.320   2.391   6.151
 6104TIP3    H218319   4.279   2.533   6.176
 6105TIP3   OH218320   2.633   2.055   6.174
 6105TIP3    H118321   2.683   2.094   6.097
 6105TIP3    H218322   2.698   2.057   6.241
 6106TIP3   OH218323   3.321   2.240   6.392
 6106TIP3    H118324   3.368   2.300   6.331
 6106TIP3    H218325   3.395   2.192   6.428
 6107TIP3   OH218326   3.862   2.329   6.403
 6107TIP3    H118327   3.899   2.285   6.326
 6107TIP3    H218328   3.897   2.272   6.476
 6108TIP3   OH218329   3.894   2.278   5.970
 6108TIP3    H118330   3.811   2.325   5.991
 6108TIP3    H218331   3.878   2.192   6.014
 6109TIP3   OH218332   2.371   3.621   5.971
 6109TIP3    H118333   2.285   3.589   5.939
 6109TIP3    H218334   2.366   3.713   5.937
 6110TIP3   OH218335   2.777   2.191   5.949
 6110TIP3    H118336   2.822   2.128   5.890
 6110TIP3    H218337   2.850   2.250   5.973
 6111TIP3   OH218338   3.280   2.391   6.057
 6111TIP3    H118339   3.352   2.346   6.107
 6111TIP3    H218340   3.294   2.483   6.088
 6112TIP3   OH218341   3.150   3.795   5.557
 6112TIP3    H118342   3.237   3.820   5.519
 6112TIP3    H218343   3.127   3.721   5.496
 6113TIP3   OH218344   3.868   3.923   5.649
 6113TIP3    H118345   3.858   3.826   5.636
 6113TIP3    H218346   3.823   3.956   5.568
 6114TIP3   OH218347   2.450   3.631   5.608
 6114TIP3    H118348   2.459   3.661   5.699
 6114TIP3    H218349   2.536   3.587   5.591
 6115TIP3   OH218350   5.361   3.440   5.595
 6115TIP3    H118351   5.331   3.531   5.572
 6115TIP3    H218352   5.283   3.389   5.567
 6116TIP3   OH218353   5.349   3.439   5.978
 6116TIP3    H118354   5.382   3.419   6.068
 6116TIP3    H218355   5.308   3.355   5.954
 6117TIP3   OH218356   4.658   3.329   6.344
 6117TIP3    H118357   4.694   3.258   6.399
 6117TIP3    H218358   4.708   3.405   6.380
 6118TIP3   OH218359   5.598   3.729   5.658
 6118TIP3    H118360   5.580   3.658   5.723
 6118TIP3    H218361   5.664   3.781   5.705
 6119TIP3   OH218362   4.339   2.935   5.847
 6119TIP3    H118363   4.303   3.022   5.872
 6119TIP3    H218364   4.261   2.895   5.805
 6120TIP3   OH218365   4.387   3.223   6.024
 6120TIP3    H118366   4.437   3.147   6.063
 6120TIP3    H218367   4.461   3.284   6.008
 6121TIP3   OH218368   5.235   4.181   5.721
 6121TIP3    H118369   5.283   4.152   5.640
 6121TIP3    H218370   5.241   4.101   5.773
 6122TIP3   OH218371   5.153   3.655   6.035
 6122TIP3    H118372   5.190   3.580   5.985
 6122TIP3    H218373   5.236   3.699   6.061
 6123TIP3   OH218374   5.576   3.177   6.058
 6123TIP3    H118375   5.604   3.088   6.087
 6123TIP3    H218376   5.540   3.156   5.970
 6124TIP3   OH218377   4.914   2.823   6.022
 6124TIP3    H118378   4.892   2.897   5.962
 6124TIP3    H218379   4.859   2.752   5.982
 6125TIP3   OH218380   5.613   2.911   5.653
 6125TIP3    H118381   5.683   2.895   5.721
 6125TIP3    H218382   5.665   2.954   5.583
 6126TIP3   OH218383   4.539   3.022   6.135
 6126TIP3    H118384   4.624   3.013   6.180
 6126TIP3    H218385   4.557   2.973   6.053
 6127TIP3   OH218386   4.982   3.223   5.926
 6127TIP3    H118387   5.075   3.196   5.942
 6127TIP3    H218388   4.941   3.139   5.896
 6128TIP3   OH218389   4.904   2.810   6.462
 6128TIP3    H118390   4.847   2.849   6.392
 6128TIP3    H218391   4.849   2.829   6.541
 6129TIP3   OH218392   5.252   3.659   5.461
 6129TIP3    H118393   5.204   3.642   5.379
 6129TIP3    H218394   5.207   3.742   5.490
 6130TIP3   OH218395   5.004   3.591   6.257
 6130TIP3    H118396   4.920   3.639   6.263
 6130TIP3    H218397   5.045   3.631   6.177
 6131TIP3   OH218398   5.812   2.895   5.845
 6131TIP3    H118399   5.804   2.870   5.939
 6131TIP3    H218400   5.855   2.983   5.853
 6132TIP3   OH218401   4.779   2.923   6.241
 6132TIP3    H118402   4.838   2.998   6.265
 6132TIP3    H218403   4.830   2.884   6.168
 6133TIP3   OH218404   4.227   3.467   5.587
 6133TIP3    H118405   4.189   3.498   5.504
 6133TIP3    H218406   4.259   3.552   5.626
 6134TIP3   OH218407   5.247   2.530   6.154
 6134TIP3    H118408   5.237   2.439   6.187
 6134TIP3    H218409   5.182   2.576   6.211
 6135TIP3   OH218410   5.371   4.035   5.518
 6135TIP3    H118411   5.420   3.953   5.494
 6135TIP3    H218412   5.425   4.101   5.471
 6136TIP3   OH218413   5.509   3.817   5.411
 6136TIP3    H118414   5.456   3.741   5.382
 6136TIP3    H218415   5.547   3.782   5.495
 6137TIP3   OH218416   5.189   3.285   5.435
 6137TIP3    H118417   5.108   3.337   5.416
 6137TIP3    H218418   5.235   3.289   5.349
 6138TIP3   OH218419   5.148   3.077   5.140
 6138TIP3    H118420   5.213   3.128   5.192
 6138TIP3    H218421   5.206   3.014   5.094
 6139TIP3   OH218422   5.537   3.372   5.399
 6139TIP3    H118423   5.482   3.398   5.476
 6139TIP3    H218424   5.621   3.351   5.443
 6140TIP3   OH218425   4.786   3.373   5.799
 6140TIP3    H118426   4.740   3.309   5.742
 6140TIP3    H218427   4.853   3.318   5.844
 6141TIP3   OH218428   4.935   3.813   5.930
 6141TIP3    H118429   4.861   3.752   5.921
 6141TIP3    H218430   5.009   3.755   5.955
 6142TIP3   OH218431   4.925   3.336   6.174
 6142TIP3    H118432   4.942   3.321   6.079
 6142TIP3    H218433   4.953   3.428   6.189
 6143TIP3   OH218434   5.411   3.985   5.955
 6143TIP3    H118435   5.373   4.016   6.037
 6143TIP3    H218436   5.410   3.889   5.971
 6144TIP3   OH218437   5.375   3.230   5.229
 6144TIP3    H118438   5.434   3.291   5.279
 6144TIP3    H218439   5.401   3.252   5.136
 6145TIP3   OH218440   4.775   3.441   6.580
 6145TIP3    H118441   4.811   3.506   6.641
 6145TIP3    H218442   4.684   3.430   6.612
 6146TIP3   OH218443   5.128   3.904   5.495
 6146TIP3    H118444   5.201   3.964   5.518
 6146TIP3    H218445   5.061   3.965   5.462
 6147TIP3   OH218446   5.892   2.472   5.281
 6147TIP3    H118447   5.809   2.493   5.327
 6147TIP3    H218448   5.906   2.553   5.227
 6148TIP3   OH218449   4.642   3.204   5.604
 6148TIP3    H118450   4.569   3.253   5.561
 6148TIP3    H218451   4.593   3.134   5.648
 6149TIP3   OH218452   5.693   3.834   4.826
 6149TIP3    H118453   5.699   3.932   4.813
 6149TIP3    H218454   5.786   3.807   4.812
 6150TIP3   OH218455   4.436   3.601   6.519
 6150TIP3    H118456   4.360   3.584   6.461
 6150TIP3    H218457   4.456   3.515   6.558
 6151TIP3   OH218458   4.281   3.780   6.170
 6151TIP3    H118459   4.374   3.759   6.149
 6151TIP3    H218460   4.294   3.858   6.227
 6152TIP3   OH218461   5.004   4.146   5.306
 6152TIP3    H118462   4.954   4.134   5.223
 6152TIP3    H218463   4.974   4.234   5.334
 6153TIP3   OH218464   4.439   4.001   5.689
 6153TIP3    H118465   4.490   3.998   5.774
 6153TIP3    H218466   4.389   3.918   5.695
 6154TIP3   OH218467   5.203   4.057   4.942
 6154TIP3    H118468   5.262   3.985   4.910
 6154TIP3    H218469   5.235   4.068   5.034
 6155TIP3   OH218470   5.253   4.104   5.208
 6155TIP3    H118471   5.166   4.113   5.253
 6155TIP3    H218472   5.309   4.075   5.281
 6156TIP3   OH218473   4.601   3.815   6.557
 6156TIP3    H118474   4.659   3.763   6.612
 6156TIP3    H218475   4.536   3.747   6.528
 6157TIP3   OH218476   5.020   2.613   6.297
 6157TIP3    H118477   4.930   2.584   6.270
 6157TIP3    H218478   4.997   2.692   6.350
 6158TIP3   OH218479   5.452   3.268   4.972
 6158TIP3    H118480   5.418   3.250   4.883
 6158TIP3    H218481   5.536   3.312   4.952
 6159TIP3   OH218482   5.155   2.664   5.277
 6159TIP3    H118483   5.123   2.660   5.369
 6159TIP3    H218484   5.169   2.572   5.256
 6160TIP3   OH218485   4.956   3.116   6.323
 6160TIP3    H118486   4.903   3.136   6.403
 6160TIP3    H218487   4.941   3.199   6.271
 6161TIP3   OH218488   4.838   3.004   5.836
 6161TIP3    H118489   4.745   2.983   5.857
 6161TIP3    H218490   4.846   2.962   5.748
 6162TIP3   OH218491   5.325   3.085   5.567
 6162TIP3    H118492   5.274   3.158   5.525
 6162TIP3    H218493   5.380   3.055   5.492
 6163TIP3   OH218494   5.480   3.114   5.805
 6163TIP3    H118495   5.418   3.141   5.734
 6163TIP3    H218496   5.517   3.034   5.763
 6164TIP3   OH218497   4.784   3.150   6.530
 6164TIP3    H118498   4.788   3.227   6.590
 6164TIP3    H218499   4.766   3.076   6.590
 6165TIP3   OH218500   4.822   2.599   5.246
 6165TIP3    H118501   4.816   2.618   5.342
 6165TIP3    H218502   4.752   2.658   5.212
 6166TIP3   OH218503   4.368   2.664   6.111
 6166TIP3    H118504   4.435   2.703   6.171
 6166TIP3    H218505   4.418   2.650   6.030
 6167TIP3   OH218506   4.324   2.647   5.630
 6167TIP3    H118507   4.366   2.688   5.551
 6167TIP3    H218508   4.266   2.721   5.656
 6168TIP3   OH218509   5.449   3.362   6.217
 6168TIP3    H118510   5.510   3.304   6.165
 6168TIP3    H218511   5.445   3.311   6.300
 6169TIP3   OH218512   5.168   2.813   5.894
 6169TIP3    H118513   5.086   2.818   5.948
 6169TIP3    H218514   5.237   2.823   5.963
 6170TIP3   OH218515   4.600   2.886   5.903
 6170TIP3    H118516   4.506   2.892   5.875
 6170TIP3    H218517   4.624   2.794   5.881
 6171TIP3   OH218518   4.863   2.872   5.598
 6171TIP3    H118519   4.955   2.898   5.579
 6171TIP3    H218520   4.815   2.899   5.516
 6172TIP3   OH218521   5.617   2.912   6.112
 6172TIP3    H118522   5.632   2.884   6.204
 6172TIP3    H218523   5.547   2.850   6.085
 6173TIP3   OH218524   4.721   2.901   5.369
 6173TIP3    H118525   4.649   2.861   5.316
 6173TIP3    H218526   4.771   2.948   5.298
 6174TIP3   OH218527   5.247   3.153   5.995
 6174TIP3    H118528   5.325   3.117   5.951
 6174TIP3    H218529   5.251   3.112   6.083
 6175TIP3   OH218530   4.759   2.641   5.881
 6175TIP3    H118531   4.724   2.564   5.932
 6175TIP3    H218532   4.806   2.597   5.810
 6176TIP3   OH218533   5.221   3.058   6.279
 6176TIP3    H118534   5.129   3.089   6.295
 6176TIP3    H218535   5.275   3.119   6.332
 6177TIP3   OH218536   4.963   3.434   5.375
 6177TIP3    H118537   4.886   3.375   5.365
 6177TIP3    H218538   4.944   3.475   5.463
 6178TIP3   OH218539   5.416   2.748   5.260
 6178TIP3    H118540   5.319   2.745   5.257
 6178TIP3    H218541   5.435   2.843   5.273
 6179TIP3   OH218542   5.483   3.002   5.346
 6179TIP3    H118543   5.579   3.016   5.364
 6179TIP3    H218544   5.460   3.083   5.295
 6180TIP3   OH218545   4.615   3.364   6.043
 6180TIP3    H118546   4.664   3.420   5.981
 6180TIP3    H218547   4.664   3.377   6.126
 6181TIP3   OH218548   5.104   3.591   5.201
 6181TIP3    H118549   5.055   3.677   5.207
 6181TIP3    H218550   5.050   3.535   5.261
 6182TIP3   OH218551   4.525   3.375   6.674
 6182TIP3    H118552   4.501   3.387   6.766
 6182TIP3    H218553   4.452   3.319   6.640
 6183TIP3   OH218554   5.925   3.097   5.181
 6183TIP3    H118555   5.863   3.053   5.118
 6183TIP3    H218556   5.920   3.187   5.141
 6184TIP3   OH218557   5.636   3.913   5.094
 6184TIP3    H118558   5.601   3.851   5.159
 6184TIP3    H218559   5.641   3.861   5.012
 6185TIP3   OH218560   5.593   3.562   5.913
 6185TIP3    H118561   5.507   3.517   5.921
 6185TIP3    H218562   5.649   3.489   5.882
 6186TIP3   OH218563   4.741   3.762   5.658
 6186TIP3    H118564   4.738   3.850   5.616
 6186TIP3    H218565   4.659   3.761   5.709
 6187TIP3   OH218566   4.321   3.071   5.392
 6187TIP3    H118567   4.366   3.156   5.413
 6187TIP3    H218568   4.243   3.077   5.451
 6188TIP3   OH218569   4.895   3.540   5.612
 6188TIP3    H118570   4.854   3.627   5.631
 6188TIP3    H218571   4.861   3.487   5.687
 6189TIP3   OH218572   5.049   4.114   6.134
 6189TIP3    H118573   5.043   4.211   6.133
 6189TIP3    H218574   5.092   4.101   6.221
 6190TIP3   OH218575   4.667   4.011   5.530
 6190TIP3    H118576   4.582   4.017   5.578
 6190TIP3    H218577   4.699   4.104   5.536
 6191TIP3   OH218578   5.410   3.739   6.104
 6191TIP3    H118579   5.457   3.739   6.189
 6191TIP3    H218580   5.471   3.685   6.051
 6192TIP3   OH218581   5.388   3.643   4.992
 6192TIP3    H118582   5.442   3.617   5.070
 6192TIP3    H218583   5.300   3.614   5.022
 6193TIP3   OH218584   5.719   4.111   4.808
 6193TIP3    H118585   5.753   4.186   4.757
 6193TIP3    H218586   5.640   4.152   4.847
 6194TIP3   OH218587   4.732   2.895   6.667
 6194TIP3    H118588   4.635   2.908   6.675
 6194TIP3    H218589   4.751   2.847   6.749
 6195TIP3   OH218590   5.548   3.567   5.200
 6195TIP3    H118591   5.537   3.506   5.275
 6195TIP3    H218592   5.645   3.568   5.192
 6196TIP3   OH218593   4.461   3.977   6.314
 6196TIP3    H118594   4.511   3.909   6.262
 6196TIP3    H218595   4.511   3.973   6.397
 6197TIP3   OH218596   4.750   3.619   4.993
 6197TIP3    H118597   4.761   3.525   4.969
 6197TIP3    H218598   4.731   3.612   5.089
 6198TIP3   OH218599   4.693   3.625   5.263
 6198TIP3    H118600   4.759   3.599   5.329
 6198TIP3    H218601   4.693   3.723   5.273
 6199TIP3   OH218602   4.425   3.316   5.471
 6199TIP3    H118603   4.359   3.361   5.528
 6199TIP3    H218604   4.439   3.385   5.403
 6200TIP3   OH218605   5.465   2.699   5.534
 6200TIP3    H118606   5.450   2.723   5.440
 6200TIP3    H218607   5.508   2.780   5.568
 6201TIP3   OH218608   4.961   3.821   5.209
 6201TIP3    H118609   4.874   3.842   5.248
 6201TIP3    H218610   4.979   3.903   5.161
 6202TIP3   OH218611   5.145   2.883   5.626
 6202TIP3    H118612   5.208   2.956   5.609
 6202TIP3    H218613   5.152   2.875   5.723
 6203TIP3   OH218614   5.423   3.193   6.433
 6203TIP3    H118615   5.417   3.241   6.517
 6203TIP3    H218616   5.488   3.124   6.450
 6204TIP3   OH218617   5.290   2.600   5.728
 6204TIP3    H118618   5.277   2.678   5.786
 6204TIP3    H218619   5.357   2.637   5.665
 6205TIP3   OH218620   4.707   3.896   5.283
 6205TIP3    H118621   4.678   3.968   5.222
 6205TIP3    H218622   4.692   3.939   5.370
 6206TIP3   OH218623   4.810   2.610   5.523
 6206TIP3    H118624   4.800   2.702   5.558
 6206TIP3    H218625   4.906   2.601   5.534
 6207TIP3   OH218626   5.710   3.299   5.802
 6207TIP3    H118627   5.631   3.247   5.821
 6207TIP3    H218628   5.780   3.248   5.849
 6208TIP3   OH218629   4.424   3.519   5.274
 6208TIP3    H118630   4.494   3.587   5.284
 6208TIP3    H218631   4.468   3.462   5.207
 6209TIP3   OH218632   4.364   2.799   5.405
 6209TIP3    H118633   4.371   2.897   5.407
 6209TIP3    H218634   4.281   2.787   5.358
 6210TIP3   OH218635   4.759   2.529   6.267
 6210TIP3    H118636   4.724   2.495   6.182
 6210TIP3    H218637   4.750   2.451   6.325
 6211TIP3   OH218638   4.283   3.732   5.656
 6211TIP3    H118639   4.232   3.770   5.728
 6211TIP3    H218640   4.251   3.783   5.578
 6212TIP3   OH218641   4.910   3.819   4.897
 6212TIP3    H118642   4.854   3.751   4.941
 6212TIP3    H218643   4.988   3.766   4.874
 6213TIP3   OH218644   5.349   3.858   4.818
 6213TIP3    H118645   5.384   3.791   4.881
 6213TIP3    H218646   5.411   3.852   4.744
 6214TIP3   OH218647   4.563   3.333   5.129
 6214TIP3    H118648   4.621   3.308   5.204
 6214TIP3    H218649   4.630   3.340   5.058
 6215TIP3   OH218650   5.081   3.539   4.933
 6215TIP3    H118651   5.078   3.553   5.030
 6215TIP3    H218652   5.077   3.441   4.929
 6216TIP3   OH218653   4.758   3.247   5.342
 6216TIP3    H118654   4.731   3.215   5.431
 6216TIP3    H218655   4.798   3.168   5.302
 6217TIP3   OH218656   4.872   3.037   5.187
 6217TIP3    H118657   4.844   3.050   5.094
 6217TIP3    H218658   4.969   3.046   5.178
 6218TIP3   OH218659   5.686   3.366   4.856
 6218TIP3    H118660   5.665   3.321   4.771
 6218TIP3    H218661   5.654   3.457   4.834
 6219TIP3   OH218662   5.175   2.857   6.487
 6219TIP3    H118663   5.190   2.922   6.416
 6219TIP3    H218664   5.077   2.851   6.487
 6220TIP3   OH218665   5.219   3.450   6.383
 6220TIP3    H118666   5.268   3.428   6.302
 6220TIP3    H218667   5.136   3.489   6.348
 6221TIP3   OH218668   5.334   2.638   6.502
 6221TIP3    H118669   5.281   2.721   6.493
 6221TIP3    H218670   5.261   2.575   6.523
 6222TIP3   OH218671   4.678   4.096   5.093
 6222TIP3    H118672   4.773   4.088   5.074
 6222TIP3    H218673   4.651   4.152   5.017
 6223TIP3   OH218674   4.154   3.483   5.302
 6223TIP3    H118675   4.250   3.503   5.292
 6223TIP3    H218676   4.150   3.394   5.262
 6224TIP3   OH218677   4.073   4.090   5.731
 6224TIP3    H118678   4.007   4.029   5.692
 6224TIP3    H218679   4.118   4.030   5.795
 6225TIP3   OH218680   4.210   3.929   5.911
 6225TIP3    H118681   4.203   3.863   5.981
 6225TIP3    H218682   4.262   3.997   5.959
 6226TIP3   OH218683   5.825   3.551   5.184
 6226TIP3    H118684   5.891   3.617   5.154
 6226TIP3    H218685   5.870   3.513   5.262
 6227TIP3   OH218686   5.954   3.415   5.383
 6227TIP3    H118687   5.887   3.380   5.446
 6227TIP3    H218688   6.018   3.460   5.443
 6228TIP3   OH218689   5.890   3.330   5.034
 6228TIP3    H118690   5.816   3.332   4.969
 6228TIP3    H218691   5.863   3.406   5.090
 6229TIP3   OH218692   5.762   3.005   4.987
 6229TIP3    H118693   5.720   3.035   4.905
 6229TIP3    H218694   5.738   2.909   4.985
 6230TIP3   OH218695   5.764   3.285   5.533
 6230TIP3    H118696   5.766   3.188   5.523
 6230TIP3    H218697   5.749   3.296   5.629
 6231TIP3   OH218698   4.392   3.343   6.285
 6231TIP3    H118699   4.388   3.319   6.191
 6231TIP3    H218700   4.489   3.350   6.298
 6232TIP3   OH218701   5.700   2.743   4.985
 6232TIP3    H118702   5.775   2.701   5.032
 6232TIP3    H218703   5.633   2.674   4.982
 6233TIP3   OH218704   5.758   3.014   5.424
 6233TIP3    H118705   5.788   2.920   5.423
 6233TIP3    H218706   5.816   3.050   5.353
 6234TIP3   OH218707   5.922   3.146   5.903
 6234TIP3    H118708   6.011   3.178   5.880
 6234TIP3    H218709   5.924   3.152   6.001
 6235TIP3   OH218710   5.833   2.754   5.426
 6235TIP3    H118711   5.893   2.723   5.498
 6235TIP3    H218712   5.771   2.679   5.424
 6236TIP3   OH218713   4.572   2.735   6.279
 6236TIP3    H118714   4.636   2.662   6.289
 6236TIP3    H218715   4.632   2.812   6.273
 6237TIP3   OH218716   4.380   3.003   6.361
 6237TIP3    H118717   4.428   3.004   6.275
 6237TIP3    H218718   4.401   3.090   6.396
 6238TIP3   OH218719   5.950   2.673   5.099
 6238TIP3    H118720   5.989   2.604   5.040
 6238TIP3    H218721   6.015   2.746   5.090
 6239TIP3   OH218722   4.356   2.493   5.850
 6239TIP3    H118723   4.267   2.498   5.890
 6239TIP3    H218724   4.350   2.559   5.779
 6240TIP3   OH218725   5.502   4.203   5.350
 6240TIP3    H118726   5.563   4.189   5.277
 6240TIP3    H218727   5.546   4.272   5.403
 6241TIP3   OH218728   4.564   2.559   6.656
 6241TIP3    H118729   4.553   2.594   6.745
 6241TIP3    H218730   4.502   2.616   6.605
 6242TIP3   OH218731   4.828   4.080   6.330
 6242TIP3    H118732   4.772   4.141   6.278
 6242TIP3    H218733   4.860   4.022   6.261
 6243TIP3   OH218734   4.458   4.320   6.268
 6243TIP3    H118735   4.366   4.354   6.268
 6243TIP3    H218736   4.482   4.336   6.361
 6244TIP3   OH218737   4.704   4.263   6.166
 6244TIP3    H118738   4.613   4.278   6.201
 6244TIP3    H218739   4.696   4.310   6.081
 6245TIP3   OH218740   4.380   4.093   6.066
 6245TIP3    H118741   4.412   4.082   6.159
 6245TIP3    H218742   4.455   4.052   6.018
 6246TIP3   OH218743   4.584   3.980   5.917
 6246TIP3    H118744   4.592   3.904   5.979
 6246TIP3    H218745   4.676   4.015   5.920
 6247TIP3   OH218746   4.853   4.073   5.922
 6247TIP3    H118747   4.884   3.981   5.903
 6247TIP3    H218748   4.899   4.087   6.006
 6248TIP3   OH218749   5.418   2.718   6.023
 6248TIP3    H118750   5.360   2.650   6.063
 6248TIP3    H218751   5.479   2.664   5.967
 6249TIP3   OH218752   5.885   2.596   5.834
 6249TIP3    H118753   5.921   2.643   5.754
 6249TIP3    H218754   5.876   2.670   5.899
 6250TIP3   OH218755   6.011   2.669   5.608
 6250TIP3    H118756   6.079   2.605   5.581
 6250TIP3    H218757   6.061   2.753   5.605
 6251TIP3   OH218758   4.665   2.427   6.026
 6251TIP3    H118759   4.573   2.394   6.031
 6251TIP3    H218760   4.714   2.342   6.021
 6252TIP3   OH218761   4.463   2.300   5.679
 6252TIP3    H118762   4.476   2.365   5.608
 6252TIP3    H218763   4.427   2.358   5.749
 6253TIP3   OH218764   5.111   2.459   5.907
 6253TIP3    H118765   5.171   2.508   5.848
 6253TIP3    H218766   5.131   2.500   5.993
 6254TIP3   OH218767   5.601   2.556   5.894
 6254TIP3    H118768   5.652   2.584   5.816
 6254TIP3    H218769   5.671   2.511   5.944
 6255TIP3   OH218770   5.674   2.531   5.446
 6255TIP3    H118771   5.592   2.576   5.476
 6255TIP3    H218772   5.663   2.443   5.486
 6256TIP3   OH218773   4.170   3.876   5.454
 6256TIP3    H118774   4.083   3.846   5.420
 6256TIP3    H218775   4.164   3.970   5.430
 6257TIP3   OH218776   4.572   2.466   5.449
 6257TIP3    H118777   4.631   2.391   5.437
 6257TIP3    H218778   4.633   2.534   5.483
 6258TIP3   OH218779   5.086   2.631   5.542
 6258TIP3    H118780   5.149   2.594   5.606
 6258TIP3    H218781   5.097   2.726   5.563
 6259TIP3   OH218782   4.944   4.052   5.039
 6259TIP3    H118783   5.031   4.076   5.002
 6259TIP3    H218784   4.922   3.975   4.981
 6260TIP3   OH218785   5.679   4.177   5.133
 6260TIP3    H118786   5.669   4.080   5.121
 6260TIP3    H218787   5.631   4.210   5.055
 6261TIP3   OH218788   4.245   3.891   5.096
 6261TIP3    H118789   4.251   3.910   5.190
 6261TIP3    H218790   4.333   3.848   5.078
 6262TIP3   OH218791   6.131   3.201   5.333
 6262TIP3    H118792   6.082   3.281   5.358
 6262TIP3    H218793   6.061   3.151   5.289
 6263TIP3   OH218794   6.189   3.495   5.502
 6263TIP3    H118795   6.229   3.436   5.568
 6263TIP3    H218796   6.252   3.490   5.430
 6264TIP3   OH218797   6.312   3.260   5.611
 6264TIP3    H118798   6.405   3.280   5.635
 6264TIP3    H218799   6.326   3.207   5.531
 6265TIP3   OH218800   6.019   3.714   5.066
 6265TIP3    H118801   5.976   3.739   4.982
 6265TIP3    H218802   6.048   3.803   5.098
 6266TIP3   OH218803   6.458   3.477   5.073
 6266TIP3    H118804   6.370   3.506   5.042
 6266TIP3    H218805   6.438   3.404   5.133
 6267TIP3   OH218806   6.587   3.292   5.301
 6267TIP3    H118807   6.521   3.231   5.340
 6267TIP3    H218808   6.632   3.233   5.239
 6268TIP3   OH218809   6.616   2.872   4.738
 6268TIP3    H118810   6.602   2.876   4.834
 6268TIP3    H218811   6.543   2.928   4.705
 6269TIP3   OH218812   6.158   2.891   5.597
 6269TIP3    H118813   6.237   2.928   5.640
 6269TIP3    H218814   6.190   2.866   5.508
 6270TIP3   OH218815   6.125   2.908   5.112
 6270TIP3    H118816   6.169   2.946   5.032
 6270TIP3    H218817   6.063   2.980   5.133
 6271TIP3   OH218818   6.385   3.120   5.381
 6271TIP3    H118819   6.294   3.148   5.352
 6271TIP3    H218820   6.383   3.026   5.359
 6272TIP3   OH218821   6.660   3.120   5.084
 6272TIP3    H118822   6.743   3.152   5.048
 6272TIP3    H218823   6.597   3.143   5.012
 6273TIP3   OH218824   6.504   3.164   4.866
 6273TIP3    H118825   6.430   3.120   4.821
 6273TIP3    H218826   6.553   3.200   4.790
 6274TIP3   OH218827   6.731   3.710   4.852
 6274TIP3    H118828   6.674   3.634   4.830
 6274TIP3    H218829   6.728   3.706   4.949
 6275TIP3   OH218830   6.114   3.327   4.876
 6275TIP3    H118831   6.159   3.411   4.899
 6275TIP3    H218832   6.036   3.332   4.936
 6276TIP3   OH218833   6.524   3.891   4.484
 6276TIP3    H118834   6.565   3.806   4.459
 6276TIP3    H218835   6.520   3.884   4.582
 6277TIP3   OH218836   6.512   3.888   4.763
 6277TIP3    H118837   6.583   3.830   4.795
 6277TIP3    H218838   6.525   3.964   4.823
 6278TIP3   OH218839   6.223   3.570   4.955
 6278TIP3    H118840   6.153   3.612   5.010
 6278TIP3    H218841   6.234   3.640   4.888
 6279TIP3   OH218842   6.594   2.853   5.020
 6279TIP3    H118843   6.604   2.943   5.057
 6279TIP3    H218844   6.689   2.831   5.004
 6280TIP3   OH218845   6.224   3.777   4.760
 6280TIP3    H118846   6.290   3.847   4.770
 6280TIP3    H218847   6.269   3.721   4.692
 6281TIP3   OH218848   6.164   3.056   4.886
 6281TIP3    H118849   6.158   3.154   4.889
 6281TIP3    H218850   6.084   3.032   4.839
 6282TIP3   OH218851   6.079   3.977   5.120
 6282TIP3    H118852   6.005   4.016   5.168
 6282TIP3    H218853   6.076   4.033   5.040
 6283TIP3   OH218854   6.684   4.097   4.377
 6283TIP3    H118855   6.631   4.028   4.421
 6283TIP3    H218856   6.756   4.045   4.340
 6284TIP3   OH218857   6.364   3.593   4.611
 6284TIP3    H118858   6.417   3.560   4.686
 6284TIP3    H218859   6.433   3.599   4.542
 6285TIP3   OH218860   6.826   3.801   4.417
 6285TIP3    H118861   6.864   3.806   4.507
 6285TIP3    H218862   6.814   3.706   4.407
 6286TIP3   OH218863   6.555   3.504   4.815
 6286TIP3    H118864   6.526   3.481   4.905
 6286TIP3    H218865   6.587   3.418   4.781
 6287TIP3   OH218866   6.655   3.287   4.673
 6287TIP3    H118867   6.620   3.279   4.582
 6287TIP3    H218868   6.750   3.285   4.657
 6288TIP3   OH218869   5.952   3.739   4.788
 6288TIP3    H118870   6.047   3.759   4.778
 6288TIP3    H218871   5.946   3.650   4.747
 6289TIP3   OH218872   1.978   0.638   1.543
 6289TIP3    H118873   1.977   0.550   1.493
 6289TIP3    H218874   2.043   0.619   1.614
 6290TIP3   OH218875   6.178   3.257   5.846
 6290TIP3    H118876   6.203   3.241   5.753
 6290TIP3    H218877   6.211   3.348   5.855
 6291TIP3   OH218878   6.129   2.769   5.340
 6291TIP3    H118879   6.032   2.761   5.346
 6291TIP3    H218880   6.140   2.826   5.261
 6292TIP3   OH218881   6.258   2.565   5.166
 6292TIP3    H118882   6.281   2.621   5.090
 6292TIP3    H218883   6.227   2.629   5.232
 6293TIP3   OH218884   5.968   4.139   4.930
 6293TIP3    H118885   5.879   4.109   4.903
 6293TIP3    H218886   5.966   4.229   4.893
 6294TIP3   OH218887   6.369   2.715   4.929
 6294TIP3    H118888   6.419   2.655   4.869
 6294TIP3    H218889   6.442   2.769   4.967
 6295TIP3   OH218890   6.046   4.147   4.581
 6295TIP3    H118891   6.043   4.173   4.674
 6295TIP3    H218892   6.135   4.106   4.572
 6296TIP3   OH218893   1.391   4.709   6.256
 6296TIP3    H118894   1.434   4.790   6.290
 6296TIP3    H218895   1.299   4.733   6.268
 6297TIP3   OH218896   1.663   4.229   6.301
 6297TIP3    H118897   1.743   4.225   6.359
 6297TIP3    H218898   1.707   4.247   6.215
 6298TIP3   OH218899   1.212   4.970   6.117
 6298TIP3    H118900   1.274   4.937   6.052
 6298TIP3    H218901   1.269   5.014   6.179
 6299TIP3   OH218902   1.867   4.244   6.481
 6299TIP3    H118903   1.912   4.179   6.537
 6299TIP3    H218904   1.931   4.317   6.492
 6300TIP3   OH218905   1.571   5.072   6.057
 6300TIP3    H118906   1.572   5.007   5.985
 6300TIP3    H218907   1.638   5.036   6.117
 6301TIP3   OH218908   2.063   4.766   6.634
 6301TIP3    H118909   2.056   4.835   6.701
 6301TIP3    H218910   2.102   4.817   6.560
 6302TIP3   OH218911   1.580   4.670   6.058
 6302TIP3    H118912   1.522   4.680   6.136
 6302TIP3    H218913   1.663   4.639   6.099
 6303TIP3   OH218914   1.937   3.768   5.938
 6303TIP3    H118915   1.857   3.792   5.989
 6303TIP3    H218916   1.951   3.851   5.886
 6304TIP3   OH218917   1.744   5.133   5.496
 6304TIP3    H118918   1.750   5.228   5.476
 6304TIP3    H218919   1.836   5.104   5.480
 6305TIP3   OH218920   1.260   5.353   5.600
 6305TIP3    H118921   1.306   5.276   5.559
 6305TIP3    H218922   1.315   5.370   5.676
 6306TIP3   OH218923   1.472   4.585   5.633
 6306TIP3    H118924   1.456   4.547   5.545
 6306TIP3    H218925   1.564   4.615   5.623
 6307TIP3   OH218926   1.214   3.955   5.915
 6307TIP3    H118927   1.191   3.957   6.011
 6307TIP3    H218928   1.173   3.869   5.890
 6308TIP3   OH218929   1.358   4.402   6.186
 6308TIP3    H118930   1.373   4.497   6.191
 6308TIP3    H218931   1.422   4.375   6.116
 6309TIP3   OH218932   1.543   4.433   6.443
 6309TIP3    H118933   1.495   4.486   6.378
 6309TIP3    H218934   1.577   4.360   6.387
 6310TIP3   OH218935   0.884   3.925   5.908
 6310TIP3    H118936   0.870   3.915   6.004
 6310TIP3    H218937   0.799   3.963   5.880
 6311TIP3   OH218938   0.922   4.154   6.251
 6311TIP3    H118939   1.007   4.199   6.253
 6311TIP3    H218940   0.872   4.204   6.184
 6312TIP3   OH218941   0.755   4.246   6.044
 6312TIP3    H118942   0.683   4.195   6.084
 6312TIP3    H218943   0.757   4.207   5.955
 6313TIP3   OH218944   1.037   4.691   6.007
 6313TIP3    H118945   0.952   4.638   6.016
 6313TIP3    H218946   1.023   4.750   6.084
 6314TIP3   OH218947   1.462   4.062   5.917
 6314TIP3    H118948   1.367   4.037   5.912
 6314TIP3    H218949   1.459   4.159   5.921
 6315TIP3   OH218950   1.542   4.336   5.988
 6315TIP3    H118951   1.633   4.313   6.017
 6315TIP3    H218952   1.560   4.392   5.912
 6316TIP3   OH218953   1.140   4.884   5.847
 6316TIP3    H118954   1.109   4.975   5.857
 6316TIP3    H218955   1.095   4.840   5.921
 6317TIP3   OH218956   1.965   4.398   5.847
 6317TIP3    H118957   1.903   4.354   5.784
 6317TIP3    H218958   1.966   4.487   5.805
 6318TIP3   OH218959   1.663   5.203   5.751
 6318TIP3    H118960   1.658   5.123   5.803
 6318TIP3    H218961   1.688   5.170   5.663
 6319TIP3   OH218962   1.437   4.945   5.659
 6319TIP3    H118963   1.490   4.912   5.736
 6319TIP3    H218964   1.354   4.895   5.670
 6320TIP3   OH218965   1.760   5.408   5.476
 6320TIP3    H118966   1.785   5.473   5.408
 6320TIP3    H218967   1.679   5.452   5.512
 6321TIP3   OH218968   1.595   4.869   5.873
 6321TIP3    H118969   1.584   4.789   5.930
 6321TIP3    H218970   1.691   4.861   5.853
 6322TIP3   OH218971   0.850   4.882   5.688
 6322TIP3    H118972   0.822   4.794   5.657
 6322TIP3    H218973   0.787   4.903   5.759
 6323TIP3   OH218974   1.525   3.993   6.180
 6323TIP3    H118975   1.500   4.019   6.089
 6323TIP3    H218976   1.547   4.077   6.222
 6324TIP3   OH218977   1.206   4.203   6.317
 6324TIP3    H118978   1.257   4.264   6.260
 6324TIP3    H218979   1.235   4.236   6.404
 6325TIP3   OH218980   0.851   3.899   6.185
 6325TIP3    H118981   0.878   3.988   6.214
 6325TIP3    H218982   0.911   3.843   6.239
 6326TIP3   OH218983   1.765   4.604   6.455
 6326TIP3    H118984   1.692   4.545   6.481
 6326TIP3    H218985   1.840   4.571   6.509
 6327TIP3   OH218986   0.953   5.098   5.550
 6327TIP3    H118987   0.917   5.028   5.608
 6327TIP3    H218988   1.040   5.064   5.526
 6328TIP3   OH218989   1.395   5.155   5.474
 6328TIP3    H118990   1.444   5.095   5.534
 6328TIP3    H218991   1.450   5.154   5.392
 6329TIP3   OH218992   1.148   4.818   5.586
 6329TIP3    H118993   1.133   4.847   5.678
 6329TIP3    H218994   1.074   4.757   5.573
 6330TIP3   OH218995   0.838   4.517   6.020
 6330TIP3    H118996   0.776   4.469   6.076
 6330TIP3    H218997   0.868   4.444   5.962
 6331TIP3   OH218998   0.962   4.365   5.818
 6331TIP3    H118999   0.884   4.357   5.759
 6331TIP3    H219000   1.009   4.287   5.793
 6332TIP3   OH219001   1.722   4.663   5.527
 6332TIP3    H119002   1.709   4.618   5.440
 6332TIP3    H219003   1.694   4.753   5.501
 6333TIP3   OH219004   1.869   4.858   5.849
 6333TIP3    H119005   1.938   4.919   5.814
 6333TIP3    H219006   1.918   4.818   5.925
 6334TIP3   OH219007   1.998   4.727   6.052
 6334TIP3    H119008   1.933   4.683   6.110
 6334TIP3    H219009   2.066   4.759   6.115
 6335TIP3   OH219010   1.934   4.631   5.700
 6335TIP3    H119011   1.861   4.632   5.633
 6335TIP3    H219012   1.908   4.709   5.752
 6336TIP3   OH219013   1.791   4.307   5.660
 6336TIP3    H119014   1.768   4.337   5.571
 6336TIP3    H219015   1.774   4.210   5.651
 6337TIP3   OH219016   1.807   4.581   6.189
 6337TIP3    H119017   1.828   4.487   6.188
 6337TIP3    H219018   1.798   4.599   6.286
 6338TIP3   OH219019   1.748   4.040   5.639
 6338TIP3    H119020   1.823   4.005   5.691
 6338TIP3    H219021   1.676   3.977   5.656
 6339TIP3   OH219022   1.807   4.293   6.069
 6339TIP3    H119023   1.852   4.206   6.083
 6339TIP3    H219024   1.866   4.331   6.001
 6340TIP3   OH219025   1.974   4.493   6.592
 6340TIP3    H119026   2.063   4.488   6.550
 6340TIP3    H219027   1.991   4.570   6.649
 6341TIP3   OH219028   1.914   4.049   6.126
 6341TIP3    H119029   1.961   4.029   6.209
 6341TIP3    H219030   1.853   3.973   6.122
 6342TIP3   OH219031   1.993   3.977   5.765
 6342TIP3    H119032   2.033   3.909   5.706
 6342TIP3    H219033   2.059   4.049   5.762
 6343TIP3   OH219034   2.066   3.984   6.346
 6343TIP3    H119035   2.145   3.938   6.308
 6343TIP3    H219036   2.100   4.077   6.342
 6344TIP3   OH219037   1.741   3.835   6.118
 6344TIP3    H119038   1.658   3.881   6.141
 6344TIP3    H219039   1.725   3.747   6.159
 6345TIP3   OH219040   0.620   3.755   6.140
 6345TIP3    H119041   0.651   3.689   6.076
 6345TIP3    H219042   0.704   3.801   6.159
 6346TIP3   OH219043   1.169   3.957   6.185
 6346TIP3    H119044   1.127   3.899   6.248
 6346TIP3    H219045   1.189   4.038   6.238
 6347TIP3   OH219046   1.695   5.465   5.813
 6347TIP3    H119047   1.688   5.369   5.793
 6347TIP3    H219048   1.659   5.503   5.730
 6348TIP3   OH219049   3.199   4.995   5.750
 6348TIP3    H119050   3.167   5.085   5.726
 6348TIP3    H219051   3.128   4.942   5.710
 6349TIP3   OH219052   3.185   5.002   6.139
 6349TIP3    H119053   3.227   4.971   6.222
 6349TIP3    H219054   3.156   4.919   6.099
 6350TIP3   OH219055   2.507   4.899   6.486
 6350TIP3    H119056   2.534   4.838   6.557
 6350TIP3    H219057   2.591   4.912   6.440
 6351TIP3   OH219058   3.446   5.276   5.802
 6351TIP3    H119059   3.433   5.220   5.880
 6351TIP3    H219060   3.466   5.363   5.844
 6352TIP3   OH219061   2.499   5.313   6.225
 6352TIP3    H119062   2.479   5.216   6.224
 6352TIP3    H219063   2.588   5.310   6.183
 6353TIP3   OH219064   2.174   4.498   6.003
 6353TIP3    H119065   2.129   4.583   6.017
 6353TIP3    H219066   2.104   4.449   5.956
 6354TIP3   OH219067   2.237   4.791   6.178
 6354TIP3    H119068   2.289   4.715   6.214
 6354TIP3    H219069   2.289   4.815   6.100
 6355TIP3   OH219070   3.097   5.754   5.832
 6355TIP3    H119071   3.129   5.682   5.774
 6355TIP3    H219072   3.134   5.728   5.917
 6356TIP3   OH219073   3.002   5.218   6.182
 6356TIP3    H119074   3.046   5.140   6.141
 6356TIP3    H219075   3.083   5.267   6.207
 6357TIP3   OH219076   3.996   4.519   6.154
 6357TIP3    H119077   4.020   4.595   6.212
 6357TIP3    H219078   4.039   4.544   6.071
 6358TIP3   OH219079   3.403   4.726   6.208
 6358TIP3    H119080   3.448   4.642   6.230
 6358TIP3    H219081   3.374   4.707   6.116
 6359TIP3   OH219082   2.749   4.381   6.177
 6359TIP3    H119083   2.733   4.453   6.113
 6359TIP3    H219084   2.703   4.307   6.131
 6360TIP3   OH219085   3.446   4.474   5.797
 6360TIP3    H119086   3.518   4.462   5.863
 6360TIP3    H219087   3.498   4.508   5.722
 6361TIP3   OH219088   2.390   4.590   6.280
 6361TIP3    H119089   2.470   4.563   6.329
 6361TIP3    H219090   2.399   4.533   6.200
 6362TIP3   OH219091   2.818   4.779   6.092
 6362TIP3    H119092   2.913   4.756   6.098
 6362TIP3    H219093   2.781   4.696   6.053
 6363TIP3   OH219094   4.039   4.708   6.343
 6363TIP3    H119095   3.966   4.770   6.323
 6363TIP3    H219096   4.039   4.709   6.439
 6364TIP3   OH219097   2.738   4.361   6.615
 6364TIP3    H119098   2.683   4.404   6.546
 6364TIP3    H219099   2.672   4.331   6.678
 6365TIP3   OH219100   3.076   5.209   5.623
 6365TIP3    H119101   3.051   5.201   5.530
 6365TIP3    H219102   3.034   5.294   5.647
 6366TIP3   OH219103   2.855   5.141   6.397
 6366TIP3    H119104   2.783   5.205   6.405
 6366TIP3    H219105   2.906   5.177   6.321
 6367TIP3   OH219106   3.647   4.482   5.978
 6367TIP3    H119107   3.645   4.435   6.062
 6367TIP3    H219108   3.704   4.558   6.000
 6368TIP3   OH219109   2.620   4.479   6.396
 6368TIP3    H119110   2.685   4.552   6.411
 6368TIP3    H219111   2.663   4.436   6.318
 6369TIP3   OH219112   2.063   5.023   5.738
 6369TIP3    H119113   2.034   5.048   5.648
 6369TIP3    H219114   2.094   5.109   5.774
 6370TIP3   OH219115   3.489   5.510   5.930
 6370TIP3    H119116   3.415   5.519   5.993
 6370TIP3    H219117   3.506   5.604   5.908
 6371TIP3   OH219118   3.793   4.422   6.327
 6371TIP3    H119119   3.717   4.474   6.300
 6371TIP3    H219120   3.864   4.455   6.267
 6372TIP3   OH219121   3.097   4.080   6.320
 6372TIP3    H119122   3.087   3.985   6.339
 6372TIP3    H219123   3.020   4.116   6.368
 6373TIP3   OH219124   3.204   5.589   5.636
 6373TIP3    H119125   3.255   5.506   5.621
 6373TIP3    H219126   3.271   5.654   5.605
 6374TIP3   OH219127   3.346   5.369   5.564
 6374TIP3    H119128   3.334   5.289   5.512
 6374TIP3    H219129   3.387   5.332   5.646
 6375TIP3   OH219130   3.034   4.849   5.584
 6375TIP3    H119131   2.953   4.900   5.561
 6375TIP3    H219132   3.078   4.842   5.497
 6376TIP3   OH219133   2.990   4.639   5.293
 6376TIP3    H119134   3.060   4.691   5.337
 6376TIP3    H219135   3.044   4.572   5.248
 6377TIP3   OH219136   3.954   5.087   6.164
 6377TIP3    H119137   3.869   5.136   6.170
 6377TIP3    H219138   3.985   5.119   6.076
 6378TIP3   OH219139   3.378   4.933   5.552
 6378TIP3    H119140   3.325   4.958   5.631
 6378TIP3    H219141   3.462   4.907   5.594
 6379TIP3   OH219142   3.608   4.945   6.444
 6379TIP3    H119143   3.625   5.027   6.494
 6379TIP3    H219144   3.519   4.962   6.407
 6380TIP3   OH219145   2.612   4.929   5.974
 6380TIP3    H119146   2.560   4.871   5.914
 6380TIP3    H219147   2.685   4.871   6.001
 6381TIP3   OH219148   2.750   5.328   6.113
 6381TIP3    H119149   2.732   5.304   6.021
 6381TIP3    H219150   2.840   5.291   6.126
 6382TIP3   OH219151   2.739   4.899   6.328
 6382TIP3    H119152   2.769   4.870   6.239
 6382TIP3    H219153   2.792   4.980   6.342
 6383TIP3   OH219154   3.266   5.528   6.095
 6383TIP3    H119155   3.257   5.612   6.141
 6383TIP3    H219156   3.255   5.461   6.165
 6384TIP3   OH219157   3.218   4.789   5.380
 6384TIP3    H119158   3.278   4.850   5.430
 6384TIP3    H219159   3.244   4.809   5.287
 6385TIP3   OH219160   2.959   5.464   5.662
 6385TIP3    H119161   3.044   5.512   5.661
 6385TIP3    H219162   2.903   5.522   5.608
 6386TIP3   OH219163   3.733   4.025   5.429
 6386TIP3    H119164   3.652   4.049   5.479
 6386TIP3    H219165   3.748   4.107   5.377
 6387TIP3   OH219166   2.459   4.774   5.805
 6387TIP3    H119167   2.400   4.814   5.737
 6387TIP3    H219168   2.464   4.683   5.774
 6388TIP3   OH219169   3.537   5.395   4.979
 6388TIP3    H119170   3.545   5.491   4.962
 6388TIP3    H219171   3.629   5.365   4.964
 6389TIP3   OH219172   2.847   5.707   5.457
 6389TIP3    H119173   2.801   5.685   5.374
 6389TIP3    H219174   2.811   5.794   5.480
 6390TIP3   OH219175   2.298   5.541   5.825
 6390TIP3    H119176   2.328   5.544   5.917
 6390TIP3    H219177   2.217   5.489   5.831
 6391TIP3   OH219178   3.044   5.613   5.096
 6391TIP3    H119179   3.101   5.542   5.059
 6391TIP3    H219180   3.082   5.624   5.185
 6392TIP3   OH219181   3.100   5.665   5.365
 6392TIP3    H119182   3.011   5.672   5.406
 6392TIP3    H219183   3.151   5.624   5.437
 6393TIP3   OH219184   2.864   4.159   6.453
 6393TIP3    H119185   2.774   4.129   6.426
 6393TIP3    H219186   2.843   4.249   6.484
 6394TIP3   OH219187   3.379   4.283   6.670
 6394TIP3    H119188   3.430   4.258   6.749
 6394TIP3    H219189   3.290   4.252   6.697
 6395TIP3   OH219190   3.594   4.705   6.589
 6395TIP3    H119191   3.666   4.726   6.649
 6395TIP3    H219192   3.599   4.779   6.526
 6396TIP3   OH219193   3.297   4.825   5.125
 6396TIP3    H119194   3.259   4.808   5.037
 6396TIP3    H219195   3.382   4.868   5.099
 6397TIP3   OH219196   3.007   4.204   5.428
 6397TIP3    H119197   2.971   4.203   5.518
 6397TIP3    H219198   2.965   4.123   5.392
 6398TIP3   OH219199   2.800   4.673   6.464
 6398TIP3    H119200   2.751   4.695   6.546
 6398TIP3    H219201   2.786   4.755   6.412
 6399TIP3   OH219202   2.678   4.563   5.989
 6399TIP3    H119203   2.585   4.538   6.005
 6399TIP3    H219204   2.692   4.523   5.900
 6400TIP3   OH219205   3.166   4.646   5.719
 6400TIP3    H119206   3.117   4.718   5.673
 6400TIP3    H219207   3.222   4.612   5.647
 6401TIP3   OH219208   3.320   4.672   5.952
 6401TIP3    H119209   3.258   4.695   5.879
 6401TIP3    H219210   3.360   4.593   5.910
 6402TIP3   OH219211   2.627   4.711   6.673
 6402TIP3    H119212   2.655   4.730   6.764
 6402TIP3    H219213   2.564   4.639   6.687
 6403TIP3   OH219214   2.660   4.180   5.394
 6403TIP3    H119215   2.649   4.182   5.492
 6403TIP3    H219216   2.587   4.238   5.367
 6404TIP3   OH219217   2.194   4.212   6.269
 6404TIP3    H119218   2.267   4.249   6.324
 6404TIP3    H219219   2.239   4.191   6.187
 6405TIP3   OH219220   2.165   4.204   5.784
 6405TIP3    H119221   2.207   4.241   5.704
 6405TIP3    H219222   2.104   4.278   5.804
 6406TIP3   OH219223   3.321   4.924   6.372
 6406TIP3    H119224   3.359   4.854   6.312
 6406TIP3    H219225   3.297   4.867   6.448
 6407TIP3   OH219226   3.012   4.382   6.047
 6407TIP3    H119227   2.934   4.381   6.106
 6407TIP3    H219228   3.086   4.370   6.110
 6408TIP3   OH219229   2.439   4.442   6.054
 6408TIP3    H119230   2.345   4.447   6.024
 6408TIP3    H219231   2.464   4.350   6.030
 6409TIP3   OH219232   2.702   4.438   5.748
 6409TIP3    H119233   2.795   4.453   5.725
 6409TIP3    H219234   2.655   4.457   5.663
 6410TIP3   OH219235   3.487   4.468   6.254
 6410TIP3    H119236   3.454   4.474   6.346
 6410TIP3    H219237   3.427   4.401   6.216
 6411TIP3   OH219238   2.556   4.456   5.520
 6411TIP3    H119239   2.486   4.420   5.462
 6411TIP3    H219240   2.612   4.501   5.452
 6412TIP3   OH219241   3.087   4.713   6.144
 6412TIP3    H119242   3.159   4.676   6.089
 6412TIP3    H219243   3.098   4.663   6.227
 6413TIP3   OH219244   2.605   4.200   6.028
 6413TIP3    H119245   2.571   4.121   6.075
 6413TIP3    H219246   2.643   4.161   5.948
 6414TIP3   OH219247   3.064   4.601   6.436
 6414TIP3    H119248   2.975   4.640   6.447
 6414TIP3    H219249   3.122   4.666   6.480
 6415TIP3   OH219250   2.799   4.997   5.529
 6415TIP3    H119251   2.721   4.944   5.510
 6415TIP3    H219252   2.778   5.033   5.619
 6416TIP3   OH219253   3.708   5.205   6.166
 6416TIP3    H119254   3.726   5.290   6.122
 6416TIP3    H219255   3.616   5.188   6.139
 6417TIP3   OH219256   3.258   4.306   5.405
 6417TIP3    H119257   3.161   4.287   5.410
 6417TIP3    H219258   3.264   4.401   5.425
 6418TIP3   OH219259   3.324   4.560   5.502
 6418TIP3    H119260   3.421   4.566   5.515
 6418TIP3    H219261   3.305   4.639   5.449
 6419TIP3   OH219262   2.499   5.042   6.199
 6419TIP3    H119263   2.536   5.006   6.116
 6419TIP3    H219264   2.515   4.969   6.261
 6420TIP3   OH219265   2.951   5.150   5.359
 6420TIP3    H119266   2.900   5.234   5.363
 6420TIP3    H219267   2.896   5.093   5.417
 6421TIP3   OH219268   3.763   4.654   5.332
 6421TIP3    H119269   3.702   4.609   5.269
 6421TIP3    H219270   3.760   4.743   5.292
 6422TIP3   OH219271   3.462   5.467   5.240
 6422TIP3    H119272   3.446   5.392   5.298
 6422TIP3    H219273   3.483   5.425   5.155
 6423TIP3   OH219274   3.449   5.102   6.077
 6423TIP3    H119275   3.358   5.069   6.081
 6423TIP3    H219276   3.494   5.026   6.034
 6424TIP3   OH219277   2.601   5.342   5.851
 6424TIP3    H119278   2.601   5.413   5.783
 6424TIP3    H219279   2.511   5.308   5.841
 6425TIP3   OH219280   2.160   4.627   5.537
 6425TIP3    H119281   2.210   4.709   5.556
 6425TIP3    H219282   2.085   4.636   5.599
 6426TIP3   OH219283   2.719   5.092   5.772
 6426TIP3    H119284   2.694   5.182   5.797
 6426TIP3    H219285   2.685   5.040   5.847
 6427TIP3   OH219286   2.527   5.567   5.683
 6427TIP3    H119287   2.437   5.566   5.722
 6427TIP3    H219288   2.546   5.663   5.680
 6428TIP3   OH219289   3.254   5.301   6.266
 6428TIP3    H119290   3.291   5.289   6.354
 6428TIP3    H219291   3.318   5.254   6.211
 6429TIP3   OH219292   3.230   5.201   5.145
 6429TIP3    H119293   3.282   5.178   5.225
 6429TIP3    H219294   3.142   5.166   5.168
 6430TIP3   OH219295   3.563   5.674   4.958
 6430TIP3    H119296   3.605   5.751   4.917
 6430TIP3    H219297   3.480   5.717   4.989
 6431TIP3   OH219298   3.390   5.138   5.364
 6431TIP3    H119299   3.379   5.067   5.430
 6431TIP3    H219300   3.486   5.131   5.347
 6432TIP3   OH219301   2.583   5.174   5.156
 6432TIP3    H119302   2.574   5.086   5.116
 6432TIP3    H219303   2.550   5.152   5.244
 6433TIP3   OH219304   2.519   5.194   5.440
 6433TIP3    H119305   2.609   5.164   5.457
 6433TIP3    H219306   2.531   5.291   5.433
 6434TIP3   OH219307   2.269   4.869   5.620
 6434TIP3    H119308   2.203   4.922   5.668
 6434TIP3    H219309   2.290   4.928   5.545
 6435TIP3   OH219310   3.411   4.515   6.518
 6435TIP3    H119311   3.490   4.564   6.549
 6435TIP3    H219312   3.410   4.435   6.573
 6436TIP3   OH219313   3.305   4.257   5.682
 6436TIP3    H119314   3.291   4.279   5.587
 6436TIP3    H219315   3.347   4.339   5.716
 6437TIP3   OH219316   2.805   5.377   5.367
 6437TIP3    H119317   2.717   5.406   5.400
 6437TIP3    H219318   2.818   5.441   5.295
 6438TIP3   OH219319   2.986   4.444   5.778
 6438TIP3    H119320   3.050   4.516   5.759
 6438TIP3    H219321   2.995   4.435   5.875
 6439TIP3   OH219322   3.260   4.747   6.569
 6439TIP3    H119323   3.269   4.768   6.663
 6439TIP3    H219324   3.316   4.667   6.559
 6440TIP3   OH219325   3.132   4.158   5.875
 6440TIP3    H119326   3.127   4.235   5.934
 6440TIP3    H219327   3.196   4.192   5.808
 6441TIP3   OH219328   2.554   5.463   5.429
 6441TIP3    H119329   2.521   5.534   5.369
 6441TIP3    H219330   2.540   5.504   5.517
 6442TIP3   OH219331   2.645   4.169   5.674
 6442TIP3    H119332   2.640   4.261   5.704
 6442TIP3    H219333   2.742   4.156   5.678
 6443TIP3   OH219334   3.548   4.858   5.956
 6443TIP3    H119335   3.474   4.795   5.965
 6443TIP3    H219336   3.621   4.812   6.002
 6444TIP3   OH219337   2.271   5.072   5.421
 6444TIP3    H119338   2.347   5.132   5.435
 6444TIP3    H219339   2.314   5.013   5.354
 6445TIP3   OH219340   2.199   4.355   5.561
 6445TIP3    H119341   2.210   4.452   5.559
 6445TIP3    H219342   2.136   4.342   5.490
 6446TIP3   OH219343   3.536   5.776   5.867
 6446TIP3    H119344   3.480   5.835   5.813
 6446TIP3    H219345   3.599   5.840   5.901
 6447TIP3   OH219346   2.602   4.073   6.427
 6447TIP3    H119347   2.570   4.048   6.338
 6447TIP3    H219348   2.576   3.995   6.479
 6448TIP3   OH219349   2.119   5.288   5.811
 6448TIP3    H119350   2.033   5.319   5.843
 6448TIP3    H219351   2.119   5.330   5.722
 6449TIP3   OH219352   2.751   5.373   5.058
 6449TIP3    H119353   2.697   5.301   5.098
 6449TIP3    H219354   2.826   5.322   5.023
 6450TIP3   OH219355   3.188   5.417   4.968
 6450TIP3    H119356   3.227   5.352   5.030
 6450TIP3    H219357   3.248   5.412   4.892
 6451TIP3   OH219358   2.925   5.100   5.087
 6451TIP3    H119359   2.919   5.110   5.184
 6451TIP3    H219360   2.926   5.002   5.078
 6452TIP3   OH219361   2.712   4.573   5.331
 6452TIP3    H119362   2.668   4.644   5.283
 6452TIP3    H219363   2.807   4.593   5.317
 6453TIP3   OH219364   3.527   4.924   5.006
 6453TIP3    H119365   3.508   4.880   4.921
 6453TIP3    H219366   3.496   5.015   4.984
 6454TIP3   OH219367   3.003   4.427   6.657
 6454TIP3    H119368   3.035   4.476   6.579
 6454TIP3    H219369   2.908   4.416   6.636
 6455TIP3   OH219370   3.041   4.982   6.531
 6455TIP3    H119371   3.116   4.985   6.471
 6455TIP3    H219372   2.976   5.042   6.489
 6456TIP3   OH219373   3.128   4.195   6.733
 6456TIP3    H119374   3.083   4.280   6.714
 6456TIP3    H219375   3.065   4.130   6.698
 6457TIP3   OH219376   2.523   5.671   5.249
 6457TIP3    H119377   2.616   5.652   5.226
 6457TIP3    H219378   2.495   5.714   5.166
 6458TIP3   OH219379   2.003   5.038   5.459
 6458TIP3    H119380   2.098   5.058   5.441
 6458TIP3    H219381   1.994   4.950   5.416
 6459TIP3   OH219382   3.665   5.110   5.335
 6459TIP3    H119383   3.733   5.173   5.301
 6459TIP3    H219384   3.712   5.073   5.413
 6460TIP3   OH219385   3.794   4.978   5.539
 6460TIP3    H119386   3.727   4.937   5.598
 6460TIP3    H219387   3.859   5.014   5.603
 6461TIP3   OH219388   3.849   5.371   5.977
 6461TIP3    H119389   3.893   5.304   5.920
 6461TIP3    H219390   3.780   5.406   5.920
 6462TIP3   OH219391   3.730   4.888   5.185
 6462TIP3    H119392   3.658   4.890   5.118
 6462TIP3    H219393   3.705   4.965   5.240
 6463TIP3   OH219394   3.601   4.558   5.137
 6463TIP3    H119395   3.555   4.593   5.060
 6463TIP3    H219396   3.581   4.463   5.129
 6464TIP3   OH219397   3.604   4.838   5.684
 6464TIP3    H119398   3.614   4.742   5.677
 6464TIP3    H219399   3.591   4.851   5.780
 6465TIP3   OH219400   2.214   4.895   6.439
 6465TIP3    H119401   2.222   4.873   6.344
 6465TIP3    H219402   2.307   4.916   6.461
 6466TIP3   OH219403   3.546   4.292   5.118
 6466TIP3    H119404   3.618   4.259   5.177
 6466TIP3    H219405   3.471   4.235   5.141
 6467TIP3   OH219406   3.605   4.555   5.575
 6467TIP3    H119407   3.647   4.467   5.589
 6467TIP3    H219408   3.662   4.589   5.503
 6468TIP3   OH219409   3.760   4.725   6.071
 6468TIP3    H119410   3.847   4.746   6.029
 6468TIP3    H219411   3.777   4.763   6.160
 6469TIP3   OH219412   3.832   4.875   6.297
 6469TIP3    H119413   3.750   4.908   6.342
 6469TIP3    H219414   3.863   4.955   6.249
 6470TIP3   OH219415   3.712   4.305   5.616
 6470TIP3    H119416   3.761   4.287   5.700
 6470TIP3    H219417   3.652   4.228   5.614
 6471TIP3   OH219418   2.417   4.280   6.412
 6471TIP3    H119419   2.482   4.210   6.430
 6471TIP3    H219420   2.472   4.360   6.419
 6472TIP3   OH219421   2.221   4.552   6.501
 6472TIP3    H119422   2.273   4.567   6.420
 6472TIP3    H219423   2.204   4.642   6.534
 6473TIP3   OH219424   3.787   4.233   5.253
 6473TIP3    H119425   3.829   4.165   5.196
 6473TIP3    H219426   3.853   4.305   5.250
 6474TIP3   OH219427   2.202   4.058   6.008
 6474TIP3    H119428   2.110   4.056   6.039
 6474TIP3    H219429   2.195   4.119   5.931
 6475TIP3   OH219430   3.357   5.780   5.518
 6475TIP3    H119431   3.401   5.757   5.434
 6475TIP3    H219432   3.426   5.834   5.560
 6476TIP3   OH219433   4.049   4.356   6.521
 6476TIP3    H119434   3.955   4.340   6.507
 6476TIP3    H219435   4.085   4.265   6.524
 6477TIP3   OH219436   3.264   5.841   6.090
 6477TIP3    H119437   3.189   5.836   6.153
 6477TIP3    H219438   3.271   5.937   6.075
 6478TIP3   OH219439   2.422   5.528   6.069
 6478TIP3    H119440   2.428   5.446   6.123
 6478TIP3    H219441   2.514   5.539   6.041
 6479TIP3   OH219442   2.702   5.610   6.061
 6479TIP3    H119443   2.728   5.536   6.004
 6479TIP3    H219444   2.744   5.582   6.144
 6480TIP3   OH219445   3.253   4.276   6.162
 6480TIP3    H119446   3.217   4.200   6.212
 6480TIP3    H219447   3.331   4.236   6.117
 6481TIP3   OH219448   3.776   4.151   6.064
 6481TIP3    H119449   3.817   4.205   5.994
 6481TIP3    H219450   3.685   4.185   6.066
 6482TIP3   OH219451   3.876   4.257   5.832
 6482TIP3    H119452   3.951   4.203   5.799
 6482TIP3    H219453   3.914   4.348   5.820
 6483TIP3   OH219454   2.509   3.988   6.182
 6483TIP3    H119455   2.415   3.959   6.179
 6483TIP3    H219456   2.555   3.901   6.177
 6484TIP3   OH219457   2.307   3.857   5.833
 6484TIP3    H119458   2.333   3.913   5.758
 6484TIP3    H219459   2.274   3.923   5.897
 6485TIP3   OH219460   2.960   4.016   6.065
 6485TIP3    H119461   3.010   4.062   5.996
 6485TIP3    H219462   2.998   4.053   6.146
 6486TIP3   OH219463   3.485   4.167   6.049
 6486TIP3    H119464   3.502   4.127   5.963
 6486TIP3    H219465   3.479   4.086   6.106
 6487TIP3   OH219466   3.530   4.092   5.609
 6487TIP3    H119467   3.445   4.136   5.628
 6487TIP3    H219468   3.516   4.006   5.653
 6488TIP3   OH219469   2.009   5.432   5.606
 6488TIP3    H119470   1.922   5.403   5.574
 6488TIP3    H219471   2.008   5.524   5.572
 6489TIP3   OH219472   2.417   4.011   5.597
 6489TIP3    H119473   2.464   3.951   5.535
 6489TIP3    H219474   2.490   4.067   5.629
 6490TIP3   OH219475   2.921   4.194   5.692
 6490TIP3    H119476   2.985   4.150   5.751
 6490TIP3    H219477   2.940   4.288   5.715
 6491TIP3   OH219478   2.784   5.610   5.191
 6491TIP3    H119479   2.873   5.632   5.154
 6491TIP3    H219480   2.761   5.535   5.131
 6492TIP3   OH219481   3.494   5.732   5.284
 6492TIP3    H119482   3.489   5.634   5.271
 6492TIP3    H219483   3.453   5.763   5.201
 6493TIP3   OH219484   2.091   5.450   5.243
 6493TIP3    H119485   2.095   5.464   5.338
 6493TIP3    H219486   2.177   5.405   5.225
 6494TIP3   OH219487   3.970   4.757   5.486
 6494TIP3    H119488   3.921   4.839   5.505
 6494TIP3    H219489   3.900   4.706   5.442
 6495TIP3   OH219490   4.028   5.046   5.672
 6495TIP3    H119491   4.079   4.967   5.702
 6495TIP3    H219492   4.083   5.079   5.600
 6496TIP3   OH219493   4.541   4.641   5.673
 6496TIP3    H119494   4.523   4.709   5.605
 6496TIP3    H219495   4.493   4.565   5.633
 6497TIP3   OH219496   5.240   4.693   5.293
 6497TIP3    H119497   5.251   4.724   5.384
 6497TIP3    H219498   5.271   4.767   5.239
 6498TIP3   OH219499   4.179   4.842   5.769
 6498TIP3    H119500   4.261   4.820   5.818
 6498TIP3    H219501   4.192   4.785   5.690
 6499TIP3   OH219502   4.593   5.046   5.543
 6499TIP3    H119503   4.688   5.032   5.553
 6499TIP3    H219504   4.561   4.955   5.522
 6500TIP3   OH219505   4.544   4.609   6.087
 6500TIP3    H119506   4.475   4.664   6.045
 6500TIP3    H219507   4.534   4.627   6.181
 6501TIP3   OH219508   4.410   4.756   5.888
 6501TIP3    H119509   4.465   4.832   5.916
 6501TIP3    H219510   4.467   4.714   5.820
 6502TIP3   OH219511   3.859   5.272   5.222
 6502TIP3    H119512   3.824   5.306   5.138
 6502TIP3    H219513   3.888   5.356   5.265
 6503TIP3   OH219514   4.874   4.328   5.794
 6503TIP3    H119515   4.874   4.236   5.829
 6503TIP3    H219516   4.800   4.366   5.846
 6504TIP3   OH219517   4.829   5.098   5.062
 6504TIP3    H119518   4.747   5.151   5.064
 6504TIP3    H219519   4.850   5.101   4.968
 6505TIP3   OH219520   4.780   4.890   4.777
 6505TIP3    H119521   4.845   4.930   4.837
 6505TIP3    H219522   4.839   4.829   4.727
 6506TIP3   OH219523   4.386   5.192   5.450
 6506TIP3    H119524   4.353   5.134   5.379
 6506TIP3    H219525   4.468   5.144   5.477
 6507TIP3   OH219526   5.016   5.038   4.857
 6507TIP3    H119527   5.055   5.107   4.915
 6507TIP3    H219528   5.042   5.070   4.767
 6508TIP3   OH219529   5.530   4.277   4.922
 6508TIP3    H119530   5.447   4.297   4.971
 6508TIP3    H219531   5.537   4.356   4.864
 6509TIP3   OH219532   4.274   5.028   5.253
 6509TIP3    H119533   4.201   5.070   5.203
 6509TIP3    H219534   4.239   4.939   5.268
 6510TIP3   OH219535   4.028   5.811   5.302
 6510TIP3    H119536   4.120   5.827   5.331
 6510TIP3    H219537   4.001   5.745   5.367
 6511TIP3   OH219538   4.796   5.801   4.588
 6511TIP3    H119539   4.862   5.745   4.541
 6511TIP3    H219540   4.782   5.750   4.669
 6512TIP3   OH219541   4.658   4.415   5.938
 6512TIP3    H119542   4.569   4.385   5.912
 6512TIP3    H219543   4.631   4.494   5.991
 6513TIP3   OH219544   5.092   5.104   4.607
 6513TIP3    H119545   5.053   5.073   4.523
 6513TIP3    H219546   5.181   5.130   4.578
 6514TIP3   OH219547   4.803   4.460   4.914
 6514TIP3    H119548   4.770   4.460   5.006
 6514TIP3    H219549   4.761   4.379   4.882
 6515TIP3   OH219550   4.469   4.810   5.474
 6515TIP3    H119551   4.377   4.783   5.493
 6515TIP3    H219552   4.482   4.768   5.386
 6516TIP3   OH219553   4.948   4.885   5.187
 6516TIP3    H119554   4.904   4.965   5.150
 6516TIP3    H219555   5.008   4.859   5.116
 6517TIP3   OH219556   4.461   4.440   4.878
 6517TIP3    H119557   4.451   4.438   4.976
 6517TIP3    H219558   4.383   4.492   4.853
 6518TIP3   OH219559   4.006   4.480   5.752
 6518TIP3    H119560   4.080   4.514   5.807
 6518TIP3    H219561   4.050   4.450   5.671
 6519TIP3   OH219562   3.961   4.460   5.267
 6519TIP3    H119563   4.007   4.498   5.189
 6519TIP3    H219564   3.901   4.535   5.288
 6520TIP3   OH219565   4.782   4.677   5.534
 6520TIP3    H119566   4.711   4.653   5.597
 6520TIP3    H219567   4.855   4.621   5.564
 6521TIP3   OH219568   4.231   4.695   5.543
 6521TIP3    H119569   4.137   4.699   5.513
 6521TIP3    H219570   4.258   4.603   5.521
 6522TIP3   OH219571   4.493   4.685   5.234
 6522TIP3    H119572   4.589   4.703   5.219
 6522TIP3    H219573   4.451   4.713   5.149
 6523TIP3   OH219574   4.350   4.727   5.005
 6523TIP3    H119575   4.280   4.681   4.955
 6523TIP3    H219576   4.403   4.766   4.933
 6524TIP3   OH219577   4.396   4.456   5.522
 6524TIP3    H119578   4.363   4.377   5.570
 6524TIP3    H219579   4.449   4.414   5.452
 6525TIP3   OH219580   4.606   5.249   5.019
 6525TIP3    H119581   4.525   5.197   5.003
 6525TIP3    H219582   4.586   5.290   5.106
 6526TIP3   OH219583   5.046   4.569   4.863
 6526TIP3    H119584   4.953   4.544   4.886
 6526TIP3    H219585   5.055   4.658   4.902
 6527TIP3   OH219586   5.113   4.808   4.977
 6527TIP3    H119587   5.209   4.811   4.999
 6527TIP3    H219588   5.099   4.892   4.929
 6528TIP3   OH219589   4.299   5.261   5.699
 6528TIP3    H119590   4.319   5.252   5.603
 6528TIP3    H219591   4.343   5.185   5.736
 6529TIP3   OH219592   4.746   5.397   4.829
 6529TIP3    H119593   4.708   5.488   4.840
 6529TIP3    H219594   4.698   5.349   4.899
 6530TIP3   OH219595   5.563   4.879   4.751
 6530TIP3    H119596   5.484   4.845   4.703
 6530TIP3    H219597   5.566   4.969   4.711
 6531TIP3   OH219598   3.956   4.886   5.027
 6531TIP3    H119599   4.001   4.971   5.047
 6531TIP3    H219600   3.879   4.891   5.087
 6532TIP3   OH219601   4.547   5.349   5.271
 6532TIP3    H119602   4.511   5.429   5.226
 6532TIP3    H219603   4.474   5.321   5.329
 6533TIP3   OH219604   5.005   5.455   4.620
 6533TIP3    H119605   5.040   5.442   4.709
 6533TIP3    H219606   4.917   5.416   4.629
 6534TIP3   OH219607   4.391   5.424   4.623
 6534TIP3    H119608   4.399   5.329   4.603
 6534TIP3    H219609   4.369   5.420   4.719
 6535TIP3   OH219610   4.317   5.427   4.883
 6535TIP3    H119611   4.383   5.431   4.956
 6535TIP3    H219612   4.298   5.523   4.880
 6536TIP3   OH219613   4.063   5.129   5.106
 6536TIP3    H119614   3.995   5.174   5.161
 6536TIP3    H219615   4.078   5.198   5.038
 6537TIP3   OH219616   5.102   4.502   5.158
 6537TIP3    H119617   5.084   4.541   5.072
 6537TIP3    H219618   5.146   4.577   5.206
 6538TIP3   OH219619   4.637   5.652   4.834
 6538TIP3    H119620   4.592   5.631   4.920
 6538TIP3    H219621   4.582   5.722   4.804
 6539TIP3   OH219622   4.769   4.698   5.262
 6539TIP3    H119623   4.837   4.766   5.240
 6539TIP3    H219624   4.775   4.698   5.360
 6540TIP3   OH219625   4.929   4.407   5.354
 6540TIP3    H119626   4.958   4.458   5.433
 6540TIP3    H219627   4.990   4.445   5.286
 6541TIP3   OH219628   4.273   5.696   4.874
 6541TIP3    H119629   4.272   5.790   4.850
 6541TIP3    H219630   4.325   5.695   4.957
 6542TIP3   OH219631   4.442   4.423   5.153
 6542TIP3    H119632   4.437   4.512   5.192
 6542TIP3    H219633   4.539   4.407   5.163
 6543TIP3   OH219634   4.058   5.334   4.911
 6543TIP3    H119635   4.126   5.402   4.926
 6543TIP3    H219636   4.107   5.279   4.845
 6544TIP3   OH219637   4.000   4.614   5.044
 6544TIP3    H119638   4.005   4.712   5.043
 6544TIP3    H219639   3.920   4.598   4.994
 6545TIP3   OH219640   4.392   4.334   5.912
 6545TIP3    H119641   4.362   4.295   5.828
 6545TIP3    H219642   4.384   4.258   5.974
 6546TIP3   OH219643   3.916   5.524   5.304
 6546TIP3    H119644   3.847   5.576   5.348
 6546TIP3    H219645   3.933   5.580   5.226
 6547TIP3   OH219646   4.529   5.633   4.528
 6547TIP3    H119647   4.471   5.563   4.567
 6547TIP3    H219648   4.613   5.585   4.526
 6548TIP3   OH219649   4.996   5.682   4.463
 6548TIP3    H119650   5.031   5.607   4.516
 6548TIP3    H219651   5.036   5.666   4.374
 6549TIP3   OH219652   4.200   5.146   4.766
 6549TIP3    H119653   4.257   5.124   4.842
 6549TIP3    H219654   4.268   5.154   4.696
 6550TIP3   OH219655   4.723   5.352   4.564
 6550TIP3    H119656   4.712   5.362   4.662
 6550TIP3    H219657   4.718   5.254   4.558
 6551TIP3   OH219658   4.396   5.063   4.977
 6551TIP3    H119659   4.373   5.027   5.065
 6551TIP3    H219660   4.435   4.985   4.932
 6552TIP3   OH219661   4.506   4.855   4.821
 6552TIP3    H119662   4.480   4.865   4.728
 6552TIP3    H219663   4.604   4.859   4.813
 6553TIP3   OH219664   5.332   5.183   4.500
 6553TIP3    H119665   5.317   5.139   4.413
 6553TIP3    H219666   5.307   5.276   4.476
 6554TIP3   OH219667   4.298   5.950   4.747
 6554TIP3    H119668   4.393   5.926   4.733
 6554TIP3    H219669   4.278   5.983   4.657
 6555TIP3   OH219670   3.791   5.296   4.938
 6555TIP3    H119671   3.887   5.318   4.929
 6555TIP3    H219672   3.788   5.207   4.898
 6556TIP3   OH219673   3.697   5.903   5.347
 6556TIP3    H119674   3.629   5.838   5.317
 6556TIP3    H219675   3.751   5.846   5.405
 6557TIP3   OH219676   3.837   5.748   5.528
 6557TIP3    H119677   3.893   5.692   5.581
 6557TIP3    H219678   3.850   5.836   5.570
 6558TIP3   OH219679   5.500   5.151   4.706
 6558TIP3    H119680   5.431   5.152   4.636
 6558TIP3    H219681   5.570   5.202   4.663
 6559TIP3   OH219682   5.353   4.814   4.594
 6559TIP3    H119683   5.308   4.829   4.509
 6559TIP3    H219684   5.344   4.716   4.600
 6560TIP3   OH219685   4.048   5.171   5.917
 6560TIP3    H119686   4.032   5.126   5.830
 6560TIP3    H219687   4.136   5.209   5.901
 6561TIP3   OH219688   5.336   4.543   4.598
 6561TIP3    H119689   5.406   4.512   4.659
 6561TIP3    H219690   5.260   4.487   4.620
 6562TIP3   OH219691   5.378   4.785   5.060
 6562TIP3    H119692   5.421   4.698   5.067
 6562TIP3    H219693   5.452   4.846   5.052
 6563TIP3   OH219694   5.519   4.542   5.125
 6563TIP3    H119695   5.576   4.493   5.186
 6563TIP3    H219696   5.444   4.479   5.115
 6564TIP3   OH219697   4.214   4.548   5.922
 6564TIP3    H119698   4.274   4.472   5.932
 6564TIP3    H219699   4.278   4.621   5.916
 6565TIP3   OH219700   4.003   4.818   5.988
 6565TIP3    H119701   4.058   4.810   5.908
 6565TIP3    H219702   4.033   4.902   6.024
 6566TIP3   OH219703   5.570   4.477   4.736
 6566TIP3    H119704   5.610   4.409   4.679
 6566TIP3    H219705   5.638   4.547   4.734
 6567TIP3   OH219706   3.995   4.317   5.495
 6567TIP3    H119707   3.903   4.315   5.527
 6567TIP3    H219708   3.988   4.377   5.418
 6568TIP3   OH219709   4.208   4.418   6.306
 6568TIP3    H119710   4.159   4.407   6.391
 6568TIP3    H219711   4.134   4.435   6.245
 6569TIP3   OH219712   4.989   4.515   5.604
 6569TIP3    H119713   4.974   4.452   5.678
 6569TIP3    H219714   5.084   4.498   5.584
 6570TIP3   OH219715   4.303   4.239   5.665
 6570TIP3    H119716   4.211   4.204   5.671
 6570TIP3    H219717   4.353   4.154   5.662
 6571TIP3   OH219718   4.091   4.115   5.317
 6571TIP3    H119719   4.123   4.172   5.245
 6571TIP3    H219720   4.065   4.180   5.384
 6572TIP3   OH219721   4.748   4.276   5.548
 6572TIP3    H119722   4.804   4.324   5.485
 6572TIP3    H219723   4.788   4.299   5.633
 6573TIP3   OH219724   5.234   4.425   5.518
 6573TIP3    H119725   5.284   4.422   5.436
 6573TIP3    H219726   5.293   4.374   5.577
 6574TIP3   OH219727   5.325   4.347   5.096
 6574TIP3    H119728   5.239   4.392   5.113
 6574TIP3    H219729   5.307   4.261   5.139
 6575TIP3   OH219730   3.809   5.672   5.088
 6575TIP3    H119731   3.718   5.660   5.054
 6575TIP3    H219732   3.814   5.768   5.096
 6576TIP3   OH219733   4.213   4.272   5.078
 6576TIP3    H119734   4.261   4.209   5.022
 6576TIP3    H219735   4.287   4.326   5.114
 6577TIP3   OH219736   4.718   4.446   5.177
 6577TIP3    H119737   4.780   4.404   5.239
 6577TIP3    H219738   4.732   4.540   5.202
 6578TIP3   OH219739   4.543   5.872   4.661
 6578TIP3    H119740   4.637   5.879   4.635
 6578TIP3    H219741   4.518   5.794   4.607
 6579TIP3   OH219742   3.882   5.707   4.739
 6579TIP3    H119743   3.891   5.713   4.835
 6579TIP3    H219744   3.969   5.667   4.713
 6580TIP3   OH219745   6.281   4.713   4.399
 6580TIP3    H119746   6.269   4.677   4.488
 6580TIP3    H219747   6.205   4.774   4.393
 6581TIP3   OH219748   5.753   4.683   4.753
 6581TIP3    H119749   5.800   4.704   4.670
 6581TIP3    H219750   5.692   4.760   4.755
 6582TIP3   OH219751   5.776   4.812   4.514
 6582TIP3    H119752   5.782   4.909   4.528
 6582TIP3    H219753   5.693   4.804   4.466
 6583TIP3   OH219754   5.762   4.540   4.979
 6583TIP3    H119755   5.670   4.539   5.010
 6583TIP3    H219756   5.757   4.599   4.901
 6584TIP3   OH219757   5.883   4.362   4.791
 6584TIP3    H119758   5.907   4.423   4.720
 6584TIP3    H219759   5.855   4.423   4.862
 6585TIP3   OH219760   5.975   4.527   4.571
 6585TIP3    H119761   6.045   4.478   4.524
 6585TIP3    H219762   6.022   4.599   4.617
 6586TIP3   OH219763   1.555   5.562   5.594
 6586TIP3    H119764   1.462   5.569   5.621
 6586TIP3    H219765   1.581   5.656   5.602
 6587TIP3   OH219766   1.391   5.837   5.250
 6587TIP3    H119767   1.457   5.799   5.310
 6587TIP3    H219768   1.308   5.795   5.280
 6588TIP3   OH219769   1.657   5.790   5.365
 6588TIP3    H119770   1.679   5.710   5.312
 6588TIP3    H219771   1.669   5.863   5.304
 6589TIP3   OH219772   3.073   6.258   5.425
 6589TIP3    H119773   3.140   6.242   5.495
 6589TIP3    H219774   3.116   6.328   5.375
 6590TIP3   OH219775   3.283   6.254   5.596
 6590TIP3    H119776   3.290   6.236   5.690
 6590TIP3    H219777   3.344   6.330   5.585
 6591TIP3   OH219778   2.716   5.876   5.956
 6591TIP3    H119779   2.727   5.780   5.970
 6591TIP3    H219780   2.643   5.898   6.014
 6592TIP3   OH219781   2.638   6.448   4.946
 6592TIP3    H119782   2.710   6.505   4.979
 6592TIP3    H219783   2.690   6.386   4.890
 6593TIP3   OH219784   2.995   6.763   5.203
 6593TIP3    H119785   2.999   6.801   5.292
 6593TIP3    H219786   3.078   6.709   5.210
 6594TIP3   OH219787   2.851   6.602   5.024
 6594TIP3    H119788   2.893   6.672   5.077
 6594TIP3    H219789   2.885   6.625   4.934
 6595TIP3   OH219790   3.368   5.841   5.064
 6595TIP3    H119791   3.288   5.865   5.115
 6595TIP3    H219792   3.383   5.923   5.012
 6596TIP3   OH219793   2.951   6.653   4.781
 6596TIP3    H119794   2.908   6.626   4.697
 6596TIP3    H219795   3.040   6.673   4.747
 6597TIP3   OH219796   2.642   6.024   5.066
 6597TIP3    H119797   2.607   6.019   5.157
 6597TIP3    H219798   2.606   5.941   5.029
 6598TIP3   OH219799   2.775   6.457   5.312
 6598TIP3    H119800   2.736   6.522   5.250
 6598TIP3    H219801   2.842   6.415   5.254
 6599TIP3   OH219802   2.312   5.996   5.025
 6599TIP3    H119803   2.293   5.996   5.122
 6599TIP3    H219804   2.227   6.028   4.989
 6600TIP3   OH219805   2.385   6.311   5.334
 6600TIP3    H119806   2.470   6.299   5.383
 6600TIP3    H219807   2.341   6.227   5.353
 6601TIP3   OH219808   2.192   6.261   5.134
 6601TIP3    H119809   2.131   6.188   5.152
 6601TIP3    H219810   2.194   6.250   5.037
 6602TIP3   OH219811   2.282   5.939   5.575
 6602TIP3    H119812   2.251   5.878   5.645
 6602TIP3    H219813   2.367   5.966   5.612
 6603TIP3   OH219814   2.895   6.119   5.038
 6603TIP3    H119815   2.798   6.103   5.045
 6603TIP3    H219816   2.903   6.214   5.059
 6604TIP3   OH219817   2.966   6.371   5.135
 6604TIP3    H119818   3.062   6.373   5.154
 6604TIP3    H219819   2.954   6.451   5.079
 6605TIP3   OH219820   3.395   6.455   4.976
 6605TIP3    H119821   3.334   6.412   4.912
 6605TIP3    H219822   3.400   6.542   4.930
 6606TIP3   OH219823   3.046   6.946   4.989
 6606TIP3    H119824   3.019   6.881   5.058
 6606TIP3    H219825   3.134   6.914   4.965
 6607TIP3   OH219826   2.925   6.064   5.313
 6607TIP3    H119827   2.922   6.086   5.218
 6607TIP3    H219828   2.979   6.138   5.349
 6608TIP3   OH219829   2.633   6.259   5.437
 6608TIP3    H119830   2.686   6.327   5.389
 6608TIP3    H219831   2.691   6.240   5.512
 6609TIP3   OH219832   2.779   5.983   5.531
 6609TIP3    H119833   2.834   6.018   5.603
 6609TIP3    H219834   2.830   6.013   5.452
 6610TIP3   OH219835   2.275   5.979   5.304
 6610TIP3    H119836   2.259   5.968   5.396
 6610TIP3    H219837   2.375   5.972   5.305
 6611TIP3   OH219838   1.837   6.184   5.231
 6611TIP3    H119839   1.795   6.257   5.183
 6611TIP3    H219840   1.767   6.117   5.225
 6612TIP3   OH219841   2.374   6.427   4.990
 6612TIP3    H119842   2.336   6.423   4.900
 6612TIP3    H219843   2.470   6.431   4.967
 6613TIP3   OH219844   3.178   6.707   4.639
 6613TIP3    H119845   3.153   6.666   4.553
 6613TIP3    H219846   3.182   6.800   4.611
 6614TIP3   OH219847   3.315   6.911   4.933
 6614TIP3    H119848   3.375   6.975   4.878
 6614TIP3    H219849   3.332   6.939   5.018
 6615TIP3   OH219850   3.380   6.675   4.820
 6615TIP3    H119851   3.306   6.669   4.755
 6615TIP3    H219852   3.356   6.761   4.863
 6616TIP3   OH219853   3.230   6.376   4.772
 6616TIP3    H119854   3.194   6.401   4.687
 6616TIP3    H219855   3.212   6.279   4.771
 6617TIP3   OH219856   3.232   6.648   5.270
 6617TIP3    H119857   3.256   6.554   5.265
 6617TIP3    H219858   3.304   6.690   5.316
 6618TIP3   OH219859   3.182   6.110   4.762
 6618TIP3    H119860   3.258   6.075   4.813
 6618TIP3    H219861   3.111   6.046   4.779
 6619TIP3   OH219862   3.246   6.369   5.206
 6619TIP3    H119863   3.282   6.280   5.228
 6619TIP3    H219864   3.302   6.392   5.130
 6620TIP3   OH219865   3.349   6.117   5.256
 6620TIP3    H119866   3.395   6.097   5.341
 6620TIP3    H219867   3.286   6.042   5.253
 6621TIP3   OH219868   3.426   6.049   4.888
 6621TIP3    H119869   3.467   5.977   4.835
 6621TIP3    H219870   3.496   6.117   4.885
 6622TIP3   OH219871   2.938   6.061   5.785
 6622TIP3    H119872   2.945   5.977   5.833
 6622TIP3    H219873   3.020   6.064   5.739
 6623TIP3   OH219874   3.430   5.987   5.722
 6623TIP3    H119875   3.465   6.028   5.640
 6623TIP3    H219876   3.334   5.991   5.704
 6624TIP3   OH219877   3.518   6.066   5.474
 6624TIP3    H119878   3.587   6.010   5.432
 6624TIP3    H219879   3.558   6.154   5.461
 6625TIP3   OH219880   1.948   5.665   5.457
 6625TIP3    H119881   1.978   5.714   5.379
 6625TIP3    H219882   1.885   5.727   5.497
 6626TIP3   OH219883   2.585   5.844   5.686
 6626TIP3    H119884   2.650   5.889   5.630
 6626TIP3    H219885   2.614   5.872   5.774
 6627TIP3   OH219886   3.160   5.958   5.663
 6627TIP3    H119887   3.185   5.912   5.581
 6627TIP3    H219888   3.140   5.882   5.723
 6628TIP3   OH219889   3.166   5.906   5.246
 6628TIP3    H119890   3.077   5.943   5.260
 6628TIP3    H219891   3.156   5.819   5.289
 6629TIP3   OH219892   2.050   5.819   5.231
 6629TIP3    H119893   2.097   5.755   5.174
 6629TIP3    H219894   2.124   5.875   5.261
 6630TIP3   OH219895   2.552   6.010   5.331
 6630TIP3    H119896   2.601   5.945   5.383
 6630TIP3    H219897   2.588   6.094   5.368
 6631TIP3   OH219898   3.617   6.569   5.123
 6631TIP3    H119899   3.587   6.634   5.187
 6631TIP3    H219900   3.535   6.532   5.088
 6632TIP3   OH219901   4.423   6.298   4.517
 6632TIP3    H119902   4.419   6.322   4.611
 6632TIP3    H219903   4.382   6.209   4.515
 6633TIP3   OH219904   4.085   6.249   4.507
 6633TIP3    H119905   4.076   6.245   4.604
 6633TIP3    H219906   4.017   6.313   4.484
 6634TIP3   OH219907   3.657   6.287   5.401
 6634TIP3    H119908   3.750   6.311   5.400
 6634TIP3    H219909   3.646   6.253   5.310
 6635TIP3   OH219910   3.604   6.272   4.906
 6635TIP3    H119911   3.643   6.308   4.824
 6635TIP3    H219912   3.546   6.346   4.931
 6636TIP3   OH219913   3.954   6.494   4.638
 6636TIP3    H119914   3.870   6.465   4.598
 6636TIP3    H219915   3.998   6.533   4.559
 6637TIP3   OH219916   3.599   6.693   4.664
 6637TIP3    H119917   3.630   6.783   4.677
 6637TIP3    H219918   3.523   6.690   4.726
 6638TIP3   OH219919   4.071   6.227   4.783
 6638TIP3    H119920   4.086   6.318   4.811
 6638TIP3    H219921   4.142   6.178   4.827
 6639TIP3   OH219922   3.636   6.420   4.679
 6639TIP3    H119923   3.641   6.518   4.683
 6639TIP3    H219924   3.555   6.406   4.629
 6640TIP3   OH219925   3.825   6.897   4.401
 6640TIP3    H119926   3.867   6.934   4.480
 6640TIP3    H219927   3.902   6.898   4.338
 6641TIP3   OH219928   4.087   6.609   4.437
 6641TIP3    H119929   4.080   6.619   4.340
 6641TIP3    H219930   4.143   6.683   4.463
 6642TIP3   OH219931   3.617   6.168   5.157
 6642TIP3    H119932   3.525   6.137   5.163
 6642TIP3    H219933   3.620   6.204   5.066
 6643TIP3   OH219934   3.911   6.054   5.249
 6643TIP3    H119935   3.824   6.019   5.274
 6643TIP3    H219936   3.964   5.971   5.254
 6644TIP3   OH219937   3.711   5.932   4.944
 6644TIP3    H119938   3.754   5.982   4.872
 6644TIP3    H219939   3.716   5.994   5.018
 6645TIP3   OH219940   3.845   6.080   4.713
 6645TIP3    H119941   3.892   6.015   4.657
 6645TIP3    H219942   3.920   6.136   4.744
   6.50000   6.12826   5.30723   0.00000   0.00000  -2.16667   0.00000  -2.16667  -3.06413
