Title
  201
    1GLY      N    1   2.320   7.678   2.597  0.2978  0.0629  0.1184
    1GLY    HT1    2   2.316   7.584   2.552 -1.0029 -0.7990  1.9424
    1GLY    HT2    3   2.233   7.732   2.580  0.4380  0.7319  1.4119
    1GLY    HT3    4   2.319   7.659   2.699 -2.0127  0.9799  0.3147
    1GLY     CA    5   2.440   7.760   2.560 -0.3934  0.5201  0.0675
    1GLY    HA1    6   2.432   7.853   2.616 -1.2399  0.6506 -0.2499
    1GLY    HA2    7   2.434   7.786   2.456 -0.5944  0.7905  0.1435
    1GLY      C    8   2.574   7.702   2.602  0.3787  0.1142 -0.2247
    1GLY      O    9   2.572   7.586   2.642 -0.2891 -0.0235 -0.0870
    2PRO      N   10   2.682   7.783   2.601 -0.4047 -0.0326  0.3314
    2PRO     CD   11   2.694   7.903   2.522 -0.6665 -0.7574  0.3426
    2PRO    HD1   12   2.611   7.974   2.543  0.1056  0.6551 -1.1721
    2PRO    HD2   13   2.689   7.872   2.416 -0.2806  1.6316 -0.4382
    2PRO     CA   14   2.814   7.730   2.632 -0.9197 -0.0723  0.2930
    2PRO     HA   15   2.840   7.637   2.584 -0.4719  1.0428 -1.7102
    2PRO     CB   16   2.905   7.836   2.575  0.2544 -0.0844  0.4299
    2PRO    HB1   17   2.935   7.804   2.473  0.8421 -1.9110  1.1244
    2PRO    HB2   18   2.993   7.864   2.637  0.6298  1.2739 -0.6614
    2PRO     CG   19   2.825   7.968   2.568 -0.0980  0.6583 -0.4281
    2PRO    HG1   20   2.821   8.019   2.666  1.4686  2.0933 -1.0684
    2PRO    HG2   21   2.861   8.039   2.490 -0.6057  0.3874 -0.9174
    2PRO      C   22   2.838   7.728   2.784 -0.1001 -0.5017 -0.8738
    2PRO      O   23   2.934   7.671   2.829 -0.4378  0.1342 -0.0326
    3GLY      N   24   2.755   7.793   2.865  0.0603  0.5544 -1.2484
    3GLY     HN   25   2.673   7.842   2.835 -0.2529  0.7704 -0.1083
    3GLY     CA   26   2.796   7.823   3.004  0.0708  0.0653 -0.5240
    3GLY    HA1   27   2.836   7.731   3.044 -0.4784 -0.2170 -0.6152
    3GLY    HA2   28   2.710   7.855   3.061  0.8628  0.5692  0.4219
    3GLY      C   29   2.897   7.928   3.029 -0.6037  0.1857  0.5546
    3GLY      O   30   2.945   7.987   2.930 -0.0920 -0.6274 -0.1761
    4ASP      N   31   2.944   7.948   3.152  0.0280 -0.3278 -0.3293
    4ASP     HN   32   2.909   7.900   3.232 -0.8547  2.1822  0.9352
    4ASP     CA   33   3.064   8.025   3.191 -0.2940 -0.3402  0.3616
    4ASP     HA   34   3.059   8.128   3.159 -1.7111 -0.6429 -0.4788
    4ASP     CB   35   3.090   8.012   3.348 -0.0310 -0.0755  0.2868
    4ASP    HB1   36   3.174   8.081   3.369  0.3460 -0.2237 -0.6538
    4ASP    HB2   37   3.122   7.909   3.375  1.5585  1.3110  4.3449
    4ASP     CG   38   2.968   8.058   3.429  0.4088  0.5061 -0.8602
    4ASP    OD1   39   2.952   8.020   3.549 -0.4643 -0.4317 -0.2230
    4ASP    OD2   40   2.894   8.144   3.371 -0.4253 -0.5252 -0.1267
    4ASP      C   41   3.188   7.970   3.126 -0.1163 -0.4970 -0.1788
    4ASP      O   42   3.192   7.849   3.100  0.1841 -0.2419  0.2840
    5PRO      N   43   3.290   8.053   3.107 -0.5292  0.2671  1.0925
    5PRO     CD   44   3.286   8.198   3.100 -0.4574  0.4785  0.0395
    5PRO    HD1   45   3.273   8.241   3.202 -1.6295  0.0830  0.0823
    5PRO    HD2   46   3.207   8.236   3.033 -0.9642  1.2124  1.0256
    5PRO     CA   47   3.419   7.995   3.072 -0.0928 -0.4298  0.1583
    5PRO     HA   48   3.412   7.961   2.970  0.3192 -2.4356  0.7619
    5PRO     CB   49   3.513   8.117   3.096  0.1993 -0.3423  0.0159
    5PRO    HB1   50   3.606   8.130   3.036  1.0581  0.7225  1.5050
    5PRO    HB2   51   3.545   8.125   3.202  0.5260  2.3992 -0.2242
    5PRO     CG   52   3.422   8.235   3.056 -0.3679 -0.1083 -0.3060
    5PRO    HG1   53   3.456   8.326   3.109 -0.0131 -0.0502 -0.6269
    5PRO    HG2   54   3.412   8.247   2.946 -0.4533 -0.9168 -0.3953
    5PRO      C   55   3.476   7.873   3.140 -0.9406  0.0342 -0.7438
    5PRO      O   56   3.435   7.851   3.251 -0.2620  0.1336 -0.2704
    6GLY      N   57   3.565   7.786   3.081 -0.4538 -0.5821 -0.5625
    6GLY     HN   58   3.594   7.794   2.986 -2.7888 -1.1794 -1.4084
    6GLY     CA   59   3.614   7.668   3.147 -0.1843  0.0283  0.4253
    6GLY    HA1   60   3.695   7.629   3.087 -0.9328  1.5457 -1.6994
    6GLY    HA2   61   3.536   7.594   3.156 -0.0432 -0.2069 -0.2226
    6GLY      C   62   3.676   7.676   3.286 -0.0185 -0.1843  0.0455
    6GLY      O   63   3.733   7.776   3.326  0.0765  0.1273  0.6624
    7SER      N   64   3.672   7.568   3.367 -0.6104 -0.0619 -0.3218
    7SER     HN   65   3.617   7.493   3.331 -2.1199  2.0274 -2.6636
    7SER     CA   66   3.738   7.558   3.499  0.5801  0.7392  0.3092
    7SER     HA   67   3.800   7.643   3.523 -0.6007  1.1311  2.2390
    7SER     CB   68   3.635   7.535   3.609  0.1623  0.0670 -0.3083
    7SER    HB1   69   3.674   7.496   3.705 -0.9928  0.3698  0.2937
    7SER    HB2   70   3.556   7.470   3.567 -0.6050  1.3733 -0.9539
    7SER     OG   71   3.572   7.656   3.653 -0.1310  0.3622 -0.1761
    7SER    HG1   72   3.508   7.683   3.586  0.4390  0.8692 -0.5351
    7SER      C   73   3.824   7.437   3.510 -0.8303  0.3004  0.3221
    7SER      O   74   3.829   7.341   3.426  0.2589 -0.2805 -0.3448
    8GLY      N   75   3.908   7.438   3.614 -0.1420 -0.2870 -0.1962
    8GLY     HN   76   3.920   7.521   3.668  2.6981 -1.6845  1.5956
    8GLY     CA   77   4.005   7.339   3.660 -0.8072  0.9635  0.2141
    8GLY    HA1   78   4.083   7.387   3.717 -1.5340  0.9237  1.2832
    8GLY    HA2   79   4.036   7.282   3.574 -1.0531 -0.1869  0.8649
    8GLY      C   80   3.950   7.228   3.749 -0.3483 -0.3539 -0.2129
    8GLY      O   81   3.834   7.208   3.748  0.6158 -0.6330 -0.3157
    9PRO      N   82   4.038   7.157   3.820 -0.3037 -0.4772 -0.5690
    9PRO     CD   83   4.186   7.154   3.795  0.0245  0.1020 -0.2603
    9PRO    HD1   84   4.236   7.238   3.848  0.9360 -0.0199 -0.9058
    9PRO    HD2   85   4.212   7.169   3.688 -1.6050 -3.1328 -1.2324
    9PRO     CA   86   3.991   7.053   3.908  0.2435  0.2491  0.1961
    9PRO     HA   87   3.928   6.991   3.845 -1.4359  1.7117  0.3642
    9PRO     CB   88   4.124   6.992   3.952 -0.0952 -0.1889  0.2394
    9PRO    HB1   89   4.112   6.883   3.971 -1.5889  0.1873  1.7916
    9PRO    HB2   90   4.160   7.044   4.043 -1.3632  1.1511  0.0217
    9PRO     CG   91   4.228   7.019   3.843 -0.3876 -0.6055  0.1292
    9PRO    HG1   92   4.327   7.017   3.894 -0.4617 -0.4149  0.2795
    9PRO    HG2   93   4.230   6.953   3.754 -2.0309 -0.4274 -0.0628
    9PRO      C   94   3.908   7.095   4.028  0.1845 -0.6124  0.3439
    9PRO      O   95   3.911   7.213   4.058 -0.9344  0.0162 -0.5535
   10GLY      N   96   3.831   7.002   4.089 -0.5473  0.0763 -0.4921
   10GLY     HN   97   3.857   6.906   4.079  0.0299 -0.2017  2.7652
   10GLY     CA   98   3.754   7.030   4.213  0.5218 -0.2473  0.5993
   10GLY    HA1   99   3.724   6.929   4.236  0.8641 -0.4893 -0.0090
   10GLY    HA2  100   3.685   7.107   4.183  0.3210 -1.1405 -1.3902
   10GLY      C  101   3.834   7.065   4.332 -0.1915  0.2472  0.1378
   10GLY      O  102   3.950   7.101   4.327  0.0052 -0.4099 -0.2210
   11ASP      N  103   3.761   7.051   4.447  0.2193  0.2411  0.5792
   11ASP     HN  104   3.664   7.034   4.433  0.3540 -0.7809  0.8377
   11ASP     CA  105   3.810   7.077   4.583 -0.6244  0.0222 -0.3170
   11ASP     HA  106   3.886   7.151   4.562 -0.2086 -1.1193 -3.2263
   11ASP     CB  107   3.696   7.130   4.675  0.0696  0.1115 -0.1060
   11ASP    HB1  108   3.738   7.155   4.775  0.9252 -1.0222 -0.1629
   11ASP    HB2  109   3.617   7.052   4.687 -0.3928  0.7627  1.2781
   11ASP     CG  110   3.627   7.251   4.613  0.1303  0.9539 -0.3459
   11ASP    OD1  111   3.513   7.284   4.653  0.1034 -0.2871  0.0003
   11ASP    OD2  112   3.692   7.328   4.538  0.1009 -0.0026  0.9168
   11ASP      C  113   3.869   6.952   4.649  0.4095 -0.4966  0.1401
   11ASP      O  114   3.814   6.847   4.626  0.5149  0.3108 -0.3969
   12PRO      N  115   3.973   6.951   4.730 -0.5066  0.7154 -0.6875
   12PRO     CD  116   4.056   7.073   4.745  0.0931 -0.0883 -0.0182
   12PRO    HD1  117   3.992   7.159   4.775 -0.8685 -1.2516  1.4011
   12PRO    HD2  118   4.109   7.082   4.648  2.8587 -1.6998  1.2162
   12PRO     CA  119   3.994   6.850   4.840 -0.5019 -0.0936 -0.2668
   12PRO     HA  120   4.049   6.770   4.793 -0.6026 -0.1577 -0.2760
   12PRO     CB  121   4.090   6.931   4.931  0.0285 -0.3451 -0.2701
   12PRO    HB1  122   4.171   6.862   4.962  1.1411  1.6227  1.4109
   12PRO    HB2  123   4.045   6.985   5.016  2.2644 -1.8606  2.0097
   12PRO     CG  124   4.156   7.039   4.847 -0.1078  0.4459 -0.3153
   12PRO    HG1  125   4.193   7.133   4.895  1.9223 -1.9068  3.1510
   12PRO    HG2  126   4.238   6.985   4.795  0.9836  1.2920  0.4687
   12PRO      C  127   3.872   6.793   4.908 -0.6278 -0.0215  0.2611
   12PRO      O  128   3.776   6.865   4.934  0.1669  0.3486  0.0066
   13GLY      N  129   3.880   6.661   4.940 -0.5828 -0.1003  0.0226
   13GLY     HN  130   3.966   6.621   4.910  1.4396  2.5630  1.8201
   13GLY     CA  131   3.789   6.582   5.022  0.2239  0.0977  0.2297
   13GLY    HA1  132   3.772   6.639   5.112  0.7249 -1.1329  1.1309
   13GLY    HA2  133   3.825   6.480   5.033  0.6550  0.1569 -0.6110
   13GLY      C  134   3.648   6.572   4.958  0.7438  0.0239  0.6129
   13GLY      O  135   3.621   6.614   4.844 -0.1336 -0.2060  0.4086
   14SER      N  136   3.555   6.523   5.040  0.0362 -0.0167 -0.8356
   14SER     HN  137   3.593   6.475   5.118 -1.2958 -2.2614 -1.4501
   14SER     CA  138   3.407   6.515   5.029  0.0616  0.0405 -0.0414
   14SER     HA  139   3.373   6.520   5.131  1.0190 -0.3332  0.3034
   14SER     CB  140   3.334   6.623   4.941  0.4373  0.1241 -0.6073
   14SER    HB1  141   3.370   6.622   4.836  0.9132 -0.0260 -0.4414
   14SER    HB2  142   3.361   6.720   4.988 -0.7379 -0.2979  1.0517
   14SER     OG  143   3.191   6.612   4.947  0.0814 -0.0859 -0.0087
   14SER    HG1  144   3.156   6.577   4.865  0.0891  2.3186 -1.1090
   14SER      C  145   3.365   6.371   4.987 -0.3026  0.3744 -0.6784
   14SER      O  146   3.448   6.285   4.946 -0.0946 -0.1098 -0.0529
   15GLY      N  147   3.238   6.331   5.014  0.3708  0.0623 -0.1197
   15GLY     HN  148   3.175   6.398   5.054  0.1170 -0.3896  0.2416
   15GLY     CA  149   3.182   6.199   4.982 -0.3848 -0.0475  0.1963
   15GLY    HA1  150   3.176   6.185   4.875 -1.3955 -1.9754  0.4663
   15GLY    HA2  151   3.081   6.196   5.019  0.1055 -2.7074  1.6194
   15GLY      C  152   3.240   6.069   5.046 -0.6395 -0.2182 -0.7902
   15GLY      O  153   3.320   6.087   5.141  0.1025 -0.4008  0.2032
   16PRO      N  154   3.208   5.950   5.000 -0.1140  0.4975 -0.1349
   16PRO     CD  155   3.090   5.922   4.914 -0.0801 -0.5310 -0.2230
   16PRO    HD1  156   3.119   5.928   4.808  1.5799 -0.5448  0.2117
   16PRO    HD2  157   2.997   5.982   4.929 -0.9668 -1.9242  0.0951
   16PRO     CA  158   3.264   5.813   5.032  0.4225 -0.4540  0.2661
   16PRO     HA  159   3.243   5.801   5.137 -1.7562 -0.2052 -0.0867
   16PRO     CB  160   3.180   5.715   4.943 -0.0632  0.3175  0.1094
   16PRO    HB1  161   3.182   5.611   4.981 -2.1610  0.8474  1.8851
   16PRO    HB2  162   3.227   5.715   4.842  3.0145 -2.6154  1.3568
   16PRO     CG  163   3.043   5.779   4.940 -0.4844 -0.6998 -1.0672
   16PRO    HG1  164   2.979   5.740   4.858 -1.0128 -3.8060  0.7018
   16PRO    HG2  165   2.984   5.779   5.035 -0.7021  4.6653 -0.8710
   16PRO      C  166   3.411   5.792   5.033  0.2483  0.1736 -0.4076
   16PRO      O  167   3.482   5.841   4.944 -0.2639 -0.7188 -0.0894
   17GLY      N  168   3.463   5.719   5.133 -0.1417  0.0499 -0.0285
   17GLY     HN  169   3.398   5.697   5.205 -2.1940 -1.7845 -2.2794
   17GLY     CA  170   3.595   5.648   5.140  0.0346  0.0387 -0.7111
   17GLY    HA1  171   3.594   5.598   5.236  1.5755  0.9103 -0.2038
   17GLY    HA2  172   3.678   5.715   5.127 -0.1509 -0.0571 -2.7969
   17GLY      C  173   3.613   5.550   5.034 -0.1889  0.0617 -0.1081
   17GLY      O  174   3.518   5.487   4.985 -0.2071  0.1794  0.3619
   18ASP      N  175   3.742   5.526   5.003  0.1498  0.3202  0.0190
   18ASP     HN  176   3.815   5.578   5.048 -0.9495 -0.6176  3.0921
   18ASP     CA  177   3.786   5.417   4.920 -0.4185 -0.8971  0.6385
   18ASP     HA  178   3.724   5.406   4.832  0.8760 -1.2121 -0.2616
   18ASP     CB  179   3.937   5.437   4.874  0.2289 -0.5951 -0.1505
   18ASP    HB1  180   3.960   5.341   4.823 -2.1824 -1.8007  0.8677
   18ASP    HB2  181   4.010   5.442   4.957  0.7709 -2.9120 -0.4127
   18ASP     CG  182   3.940   5.554   4.788 -0.7963 -0.3454 -0.5935
   18ASP    OD1  183   3.845   5.568   4.703 -0.2962  0.2217  0.1820
   18ASP    OD2  184   4.044   5.630   4.787 -0.6880  0.5294 -0.5263
   18ASP      C  185   3.782   5.285   5.001 -0.4547 -1.0107  0.3934
   18ASP      O  186   3.829   5.295   5.116  0.8343  0.3123 -0.3374
   19PRO      N  187   3.730   5.172   4.952 -0.1914  0.0966  0.1512
   19PRO     CD  188   3.628   5.165   4.852 -0.3885 -0.2922  0.3613
   19PRO    HD1  189   3.676   5.150   4.753  0.7500  0.1706  0.8271
   19PRO    HD2  190   3.564   5.256   4.849 -1.6212 -1.1517 -0.3587
   19PRO     CA  191   3.718   5.053   5.036 -0.0409 -0.7815 -0.7949
   19PRO     HA  192   3.675   5.081   5.131 -1.3729 -0.1157 -1.5676
   19PRO     CB  193   3.637   4.954   4.952 -0.4150  0.5972 -0.2072
   19PRO    HB1  194   3.579   4.887   5.019 -0.0908 -0.8464 -1.3250
   19PRO    HB2  195   3.705   4.888   4.894 -0.0523 -0.8985  1.8445
   19PRO     CG  196   3.542   5.041   4.880  0.3968 -0.4634 -0.8503
   19PRO    HG1  197   3.510   4.992   4.785  1.4433 -0.7181 -1.0775
   19PRO    HG2  198   3.460   5.071   4.948  1.3522 -0.3898  0.2856
   19PRO      C  199   3.854   4.999   5.063 -0.5304 -0.2356 -0.0218
   19PRO    OT1  200   3.879   4.948   5.172  0.1593  1.1026  0.0525
   19PRO    OT2  201   3.941   5.003   4.975 -0.0099 -0.4111  0.7871
   9.57889   9.03106   7.82113   0.00000   0.00000  -3.19297   0.00000  -3.19297  -4.51553
