Title
19927
    1ASP      N    1   0.460   3.953   3.066  0.1242 -0.0035  0.0483
    1ASP    HT1    2   0.556   3.965   3.105  0.6400 -0.8182 -0.9362
    1ASP    HT2    3   0.437   3.852   3.068  0.5241 -0.1350  3.4690
    1ASP    HT3    4   0.393   4.002   3.129 -1.6157 -1.4893 -0.5642
    1ASP     CA    5   0.457   4.027   2.935 -0.3948  0.7179  0.0590
    1ASP     HA    6   0.530   3.984   2.869  0.4259  2.6283 -0.3483
    1ASP     CB    7   0.312   4.028   2.877  0.1264  0.2491 -0.0327
    1ASP    HB1    8   0.301   4.119   2.814  1.8478  0.8958  0.5232
    1ASP    HB2    9   0.236   4.028   2.958  1.4791 -0.2237  1.2889
    1ASP     CG   10   0.280   3.907   2.790 -0.6783  0.2231 -0.2087
    1ASP    OD1   11   0.166   3.912   2.735  0.2093  0.4624 -0.2621
    1ASP    OD2   12   0.364   3.819   2.783 -0.3298  0.1327 -0.0639
    1ASP      C   13   0.513   4.172   2.952  0.5387  0.4022  0.0233
    1ASP      O   14   0.487   4.240   3.047  0.4269  0.0237 -0.1672
    2ALA      N   15   0.594   4.218   2.860  0.4278 -0.0582 -0.2338
    2ALA     HN   16   0.614   4.157   2.784 -0.9206 -1.0713  0.1885
    2ALA     CA   17   0.657   4.349   2.859  0.6209  0.0649 -0.0684
    2ALA     HA   18   0.608   4.413   2.930  1.8801 -2.7319  3.6293
    2ALA     CB   19   0.805   4.335   2.902  0.2358 -0.3927  0.6814
    2ALA    HB1   20   0.812   4.294   3.005  0.3576 -3.0876 -0.3166
    2ALA    HB2   21   0.866   4.428   2.909 -2.3801  1.4983  0.1533
    2ALA    HB3   22   0.861   4.264   2.838  0.2152 -0.4073  0.6799
    2ALA      C   23   0.642   4.410   2.718 -0.5354 -0.0510 -0.2688
    2ALA      O   24   0.689   4.354   2.619  0.2072 -0.3887  0.2413
    3ASP      N   25   0.574   4.529   2.706 -0.0552  0.5898 -0.0994
    3ASP     HN   26   0.562   4.570   2.796  1.2264  0.3390  0.2058
    3ASP     CA   27   0.557   4.613   2.584 -0.1259 -0.1166 -0.7538
    3ASP     HA   28   0.475   4.567   2.530  0.3107 -1.8498  0.0087
    3ASP     CB   29   0.506   4.754   2.618 -0.3227  0.6012  0.2732
    3ASP    HB1   30   0.499   4.819   2.528  0.2742 -0.0516 -0.2503
    3ASP    HB2   31   0.568   4.806   2.694 -0.3671 -0.1650  0.8441
    3ASP     CG   32   0.365   4.757   2.676  0.4836 -0.1363 -0.1004
    3ASP    OD1   33   0.294   4.651   2.693  1.1441 -0.3330  0.3457
    3ASP    OD2   34   0.317   4.874   2.694  0.3012  0.3068 -0.2781
    3ASP      C   35   0.672   4.631   2.481 -0.2016  0.0527  0.0141
    3ASP      O   36   0.773   4.694   2.514  0.7065 -0.0663 -0.2575
    4GLY      N   37   0.655   4.576   2.361 -0.1549  0.7103 -0.1145
    4GLY     HN   38   0.571   4.528   2.339  0.3500 -0.9301  1.3479
    4GLY     CA   39   0.754   4.595   2.253 -0.2725  0.4134  0.4629
    4GLY    HA1   40   0.726   4.526   2.175 -1.5785 -0.9012  2.0000
    4GLY    HA2   41   0.847   4.560   2.295 -0.1995 -1.6496 -1.2779
    4GLY      C   42   0.781   4.731   2.198 -0.1027 -1.0591  0.8173
    4GLY      O   43   0.716   4.830   2.240 -0.7702  0.2255  0.4340
    5PRO      N   44   0.882   4.740   2.099  0.3998 -0.2943  0.4893
    5PRO     CD   45   0.959   4.623   2.050 -0.1235 -0.3256 -0.2268
    5PRO    HD1   46   0.895   4.560   1.984 -1.1491  3.4235 -3.2163
    5PRO    HD2   47   1.010   4.570   2.132 -0.8376 -0.4798  0.1276
    5PRO     CA   48   0.918   4.862   2.027 -0.5697  0.0106  0.1719
    5PRO     HA   49   0.959   4.929   2.101 -1.9906  0.3534  0.6912
    5PRO     CB   50   1.007   4.811   1.908  0.0739  0.4398  0.2608
    5PRO    HB1   51   1.093   4.881   1.909 -0.7128  1.4775  2.4783
    5PRO    HB2   52   0.949   4.800   1.813  0.0811  2.3368  0.0084
    5PRO     CG   53   1.067   4.678   1.959  0.1207 -0.1762 -1.3500
    5PRO    HG1   54   1.095   4.596   1.890 -0.2193 -0.2242 -1.4337
    5PRO    HG2   55   1.160   4.690   2.019  2.4622 -1.6132 -4.4447
    5PRO      C   56   0.807   4.942   1.980 -0.2773 -0.2674  0.3548
    5PRO      O   57   0.709   4.890   1.920 -0.4083 -0.0782 -0.4407
    6GLY      N   58   0.814   5.069   1.992 -0.1130 -1.2265  0.1571
    6GLY     HN   59   0.897   5.112   2.025 -0.8149 -0.1554  0.5793
    6GLY     CA   60   0.700   5.156   1.956 -0.1741 -0.3087 -0.4165
    6GLY    HA1   61   0.675   5.217   2.042  1.1515 -1.2714  0.6936
    6GLY    HA2   62   0.609   5.101   1.937 -0.8033  0.7729 -0.6396
    6GLY      C   63   0.713   5.247   1.839  1.3208 -0.5511  0.4720
    6GLY      O   64   0.618   5.315   1.802  0.0822  0.1959 -0.0691
    7ASP      N   65   0.833   5.251   1.781  0.1242 -0.0192 -0.3900
    7ASP     HN   66   0.914   5.203   1.814  0.5066 -0.5971 -2.0517
    7ASP     CA   67   0.849   5.344   1.668  0.0600  0.0929 -0.4019
    7ASP     HA   68   0.790   5.434   1.679  2.2097  1.4624  0.5365
    7ASP     CB   69   0.998   5.383   1.664  0.0151 -0.2681 -0.2184
    7ASP    HB1   70   1.021   5.418   1.561  1.1844  0.7171  0.3538
    7ASP    HB2   71   1.066   5.300   1.689  1.1615  1.2188  1.8975
    7ASP     CG   72   1.034   5.511   1.748  0.1402  0.1898  0.8706
    7ASP    OD1   73   0.951   5.560   1.830  0.0733  1.0652 -0.0524
    7ASP    OD2   74   1.152   5.552   1.739  0.1537 -0.6308  0.7345
    7ASP      C   75   0.815   5.263   1.544 -0.5287  0.2070  0.0690
    7ASP      O   76   0.862   5.147   1.540  0.1539  0.3815  0.3352
    8PRO      N   77   0.741   5.310   1.445 -0.0654 -0.5004 -0.4214
    8PRO     CD   78   0.716   5.455   1.432  0.0422  0.6251  0.5425
    8PRO    HD1   79   0.811   5.510   1.452 -0.1951  0.1924  3.2572
    8PRO    HD2   80   0.639   5.487   1.506 -1.0876 -0.4314 -0.1542
    8PRO     CA   81   0.703   5.232   1.326 -0.7948 -0.3202 -0.0582
    8PRO     HA   82   0.645   5.145   1.351  1.5115 -1.8682  0.2578
    8PRO     CB   83   0.614   5.326   1.249 -0.9066 -0.4371 -0.4830
    8PRO    HB1   84   0.507   5.320   1.276 -1.0438 -2.9150 -1.3219
    8PRO    HB2   85   0.615   5.321   1.138  1.6689  1.7677 -0.6710
    8PRO     CG   86   0.667   5.465   1.286 -0.2280 -0.2038 -0.1324
    8PRO    HG1   87   0.761   5.489   1.232  1.6188  0.5531  3.1449
    8PRO    HG2   88   0.592   5.546   1.274 -0.9722 -1.1019 -1.8566
    8PRO      C   89   0.820   5.171   1.239  0.5833  0.6184 -0.3187
    8PRO      O   90   0.934   5.208   1.253 -0.0603 -0.1636 -0.4366
    9ASP      N   91   0.787   5.063   1.156  0.3638  0.3625 -0.3191
    9ASP     HN   92   0.693   5.029   1.164  0.6033 -0.1198  0.6673
    9ASP     CA   93   0.875   4.999   1.055  0.5162  0.9135 -0.5528
    9ASP     HA   94   0.940   4.942   1.119 -0.2983  0.3140 -0.2298
    9ASP     CB   95   0.801   4.902   0.958 -0.4765  0.4701 -0.1033
    9ASP    HB1   96   0.866   4.824   0.915 -0.8378 -0.1952  0.5240
    9ASP    HB2   97   0.771   4.966   0.873  1.9144  0.7652 -0.7843
    9ASP     CG   98   0.693   4.830   1.016  0.4303 -0.0986 -0.1759
    9ASP    OD1   99   0.576   4.855   0.964  0.0011  0.3749  0.1417
    9ASP    OD2  100   0.713   4.749   1.115  0.4018  0.5226 -0.0572
    9ASP      C  101   0.973   5.094   0.979 -0.2898 -0.0540 -0.6441
    9ASP      O  102   0.941   5.209   0.953 -0.0726  0.2930  1.0881
   10ALA      N  103   1.092   5.047   0.950  0.1291  0.5006 -0.3072
   10ALA     HN  104   1.103   4.951   0.976  2.1290  0.3066 -1.6733
   10ALA     CA  105   1.200   5.113   0.887 -0.1844  0.2858  0.3760
   10ALA     HA  106   1.231   5.192   0.954  3.3901 -1.9849  1.6454
   10ALA     CB  107   1.317   5.021   0.848 -0.1258  0.6527  0.0177
   10ALA    HB1  108   1.396   5.082   0.798 -2.4546  1.5604 -2.7880
   10ALA    HB2  109   1.294   4.935   0.782  1.6836 -0.3869  0.6471
   10ALA    HB3  110   1.362   4.977   0.939  1.6434 -0.9537 -1.5449
   10ALA      C  111   1.160   5.178   0.757  0.0627 -0.1889  0.1257
   10ALA      O  112   1.092   5.122   0.676  0.0874 -0.2662 -0.5018
   11GLY      N  113   1.201   5.307   0.747  0.0344 -0.6509  0.3112
   11GLY     HN  114   1.273   5.349   0.803 -1.8507  1.1811  1.5114
   11GLY     CA  115   1.155   5.393   0.631 -0.8404  0.0205  0.6537
   11GLY    HA1  116   1.150   5.496   0.663  0.1642 -0.1423  1.3752
   11GLY    HA2  117   1.067   5.342   0.593  0.6525 -3.1383  1.1200
   11GLY      C  118   1.267   5.385   0.525 -0.4937  0.4975 -0.0051
   11GLY    OT1  119   1.365   5.461   0.543  0.3786  0.1428 -0.4957
   11GLY    OT2  120   1.264   5.306   0.427 -0.0129  0.2547 -0.3390
   12SOD    SOD  121   5.039   4.057   4.541  0.2399 -0.1936  0.1320
   13SOD    SOD  122   3.601   0.105   1.193 -0.2215  0.0926 -0.0297
   14SOD    SOD  123   1.760   0.459   1.249 -0.4093  0.3164  0.0650
   15SOD    SOD  124   1.172   3.314   1.548 -0.6490 -0.6932  0.3820
   16SOD    SOD  125   2.975   1.868   1.589  0.0133 -0.5858 -0.0050
   17SOD    SOD  126   2.389   5.244   2.872  0.0826  0.0246  0.9530
   18SOD    SOD  127   1.850   4.494   2.368 -0.1405 -0.1825  0.2340
   19SOD    SOD  128   6.294   1.014   2.070 -0.0346  0.4714 -0.5431
   20SOD    SOD  129   1.100   0.979   4.316 -0.3800 -0.4192  0.3068
   21SOD    SOD  130   3.103   5.076   4.534 -0.1682 -0.5126 -0.0626
   22SOD    SOD  131   2.900   2.922   0.412  0.2188  0.3305  0.1210
   23SOD    SOD  132   6.334   4.780   0.123 -0.2014 -0.4028  0.0548
   24SOD    SOD  133   2.002   4.155   1.691 -0.3159 -0.0642  0.4427
   25SOD    SOD  134   0.534   2.371   2.448  0.6364 -0.7075 -0.1475
   26SOD    SOD  135   2.338   0.591   3.526 -0.3763  0.1959  0.2786
   27SOD    SOD  136   0.689   3.535   2.404 -0.4581 -0.4303 -0.3195
   28SOD    SOD  137   1.980   5.928   2.335 -0.0502 -0.4794 -0.6519
   29SOD    SOD  138   5.726   3.070   2.050  1.1688 -0.0153  0.2975
   30SOD    SOD  139   5.153   3.447   4.706 -0.1073 -0.4468  0.0106
   31SOD    SOD  140   4.176   4.571   0.513 -0.4361 -0.5179 -0.3303
   32SOD    SOD  141   0.696   3.914   1.099  0.2400 -0.4873  0.0018
   33SOD    SOD  142   4.673   3.401   1.202  0.2584 -0.2298 -0.4991
   34CLA    CLA  143   1.942   1.143   1.617 -0.1125  0.0763 -0.2969
   35CLA    CLA  144   2.728   2.644   3.373  0.1007 -0.4055  0.4836
   36CLA    CLA  145   4.345   5.028   0.107  0.0799 -0.2185  0.2578
   37CLA    CLA  146   2.087   2.591   3.643 -0.1466  0.3634 -0.0303
   38CLA    CLA  147   0.533   5.878   3.610 -0.2188 -0.2424  0.3202
   39CLA    CLA  148   3.398   0.730   3.917  0.3560 -0.1230  0.2826
   40CLA    CLA  149   5.325   1.642   2.599 -0.1627  0.2385  0.4711
   41CLA    CLA  150   6.161   0.512   3.593 -0.2120 -0.2255  0.1418
   42CLA    CLA  151   0.518   5.859   0.460 -0.1369  0.0450 -0.1962
   43CLA    CLA  152   0.661   1.516   4.909 -0.1425 -0.2066  0.3286
   44CLA    CLA  153   3.802   4.098   2.942 -0.1242 -0.1422  0.2333
   45CLA    CLA  154   1.539   4.209   1.194  0.4300  0.6494  0.0689
   46CLA    CLA  155   1.984   0.863   4.409 -0.2597  0.2168 -0.2943
   47CLA    CLA  156   2.380   2.692   1.122  0.2487 -0.2043  0.1454
   48CLA    CLA  157   2.003   5.141   1.402  0.0157  0.1874  0.0835
   49CLA    CLA  158   4.544   1.419   2.808 -0.3652  0.1567  0.1711
   50CLA    CLA  159   5.367   0.624   3.856 -0.5004  0.3091 -0.0288
   51CLA    CLA  160   4.875   1.446   4.211  0.3027 -0.3941 -0.1966
   52TIP3   OH2  161   0.968   1.512   4.812  0.0997  0.6304 -0.3896
   52TIP3    H1  162   0.979   1.442   4.747 -0.0607  1.3661 -1.2271
   52TIP3    H2  163   0.874   1.529   4.813  0.1592  0.9618 -0.3303
   53TIP3   OH2  164   3.073   2.080   0.081  0.7411  0.2115 -0.7432
   53TIP3    H1  165   3.136   2.146   0.052 -1.7509  2.4235 -1.5221
   53TIP3    H2  166   3.089   2.071   0.175  1.4534  1.5695 -0.7142
   54TIP3   OH2  167   2.170   3.041   4.875 -0.2997  0.1170  0.9218
   54TIP3    H1  168   2.200   3.100   4.806 -0.0074 -1.5300 -0.4068
   54TIP3    H2  169   2.212   3.075   4.954  0.6536  1.1073  0.0332
   55TIP3   OH2  170   0.105   5.964   0.242  0.2735 -0.0186 -0.7192
   55TIP3    H1  171   0.110   5.879   0.286  0.7140  0.4732  0.2083
   55TIP3    H2  172   0.041   5.951   0.172 -1.5140 -0.4525  0.9109
   56TIP3   OH2  173   3.644   5.719   2.186  0.7809 -0.0640  0.6083
   56TIP3    H1  174   3.716   5.763   2.140 -0.7625 -0.2310 -2.1953
   56TIP3    H2  175   3.622   5.778   2.258  0.5308  2.5560 -1.4319
   57TIP3   OH2  176   1.723   0.488   3.036 -0.1838  0.2086 -0.4809
   57TIP3    H1  177   1.690   0.414   2.985 -1.0864 -0.7674  1.3937
   57TIP3    H2  178   1.644   0.536   3.062 -0.0158 -0.5701  1.7296
   58TIP3   OH2  179   3.784   3.017   4.256  0.0027  0.0185  0.3024
   58TIP3    H1  180   3.802   3.109   4.240  2.8988 -0.3991  0.4574
   58TIP3    H2  181   3.701   3.016   4.303 -0.8147  2.4025 -0.9295
   59TIP3   OH2  182   2.843   3.711   3.658  0.6977  0.0906 -0.4535
   59TIP3    H1  183   2.879   3.684   3.574 -1.2323  0.1754 -1.3470
   59TIP3    H2  184   2.897   3.785   3.685  0.0552  1.4233 -2.6506
   60TIP3   OH2  185   2.120   4.882   3.640 -0.1860  0.3451  0.1124
   60TIP3    H1  186   2.084   4.919   3.720  0.2945 -0.5563  0.7560
   60TIP3    H2  187   2.046   4.835   3.599 -0.3282  0.4648  0.2333
   61TIP3   OH2  188   5.964   0.707   1.401  0.0337  0.2232 -0.4551
   61TIP3    H1  189   6.049   0.689   1.441  0.1882  0.3932 -0.7082
   61TIP3    H2  190   5.983   0.765   1.328 -0.5255  1.9409  0.7094
   62TIP3   OH2  191   4.624   1.378   5.154 -0.0655  0.4015 -0.6026
   62TIP3    H1  192   4.557   1.425   5.104 -0.1515  0.8161 -0.1186
   62TIP3    H2  193   4.705   1.423   5.134  0.4011 -1.1796 -2.5584
   63TIP3   OH2  194   5.572   4.590   4.482 -0.2720  0.1036 -0.2297
   63TIP3    H1  195   5.598   4.573   4.391  2.3910 -1.2538  0.6982
   63TIP3    H2  196   5.618   4.670   4.506  0.5021 -0.5341  0.4559
   64TIP3   OH2  197   1.962   0.286   2.867  0.0589  0.3365  0.2463
   64TIP3    H1  198   1.953   0.381   2.859  0.9690  0.3815 -0.4092
   64TIP3    H2  199   2.009   0.272   2.949 -1.6570  0.3388  1.2713
   65TIP3   OH2  200   1.185   2.796   0.371  0.5923 -0.2343 -0.2527
   65TIP3    H1  201   1.234   2.842   0.303  0.7257  1.6619  1.0372
   65TIP3    H2  202   1.184   2.857   0.445  0.0707 -2.0339  1.2990
   66TIP3   OH2  203   1.068   0.376   1.309 -0.4164 -0.5051  0.1366
   66TIP3    H1  204   1.123   0.433   1.363  0.0410 -0.8827  0.0791
   66TIP3    H2  205   1.072   0.291   1.352 -1.7307 -0.3271  0.6632
   67TIP3   OH2  206   0.920   0.356   0.633 -0.0575 -0.0891 -0.0266
   67TIP3    H1  207   0.847   0.395   0.682 -0.4750 -0.5793 -0.2475
   67TIP3    H2  208   0.886   0.272   0.603  0.2451  0.1361 -1.0282
   68TIP3   OH2  209   4.214   1.778   4.001  0.2760 -0.0690 -0.0727
   68TIP3    H1  210   4.164   1.860   4.000  0.3607 -0.0174 -0.1097
   68TIP3    H2  211   4.147   1.710   3.994  0.3273  0.0482 -2.5666
   69TIP3   OH2  212   1.832   1.489   3.612 -0.1120  0.1961  0.5997
   69TIP3    H1  213   1.779   1.482   3.692  1.1889  2.3117  1.7688
   69TIP3    H2  214   1.805   1.573   3.574 -0.2178 -0.4666 -0.8235
   70TIP3   OH2  215   0.584   0.545   3.966 -0.0720  0.4300  0.2471
   70TIP3    H1  216   0.584   0.467   4.021  0.8598 -0.2346 -0.6609
   70TIP3    H2  217   0.508   0.535   3.909 -0.0635  0.2748  0.2634
   71TIP3   OH2  218   5.632   5.658   0.037  0.1206 -0.4275 -0.3105
   71TIP3    H1  219   5.720   5.662  -0.003  0.4834 -2.4735  0.2088
   71TIP3    H2  220   5.648   5.671   0.130 -0.4021  1.3064 -0.4308
   72TIP3   OH2  221   1.227   4.762   1.152  0.4118  0.0310 -0.1166
   72TIP3    H1  222   1.226   4.693   1.086  1.5535 -0.4918  0.3930
   72TIP3    H2  223   1.249   4.718   1.234  0.2516  0.8633  0.3923
   73TIP3   OH2  224   0.949   2.177   3.461  0.3585 -0.5055 -0.3892
   73TIP3    H1  225   1.008   2.102   3.451  0.3963 -0.2996 -2.0304
   73TIP3    H2  226   0.918   2.171   3.551 -1.5247 -3.9280 -1.0808
   74TIP3   OH2  227   3.259   0.143   2.009 -0.5540 -0.2872 -0.0897
   74TIP3    H1  228   3.332   0.080   2.008  0.4582  0.8081 -2.4053
   74TIP3    H2  229   3.291   0.217   1.957 -1.9885  1.8700  1.8824
   75TIP3   OH2  230   4.994   2.267   3.274  0.0628  0.1464 -0.4173
   75TIP3    H1  231   5.061   2.215   3.317  0.8155  0.6064 -1.0172
   75TIP3    H2  232   4.930   2.203   3.244 -0.0023 -0.2592  0.5361
   76TIP3   OH2  233   3.461   5.471   1.846 -0.0518 -0.1826 -0.2353
   76TIP3    H1  234   3.483   5.547   1.792 -1.2389 -0.1291 -0.6896
   76TIP3    H2  235   3.370   5.451   1.823  0.3677 -2.0368 -0.4766
   77TIP3   OH2  236   0.615   2.973   0.315  0.5186 -0.2662 -0.4098
   77TIP3    H1  237   0.626   2.888   0.272 -2.9053 -0.5481 -1.0196
   77TIP3    H2  238   0.660   3.035   0.259  0.2915 -1.2719 -1.7509
   78TIP3   OH2  239   2.972   3.819   4.417  0.3144  0.0066  0.1070
   78TIP3    H1  240   2.890   3.844   4.461  0.9924 -0.2355  1.5788
   78TIP3    H2  241   2.990   3.731   4.449  0.9763 -0.0667 -0.4544
   79TIP3   OH2  242   5.090   3.091   0.523  0.0950  0.3934 -0.4555
   79TIP3    H1  243   5.185   3.098   0.517  0.1715 -0.3327 -0.1858
   79TIP3    H2  244   5.058   3.179   0.501  0.8347  0.7315 -0.2058
   80TIP3   OH2  245   1.964   1.008   1.064  0.2171  0.1161  0.3987
   80TIP3    H1  246   1.956   0.913   1.065 -1.0733  0.2051  0.5478
   80TIP3    H2  247   2.058   1.025   1.063  0.4592 -1.1668 -0.2711
   81TIP3   OH2  248   4.389   2.496   1.357  0.6135 -0.0900 -0.0888
   81TIP3    H1  249   4.484   2.505   1.360  0.5991  1.2242 -1.8985
   81TIP3    H2  250   4.374   2.401   1.349  1.6942 -0.4026  1.2598
   82TIP3   OH2  251   1.018   5.574   3.814 -0.4942  0.0716 -0.1000
   82TIP3    H1  252   0.978   5.489   3.793 -0.2765  0.4517 -2.2750
   82TIP3    H2  253   1.003   5.627   3.735  1.6427  1.2039  0.2045
   83TIP3   OH2  254   5.872   5.034   3.626 -0.6101  0.4838  0.2493
   83TIP3    H1  255   5.859   5.018   3.720  0.0258  2.1622  0.6599
   83TIP3    H2  256   5.966   5.053   3.618 -0.5466 -0.2015 -0.8368
   84TIP3   OH2  257   3.085   3.350   4.330 -0.4537  0.0782  0.3006
   84TIP3    H1  258   3.040   3.362   4.246 -2.7606 -0.5977  1.3437
   84TIP3    H2  259   3.016   3.318   4.389  1.4646 -1.0875  2.0293
   85TIP3   OH2  260   4.244   5.309   0.534  0.2981 -0.6418  0.0129
   85TIP3    H1  261   4.205   5.395   0.548 -0.8899 -1.0995 -0.3937
   85TIP3    H2  262   4.204   5.277   0.453  1.3344 -1.2420 -0.2847
   86TIP3   OH2  263   5.815   4.505   1.491  0.3440 -0.1761 -0.1069
   86TIP3    H1  264   5.801   4.466   1.578  1.1881 -0.2401  0.0151
   86TIP3    H2  265   5.876   4.445   1.448 -0.9039 -0.7404 -1.1758
   87TIP3   OH2  266   0.145   5.003   0.429 -0.6141  0.5418 -0.1389
   87TIP3    H1  267   0.084   5.069   0.464 -0.2342  0.8487 -0.0464
   87TIP3    H2  268   0.232   5.042   0.440 -0.2848 -0.4321  0.9612
   88TIP3   OH2  269   1.649   4.888   1.148  0.5667 -0.0274 -0.4328
   88TIP3    H1  270   1.669   4.837   1.227 -1.3071 -0.6536 -0.3142
   88TIP3    H2  271   1.593   4.830   1.097 -1.6580  1.8820 -0.3065
   89TIP3   OH2  272   4.558   1.726   1.697 -0.4830 -0.5713 -0.0881
   89TIP3    H1  273   4.609   1.747   1.775  0.1527 -0.0067 -0.6472
   89TIP3    H2  274   4.610   1.760   1.624 -0.1549 -2.7413 -0.9229
   90TIP3   OH2  275   3.782   5.259   4.506  0.6907  0.8364 -0.1786
   90TIP3    H1  276   3.856   5.252   4.446  0.4339  1.6037 -0.5927
   90TIP3    H2  277   3.814   5.313   4.578  0.4707  1.3657 -0.4714
   91TIP3   OH2  278   5.913   2.097   3.240  0.2278  0.6151  0.2886
   91TIP3    H1  279   5.886   2.174   3.290 -1.6898 -0.0095  0.2767
   91TIP3    H2  280   5.929   2.131   3.152  0.1733  1.1170  0.4653
   92TIP3   OH2  281   4.924   5.667   4.856 -0.0872  0.2964  0.4785
   92TIP3    H1  282   4.857   5.734   4.873  0.0000  0.5561 -0.1737
   92TIP3    H2  283   4.878   5.600   4.806 -0.6868 -1.1068  2.7706
   93TIP3   OH2  284   4.442   3.670   4.428  0.0470  0.1572 -0.0829
   93TIP3    H1  285   4.443   3.651   4.522  2.0630  0.5648  0.0091
   93TIP3    H2  286   4.357   3.636   4.398 -0.4822 -0.3095  1.7971
   94TIP3   OH2  287   2.862   3.516   1.965 -0.0523 -0.1190  0.3542
   94TIP3    H1  288   2.899   3.561   2.041  2.1539  1.1945 -1.3806
   94TIP3    H2  289   2.850   3.426   1.995 -0.9044  0.7060  2.7456
   95TIP3   OH2  290   4.501   3.435   2.543 -0.5196 -0.0148 -0.1088
   95TIP3    H1  291   4.495   3.531   2.548  0.2946  0.0164  0.6706
   95TIP3    H2  292   4.582   3.419   2.495  0.6668 -0.2764  1.8804
   96TIP3   OH2  293   1.216   3.518   1.633  0.1612  0.5298 -0.0828
   96TIP3    H1  294   1.198   3.604   1.594  1.6457  0.5834 -0.7033
   96TIP3    H2  295   1.216   3.534   1.727  4.9104  2.3381 -0.1090
   97TIP3   OH2  296   3.596   5.600   2.955 -0.1994  0.6752  0.1961
   97TIP3    H1  297   3.502   5.610   2.969 -0.2923 -0.8505  0.8601
   97TIP3    H2  298   3.618   5.668   2.892 -1.8143  0.8248 -0.2494
   98TIP3   OH2  299   0.608   2.496   3.051 -0.6459 -0.4060 -0.3793
   98TIP3    H1  300   0.596   2.482   3.145 -0.8779  0.5771 -0.2473
   98TIP3    H2  301   0.687   2.447   3.029  0.3917  0.7204  0.6816
   99TIP3   OH2  302   4.860   3.965   1.243 -0.0032  0.8440  0.3181
   99TIP3    H1  303   4.910   3.934   1.167  3.7994  2.3148  1.9105
   99TIP3    H2  304   4.788   4.016   1.206 -0.4519 -1.4508 -2.2095
  100TIP3   OH2  305   6.293   3.443   3.711 -0.0540 -0.4730 -0.2825
  100TIP3    H1  306   6.225   3.466   3.648 -0.8816  2.8209  1.6125
  100TIP3    H2  307   6.248   3.387   3.774 -0.2981 -0.4609 -0.4434
  101TIP3   OH2  308   6.047   3.491   2.292 -0.3535  0.2872 -0.3796
  101TIP3    H1  309   6.057   3.565   2.232 -0.2822 -0.1215 -0.8791
  101TIP3    H2  310   6.082   3.522   2.375  1.0841  0.3155 -0.9753
  102TIP3   OH2  311   0.444   4.754   4.853 -0.0271  0.4166 -0.4365
  102TIP3    H1  312   0.401   4.726   4.772 -2.2855  0.0356  0.8071
  102TIP3    H2  313   0.411   4.842   4.868  0.8911  0.7421 -0.2286
  103TIP3   OH2  314   3.324   1.722   2.956 -0.1252 -0.5295  0.0780
  103TIP3    H1  315   3.409   1.719   3.000 -0.1340  0.4287  0.1748
  103TIP3    H2  316   3.276   1.648   2.993  1.4712 -2.6122 -1.7252
  104TIP3   OH2  317   2.076   1.833   0.122  0.2778 -0.0231  0.0541
  104TIP3    H1  318   2.018   1.869   0.055 -1.8563 -0.4488  1.5680
  104TIP3    H2  319   2.087   1.741   0.099 -1.1754 -0.3832  0.7210
  105TIP3   OH2  320   4.577   5.906   3.310  0.0561 -0.0340 -0.0357
  105TIP3    H1  321   4.557   5.977   3.249 -0.3258 -0.7190 -0.7339
  105TIP3    H2  322   4.514   5.837   3.287  0.4197 -0.5947  0.6267
  106TIP3   OH2  323   0.893   1.056   0.838  0.5822 -0.4134 -0.2640
  106TIP3    H1  324   0.934   1.104   0.910 -1.1739 -0.6377  0.9430
  106TIP3    H2  325   0.947   1.076   0.762  0.1337  3.2491  0.2091
  107TIP3   OH2  326   3.547   1.229   3.662 -0.1104 -0.3292 -0.4454
  107TIP3    H1  327   3.490   1.153   3.675  0.4995 -1.1300 -2.1032
  107TIP3    H2  328   3.626   1.193   3.622  2.3396  0.4883  3.1433
  108TIP3   OH2  329   4.938   5.867   0.297  0.1611 -0.2690  0.2541
  108TIP3    H1  330   4.893   5.941   0.255  2.3062  1.5427  0.9333
  108TIP3    H2  331   4.906   5.790   0.251 -1.9677  1.0953 -0.6969
  109TIP3   OH2  332   1.073   0.315   0.195  0.2860 -0.2807 -0.8055
  109TIP3    H1  333   1.062   0.402   0.157  0.9391 -0.2899 -1.0289
  109TIP3    H2  334   1.102   0.331   0.285  3.0834 -0.2379 -1.6455
  110TIP3   OH2  335   5.720   3.963   2.596  0.8979  0.1444 -0.4273
  110TIP3    H1  336   5.694   3.916   2.675 -1.1688  0.7181 -0.7159
  110TIP3    H2  337   5.774   4.036   2.628  1.2507 -0.4219  0.3009
  111TIP3   OH2  338   1.916   3.093   2.072  0.2455  0.6833  0.2387
  111TIP3    H1  339   1.869   3.057   2.147  0.3344  0.1005  0.0191
  111TIP3    H2  340   1.900   3.031   2.001  1.9891  0.0140  0.3667
  112TIP3   OH2  341   3.144   2.164   2.093 -0.1961  0.0616 -0.0759
  112TIP3    H1  342   3.060   2.118   2.100 -0.0910 -0.1849 -0.3903
  112TIP3    H2  343   3.204   2.098   2.060  0.3782 -0.0651  1.1683
  113TIP3   OH2  344   3.880   3.230   0.913  0.3256 -0.3440 -0.4087
  113TIP3    H1  345   3.855   3.177   0.838 -0.5129 -0.3828 -0.1049
  113TIP3    H2  346   3.869   3.172   0.989  1.3822 -0.3775 -0.2649
  114TIP3   OH2  347   3.745   1.704   2.299  0.4647 -0.3830 -0.7937
  114TIP3    H1  348   3.828   1.656   2.300  0.2438 -0.7847  0.0259
  114TIP3    H2  349   3.704   1.680   2.216  0.1905 -1.9694 -0.2538
  115TIP3   OH2  350   0.677   5.544   4.856  0.1453  0.2789 -0.2485
  115TIP3    H1  351   0.690   5.475   4.791  1.0534 -0.2098  0.4181
  115TIP3    H2  352   0.623   5.609   4.812  0.8603  0.0320 -1.5471
  116TIP3   OH2  353   2.844   3.113   1.164  0.1558  0.5208  0.2997
  116TIP3    H1  354   2.769   3.088   1.217  0.3904 -1.6068 -0.2979
  116TIP3    H2  355   2.902   3.037   1.166  2.6339  2.2852  1.2360
  117TIP3   OH2  356   3.710   2.116   0.542 -0.4269 -0.3853  0.7800
  117TIP3    H1  357   3.662   2.148   0.465  0.1774  2.2593  1.4218
  117TIP3    H2  358   3.751   2.034   0.512  0.8342  1.1673 -2.1500
  118TIP3   OH2  359   0.843   4.998   2.580 -0.2472  0.1742  0.3827
  118TIP3    H1  360   0.796   5.079   2.596  0.2158  0.2367  1.5689
  118TIP3    H2  361   0.781   4.942   2.534 -0.5419  1.2148 -0.5188
  119TIP3   OH2  362   6.086   1.068   2.181  0.0082 -0.0470  0.2207
  119TIP3    H1  363   6.005   1.048   2.133 -1.4822  1.2862  2.0158
  119TIP3    H2  364   6.058   1.127   2.251  2.6631  0.9270  0.5691
  120TIP3   OH2  365   2.994   5.374   5.130 -0.2059 -0.2396  0.1630
  120TIP3    H1  366   2.915   5.359   5.181  0.2827 -1.1356  0.6730
  120TIP3    H2  367   2.983   5.320   5.052 -0.1458 -0.2596  0.1691
  121TIP3   OH2  368   4.853   0.100   5.028 -0.0149  0.3434 -0.7213
  121TIP3    H1  369   4.946   0.074   5.023 -0.2523 -0.5812 -0.5201
  121TIP3    H2  370   4.855   0.196   5.030  1.1021  0.3497  1.9504
  122TIP3   OH2  371   0.614   5.470   3.182  0.1392 -0.6277  0.2442
  122TIP3    H1  372   0.681   5.419   3.228  1.2144  0.0189 -0.5577
  122TIP3    H2  373   0.574   5.524   3.251 -1.3233 -2.7683  1.1992
  123TIP3   OH2  374   6.100   5.113   1.103 -0.9438 -0.0437 -0.0393
  123TIP3    H1  375   6.174   5.061   1.135  0.3337 -0.3516 -3.1333
  123TIP3    H2  376   6.140   5.186   1.057 -2.7034  2.2218  1.7875
  124TIP3   OH2  377   5.341   1.955   3.791 -0.7397  0.0033  0.0972
  124TIP3    H1  378   5.278   1.891   3.825  1.8995 -2.6236  0.4509
  124TIP3    H2  379   5.335   2.029   3.853 -1.1346 -1.6096  2.1034
  125TIP3   OH2  380   6.038   3.463   1.621  0.2147  0.1066  0.3586
  125TIP3    H1  381   6.082   3.387   1.659  1.6913  0.9694  0.4602
  125TIP3    H2  382   5.954   3.430   1.591  0.1368 -1.1940  1.9068
  126TIP3   OH2  383   0.041   3.799   4.098  0.2939 -0.4808  0.3726
  126TIP3    H1  384   0.119   3.799   4.153 -1.0508  0.2026  2.4233
  126TIP3    H2  385   0.040   3.713   4.057  2.4683 -0.2437 -0.3062
  127TIP3   OH2  386   3.148   5.596   2.117  0.4448 -0.1829 -0.4446
  127TIP3    H1  387   3.242   5.582   2.128  0.7941  0.4343 -2.2482
  127TIP3    H2  388   3.107   5.526   2.168  1.9113 -1.3043 -0.7214
  128TIP3   OH2  389   5.648   3.151   1.548 -0.3432 -0.0606  0.2234
  128TIP3    H1  390   5.677   3.070   1.507  0.0320  0.4046 -0.4409
  128TIP3    H2  391   5.568   3.126   1.596 -0.1015 -0.8653  0.2268
  129TIP3   OH2  392   5.553   0.598   3.540  0.3989  0.1051 -0.2525
  129TIP3    H1  393   5.641   0.560   3.546 -0.2443 -1.7592 -1.6953
  129TIP3    H2  394   5.511   0.574   3.622  1.1985  0.9832  0.4352
  130TIP3   OH2  395   0.010   1.221   4.663 -0.5761  0.2795 -0.6322
  130TIP3    H1  396   0.086   1.210   4.720  0.6491  2.6604 -1.6696
  130TIP3    H2  397  -0.064   1.195   4.717  0.8510 -1.1121  0.7700
  131TIP3   OH2  398   0.985   1.597   0.927 -0.2696  0.0181 -0.1958
  131TIP3    H1  399   0.926   1.618   0.999 -0.1365  1.6665 -0.5278
  131TIP3    H2  400   1.060   1.654   0.940 -0.2622  0.3909 -1.6537
  132TIP3   OH2  401   0.772   1.598   2.495 -0.4758 -0.2626  0.0797
  132TIP3    H1  402   0.800   1.603   2.403  0.3391  2.8872  0.4050
  132TIP3    H2  403   0.677   1.611   2.491 -0.0477  4.7480 -0.2466
  133TIP3   OH2  404   4.434   4.891   0.365  0.5048 -0.3660  0.0692
  133TIP3    H1  405   4.502   4.831   0.334  1.2584  1.1318 -1.3320
  133TIP3    H2  406   4.410   4.942   0.288  0.8745  2.0491  1.4454
  134TIP3   OH2  407   2.542   4.358   1.255  0.5968 -0.5971  0.0938
  134TIP3    H1  408   2.518   4.450   1.245  0.9681 -0.4797  0.2617
  134TIP3    H2  409   2.598   4.356   1.333 -0.2427 -1.1224  0.6970
  135TIP3   OH2  410   1.626   5.390   3.411  0.3088 -0.4946  0.2510
  135TIP3    H1  411   1.563   5.320   3.396 -0.4590  0.6311 -2.4929
  135TIP3    H2  412   1.590   5.439   3.485 -0.7558 -1.2565  0.2643
  136TIP3   OH2  413   6.286   0.548   4.162  0.3092  0.1419 -0.7244
  136TIP3    H1  414   6.364   0.504   4.195 -0.2544 -0.3016  0.0227
  136TIP3    H2  415   6.242   0.582   4.240  0.0735  0.9307 -1.1897
  137TIP3   OH2  416   3.155   0.553   4.043 -0.3439  0.1311  0.3844
  137TIP3    H1  417   3.148   0.463   4.011 -0.9778  0.2259  0.2447
  137TIP3    H2  418   3.229   0.590   3.995 -1.2815  0.2738 -0.9990
  138TIP3   OH2  419   4.742   1.660   0.750 -0.6013 -0.8527 -0.6549
  138TIP3    H1  420   4.808   1.597   0.723 -1.3639 -2.2940  0.7034
  138TIP3    H2  421   4.682   1.665   0.675  1.0883  0.6825 -2.0171
  139TIP3   OH2  422   5.943   0.979   1.731 -0.3505  0.0791  0.0489
  139TIP3    H1  423   5.869   0.919   1.727  0.0480 -0.3516 -1.3150
  139TIP3    H2  424   5.910   1.056   1.779 -1.0547 -0.9354  1.2480
  140TIP3   OH2  425   0.912   3.123   3.607 -0.2060 -0.1712 -0.4089
  140TIP3    H1  426   0.853   3.196   3.626 -1.4066 -0.7781 -1.6360
  140TIP3    H2  427   0.934   3.133   3.515 -0.6994 -1.5454 -0.7072
  141TIP3   OH2  428   5.472   5.231   0.190 -0.4384  0.0787  0.1178
  141TIP3    H1  429   5.535   5.159   0.182  1.6947  2.0318 -2.5055
  141TIP3    H2  430   5.389   5.193   0.161  0.4445 -1.5269 -0.4341
  142TIP3   OH2  431   0.615   2.409   0.370 -0.3252  0.3435  0.3268
  142TIP3    H1  432   0.623   2.314   0.384  0.4857  0.4835  0.9063
  142TIP3    H2  433   0.700   2.444   0.396 -0.8242  1.3023  0.7144
  143TIP3   OH2  434   6.296   3.991   3.273 -0.0191  0.0273 -0.0421
  143TIP3    H1  435   6.300   4.063   3.210  1.1218  0.2327  0.2380
  143TIP3    H2  436   6.218   4.009   3.325  0.6540  1.5255  0.5368
  144TIP3   OH2  437   1.552   4.104   1.679  0.0844 -0.0907  0.0465
  144TIP3    H1  438   1.569   4.104   1.773  1.1451 -0.3048 -0.1437
  144TIP3    H2  439   1.637   4.115   1.638  0.2709 -3.8902 -1.0009
  145TIP3   OH2  440   1.140   5.864   1.377  0.3526 -0.2819 -0.3759
  145TIP3    H1  441   1.174   5.953   1.376 -0.5123  0.1197  1.3081
  145TIP3    H2  442   1.074   5.863   1.307  0.2233  0.4653 -0.2750
  146TIP3   OH2  443   5.774   4.925   1.424  0.0903  0.0921  0.2492
  146TIP3    H1  444   5.775   4.850   1.365 -0.7134 -0.2555  0.6592
  146TIP3    H2  445   5.708   4.903   1.489 -1.6810  2.0584 -0.7914
  147TIP3   OH2  446   4.941   2.666   4.439  0.5124  0.9326 -0.2189
  147TIP3    H1  447   4.887   2.661   4.360 -0.1271 -1.6622  0.2664
  147TIP3    H2  448   4.893   2.725   4.497 -1.6161 -0.8556 -0.0190
  148TIP3   OH2  449   1.935   2.903   0.440  0.6639 -0.0551  0.0675
  148TIP3    H1  450   2.016   2.858   0.464 -0.3656 -1.3518  1.2984
  148TIP3    H2  451   1.879   2.894   0.517 -0.2655  1.7984 -0.3310
  149TIP3   OH2  452   4.152   0.764   0.226 -0.6627  0.1579  0.2688
  149TIP3    H1  453   4.234   0.726   0.193 -1.0394 -0.1576 -0.3283
  149TIP3    H2  454   4.154   0.855   0.197 -0.9548 -0.0972 -0.5786
  150TIP3   OH2  455   0.862   3.059   2.989 -0.6479 -0.1220 -0.1474
  150TIP3    H1  456   0.796   3.034   3.054 -0.8809 -3.0904 -1.3409
  150TIP3    H2  457   0.939   3.007   3.012 -0.3679 -0.3633 -1.5340
  151TIP3   OH2  458   3.168   2.288   1.164  0.4089  0.6677  0.4983
  151TIP3    H1  459   3.256   2.267   1.132  0.0281 -0.0143 -0.1490
  151TIP3    H2  460   3.170   2.382   1.182  0.7244  1.0500 -1.3221
  152TIP3   OH2  461   3.482   3.561   3.694 -0.1472 -0.1872 -0.0946
  152TIP3    H1  462   3.409   3.506   3.723  0.3553 -0.4957  0.5956
  152TIP3    H2  463   3.484   3.633   3.757 -1.8387  1.5720 -1.8991
  153TIP3   OH2  464   0.113   3.964   1.208 -0.2420 -0.1339 -0.0451
  153TIP3    H1  465   0.048   3.951   1.278 -1.3293 -1.1866 -1.1892
  153TIP3    H2  466   0.078   3.915   1.134  0.5534  1.4703 -1.5535
  154TIP3   OH2  467   2.067   3.557   0.075 -0.4997 -0.7673 -0.0605
  154TIP3    H1  468   2.140   3.509   0.037 -1.7316  0.8689 -5.3285
  154TIP3    H2  469   1.989   3.512   0.044 -1.8068 -0.1297  2.0433
  155TIP3   OH2  470   3.686   0.147   2.927 -0.9884 -0.4435  0.1238
  155TIP3    H1  471   3.640   0.231   2.921  0.1165  0.3225  1.5579
  155TIP3    H2  472   3.710   0.140   3.020 -0.3067 -1.9318 -0.1413
  156TIP3   OH2  473   6.277   4.556   0.060  0.8156 -0.0527 -0.0683
  156TIP3    H1  474   6.292   4.478   0.113 -1.5352 -0.5399 -0.0176
  156TIP3    H2  475   6.338   4.547  -0.014  0.8505 -1.7459  0.1346
  157TIP3   OH2  476   3.997   4.849   2.904 -0.1449 -0.2450  0.0125
  157TIP3    H1  477   4.030   4.774   2.955  0.3468 -0.5332 -0.7069
  157TIP3    H2  478   4.058   4.856   2.830 -0.8741  0.1320 -0.5639
  158TIP3   OH2  479   2.393   2.814   2.591 -0.7347 -0.1336 -0.0385
  158TIP3    H1  480   2.399   2.881   2.659  0.7217  0.1296 -0.4105
  158TIP3    H2  481   2.413   2.860   2.510 -0.2507 -0.9030 -0.3651
  159TIP3   OH2  482   1.419   5.749   0.477 -0.1746  0.5587  0.1644
  159TIP3    H1  483   1.455   5.801   0.548  0.0011 -0.4345  0.8214
  159TIP3    H2  484   1.420   5.659   0.510 -0.4770  0.1343 -0.9349
  160TIP3   OH2  485   0.927   3.197   1.247 -0.2522  0.3561 -0.2616
  160TIP3    H1  486   0.856   3.200   1.311 -1.0610 -0.1841 -1.1041
  160TIP3    H2  487   0.955   3.105   1.246 -0.7826  0.1877 -1.2240
  161TIP3   OH2  488   0.094   3.222   3.119 -0.1802  0.3005 -0.3236
  161TIP3    H1  489   0.099   3.155   3.051  1.1018 -0.6269  0.6064
  161TIP3    H2  490   0.117   3.303   3.075 -0.5005 -0.0827 -1.2242
  162TIP3   OH2  491   2.944   1.283   1.328  0.0974 -0.3511 -0.1403
  162TIP3    H1  492   2.857   1.265   1.294  0.3450 -0.7626 -0.5614
  162TIP3    H2  493   2.947   1.378   1.338 -0.2336 -0.2953 -0.5691
  163TIP3   OH2  494   5.097   5.348   2.115  0.2041 -0.2024  0.0615
  163TIP3    H1  495   5.147   5.269   2.135  0.0834  0.2018  2.2661
  163TIP3    H2  496   5.038   5.322   2.044 -0.0641 -2.2206  0.9506
  164TIP3   OH2  497   0.581   0.431   0.007 -0.5345 -0.0370 -0.2156
  164TIP3    H1  498   0.613   0.358  -0.047 -1.6889 -0.8302  0.1299
  164TIP3    H2  499   0.516   0.391   0.065 -0.0371  0.9808  1.0906
  165TIP3   OH2  500   5.546   4.575   2.082 -0.3438  0.4373 -0.0584
  165TIP3    H1  501   5.467   4.585   2.029 -0.4925  0.6511  0.1974
  165TIP3    H2  502   5.615   4.617   2.031 -0.3088 -0.1141 -0.4725
  166TIP3   OH2  503   5.993   1.655   0.352  0.2823 -0.3008  0.1715
  166TIP3    H1  504   5.914   1.660   0.299 -0.3211  0.1099  1.0948
  166TIP3    H2  505   5.992   1.568   0.391  1.7460 -1.3856 -1.9920
  167TIP3   OH2  506   6.307   1.967   2.112  0.0871  0.1466 -0.0940
  167TIP3    H1  507   6.293   1.872   2.103  2.4344 -0.2016 -0.6600
  167TIP3    H2  508   6.324   1.997   2.022 -1.0943  1.2355  0.0116
  168TIP3   OH2  509   1.733   1.281   2.463  0.2048 -0.0421 -0.2085
  168TIP3    H1  510   1.826   1.262   2.451  0.3848  0.4198  0.4020
  168TIP3    H2  511   1.690   1.238   2.389  0.8872 -0.3752 -0.4204
  169TIP3   OH2  512   5.478   1.525   2.124  0.5945  0.1741  0.0967
  169TIP3    H1  513   5.498   1.437   2.157 -1.9495  0.3147  2.2918
  169TIP3    H2  514   5.513   1.584   2.191 -0.6273  0.6606  0.3358
  170TIP3   OH2  515   4.164   5.336   4.298 -0.1811  0.2051  0.7993
  170TIP3    H1  516   4.119   5.256   4.326 -1.3625  0.8314  0.7180
  170TIP3    H2  517   4.120   5.407   4.344  1.5233  0.7493  1.6577
  171TIP3   OH2  518   2.309   5.717   1.055  0.0812 -0.2894 -0.0292
  171TIP3    H1  519   2.273   5.778   0.990  1.8089 -0.4167 -1.1791
  171TIP3    H2  520   2.321   5.771   1.133 -0.6098  0.2596 -0.2884
  172TIP3   OH2  521   0.174   5.398   0.568 -0.0320  0.0168 -0.3356
  172TIP3    H1  522   0.258   5.443   0.572 -0.5141  0.9207  0.0244
  172TIP3    H2  523   0.111   5.461   0.603 -0.9007 -0.5405 -0.8329
  173TIP3   OH2  524   1.112   4.816   4.687 -0.0525  0.4898 -0.2566
  173TIP3    H1  525   1.029   4.782   4.719  0.2398  0.2334  0.2331
  173TIP3    H2  526   1.163   4.837   4.765 -0.0219  1.5765 -0.5418
  174TIP3   OH2  527   3.731   2.744   3.928  0.5533 -0.0307  0.3044
  174TIP3    H1  528   3.680   2.736   3.848 -0.1853  0.2717  0.7369
  174TIP3    H2  529   3.751   2.838   3.935  0.4784 -0.0325  0.5584
  175TIP3   OH2  530   0.996   4.609   4.865  0.1485  0.1997 -0.2261
  175TIP3    H1  531   0.904   4.622   4.887  0.1237 -0.9501  0.3819
  175TIP3    H2  532   0.999   4.526   4.817  0.7986  0.4852 -0.7039
  176TIP3   OH2  533   5.245   0.186   0.214  0.1777 -0.2580 -0.1882
  176TIP3    H1  534   5.238   0.280   0.232  0.6710  0.1723 -2.0528
  176TIP3    H2  535   5.333   0.163   0.245  0.6230  0.2371 -1.0538
  177TIP3   OH2  536   6.119   1.329   4.074  0.0297 -0.8117 -0.5513
  177TIP3    H1  537   6.196   1.292   4.032  0.5881 -0.5994  0.2653
  177TIP3    H2  538   6.152   1.369   4.155 -0.5306  1.4237 -1.3384
  178TIP3   OH2  539   4.294   0.905   3.058 -0.3694  0.1048  0.2003
  178TIP3    H1  540   4.298   0.989   3.014 -0.3930 -0.5554 -1.1218
  178TIP3    H2  541   4.209   0.868   3.034  0.0658 -0.7383 -0.1190
  179TIP3   OH2  542   3.564   2.748   0.814 -0.5139 -0.5211  0.1920
  179TIP3    H1  543   3.559   2.744   0.719 -0.6983  1.0203  0.1118
  179TIP3    H2  544   3.539   2.660   0.843  2.4798 -2.0042 -1.2389
  180TIP3   OH2  545   4.268   4.053   2.313  0.4878 -0.3686  0.0801
  180TIP3    H1  546   4.328   4.080   2.243 -0.1977  2.7519  0.5213
  180TIP3    H2  547   4.181   4.060   2.273  0.1475  0.5846  0.9316
  181TIP3   OH2  548   3.032   3.554   2.684  0.2004 -0.2637 -0.0880
  181TIP3    H1  549   3.002   3.602   2.606  0.9462 -0.1237 -0.2903
  181TIP3    H2  550   2.954   3.550   2.740  0.7288  3.6158  1.2004
  182TIP3   OH2  551   2.613   0.134   0.290 -0.3045  0.1140 -0.2352
  182TIP3    H1  552   2.629   0.049   0.331  0.4471 -0.2628 -1.2724
  182TIP3    H2  553   2.519   0.136   0.276 -0.7089  0.5932  2.1930
  183TIP3   OH2  554   5.977   3.793   3.464  0.2493  0.3644 -0.5052
  183TIP3    H1  555   6.018   3.879   3.452  0.1683  0.3201 -1.1495
  183TIP3    H2  556   5.884   3.811   3.475  0.0838  0.2997 -1.7044
  184TIP3   OH2  557   5.063   3.642   1.921 -0.4993 -0.1500  0.6865
  184TIP3    H1  558   5.052   3.636   2.016  0.0591  0.7224  0.8246
  184TIP3    H2  559   5.029   3.729   1.899  0.8177  0.3023  0.3290
  185TIP3   OH2  560   3.738   0.907   2.292 -0.0429  0.0782 -0.4797
  185TIP3    H1  561   3.689   0.825   2.281 -0.7636  0.4415 -0.0741
  185TIP3    H2  562   3.719   0.933   2.382 -0.0583  0.8484 -0.7052
  186TIP3   OH2  563   2.548   1.530   1.360 -0.1233  0.3496 -0.2581
  186TIP3    H1  564   2.474   1.471   1.347  0.8231 -1.1945  0.9688
  186TIP3    H2  565   2.619   1.490   1.308  0.5422  0.3858  0.6049
  187TIP3   OH2  566   0.724   1.837   4.578  0.9774 -0.0453 -0.4498
  187TIP3    H1  567   0.696   1.914   4.528  1.1427 -0.5154 -1.2851
  187TIP3    H2  568   0.781   1.789   4.518  2.1341 -0.0364  0.5954
  188TIP3   OH2  569   5.739   5.637   2.198 -0.4814  0.1794  0.4024
  188TIP3    H1  570   5.792   5.578   2.145  0.6709  0.7055  0.9219
  188TIP3    H2  571   5.663   5.585   2.224 -0.0977 -0.6839 -0.1495
  189TIP3   OH2  572   4.201   4.238   4.867 -0.0760 -0.1695 -0.1726
  189TIP3    H1  573   4.190   4.299   4.793  0.4689  0.8627  0.5831
  189TIP3    H2  574   4.295   4.234   4.881 -0.0441 -1.7202 -0.6134
  190TIP3   OH2  575   0.200   2.382   1.307  0.3382  0.4901  0.6968
  190TIP3    H1  576   0.287   2.372   1.269 -0.7813  0.5247 -2.1456
  190TIP3    H2  577   0.142   2.331   1.249 -1.5738  0.6101  2.3769
  191TIP3   OH2  578   1.834   0.271   5.161 -0.7041 -0.0330  0.0902
  191TIP3    H1  579   1.800   0.254   5.249 -1.0742  0.3417  0.0180
  191TIP3    H2  580   1.849   0.184   5.124  0.7833 -0.2146  1.0288
  192TIP3   OH2  581   1.034   5.821   3.376  0.1554 -0.2310  0.0358
  192TIP3    H1  582   1.031   5.873   3.456 -1.2332 -1.3265  0.7319
  192TIP3    H2  583   0.967   5.860   3.320  0.2955 -0.2107 -0.1173
  193TIP3   OH2  584   2.767   1.244   2.032 -0.5009 -0.4620 -0.0750
  193TIP3    H1  585   2.820   1.169   2.060 -1.6739 -1.4216 -0.3754
  193TIP3    H2  586   2.723   1.273   2.112  0.2757  0.2191  0.1340
  194TIP3   OH2  587   2.260   5.360   5.173 -0.0515 -0.1951 -0.2200
  194TIP3    H1  588   2.171   5.330   5.191 -0.3350  0.3017 -0.7569
  194TIP3    H2  589   2.249   5.434   5.114  0.7259 -0.1616 -0.3356
  195TIP3   OH2  590   4.458   2.288   4.524 -0.1087 -0.1934  0.2326
  195TIP3    H1  591   4.402   2.251   4.456 -0.3911  0.5184  0.0623
  195TIP3    H2  592   4.500   2.213   4.565  0.0239 -0.6430 -0.6923
  196TIP3   OH2  593   3.426   2.142   1.210 -0.0067 -0.0137  0.6637
  196TIP3    H1  594   3.391   2.083   1.277  1.1173  0.3006  1.5728
  196TIP3    H2  595   3.511   2.105   1.187  0.4374  0.8866  0.7928
  197TIP3   OH2  596   2.359   3.248   5.001  0.4486  0.0947 -0.3506
  197TIP3    H1  597   2.288   3.255   5.065  0.9284  1.3293  0.0786
  197TIP3    H2  598   2.439   3.254   5.053  0.8460  2.0881 -1.1050
  198TIP3   OH2  599   2.787   5.106   0.188 -0.0139 -0.1567  0.0658
  198TIP3    H1  600   2.808   5.112   0.281  0.9127  1.2057 -0.1906
  198TIP3    H2  601   2.872   5.108   0.144 -0.4243 -1.1010 -0.8126
  199TIP3   OH2  602   1.950   5.110   3.668  0.2226  0.3577 -0.0854
  199TIP3    H1  603   1.944   5.152   3.582 -0.6956 -0.0494 -0.2381
  199TIP3    H2  604   1.896   5.031   3.660  2.0576 -0.9919  0.1223
  200TIP3   OH2  605   0.268   1.495   1.652  0.2412  0.3787  0.4316
  200TIP3    H1  606   0.186   1.471   1.696  1.2275 -0.9449  1.6027
  200TIP3    H2  607   0.243   1.503   1.560 -1.0252 -0.9872  0.6124
  201TIP3   OH2  608   2.469   5.001   0.286 -0.0836 -0.2560  0.1570
  201TIP3    H1  609   2.542   4.990   0.347 -1.3720 -1.5546  1.5683
  201TIP3    H2  610   2.439   5.091   0.302 -0.8048 -0.7728  1.9944
  202TIP3   OH2  611   1.320   5.106   2.782  0.0549  0.2828 -0.4268
  202TIP3    H1  612   1.235   5.062   2.783  0.1312  0.1221 -1.0651
  202TIP3    H2  613   1.316   5.165   2.707  0.3019  0.6923 -0.1271
  203TIP3   OH2  614   0.529   1.373   5.162  0.0666 -0.3420 -0.6618
  203TIP3    H1  615   0.438   1.397   5.143 -0.2204 -1.1980 -0.3929
  203TIP3    H2  616   0.580   1.423   5.099 -0.6195 -0.1439 -1.0724
  204TIP3   OH2  617   0.570   4.839   3.965 -0.3655  0.2520 -0.2637
  204TIP3    H1  618   0.476   4.845   3.982 -0.4388 -0.8664 -0.1668
  204TIP3    H2  619   0.577   4.768   3.901  0.5080 -0.6647  0.8007
  205TIP3   OH2  620   1.172   0.672   2.712  0.3925  0.3274  0.3104
  205TIP3    H1  621   1.137   0.639   2.629  0.5735  0.8755  0.0048
  205TIP3    H2  622   1.228   0.602   2.744  3.0950  1.3357 -1.7515
  206TIP3   OH2  623   1.391   5.095   4.397  0.0361 -0.2470  0.3533
  206TIP3    H1  624   1.303   5.133   4.400 -0.2505 -0.6160 -1.6134
  206TIP3    H2  625   1.444   5.160   4.351 -0.0543 -1.4051 -1.4946
  207TIP3   OH2  626   3.799   1.297   1.340  0.5424  0.8305  0.0612
  207TIP3    H1  627   3.865   1.271   1.404  1.4380  0.9549 -0.7986
  207TIP3    H2  628   3.809   1.392   1.333  2.1693  0.5743 -2.0603
  208TIP3   OH2  629   3.418   1.007   3.785  0.2106  0.5007 -0.0758
  208TIP3    H1  630   3.479   1.058   3.838  2.0157  0.7153 -2.2075
  208TIP3    H2  631   3.417   0.921   3.826  1.1056  0.8077  0.6234
  209TIP3   OH2  632   3.327   5.512   0.786 -0.2361 -0.2065 -0.2277
  209TIP3    H1  633   3.391   5.442   0.776 -0.9553 -0.9144  0.0611
  209TIP3    H2  634   3.265   5.498   0.714 -1.2124 -0.7783  0.7030
  210TIP3   OH2  635   3.483   2.582   3.151  0.0140 -0.2181  0.1020
  210TIP3    H1  636   3.428   2.564   3.075 -1.3688  0.4500  0.9116
  210TIP3    H2  637   3.436   2.545   3.225  0.6900  0.3050  0.8164
  211TIP3   OH2  638   3.726   1.736   1.090  0.1046 -1.0807 -0.0976
  211TIP3    H1  639   3.651   1.677   1.081  1.0780 -2.3654 -0.1912
  211TIP3    H2  640   3.801   1.682   1.065  1.0676  0.1505  0.0575
  212TIP3   OH2  641   0.640   2.443   3.735  0.0789 -0.1765  0.1721
  212TIP3    H1  642   0.695   2.521   3.747 -0.4544  0.1016  0.8739
  212TIP3    H2  643   0.555   2.469   3.770 -0.7750 -0.2875 -1.6890
  213TIP3   OH2  644   2.224   1.054   1.894 -0.2868  0.1471  0.4831
  213TIP3    H1  645   2.283   1.128   1.879 -0.8430  0.6405  0.7088
  213TIP3    H2  646   2.178   1.044   1.811  0.1207 -0.2568  0.2975
  214TIP3   OH2  647   5.645   0.502   1.754 -0.0341  0.2666  0.0497
  214TIP3    H1  648   5.604   0.442   1.816  2.1903 -0.2222  1.1772
  214TIP3    H2  649   5.577   0.521   1.689 -1.8777 -0.6657  1.6137
  215TIP3   OH2  650   1.234   3.542   1.908  0.3214 -0.5847 -0.5929
  215TIP3    H1  651   1.307   3.604   1.916  0.3306  0.0154 -3.8615
  215TIP3    H2  652   1.162   3.584   1.955  0.9054  0.9595 -1.0079
  216TIP3   OH2  653   2.231   4.779   4.161  0.3777  0.0918 -0.0352
  216TIP3    H1  654   2.193   4.727   4.232  0.5124  0.4568  0.3089
  216TIP3    H2  655   2.299   4.723   4.124  0.4384 -0.0235  0.2511
  217TIP3   OH2  656   5.492   2.140   5.120 -0.0598  0.1529 -0.9395
  217TIP3    H1  657   5.418   2.105   5.169  1.1010  0.6243  1.3111
  217TIP3    H2  658   5.469   2.232   5.104  0.6648  0.7868  1.2784
  218TIP3   OH2  659   5.484   5.849   0.256 -0.2276 -0.6707  0.5709
  218TIP3    H1  660   5.400   5.818   0.221  0.8275 -0.1537 -2.7514
  218TIP3    H2  661   5.523   5.772   0.297 -1.6956 -1.2491  0.9494
  219TIP3   OH2  662   2.912   3.716   2.441 -0.0435 -0.5824 -0.8057
  219TIP3    H1  663   2.893   3.806   2.466 -0.0415 -1.2120  1.6708
  219TIP3    H2  664   2.831   3.668   2.457 -0.1711 -0.9874 -2.4744
  220TIP3   OH2  665   0.686   3.110   2.024  0.1306 -0.2504 -0.0534
  220TIP3    H1  666   0.750   3.117   2.095  0.7877 -0.6902 -0.5847
  220TIP3    H2  667   0.740   3.099   1.945 -0.5368  1.3835 -0.7848
  221TIP3   OH2  668   2.350   3.791   1.484  0.3321 -0.1400 -0.4951
  221TIP3    H1  669   2.329   3.844   1.560  2.3652 -0.8550  0.6428
  221TIP3    H2  670   2.334   3.848   1.409  0.5760  1.4090  0.5902
  222TIP3   OH2  671   0.665   4.197   3.648  0.4078  0.3566 -0.1141
  222TIP3    H1  672   0.643   4.226   3.736 -0.9384 -1.3857  0.2014
  222TIP3    H2  673   0.685   4.277   3.600 -3.4523  1.9129  0.5274
  223TIP3   OH2  674   4.795   1.965   4.983  0.2712  0.5160  0.9136
  223TIP3    H1  675   4.803   1.989   4.890 -1.1369 -0.9528  0.3756
  223TIP3    H2  676   4.865   2.015   5.026  1.7401  0.3214 -1.0904
  224TIP3   OH2  677   0.338   3.411   1.181 -0.2617  0.1579  0.0924
  224TIP3    H1  678   0.243   3.416   1.190 -0.1428  1.8717  0.9302
  224TIP3    H2  679   0.371   3.435   1.268  0.9290 -0.3647 -0.2063
  225TIP3   OH2  680   1.580   4.672   3.679  0.0190  0.2090 -0.2940
  225TIP3    H1  681   1.552   4.610   3.611  0.2107 -0.5503  0.2997
  225TIP3    H2  682   1.533   4.645   3.757  1.8017 -0.6429  0.5430
  226TIP3   OH2  683   5.896   3.897   3.749  0.2458  0.4737 -0.1527
  226TIP3    H1  684   5.971   3.842   3.727 -0.6964 -0.2381 -1.7868
  226TIP3    H2  685   5.892   3.896   3.845  1.2613 -0.9009 -0.0999
  227TIP3   OH2  686   1.199   0.125   0.010 -0.2384 -0.3207  0.5408
  227TIP3    H1  687   1.139   0.166   0.073 -1.0452 -0.3661 -0.1772
  227TIP3    H2  688   1.253   0.197  -0.022 -1.0698  0.0476 -0.0740
  228TIP3   OH2  689   1.254   1.498   2.163 -0.4539 -0.1317 -0.5492
  228TIP3    H1  690   1.264   1.418   2.214  0.8780  0.6064  0.3837
  228TIP3    H2  691   1.213   1.560   2.223 -3.1193 -0.5680 -1.7812
  229TIP3   OH2  692   3.211   5.144   1.014 -0.2732  0.5182  0.0023
  229TIP3    H1  693   3.175   5.232   1.004 -1.0658  0.1147 -0.9676
  229TIP3    H2  694   3.285   5.141   0.954  0.3814  0.8278  0.7785
  230TIP3   OH2  695   1.811   3.771   4.669 -0.1436 -0.6088 -0.2526
  230TIP3    H1  696   1.890   3.730   4.704 -0.0304  0.1043  0.3585
  230TIP3    H2  697   1.812   3.749   4.576  0.5116 -1.0170 -0.1584
  231TIP3   OH2  698  -0.031   5.437   4.798 -0.1611 -0.4093 -0.0646
  231TIP3    H1  699   0.001   5.385   4.724 -0.6397  0.1682 -0.6901
  231TIP3    H2  700   0.042   5.437   4.860  0.3406 -0.7005 -0.6373
  232TIP3   OH2  701   5.355   2.365   5.026  0.5850 -0.2385  0.6423
  232TIP3    H1  702   5.357   2.461   5.030  0.2453 -0.1853 -0.2410
  232TIP3    H2  703   5.340   2.345   4.934  0.0600 -1.1371  0.9090
  233TIP3   OH2  704   2.686   1.757   3.925 -0.0338  0.1642  0.3437
  233TIP3    H1  705   2.615   1.698   3.951  0.5113 -0.0766  1.3193
  233TIP3    H2  706   2.659   1.842   3.959 -0.5104  0.3572 -0.4986
  234TIP3   OH2  707   0.374   4.735   0.104  0.7905  0.8291 -0.2263
  234TIP3    H1  708   0.335   4.797   0.042 -0.6798 -1.8375 -2.1903
  234TIP3    H2  709   0.463   4.722   0.071  0.5569  0.6543 -0.7990
  235TIP3   OH2  710   1.665   5.337   4.881 -0.0683 -0.8765  0.3940
  235TIP3    H1  711   1.694   5.251   4.913  0.0761 -0.8574  0.3166
  235TIP3    H2  712   1.736   5.396   4.903  1.5155 -1.4094 -2.6777
  236TIP3   OH2  713   1.137   0.760   2.048 -0.4698  0.3994  0.9226
  236TIP3    H1  714   1.119   0.688   2.108 -2.1394  0.7825  0.9492
  236TIP3    H2  715   1.084   0.741   1.970  1.1906  0.2185 -0.2192
  237TIP3   OH2  716   1.098   0.548   3.862  0.0956  0.0700  0.1953
  237TIP3    H1  717   1.060   0.575   3.778 -1.9361  0.8011  1.3007
  237TIP3    H2  718   1.135   0.628   3.899  0.3598 -0.1082  0.3212
  238TIP3   OH2  719   0.697   0.186   2.036  0.4156 -0.2670 -0.2309
  238TIP3    H1  720   0.662   0.121   1.975 -0.4917  0.4381 -0.4740
  238TIP3    H2  721   0.697   0.268   1.987  1.5137 -0.0537  0.0891
  239TIP3   OH2  722   3.507   5.187   4.727 -0.3032 -0.3187  0.1765
  239TIP3    H1  723   3.504   5.225   4.639  3.2399  1.1728  0.5222
  239TIP3    H2  724   3.418   5.157   4.743 -1.6986  1.6090 -2.9146
  240TIP3   OH2  725   0.600   0.358   4.198  0.1757 -0.1272 -0.0931
  240TIP3    H1  726   0.563   0.411   4.268  0.9965 -0.5386  0.6608
  240TIP3    H2  727   0.526   0.305   4.166 -0.7144  1.5534 -0.9944
  241TIP3   OH2  728   5.532   0.243   0.920 -0.1045  0.4519  0.3859
  241TIP3    H1  729   5.513   0.219   1.011 -0.9132 -0.3669  0.0222
  241TIP3    H2  730   5.451   0.223   0.873  0.3812  0.6544 -0.5591
  242TIP3   OH2  731   6.109   3.004   3.071  0.3250  0.1784 -0.0317
  242TIP3    H1  732   6.122   2.960   2.987 -1.8179 -0.6667  0.0406
  242TIP3    H2  733   6.080   2.935   3.130 -0.6703  1.2353  0.7435
  243TIP3   OH2  734   0.558   4.098   1.118  1.0894  0.0478 -0.0699
  243TIP3    H1  735   0.584   4.157   1.189  0.4336  0.0680  0.1546
  243TIP3    H2  736   0.464   4.111   1.108  0.7044 -1.7792  0.7388
  244TIP3   OH2  737   0.727   4.617   4.900  0.2466 -0.4044 -0.5569
  244TIP3    H1  738   0.647   4.668   4.907 -1.0321 -2.4757  1.3105
  244TIP3    H2  739   0.708   4.553   4.831  0.4893 -0.5865 -0.4559
  245TIP3   OH2  740   1.676   4.919   2.169  0.1282 -0.0590  0.1075
  245TIP3    H1  741   1.700   5.012   2.163 -0.7654  0.1702 -0.1581
  245TIP3    H2  742   1.592   4.914   2.123  0.4813 -1.1218 -0.4439
  246TIP3   OH2  743   3.799   2.307   1.035  0.3710  0.2346  0.5585
  246TIP3    H1  744   3.867   2.349   0.982 -0.0580 -0.7839 -0.9010
  246TIP3    H2  745   3.804   2.214   1.009  2.0053 -0.9300  4.4013
  247TIP3   OH2  746   0.170   4.403   3.756  0.1454  0.5603 -0.0786
  247TIP3    H1  747   0.166   4.337   3.824 -3.5997 -0.1076 -0.7550
  247TIP3    H2  748   0.133   4.360   3.678 -0.2249  2.7312 -1.1811
  248TIP3   OH2  749   0.048   2.650   2.151  0.4817 -0.5251 -0.6171
  248TIP3    H1  750   0.018   2.734   2.187  1.3183 -0.0968 -0.9067
  248TIP3    H2  751   0.091   2.673   2.069 -2.4892 -1.5913 -2.6295
  249TIP3   OH2  752   3.505   1.185   3.962 -0.0162  0.6829 -0.0723
  249TIP3    H1  753   3.569   1.183   3.891 -0.5599  1.4488 -0.6078
  249TIP3    H2  754   3.487   1.278   3.975 -1.5311  0.4766 -0.4325
  250TIP3   OH2  755   2.839   4.293   1.146 -0.2410  0.7759 -0.3266
  250TIP3    H1  756   2.830   4.354   1.073  1.2280  1.7180  0.2355
  250TIP3    H2  757   2.756   4.299   1.193 -0.3059  1.9544 -0.5679
  251TIP3   OH2  758   1.584   5.192   4.155  0.6420 -0.0330  0.1286
  251TIP3    H1  759   1.556   5.260   4.216 -0.7804  1.4556 -2.0133
  251TIP3    H2  760   1.680   5.201   4.152  0.5490  1.3727  0.4975
  252TIP3   OH2  761   5.664   5.476   5.027 -0.9400  0.2550  0.0964
  252TIP3    H1  762   5.581   5.460   5.072 -0.3005  0.7644  1.5246
  252TIP3    H2  763   5.639   5.510   4.941 -2.2044 -0.4625  0.1631
  253TIP3   OH2  764   1.782   4.778   4.821 -0.3530 -0.0521 -0.0146
  253TIP3    H1  765   1.729   4.824   4.756 -0.6621  0.4445  0.5826
  253TIP3    H2  766   1.846   4.728   4.769 -1.5997 -0.9176 -0.7545
  254TIP3   OH2  767   1.843   2.965   1.841 -0.7640 -0.1356  0.3248
  254TIP3    H1  768   1.927   2.939   1.805 -1.0330 -0.2182 -0.2621
  254TIP3    H2  769   1.799   3.011   1.768 -1.2202 -0.0903  0.6241
  255TIP3   OH2  770   0.229   4.929   1.812 -0.0296  0.2945  0.0036
  255TIP3    H1  771   0.228   4.906   1.905  0.4323  1.3033  0.2677
  255TIP3    H2  772   0.249   5.023   1.811  0.2893  0.2205 -1.1249
  256TIP3   OH2  773   2.089   3.072   2.717  0.1221 -0.2324 -0.9779
  256TIP3    H1  774   2.030   2.999   2.735  1.6902 -1.1774  0.5890
  256TIP3    H2  775   2.032   3.149   2.720 -1.2844 -1.2147 -1.0739
  257TIP3   OH2  776   3.868   3.651   3.431  0.0165  0.0802  0.0320
  257TIP3    H1  777   3.843   3.567   3.393 -1.5718  0.9989 -1.0694
  257TIP3    H2  778   3.884   3.632   3.524 -3.0313 -0.9984  0.4533
  258TIP3   OH2  779   0.707   0.925   1.999  0.3946 -0.0987 -0.4063
  258TIP3    H1  780   0.662   0.896   1.919 -0.2482 -0.9961  0.2684
  258TIP3    H2  781   0.786   0.969   1.966 -0.1521  0.0780 -1.5547
  259TIP3   OH2  782   3.668   1.774   2.601 -0.3054  0.6890 -0.5309
  259TIP3    H1  783   3.733   1.840   2.576  2.1662 -1.1662  0.4703
  259TIP3    H2  784   3.652   1.724   2.521 -0.1957  0.9570 -0.7185
  260TIP3   OH2  785   5.327   4.538   4.734  0.3261 -0.2675 -0.2226
  260TIP3    H1  786   5.393   4.491   4.785 -0.6960 -2.3532 -0.6862
  260TIP3    H2  787   5.340   4.507   4.644  0.3970  1.3260 -0.7862
  261TIP3   OH2  788   5.183   5.897   0.741  0.4264  0.0165  0.2678
  261TIP3    H1  789   5.087   5.895   0.737  0.4464 -0.0878 -0.2952
  261TIP3    H2  790   5.207   5.812   0.776  0.2287  0.9921  3.0015
  262TIP3   OH2  791   2.485   0.742   3.633  0.1000  0.0443  0.6918
  262TIP3    H1  792   2.578   0.737   3.611 -0.3268  0.7145 -1.5589
  262TIP3    H2  793   2.471   0.834   3.655 -0.1687  0.1219  0.2144
  263TIP3   OH2  794   3.226   0.535   0.611 -0.3971 -0.4417  0.4869
  263TIP3    H1  795   3.195   0.620   0.641  1.5402  0.4736  0.0500
  263TIP3    H2  796   3.190   0.526   0.523 -1.7406 -0.7360  1.0417
  264TIP3   OH2  797   4.465   2.657   1.016  0.0106  0.1222  0.2349
  264TIP3    H1  798   4.506   2.741   1.038 -1.6932  0.5002  2.2764
  264TIP3    H2  799   4.399   2.680   0.951 -0.0307  0.2408  0.3185
  265TIP3   OH2  800   2.011   4.034   0.163 -0.2269  0.1371  0.1112
  265TIP3    H1  801   2.054   3.982   0.096  2.2836  1.0517  0.8918
  265TIP3    H2  802   2.012   3.979   0.241  0.8068  0.6451  0.4751
  266TIP3   OH2  803   5.955   5.265   2.322  0.4802 -0.0970  0.2834
  266TIP3    H1  804   5.895   5.194   2.344 -0.9295  0.7651 -0.6127
  266TIP3    H2  805   6.029   5.221   2.278  0.1234 -1.0926  0.6506
  267TIP3   OH2  806   5.562   5.044   3.830  0.3187 -0.0932  0.3955
  267TIP3    H1  807   5.479   5.088   3.811  0.2808  0.0078  0.7739
  267TIP3    H2  808   5.621   5.115   3.858 -0.2149 -0.4431  2.5856
  268TIP3   OH2  809   0.443   1.583   2.804 -0.0270 -0.1836 -0.2917
  268TIP3    H1  810   0.517   1.529   2.776 -0.9539 -1.7482  0.1563
  268TIP3    H2  811   0.465   1.609   2.893  1.1825  1.6282 -1.0647
  269TIP3   OH2  812   1.223   3.762   4.000  0.3041  0.3819 -0.6149
  269TIP3    H1  813   1.153   3.709   4.037 -0.5779  1.6964 -0.3354
  269TIP3    H2  814   1.182   3.811   3.929 -0.1598  3.9511  1.8119
  270TIP3   OH2  815   3.475   2.948   5.063 -0.7077  0.0678 -0.3161
  270TIP3    H1  816   3.434   2.994   5.137 -0.6066 -0.5525  0.1358
  270TIP3    H2  817   3.476   2.856   5.090  1.6231  0.1368  0.0139
  271TIP3   OH2  818   0.392   0.875   3.712  0.3232  0.1934 -0.6777
  271TIP3    H1  819   0.314   0.918   3.677  0.5575  1.0370 -0.2133
  271TIP3    H2  820   0.358   0.817   3.780  0.0202 -0.1494 -1.1175
  272TIP3   OH2  821   3.957   5.379   5.023 -0.4632 -0.1115 -0.4748
  272TIP3    H1  822   3.941   5.432   5.101 -0.9288  0.7372 -1.1308
  272TIP3    H2  823   3.986   5.294   5.057 -1.0234  0.1225  0.6263
  273TIP3   OH2  824   5.169   5.829   2.444 -0.0515  0.1692  0.1974
  273TIP3    H1  825   5.250   5.879   2.458  0.0168 -0.3558  1.8906
  273TIP3    H2  826   5.116   5.886   2.389  0.7808  1.2952  0.5154
  274TIP3   OH2  827   6.237   2.289   3.970 -0.3701 -0.5048  0.1317
  274TIP3    H1  828   6.286   2.272   4.051  0.5457  0.3351 -0.2193
  274TIP3    H2  829   6.294   2.258   3.901 -1.1791 -1.2724 -0.1995
  275TIP3   OH2  830   3.267   4.243   3.376 -0.3350  0.0309 -0.1728
  275TIP3    H1  831   3.241   4.334   3.393 -1.0480 -0.0657 -0.7059
  275TIP3    H2  832   3.208   4.191   3.431  0.0042 -0.1169  0.0534
  276TIP3   OH2  833   3.355   5.045   3.405  0.3515  0.3242 -0.4452
  276TIP3    H1  834   3.308   5.068   3.325  0.3469 -2.7062 -1.4313
  276TIP3    H2  835   3.335   4.953   3.420  2.6137  0.0268  1.4847
  277TIP3   OH2  836   3.362   5.043   0.743 -0.2599 -0.5123 -0.1557
  277TIP3    H1  837   3.370   5.138   0.737 -0.1050 -0.4959  0.2664
  277TIP3    H2  838   3.441   5.010   0.700  0.3949 -0.4148  0.9153
  278TIP3   OH2  839   2.449   0.993   0.952  0.2068  0.3478 -0.2430
  278TIP3    H1  840   2.529   1.046   0.945  0.5659  0.0890  1.5958
  278TIP3    H2  841   2.476   0.905   0.926  0.3375  0.4184 -0.3489
  279TIP3   OH2  842   5.542   2.041   1.126 -0.1004 -0.0777 -0.6048
  279TIP3    H1  843   5.507   2.057   1.038 -1.0453 -0.6813 -0.3560
  279TIP3    H2  844   5.465   2.048   1.183  0.4527  0.0053  0.1347
  280TIP3   OH2  845   5.544   1.005   4.049  0.1835  0.1519 -0.1282
  280TIP3    H1  846   5.591   0.949   3.987  2.1047 -0.6306  1.8954
  280TIP3    H2  847   5.610   1.031   4.113 -1.4321  1.9407  0.9222
  281TIP3   OH2  848   5.880   5.325   0.445  0.3286  0.0841 -0.1702
  281TIP3    H1  849   5.868   5.244   0.494 -0.3146  0.4862  0.3578
  281TIP3    H2  850   5.824   5.389   0.490  0.3996  0.6810 -0.9052
  282TIP3   OH2  851   2.990   4.766   3.334 -0.2736  0.6675  0.6450
  282TIP3    H1  852   2.982   4.787   3.241 -0.4435 -1.1236  0.2298
  282TIP3    H2  853   2.909   4.798   3.373 -0.0249  1.8012  0.2855
  283TIP3   OH2  854   4.007   0.500   5.175  0.4065  0.2387 -0.6135
  283TIP3    H1  855   4.081   0.456   5.133 -0.5539 -0.5704 -1.5095
  283TIP3    H2  856   4.010   0.590   5.142 -0.4966 -0.4522 -2.7010
  284TIP3   OH2  857   5.323   1.159   0.355 -0.3093 -0.6186 -0.1365
  284TIP3    H1  858   5.337   1.234   0.413 -1.3868 -0.3613 -0.1801
  284TIP3    H2  859   5.375   1.179   0.277 -1.0665  0.4027 -0.4052
  285TIP3   OH2  860   3.594   5.227   2.980 -0.4086  0.3188  0.2875
  285TIP3    H1  861   3.560   5.285   2.913  0.8594  1.4205  0.5450
  285TIP3    H2  862   3.684   5.209   2.953 -0.1407  0.1192  1.2687
  286TIP3   OH2  863   3.351   4.235   0.033  0.2703  0.4950 -0.2041
  286TIP3    H1  864   3.361   4.210  -0.058  0.0752  0.8138 -0.3150
  286TIP3    H2  865   3.257   4.229   0.050  0.3940 -0.4530  0.2386
  287TIP3   OH2  866   2.190   2.697   2.771 -0.3347 -0.2992 -0.1897
  287TIP3    H1  867   2.261   2.667   2.828 -0.9162  1.3296  1.4948
  287TIP3    H2  868   2.234   2.743   2.700  0.3434 -0.6175  0.0137
  288TIP3   OH2  869   0.403   4.215   2.563  0.7954 -0.8853  0.0308
  288TIP3    H1  870   0.473   4.256   2.511  0.5521 -0.1296  0.2832
  288TIP3    H2  871   0.340   4.286   2.577 -0.4875 -1.7826 -0.9901
  289TIP3   OH2  872   2.185   5.016   0.384  0.4643  0.0948  0.3070
  289TIP3    H1  873   2.209   5.108   0.387 -0.3131  0.2870  1.9685
  289TIP3    H2  874   2.261   4.972   0.347  1.3415  1.2447  0.6911
  290TIP3   OH2  875   1.856   5.245   4.126 -0.5378 -0.0900  0.4178
  290TIP3    H1  876   1.914   5.318   4.146 -0.5369  0.1751 -0.4926
  290TIP3    H2  877   1.888   5.212   4.041 -0.0288 -1.6580  1.1659
  291TIP3   OH2  878   5.519   3.596   3.020 -0.0119  0.7281  0.8312
  291TIP3    H1  879   5.593   3.550   2.981  0.3512  2.2014 -0.3038
  291TIP3    H2  880   5.511   3.558   3.108  0.6870 -0.9764  0.2036
  292TIP3   OH2  881   2.919   2.036   2.095  0.4008  0.6550 -0.1891
  292TIP3    H1  882   2.867   2.051   2.175 -1.0265 -1.4534 -0.6258
  292TIP3    H2  883   2.861   2.065   2.024  0.1158 -0.9291 -0.6369
  293TIP3   OH2  884   5.345   3.350   2.359  0.2786  0.2048  0.4914
  293TIP3    H1  885   5.427   3.397   2.371  0.3296 -0.0230  1.0462
  293TIP3    H2  886   5.302   3.352   2.444 -1.2221  2.0286 -0.2378
  294TIP3   OH2  887   4.073   1.256   1.392  0.3606  0.6151  0.3374
  294TIP3    H1  888   4.132   1.265   1.467 -0.3061 -2.3507  1.3337
  294TIP3    H2  889   4.131   1.261   1.316  1.7084 -0.5202  1.2331
  295TIP3   OH2  890   5.179   3.987   1.619  0.0423  0.5870 -0.9844
  295TIP3    H1  891   5.096   4.032   1.631 -0.7844 -1.3209  1.4116
  295TIP3    H2  892   5.155   3.898   1.594  1.3885  0.1582 -0.8444
  296TIP3   OH2  893   2.750   1.459   4.223  0.7002 -0.0739 -0.7626
  296TIP3    H1  894   2.781   1.507   4.147 -1.2127  1.5231 -0.6050
  296TIP3    H2  895   2.724   1.373   4.189  0.3344  0.4410 -1.7962
  297TIP3   OH2  896   0.474   2.858   4.353 -0.1361 -0.1117  0.1064
  297TIP3    H1  897   0.386   2.851   4.315 -0.6967 -0.7893  1.4904
  297TIP3    H2  898   0.459   2.877   4.445  1.1314 -1.9898  0.7475
  298TIP3   OH2  899   0.417   4.445   2.281  0.1399  0.1308 -0.3638
  298TIP3    H1  900   0.402   4.429   2.187  0.3809  0.9937 -0.5600
  298TIP3    H2  901   0.457   4.364   2.313 -1.7847 -0.9456 -0.5579
  299TIP3   OH2  902   1.921   3.483   3.217 -0.1802  0.6878  0.1372
  299TIP3    H1  903   1.921   3.494   3.122  1.9159  0.6901  0.0899
  299TIP3    H2  904   2.007   3.514   3.245 -0.8020  0.8276  2.0730
  300TIP3   OH2  905   0.535   4.553   1.211  0.1226 -0.3957  0.0379
  300TIP3    H1  906   0.579   4.555   1.296 -1.3122  1.0856  0.8113
  300TIP3    H2  907   0.587   4.610   1.155  0.0270  0.1432  0.4950
  301TIP3   OH2  908   6.135   5.649   1.912  0.2194  0.2870  0.1428
  301TIP3    H1  909   6.100   5.703   1.983  0.8572  1.4818 -0.4229
  301TIP3    H2  910   6.096   5.563   1.927 -1.3872  1.0475  0.6778
  302TIP3   OH2  911   0.946   0.386   2.913  0.7194  0.5032 -0.3242
  302TIP3    H1  912   1.038   0.367   2.930  0.2781  0.3210  2.3978
  302TIP3    H2  913   0.945   0.475   2.877  1.8961  1.2178  1.2828
  303TIP3   OH2  914   2.845   5.775   2.364 -0.1549 -0.4181 -1.1598
  303TIP3    H1  915   2.890   5.710   2.418 -1.8139  0.5457  1.5105
  303TIP3    H2  916   2.904   5.850   2.362 -0.7225  0.1160  0.6951
  304TIP3   OH2  917   5.072   4.828   3.260  0.2357  0.1999  0.1935
  304TIP3    H1  918   5.151   4.833   3.207  0.7008 -1.8009  0.6070
  304TIP3    H2  919   5.015   4.767   3.213 -0.2239  0.0697  0.9043
  305TIP3   OH2  920   0.204   3.262   2.552 -0.0184  0.2043 -0.2360
  305TIP3    H1  921   0.110   3.270   2.568 -0.0455 -0.8809  0.2289
  305TIP3    H2  922   0.220   3.167   2.551  0.7350  0.2884 -2.2676
  306TIP3   OH2  923   3.378   1.103   4.193 -0.0258 -0.0701 -0.4651
  306TIP3    H1  924   3.464   1.090   4.234 -0.1200  0.3298 -0.1322
  306TIP3    H2  925   3.394   1.166   4.123 -0.1607  0.4793 -0.0034
  307TIP3   OH2  926   4.371   4.842   0.838 -0.1130  0.2312  0.5507
  307TIP3    H1  927   4.466   4.845   0.834 -0.1098 -0.0270  0.4425
  307TIP3    H2  928   4.342   4.905   0.772 -0.0331 -1.8391 -1.5809
  308TIP3   OH2  929   5.945   4.719   1.601 -0.3386 -0.0064  0.6174
  308TIP3    H1  930   5.878   4.667   1.557 -1.1100  1.4311  0.0408
  308TIP3    H2  931   5.992   4.762   1.530  1.0530 -0.7753  1.0296
  309TIP3   OH2  932   5.407   1.386   0.549  0.0517 -0.2173  0.4584
  309TIP3    H1  933   5.494   1.421   0.534 -0.6065  0.8646 -1.0888
  309TIP3    H2  934   5.377   1.429   0.629  0.2978  0.6876  0.0716
  310TIP3   OH2  935   3.758   0.922   4.447 -0.2006  0.4874  0.1788
  310TIP3    H1  936   3.688   0.982   4.421 -1.0705 -0.2653  0.7208
  310TIP3    H2  937   3.733   0.893   4.534  0.3883 -0.3915  0.0658
  311TIP3   OH2  938   1.050   3.091   1.988  0.0055 -0.0837 -0.4391
  311TIP3    H1  939   1.105   3.054   2.057  0.0001  1.2680  0.3187
  311TIP3    H2  940   1.110   3.142   1.934  0.5703 -3.2607 -3.1682
  312TIP3   OH2  941   3.593   2.760   3.692 -0.0890  0.5969  0.1554
  312TIP3    H1  942   3.568   2.688   3.635  0.7172  1.1671 -0.9748
  312TIP3    H2  943   3.639   2.821   3.634  0.7081  1.2345  1.4052
  313TIP3   OH2  944   0.555   1.905   5.094 -0.5563  0.2299  0.4205
  313TIP3    H1  945   0.510   1.989   5.087 -0.6217  0.2308  0.8160
  313TIP3    H2  946   0.520   1.852   5.023 -2.7163 -0.4789  1.9265
  314TIP3   OH2  947   1.412   4.092   1.985  0.1482 -0.1079  0.5913
  314TIP3    H1  948   1.367   4.090   2.070 -0.9804  4.0664  0.3090
  314TIP3    H2  949   1.359   4.150   1.931  3.3606  1.2822 -1.3689
  315TIP3   OH2  950   1.478   3.673   0.638 -0.2855  0.4013 -0.1185
  315TIP3    H1  951   1.505   3.709   0.723 -0.0304 -0.7704  0.3240
  315TIP3    H2  952   1.450   3.749   0.587  0.5156  1.2449  0.6623
  316TIP3   OH2  953   5.197   4.417   4.013 -0.3135  0.9358 -0.4747
  316TIP3    H1  954   5.202   4.379   3.925  2.6492  0.6466 -0.2736
  316TIP3    H2  955   5.287   4.416   4.045 -1.4258 -0.0194  3.0665
  317TIP3   OH2  956   2.182   5.850   1.532 -0.0886 -0.0872  0.6362
  317TIP3    H1  957   2.251   5.864   1.598  0.4280  0.4601 -0.0103
  317TIP3    H2  958   2.112   5.909   1.559  0.3539  0.5645  0.3709
  318TIP3   OH2  959   3.346   3.839   0.682  0.6402 -0.2910  0.3771
  318TIP3    H1  960   3.321   3.894   0.608 -0.6762 -1.1528  0.1598
  318TIP3    H2  961   3.289   3.868   0.754  1.2142 -0.1441  0.7844
  319TIP3   OH2  962   2.707   0.752   1.001  0.1641  0.0516  0.1400
  319TIP3    H1  963   2.745   0.696   1.068 -0.6947 -0.0887  0.5187
  319TIP3    H2  964   2.741   0.839   1.021  1.8112 -0.3679 -0.6806
  320TIP3   OH2  965   6.205   3.280   3.913  0.0918 -0.3025  0.0169
  320TIP3    H1  966   6.212   3.189   3.944 -1.1004 -0.0809  1.0093
  320TIP3    H2  967   6.114   3.304   3.930 -0.3347  0.2642 -2.6091
  321TIP3   OH2  968   0.093   0.167   3.996  0.0659  0.4530  0.1046
  321TIP3    H1  969   0.079   0.074   4.013  0.7383  0.7937  3.2852
  321TIP3    H2  970   0.007   0.207   4.011 -0.0709  0.4362 -0.6019
  322TIP3   OH2  971   6.142   0.833   3.123 -0.5662 -0.2537  0.1299
  322TIP3    H1  972   6.049   0.838   3.101 -0.8144 -3.4021 -0.0288
  322TIP3    H2  973   6.188   0.851   3.041 -1.1030 -0.1616 -0.1492
  323TIP3   OH2  974   6.257   2.052   1.295 -0.2552  0.1026 -0.4889
  323TIP3    H1  975   6.327   1.987   1.283 -1.5744 -1.4835  0.0142
  323TIP3    H2  976   6.258   2.071   1.389  0.3358  1.0807 -0.6848
  324TIP3   OH2  977   2.775   3.399   2.423  0.5437  0.1308 -0.2099
  324TIP3    H1  978   2.861   3.380   2.462  0.1544 -0.4453  0.3883
  324TIP3    H2  979   2.736   3.463   2.482  0.2243 -0.2420 -0.0096
  325TIP3   OH2  980   0.329   1.431   0.761  0.0121  0.0237 -0.3305
  325TIP3    H1  981   0.391   1.496   0.729 -0.6042  0.8257  0.0700
  325TIP3    H2  982   0.250   1.445   0.710 -0.9593  1.2694  1.3931
  326TIP3   OH2  983   2.027   2.838   2.452 -0.1700  0.1170  0.1266
  326TIP3    H1  984   2.002   2.858   2.542 -3.4183  2.0043 -1.0302
  326TIP3    H2  985   1.961   2.775   2.422 -2.7246  3.6392 -2.4367
  327TIP3   OH2  986   0.317   4.682   0.564  0.2195 -0.4809 -0.3423
  327TIP3    H1  987   0.380   4.719   0.625 -0.8150  1.0207 -0.1158
  327TIP3    H2  988   0.365   4.671   0.483  0.4589  2.1254 -0.6415
  328TIP3   OH2  989   0.310   5.196   4.535  0.0622  0.3391 -0.5047
  328TIP3    H1  990   0.363   5.187   4.456  0.4444  3.5096 -0.7491
  328TIP3    H2  991   0.220   5.203   4.503  0.1503  0.9586 -0.6321
  329TIP3   OH2  992   0.910   0.349   4.992  0.1901 -0.6386  0.0428
  329TIP3    H1  993   0.840   0.285   4.988  2.3231 -3.3627  2.1636
  329TIP3    H2  994   0.873   0.422   5.042 -1.2927 -1.7731  0.6699
  330TIP3   OH2  995   1.277   2.372   1.890 -0.7113 -0.1665 -0.0003
  330TIP3    H1  996   1.196   2.419   1.868 -0.7815 -0.0270  0.5410
  330TIP3    H2  997   1.280   2.300   1.827 -1.6613 -0.6257  0.4573
  331TIP3   OH2  998   5.218   1.105   0.618 -0.4433 -0.3214  0.6641
  331TIP3    H1  999   5.245   1.183   0.666  0.8863 -0.5058  0.2599
  331TIP3    H2 1000   5.254   1.117   0.530 -0.9223 -1.0088  0.3686
  332TIP3   OH2 1001   0.122   0.888   3.143  0.2548  0.3563  0.1219
  332TIP3    H1 1002   0.091   0.811   3.190 -1.3881  0.0764 -1.3274
  332TIP3    H2 1003   0.166   0.940   3.210  1.3134 -1.7507  1.1736
  333TIP3   OH2 1004   1.826   4.618   0.438  0.3304 -0.1147  0.0914
  333TIP3    H1 1005   1.833   4.681   0.366 -1.6452  0.6968  0.5257
  333TIP3    H2 1006   1.893   4.645   0.500  1.0244  0.1403 -0.7514
  334TIP3   OH2 1007   2.096   4.409   3.754 -0.1864  0.3856 -0.1658
  334TIP3    H1 1008   2.058   4.429   3.839  0.4923 -2.0182  0.7725
  334TIP3    H2 1009   2.109   4.315   3.755  2.5575  0.6419 -1.7798
  335TIP3   OH2 1010   0.442   1.825   3.098 -0.2000  0.0599 -0.2355
  335TIP3    H1 1011   0.523   1.876   3.099 -0.6696  0.8457 -0.6967
  335TIP3    H2 1012   0.450   1.765   3.172  1.0498 -0.2743 -0.6224
  336TIP3   OH2 1013   4.764   4.511   3.896  0.4652 -0.1899  0.0813
  336TIP3    H1 1014   4.823   4.558   3.838  0.5810  0.4768  0.7361
  336TIP3    H2 1015   4.687   4.492   3.842  1.2673 -1.1062 -0.7890
  337TIP3   OH2 1016   4.411   3.763   3.586 -0.1371 -0.0415 -0.2100
  337TIP3    H1 1017   4.362   3.749   3.505 -0.8762  2.1618 -0.2178
  337TIP3    H2 1018   4.483   3.820   3.560 -1.2071  1.9041  0.8591
  338TIP3   OH2 1019   2.971   0.192   3.638 -0.6815 -0.0119  0.4308
  338TIP3    H1 1020   2.961   0.270   3.693 -0.4987  1.1251 -1.0929
  338TIP3    H2 1021   2.963   0.119   3.699 -0.0331  1.2024  2.0375
  339TIP3   OH2 1022   5.698   2.788   4.539  0.4833  0.7024  0.1386
  339TIP3    H1 1023   5.765   2.752   4.481 -0.0528  2.8023 -1.9210
  339TIP3    H2 1024   5.639   2.836   4.481 -3.1175 -1.3273  1.7753
  340TIP3   OH2 1025   4.756   2.848   4.531  0.2442  0.1450 -0.2415
  340TIP3    H1 1026   4.737   2.873   4.621  2.6448  0.4163  0.2552
  340TIP3    H2 1027   4.677   2.871   4.482 -1.2714 -0.4060  1.8327
  341TIP3   OH2 1028   1.736   1.441   4.656  0.0822  0.4959 -0.1089
  341TIP3    H1 1029   1.793   1.420   4.582  0.4551  0.7199  0.1070
  341TIP3    H2 1030   1.797   1.454   4.730 -0.2452  0.7694  0.1157
  342TIP3   OH2 1031   3.901   1.529   1.065 -0.2809  0.0554  0.4839
  342TIP3    H1 1032   3.922   1.513   1.157 -3.8080 -1.2877  1.2364
  342TIP3    H2 1033   3.920   1.446   1.021 -0.5212  0.0306  0.4249
  343TIP3   OH2 1034   2.428   2.633   2.902  0.0519 -0.2841 -0.3558
  343TIP3    H1 1035   2.497   2.688   2.864  2.7048 -2.6224  0.7139
  343TIP3    H2 1036   2.440   2.642   2.997 -3.1425  1.4842  0.0340
  344TIP3   OH2 1037   5.830   4.837   4.607 -0.3057 -0.3741  0.5049
  344TIP3    H1 1038   5.754   4.881   4.645  0.6106 -0.6500  2.8348
  344TIP3    H2 1039   5.900   4.902   4.611 -0.3227 -0.1962 -1.4012
  345TIP3   OH2 1040   2.281   1.299   4.204 -0.2136 -0.3842 -0.0033
  345TIP3    H1 1041   2.187   1.313   4.211 -0.4861 -1.1034 -1.7960
  345TIP3    H2 1042   2.320   1.381   4.234 -1.4349  0.2519 -0.1196
  346TIP3   OH2 1043   5.144   3.227   4.093  0.2391  0.1566  0.0289
  346TIP3    H1 1044   5.225   3.244   4.045  0.4866 -1.7780 -0.3307
  346TIP3    H2 1045   5.075   3.233   4.027  0.1566  1.1234  0.1952
  347TIP3   OH2 1046   5.092   2.500   3.644 -0.0402  0.2701  0.3438
  347TIP3    H1 1047   5.004   2.470   3.625  0.8583 -2.5470  0.1058
  347TIP3    H2 1048   5.115   2.457   3.727  1.1001  0.9368  0.4004
  348TIP3   OH2 1049   5.273   0.356   3.743 -0.1919 -0.5571  0.0249
  348TIP3    H1 1050   5.266   0.383   3.651  0.7540 -0.2277  0.0403
  348TIP3    H2 1051   5.291   0.437   3.791 -2.1276 -0.4884  0.7107
  349TIP3   OH2 1052   1.679   2.741   1.928 -0.0419 -0.6161 -0.2542
  349TIP3    H1 1053   1.747   2.688   1.968 -0.8200 -1.3215  0.1604
  349TIP3    H2 1054   1.724   2.820   1.897  0.6535 -0.2516  1.5984
  350TIP3   OH2 1055   2.746   2.122   2.298  0.0254  0.2323 -0.3920
  350TIP3    H1 1056   2.745   2.044   2.353 -2.0629  0.1856 -0.4001
  350TIP3    H2 1057   2.655   2.152   2.298  0.5796  2.0478 -1.2751
  351TIP3   OH2 1058   5.065   3.796   0.611  0.4498 -0.1506  0.0616
  351TIP3    H1 1059   5.105   3.879   0.584  0.1031 -0.4692 -1.5589
  351TIP3    H2 1060   5.139   3.739   0.630  0.6936  0.5370  1.2817
  352TIP3   OH2 1061   0.697   5.312   0.881 -0.6920 -0.2951 -0.3339
  352TIP3    H1 1062   0.768   5.274   0.933 -0.1428  2.0145  0.6990
  352TIP3    H2 1063   0.739   5.381   0.830 -1.6387 -1.0615 -2.2655
  353TIP3   OH2 1064   0.624   2.187   2.510  0.4849 -0.7576 -0.2438
  353TIP3    H1 1065   0.679   2.163   2.584  1.6386  0.0125 -0.8268
  353TIP3    H2 1066   0.609   2.105   2.463  1.6903 -0.8827 -0.4318
  354TIP3   OH2 1067   1.012   1.508   5.072  0.0642 -0.3673 -0.1049
  354TIP3    H1 1068   1.009   1.487   4.979  0.7289  2.1777 -0.7749
  354TIP3    H2 1069   1.043   1.598   5.076 -2.0109  0.3755  2.4821
  355TIP3   OH2 1070   4.284   5.817   3.265 -0.0891 -0.3919 -0.1187
  355TIP3    H1 1071   4.275   5.779   3.352  1.7424  2.1164  1.3054
  355TIP3    H2 1072   4.218   5.886   3.261  2.7203  2.6421  1.3015
  356TIP3   OH2 1073   0.575   5.715   2.304  0.2711  0.5579 -0.7247
  356TIP3    H1 1074   0.495   5.767   2.294  0.4989  1.0524 -0.0888
  356TIP3    H2 1075   0.617   5.751   2.382 -0.0435 -1.2068  0.3155
  357TIP3   OH2 1076   5.927   2.825   3.637  0.6419 -0.1869  0.0385
  357TIP3    H1 1077   5.936   2.863   3.549  1.0658  1.8133  0.8961
  357TIP3    H2 1078   5.863   2.755   3.625  0.2692  0.3911 -1.7710
  358TIP3   OH2 1079   3.513   0.410   0.375  0.5466  0.4177 -0.0530
  358TIP3    H1 1080   3.426   0.433   0.344  0.6339  0.6236 -0.1522
  358TIP3    H2 1081   3.550   0.354   0.306  0.7764  0.9520 -0.3784
  359TIP3   OH2 1082   1.095   2.072   0.973 -0.2706  0.0361  0.5312
  359TIP3    H1 1083   1.177   2.121   0.967 -0.6174  0.5936  0.2372
  359TIP3    H2 1084   1.034   2.131   1.017 -0.4341 -0.4841  1.0054
  360TIP3   OH2 1085   0.706   0.736   1.013  0.5640 -0.5420  0.1558
  360TIP3    H1 1086   0.638   0.669   1.003  0.1893 -0.1890  0.2917
  360TIP3    H2 1087   0.784   0.697   0.975 -0.1037 -0.3500 -1.5096
  361TIP3   OH2 1088   0.434   5.062   0.409  0.0592 -0.3160 -0.3122
  361TIP3    H1 1089   0.474   5.149   0.401 -0.7916  0.0460 -0.8359
  361TIP3    H2 1090   0.488   5.016   0.473  1.8562 -0.1797 -1.6546
  362TIP3   OH2 1091   4.552   5.132   1.189 -0.3156 -0.2881 -0.0479
  362TIP3    H1 1092   4.507   5.160   1.110 -0.5590  0.4966  0.3628
  362TIP3    H2 1093   4.611   5.204   1.211 -0.0888 -0.5892  0.3636
  363TIP3   OH2 1094   0.345   0.249   0.102 -0.1236 -0.0524 -0.2336
  363TIP3    H1 1095   0.268   0.213   0.148 -0.3488 -0.8687 -1.2191
  363TIP3    H2 1096   0.412   0.182   0.112  0.0500  0.0837 -0.4908
  364TIP3   OH2 1097   4.755   4.381   3.260 -0.2022 -0.0778 -0.2810
  364TIP3    H1 1098   4.801   4.298   3.247  1.5752  1.0868 -1.8702
  364TIP3    H2 1099   4.667   4.365   3.227  0.5094 -0.9701 -1.8703
  365TIP3   OH2 1100   5.338   2.852   1.941  0.5398  0.0213  0.6400
  365TIP3    H1 1101   5.370   2.904   1.867 -1.4106 -0.2673 -0.4633
  365TIP3    H2 1102   5.311   2.918   2.005  1.1587  0.2889  0.6385
  366TIP3   OH2 1103   2.626   2.591   0.934  0.3133  0.3479  0.3921
  366TIP3    H1 1104   2.619   2.496   0.921 -0.6216  0.5009 -0.3384
  366TIP3    H2 1105   2.550   2.614   0.987 -1.0392  1.0628 -1.7463
  367TIP3   OH2 1106   6.192   4.268   1.990 -0.0182  0.1515 -0.2394
  367TIP3    H1 1107   6.107   4.312   2.001 -1.1452 -1.6006 -1.4642
  367TIP3    H2 1108   6.228   4.264   2.079 -2.7151 -1.8880  0.8850
  368TIP3   OH2 1109   3.099   2.385   2.247 -0.3832  0.1359  0.5160
  368TIP3    H1 1110   3.119   2.303   2.201  0.1739 -0.0334  1.0473
  368TIP3    H2 1111   3.036   2.359   2.315  1.3226 -0.2767  2.0287
  369TIP3   OH2 1112   0.461   3.997   2.327  0.6872  0.7160 -0.0029
  369TIP3    H1 1113   0.477   3.945   2.406 -0.2602  0.2926 -0.0776
  369TIP3    H2 1114   0.512   4.077   2.341  1.4245  0.1692  0.5250
  370TIP3   OH2 1115   5.269   2.483   1.136 -0.3477  0.4017 -0.0206
  370TIP3    H1 1116   5.205   2.431   1.184 -0.0637  0.9799  0.9996
  370TIP3    H2 1117   5.252   2.462   1.044 -0.7549 -0.8837  0.3293
  371TIP3   OH2 1118   0.754   3.921   2.964  0.2545  0.2947 -0.2903
  371TIP3    H1 1119   0.839   3.965   2.968 -0.0354  0.8289  0.0478
  371TIP3    H2 1120   0.769   3.836   3.006  0.6373  0.3599 -0.2910
  372TIP3   OH2 1121   1.720   5.197   1.498  0.3507  0.5328 -0.0410
  372TIP3    H1 1122   1.749   5.252   1.571 -1.0440 -2.1894  2.8130
  372TIP3    H2 1123   1.797   5.145   1.474  0.4351  0.3679  0.5761
  373TIP3   OH2 1124   2.280   1.764   5.007  0.4162 -1.4757  0.4703
  373TIP3    H1 1125   2.255   1.688   4.955  1.2044 -1.2852 -0.1973
  373TIP3    H2 1126   2.213   1.830   4.985 -0.2329 -1.9430  1.0064
  374TIP3   OH2 1127   3.019   0.769   3.438  0.1990  0.1282  0.3389
  374TIP3    H1 1128   3.086   0.746   3.503  0.6254 -1.8734 -0.7392
  374TIP3    H2 1129   3.045   0.856   3.408  1.3826  0.0749  1.1208
  375TIP3   OH2 1130   2.461   2.152   5.079  0.3949  0.5308 -0.7341
  375TIP3    H1 1131   2.421   2.095   5.013  0.4056  2.5696 -2.5902
  375TIP3    H2 1132   2.405   2.141   5.157 -1.9938  0.9515 -2.2755
  376TIP3   OH2 1133   6.336   5.614   0.568 -0.1895 -0.8920 -0.4377
  376TIP3    H1 1134   6.284   5.633   0.646  0.4815 -0.8125 -0.0030
  376TIP3    H2 1135   6.391   5.692   0.557  0.6637 -1.4560 -0.2107
  377TIP3   OH2 1136   4.374   3.936   0.713 -0.2385 -0.6519 -0.1726
  377TIP3    H1 1137   4.408   3.894   0.792  0.7873 -0.2147 -0.3626
  377TIP3    H2 1138   4.393   3.873   0.643  0.5744 -0.2398 -0.3381
  378TIP3   OH2 1139   3.233   2.806   0.314 -0.3968  0.4006  0.5364
  378TIP3    H1 1140   3.285   2.849   0.382  0.2748  1.4691 -0.5930
  378TIP3    H2 1141   3.148   2.790   0.355 -0.5448  2.4851  1.1716
  379TIP3   OH2 1142   1.571   1.247   4.015 -0.3157 -0.0838  0.0027
  379TIP3    H1 1143   1.520   1.235   4.096 -2.5509  0.3434 -1.2513
  379TIP3    H2 1144   1.612   1.162   3.999 -0.4228 -0.3789  1.1917
  380TIP3   OH2 1145   5.517   3.471   4.475 -0.0041  0.1763 -0.3588
  380TIP3    H1 1146   5.489   3.423   4.553  1.8910 -0.9724 -0.3243
  380TIP3    H2 1147   5.443   3.465   4.415 -0.8022 -0.4900  0.6575
  381TIP3   OH2 1148   4.862   2.378   3.533  0.6793 -0.3816 -0.4493
  381TIP3    H1 1149   4.814   2.422   3.463  0.1451 -0.0357  0.1237
  381TIP3    H2 1150   4.874   2.288   3.503  0.9185 -0.1015 -1.2058
  382TIP3   OH2 1151   3.604   4.727   3.563 -0.6659  0.6376  0.1150
  382TIP3    H1 1152   3.513   4.742   3.590 -1.1326 -0.9194 -0.5084
  382TIP3    H2 1153   3.600   4.653   3.502  0.9469  0.9613 -0.4490
  383TIP3   OH2 1154   4.503   1.730   3.551  0.0686 -0.1526 -0.1943
  383TIP3    H1 1155   4.513   1.781   3.471  0.1333  0.6201  0.3027
  383TIP3    H2 1156   4.543   1.783   3.620 -0.1877 -0.7021  0.3960
  384TIP3   OH2 1157   5.284   3.425   2.989  0.5237  0.2732  0.0772
  384TIP3    H1 1158   5.207   3.439   3.043  1.2227 -1.5006  1.6719
  384TIP3    H2 1159   5.348   3.489   3.022  0.0025  1.2413 -0.7447
  385TIP3   OH2 1160   0.965   4.882   3.734 -0.1283 -0.4005  0.1018
  385TIP3    H1 1161   0.931   4.793   3.748 -3.1241  0.3018 -1.8306
  385TIP3    H2 1162   0.991   4.911   3.822 -3.0908 -1.6964  1.5585
  386TIP3   OH2 1163   0.006   1.512   0.978 -0.9291  0.2821  0.6741
  386TIP3    H1 1164  -0.055   1.440   0.992  0.9029 -1.2221  1.4130
  386TIP3    H2 1165   0.086   1.486   1.024 -0.0747  2.6641  0.7029
  387TIP3   OH2 1166   1.926   3.936   3.782  0.3191 -0.3399 -0.7375
  387TIP3    H1 1167   1.846   3.908   3.827 -0.0551  0.2937 -0.9907
  387TIP3    H2 1168   1.946   3.864   3.722 -1.1761  0.2881 -2.0852
  388TIP3   OH2 1169   1.152   2.704   4.629 -0.1824  0.5175  0.1865
  388TIP3    H1 1170   1.167   2.652   4.708  0.9818  0.4856 -0.0496
  388TIP3    H2 1171   1.219   2.773   4.632 -0.4332  0.8019 -0.5351
  389TIP3   OH2 1172   2.748   5.380   0.734  0.2073  0.3980  0.7397
  389TIP3    H1 1173   2.749   5.459   0.789  3.4872  0.9458  0.1021
  389TIP3    H2 1174   2.841   5.363   0.715 -0.5934 -1.7211 -1.8565
  390TIP3   OH2 1175   3.392   4.236   1.013 -0.2371  0.1755 -0.3036
  390TIP3    H1 1176   3.373   4.215   0.921 -1.0845  2.0657 -0.6160
  390TIP3    H2 1177   3.327   4.303   1.035  1.3496  1.3448  0.9900
  391TIP3   OH2 1178   6.152   4.571   5.175  0.1996  0.6875 -0.1061
  391TIP3    H1 1179   6.103   4.601   5.098  0.7438 -1.7212 -1.4817
  391TIP3    H2 1180   6.235   4.540   5.141 -0.5448 -3.0031  0.9327
  392TIP3   OH2 1181   2.043   1.924   1.817  0.0264 -0.8690  0.2898
  392TIP3    H1 1182   2.010   1.925   1.727 -0.3212 -1.3797  0.4056
  392TIP3    H2 1183   2.129   1.965   1.811 -0.9426  1.2962  0.1232
  393TIP3   OH2 1184   6.248   3.990   1.932  0.2973  0.5477 -0.1980
  393TIP3    H1 1185   6.219   4.081   1.945  0.1259  0.5177 -0.3753
  393TIP3    H2 1186   6.253   3.954   2.020 -1.7605  0.0600 -0.2445
  394TIP3   OH2 1187   2.935   0.900   1.369  0.2571 -0.4938 -0.2986
  394TIP3    H1 1188   2.902   0.913   1.280  2.4213  0.2530 -1.0544
  394TIP3    H2 1189   2.857   0.899   1.423 -1.0452  0.3074 -2.0576
  395TIP3   OH2 1190   0.711   1.627   0.419 -0.2595 -0.1976 -0.2127
  395TIP3    H1 1191   0.657   1.659   0.347  0.1453  1.3693  0.1320
  395TIP3    H2 1192   0.795   1.671   0.407  0.7546 -2.1032 -0.3689
  396TIP3   OH2 1193   1.271   3.699   0.204  0.3131 -0.0278 -0.1574
  396TIP3    H1 1194   1.295   3.623   0.257  1.3587  0.3983  0.0207
  396TIP3    H2 1195   1.355   3.737   0.179 -0.1394 -0.2511 -2.1961
  397TIP3   OH2 1196   6.287   1.780   0.022  0.6737 -0.3683 -0.0693
  397TIP3    H1 1197   6.355   1.741   0.077  0.0807 -0.9282  0.2837
  397TIP3    H2 1198   6.224   1.817   0.084 -0.0914 -1.1582 -0.3484
  398TIP3   OH2 1199   4.464   2.958   4.465  0.5136  0.6512  0.1757
  398TIP3    H1 1200   4.462   3.050   4.491 -0.2931  0.8634 -0.5678
  398TIP3    H2 1201   4.419   2.956   4.380  1.5000 -0.2605 -0.3600
  399TIP3   OH2 1202   1.245   3.759   1.495  0.8431  0.3094 -0.2514
  399TIP3    H1 1203   1.330   3.751   1.452  1.1168  0.2864  0.2809
  399TIP3    H2 1204   1.208   3.841   1.461  0.4166 -0.4230 -1.6086
  400TIP3   OH2 1205   5.569   3.535   1.334  0.1697  0.3331  0.0510
  400TIP3    H1 1206   5.571   3.614   1.280  2.2364  2.0544  2.4143
  400TIP3    H2 1207   5.477   3.527   1.362 -0.2324  1.3998 -0.9050
  401TIP3   OH2 1208   3.356   4.708   3.683 -0.3054 -0.1322 -0.2620
  401TIP3    H1 1209   3.269   4.736   3.655 -0.5653 -0.5533  0.1186
  401TIP3    H2 1210   3.343   4.619   3.717  0.3098 -0.2847 -0.4116
  402TIP3   OH2 1211   3.167   2.677   2.518 -0.0849  0.4073 -0.0883
  402TIP3    H1 1212   3.158   2.583   2.532 -0.4043  0.1127 -2.0317
  402TIP3    H2 1213   3.086   2.702   2.474 -0.1652  1.6805  0.7356
  403TIP3   OH2 1214   1.680   1.042   2.301 -0.1616  0.5123  0.0345
  403TIP3    H1 1215   1.599   0.999   2.326 -0.5637  1.4046  0.2887
  403TIP3    H2 1216   1.748   0.993   2.346 -0.7030  0.7794  1.1777
  404TIP3   OH2 1217   4.979   1.573   0.547 -0.3789  0.1477  0.5601
  404TIP3    H1 1218   4.933   1.638   0.493 -0.4969 -1.0945 -0.9069
  404TIP3    H2 1219   5.054   1.620   0.582 -0.3843  1.0511 -0.5739
  405TIP3   OH2 1220   5.361   0.760   2.544  0.3631  0.0230  0.2080
  405TIP3    H1 1221   5.272   0.795   2.558  1.0013  1.9790 -0.2346
  405TIP3    H2 1222   5.392   0.739   2.632 -0.2657  0.0634  0.4435
  406TIP3   OH2 1223   1.513   2.676   3.212  0.4810  0.4681 -0.3496
  406TIP3    H1 1224   1.570   2.600   3.217 -0.6700 -0.3835  0.1236
  406TIP3    H2 1225   1.470   2.680   3.297 -1.2408  0.2296 -1.1644
  407TIP3   OH2 1226   4.594   5.323   3.080  0.8688 -0.6285  0.1733
  407TIP3    H1 1227   4.621   5.374   3.156  0.2110  0.3940 -0.2480
  407TIP3    H2 1228   4.538   5.383   3.030 -3.3311 -2.9469  1.6274
  408TIP3   OH2 1229   2.197   5.736   2.823  0.6009  0.1569  0.3318
  408TIP3    H1 1230   2.215   5.717   2.915 -0.6337 -1.9611  0.2009
  408TIP3    H2 1231   2.147   5.817   2.824 -1.1853 -0.9059  1.7353
  409TIP3   OH2 1232   1.121   5.194   4.440 -0.0333  0.0311 -0.5427
  409TIP3    H1 1233   1.091   5.114   4.395  0.1880 -0.4641  0.1827
  409TIP3    H2 1234   1.051   5.257   4.425  0.2823  0.0658 -2.0707
  410TIP3   OH2 1235   1.869   4.773   3.790  0.2536  0.4096  0.4102
  410TIP3    H1 1236   1.812   4.701   3.762 -2.0357  1.9155  0.8947
  410TIP3    H2 1237   1.938   4.730   3.840 -1.5902 -1.4131  1.5877
  411TIP3   OH2 1238   1.891   0.803   0.855  0.0920 -0.5534 -0.3909
  411TIP3    H1 1239   1.836   0.744   0.802 -2.4170  0.0039  1.3844
  411TIP3    H2 1240   1.859   0.891   0.834  1.1888 -0.0991 -0.2196
  412TIP3   OH2 1241   4.175   5.242   0.271  0.2662 -0.1706 -0.0132
  412TIP3    H1 1242   4.237   5.213   0.204  0.7833  0.9683 -0.0473
  412TIP3    H2 1243   4.090   5.239   0.227  0.6830  1.2366 -0.9688
  413TIP3   OH2 1244   4.904   1.315   0.647  0.2810  0.8094 -0.0006
  413TIP3    H1 1245   4.925   1.403   0.616  0.1186  0.5668 -0.8341
  413TIP3    H2 1246   4.897   1.263   0.567  0.3960  0.0347  0.4853
  414TIP3   OH2 1247   4.637   3.636   4.165  0.0524 -0.6703 -0.4941
  414TIP3    H1 1248   4.572   3.705   4.173 -0.7892 -1.0300 -3.1956
  414TIP3    H2 1249   4.595   3.558   4.202 -0.4641 -0.5510 -0.8273
  415TIP3   OH2 1250   2.583   1.520   2.930 -0.1845 -0.0882  0.0816
  415TIP3    H1 1251   2.584   1.528   2.834  1.9316  0.1298  0.0775
  415TIP3    H2 1252   2.514   1.580   2.958  0.7479  1.6997 -1.1982
  416TIP3   OH2 1253   0.580   4.486   1.514 -0.2007  0.8061  0.2276
  416TIP3    H1 1254   0.526   4.564   1.526 -0.3789  0.5093  1.4938
  416TIP3    H2 1255   0.542   4.421   1.573  0.2647 -0.0900 -0.4210
  417TIP3   OH2 1256   2.516   0.604   4.124  0.1484 -0.6545  0.4554
  417TIP3    H1 1257   2.517   0.695   4.155  1.6775 -0.4567 -0.0414
  417TIP3    H2 1258   2.475   0.610   4.037 -0.1920 -0.5207  0.6221
  418TIP3   OH2 1259   4.228   2.277   4.360 -0.0371 -0.1759  0.2628
  418TIP3    H1 1260   4.201   2.309   4.446 -1.5126 -0.5491 -0.0444
  418TIP3    H2 1261   4.173   2.325   4.298  0.2319 -0.7210 -0.4095
  419TIP3   OH2 1262   6.226   2.316   0.016 -0.3745 -0.0023 -0.3518
  419TIP3    H1 1263   6.188   2.228   0.018 -0.0339 -0.1468  1.8012
  419TIP3    H2 1264   6.240   2.338   0.108  0.1499  2.0569 -0.8800
  420TIP3   OH2 1265   2.097   3.998   3.170  0.9512  0.0349  0.1814
  420TIP3    H1 1266   2.134   4.034   3.251 -0.1833 -0.4959  0.9565
  420TIP3    H2 1267   2.020   3.949   3.198  0.9756 -0.8129 -1.1420
  421TIP3   OH2 1268   1.148   1.518   1.616  0.0941 -0.0644  0.5303
  421TIP3    H1 1269   1.064   1.563   1.614 -1.1215 -2.2180 -0.2313
  421TIP3    H2 1270   1.142   1.453   1.546  1.1550 -2.3758  2.4375
  422TIP3   OH2 1271   2.560   5.469   3.756  0.4697 -0.1447 -0.0958
  422TIP3    H1 1272   2.602   5.554   3.739 -0.4151  0.2794 -0.2165
  422TIP3    H2 1273   2.552   5.465   3.851 -0.5468  0.4523 -0.1368
  423TIP3   OH2 1274   4.817   3.452   1.682  0.3935 -0.0206 -0.1971
  423TIP3    H1 1275   4.743   3.512   1.675  0.4740 -0.0331 -1.2344
  423TIP3    H2 1276   4.888   3.504   1.719  0.6095  0.6716 -1.5375
  424TIP3   OH2 1277   0.947   4.550   0.145 -0.1649  0.7268  0.0991
  424TIP3    H1 1278   0.980   4.465   0.114 -0.4647  1.3345 -2.0184
  424TIP3    H2 1279   1.015   4.581   0.205  0.2708 -0.6733  0.3825
  425TIP3   OH2 1280   3.280   4.347   2.685 -0.1045 -0.2718  0.2948
  425TIP3    H1 1281   3.374   4.364   2.674 -0.1992 -0.3886 -0.8737
  425TIP3    H2 1282   3.243   4.432   2.709  0.4469 -0.4709  1.9424
  426TIP3   OH2 1283   3.199   3.179   0.719  0.5666  0.5459  0.2205
  426TIP3    H1 1284   3.264   3.248   0.729  2.2999 -0.5023 -2.5858
  426TIP3    H2 1285   3.236   3.103   0.764  0.2164  0.5642  0.5402
  427TIP3   OH2 1286   0.863   2.995   3.860  0.1445  0.0852 -0.9284
  427TIP3    H1 1287   0.887   3.021   3.771  1.0360 -2.2024 -1.4109
  427TIP3    H2 1288   0.946   2.993   3.908 -0.4605  2.7189  0.4569
  428TIP3   OH2 1289   2.431   0.130  -0.016 -0.1208  0.3568 -0.2442
  428TIP3    H1 1290   2.525   0.132  -0.036 -0.2079  2.0337 -0.6361
  428TIP3    H2 1291   2.421   0.194   0.055 -0.8170 -0.6695  0.6120
  429TIP3   OH2 1292   3.015   1.134   2.985 -0.1979  0.1350 -0.2712
  429TIP3    H1 1293   3.083   1.070   3.006 -0.7780 -1.0995 -1.9292
  429TIP3    H2 1294   2.943   1.113   3.045 -0.0962 -0.2650 -0.2885
  430TIP3   OH2 1295   2.509   2.317   0.983 -0.2933  0.5250  0.1574
  430TIP3    H1 1296   2.448   2.275   0.923 -1.0153  1.1931  0.4081
  430TIP3    H2 1297   2.505   2.264   1.062 -0.6178  0.6192  0.2039
  431TIP3   OH2 1298   0.597   0.589   4.783 -0.3414 -0.8088 -0.0435
  431TIP3    H1 1299   0.656   0.662   4.800 -1.6313  0.5163 -0.9957
  431TIP3    H2 1300   0.629   0.550   4.703 -0.3408 -0.5265 -0.1831
  432TIP3   OH2 1301   1.333   1.795   1.606 -0.3861 -0.0674 -0.3612
  432TIP3    H1 1302   1.269   1.730   1.634  0.7983 -0.5904  1.2611
  432TIP3    H2 1303   1.416   1.748   1.607  0.1626  0.8338 -1.5910
  433TIP3   OH2 1304   3.800   2.683   1.547 -0.0805 -0.0109  0.4169
  433TIP3    H1 1305   3.711   2.674   1.583 -0.7096  3.1688 -0.0366
  433TIP3    H2 1306   3.791   2.660   1.455 -0.7759  1.4775  0.0831
  434TIP3   OH2 1307   2.413   2.861   3.884 -0.1583  0.5092  0.7090
  434TIP3    H1 1308   2.438   2.952   3.901  0.0850  0.4933  0.4407
  434TIP3    H2 1309   2.322   2.866   3.853  0.2707  0.7824 -0.5405
  435TIP3   OH2 1310   3.836   1.095   5.060  0.5553 -0.0264 -0.1846
  435TIP3    H1 1311   3.853   1.034   5.132  0.1680  0.9641  0.7731
  435TIP3    H2 1312   3.919   1.098   5.012  0.8061 -0.7373  0.1860
  436TIP3   OH2 1313   5.742   0.964   4.993  0.3869  0.3001 -0.4820
  436TIP3    H1 1314   5.783   0.896   4.939  0.1104 -0.3597  0.1267
  436TIP3    H2 1315   5.655   0.976   4.955 -0.0692 -0.6579  0.2078
  437TIP3   OH2 1316   3.106   4.761   2.372 -0.2005 -0.0538 -0.2492
  437TIP3    H1 1317   3.147   4.783   2.288  1.5139 -0.3901  0.4451
  437TIP3    H2 1318   3.169   4.701   2.413  0.1284  1.8371  2.2227
  438TIP3   OH2 1319   1.557   4.606   5.064  0.1648  0.1880 -0.4824
  438TIP3    H1 1320   1.506   4.686   5.047  0.4166  0.3352 -0.5591
  438TIP3    H2 1321   1.647   4.638   5.075  0.5164 -0.2255 -1.9700
  439TIP3   OH2 1322   4.170   0.175   4.951  0.3061  0.1449 -0.1650
  439TIP3    H1 1323   4.166   0.271   4.943  0.0136  0.5257  3.2448
  439TIP3    H2 1324   4.261   0.154   4.929  0.8761  1.4662  0.7819
  440TIP3   OH2 1325   3.811   5.203   3.533  0.1466 -0.1954  0.0443
  440TIP3    H1 1326   3.889   5.155   3.560 -0.4232 -1.0390  0.2229
  440TIP3    H2 1327   3.764   5.143   3.475 -0.9374 -0.1430  0.8312
  441TIP3   OH2 1328   2.342   1.478   2.177 -0.4470  0.2825 -0.0188
  441TIP3    H1 1329   2.422   1.510   2.218  1.4768 -2.5086 -1.1841
  441TIP3    H2 1330   2.358   1.490   2.083 -1.2150 -0.6256 -0.2781
  442TIP3   OH2 1331   5.085   4.877   1.008 -0.2268 -0.0484  0.4213
  442TIP3    H1 1332   5.129   4.874   1.093 -1.0126  1.5816  0.9330
  442TIP3    H2 1333   5.025   4.951   1.015  0.2272  0.5995 -1.8166
  443TIP3   OH2 1334   1.785   1.648   2.560  0.0358 -0.0980  0.2724
  443TIP3    H1 1335   1.761   1.604   2.642 -0.2496 -1.1303 -0.3555
  443TIP3    H2 1336   1.721   1.718   2.551 -0.2018 -0.2523  0.7071
  444TIP3   OH2 1337   4.877   2.038   0.702  0.1780 -0.1636  0.6211
  444TIP3    H1 1338   4.817   2.010   0.771  1.2215  0.8206  1.9727
  444TIP3    H2 1339   4.826   2.100   0.650  0.2974  1.4764  2.3788
  445TIP3   OH2 1340   1.868   1.103   0.445 -0.6034 -0.0046  0.4492
  445TIP3    H1 1341   1.904   1.105   0.534  0.7757  0.4683 -0.0961
  445TIP3    H2 1342   1.776   1.081   0.457 -0.4300  0.0138  1.9951
  446TIP3   OH2 1343   2.039   2.762   4.799 -0.2495 -0.2906 -0.0953
  446TIP3    H1 1344   1.963   2.812   4.770  0.7397  1.9232  0.8368
  446TIP3    H2 1345   2.110   2.791   4.742  0.6845  0.6072  1.4242
  447TIP3   OH2 1346   4.411   3.652   2.016  0.2159  0.1843  0.1158
  447TIP3    H1 1347   4.462   3.731   1.995  0.8320 -0.3928 -0.6105
  447TIP3    H2 1348   4.320   3.679   2.004  0.3603  1.0922  0.9541
  448TIP3   OH2 1349   5.195   1.108   3.548 -0.2573 -0.7422 -0.2839
  448TIP3    H1 1350   5.111   1.149   3.568 -0.4415 -2.1189  2.1553
  448TIP3    H2 1351   5.188   1.019   3.584  2.4284 -0.7044  0.5721
  449TIP3   OH2 1352   6.029   5.817   3.536  0.3749  0.1389  0.0065
  449TIP3    H1 1353   6.018   5.772   3.452 -2.3731  0.2446  0.2362
  449TIP3    H2 1354   6.099   5.769   3.580 -0.6408 -2.2731 -0.8599
  450TIP3   OH2 1355   0.294   0.026   0.426  0.2007 -0.5469  0.0155
  450TIP3    H1 1356   0.355   0.101   0.423  0.5036 -0.7380  1.1075
  450TIP3    H2 1357   0.269   0.013   0.335 -0.4706  1.3827 -0.1306
  451TIP3   OH2 1358   4.871   0.430   3.761 -0.1683  0.4070 -0.4891
  451TIP3    H1 1359   4.895   0.455   3.672  0.2374  2.0189  0.0406
  451TIP3    H2 1360   4.828   0.345   3.751  0.0466  0.4621 -2.1926
  452TIP3   OH2 1361   1.062   3.727   0.028  0.2618 -0.5400  0.0559
  452TIP3    H1 1362   1.133   3.687   0.078  2.8827  2.6538 -0.8107
  452TIP3    H2 1363   1.006   3.769   0.094  1.1068 -0.2212  0.5824
  453TIP3   OH2 1364   1.155   5.252   3.378 -0.3538  0.2678 -0.5549
  453TIP3    H1 1365   1.092   5.184   3.355 -1.4706  0.4001  1.8225
  453TIP3    H2 1366   1.185   5.228   3.465 -0.0948  2.3178 -0.0272
  454TIP3   OH2 1367   0.121   5.229   0.782  0.1645 -0.1161 -0.1653
  454TIP3    H1 1368   0.108   5.278   0.701  1.6487  2.6354  1.1043
  454TIP3    H2 1369   0.189   5.165   0.762  0.8797  0.8807 -0.9823
  455TIP3   OH2 1370   2.208   1.725   3.835  0.0261 -0.0967 -0.0656
  455TIP3    H1 1371   2.130   1.781   3.837 -0.3914 -0.6801  0.4694
  455TIP3    H2 1372   2.179   1.645   3.791  0.0850 -0.6468  0.8719
  456TIP3   OH2 1373   5.631   3.092   2.998 -0.7060 -0.0690 -0.2397
  456TIP3    H1 1374   5.654   3.003   2.971 -2.0162 -0.5395  0.1531
  456TIP3    H2 1375   5.543   3.106   2.963 -0.9116  0.6938  0.5469
  457TIP3   OH2 1376   5.457   0.024   4.525 -0.0216  0.2556  0.2894
  457TIP3    H1 1377   5.547   0.021   4.492  0.3008  2.2617  0.8017
  457TIP3    H2 1378   5.409   0.074   4.459 -0.6397 -0.3349  0.2861
  458TIP3   OH2 1379   0.606   0.774   3.345  0.8189  0.5533  0.4352
  458TIP3    H1 1380   0.679   0.829   3.316 -0.8956  2.3094 -0.7509
  458TIP3    H2 1381   0.548   0.834   3.392  0.1143 -0.8216  1.3903
  459TIP3   OH2 1382   1.881   2.035   3.044 -0.2207 -0.6927 -0.1773
  459TIP3    H1 1383   1.955   2.034   2.982  0.6105  0.8077  0.7311
  459TIP3    H2 1384   1.820   1.970   3.009  1.4626 -1.9066 -1.0373
  460TIP3   OH2 1385   0.890   5.457   2.759  0.0836 -0.1014 -0.4176
  460TIP3    H1 1386   0.914   5.384   2.702 -2.4721  0.3649 -2.2540
  460TIP3    H2 1387   0.824   5.421   2.818 -1.4018  0.7419 -1.5231
  461TIP3   OH2 1388   3.569   3.643   2.466  0.2858  0.0273 -0.3364
  461TIP3    H1 1389   3.548   3.661   2.557 -0.3918  2.5073 -0.9230
  461TIP3    H2 1390   3.543   3.551   2.453  0.7403 -0.4840  2.0081
  462TIP3   OH2 1391   1.475   2.006   1.119 -0.0895  0.3492  0.1009
  462TIP3    H1 1392   1.513   1.921   1.143 -1.4409 -0.6154 -0.9907
  462TIP3    H2 1393   1.515   2.068   1.180  2.1114 -0.7999 -0.0704
  463TIP3   OH2 1394   3.671   2.218   3.512  0.6150  0.1356  0.3798
  463TIP3    H1 1395   3.615   2.218   3.435 -2.0982  0.2516  2.2141
  463TIP3    H2 1396   3.707   2.130   3.515 -2.2024 -1.0911  0.8997
  464TIP3   OH2 1397   6.030   1.634   1.144 -1.3631  0.2710 -0.1750
  464TIP3    H1 1398   5.984   1.687   1.079 -0.8059  1.5021  0.3978
  464TIP3    H2 1399   6.016   1.680   1.227  2.9142  2.2673 -0.2698
  465TIP3   OH2 1400   1.013   3.762   4.897 -0.1384  0.6711  0.0152
  465TIP3    H1 1401   0.970   3.727   4.976 -0.2925 -0.0357 -0.3728
  465TIP3    H2 1402   1.101   3.784   4.926  0.0659 -0.3312  0.2186
  466TIP3   OH2 1403   1.231   4.485   2.469 -0.3965 -0.7306 -0.6491
  466TIP3    H1 1404   1.274   4.410   2.427  0.5498 -1.1078  0.8906
  466TIP3    H2 1405   1.144   4.454   2.491  0.3422 -1.8193  0.9562
  467TIP3   OH2 1406   2.386   3.301   1.923 -0.2444 -0.2821  0.6681
  467TIP3    H1 1407   2.421   3.376   1.875 -0.1946 -0.1701  0.8749
  467TIP3    H2 1408   2.347   3.340   2.002  0.9953 -0.5842  1.4654
  468TIP3   OH2 1409   3.886   5.009   4.171  0.7937 -0.6037  0.0648
  468TIP3    H1 1410   3.801   5.045   4.146 -0.0651 -1.9405  0.9430
  468TIP3    H2 1411   3.925   4.983   4.087  0.5134  0.3524 -0.3818
  469TIP3   OH2 1412   1.455   5.920   3.647  0.3017  0.1894 -0.0166
  469TIP3    H1 1413   1.419   5.898   3.561 -0.6880  1.1314  0.1373
  469TIP3    H2 1414   1.478   6.013   3.640 -1.2670  0.7216  1.1951
  470TIP3   OH2 1415   2.533   0.881   4.249 -0.6578  0.4780 -0.2924
  470TIP3    H1 1416   2.553   0.974   4.254  0.4397  0.2029  0.9046
  470TIP3    H2 1417   2.443   0.874   4.280 -0.6871  1.1247 -0.2188
  471TIP3   OH2 1418   1.091   4.944   3.523  0.8537  0.0835  0.3019
  471TIP3    H1 1419   1.175   4.962   3.565  1.2261 -1.0561  0.0787
  471TIP3    H2 1420   1.029   4.935   3.595  0.6522  2.0712  0.4353
  472TIP3   OH2 1421   3.034   4.520   2.750 -0.0544 -0.1353  0.1086
  472TIP3    H1 1422   3.061   4.508   2.841  1.6430 -1.3137 -0.4952
  472TIP3    H2 1423   3.038   4.615   2.736  0.9080 -0.0444  0.9123
  473TIP3   OH2 1424   2.619   4.013   1.245  0.1590 -0.6017  0.0636
  473TIP3    H1 1425   2.701   3.997   1.199  1.2289 -1.1176  2.0734
  473TIP3    H2 1426   2.618   3.951   1.317 -1.9564 -0.5276  0.1810
  474TIP3   OH2 1427   5.162   2.063   3.577  0.4499 -0.4563  0.5616
  474TIP3    H1 1428   5.224   2.034   3.644 -0.6198 -1.2020  1.2623
  474TIP3    H2 1429   5.077   2.061   3.621 -0.0343  1.0382 -0.2248
  475TIP3   OH2 1430   2.259   4.555   2.820  0.3132 -0.6536  0.2680
  475TIP3    H1 1431   2.324   4.617   2.786  0.0112  0.2240  1.2437
  475TIP3    H2 1432   2.263   4.566   2.915  0.5954 -2.5036  0.5105
  476TIP3   OH2 1433   3.089   1.833   2.236  0.1297  0.6516  0.4640
  476TIP3    H1 1434   3.063   1.800   2.150  0.5670  1.2983  0.0701
  476TIP3    H2 1435   3.014   1.883   2.266  0.1646  0.8500  0.2272
  477TIP3   OH2 1436   0.574   3.890   4.887  0.1351  0.3589 -0.0115
  477TIP3    H1 1437   0.489   3.934   4.883 -0.0330  0.2751  1.7941
  477TIP3    H2 1438   0.562   3.820   4.951  1.5129  0.2098  0.1227
  478TIP3   OH2 1439   4.547   5.545   4.224  0.4172 -0.2932 -0.1091
  478TIP3    H1 1440   4.523   5.633   4.196  0.8005 -0.6401 -1.6913
  478TIP3    H2 1441   4.505   5.487   4.159  0.2398 -1.2760  0.8439
  479TIP3   OH2 1442   0.917   1.066   1.897 -0.0971 -0.3827  0.2058
  479TIP3    H1 1443   0.940   1.141   1.842  1.7781 -0.4901  0.7528
  479TIP3    H2 1444   0.969   1.077   1.976  1.4155 -2.9677 -0.2910
  480TIP3   OH2 1445   5.098   4.057   0.558  0.2311  0.1247 -0.7697
  480TIP3    H1 1446   5.119   4.150   0.545 -2.3090  0.7149 -1.1114
  480TIP3    H2 1447   5.003   4.052   0.551  0.1016 -2.2020  1.3491
  481TIP3   OH2 1448   1.703   0.572   1.025 -0.4028 -0.6086  0.1586
  481TIP3    H1 1449   1.703   0.523   0.943  3.8046  0.5824 -0.7970
  481TIP3    H2 1450   1.666   0.657   1.002  2.3134  0.3429 -1.1665
  482TIP3   OH2 1451   0.037   5.521   1.279  0.3859 -0.3415  0.0037
  482TIP3    H1 1452  -0.001   5.434   1.266  0.7041 -0.4706 -0.0644
  482TIP3    H2 1453  -0.024   5.564   1.339 -1.0699  0.2388 -1.7946
  483TIP3   OH2 1454   2.316   0.385   2.898  0.0005 -0.4890 -0.3651
  483TIP3    H1 1455   2.313   0.300   2.854 -1.5817 -0.4155 -0.4534
  483TIP3    H2 1456   2.347   0.446   2.831 -2.3725 -0.3744 -1.4504
  484TIP3   OH2 1457   2.393   4.547   0.440 -0.1261  0.4622 -0.7999
  484TIP3    H1 1458   2.474   4.501   0.419 -0.6497 -1.2623  0.7094
  484TIP3    H2 1459   2.419   4.619   0.496  0.2259 -1.3608  1.4998
  485TIP3   OH2 1460   4.922   2.354   0.870 -0.0720  0.1483  0.0784
  485TIP3    H1 1461   4.915   2.411   0.947  1.7363 -1.2690  1.3922
  485TIP3    H2 1462   4.881   2.272   0.897  0.3295 -0.2733 -0.5658
  486TIP3   OH2 1463   6.055   5.622   2.334 -0.7632 -0.5638 -0.0280
  486TIP3    H1 1464   6.025   5.675   2.260 -2.1416  1.2704  1.7052
  486TIP3    H2 1465   6.090   5.543   2.295 -0.6386  0.6863 -2.6724
  487TIP3   OH2 1466   4.904   3.472   2.596  0.0788  0.6288  0.3269
  487TIP3    H1 1467   4.990   3.431   2.591 -1.4253 -2.7227 -0.8805
  487TIP3    H2 1468   4.881   3.492   2.505 -1.4157 -1.0020  0.2828
  488TIP3   OH2 1469   1.704   3.778   3.631 -0.0868  0.2178  0.7981
  488TIP3    H1 1470   1.717   3.736   3.546  1.6662  2.3891 -0.0964
  488TIP3    H2 1471   1.757   3.726   3.692 -0.9204 -1.0274  0.4949
  489TIP3   OH2 1472   2.941   2.489   4.150  0.5615  0.1432  0.7017
  489TIP3    H1 1473   2.854   2.498   4.189  0.5903 -0.4968  0.9375
  489TIP3    H2 1474   2.927   2.439   4.070  0.5313  1.2853 -0.0304
  490TIP3   OH2 1475   2.138   1.504   2.423 -0.3400  0.7958  0.3253
  490TIP3    H1 1476   2.196   1.554   2.366 -1.4351  0.5244 -1.1018
  490TIP3    H2 1477   2.050   1.538   2.403 -0.8748 -0.1812  0.9334
  491TIP3   OH2 1478   3.640   5.934   0.115 -0.4342 -0.0725  0.0100
  491TIP3    H1 1479   3.605   5.945   0.026 -1.8552  1.7005  0.7406
  491TIP3    H2 1480   3.668   5.842   0.118  0.1345 -0.0645 -2.4156
  492TIP3   OH2 1481   1.430   2.220   1.571 -0.0733 -0.4011 -0.2347
  492TIP3    H1 1482   1.432   2.307   1.610 -0.2612  0.2333 -1.5868
  492TIP3    H2 1483   1.520   2.202   1.546 -0.0745 -0.4858 -0.1780
  493TIP3   OH2 1484   2.000   5.162   3.925  0.1926 -0.0256  0.0162
  493TIP3    H1 1485   1.965   5.145   3.838  0.2248  3.4120 -0.8243
  493TIP3    H2 1486   2.094   5.175   3.910  0.3086 -0.0846  0.6833
  494TIP3   OH2 1487   0.358   1.847   1.820 -0.0282 -0.5113 -0.2053
  494TIP3    H1 1488   0.430   1.883   1.872 -0.1564  0.3402 -0.6018
  494TIP3    H2 1489   0.315   1.785   1.879  0.1116  0.0956  0.5574
  495TIP3   OH2 1490   1.026   0.931   3.011 -0.0327 -0.3132  0.4377
  495TIP3    H1 1491   0.941   0.925   3.056 -0.1689  0.1689  0.2519
  495TIP3    H2 1492   1.090   0.931   3.082 -0.1715 -0.9872  0.5651
  496TIP3   OH2 1493   2.637   0.104   1.580 -0.1967 -0.4185 -0.3294
  496TIP3    H1 1494   2.710   0.081   1.636  1.3461  1.4437 -1.4198
  496TIP3    H2 1495   2.623   0.027   1.524  0.9862 -0.7756 -0.1454
  497TIP3   OH2 1496   6.366   4.383   2.875 -0.5019 -0.1721  0.2139
  497TIP3    H1 1497   6.366   4.332   2.794 -0.3168 -0.0151  0.1143
  497TIP3    H2 1498   6.303   4.453   2.859 -0.6433 -0.2826  0.2935
  498TIP3   OH2 1499   5.244   4.434   1.780 -0.4765 -0.1157 -0.2899
  498TIP3    H1 1500   5.306   4.490   1.734  0.4391  0.5283  1.6130
  498TIP3    H2 1501   5.223   4.365   1.718  1.7287 -0.0335 -1.2151
  499TIP3   OH2 1502   4.713   1.725   1.918 -0.1545  0.0049 -0.1496
  499TIP3    H1 1503   4.793   1.683   1.888 -0.0490 -1.2767  1.7427
  499TIP3    H2 1504   4.733   1.755   2.007 -0.9606  2.1107 -0.6046
  500TIP3   OH2 1505   5.502   0.391   4.597  0.5122 -0.5309  0.1400
  500TIP3    H1 1506   5.407   0.389   4.590  0.3612  0.0839  1.5236
  500TIP3    H2 1507   5.534   0.385   4.507 -0.8242 -0.9573 -0.3204
  501TIP3   OH2 1508   2.510   5.345   3.324  0.3651 -0.2708  0.6156
  501TIP3    H1 1509   2.539   5.430   3.358 -1.6400  0.7046  0.0265
  501TIP3    H2 1510   2.444   5.316   3.387 -0.1048 -0.6250 -0.0337
  502TIP3   OH2 1511   0.392   0.819   4.483  0.3062  0.6108  0.2770
  502TIP3    H1 1512   0.484   0.800   4.501  0.1238 -0.9034 -0.3178
  502TIP3    H2 1513   0.388   0.915   4.479  1.4835  0.7964  2.2153
  503TIP3   OH2 1514   6.114   4.529   0.710  0.7689  0.6229 -0.4028
  503TIP3    H1 1515   6.109   4.434   0.724  2.6412  0.5726  0.2067
  503TIP3    H2 1516   6.025   4.554   0.685 -0.3270 -0.9469  1.6179
  504TIP3   OH2 1517   1.782   3.233   2.998 -0.0166  0.2796 -0.1841
  504TIP3    H1 1518   1.845   3.165   3.018 -1.0626 -0.7296 -0.2083
  504TIP3    H2 1519   1.754   3.266   3.083  0.0951  0.3026 -0.1567
  505TIP3   OH2 1520   6.008   3.879   2.713 -0.3796 -0.2012 -0.2248
  505TIP3    H1 1521   5.978   3.806   2.659 -1.8541 -0.0566  0.3561
  505TIP3    H2 1522   6.053   3.937   2.652 -0.3134 -0.9731 -0.9244
  506TIP3   OH2 1523   4.728   0.782   4.036 -0.4968  0.2687 -0.2386
  506TIP3    H1 1524   4.666   0.716   4.005 -0.0419  0.3938 -1.4326
  506TIP3    H2 1525   4.674   0.842   4.089 -1.3145  0.1300 -0.8918
  507TIP3   OH2 1526   1.641   1.493   2.185  0.1561 -0.0061  0.3344
  507TIP3    H1 1527   1.631   1.398   2.179 -0.2304  0.0886 -0.8904
  507TIP3    H2 1528   1.583   1.520   2.256 -0.0358 -0.6405  0.4176
  508TIP3   OH2 1529   5.388   5.120   4.424 -0.0077  0.5375  0.1918
  508TIP3    H1 1530   5.449   5.049   4.403 -2.3121 -1.2820 -0.8596
  508TIP3    H2 1531   5.326   5.080   4.485 -1.5365  1.5326 -0.6590
  509TIP3   OH2 1532   6.296   0.506   2.670  0.6269  0.3270  0.2103
  509TIP3    H1 1533   6.363   0.438   2.681  0.7307  0.6187  1.5432
  509TIP3    H2 1534   6.321   0.552   2.590  1.3113 -0.3566  0.0193
  510TIP3   OH2 1535   3.869   1.564   1.440 -0.0216  0.0666  0.3864
  510TIP3    H1 1536   3.879   1.511   1.518 -0.4416 -0.4853  0.0665
  510TIP3    H2 1537   3.912   1.647   1.462 -0.5510  0.0906  1.3634
  511TIP3   OH2 1538   5.129   5.354   4.098 -0.1615  1.3040 -0.0586
  511TIP3    H1 1539   5.119   5.262   4.076  2.2064  0.3362  2.3656
  511TIP3    H2 1540   5.194   5.387   4.036 -0.2457  1.0334 -0.2894
  512TIP3   OH2 1541   3.643   5.132   4.141 -0.6246 -0.3101 -0.2546
  512TIP3    H1 1542   3.615   5.213   4.099  0.3029 -0.4975 -1.2849
  512TIP3    H2 1543   3.562   5.082   4.154 -1.0055  0.0018 -1.3186
  513TIP3   OH2 1544   2.815   4.728   2.899 -0.2977  0.3736 -0.0092
  513TIP3    H1 1545   2.855   4.716   2.986  0.3896  0.4131 -0.3100
  513TIP3    H2 1546   2.839   4.817   2.874 -0.5681  0.3914 -0.2030
  514TIP3   OH2 1547   2.918   0.128   2.471  0.7085  0.5363 -0.0511
  514TIP3    H1 1548   2.890   0.158   2.385  0.9644  0.6466 -0.0959
  514TIP3    H2 1549   3.013   0.121   2.465  0.7827  1.0728  0.3852
  515TIP3   OH2 1550   2.065   1.292   0.398  0.4870  0.3124  0.5058
  515TIP3    H1 1551   2.149   1.249   0.385  0.1665  0.3186 -2.0785
  515TIP3    H2 1552   2.000   1.223   0.387  0.0814  0.2570  2.7128
  516TIP3   OH2 1553   2.964   0.953   4.109  0.6317  0.8325  0.1691
  516TIP3    H1 1554   2.968   1.048   4.108  0.0462  0.8771 -1.8266
  516TIP3    H2 1555   3.016   0.926   4.034 -0.7264 -0.3236 -0.4074
  517TIP3   OH2 1556   0.967   4.480   0.766 -0.4460 -0.6483 -0.3501
  517TIP3    H1 1557   0.944   4.524   0.848  0.1509 -0.6955 -0.1533
  517TIP3    H2 1558   0.888   4.487   0.712  0.3135  2.7841 -1.2904
  518TIP3   OH2 1559   2.388   0.288   0.503  0.3756 -0.4182  0.4715
  518TIP3    H1 1560   2.437   0.226   0.557  0.3699 -2.4421 -1.6842
  518TIP3    H2 1561   2.308   0.242   0.480 -0.2444  0.9139 -0.1443
  519TIP3   OH2 1562   6.148   0.283   4.031 -0.5769 -0.3510 -0.4545
  519TIP3    H1 1563   6.190   0.369   4.024  0.9861 -1.1486 -1.7171
  519TIP3    H2 1564   6.141   0.252   3.940 -4.7977  0.0488 -0.4519
  520TIP3   OH2 1565   1.140   0.964   0.697 -0.4651  0.4303  0.2724
  520TIP3    H1 1566   1.069   0.916   0.654  0.5800 -1.5734  0.6676
  520TIP3    H2 1567   1.190   0.897   0.743 -0.1892  2.1797  2.7396
  521TIP3   OH2 1568   5.772   0.364   2.312  0.8835  0.0826 -0.6364
  521TIP3    H1 1569   5.779   0.324   2.225 -0.2854  0.1091 -0.7671
  521TIP3    H2 1570   5.691   0.328   2.348  0.8275  0.8435  0.0342
  522TIP3   OH2 1571   1.979   4.525   2.789  0.1006  0.1459 -0.5255
  522TIP3    H1 1572   1.978   4.568   2.874  3.5087 -2.3779  0.9897
  522TIP3    H2 1573   2.071   4.511   2.770 -0.6596 -2.6396 -2.8923
  523TIP3   OH2 1574   5.401   5.850   3.959  0.1979 -0.0497  0.0926
  523TIP3    H1 1575   5.316   5.892   3.969  0.8002  0.8850  1.5290
  523TIP3    H2 1576   5.464   5.914   3.990  1.3009 -1.3560  0.6633
  524TIP3   OH2 1577   2.649   2.935   3.241 -0.1600  0.6328  0.0753
  524TIP3    H1 1578   2.675   2.852   3.282 -0.9331  1.0216  1.3932
  524TIP3    H2 1579   2.555   2.940   3.254 -0.3107  1.1602 -1.0785
  525TIP3   OH2 1580   5.937   1.801   0.943 -0.1728  0.0386 -0.3478
  525TIP3    H1 1581   5.869   1.813   1.009 -0.6784 -1.2624 -0.5976
  525TIP3    H2 1582   5.933   1.881   0.891 -1.6941 -0.1019 -0.5104
  526TIP3   OH2 1583   2.730   5.955   1.603  0.4973  0.2245 -0.0743
  526TIP3    H1 1584   2.724   5.914   1.516  0.4160  1.1506 -0.5254
  526TIP3    H2 1585   2.699   5.888   1.664 -1.3832  0.2018 -0.9660
  527TIP3   OH2 1586   1.501   3.193   2.473 -0.4060  0.1361  0.4961
  527TIP3    H1 1587   1.517   3.107   2.434 -0.5656  0.3634 -0.0795
  527TIP3    H2 1588   1.572   3.248   2.442 -1.9511  1.0173 -1.6825
  528TIP3   OH2 1589   0.867   0.113   0.507 -0.2384  0.2268  0.2308
  528TIP3    H1 1590   0.961   0.127   0.492 -0.1269 -0.7491 -0.0071
  528TIP3    H2 1591   0.854   0.019   0.496 -1.7578  0.6578 -2.6449
  529TIP3   OH2 1592   5.295   5.056   4.707 -0.4963 -0.0615  0.2165
  529TIP3    H1 1593   5.356   5.130   4.712  0.9541 -1.2889  2.3199
  529TIP3    H2 1594   5.277   5.034   4.798  0.0585 -3.0049 -0.3012
  530TIP3   OH2 1595   0.639   4.166   0.850  0.1021 -0.7638  0.6291
  530TIP3    H1 1596   0.629   4.147   0.943  2.5294 -1.1873  0.8541
  530TIP3    H2 1597   0.637   4.261   0.845  0.2494 -0.7299  1.1388
  531TIP3   OH2 1598   1.743   2.209   1.182  0.4619  0.3766  0.3670
  531TIP3    H1 1599   1.830   2.193   1.219 -0.0093 -1.0822  0.9482
  531TIP3    H2 1600   1.717   2.294   1.217  1.0423  0.1329  1.4537
  532TIP3   OH2 1601   4.091   4.242   4.425 -0.1461  0.4374 -0.5755
  532TIP3    H1 1602   4.089   4.337   4.437 -0.0389  0.2258  1.3805
  532TIP3    H2 1603   4.138   4.208   4.501 -2.5940 -1.3606  0.2971
  533TIP3   OH2 1604   0.698   3.319   1.728 -0.3834  0.2484  0.3176
  533TIP3    H1 1605   0.698   3.351   1.818 -0.8811 -2.7532  1.4994
  533TIP3    H2 1606   0.616   3.270   1.720 -0.2680  0.3123 -1.7411
  534TIP3   OH2 1607   5.983   2.234   1.603 -0.4742 -0.0248 -0.1677
  534TIP3    H1 1608   5.966   2.303   1.539  2.7656 -0.0799 -1.2682
  534TIP3    H2 1609   6.066   2.258   1.644 -1.0174 -1.4907  2.0146
  535TIP3   OH2 1610   1.225   2.172   0.019  0.3230  0.1400 -0.2039
  535TIP3    H1 1611   1.188   2.147   0.103  1.0754 -0.5392 -0.0530
  535TIP3    H2 1612   1.286   2.242   0.039 -0.1575  0.5987 -0.3188
  536TIP3   OH2 1613   4.078   5.332   2.290  0.2409  0.1429 -0.0163
  536TIP3    H1 1614   4.103   5.327   2.383 -0.2881  0.5430  0.1559
  536TIP3    H2 1615   4.035   5.418   2.282 -2.3081 -1.0243  0.0387
  537TIP3   OH2 1616   4.777   3.808   0.678  0.5572 -0.3261 -0.2132
  537TIP3    H1 1617   4.767   3.805   0.582  0.3107 -1.2761 -0.1660
  537TIP3    H2 1618   4.871   3.817   0.691  0.6275 -0.5211 -0.5499
  538TIP3   OH2 1619   2.684   2.049   4.231  0.5754 -0.7199  0.6391
  538TIP3    H1 1620   2.778   2.056   4.210  0.6010 -1.9251  0.2727
  538TIP3    H2 1621   2.676   2.090   4.317  0.7354  3.0234 -0.9667
  539TIP3   OH2 1622   2.389   1.717   2.493  0.3392  0.1576 -0.0051
  539TIP3    H1 1623   2.302   1.723   2.454 -0.1863 -0.0621  1.0846
  539TIP3    H2 1624   2.410   1.807   2.516  0.1744  0.1494  0.1857
  540TIP3   OH2 1625   5.838   3.113   0.450  0.2710  0.5761 -0.1785
  540TIP3    H1 1626   5.880   3.193   0.482  1.3343 -0.2194  0.4868
  540TIP3    H2 1627   5.773   3.092   0.517 -0.5177  1.2655 -0.7143
  541TIP3   OH2 1628   0.850   3.973   3.698  0.4514 -0.1444  0.1030
  541TIP3    H1 1629   0.824   3.906   3.635 -0.3351 -0.8212  1.1165
  541TIP3    H2 1630   0.806   4.053   3.667 -1.1310 -0.7942  0.5724
  542TIP3   OH2 1631   6.004   5.875   0.181  0.1888  0.7617  0.1048
  542TIP3    H1 1632   6.077   5.887   0.121  0.3117 -0.7893 -0.1029
  542TIP3    H2 1633   6.016   5.942   0.247 -0.0522  2.6570 -1.6673
  543TIP3   OH2 1634   3.083   1.581   3.801 -0.8691  0.0003 -0.4189
  543TIP3    H1 1635   3.092   1.502   3.854 -0.6226  1.8157  2.4058
  543TIP3    H2 1636   3.064   1.548   3.713 -0.8204 -3.1765  0.6382
  544TIP3   OH2 1637   0.209   1.808   3.663  0.3995 -0.3911 -0.0403
  544TIP3    H1 1638   0.267   1.735   3.644  0.6134 -0.1742 -0.2321
  544TIP3    H2 1639   0.268   1.879   3.689  0.4414  0.6328 -2.6711
  545TIP3   OH2 1640   1.287   1.700   2.988  0.1328  0.3600 -0.0739
  545TIP3    H1 1641   1.377   1.732   2.992 -0.3650  1.7176  0.9869
  545TIP3    H2 1642   1.292   1.622   2.933  1.9914  0.2473  0.1906
  546TIP3   OH2 1643   2.048   3.714   5.171  0.1566  0.2766 -0.3589
  546TIP3    H1 1644   2.002   3.763   5.240 -1.6381 -1.0914 -0.5088
  546TIP3    H2 1645   2.022   3.759   5.090  1.2044  1.0752 -0.2714
  547TIP3   OH2 1646   6.090   2.845   1.610 -0.5992 -0.6068  0.2119
  547TIP3    H1 1647   6.018   2.793   1.645 -1.6930  0.4697 -0.3613
  547TIP3    H2 1648   6.105   2.809   1.522 -2.2303  0.7691 -0.7096
  548TIP3   OH2 1649   4.230   0.230   1.193  0.3485 -0.3401 -0.2550
  548TIP3    H1 1650   4.292   0.279   1.139 -0.9600  1.5386 -0.1702
  548TIP3    H2 1651   4.238   0.270   1.280 -0.8820 -0.0994 -0.2290
  549TIP3   OH2 1652   5.778   3.718   3.010  0.0795 -0.5487  0.5221
  549TIP3    H1 1653   5.749   3.795   2.961  0.7739 -0.6518 -0.0765
  549TIP3    H2 1654   5.698   3.673   3.034 -0.3030 -0.1211  0.0853
  550TIP3   OH2 1655   2.472   3.167   2.360  0.6321 -1.2147 -0.0884
  550TIP3    H1 1656   2.456   3.228   2.288 -0.3120 -1.2461  0.0723
  550TIP3    H2 1657   2.430   3.208   2.435  0.9395 -1.5492  0.2657
  551TIP3   OH2 1658   0.529   5.912   4.214  0.5864 -0.8542 -0.1434
  551TIP3    H1 1659   0.604   5.933   4.159  1.6481 -2.6955  0.5059
  551TIP3    H2 1660   0.545   5.961   4.295  1.4395 -1.6937  0.2180
  552TIP3   OH2 1661   2.596   2.105   2.883 -0.0674 -0.7224 -0.0177
  552TIP3    H1 1662   2.620   2.021   2.922  2.5321 -0.4284 -0.7807
  552TIP3    H2 1663   2.674   2.160   2.896 -0.4229  0.4835 -2.4950
  553TIP3   OH2 1664   0.691   2.521   4.663  0.2504 -0.1277 -0.4415
  553TIP3    H1 1665   0.682   2.480   4.749 -0.0782 -0.3300 -0.5721
  553TIP3    H2 1666   0.695   2.615   4.682 -0.6808 -0.1094 -0.2576
  554TIP3   OH2 1667   0.045   0.703   3.643 -0.6588  0.2106 -0.2324
  554TIP3    H1 1668  -0.036   0.652   3.635  0.2626 -1.6631  1.5762
  554TIP3    H2 1669   0.023   0.775   3.702 -1.0315 -0.2814  0.2368
  555TIP3   OH2 1670   0.781   1.870   4.003  0.0981  0.4319  0.0180
  555TIP3    H1 1671   0.876   1.878   4.011  0.4367 -2.0108 -0.6029
  555TIP3    H2 1672   0.756   1.941   3.943  1.3994  1.5070  0.6900
  556TIP3   OH2 1673   4.363   3.183   2.579  0.2422  0.2184 -0.9559
  556TIP3    H1 1674   4.369   3.187   2.674  0.8240 -1.4308 -0.8996
  556TIP3    H2 1675   4.411   3.261   2.549  0.9378  0.2124  0.0756
  557TIP3   OH2 1676   1.968   1.534   4.072 -0.3098  0.2049 -0.4012
  557TIP3    H1 1677   1.878   1.552   4.098 -0.0377  1.6512 -0.4043
  557TIP3    H2 1678   2.014   1.616   4.087  0.7213 -0.1145 -1.6681
  558TIP3   OH2 1679   5.483   4.151   2.681 -0.3343  0.1883 -0.2298
  558TIP3    H1 1680   5.529   4.182   2.603  0.0033 -0.4736 -0.2991
  558TIP3    H2 1681   5.522   4.065   2.700 -1.0497 -0.0679  0.1270
  559TIP3   OH2 1682   2.067   2.448   0.133 -0.1060 -0.2302 -0.8165
  559TIP3    H1 1683   1.986   2.479   0.093  0.2517 -1.7494 -2.8894
  559TIP3    H2 1684   2.135   2.507   0.099 -0.1824  0.4189  0.1173
  560TIP3   OH2 1685   2.606   4.348   3.382 -0.0656  0.4630 -0.1627
  560TIP3    H1 1686   2.654   4.272   3.416 -0.1344  0.4039 -0.1970
  560TIP3    H2 1687   2.656   4.423   3.413  1.3283  0.3909 -2.0198
  561TIP3   OH2 1688   4.504   1.213   1.084  0.3761 -0.4327  0.5591
  561TIP3    H1 1689   4.509   1.140   1.023 -1.1561 -0.0979 -0.0099
  561TIP3    H2 1690   4.589   1.215   1.127  1.0406 -1.4590 -0.6703
  562TIP3   OH2 1691   1.044   2.217   1.425  0.1238 -0.0288  0.5235
  562TIP3    H1 1692   1.017   2.300   1.463  1.7874  1.1819 -0.8211
  562TIP3    H2 1693   0.998   2.151   1.477 -0.6474  1.6831  2.1128
  563TIP3   OH2 1694   0.800   4.781   4.468  0.1213  0.9550 -0.3600
  563TIP3    H1 1695   0.831   4.798   4.557  0.1047 -2.3156  0.4100
  563TIP3    H2 1696   0.706   4.763   4.478  0.1603  0.3407 -1.0093
  564TIP3   OH2 1697   2.379   3.261   3.184 -0.1517 -0.3591 -0.4360
  564TIP3    H1 1698   2.330   3.257   3.102  0.8263 -0.3351 -1.0390
  564TIP3    H2 1699   2.471   3.259   3.157  0.1976 -1.8765  0.7225
  565TIP3   OH2 1700   0.017   5.818   1.492  0.0188 -0.4176 -0.5479
  565TIP3    H1 1701   0.022   5.765   1.572 -0.2502  0.3503 -0.0092
  565TIP3    H2 1702   0.098   5.796   1.444 -0.0307 -1.2155 -0.2894
  566TIP3   OH2 1703   1.004   5.013   0.281  0.4617  0.0256  0.4787
  566TIP3    H1 1704   0.983   4.987   0.371 -0.5237 -0.6923  0.0546
  566TIP3    H2 1705   0.942   4.965   0.227 -0.3205  1.9696 -0.4651
  567TIP3   OH2 1706   6.255   5.707   4.770 -0.0198  0.0239 -0.3583
  567TIP3    H1 1707   6.328   5.767   4.786  0.3440 -0.6120  0.4598
  567TIP3    H2 1708   6.296   5.621   4.765 -0.6351 -0.2547 -0.6616
  568TIP3   OH2 1709   4.651   2.122   4.400  0.7244 -0.0683  0.1211
  568TIP3    H1 1710   4.585   2.063   4.436 -0.0537  1.1386  0.7326
  568TIP3    H2 1711   4.697   2.155   4.476  1.5866 -0.3609 -0.2624
  569TIP3   OH2 1712   0.644   5.563   1.997  0.1006 -0.3871 -0.9089
  569TIP3    H1 1713   0.612   5.504   2.065  1.1806  2.3198  2.2299
  569TIP3    H2 1714   0.661   5.506   1.922 -2.4013 -3.3996  0.5730
  570TIP3   OH2 1715   1.172   2.560   2.346  0.0972  0.1715  0.1016
  570TIP3    H1 1716   1.237   2.515   2.400  1.3528  0.9198 -0.7199
  570TIP3    H2 1717   1.156   2.500   2.273 -0.5313 -0.2294  0.5600
  571TIP3   OH2 1718   3.506   2.569   3.509  0.3123  0.0566 -0.0728
  571TIP3    H1 1719   3.595   2.557   3.475  1.1339  0.6036  1.7843
  571TIP3    H2 1720   3.456   2.601   3.434  1.3837 -1.3443 -1.4555
  572TIP3   OH2 1721   5.601   5.753   4.498  0.1381 -0.2060  0.2171
  572TIP3    H1 1722   5.527   5.772   4.440  0.1399  0.4385  0.4253
  572TIP3    H2 1723   5.566   5.765   4.586  0.6812  0.8387  0.3062
  573TIP3   OH2 1724   3.399   4.234   2.364  0.3748  0.3040 -0.2174
  573TIP3    H1 1725   3.314   4.248   2.407 -0.6355 -0.6533 -1.8215
  573TIP3    H2 1726   3.444   4.172   2.421 -0.7829 -0.6457 -0.3051
  574TIP3   OH2 1727   2.164   2.203   4.657 -0.3339 -0.0345 -0.5785
  574TIP3    H1 1728   2.211   2.280   4.625 -0.4825  0.6181  0.6850
  574TIP3    H2 1729   2.219   2.168   4.727 -1.8112  0.9863  1.2089
  575TIP3   OH2 1730   5.206   2.699   2.185 -0.1274 -0.3635  0.5323
  575TIP3    H1 1731   5.167   2.665   2.105 -0.1606 -0.2270  0.4909
  575TIP3    H2 1732   5.150   2.665   2.255  0.0350 -0.6728  0.5146
  576TIP3   OH2 1733   2.272   4.624   3.677  0.3890  0.3751  0.2325
  576TIP3    H1 1734   2.219   4.701   3.696 -0.0428 -0.0683  0.8518
  576TIP3    H2 1735   2.216   4.550   3.701  0.3354 -0.1862 -1.4859
  577TIP3   OH2 1736   2.182   2.084   3.562 -0.2070 -0.0463  0.2245
  577TIP3    H1 1737   2.257   2.071   3.620  0.7693  2.1229 -0.4486
  577TIP3    H2 1738   2.215   2.059   3.475  0.0342  1.6448 -0.2015
  578TIP3   OH2 1739   2.356   2.415   1.298  0.2803 -0.6359 -0.0839
  578TIP3    H1 1740   2.364   2.507   1.275 -2.2501 -0.3117  0.0012
  578TIP3    H2 1741   2.350   2.370   1.214  0.6437 -0.6279 -0.1158
  579TIP3   OH2 1742   4.171   5.569   4.504  0.6764  0.0488 -0.5277
  579TIP3    H1 1743   4.199   5.612   4.424 -0.2201  1.5070 -0.1043
  579TIP3    H2 1744   4.084   5.605   4.522  1.3486  0.7111  1.7566
  580TIP3   OH2 1745   2.403   0.627   5.019 -0.2570 -0.4901  0.7294
  580TIP3    H1 1746   2.493   0.598   5.027 -0.6312 -1.7436  0.6167
  580TIP3    H2 1747   2.370   0.585   4.940 -0.4068  1.4673 -0.3147
  581TIP3   OH2 1748   4.390   5.089   4.157 -1.2607  0.2280 -0.4800
  581TIP3    H1 1749   4.364   5.038   4.233 -0.1400 -1.2448 -1.0391
  581TIP3    H2 1750   4.312   5.091   4.101 -2.6921  2.8586  1.4087
  582TIP3   OH2 1751   1.225   3.117   0.216  0.1562  0.0068  0.3278
  582TIP3    H1 1752   1.187   3.063   0.146 -0.8080 -0.2250  1.0066
  582TIP3    H2 1753   1.226   3.205   0.180 -1.2130  0.0496  0.3275
  583TIP3   OH2 1754   0.200   5.517   2.460 -0.1272  0.1687  0.4939
  583TIP3    H1 1755   0.226   5.447   2.400  0.5543 -0.8465  1.9353
  583TIP3    H2 1756   0.146   5.575   2.406 -0.0219 -1.0087 -0.9474
  584TIP3   OH2 1757   0.729   0.758   3.826  0.4312  0.2340 -0.5966
  584TIP3    H1 1758   0.689   0.681   3.867  1.6016  0.9881  2.1767
  584TIP3    H2 1759   0.803   0.723   3.776  0.3989 -0.5166 -0.1332
  585TIP3   OH2 1760   1.503   4.243   3.029  0.0034  0.5930 -0.3191
  585TIP3    H1 1761   1.590   4.217   2.997 -0.1059 -0.5011  0.2265
  585TIP3    H2 1762   1.444   4.176   2.995 -0.3448  0.2885  0.8416
  586TIP3   OH2 1763   4.557   5.308   0.726 -0.3133  0.2444  0.1850
  586TIP3    H1 1764   4.647   5.335   0.711 -0.3080  0.9329  1.3459
  586TIP3    H2 1765   4.537   5.250   0.653  0.1311  2.3276 -1.7193
  587TIP3   OH2 1766   6.217   3.987   3.695 -0.4003  0.2072 -0.0307
  587TIP3    H1 1767   6.306   3.955   3.683 -0.2490 -0.2799  1.9862
  587TIP3    H2 1768   6.211   4.064   3.638  1.4383  0.5040  0.1121
  588TIP3   OH2 1769   0.233   5.862   4.623  0.8017  0.1938 -0.5285
  588TIP3    H1 1770   0.157   5.910   4.656  0.8978 -1.0423  1.7263
  588TIP3    H2 1771   0.307   5.898   4.672  0.9321 -1.8107  0.9030
  589TIP3   OH2 1772   5.766   2.236   3.449  0.9759  0.2480  0.3804
  589TIP3    H1 1773   5.724   2.213   3.532 -2.1663  1.9760 -0.5458
  589TIP3    H2 1774   5.834   2.300   3.473 -0.0735  0.9276  1.6352
  590TIP3   OH2 1775   2.445   0.524   2.691  0.2009 -0.1528 -0.1198
  590TIP3    H1 1776   2.471   0.612   2.718  0.6927 -0.1629 -0.5451
  590TIP3    H2 1777   2.488   0.511   2.606  1.6244 -1.5008  0.7701
  591TIP3   OH2 1778   4.949   5.759   2.203 -0.3535  0.2798 -0.0283
  591TIP3    H1 1779   4.918   5.746   2.293  0.2849  1.4415  0.3719
  591TIP3    H2 1780   4.872   5.740   2.149 -0.5925 -1.0154  0.7057
  592TIP3   OH2 1781   5.853   2.010   5.046 -0.8847  0.2658 -0.1872
  592TIP3    H1 1782   5.802   1.950   5.101  1.3285 -2.4732 -0.8733
  592TIP3    H2 1783   5.933   2.026   5.096 -0.1090  0.0757 -1.3288
  593TIP3   OH2 1784   3.590   0.701   2.292  0.1482  0.1691 -0.4686
  593TIP3    H1 1785   3.532   0.727   2.364  1.1951  0.0324  0.4480
  593TIP3    H2 1786   3.604   0.607   2.306  0.6626  0.2196 -0.6341
  594TIP3   OH2 1787   6.213   5.156   2.303 -0.0006 -0.2000  0.1477
  594TIP3    H1 1788   6.206   5.078   2.247 -0.7365  0.1415 -0.2586
  594TIP3    H2 1789   6.241   5.123   2.388 -0.6812 -0.9673  0.0887
  595TIP3   OH2 1790   1.287   1.192   3.118 -0.2261 -0.9054 -0.4688
  595TIP3    H1 1791   1.350   1.203   3.046 -0.7554  0.3049 -0.7627
  595TIP3    H2 1792   1.337   1.215   3.196  0.1057 -1.3850 -0.5318
  596TIP3   OH2 1793   4.950   3.154   3.457 -0.5824  0.2179 -0.2118
  596TIP3    H1 1794   5.038   3.178   3.429 -0.4763 -0.5141 -0.5303
  596TIP3    H2 1795   4.918   3.096   3.389 -0.2113 -1.8248  1.2599
  597TIP3   OH2 1796   4.918   0.771   4.295  0.2133  0.4035 -0.4309
  597TIP3    H1 1797   4.885   0.756   4.383  1.2339 -1.4174 -0.3148
  597TIP3    H2 1798   4.840   0.781   4.241 -0.4369  0.4428  0.5089
  598TIP3   OH2 1799   1.212   3.253   3.907  0.7824 -0.4393 -0.3928
  598TIP3    H1 1800   1.214   3.288   3.818  2.1491  0.0157 -0.2051
  598TIP3    H2 1801   1.186   3.327   3.961 -1.3075 -1.0152 -0.4915
  599TIP3   OH2 1802   5.052   2.494   2.744  0.4249  0.2230 -0.2003
  599TIP3    H1 1803   4.985   2.473   2.677  0.2429  0.6345 -0.1476
  599TIP3    H2 1804   5.064   2.411   2.791  0.7799 -0.1549 -0.9421
  600TIP3   OH2 1805   4.219   4.282   3.146 -0.8500  0.2768  0.0630
  600TIP3    H1 1806   4.165   4.342   3.197 -1.0353  1.1441 -1.0862
  600TIP3    H2 1807   4.160   4.247   3.079 -0.2220  0.5213 -0.6412
  601TIP3   OH2 1808   3.553   1.751   4.095 -0.5473 -0.4752 -0.0148
  601TIP3    H1 1809   3.459   1.751   4.075 -0.6342 -0.0130  0.3498
  601TIP3    H2 1810   3.580   1.841   4.080 -0.5805 -0.1386  1.6796
  602TIP3   OH2 1811   1.068   0.478   1.712  0.0343 -0.4674 -0.4640
  602TIP3    H1 1812   1.079   0.543   1.781 -0.9998  1.0734 -1.6547
  602TIP3    H2 1813   1.139   0.495   1.651  1.8347 -2.7883  0.8365
  603TIP3   OH2 1814   4.779   1.520   4.968 -0.5656 -0.1983 -0.3792
  603TIP3    H1 1815   4.854   1.463   4.952 -1.8933 -1.8964 -0.8406
  603TIP3    H2 1816   4.743   1.536   4.882 -0.0467  1.6607 -0.2919
  604TIP3   OH2 1817   2.093   1.832   4.671  0.2796  0.0651 -0.4935
  604TIP3    H1 1818   2.170   1.779   4.649 -0.3371 -0.2872 -1.9120
  604TIP3    H2 1819   2.062   1.865   4.587  0.5532  2.6179  0.3365
  605TIP3   OH2 1820   3.537   1.889   0.428  0.5524 -0.1249 -0.0027
  605TIP3    H1 1821   3.604   1.860   0.367  0.7234  0.4244 -0.0818
  605TIP3    H2 1822   3.529   1.983   0.413  0.1177 -0.0973  0.3507
  606TIP3   OH2 1823   2.699   5.737   3.664 -0.4674  0.0972  0.2028
  606TIP3    H1 1824   2.707   5.811   3.604 -0.1145 -0.4701 -0.4607
  606TIP3    H2 1825   2.789   5.719   3.692 -0.4622 -0.5137 -0.1790
  607TIP3   OH2 1826   2.193   2.446   5.024 -0.5769  0.8678 -0.1430
  607TIP3    H1 1827   2.163   2.356   5.031 -2.0839  1.4371  1.1922
  607TIP3    H2 1828   2.288   2.439   5.012 -0.5840 -0.8734  0.5838
  608TIP3   OH2 1829   5.686   1.833   0.726  0.1962 -0.3069 -0.0784
  608TIP3    H1 1830   5.752   1.833   0.657 -0.8940  0.6931 -1.1840
  608TIP3    H2 1831   5.622   1.898   0.697 -1.8470 -2.0052  0.3565
  609TIP3   OH2 1832   1.432   1.864   2.615  0.2111  0.1812 -0.4233
  609TIP3    H1 1833   1.390   1.778   2.614  1.9106 -0.6878 -0.2966
  609TIP3    H2 1834   1.397   1.907   2.693  0.2200 -0.8403  0.1565
  610TIP3   OH2 1835   3.853   3.874   3.154  0.0478 -0.1862  0.3869
  610TIP3    H1 1836   3.929   3.817   3.142  0.9179  1.2060 -1.2659
  610TIP3    H2 1837   3.854   3.931   3.077 -2.1598  0.4895  0.7877
  611TIP3   OH2 1838   1.107   2.045   4.814  0.7180  0.3950  0.1332
  611TIP3    H1 1839   1.074   2.085   4.894  0.5983 -1.7301  1.2201
  611TIP3    H2 1840   1.169   1.978   4.844  1.8047  0.5274 -1.6224
  612TIP3   OH2 1841   2.854   2.319   0.203 -0.4808 -0.8820 -0.2847
  612TIP3    H1 1842   2.821   2.252   0.264 -2.9939  1.6103  1.3715
  612TIP3    H2 1843   2.939   2.344   0.238 -0.0147 -2.3322 -0.2864
  613TIP3   OH2 1844   3.709   2.470   2.065  0.5651  0.0599  0.5124
  613TIP3    H1 1845   3.705   2.553   2.113  2.3259  1.3825 -1.4752
  613TIP3    H2 1846   3.796   2.468   2.026 -0.5363 -1.1883 -2.1599
  614TIP3   OH2 1847   4.344   1.957   2.187  0.2317 -0.0357  0.2878
  614TIP3    H1 1848   4.385   1.947   2.274 -0.0796 -0.3926  0.3953
  614TIP3    H2 1849   4.283   2.030   2.198  1.2136  0.8727 -0.0193
  615TIP3   OH2 1850   3.181   0.939   1.516 -0.1304 -0.4108  0.6963
  615TIP3    H1 1851   3.186   0.882   1.593 -0.3550 -0.4544  0.6797
  615TIP3    H2 1852   3.087   0.952   1.502 -0.1036  1.3809  1.7547
  616TIP3   OH2 1853   3.467   3.277   0.606  0.3038  0.0717  0.4240
  616TIP3    H1 1854   3.494   3.369   0.605 -2.1119  0.8730 -1.3649
  616TIP3    H2 1855   3.459   3.254   0.513  0.1780 -1.7369  0.8515
  617TIP3   OH2 1856   4.284   3.306   3.653  0.1804  0.2227 -0.5651
  617TIP3    H1 1857   4.357   3.340   3.602  1.1178 -1.0186 -0.1069
  617TIP3    H2 1858   4.319   3.298   3.742 -0.0281 -1.7777 -0.6347
  618TIP3   OH2 1859   6.019   2.381   3.417 -0.1559 -0.2132  0.4301
  618TIP3    H1 1860   6.020   2.382   3.322 -1.3659 -1.1580  0.3812
  618TIP3    H2 1861   6.077   2.452   3.443 -0.6834  0.7868 -1.0142
  619TIP3   OH2 1862   4.985   5.968   4.796  0.1164  0.0219  0.4138
  619TIP3    H1 1863   5.066   5.925   4.768 -0.5310  0.2337 -2.0932
  619TIP3    H2 1864   4.915   5.919   4.752 -1.0733  0.3628  1.8388
  620TIP3   OH2 1865   1.100   5.914   0.675  0.2193  0.3449 -0.2838
  620TIP3    H1 1866   1.178   5.885   0.722 -1.7504 -1.8147  1.9272
  620TIP3    H2 1867   1.127   5.993   0.629  3.0169  1.1572  2.4686
  621TIP3   OH2 1868   1.347   3.616   4.222  0.9585  0.6943 -0.6527
  621TIP3    H1 1869   1.306   3.683   4.168  0.4689  0.6443 -0.3545
  621TIP3    H2 1870   1.364   3.659   4.306  1.7502  0.7841 -0.8509
  622TIP3   OH2 1871   2.164   3.843   4.415  0.1944  0.3691  0.3503
  622TIP3    H1 1872   2.219   3.770   4.443  1.0933  1.5115  1.6637
  622TIP3    H2 1873   2.139   3.887   4.496 -2.2462  0.2299 -0.2190
  623TIP3   OH2 1874   4.586   1.825   3.305  0.4279 -0.4168 -0.0266
  623TIP3    H1 1875   4.565   1.785   3.220  1.5364 -0.8214 -0.1149
  623TIP3    H2 1876   4.655   1.888   3.285 -1.7686  2.1911 -0.0271
  624TIP3   OH2 1877   5.382   5.499   0.692  0.1139 -0.5222  0.7752
  624TIP3    H1 1878   5.392   5.417   0.642  0.5803 -0.7237  1.1940
  624TIP3    H2 1879   5.394   5.568   0.627  0.2048 -0.7839  0.5098
  625TIP3   OH2 1880   0.737   1.695   1.066 -0.4378 -0.2486  0.1215
  625TIP3    H1 1881   0.719   1.610   1.025  1.9782 -0.0656 -1.5555
  625TIP3    H2 1882   0.770   1.674   1.153  1.6935 -1.2348 -0.8438
  626TIP3   OH2 1883   2.320   1.689   4.571 -0.2136  0.3068  0.2497
  626TIP3    H1 1884   2.271   1.646   4.501  0.5108 -0.7230  0.3565
  626TIP3    H2 1885   2.378   1.750   4.527 -1.0373  0.9746  0.0736
  627TIP3   OH2 1886   1.797   1.509   1.764  0.1107  0.4170  0.0579
  627TIP3    H1 1887   1.721   1.473   1.810 -0.1491 -0.7009 -1.1896
  627TIP3    H2 1888   1.846   1.556   1.832 -1.0251  0.0906  1.1468
  628TIP3   OH2 1889   5.733   2.495   0.276 -0.0081  0.5693  0.0700
  628TIP3    H1 1890   5.792   2.457   0.210 -0.2261  1.7581 -0.8421
  628TIP3    H2 1891   5.650   2.451   0.261  0.0575  0.5167 -0.1476
  629TIP3   OH2 1892   3.712   5.883   3.055  0.3921 -0.1056 -0.1006
  629TIP3    H1 1893   3.710   5.841   2.969  0.5909  0.9566 -0.6393
  629TIP3    H2 1894   3.719   5.811   3.117  0.5666 -0.8703 -0.9941
  630TIP3   OH2 1895   1.390   2.380   2.893 -0.0111  0.9094 -0.1870
  630TIP3    H1 1896   1.403   2.341   2.807  1.1452 -0.5959  0.6290
  630TIP3    H2 1897   1.445   2.459   2.892  0.5932  0.4904 -0.5763
  631TIP3   OH2 1898   4.355   4.664   1.732 -0.8057  0.2863 -0.1904
  631TIP3    H1 1899   4.373   4.740   1.788  0.4580 -0.3014  0.2462
  631TIP3    H2 1900   4.260   4.654   1.733 -0.8293  0.5501  1.5028
  632TIP3   OH2 1901   1.591   2.659   4.666 -0.1404 -0.1968 -0.4899
  632TIP3    H1 1902   1.524   2.688   4.605  0.2151  1.4884 -0.1427
  632TIP3    H2 1903   1.667   2.713   4.646  0.5342 -0.8121  0.3094
  633TIP3   OH2 1904   6.108   5.756   4.477  0.1902 -0.3389 -0.0592
  633TIP3    H1 1905   6.156   5.762   4.559  1.4243  2.4927 -0.8876
  633TIP3    H2 1906   6.017   5.775   4.501  0.3544 -0.5667  0.7818
  634TIP3   OH2 1907   0.056   2.831   3.028  0.1839  0.5209  0.5801
  634TIP3    H1 1908   0.062   2.735   3.026  0.6511  0.5446  0.5807
  634TIP3    H2 1909  -0.034   2.849   3.052 -0.5221  0.0920 -1.5575
  635TIP3   OH2 1910   0.203   2.937   3.712 -0.1431  0.1098  0.1520
  635TIP3    H1 1911   0.125   2.993   3.712 -0.1279  0.1325 -0.0766
  635TIP3    H2 1912   0.263   2.981   3.652 -1.1481 -1.5629 -2.2356
  636TIP3   OH2 1913   3.776   2.373   1.359  0.0355 -0.4089 -0.0082
  636TIP3    H1 1914   3.782   2.354   1.452 -0.8037  0.4465  0.2412
  636TIP3    H2 1915   3.682   2.386   1.343  0.0746 -1.3176 -1.1364
  637TIP3   OH2 1916   4.870   4.938   3.377  0.2116  0.4793  0.2134
  637TIP3    H1 1917   4.800   4.879   3.349  0.6636 -0.4850  1.0804
  637TIP3    H2 1918   4.950   4.897   3.344  0.5975  0.1759  1.4977
  638TIP3   OH2 1919   2.590   0.895   0.650  0.1136 -0.3439 -0.3075
  638TIP3    H1 1920   2.653   0.967   0.652  1.1655 -1.2519  0.0833
  638TIP3    H2 1921   2.626   0.830   0.710 -0.9729 -1.0707 -0.4247
  639TIP3   OH2 1922   2.341   2.471   3.739  0.2987 -0.1151 -0.6994
  639TIP3    H1 1923   2.386   2.443   3.659  1.7410  3.3263 -1.2904
  639TIP3    H2 1924   2.269   2.525   3.708 -0.3298 -0.3571  0.3274
  640TIP3   OH2 1925   2.869   3.770   1.832 -0.7010 -0.6941  0.0286
  640TIP3    H1 1926   2.840   3.726   1.752 -0.4066 -0.8376  0.0022
  640TIP3    H2 1927   2.844   3.710   1.902 -0.6613 -0.7175  0.0224
  641TIP3   OH2 1928   5.504   1.000   3.618 -0.3104  0.2183 -0.2475
  641TIP3    H1 1929   5.483   0.959   3.702  1.3916 -0.6494 -0.1891
  641TIP3    H2 1930   5.451   1.079   3.616 -1.3745 -0.4133  1.0495
  642TIP3   OH2 1931   5.072   0.894   4.111 -0.8782  0.6688 -0.2522
  642TIP3    H1 1932   5.025   0.876   4.192  0.3349  1.2491  0.6163
  642TIP3    H2 1933   5.004   0.909   4.046 -1.8782  0.7036  0.7775
  643TIP3   OH2 1934   1.925   0.429   3.531  0.2855  0.0849  0.6097
  643TIP3    H1 1935   1.996   0.484   3.564  1.7090 -0.7286 -0.9857
  643TIP3    H2 1936   1.968   0.358   3.484 -1.4871 -2.1857  2.1400
  644TIP3   OH2 1937   3.688   3.518   0.095 -0.6084  0.4570 -0.1006
  644TIP3    H1 1938   3.609   3.466   0.083  0.1428 -0.4307 -1.5352
  644TIP3    H2 1939   3.666   3.604   0.059 -1.0495  0.3265 -0.1464
  645TIP3   OH2 1940   1.340   0.023   3.342 -0.2511  0.1634  0.1547
  645TIP3    H1 1941   1.257   0.025   3.390 -0.7834 -1.4965 -0.6353
  645TIP3    H2 1942   1.406   0.006   3.409 -0.4847  1.7040  0.8208
  646TIP3   OH2 1943   3.938   5.611   4.173 -0.2553  0.1727 -0.6275
  646TIP3    H1 1944   3.899   5.560   4.103 -0.6645  1.6427 -1.5095
  646TIP3    H2 1945   3.876   5.604   4.246 -0.9305  0.4442 -1.1717
  647TIP3   OH2 1946   3.345   4.791   3.342  0.6390  0.1254  0.2709
  647TIP3    H1 1947   3.357   4.699   3.315  0.4833  0.1788  0.0105
  647TIP3    H2 1948   3.424   4.835   3.312  0.8225  0.0299  0.6114
  648TIP3   OH2 1949   2.225   1.297   4.647  0.0998 -0.2294 -0.0143
  648TIP3    H1 1950   2.187   1.339   4.724  0.1466 -0.8651  0.3699
  648TIP3    H2 1951   2.167   1.223   4.630 -2.9736  2.6679 -3.7290
  649TIP3   OH2 1952   2.431   0.969   3.883  0.8319 -0.3520  0.0640
  649TIP3    H1 1953   2.386   1.032   3.939  0.1138 -1.3947  0.6770
  649TIP3    H2 1954   2.389   0.979   3.797  0.9740  0.2429  0.0562
  650TIP3   OH2 1955   1.531   2.415   1.983  0.0816 -0.7188 -0.6101
  650TIP3    H1 1956   1.449   2.427   1.936  0.1904 -1.2662 -0.9522
  650TIP3    H2 1957   1.552   2.322   1.972  0.6704 -0.6170 -0.4034
  651TIP3   OH2 1958   2.764   1.378   3.545  0.3015 -0.0355 -0.5676
  651TIP3    H1 1959   2.856   1.352   3.554 -0.1883 -1.4633  0.7627
  651TIP3    H2 1960   2.760   1.466   3.583  1.3717  0.6630 -1.9995
  652TIP3   OH2 1961   5.240   1.025   2.295 -0.7448 -0.1572 -0.2605
  652TIP3    H1 1962   5.263   0.989   2.381  1.4752  0.1415 -0.6648
  652TIP3    H2 1963   5.156   0.985   2.274 -1.6993  0.2861  2.3213
  653TIP3   OH2 1964   0.914   0.254   3.524 -0.0451  0.2761  0.5268
  653TIP3    H1 1965   0.897   0.245   3.430  0.6224 -1.5963  0.5512
  653TIP3    H2 1966   1.001   0.293   3.529  0.0052  0.1824  0.3702
  654TIP3   OH2 1967   1.567   4.246   4.368  0.0703 -0.4839  0.6509
  654TIP3    H1 1968   1.629   4.303   4.323  0.1704 -0.3490  0.9575
  654TIP3    H2 1969   1.579   4.161   4.325 -0.1814 -0.2483  0.0973
  655TIP3   OH2 1970   2.161   5.095   2.582  0.2499  0.2016  0.4406
  655TIP3    H1 1971   2.156   5.104   2.486 -0.6710  1.1507  0.5581
  655TIP3    H2 1972   2.077   5.057   2.607  0.5700 -0.2389  0.8596
  656TIP3   OH2 1973   4.706   5.193   4.759  0.6559 -0.1475  0.0678
  656TIP3    H1 1974   4.621   5.227   4.786  0.0031  0.2724 -2.2857
  656TIP3    H2 1975   4.726   5.125   4.823 -0.1726  1.4841  2.2064
  657TIP3   OH2 1976   5.677   4.604   2.535  0.5338  0.1964  0.7959
  657TIP3    H1 1977   5.655   4.681   2.588  0.4093  2.2579 -2.0223
  657TIP3    H2 1978   5.593   4.577   2.497  1.0253  0.7807 -0.7954
  658TIP3   OH2 1979   2.695   1.303   2.571 -0.6731 -0.3128  0.7020
  658TIP3    H1 1980   2.765   1.275   2.631 -0.7455 -2.3839 -0.1244
  658TIP3    H2 1981   2.693   1.398   2.581  1.4969 -0.2985  1.5917
  659TIP3   OH2 1982   0.182   5.326   0.046  0.3604 -0.5386 -0.3773
  659TIP3    H1 1983   0.099   5.282   0.028 -0.2470  0.5762 -0.3934
  659TIP3    H2 1984   0.167   5.371   0.129  0.9990 -0.4450 -0.3104
  660TIP3   OH2 1985   4.398   5.777   5.005 -0.0546  0.3773  0.2443
  660TIP3    H1 1986   4.417   5.699   4.953  0.3144  0.5456  0.1265
  660TIP3    H2 1987   4.484   5.811   5.031 -0.1923 -1.0999  3.0748
  661TIP3   OH2 1988   0.554   2.264   4.036 -0.5656 -0.3706  0.1093
  661TIP3    H1 1989   0.619   2.307   3.980  0.3877  0.5114  1.8340
  661TIP3    H2 1990   0.606   2.218   4.102 -1.6587 -1.7136  0.0931
  662TIP3   OH2 1991   4.941   5.379   3.308  0.7217  0.0116 -1.3815
  662TIP3    H1 1992   4.933   5.383   3.403  3.2531 -0.0867 -1.0977
  662TIP3    H2 1993   4.947   5.471   3.281  2.8632  0.0188 -1.0674
  663TIP3   OH2 1994   2.978   1.422   2.014  0.0710 -0.1379 -0.0264
  663TIP3    H1 1995   2.907   1.358   2.006 -0.4313  0.3687  0.3128
  663TIP3    H2 1996   3.051   1.372   2.051 -0.7828 -0.2108  1.6644
  664TIP3   OH2 1997   0.002   3.378   0.848  0.0256 -0.8163 -0.4955
  664TIP3    H1 1998   0.049   3.325   0.783 -1.8564 -2.5204 -0.5947
  664TIP3    H2 1999  -0.003   3.465   0.809  0.3331 -1.3986 -1.9018
  665TIP3   OH2 2000   4.056   2.199   4.841  0.3878 -0.7545  0.5399
  665TIP3    H1 2001   4.116   2.269   4.816  0.0774 -0.1858  1.3631
  665TIP3    H2 2002   4.090   2.168   4.925 -0.5769 -0.3116  1.0986
  666TIP3   OH2 2003   2.327   2.167   3.897 -0.3436 -0.0182  0.1327
  666TIP3    H1 2004   2.342   2.253   3.858 -1.9098  0.1195 -0.2161
  666TIP3    H2 2005   2.232   2.160   3.906 -0.2876 -1.8629 -0.1927
  667TIP3   OH2 2006   1.394   1.822   3.876 -0.2722 -0.3267 -0.0390
  667TIP3    H1 2007   1.463   1.757   3.888 -0.6398 -0.6488  0.4095
  667TIP3    H2 2008   1.385   1.864   3.962 -1.4622 -1.1416  0.2693
  668TIP3   OH2 2009   3.234   1.382   1.658  0.5921 -0.5176 -0.0009
  668TIP3    H1 2010   3.177   1.316   1.620  0.2586 -0.8455  1.0441
  668TIP3    H2 2011   3.260   1.347   1.743  0.5021  0.6270  0.5266
  669TIP3   OH2 2012   3.075   1.209   0.699 -0.3866  0.2287 -0.2233
  669TIP3    H1 2013   3.156   1.159   0.686 -1.5305 -1.9508  0.6055
  669TIP3    H2 2014   3.060   1.206   0.794 -0.7950  1.7284 -0.2132
  670TIP3   OH2 2015   4.069   4.628   1.694 -0.2004 -0.6731  0.6283
  670TIP3    H1 2016   4.091   4.689   1.765 -0.5832  0.5613 -0.2723
  670TIP3    H2 2017   3.975   4.643   1.678 -0.3891 -1.7730  0.6296
  671TIP3   OH2 2018  -0.024   1.689   1.431 -0.4119  0.0827 -0.8235
  671TIP3    H1 2019   0.044   1.627   1.402 -1.4945 -0.9098 -1.3183
  671TIP3    H2 2020   0.014   1.775   1.415  1.4393 -0.3931  0.5469
  672TIP3   OH2 2021   5.991   1.413   3.027 -0.0177 -1.1380 -0.0845
  672TIP3    H1 2022   5.925   1.437   3.093  0.1746  0.7747 -0.5045
  672TIP3    H2 2023   5.948   1.347   2.973 -1.9838  0.6366 -0.8456
  673TIP3   OH2 2024   0.034   0.183   1.090 -0.4667 -0.0541  0.3140
  673TIP3    H1 2025   0.129   0.193   1.083 -0.5475  2.1671  1.4935
  673TIP3    H2 2026   0.020   0.089   1.104  1.5973 -0.3257  0.8021
  674TIP3   OH2 2027   0.327   0.537   2.925 -0.0616  0.1779  0.7607
  674TIP3    H1 2028   0.243   0.527   2.880  0.4569  0.9550 -0.3969
  674TIP3    H2 2029   0.304   0.532   3.018 -1.6090  1.9343  0.5201
  675TIP3   OH2 2030   3.521   4.791   0.954  0.4883  0.6883 -0.1386
  675TIP3    H1 2031   3.584   4.849   0.911  1.3082  0.4205  0.6653
  675TIP3    H2 2032   3.575   4.728   1.002 -0.3924 -0.5842 -0.7742
  676TIP3   OH2 2033   0.840   1.572   2.209 -0.4187 -0.6353  0.5086
  676TIP3    H1 2034   0.775   1.601   2.146  1.8147 -0.1796 -1.7138
  676TIP3    H2 2035   0.859   1.481   2.185 -0.2329 -0.7756  1.1527
  677TIP3   OH2 2036   0.691   3.194   3.813 -0.5412  0.4045 -0.0439
  677TIP3    H1 2037   0.612   3.146   3.840 -0.3754  0.1914  0.0664
  677TIP3    H2 2038   0.763   3.133   3.831 -0.4334  0.1975 -1.0998
  678TIP3   OH2 2039   6.067   0.631   1.950 -0.1751  0.2948  0.4552
  678TIP3    H1 2040   6.041   0.540   1.941 -0.4209  0.3697  0.3954
  678TIP3    H2 2041   6.043   0.655   2.039 -0.4387  0.4033  0.3563
  679TIP3   OH2 2042   2.416   0.401   4.281 -0.5273  0.4777  0.0586
  679TIP3    H1 2043   2.480   0.451   4.230  1.9536 -1.4128  1.1357
  679TIP3    H2 2044   2.359   0.361   4.215  1.5321 -0.5219 -1.2035
  680TIP3   OH2 2045   0.665   1.989   3.475 -0.6450  0.0334  0.2271
  680TIP3    H1 2046   0.756   1.976   3.450 -0.7849 -2.6177  0.8474
  680TIP3    H2 2047   0.656   2.084   3.485  1.9125  0.3821 -0.2670
  681TIP3   OH2 2048   5.288   3.285   1.865 -0.2586  0.4109 -0.2971
  681TIP3    H1 2049   5.324   3.223   1.929  1.9296 -1.1343 -2.8282
  681TIP3    H2 2050   5.323   3.370   1.893  1.2299 -0.3320  0.2026
  682TIP3   OH2 2051   5.469   0.321   2.803 -0.2191 -0.2543  0.4217
  682TIP3    H1 2052   5.511   0.392   2.850 -0.6007  0.1636  0.1385
  682TIP3    H2 2053   5.385   0.357   2.774  1.0638  0.4548 -2.9379
  683TIP3   OH2 2054   3.633   4.202   0.078  0.2260  0.4064 -0.1041
  683TIP3    H1 2055   3.641   4.120   0.126  1.3118 -0.6972 -2.0382
  683TIP3    H2 2056   3.540   4.221   0.076  0.0302 -0.3894  0.9864
  684TIP3   OH2 2057   5.115   1.561   3.685  0.0915  0.3717  0.0138
  684TIP3    H1 2058   5.082   1.650   3.679  0.2101  0.5901  2.0321
  684TIP3    H2 2059   5.050   1.508   3.638 -1.6402  1.1588  1.4156
  685TIP3   OH2 2060   2.491   2.580   3.165 -0.0287 -0.5117 -1.0178
  685TIP3    H1 2061   2.498   2.524   3.242 -0.0872  0.1130 -0.5494
  685TIP3    H2 2062   2.559   2.647   3.178 -1.4180  0.8562 -0.4378
  686TIP3   OH2 2063   2.577   4.330   3.808  0.8975  0.0320  0.1870
  686TIP3    H1 2064   2.659   4.293   3.840  2.0575  1.6336 -0.7945
  686TIP3    H2 2065   2.517   4.256   3.803  2.4809 -1.3006  0.3157
  687TIP3   OH2 2066   3.739   5.027   2.372 -0.0917  0.4377 -0.1668
  687TIP3    H1 2067   3.670   4.962   2.383  0.6601 -0.3267  0.1621
  687TIP3    H2 2068   3.705   5.087   2.307 -1.3311  0.4472  0.4660
  688TIP3   OH2 2069   0.750   2.499   4.043 -0.0919 -0.9146  0.1560
  688TIP3    H1 2070   0.766   2.571   3.981 -1.2028 -0.7665  0.0296
  688TIP3    H2 2071   0.680   2.531   4.100  0.7265 -1.1609  1.3341
  689TIP3   OH2 2072   5.054   0.074   0.566  0.5940 -0.0376 -0.0560
  689TIP3    H1 2073   5.024   0.138   0.502  0.4272 -1.5737 -1.5933
  689TIP3    H2 2074   4.980   0.062   0.625 -0.1505 -0.3743 -1.0416
  690TIP3   OH2 2075   2.635   3.324   4.763  0.3473 -0.3205 -0.1424
  690TIP3    H1 2076   2.718   3.330   4.716 -0.2507  1.1701 -1.0774
  690TIP3    H2 2077   2.656   3.277   4.843  2.4270  1.3006  0.3360
  691TIP3   OH2 2078   1.738   0.789   3.750 -0.1597  0.1350 -0.4806
  691TIP3    H1 2079   1.728   0.694   3.746 -0.2176  0.1057  0.2198
  691TIP3    H2 2080   1.818   0.802   3.801  1.3040  0.4278 -2.7081
  692TIP3   OH2 2081   0.624   4.282   3.334  0.2742  0.1230  0.2702
  692TIP3    H1 2082   0.544   4.260   3.382  1.3590  2.0447  3.2164
  692TIP3    H2 2083   0.629   4.215   3.265 -3.0576 -0.9285  0.8446
  693TIP3   OH2 2084   4.921   0.843   0.941  0.2279  0.2473 -0.0445
  693TIP3    H1 2085   4.849   0.832   1.003  2.2263  1.4156  2.6394
  693TIP3    H2 2086   4.899   0.922   0.892 -0.7933  0.0140  0.0207
  694TIP3   OH2 2087   3.762   2.429   4.341  0.1470  0.2293 -0.1667
  694TIP3    H1 2088   3.829   2.399   4.280  0.6925 -1.0922  1.0450
  694TIP3    H2 2089   3.680   2.418   4.293  0.6116 -0.2600 -0.8656
  695TIP3   OH2 2090   3.401   3.823   1.485  0.1807 -0.4597 -0.1051
  695TIP3    H1 2091   3.391   3.742   1.435  1.1397 -0.0532 -0.9843
  695TIP3    H2 2092   3.438   3.796   1.569  1.2411 -0.8576 -0.6910
  696TIP3   OH2 2093   3.034   1.531   3.533 -0.3141  0.2831 -0.0499
  696TIP3    H1 2094   3.100   1.599   3.543 -0.5495  0.5758 -0.4270
  696TIP3    H2 2095   2.954   1.579   3.512 -0.8130 -0.0155  1.1009
  697TIP3   OH2 2096   6.282   5.142   0.553  0.6319 -0.4358 -0.4847
  697TIP3    H1 2097   6.229   5.206   0.600 -0.3360 -0.2334 -1.7923
  697TIP3    H2 2098   6.235   5.060   0.563  0.3296 -0.3589 -1.2239
  698TIP3   OH2 2099   5.336   3.409   1.434  0.1853 -0.3549  0.3498
  698TIP3    H1 2100   5.301   3.437   1.519 -0.8242  1.3696 -0.5781
  698TIP3    H2 2101   5.322   3.315   1.433  2.6264 -0.8914  3.1394
  699TIP3   OH2 2102   5.815   5.160   0.644  0.3174 -0.3264 -0.1287
  699TIP3    H1 2103   5.748   5.172   0.710 -1.2931  3.9205 -2.1846
  699TIP3    H2 2104   5.774   5.106   0.577 -0.5607  0.9678 -0.6640
  700TIP3   OH2 2105   2.695   1.314   2.277  0.7013  0.1722 -0.4452
  700TIP3    H1 2106   2.696   1.304   2.373 -1.5504  0.6127 -0.3420
  700TIP3    H2 2107   2.688   1.408   2.263 -0.6004  0.0093 -0.9955
  701TIP3   OH2 2108   3.784   2.768   5.052 -0.4680 -0.1988 -0.0813
  701TIP3    H1 2109   3.798   2.856   5.018  3.4826 -0.9636 -0.8487
  701TIP3    H2 2110   3.757   2.717   4.975  1.4439 -0.4499 -0.6383
  702TIP3   OH2 2111   5.433   1.921   2.698 -0.4028  0.6406  0.2607
  702TIP3    H1 2112   5.413   1.832   2.670  1.3375  0.4667 -0.5769
  702TIP3    H2 2113   5.472   1.963   2.621  3.2895  0.5706  1.8671
  703TIP3   OH2 2114   5.539   1.205   1.647 -0.3283  0.6184 -0.2102
  703TIP3    H1 2115   5.523   1.230   1.738  0.2690  1.4695 -0.3318
  703TIP3    H2 2116   5.592   1.276   1.611 -0.1192  0.0383 -1.0801
  704TIP3   OH2 2117   5.824   5.210   1.349 -0.6106 -0.1214 -0.0858
  704TIP3    H1 2118   5.796   5.119   1.359 -1.7378  0.4094  1.9758
  704TIP3    H2 2119   5.777   5.258   1.416  1.3546  1.7165  0.0883
  705TIP3   OH2 2120   5.136   5.922   4.138  0.7850  0.0873  0.3794
  705TIP3    H1 2121   5.133   5.829   4.162  0.4584  0.2479  0.9552
  705TIP3    H2 2122   5.054   5.959   4.171  0.1423  0.2384 -1.3061
  706TIP3   OH2 2123   3.221   0.720   4.573  0.1657  0.8079  0.2135
  706TIP3    H1 2124   3.194   0.700   4.483  0.2176  1.6228  0.0024
  706TIP3    H2 2125   3.304   0.674   4.584 -1.8108 -2.9256  1.3406
  707TIP3   OH2 2126   1.399   3.841   0.920  0.3729 -0.1604  0.2464
  707TIP3    H1 2127   1.355   3.760   0.946  1.6707 -0.2765  2.3546
  707TIP3    H2 2128   1.487   3.812   0.894  0.5754  0.4856  0.2066
  708TIP3   OH2 2129   3.610   5.917   4.003 -0.0408 -0.0896 -0.2827
  708TIP3    H1 2130   3.598   6.004   3.966  3.5595  0.9059  0.5015
  708TIP3    H2 2131   3.632   5.931   4.095  1.4970 -1.7066 -0.3363
  709TIP3   OH2 2132   5.323   4.090   5.099  0.5754  0.2420  0.0430
  709TIP3    H1 2133   5.257   4.131   5.154  1.1193 -0.8326  1.5786
  709TIP3    H2 2134   5.274   4.024   5.049  0.2007  0.6813 -0.1748
  710TIP3   OH2 2135   3.545   1.105   5.022 -0.0284 -0.5761  0.6000
  710TIP3    H1 2136   3.638   1.093   5.041 -0.0777  0.4386  1.6126
  710TIP3    H2 2137   3.542   1.135   4.932  0.5865 -1.0658  0.4109
  711TIP3   OH2 2138   3.900   2.959   1.553  0.1636 -0.3862 -0.6256
  711TIP3    H1 2139   3.832   2.899   1.585 -0.0703  0.1553 -0.0852
  711TIP3    H2 2140   3.961   2.903   1.505 -0.0091 -1.0767 -0.0620
  712TIP3   OH2 2141   4.276   5.265   1.666 -0.3086 -0.1744  0.4318
  712TIP3    H1 2142   4.218   5.250   1.592 -0.3906 -0.9770  0.6483
  712TIP3    H2 2143   4.281   5.361   1.674  1.7811  0.0701 -2.2528
  713TIP3   OH2 2144   0.884   5.329   0.025  0.3658  0.0685 -1.1187
  713TIP3    H1 2145   0.925   5.338   0.111  0.0602  0.8506 -1.0439
  713TIP3    H2 2146   0.955   5.346  -0.037  0.6671 -0.8384 -1.0398
  714TIP3   OH2 2147   4.008   1.202   4.664  0.1180 -0.3264  0.2471
  714TIP3    H1 2148   3.935   1.262   4.680  0.9569  0.2605  2.0955
  714TIP3    H2 2149   3.999   1.178   4.571 -2.7249 -0.7338  0.5341
  715TIP3   OH2 2150   2.375   1.913   3.747  0.3272 -0.1370 -0.0796
  715TIP3    H1 2151   2.395   1.959   3.829  2.4094 -0.4312 -0.3634
  715TIP3    H2 2152   2.313   1.844   3.772  0.2075  0.3629  1.0600
  716TIP3   OH2 2153   2.944   2.204   1.733  0.4984  0.4657 -0.2069
  716TIP3    H1 2154   2.990   2.128   1.769  0.5221  1.5784  2.3203
  716TIP3    H2 2155   2.862   2.209   1.782  1.2280  2.9719  0.9454
  717TIP3   OH2 2156   2.442   4.094   1.526  0.0155  0.1495 -0.1854
  717TIP3    H1 2157   2.536   4.082   1.542  0.0086  0.3257 -0.0083
  717TIP3    H2 2158   2.399   4.049   1.599 -0.0453 -0.1798 -0.4207
  718TIP3   OH2 2159   3.165   0.948   4.863 -0.5211  0.1303  0.0144
  718TIP3    H1 2160   3.222   0.959   4.940  0.9081 -1.0280 -0.8094
  718TIP3    H2 2161   3.132   0.859   4.872 -1.4287  0.4589 -0.0399
  719TIP3   OH2 2162   3.320   4.193   0.754 -0.1021 -0.2972 -0.1423
  719TIP3    H1 2163   3.241   4.146   0.726 -0.1929 -0.3536  0.2012
  719TIP3    H2 2164   3.304   4.284   0.729 -0.3422 -0.2833  0.0526
  720TIP3   OH2 2165   5.888   3.156   2.951  0.6611  0.3766  0.1288
  720TIP3    H1 2166   5.935   3.084   2.993 -1.1582  0.2317  2.0750
  720TIP3    H2 2167   5.798   3.124   2.942  0.4071  1.4385 -1.4658
  721TIP3   OH2 2168   4.481   1.844   0.357 -0.1812 -0.0027 -0.1435
  721TIP3    H1 2169   4.417   1.911   0.381  0.5051  0.1805  1.2558
  721TIP3    H2 2170   4.482   1.845   0.261 -1.4401  0.7702 -0.1721
  722TIP3   OH2 2171   2.042   5.475   0.343 -0.5953 -0.1121  0.6427
  722TIP3    H1 2172   2.045   5.413   0.270  0.7478 -0.7994  1.2509
  722TIP3    H2 2173   2.055   5.421   0.421  2.4850  1.0257  1.0857
  723TIP3   OH2 2174   3.388   4.418   3.706  0.1212 -0.6363 -0.0719
  723TIP3    H1 2175   3.294   4.429   3.695 -0.2684 -4.0253 -1.1976
  723TIP3    H2 2176   3.426   4.460   3.629 -0.4426  0.2797  0.1203
  724TIP3   OH2 2177   0.242   2.892   3.979 -0.1332  0.0000  0.3691
  724TIP3    H1 2178   0.223   2.877   3.886  0.7641 -2.8683  0.5373
  724TIP3    H2 2179   0.282   2.810   4.008 -0.1026  0.9361  3.2394
  725TIP3   OH2 2180   2.928   3.472   3.454  0.0231 -0.2901 -0.5269
  725TIP3    H1 2181   2.895   3.438   3.537  0.6528  1.1963  0.3816
  725TIP3    H2 2182   2.969   3.396   3.412 -2.1644 -1.5713 -0.5147
  726TIP3   OH2 2183   1.923   4.321   3.049 -0.2447  0.3856  0.7403
  726TIP3    H1 2184   1.861   4.297   3.117 -0.6598  2.2672  1.0861
  726TIP3    H2 2185   1.935   4.415   3.059  1.7159  0.2864 -0.1300
  727TIP3   OH2 2186   1.740   0.486   3.805 -0.6497 -0.0403  0.3874
  727TIP3    H1 2187   1.802   0.414   3.817 -0.5599  0.2654  2.1804
  727TIP3    H2 2188   1.732   0.524   3.893 -0.1000  2.6320 -0.6202
  728TIP3   OH2 2189   1.268   4.487   2.753  0.0808  0.4952 -0.2519
  728TIP3    H1 2190   1.197   4.549   2.771 -0.9179 -0.4703 -0.6978
  728TIP3    H2 2191   1.283   4.494   2.659  0.7129  0.8270 -0.1278
  729TIP3   OH2 2192   1.464   1.274   2.924  0.2201 -0.7138  0.0281
  729TIP3    H1 2193   1.540   1.275   2.982  0.9906 -1.0503 -0.9423
  729TIP3    H2 2194   1.502   1.264   2.836 -0.9509 -0.9700 -0.4591
  730TIP3   OH2 2195   4.306   4.963   2.471 -0.9760 -0.8715 -0.2830
  730TIP3    H1 2196   4.320   4.895   2.404  0.7678 -0.2238 -0.6366
  730TIP3    H2 2197   4.281   5.040   2.421 -0.1118 -0.5059 -0.1722
  731TIP3   OH2 2198   5.110   3.579   3.978 -0.0869  0.2971  0.1866
  731TIP3    H1 2199   5.130   3.509   3.915 -1.1240  1.3511 -1.3834
  731TIP3    H2 2200   5.085   3.654   3.924  0.0789  1.6155  1.8466
  732TIP3   OH2 2201   5.914   4.473   4.260 -0.3619 -0.2101 -0.1013
  732TIP3    H1 2202   5.908   4.405   4.193 -0.8847 -0.0179 -0.2523
  732TIP3    H2 2203   5.890   4.554   4.216 -0.1821  0.0054  0.1883
  733TIP3   OH2 2204   3.808   0.769   4.226 -0.4644 -0.6675 -0.4220
  733TIP3    H1 2205   3.750   0.697   4.250 -0.0841 -0.9613 -0.3954
  733TIP3    H2 2206   3.818   0.820   4.307 -0.0814 -1.0364 -0.2343
  734TIP3   OH2 2207   3.739   4.590   2.620  0.2651 -0.0571  0.0010
  734TIP3    H1 2208   3.817   4.643   2.603 -1.1618  2.3541  0.4799
  734TIP3    H2 2209   3.695   4.586   2.535  0.6972 -1.1608 -0.1976
  735TIP3   OH2 2210   5.787   5.735   3.078 -0.3582  0.0051  0.0643
  735TIP3    H1 2211   5.785   5.766   2.987 -1.2490 -2.5127 -0.8678
  735TIP3    H2 2212   5.697   5.709   3.097  0.0037 -0.4107  1.3316
  736TIP3   OH2 2213   0.335   2.009   4.272 -0.3911  0.3374 -0.0228
  736TIP3    H1 2214   0.354   2.100   4.295 -0.2597  0.2463  0.2422
  736TIP3    H2 2215   0.311   1.968   4.356  2.1598 -0.5249  0.3741
  737TIP3   OH2 2216   1.099   0.910   5.078  0.4101  0.4440 -0.0446
  737TIP3    H1 2217   1.183   0.871   5.054  0.7081  0.9654  0.1332
  737TIP3    H2 2218   1.083   0.975   5.010 -0.8454 -1.0085 -1.2300
  738TIP3   OH2 2219   4.319   0.037   3.376 -0.0636 -0.4043  0.4361
  738TIP3    H1 2220   4.288   0.101   3.441 -2.5262 -1.2309  0.1739
  738TIP3    H2 2221   4.392   0.081   3.333  0.0622  1.1445  2.0828
  739TIP3   OH2 2222   0.172   5.543   1.971  0.0149  0.3389  0.1352
  739TIP3    H1 2223   0.181   5.589   1.888 -0.7284  1.0346  0.4206
  739TIP3    H2 2224   0.247   5.571   2.023  1.5368 -1.5462 -0.9278
  740TIP3   OH2 2225   6.323   1.342   5.025 -0.1535  0.3094 -0.4369
  740TIP3    H1 2226   6.327   1.246   5.029 -1.1075  0.3199  1.8088
  740TIP3    H2 2227   6.233   1.364   5.047 -0.3636  1.7285 -2.3885
  741TIP3   OH2 2228   5.662   2.349   2.947 -0.1145 -0.3290 -0.4641
  741TIP3    H1 2229   5.609   2.275   2.977 -1.7028  1.3618  1.2085
  741TIP3    H2 2230   5.747   2.336   2.989 -0.4437 -1.0933 -0.0153
  742TIP3   OH2 2231   5.374   0.052   5.064 -0.4844 -0.1355  0.5283
  742TIP3    H1 2232   5.332   0.012   4.988 -3.3015  0.4682  1.6612
  742TIP3    H2 2233   5.436   0.115   5.026 -2.8255  1.2062 -1.3540
  743TIP3   OH2 2234   5.414   4.964   2.722  0.5120 -0.5573 -0.6146
  743TIP3    H1 2235   5.362   4.884   2.716  0.1220 -0.4862  1.1678
  743TIP3    H2 2236   5.350   5.035   2.716  0.6904 -0.4122 -0.8090
  744TIP3   OH2 2237   2.296   0.888   2.692 -0.2918 -1.0703  0.1023
  744TIP3    H1 2238   2.390   0.873   2.701 -0.4789 -1.3262  2.2433
  744TIP3    H2 2239   2.285   0.921   2.603  1.7085 -1.8326 -0.4852
  745TIP3   OH2 2240   3.903   0.747   1.587  0.3307  0.2530  0.2260
  745TIP3    H1 2241   3.940   0.819   1.637  0.1920  0.2162  0.3845
  745TIP3    H2 2242   3.904   0.777   1.496  0.4222  0.3897  0.2723
  746TIP3   OH2 2243   3.815   1.946   0.341  0.1200 -0.1141  0.1040
  746TIP3    H1 2244   3.809   1.968   0.248 -1.0051  1.8313  0.5844
  746TIP3    H2 2245   3.892   1.994   0.372  0.7330 -1.0829  0.1123
  747TIP3   OH2 2246   4.249   5.044   0.666 -0.5227  0.2182 -0.3017
  747TIP3    H1 2247   4.173   5.097   0.642 -0.2048  1.5688  1.4939
  747TIP3    H2 2248   4.324   5.090   0.628 -0.4125  0.0162 -0.3307
  748TIP3   OH2 2249   3.385   0.783   1.092 -0.1796  0.1659 -0.0931
  748TIP3    H1 2250   3.464   0.784   1.146 -0.3020 -0.2746  0.1000
  748TIP3    H2 2251   3.314   0.803   1.153 -0.2246  0.5282 -0.2597
  749TIP3   OH2 2252   4.819   0.163   1.161 -0.6331 -0.6091 -0.5629
  749TIP3    H1 2253   4.753   0.110   1.207  0.9916 -3.3238 -1.1589
  749TIP3    H2 2254   4.885   0.182   1.228 -0.7816 -0.0666 -0.5660
  750TIP3   OH2 2255   1.843   0.472   1.842 -0.3288 -0.2380 -0.1689
  750TIP3    H1 2256   1.753   0.442   1.829  0.1279 -1.6199 -0.3528
  750TIP3    H2 2257   1.875   0.489   1.754 -0.2325 -0.2996 -0.1454
  751TIP3   OH2 2258   3.649   1.594   2.092 -0.0919 -0.2079  0.3371
  751TIP3    H1 2259   3.693   1.567   2.012 -0.1023 -0.4054  0.3977
  751TIP3    H2 2260   3.556   1.600   2.067  0.1463  1.9738 -0.2787
  752TIP3   OH2 2261   0.180   4.348   4.483 -0.2361  0.0088 -0.0375
  752TIP3    H1 2262   0.159   4.433   4.521  1.1185  0.5704 -0.5052
  752TIP3    H2 2263   0.148   4.354   4.393 -1.7710 -0.6542  0.4331
  753TIP3   OH2 2264   5.329   5.878   1.761 -0.1260 -0.2028 -0.1949
  753TIP3    H1 2265   5.279   5.947   1.804 -1.0550 -1.1112  0.2445
  753TIP3    H2 2266   5.421   5.902   1.776 -0.3918  1.5899 -1.1634
  754TIP3   OH2 2267   2.645   2.453   3.743  0.0060  0.2154  0.1661
  754TIP3    H1 2268   2.582   2.479   3.811 -1.0976 -0.2305 -0.6589
  754TIP3    H2 2269   2.592   2.442   3.664  0.7166 -2.5389 -0.0051
  755TIP3   OH2 2270   5.807   2.927   4.783 -0.2028 -0.2722 -0.2626
  755TIP3    H1 2271   5.726   2.916   4.832 -1.0676  0.3934 -1.4609
  755TIP3    H2 2272   5.783   2.906   4.693  0.9543 -0.0548 -0.6358
  756TIP3   OH2 2273   6.292   1.496   4.644  0.0121  0.0029  0.7803
  756TIP3    H1 2274   6.222   1.526   4.702  0.1145  1.4204  0.2038
  756TIP3    H2 2275   6.296   1.402   4.658 -0.0056  0.2864  3.0402
  757TIP3   OH2 2276   2.002   5.285   2.397  0.1659  0.2377 -0.0465
  757TIP3    H1 2277   1.981   5.377   2.412 -0.5317  0.2937 -1.2058
  757TIP3    H2 2278   1.920   5.245   2.369  0.5557 -0.6382  0.0145
  758TIP3   OH2 2279   1.845   4.094   4.593 -0.6834 -0.2429  0.3362
  758TIP3    H1 2280   1.874   4.114   4.504 -2.7225  1.4459 -0.0236
  758TIP3    H2 2281   1.840   3.999   4.596  2.7004 -0.5621 -0.1947
  759TIP3   OH2 2282   5.553   0.261   4.960 -0.2003 -0.6321 -0.2132
  759TIP3    H1 2283   5.621   0.271   4.894  0.2221  0.9876  0.4189
  759TIP3    H2 2284   5.498   0.339   4.950 -0.2557 -0.4723  1.1876
  760TIP3   OH2 2285   5.578   4.640   0.245 -0.2423 -0.3117  0.0242
  760TIP3    H1 2286   5.631   4.574   0.290  0.6629  0.6712  0.4529
  760TIP3    H2 2287   5.625   4.654   0.162  0.5311  0.9760  0.6490
  761TIP3   OH2 2288   5.524   5.442   2.194  0.0602 -0.4874 -0.0174
  761TIP3    H1 2289   5.545   5.407   2.280 -0.8670  0.5379  0.6513
  761TIP3    H2 2290   5.491   5.367   2.145  1.6624 -1.3209  0.1230
  762TIP3   OH2 2291   0.096   5.915   5.006  0.0270  0.8239 -0.3025
  762TIP3    H1 2292   0.145   5.969   4.944 -0.4496 -0.1790 -1.6024
  762TIP3    H2 2293   0.160   5.854   5.041 -0.0905  0.0596 -1.3732
  763TIP3   OH2 2294   0.668   2.453   2.247 -0.7924  0.1302  0.0184
  763TIP3    H1 2295   0.664   2.414   2.160 -2.7917  0.3568 -0.0349
  763TIP3    H2 2296   0.728   2.527   2.238 -1.5801  0.6276 -1.3892
  764TIP3   OH2 2297   3.678   3.638   1.981 -0.0891 -0.0974  0.6844
  764TIP3    H1 2298   3.682   3.722   1.936 -0.2348 -0.0592  0.7398
  764TIP3    H2 2299   3.609   3.649   2.047 -1.4912 -0.8540 -0.5702
  765TIP3   OH2 2300   5.982   2.466   0.100  0.1137 -0.4534 -0.4387
  765TIP3    H1 2301   6.044   2.445   0.030  0.2124 -0.4047 -0.3651
  765TIP3    H2 2302   6.023   2.538   0.148 -1.0536  1.2230 -1.8310
  766TIP3   OH2 2303   3.473   2.517   4.321 -0.2590  0.1921 -0.2934
  766TIP3    H1 2304   3.412   2.461   4.271 -0.2527 -0.2832  0.2124
  766TIP3    H2 2305   3.514   2.573   4.255 -0.3959 -0.2832 -0.7953
  767TIP3   OH2 2306   4.955   5.862   3.781  0.4129  0.3671  0.4432
  767TIP3    H1 2307   5.005   5.940   3.760  0.7623 -0.1413 -0.6846
  767TIP3    H2 2308   4.864   5.891   3.782  0.6362  1.0597  1.3889
  768TIP3   OH2 2309   4.121   4.423   2.481  0.4556  0.5197 -0.3199
  768TIP3    H1 2310   4.060   4.484   2.521 -0.0161 -0.1197 -0.0557
  768TIP3    H2 2311   4.188   4.407   2.548 -1.0647 -1.6290  0.8193
  769TIP3   OH2 2312   4.256   3.282   4.745 -0.3971 -1.2847  0.1432
  769TIP3    H1 2313   4.255   3.334   4.825  1.8937  1.6887 -1.5072
  769TIP3    H2 2314   4.173   3.303   4.701 -0.1580 -0.1311  0.2048
  770TIP3   OH2 2315   1.524   4.427   0.629 -0.3279 -0.1484 -0.2091
  770TIP3    H1 2316   1.570   4.433   0.546 -0.8033  0.5493 -0.4348
  770TIP3    H2 2317   1.467   4.350   0.620 -1.7498  0.9565 -1.2628
  771TIP3   OH2 2318   1.664   5.407   1.204 -0.1365  0.2852 -0.1357
  771TIP3    H1 2319   1.617   5.329   1.232  2.2263 -1.1982 -0.0392
  771TIP3    H2 2320   1.750   5.375   1.176  2.3594  3.1155  3.3489
  772TIP3   OH2 2321   3.343   0.317   0.933 -0.5737  0.0775 -0.6290
  772TIP3    H1 2322   3.290   0.397   0.939 -1.4924 -0.3632 -2.2782
  772TIP3    H2 2323   3.391   0.327   0.851  0.0001 -0.6757 -0.3902
  773TIP3   OH2 2324   3.329   4.561   2.410  0.4790 -0.0365  0.4617
  773TIP3    H1 2325   3.400   4.510   2.372  0.5557  0.5300 -0.1657
  773TIP3    H2 2326   3.360   4.584   2.498  0.9635  0.0084  0.2794
  774TIP3   OH2 2327   1.750   1.241   1.880  0.1134  0.7292  0.3380
  774TIP3    H1 2328   1.821   1.235   1.816 -0.5471 -1.4492 -0.2633
  774TIP3    H2 2329   1.758   1.161   1.931 -1.0665  1.1372  1.1865
  775TIP3   OH2 2330   1.648   3.812   0.811 -0.4039  0.3301 -0.0377
  775TIP3    H1 2331   1.640   3.893   0.761  1.2730  1.0206  0.7753
  775TIP3    H2 2332   1.734   3.816   0.852 -0.5691 -1.5402  0.6082
  776TIP3   OH2 2333   2.854   1.200   2.770 -0.2161 -0.0672  0.0179
  776TIP3    H1 2334   2.918   1.162   2.830  0.5191 -1.7857 -1.7474
  776TIP3    H2 2335   2.774   1.209   2.822  0.6010 -0.7704  1.4495
  777TIP3   OH2 2336   5.714   2.139   4.565 -0.0473 -0.9773  0.0011
  777TIP3    H1 2337   5.767   2.090   4.627 -1.1157 -1.6736  0.3856
  777TIP3    H2 2338   5.624   2.113   4.584 -0.5637  0.4041 -0.4377
  778TIP3   OH2 2339   3.502   0.361   4.752  0.1243  0.7535 -0.0623
  778TIP3    H1 2340   3.480   0.279   4.708 -1.1703  0.1707  1.5796
  778TIP3    H2 2341   3.484   0.345   4.844  2.3721  2.0690  0.6755
  779TIP3   OH2 2342   2.513   2.911   4.534  0.1708 -0.0889 -0.3564
  779TIP3    H1 2343   2.428   2.875   4.509  0.1366  1.0100 -1.9425
  779TIP3    H2 2344   2.521   2.890   4.627 -0.0432 -3.6923 -1.0158
  780TIP3   OH2 2345   4.307   4.816   2.201  0.1922 -0.2069  0.0341
  780TIP3    H1 2346   4.246   4.889   2.213  2.0161  1.4064 -0.0617
  780TIP3    H2 2347   4.381   4.854   2.155  1.9521 -1.7260  1.4514
  781TIP3   OH2 2348   5.729   3.052   1.020  0.2865 -0.4139 -1.0414
  781TIP3    H1 2349   5.770   3.082   1.101  0.8638 -1.7264 -0.8149
  781TIP3    H2 2350   5.721   3.131   0.966  1.6748  0.1601 -0.4664
  782TIP3   OH2 2351   4.751   0.801   3.058 -0.6373 -0.1844  0.1286
  782TIP3    H1 2352   4.661   0.781   3.033 -0.8982 -0.3303  1.1631
  782TIP3    H2 2353   4.770   0.885   3.015 -0.5830 -1.0867 -1.6983
  783TIP3   OH2 2354   5.760   3.792   4.202 -0.4000  0.0964  0.2319
  783TIP3    H1 2355   5.805   3.711   4.226  0.0945  0.2938 -0.0038
  783TIP3    H2 2356   5.667   3.770   4.204 -0.2497 -0.7173 -0.6681
  784TIP3   OH2 2357   0.491   0.481   4.440  0.1513 -0.2509 -0.3614
  784TIP3    H1 2358   0.492   0.576   4.449 -1.0035 -0.2817  0.2012
  784TIP3    H2 2359   0.570   0.452   4.486  2.5932  0.6183 -3.6023
  785TIP3   OH2 2360   3.516   5.705   0.718 -0.2590  0.1491  0.2239
  785TIP3    H1 2361   3.461   5.766   0.668 -0.5174 -1.1777 -1.1917
  785TIP3    H2 2362   3.455   5.639   0.750  0.2668 -0.4221  0.0703
  786TIP3   OH2 2363   4.324   2.046   0.486  0.5448 -0.5589  0.1172
  786TIP3    H1 2364   4.397   2.039   0.549  1.2265  0.1082 -0.5698
  786TIP3    H2 2365   4.328   2.137   0.457 -0.6641 -0.4812  0.1660
  787TIP3   OH2 2366   5.144   1.985   0.954  0.1103 -0.0622  0.2403
  787TIP3    H1 2367   5.057   1.996   0.992  0.5649 -1.2895  1.7382
  787TIP3    H2 2368   5.198   2.050   1.000  0.0651  0.4950 -0.4764
  788TIP3   OH2 2369   1.840   4.730   4.234  0.0960  0.5206 -0.2354
  788TIP3    H1 2370   1.764   4.765   4.281 -1.0009 -0.3106 -1.3210
  788TIP3    H2 2371   1.893   4.808   4.212 -1.0414  1.2513 -0.4806
  789TIP3   OH2 2372   6.027   3.220   5.015  0.4651 -0.5354 -0.2697
  789TIP3    H1 2373   5.956   3.276   5.048  1.2615  0.0479  0.5412
  789TIP3    H2 2374   6.107   3.270   5.035  1.1609 -1.6627 -0.1470
  790TIP3   OH2 2375   0.086   4.739   4.995  0.1355 -0.7846  0.4218
  790TIP3    H1 2376   0.142   4.809   4.962 -0.9357 -0.1499 -0.0986
  790TIP3    H2 2377   0.089   4.748   5.090  1.2667 -1.0503  0.4191
  791TIP3   OH2 2378   1.687   2.182   0.888 -0.4087  0.7806 -0.0219
  791TIP3    H1 2379   1.780   2.201   0.881 -0.2976  0.1607 -0.2787
  791TIP3    H2 2380   1.662   2.217   0.974  0.2832  0.0429  0.4967
  792TIP3   OH2 2381   2.420   3.033   2.004 -0.2049 -0.0454 -0.2631
  792TIP3    H1 2382   2.434   3.118   1.963  2.4153  1.1123  2.7053
  792TIP3    H2 2383   2.353   3.048   2.070  1.2238  0.1607  1.2082
  793TIP3   OH2 2384   4.914   3.748   2.712  0.8700 -0.1807 -0.3393
  793TIP3    H1 2385   4.908   3.756   2.616  0.1667  1.0851 -0.2220
  793TIP3    H2 2386   4.974   3.675   2.727  2.3223  0.6441 -1.7597
  794TIP3   OH2 2387   4.424   2.407   2.904 -0.6849  0.8220  0.1348
  794TIP3    H1 2388   4.361   2.362   2.961 -1.7685  1.5144 -0.4873
  794TIP3    H2 2389   4.415   2.363   2.819 -0.6721  1.2302 -0.0803
  795TIP3   OH2 2390   0.049   1.910   2.867 -0.0013  0.2060  0.1281
  795TIP3    H1 2391   0.104   1.846   2.822 -1.6940 -1.4957  0.3350
  795TIP3    H2 2392   0.092   1.924   2.951  0.4503 -0.6060  0.0428
  796TIP3   OH2 2393   3.081   1.364   3.311 -0.0604 -0.0206 -0.2367
  796TIP3    H1 2394   3.030   1.288   3.336 -0.8910  0.5170 -0.2437
  796TIP3    H2 2395   3.048   1.435   3.367  1.3185  0.1480  0.4134
  797TIP3   OH2 2396   1.834   3.509   0.301  0.1066  0.0847 -0.1029
  797TIP3    H1 2397   1.884   3.513   0.382  0.7281  0.4063 -0.4908
  797TIP3    H2 2398   1.901   3.506   0.232 -0.4084 -0.6051 -0.5866
  798TIP3   OH2 2399   2.833   2.613   2.746 -0.0866  0.0503 -0.2168
  798TIP3    H1 2400   2.820   2.689   2.689 -0.3783 -0.2991 -0.6238
  798TIP3    H2 2401   2.861   2.650   2.830  2.0812  0.5030 -1.0692
  799TIP3   OH2 2402   4.967   3.053   4.474  0.2174 -0.2274  0.2314
  799TIP3    H1 2403   4.901   2.985   4.470  0.0616 -0.0755  0.2176
  799TIP3    H2 2404   4.966   3.083   4.565  2.3190 -2.2531  1.0362
  800TIP3   OH2 2405   2.218   5.753   2.039 -0.2851 -0.0583 -0.4011
  800TIP3    H1 2406   2.276   5.825   2.064 -3.1506  2.9500 -1.6577
  800TIP3    H2 2407   2.251   5.677   2.087  3.4536  1.8239  0.3587
  801TIP3   OH2 2408   2.289   4.570   0.135  0.1296 -0.2650  0.0281
  801TIP3    H1 2409   2.251   4.592   0.220  0.5414  1.9943 -0.3045
  801TIP3    H2 2410   2.374   4.614   0.134  0.3228 -0.5994 -1.3916
  802TIP3   OH2 2411   6.163   5.041   3.905  0.0001 -0.0480  0.7389
  802TIP3    H1 2412   6.144   4.958   3.948 -1.6913  0.6496  1.4523
  802TIP3    H2 2413   6.079   5.089   3.907  0.3122  0.7542 -1.7307
  803TIP3   OH2 2414   3.046   1.022   0.171  0.2574  0.3877 -0.1593
  803TIP3    H1 2415   2.989   0.972   0.113  1.0975 -0.2361 -0.4806
  803TIP3    H2 2416   3.073   0.959   0.238  1.5085  0.3334 -0.6928
  804TIP3   OH2 2417   0.715   1.531   3.445 -0.0502  0.2353 -0.0397
  804TIP3    H1 2418   0.659   1.461   3.478 -0.0127 -0.4623 -1.4042
  804TIP3    H2 2419   0.804   1.496   3.451  0.2411  1.0982  1.5062
  805TIP3   OH2 2420   1.671   5.319  -0.029  0.3525 -0.2833 -0.0431
  805TIP3    H1 2421   1.626   5.331   0.054  0.0404  0.0541 -0.2568
  805TIP3    H2 2422   1.721   5.238  -0.018  1.8959  0.7874  1.1664
  806TIP3   OH2 2423   1.747   3.271   0.559 -0.1692  0.6135  0.3324
  806TIP3    H1 2424   1.774   3.188   0.600 -0.8877  0.5768  0.7358
  806TIP3    H2 2425   1.828   3.322   0.554 -0.1249  0.7728  2.1700
  807TIP3   OH2 2426   0.480   1.247   3.352 -0.3921  0.2317  0.0997
  807TIP3    H1 2427   0.390   1.279   3.351  0.2036  1.9906 -0.2459
  807TIP3    H2 2428   0.517   1.277   3.269  0.4613 -0.6337  0.1518
  808TIP3   OH2 2429   5.876   2.485   3.811 -0.4992  0.7278  0.0701
  808TIP3    H1 2430   5.867   2.546   3.884  0.6736  0.1534  0.7184
  808TIP3    H2 2431   5.917   2.408   3.849 -2.7433 -0.8815 -0.5331
  809TIP3   OH2 2432   4.232   4.851   3.810 -0.3955 -0.7568  0.2596
  809TIP3    H1 2433   4.324   4.837   3.833  0.1147 -0.2165 -1.3126
  809TIP3    H2 2434   4.226   4.822   3.719 -1.1394  1.7340 -0.5499
  810TIP3   OH2 2435   1.401   1.410   1.670  0.3730  0.3211 -0.0607
  810TIP3    H1 2436   1.323   1.466   1.677 -0.8301 -1.3115  0.1902
  810TIP3    H2 2437   1.457   1.440   1.742 -0.8821  0.2838  0.9882
  811TIP3   OH2 2438   1.362   4.027   2.896 -0.1172  0.7142  0.0331
  811TIP3    H1 2439   1.321   4.001   2.814 -1.5031  1.2989  0.4975
  811TIP3    H2 2440   1.402   3.947   2.930 -0.7399  0.1463 -0.5387
  812TIP3   OH2 2441   2.969   3.576   0.963  0.7827 -0.8134  0.2121
  812TIP3    H1 2442   3.049   3.576   0.910  1.0065 -0.3693  0.5498
  812TIP3    H2 2443   2.948   3.483   0.973 -0.5671 -0.9119 -2.5983
  813TIP3   OH2 2444   1.844   2.907   0.174 -0.5205 -0.5017 -0.3741
  813TIP3    H1 2445   1.761   2.860   0.162 -0.5601 -0.3002 -0.9568
  813TIP3    H2 2446   1.865   2.896   0.266 -0.9000 -1.0495 -0.3484
  814TIP3   OH2 2447   4.170   3.651   0.387  0.2940 -0.0623  0.1101
  814TIP3    H1 2448   4.260   3.656   0.356  0.6318  0.7500  1.1416
  814TIP3    H2 2449   4.117   3.653   0.308  1.1631  0.0877 -0.4816
  815TIP3   OH2 2450   1.158   4.657   4.101 -0.0955  0.5479 -0.4972
  815TIP3    H1 2451   1.208   4.739   4.107  1.1469 -0.2506  0.9182
  815TIP3    H2 2452   1.077   4.676   4.148 -0.8230  1.5994 -2.0813
  816TIP3   OH2 2453   2.824   3.516   2.876  0.0588  0.0667 -0.8384
  816TIP3    H1 2454   2.868   3.447   2.926  0.6055 -0.5315 -2.1017
  816TIP3    H2 2455   2.735   3.518   2.912  0.0639 -1.2214 -0.6925
  817TIP3   OH2 2456   4.746   4.212   2.762 -0.3240  0.0598 -0.9493
  817TIP3    H1 2457   4.822   4.270   2.772 -0.6819  0.3737  0.0139
  817TIP3    H2 2458   4.778   4.125   2.786 -0.3594  0.2547 -0.1997
  818TIP3   OH2 2459   2.534   2.583   0.361 -0.5935  0.5017 -1.1458
  818TIP3    H1 2460   2.453   2.534   0.345  0.3503 -1.4694 -0.2008
  818TIP3    H2 2461   2.563   2.553   0.447  1.6963  0.3386 -1.9126
  819TIP3   OH2 2462   3.497   2.971   1.586 -0.1031 -0.0251 -0.0059
  819TIP3    H1 2463   3.418   3.024   1.598  0.7388  1.2300  0.1877
  819TIP3    H2 2464   3.552   2.992   1.662  1.6149  1.3469 -1.5352
  820TIP3   OH2 2465   0.504   5.387   2.441 -0.4877  0.2538 -0.1449
  820TIP3    H1 2466   0.489   5.423   2.528 -1.3868  1.5403 -0.8014
  820TIP3    H2 2467   0.441   5.315   2.433 -1.5348  1.1667 -0.3102
  821TIP3   OH2 2468   5.124   5.489   3.014  0.2664  0.5311  0.1535
  821TIP3    H1 2469   5.194   5.434   3.050 -0.5968 -0.8976 -0.2475
  821TIP3    H2 2470   5.118   5.563   3.074  0.4180 -0.6198  1.6562
  822TIP3   OH2 2471   6.171   4.214   4.271  0.3418  0.1249 -0.7002
  822TIP3    H1 2472   6.212   4.162   4.202 -0.3762 -3.2770  1.2230
  822TIP3    H2 2473   6.078   4.193   4.265  0.2820 -0.3886  1.3604
  823TIP3   OH2 2474   2.344   2.465   4.611  0.4508  0.0041  0.1705
  823TIP3    H1 2475   2.398   2.538   4.640  1.0298 -0.9291  1.5582
  823TIP3    H2 2476   2.381   2.389   4.655 -0.5813 -1.0245 -0.6674
  824TIP3   OH2 2477   3.468   4.009   4.913 -0.1586  0.2705 -0.2180
  824TIP3    H1 2478   3.546   3.999   4.969  0.8745  1.0688 -1.4634
  824TIP3    H2 2479   3.410   4.066   4.964  1.3495  2.1481 -0.4567
  825TIP3   OH2 2480   5.870   1.186   3.326  0.8636 -0.2337  1.0360
  825TIP3    H1 2481   5.827   1.134   3.257 -1.6956  1.6764  1.0391
  825TIP3    H2 2482   5.891   1.122   3.394  1.3820 -1.8221 -0.5501
  826TIP3   OH2 2483   4.084   5.670   1.271 -0.3643  0.4555 -0.5714
  826TIP3    H1 2484   4.161   5.691   1.218  0.9251  0.9997  1.4328
  826TIP3    H2 2485   4.024   5.743   1.258  0.8145  1.6147  0.2734
  827TIP3   OH2 2486   4.434   4.836   1.943  0.1717 -0.5452 -0.6175
  827TIP3    H1 2487   4.528   4.847   1.928  0.4493 -1.6559  0.1640
  827TIP3    H2 2488   4.393   4.900   1.886  1.4544  0.9400  0.0559
  828TIP3   OH2 2489   4.208   4.900   1.046  0.0534  0.1436 -0.0565
  828TIP3    H1 2490   4.231   4.991   1.025  1.7641  0.2299  1.8695
  828TIP3    H2 2491   4.255   4.848   0.981  0.4234  0.5847 -0.1524
  829TIP3   OH2 2492   1.339   2.417   0.100  0.0191 -0.3701  0.0172
  829TIP3    H1 2493   1.372   2.418   0.190 -1.0927 -1.5681  0.4620
  829TIP3    H2 2494   1.261   2.472   0.101 -0.3196 -0.8404 -0.0755
  830TIP3   OH2 2495   1.879   1.708   0.491 -0.5814  0.3484  0.1968
  830TIP3    H1 2496   1.884   1.614   0.507 -0.1726  0.3935  0.3393
  830TIP3    H2 2497   1.922   1.721   0.407 -1.2726  0.3209 -0.1688
  831TIP3   OH2 2498   5.611   3.949   2.854  0.0759 -0.0371 -0.4313
  831TIP3    H1 2499   5.629   4.035   2.892 -0.4754  0.7552 -1.9063
  831TIP3    H2 2500   5.539   3.914   2.907  0.0626  0.5570 -0.0486
  832TIP3   OH2 2501   5.882   4.650   0.612 -0.1871  0.4956 -0.3016
  832TIP3    H1 2502   5.816   4.655   0.681  1.3569  0.1350  1.2760
  832TIP3    H2 2503   5.900   4.741   0.590 -0.5801  0.6233 -0.1098
  833TIP3   OH2 2504   2.749   4.904   4.589 -0.3208  1.1223  0.0772
  833TIP3    H1 2505   2.674   4.954   4.622 -1.0620 -0.0819  0.2798
  833TIP3    H2 2506   2.710   4.841   4.528  0.3194 -0.5164  1.2892
  834TIP3   OH2 2507   4.122   3.784   3.096 -0.0910 -0.1747  0.2498
  834TIP3    H1 2508   4.147   3.692   3.106  0.6452 -0.1082 -0.8033
  834TIP3    H2 2509   4.204   3.830   3.077 -0.2892  0.8816  1.7366
  835TIP3   OH2 2510   0.537   3.653   3.914  0.3233 -0.3107  0.1208
  835TIP3    H1 2511   0.541   3.569   3.960 -0.8571 -0.9837 -0.9244
  835TIP3    H2 2512   0.481   3.636   3.838 -0.9898  1.7150  0.5393
  836TIP3   OH2 2513   0.893   0.100   0.165 -0.3108  0.6086 -0.4544
  836TIP3    H1 2514   0.838   0.149   0.226 -0.3232  0.5122 -0.3870
  836TIP3    H2 2515   0.975   0.149   0.161  0.1794 -0.0747  0.6428
  837TIP3   OH2 2516   4.245   5.586   2.524 -0.2596 -0.7643 -0.1379
  837TIP3    H1 2517   4.292   5.503   2.511  0.5743 -0.3747  0.3072
  837TIP3    H2 2518   4.303   5.638   2.579 -0.5079  0.3512 -0.8950
  838TIP3   OH2 2519   4.185   1.401   3.999 -0.1457 -0.1604  0.1051
  838TIP3    H1 2520   4.177   1.378   4.092 -2.5421 -1.3733 -0.3213
  838TIP3    H2 2521   4.121   1.471   3.986  0.0700 -0.0959 -0.6662
  839TIP3   OH2 2522   3.477   5.357   3.939  0.5073  0.0593  0.3314
  839TIP3    H1 2523   3.409   5.333   3.877  0.6768  0.0681  0.1415
  839TIP3    H2 2524   3.556   5.313   3.907  0.2864 -1.1341  1.3565
  840TIP3   OH2 2525   2.432   2.232   1.998  0.1718 -0.6348 -0.0447
  840TIP3    H1 2526   2.493   2.252   2.070  2.3014  0.7753 -2.1126
  840TIP3    H2 2527   2.409   2.318   1.961 -0.2593 -1.3599 -1.5313
  841TIP3   OH2 2528   5.213   4.051   4.393 -0.4362 -0.5745  0.0848
  841TIP3    H1 2529   5.305   4.067   4.410 -0.6896  0.8735  0.2147
  841TIP3    H2 2530   5.205   3.956   4.388  1.2159 -0.6976 -0.8625
  842TIP3   OH2 2531   2.600   4.153   1.851 -0.2097 -0.9480 -0.1204
  842TIP3    H1 2532   2.645   4.108   1.779  0.2108 -1.0388  0.1938
  842TIP3    H2 2533   2.615   4.097   1.927 -0.8608 -0.9749 -0.0117
  843TIP3   OH2 2534   4.639   1.807   3.829 -0.0286  0.1015 -0.3169
  843TIP3    H1 2535   4.680   1.721   3.819  2.1151  0.9444  0.7280
  843TIP3    H2 2536   4.711   1.870   3.818 -1.5939  1.8165 -1.4197
  844TIP3   OH2 2537   6.106   3.541   4.561  0.3324 -0.6384 -0.1748
  844TIP3    H1 2538   6.181   3.551   4.621 -0.2425  0.4258  0.3844
  844TIP3    H2 2539   6.137   3.477   4.496  1.4368 -0.8357  0.5014
  845TIP3   OH2 2540   5.141   1.787   1.258  0.2524  0.6337 -0.2141
  845TIP3    H1 2541   5.176   1.858   1.311 -1.2023  2.1872 -1.2191
  845TIP3    H2 2542   5.155   1.815   1.167 -1.3967  0.2308 -0.6365
  846TIP3   OH2 2543   0.741   2.702   1.130  0.1208 -0.3821  0.2267
  846TIP3    H1 2544   0.696   2.620   1.149  1.3094 -0.9388  0.7750
  846TIP3    H2 2545   0.831   2.686   1.157  0.9413  0.2939 -1.9298
  847TIP3   OH2 2546   3.597   2.691   0.527  0.0723  0.7779 -0.2934
  847TIP3    H1 2547   3.631   2.603   0.542  1.7346  1.3721 -0.3386
  847TIP3    H2 2548   3.532   2.680   0.458 -0.2466 -0.5017  0.1852
  848TIP3   OH2 2549   1.686   2.225   4.333 -0.0209  0.3843 -0.2915
  848TIP3    H1 2550   1.770   2.196   4.298 -0.1021  1.1728 -1.1994
  848TIP3    H2 2551   1.657   2.153   4.389  0.2387 -0.8513 -1.6790
  849TIP3   OH2 2552   4.717   0.727   0.298 -0.3619 -0.0369 -0.3719
  849TIP3    H1 2553   4.751   0.812   0.271  1.1758 -0.3010  0.6281
  849TIP3    H2 2554   4.775   0.698   0.368 -1.3513 -1.5440 -0.1123
  850TIP3   OH2 2555   5.681   1.510   0.538 -0.7236 -0.6077  0.4561
  850TIP3    H1 2556   5.751   1.445   0.535  0.1085  0.2396  0.9969
  850TIP3    H2 2557   5.664   1.523   0.631 -0.4462  0.3890  0.3826
  851TIP3   OH2 2558   2.266   1.526   2.664  0.2641  0.1724 -0.7398
  851TIP3    H1 2559   2.221   1.521   2.579  2.1234  0.2075 -1.7866
  851TIP3    H2 2560   2.357   1.505   2.643  0.5179 -1.1796  1.4930
  852TIP3   OH2 2561   5.174   2.359   1.527  0.2997  0.0103 -0.1523
  852TIP3    H1 2562   5.162   2.289   1.591 -2.4642  0.0131 -0.5408
  852TIP3    H2 2563   5.197   2.436   1.579 -0.6327 -0.2815  0.7100
  853TIP3   OH2 2564   2.703   5.114   1.586  0.4012 -0.1507  0.6994
  853TIP3    H1 2565   2.621   5.164   1.584 -0.3917 -1.3741  1.0778
  853TIP3    H2 2566   2.716   5.087   1.495  2.1418  2.6751 -0.0084
  854TIP3   OH2 2567   2.226   2.789   4.504  0.0374  0.2636 -0.0915
  854TIP3    H1 2568   2.179   2.705   4.510  0.3993  0.1711  3.1311
  854TIP3    H2 2569   2.197   2.827   4.421 -1.6714 -2.1371 -0.6965
  855TIP3   OH2 2570   5.021   1.873   3.199 -0.0501 -0.2333 -0.0595
  855TIP3    H1 2571   5.028   1.808   3.270 -0.6367  0.5504  0.7418
  855TIP3    H2 2572   5.104   1.867   3.152  0.0061 -1.3846  0.1527
  856TIP3   OH2 2573   4.916   4.208   4.394  0.4084  0.6047 -0.7178
  856TIP3    H1 2574   4.959   4.247   4.318  0.7041  0.9629 -0.3754
  856TIP3    H2 2575   4.861   4.277   4.429 -0.1140  0.2827 -0.8952
  857TIP3   OH2 2576   4.605   2.868   0.802  0.1389 -0.0136  0.0926
  857TIP3    H1 2577   4.574   2.898   0.888 -1.2583 -0.7620 -0.1188
  857TIP3    H2 2578   4.543   2.907   0.740  0.7190 -0.0552 -0.5155
  858TIP3   OH2 2579   0.731   0.223   1.469  0.8068 -0.1601 -0.4243
  858TIP3    H1 2580   0.740   0.186   1.557 -0.1329  1.4187  0.3863
  858TIP3    H2 2581   0.664   0.169   1.427  0.2768 -0.0961  0.3193
  859TIP3   OH2 2582   2.012   4.153   3.648  0.6231 -0.2914 -0.3669
  859TIP3    H1 2583   1.936   4.172   3.592  0.0111  0.3650  0.6528
  859TIP3    H2 2584   1.980   4.084   3.707  1.7333 -2.0831 -1.7631
  860TIP3   OH2 2585   5.413   5.723   2.242 -0.4611 -0.1723 -0.6627
  860TIP3    H1 2586   5.487   5.666   2.222  0.6100  1.1322 -0.5770
  860TIP3    H2 2587   5.381   5.693   2.327 -2.0827 -2.7600 -2.0442
  861TIP3   OH2 2588   5.016   0.195   0.962  0.7803 -0.1152  0.0492
  861TIP3    H1 2589   4.975   0.275   0.930 -1.8085 -2.1640 -2.2474
  861TIP3    H2 2590   4.948   0.151   1.012  2.3581 -0.6479  1.8577
  862TIP3   OH2 2591   5.309   0.119   0.738 -0.1268 -0.0917 -0.1029
  862TIP3    H1 2592   5.331   0.188   0.675  0.6275  0.5252  0.8079
  862TIP3    H2 2593   5.217   0.099   0.720  0.0709  0.0630 -1.3983
  863TIP3   OH2 2594   0.827   0.140   1.220 -0.5201 -0.7141 -0.0685
  863TIP3    H1 2595   0.809   0.144   1.314  1.3483 -3.9291  0.6017
  863TIP3    H2 2596   0.921   0.151   1.213 -0.3488 -2.5012 -1.2879
  864TIP3   OH2 2597   3.010   4.001   1.807  0.2795 -0.2396 -0.3738
  864TIP3    H1 2598   3.056   3.971   1.729  1.2041 -0.6762  0.3288
  864TIP3    H2 2599   2.948   3.931   1.827  1.5546 -1.1348  0.5299
  865TIP3   OH2 2600   4.183   1.241   5.091 -0.1164 -0.1498  0.6864
  865TIP3    H1 2601   4.091   1.223   5.111 -0.4992 -0.0562 -0.8078
  865TIP3    H2 2602   4.190   1.225   4.997  1.2661  0.4129  0.6681
  866TIP3   OH2 2603   4.080   0.615   2.247  0.0790  0.3241 -0.1029
  866TIP3    H1 2604   4.018   0.626   2.175 -0.4302 -0.1036  0.2589
  866TIP3    H2 2605   4.166   0.617   2.205 -0.1655  1.1492 -0.5826
  867TIP3   OH2 2606   2.801   5.760   3.998  0.4753 -0.0291 -0.1487
  867TIP3    H1 2607   2.842   5.739   3.914  0.6927 -0.2419  0.0100
  867TIP3    H2 2608   2.868   5.808   4.047  0.1450  0.6229 -0.3227
  868TIP3   OH2 2609   0.966   3.338   1.017 -0.8764 -0.5623  0.4262
  868TIP3    H1 2610   0.880   3.379   1.006 -0.3138  0.4722 -0.2301
  868TIP3    H2 2611   0.952   3.272   1.085 -1.6137  1.2960  2.2022
  869TIP3   OH2 2612   1.550   2.815   0.168  0.7556 -0.8089  0.1556
  869TIP3    H1 2613   1.508   2.823   0.082  2.6426 -0.2368 -0.7731
  869TIP3    H2 2614   1.517   2.890   0.217  0.4851 -0.5181 -0.4532
  870TIP3   OH2 2615   4.670   1.816   1.131 -0.0099 -0.0579  0.4320
  870TIP3    H1 2616   4.675   1.721   1.117  1.0319 -0.3491  2.3427
  870TIP3    H2 2617   4.618   1.824   1.211  0.9497  0.9023  0.9689
  871TIP3   OH2 2618   4.383   3.154   3.272  0.4296 -0.3139  0.2826
  871TIP3    H1 2619   4.356   3.113   3.354 -1.5934  1.4536  0.5953
  871TIP3    H2 2620   4.478   3.147   3.271  0.4819 -0.5402  2.7045
  872TIP3   OH2 2621   1.084   3.533   2.942 -0.1145 -0.1455  0.2194
  872TIP3    H1 2622   1.007   3.478   2.959 -0.8039 -0.1522 -2.4704
  872TIP3    H2 2623   1.158   3.472   2.943 -0.4995 -0.6222  0.1124
  873TIP3   OH2 2624   3.043   1.626   0.434  0.4156 -0.4242 -0.1433
  873TIP3    H1 2625   3.099   1.659   0.364  0.5225 -0.2304  0.0302
  873TIP3    H2 2626   2.957   1.617   0.393  0.3576  0.1902 -0.1660
  874TIP3   OH2 2627   4.239   2.534   4.007 -0.4572  0.1142  0.8907
  874TIP3    H1 2628   4.178   2.535   4.080 -0.4507  1.6895  0.9121
  874TIP3    H2 2629   4.309   2.476   4.035 -1.4160 -0.8718  1.2997
  875TIP3   OH2 2630   4.681   1.298   3.817  0.2068  0.3325 -0.2965
  875TIP3    H1 2631   4.723   1.243   3.883  0.4445  0.5139 -0.2935
  875TIP3    H2 2632   4.597   1.323   3.856 -0.4293 -0.9709 -0.7668
  876TIP3   OH2 2633   3.211   1.567   1.434 -0.0821  0.3777 -0.2900
  876TIP3    H1 2634   3.283   1.571   1.370 -0.6292 -0.9490 -1.0503
  876TIP3    H2 2635   3.244   1.509   1.503 -0.0310  0.6184 -0.1139
  877TIP3   OH2 2636   5.652   2.786   3.855  0.4415 -0.4089 -0.0154
  877TIP3    H1 2637   5.573   2.772   3.907 -0.7700 -0.3992 -1.7926
  877TIP3    H2 2638   5.643   2.726   3.781  2.8254 -1.4863  0.4561
  878TIP3   OH2 2639   3.500   2.238   2.124  0.0005 -0.9654  0.3374
  878TIP3    H1 2640   3.567   2.301   2.097 -0.7328 -0.6708 -0.8965
  878TIP3    H2 2641   3.447   2.286   2.188  0.2123 -0.7644  0.3656
  879TIP3   OH2 2642   0.706   3.556   3.355 -0.3714  0.3532  0.4592
  879TIP3    H1 2643   0.626   3.504   3.365  0.9179 -1.5949  1.4004
  879TIP3    H2 2644   0.777   3.492   3.363  1.3331  2.2503  1.6032
  880TIP3   OH2 2645   5.811   5.955   1.164  0.1417 -0.2370 -0.2745
  880TIP3    H1 2646   5.804   5.985   1.254 -1.4588  0.6981 -0.6756
  880TIP3    H2 2647   5.755   6.014   1.114 -0.0264 -1.5239 -1.7034
  881TIP3   OH2 2648   4.204   2.217   1.770 -0.2715 -0.1281  0.1206
  881TIP3    H1 2649   4.133   2.218   1.706 -0.8079 -2.3107  0.5976
  881TIP3    H2 2650   4.280   2.184   1.721  0.2329  1.3381 -0.1566
  882TIP3   OH2 2651   5.157   3.718   1.501 -0.3043  0.1507 -0.2633
  882TIP3    H1 2652   5.076   3.672   1.477 -0.3625  0.7401 -1.2507
  882TIP3    H2 2653   5.202   3.657   1.560 -1.9483  0.2622  1.1737
  883TIP3   OH2 2654   0.773   1.971   1.427  0.3521  0.2093  0.2290
  883TIP3    H1 2655   0.727   2.050   1.399  0.9034  0.2526 -0.5917
  883TIP3    H2 2656   0.722   1.938   1.501 -1.3522 -0.0666 -1.0152
  884TIP3   OH2 2657   6.171   2.923   4.626 -0.1479 -1.1989  0.1520
  884TIP3    H1 2658   6.191   2.841   4.580  0.9569  0.3141 -2.2519
  884TIP3    H2 2659   6.101   2.963   4.574  0.7908  0.3432  0.0080
  885TIP3   OH2 2660   1.789   2.127   0.395  0.7948  0.0211 -0.1981
  885TIP3    H1 2661   1.715   2.084   0.352  1.3252 -0.5954 -0.5007
  885TIP3    H2 2662   1.861   2.064   0.389  1.2780  0.5103  0.3204
  886TIP3   OH2 2663   5.138   3.013   3.776  0.1651 -0.3642 -0.1452
  886TIP3    H1 2664   5.227   2.986   3.751 -0.0208 -0.1909 -1.0063
  886TIP3    H2 2665   5.085   2.934   3.763  0.5283 -1.1539  2.4573
  887TIP3   OH2 2666   5.750   3.563   3.339  0.2458 -0.0269  0.3599
  887TIP3    H1 2667   5.784   3.474   3.328 -0.7419 -0.4219  0.4087
  887TIP3    H2 2668   5.687   3.556   3.410 -0.0300  0.6604  0.1912
  888TIP3   OH2 2669   4.453   4.704   3.797  0.8166  0.0162 -0.3400
  888TIP3    H1 2670   4.477   4.620   3.759 -0.1215 -0.0972 -0.7330
  888TIP3    H2 2671   4.502   4.710   3.879  0.6985 -1.0276 -0.1898
  889TIP3   OH2 2672   4.290   2.689   0.783 -0.4254 -0.1686  0.2360
  889TIP3    H1 2673   4.302   2.600   0.750  1.3670  1.0022 -2.6899
  889TIP3    H2 2674   4.206   2.718   0.746 -0.0309  0.0190 -0.5214
  890TIP3   OH2 2675   1.510   5.736   4.461 -0.8099 -0.1193  0.1101
  890TIP3    H1 2676   1.450   5.670   4.495 -0.5259  0.7497  2.4665
  890TIP3    H2 2677   1.454   5.807   4.431 -1.0249 -0.1828  0.3607
  891TIP3   OH2 2678   0.273   4.580   0.942  0.4413 -0.0049  0.3638
  891TIP3    H1 2679   0.295   4.634   1.017  0.2077 -0.1940  0.5700
  891TIP3    H2 2680   0.216   4.637   0.888 -0.8401 -0.4606  1.1977
  892TIP3   OH2 2681   4.422   5.339   4.417 -0.0918 -0.0778 -0.2908
  892TIP3    H1 2682   4.334   5.329   4.380 -0.4710  0.3178  0.4717
  892TIP3    H2 2683   4.453   5.422   4.383 -1.1715  1.2065  1.6322
  893TIP3   OH2 2684   4.903   5.133   1.023 -0.1521  0.1370 -0.0749
  893TIP3    H1 2685   4.947   5.196   0.967 -1.9436 -0.4579 -2.3319
  893TIP3    H2 2686   4.840   5.184   1.073 -1.9504  0.2075 -2.2598
  894TIP3   OH2 2687   0.496   0.032   1.922  0.2027  0.0978  0.4161
  894TIP3    H1 2688   0.412   0.037   1.877  0.6308  0.5187 -0.3578
  894TIP3    H2 2689   0.520  -0.061   1.919  0.1783  0.1100 -0.1338
  895TIP3   OH2 2690   1.126   0.306   3.992 -0.1729 -0.3753  0.4284
  895TIP3    H1 2691   1.136   0.395   3.957  0.6965 -0.6272  0.0098
  895TIP3    H2 2692   1.031   0.295   4.003 -0.2786  0.7067  0.7638
  896TIP3   OH2 2693   2.526   3.760   3.037 -0.6623 -0.4103  0.2330
  896TIP3    H1 2694   2.600   3.799   2.991  0.2881 -0.4441  1.6582
  896TIP3    H2 2695   2.511   3.677   2.992 -0.6003  0.1236 -0.8009
  897TIP3   OH2 2696   3.380   4.636   2.682 -0.0637  0.3365  0.9284
  897TIP3    H1 2697   3.387   4.717   2.733  1.1440  0.1031  1.1769
  897TIP3    H2 2698   3.452   4.582   2.715 -0.8923 -0.8727  0.8213
  898TIP3   OH2 2699   2.422   4.284   2.465 -0.3871  0.1085 -0.0375
  898TIP3    H1 2700   2.349   4.292   2.526 -0.1707 -0.2085  0.2656
  898TIP3    H2 2701   2.408   4.353   2.400 -0.6696  0.3813  0.3184
  899TIP3   OH2 2702   0.242   2.232   2.994 -0.1308  0.3256  0.6759
  899TIP3    H1 2703   0.262   2.143   2.963 -1.9606 -0.3050  1.1219
  899TIP3    H2 2704   0.176   2.219   3.063  0.5990  1.9635  1.7434
  900TIP3   OH2 2705   2.478   0.839   2.408  0.0231  0.4769 -0.2531
  900TIP3    H1 2706   2.514   0.920   2.374 -0.4150  1.1454  0.8262
  900TIP3    H2 2707   2.395   0.829   2.363 -0.6513  1.4635  0.7274
  901TIP3   OH2 2708   2.357   3.109   2.643  0.4649  0.0621  0.0366
  901TIP3    H1 2709   2.271   3.088   2.680  0.3968  1.7509  0.9636
  901TIP3    H2 2710   2.346   3.197   2.607  1.6917  0.1054 -0.2665
  902TIP3   OH2 2711   5.032   4.528   0.868 -0.7540  0.8482 -0.4482
  902TIP3    H1 2712   4.977   4.566   0.936  1.0926  1.8925  0.5452
  902TIP3    H2 2713   5.007   4.436   0.865 -3.4855  1.5111 -1.0464
  903TIP3   OH2 2714   5.063   0.845   4.786 -0.1306 -0.1544  0.2239
  903TIP3    H1 2715   5.067   0.752   4.808  1.3020 -0.2705 -0.4495
  903TIP3    H2 2716   4.974   0.871   4.808 -0.1357 -1.3502  1.7691
  904TIP3   OH2 2717   4.314   4.469   2.750  0.8156 -0.4760 -0.0746
  904TIP3    H1 2718   4.273   4.550   2.780 -0.9740 -1.9490  1.6461
  904TIP3    H2 2719   4.386   4.455   2.811  1.2317 -0.1504 -0.4737
  905TIP3   OH2 2720   1.954   4.376   2.191 -0.7638 -0.1077  0.8898
  905TIP3    H1 2721   2.002   4.293   2.188 -1.9137 -0.7714 -0.8398
  905TIP3    H2 2722   2.010   4.437   2.142 -0.4297 -0.1464  1.2180
  906TIP3   OH2 2723   2.687   2.483   2.962  0.1022 -0.5014 -0.0659
  906TIP3    H1 2724   2.679   2.512   2.871 -0.1602 -1.9171 -0.5087
  906TIP3    H2 2725   2.597   2.475   2.993  0.1899 -0.0492  0.3158
  907TIP3   OH2 2726   3.610   0.561   5.042  0.3388 -0.0283  0.5725
  907TIP3    H1 2727   3.598   0.654   5.026 -0.9410  0.0528  1.7796
  907TIP3    H2 2728   3.533   0.520   5.002 -0.0789 -0.3530  1.6692
  908TIP3   OH2 2729   2.845   0.075   4.804  0.3468 -0.1826 -0.5606
  908TIP3    H1 2730   2.900   0.138   4.758  0.3790 -1.3334 -2.2000
  908TIP3    H2 2731   2.882   0.069   4.891  1.4248  0.7330 -0.9377
  909TIP3   OH2 2732   0.194   2.537   3.825  0.1678  0.5106  0.6512
  909TIP3    H1 2733   0.217   2.458   3.874  0.4685  0.5964  0.6524
  909TIP3    H2 2734   0.170   2.505   3.738 -1.3179  0.2576  1.1199
  910TIP3   OH2 2735   4.127   5.247   2.629  0.3591 -0.0848 -0.1875
  910TIP3    H1 2736   4.126   5.239   2.724  2.4873 -0.6806 -0.1740
  910TIP3    H2 2737   4.046   5.205   2.601  0.2065 -0.8470  1.3035
  911TIP3   OH2 2738   3.424   5.642   1.338  0.3584 -0.1601 -0.4907
  911TIP3    H1 2739   3.448   5.558   1.378 -1.6669 -0.4994  0.0976
  911TIP3    H2 2740   3.329   5.638   1.329  0.1342  2.3825  0.2081
  912TIP3   OH2 2741   1.357   4.969   4.674  0.6531  0.5117  0.0088
  912TIP3    H1 2742   1.298   4.939   4.605 -1.3562 -1.1042  2.2459
  912TIP3    H2 2743   1.314   5.047   4.711 -0.9224 -1.3494  2.4317
  913TIP3   OH2 2744   0.563   5.287   0.046 -0.2097  0.3301 -0.8374
  913TIP3    H1 2745   0.579   5.202   0.085 -1.5120 -0.4826 -1.9865
  913TIP3    H2 2746   0.641   5.305  -0.006 -0.3003 -0.5696 -1.2891
  914TIP3   OH2 2747   2.930   0.485   3.687 -0.6858 -0.3555 -0.7253
  914TIP3    H1 2748   2.932   0.577   3.713  0.7161 -0.4962 -0.2507
  914TIP3    H2 2749   2.997   0.478   3.618 -1.7412 -0.7584 -1.7529
  915TIP3   OH2 2750   1.910   2.203   4.600  0.3503 -0.2674 -0.4374
  915TIP3    H1 2751   2.002   2.203   4.627 -0.1579  0.8255  1.4582
  915TIP3    H2 2752   1.874   2.283   4.637 -1.7770 -1.5295  0.3880
  916TIP3   OH2 2753   2.605   3.171   4.456 -0.3046  0.1269  0.4365
  916TIP3    H1 2754   2.607   3.084   4.496  1.1058 -0.2811 -0.4655
  916TIP3    H2 2755   2.625   3.155   4.363 -0.3103  1.3833  0.2061
  917TIP3   OH2 2756   5.935   2.285   2.973  0.0867 -1.2392  0.2335
  917TIP3    H1 2757   5.993   2.220   2.934  1.1617  0.1595 -0.5994
  917TIP3    H2 2758   5.961   2.368   2.932 -2.5024 -0.5429 -0.1670
  918TIP3   OH2 2759   0.187   0.400   2.208 -0.2664  0.0964  0.0657
  918TIP3    H1 2760   0.266   0.385   2.156 -1.2465  0.5338 -1.6175
  918TIP3    H2 2761   0.139   0.318   2.204 -0.7789  0.4166 -0.5096
  919TIP3   OH2 2762   0.807   1.232   2.928 -0.3222 -0.1731  0.1957
  919TIP3    H1 2763   0.743   1.273   2.985  0.6616  0.2851  0.9964
  919TIP3    H2 2764   0.816   1.293   2.854  0.2796  0.5133  0.8166
  920TIP3   OH2 2765   2.262   3.667   3.727 -0.3966  0.2402 -0.3141
  920TIP3    H1 2766   2.324   3.736   3.705  0.7247 -0.8192 -0.6039
  920TIP3    H2 2767   2.230   3.689   3.814  0.3859  0.8170 -0.1667
  921TIP3   OH2 2768   3.544   3.874   3.033  0.4882 -0.3636 -0.3199
  921TIP3    H1 2769   3.543   3.929   2.955 -0.0047 -0.6239 -0.4960
  921TIP3    H2 2770   3.633   3.884   3.067  0.6254 -0.0394 -0.7609
  922TIP3   OH2 2771   5.654   5.029   4.687 -0.0834  0.2963  0.4341
  922TIP3    H1 2772   5.587   4.961   4.690  0.1770  0.0525  1.0541
  922TIP3    H2 2773   5.630   5.090   4.757  0.0764  0.4648  0.3438
  923TIP3   OH2 2774   3.523   4.484   3.447 -0.0482  0.4102  1.2297
  923TIP3    H1 2775   3.618   4.477   3.457 -0.3077 -1.0592  3.2573
  923TIP3    H2 2776   3.496   4.399   3.412 -0.5857  1.0042  0.1571
  924TIP3   OH2 2777   1.245   5.812   3.044  0.8606  0.4839 -0.0286
  924TIP3    H1 2778   1.213   5.894   3.083  0.0319 -0.3832  1.1941
  924TIP3    H2 2779   1.173   5.782   2.989  1.0394  0.4175 -0.2257
  925TIP3   OH2 2780   1.704   0.033   3.120 -0.5679 -0.3009  0.5580
  925TIP3    H1 2781   1.738   0.012   3.034  0.6103 -0.4722  1.0505
  925TIP3    H2 2782   1.609   0.032   3.109 -0.4348 -0.3339 -0.7236
  926TIP3   OH2 2783   1.905   3.664   1.933  0.3910 -0.3011 -0.7262
  926TIP3    H1 2784   1.812   3.641   1.923  0.2903  0.2380 -1.0534
  926TIP3    H2 2785   1.913   3.692   2.024  0.0968  0.2393 -0.8618
  927TIP3   OH2 2786   4.658   1.284   3.543 -0.0038  0.3314 -0.6797
  927TIP3    H1 2787   4.647   1.315   3.633 -1.2082 -1.6470 -0.0776
  927TIP3    H2 2788   4.585   1.323   3.495 -2.0677 -2.0483  0.2764
  928TIP3   OH2 2789   6.023   0.111   3.515 -0.1994 -0.7243 -0.1884
  928TIP3    H1 2790   6.073   0.172   3.460 -0.2558 -1.4147 -1.0259
  928TIP3    H2 2791   6.041   0.025   3.478 -2.2193 -0.9757 -0.7242
  929TIP3   OH2 2792   5.928   4.135   3.170 -0.1043  0.1594 -0.4184
  929TIP3    H1 2793   5.962   4.220   3.139 -2.0856  0.5404 -1.7606
  929TIP3    H2 2794   5.909   4.087   3.089  0.6152 -1.4554  0.3279
  930TIP3   OH2 2795   2.536   2.518   2.545 -0.3844  0.0087  0.5514
  930TIP3    H1 2796   2.518   2.582   2.614  0.6947 -0.6712  1.4980
  930TIP3    H2 2797   2.556   2.437   2.591 -0.1956 -0.6111 -0.5797
  931TIP3   OH2 2798   2.260   1.555   4.806  0.1395 -0.0300  0.8548
  931TIP3    H1 2799   2.346   1.519   4.828  1.3714  1.7948 -0.6874
  931TIP3    H2 2800   2.276   1.610   4.730 -2.0339  1.9454  1.7094
  932TIP3   OH2 2801   5.521   2.297   0.233 -0.5415 -0.0471  0.0763
  932TIP3    H1 2802   5.568   2.229   0.184  0.5306  1.0876 -0.5260
  932TIP3    H2 2803   5.440   2.310   0.184  1.1682  2.1714 -2.4899
  933TIP3   OH2 2804   5.500   1.783   0.922 -0.1885 -0.3943  0.2623
  933TIP3    H1 2805   5.588   1.790   0.885 -0.0380  1.4851  0.8580
  933TIP3    H2 2806   5.515   1.761   1.014 -0.1421  2.4173  1.0135
  934TIP3   OH2 2807   5.244   0.714   4.407  1.0143  0.3354  0.5921
  934TIP3    H1 2808   5.286   0.685   4.325  2.6351  1.8497  0.8191
  934TIP3    H2 2809   5.209   0.801   4.387  1.2062  0.6169  1.4274
  935TIP3   OH2 2810   4.995   1.150   2.043  0.4340  0.7615  0.3029
  935TIP3    H1 2811   4.996   1.057   2.062 -0.8201  0.8221  0.7311
  935TIP3    H2 2812   5.043   1.158   1.961  1.2976 -0.1462  0.7082
  936TIP3   OH2 2813   4.924   1.021   3.309 -0.2295 -0.7387  0.0478
  936TIP3    H1 2814   4.893   0.995   3.395 -1.9318 -0.0861 -0.3308
  936TIP3    H2 2815   4.889   1.108   3.296  0.3649 -0.6545 -1.1426
  937TIP3   OH2 2816   2.559   5.851   0.940 -0.7812  0.4741 -0.0866
  937TIP3    H1 2817   2.490   5.797   0.978 -0.9414 -0.0935 -1.1344
  937TIP3    H2 2818   2.521   5.938   0.933 -0.5324  0.7550  1.5947
  938TIP3   OH2 2819   0.735   0.273   0.281 -0.6651 -0.3603  0.0930
  938TIP3    H1 2820   0.747   0.255   0.374  1.1682  0.9931  0.1786
  938TIP3    H2 2821   0.724   0.368   0.276 -0.9125 -0.4302 -1.0659
  939TIP3   OH2 2822   1.151   3.851   2.687 -0.4002 -0.6507  0.2849
  939TIP3    H1 2823   1.130   3.852   2.780 -1.1341  1.1527  0.1318
  939TIP3    H2 2824   1.074   3.813   2.645  0.3414 -2.4341  0.4676
  940TIP3   OH2 2825   0.209   5.670   1.689  0.0539 -0.3963 -0.1113
  940TIP3    H1 2826   0.255   5.654   1.607 -1.5316  0.7162 -1.2757
  940TIP3    H2 2827   0.245   5.753   1.721 -0.5593  0.0685 -0.6100
  941TIP3   OH2 2828   2.324   2.748   4.155 -0.1970  0.3724  0.3162
  941TIP3    H1 2829   2.349   2.777   4.068  1.4462  0.6580  0.8510
  941TIP3    H2 2830   2.357   2.817   4.214 -0.1678 -0.4210  1.2541
  942TIP3   OH2 2831   4.721   0.680   3.632  0.1577  0.4016 -0.2612
  942TIP3    H1 2832   4.630   0.706   3.643 -1.0130 -1.7986 -3.5107
  942TIP3    H2 2833   4.741   0.630   3.712 -1.4282  0.9536  0.5254
  943TIP3   OH2 2834   2.697   5.931   2.691 -1.2540  0.4977 -0.7015
  943TIP3    H1 2835   2.686   5.850   2.741  1.1530  0.3810 -0.2062
  943TIP3    H2 2836   2.697   5.903   2.600  0.1900 -0.2067 -0.5187
  944TIP3   OH2 2837   4.391   2.748   0.534 -0.2450  0.7966  0.1589
  944TIP3    H1 2838   4.388   2.843   0.551 -0.7933  0.8347 -0.1388
  944TIP3    H2 2839   4.346   2.709   0.609  1.4428  0.6430  1.1473
  945TIP3   OH2 2840   4.343   4.426   0.579  0.1568 -0.2745 -0.8954
  945TIP3    H1 2841   4.403   4.381   0.519  0.5742 -0.0210 -0.6752
  945TIP3    H2 2842   4.350   4.379   0.661  2.1110  1.3236 -0.0537
  946TIP3   OH2 2843   2.509   0.269   1.103  0.3278 -0.4265  0.9682
  946TIP3    H1 2844   2.600   0.269   1.134  0.9052 -0.0340 -0.6101
  946TIP3    H2 2845   2.513   0.311   1.017 -1.4505  0.0901  1.1002
  947TIP3   OH2 2846   2.645   1.277   1.648 -0.4011  0.4720  0.3710
  947TIP3    H1 2847   2.651   1.211   1.579 -1.8186 -0.9519  1.5194
  947TIP3    H2 2848   2.717   1.256   1.708  0.0336  0.8956  0.0050
  948TIP3   OH2 2849   5.282   2.966   1.176  0.9423 -0.3823 -0.3978
  948TIP3    H1 2850   5.266   2.874   1.196  1.2147 -0.4813 -0.6265
  948TIP3    H2 2851   5.358   2.965   1.118  0.2343 -0.0890 -1.3539
  949TIP3   OH2 2852   0.990   5.345   2.043  0.0032 -0.3841  0.2554
  949TIP3    H1 2853   1.041   5.293   1.981 -0.6103  0.3469 -0.9243
  949TIP3    H2 2854   0.988   5.433   2.004 -0.6340  0.0275  1.1805
  950TIP3   OH2 2855   5.871   4.698   4.102  0.3707 -0.0512 -0.0218
  950TIP3    H1 2856   5.798   4.748   4.137  1.1905  0.4256  1.0809
  950TIP3    H2 2857   5.937   4.765   4.081  0.4834 -0.4652 -1.0658
  951TIP3   OH2 2858   3.943   5.210   0.095 -0.1757  0.3076  0.0632
  951TIP3    H1 2859   3.886   5.135   0.075  2.2945 -1.7122  0.1234
  951TIP3    H2 2860   3.982   5.233   0.011  2.2171 -1.2877  0.6516
  952TIP3   OH2 2861   1.854   3.074   0.712 -0.4337 -0.6632  0.5203
  952TIP3    H1 2862   1.919   3.085   0.781  1.4732 -2.3089 -0.8956
  952TIP3    H2 2863   1.830   2.981   0.717 -0.8253 -0.6282 -0.5408
  953TIP3   OH2 2864   6.175   2.881   3.756 -0.0320  0.6135 -0.9832
  953TIP3    H1 2865   6.089   2.885   3.713 -0.7393  1.3313  0.4386
  953TIP3    H2 2866   6.221   2.958   3.724  0.0323  0.3267 -1.6058
  954TIP3   OH2 2867   0.288   1.943   4.551 -0.0997  0.4861  0.5867
  954TIP3    H1 2868   0.284   1.987   4.635 -0.9311  1.3282  0.1302
  954TIP3    H2 2869   0.357   1.878   4.561 -1.5041 -0.8201  2.5651
  955TIP3   OH2 2870   2.384   3.548   4.168 -0.2918 -0.5514 -0.0028
  955TIP3    H1 2871   2.361   3.491   4.095 -1.9959  1.4980 -1.2149
  955TIP3    H2 2872   2.320   3.527   4.236  0.1438 -1.2178  0.2031
  956TIP3   OH2 2873   0.232   2.781   1.187 -0.6473 -0.1296  0.2583
  956TIP3    H1 2874   0.297   2.748   1.126  1.5422  1.3250  1.6564
  956TIP3    H2 2875   0.203   2.864   1.150  0.4160  0.5768  0.9360
  957TIP3   OH2 2876   3.598   4.555   4.840  0.1762  0.2612  0.3112
  957TIP3    H1 2877   3.608   4.590   4.929 -0.9605  1.3846  0.0285
  957TIP3    H2 2878   3.676   4.587   4.793  0.2535  0.5547  0.6346
  958TIP3   OH2 2879   1.456   2.410   2.444 -0.0200  0.7851 -0.7124
  958TIP3    H1 2880   1.440   2.338   2.383  1.0229  1.7762 -2.2067
  958TIP3    H2 2881   1.447   2.370   2.531 -1.0584 -0.7672 -1.4873
  959TIP3   OH2 2882   0.476   4.924   2.113  0.2404  0.4486  0.0159
  959TIP3    H1 2883   0.475   4.857   2.182 -0.2432  0.4024 -0.0326
  959TIP3    H2 2884   0.537   4.889   2.047 -0.3101 -0.1308 -0.1923
  960TIP3   OH2 2885   5.967   3.987   2.106 -0.2989  0.2691 -0.4242
  960TIP3    H1 2886   5.947   4.058   2.168 -0.2872 -0.3838  0.3534
  960TIP3    H2 2887   5.955   4.026   2.020  0.9296  1.5816 -0.0389
  961TIP3   OH2 2888   0.507   4.658   4.424 -0.0772  0.4301  0.2727
  961TIP3    H1 2889   0.531   4.727   4.362 -0.2869 -1.0413 -1.5220
  961TIP3    H2 2890   0.422   4.686   4.459 -1.8358 -0.3782 -2.9202
  962TIP3   OH2 2891   3.655   5.565   0.142  0.0044 -0.1663 -0.4115
  962TIP3    H1 2892   3.653   5.473   0.117 -0.5041 -0.5332  0.9338
  962TIP3    H2 2893   3.577   5.577   0.196  0.2179  0.9851 -0.3308
  963TIP3   OH2 2894   0.395   0.677   4.237 -0.0834  0.1423 -1.1323
  963TIP3    H1 2895   0.477   0.649   4.278 -0.9160 -2.0299 -0.8290
  963TIP3    H2 2896   0.356   0.737   4.300  1.0750  0.9530 -1.1359
  964TIP3   OH2 2897   2.399   2.156   3.076  0.6043 -0.2741  0.0170
  964TIP3    H1 2898   2.484   2.142   3.034  0.6023 -1.1137  0.2674
  964TIP3    H2 2899   2.342   2.090   3.035  0.4870 -0.7865  0.9825
  965TIP3   OH2 2900   3.350   5.651   4.139  0.1763 -0.3321 -0.1376
  965TIP3    H1 2901   3.323   5.599   4.063  0.7599  0.0743 -0.6338
  965TIP3    H2 2902   3.328   5.596   4.215 -0.2260 -0.8281 -0.6067
  966TIP3   OH2 2903   2.287   4.261   1.379 -0.5451 -0.6186  0.2443
  966TIP3    H1 2904   2.341   4.225   1.449  0.5956  1.6601  0.6541
  966TIP3    H2 2905   2.350   4.290   1.312 -1.4066 -0.0086 -0.3266
  967TIP3   OH2 2906   0.829   2.380   4.287  0.1345  0.2024  1.2651
  967TIP3    H1 2907   0.785   2.430   4.219 -2.1042 -0.8422  1.8387
  967TIP3    H2 2908   0.918   2.413   4.288 -0.1098  1.1333 -1.2812
  968TIP3   OH2 2909   1.261   0.791   3.229 -0.2633 -0.3215 -0.4414
  968TIP3    H1 2910   1.316   0.767   3.304 -1.0114  0.2029  0.3016
  968TIP3    H2 2911   1.192   0.846   3.267  0.2965  1.4043 -1.7866
  969TIP3   OH2 2912   1.782   4.840   3.010 -0.1908  0.2584 -0.4363
  969TIP3    H1 2913   1.751   4.870   3.096  1.4168 -0.2407  0.3506
  969TIP3    H2 2914   1.704   4.803   2.969 -1.4154  2.1975  0.0153
  970TIP3   OH2 2915   0.999   3.971   4.653  0.3369  0.1614 -0.4917
  970TIP3    H1 2916   0.908   3.999   4.644 -0.1759 -0.9694  0.6674
  970TIP3    H2 2917   1.042   3.999   4.573 -1.1230  0.4146 -1.2098
  971TIP3   OH2 2918   5.718   1.576   0.803  0.0383 -0.1099  0.4796
  971TIP3    H1 2919   5.720   1.671   0.787 -1.1893 -0.2520 -0.8066
  971TIP3    H2 2920   5.707   1.567   0.897  0.6044  1.0229  0.6672
  972TIP3   OH2 2921   2.139   0.150   0.462  0.2873 -0.5389 -0.2513
  972TIP3    H1 2922   2.110   0.065   0.495  1.5777 -1.3950 -1.2063
  972TIP3    H2 2923   2.161   0.133   0.370  1.9321  0.4845 -0.0808
  973TIP3   OH2 2924   3.352   4.048   1.837  0.0379  0.2868 -0.2047
  973TIP3    H1 2925   3.317   4.064   1.925 -0.3720  0.7687 -0.4497
  973TIP3    H2 2926   3.421   4.114   1.827  1.4157 -0.9784  0.4711
  974TIP3   OH2 2927   5.021   2.750   3.577 -0.1844 -0.8469 -0.4253
  974TIP3    H1 2928   4.967   2.773   3.653  0.1628 -0.9587 -0.1463
  974TIP3    H2 2929   5.042   2.658   3.589 -0.6142 -1.0189 -0.9587
  975TIP3   OH2 2930   2.634   3.573   0.524  0.3976 -0.0730  0.2874
  975TIP3    H1 2931   2.686   3.556   0.446  1.1338  2.0184  0.2508
  975TIP3    H2 2932   2.595   3.489   0.546  2.3701 -1.3190 -0.7223
  976TIP3   OH2 2933   4.793   1.744   4.218  0.2635  0.4707  0.1602
  976TIP3    H1 2934   4.699   1.733   4.205  0.3694  0.0756 -0.3158
  976TIP3    H2 2935   4.830   1.657   4.201  0.8342  0.8901 -0.8149
  977TIP3   OH2 2936   4.274   5.770   3.765  0.3305  0.1588 -0.4266
  977TIP3    H1 2937   4.205   5.826   3.729  0.1878  0.0562 -0.3116
  977TIP3    H2 2938   4.228   5.697   3.805  0.5796 -0.8887 -2.0022
  978TIP3   OH2 2939   0.555   1.216   4.217  0.1551  0.1365 -0.3558
  978TIP3    H1 2940   0.519   1.281   4.277  0.8336 -0.4846  0.7593
  978TIP3    H2 2941   0.646   1.244   4.203  0.1091  0.0724 -0.8075
  979TIP3   OH2 2942   2.588   1.622   2.291  0.0547  0.3996 -0.6997
  979TIP3    H1 2943   2.574   1.705   2.245  1.0865  0.5440 -0.7879
  979TIP3    H2 2944   2.653   1.643   2.358 -0.2685 -0.1614 -0.2047
  980TIP3   OH2 2945   0.365   1.073   2.601  0.0912  0.5089 -0.3910
  980TIP3    H1 2946   0.310   1.126   2.659  0.5066 -0.7135  1.2139
  980TIP3    H2 2947   0.347   0.983   2.627  2.4084  0.0293 -0.1554
  981TIP3   OH2 2948   2.471   4.590   1.963  0.3257 -0.6219 -0.6940
  981TIP3    H1 2949   2.442   4.679   1.983  0.7274 -0.1854 -1.9474
  981TIP3    H2 2950   2.564   4.599   1.943  0.7417 -1.5812  0.6512
  982TIP3   OH2 2951   1.589   3.975   0.248 -0.0502  0.4632 -0.2117
  982TIP3    H1 2952   1.627   4.039   0.309  2.1186 -0.4777 -0.4498
  982TIP3    H2 2953   1.603   3.891   0.291 -2.4643  0.0609 -0.0983
  983TIP3   OH2 2954   5.671   0.668   4.456 -0.8872 -0.9875  0.1014
  983TIP3    H1 2955   5.626   0.699   4.377 -0.0880 -0.5144 -0.1831
  983TIP3    H2 2956   5.608   0.679   4.526  0.1961  4.0373  0.6047
  984TIP3   OH2 2957   6.073   2.249   2.701 -0.1141 -0.3522 -0.2681
  984TIP3    H1 2958   6.127   2.171   2.687 -2.0772 -2.0186  0.9136
  984TIP3    H2 2959   6.042   2.273   2.614 -0.3090 -1.5516 -0.5458
  985TIP3   OH2 2960   1.551   2.521   1.578  0.7670 -0.0092 -0.0501
  985TIP3    H1 2961   1.601   2.569   1.643  0.6074  0.0782  0.0107
  985TIP3    H2 2962   1.481   2.582   1.553  0.4235 -0.2969  0.1992
  986TIP3   OH2 2963   1.933   3.864   3.342 -0.6323  0.0339 -0.3585
  986TIP3    H1 2964   1.870   3.793   3.329  1.3282 -1.9358  0.1916
  986TIP3    H2 2965   1.981   3.839   3.421 -0.6644  2.6477  0.5735
  987TIP3   OH2 2966   1.337   1.242   2.292 -0.3443  0.6102  0.4281
  987TIP3    H1 2967   1.274   1.171   2.307  0.5086 -0.1397  0.5915
  987TIP3    H2 2968   1.351   1.280   2.379  0.7562 -0.3966  0.7135
  988TIP3   OH2 2969   5.027   5.196   1.871  0.0401  0.0330 -0.2586
  988TIP3    H1 2970   4.986   5.270   1.826 -1.6328 -0.2826  0.6736
  988TIP3    H2 2971   4.997   5.120   1.822 -2.0010 -0.3373  1.4048
  989TIP3   OH2 2972   0.383   0.558   0.488  0.9495 -0.6001 -0.7743
  989TIP3    H1 2973   0.374   0.611   0.409 -1.6267 -0.1008 -0.2318
  989TIP3    H2 2974   0.415   0.619   0.555  0.7683 -0.4307 -0.8427
  990TIP3   OH2 2975   0.595   3.536   2.625 -0.2439  0.2946  0.4809
  990TIP3    H1 2976   0.594   3.464   2.688  1.3359 -0.0861  0.1184
  990TIP3    H2 2977   0.507   3.574   2.630 -0.4759 -0.3826  2.1463
  991TIP3   OH2 2978   0.651   0.540   0.291 -0.1085  0.0141  0.4615
  991TIP3    H1 2979   0.564   0.580   0.287 -0.6348 -1.1681 -2.4839
  991TIP3    H2 2980   0.707   0.597   0.239  0.4211 -0.2334  0.7499
  992TIP3   OH2 2981   1.730   3.094   2.721 -0.1653 -0.1925 -1.4348
  992TIP3    H1 2982   1.740   3.164   2.656  2.0814  0.1748 -0.7835
  992TIP3    H2 2983   1.701   3.139   2.800  1.5398  0.1148 -0.9387
  993TIP3   OH2 2984   1.678   1.673   0.107  0.2215  0.9100 -0.6702
  993TIP3    H1 2985   1.742   1.723   0.058  0.0362  1.7014 -0.1300
  993TIP3    H2 2986   1.720   1.588   0.123  0.2374  0.5962 -2.2522
  994TIP3   OH2 2987   0.824   3.663   1.894 -0.0454 -0.1449 -0.4522
  994TIP3    H1 2988   0.772   3.710   1.829  0.0450  3.3643  1.7430
  994TIP3    H2 2989   0.773   3.584   1.912 -0.5909 -0.7320 -3.8691
  995TIP3   OH2 2990   0.586   3.996   1.482 -0.0688  0.3036 -0.2978
  995TIP3    H1 2991   0.610   3.950   1.402  1.8932 -1.2769  1.0876
  995TIP3    H2 2992   0.611   4.087   1.466  0.5018 -0.0353 -1.3970
  996TIP3   OH2 2993   5.294   1.252   2.167  0.0034  0.0018 -0.0305
  996TIP3    H1 2994   5.212   1.296   2.191 -0.5073 -0.6813 -0.4569
  996TIP3    H2 2995   5.288   1.166   2.209  1.0302  0.3544  0.8688
  997TIP3   OH2 2996   4.665   3.612   1.329 -0.4406 -0.1414  0.7078
  997TIP3    H1 2997   4.758   3.624   1.350 -0.4492 -0.2886  0.8343
  997TIP3    H2 2998   4.633   3.701   1.315 -0.3657 -0.0567  1.0469
  998TIP3   OH2 2999   2.354   1.773   3.304  0.4317  0.8325 -0.1253
  998TIP3    H1 3000   2.431   1.830   3.312 -0.2807  1.7481  0.3481
  998TIP3    H2 3001   2.280   1.831   3.319 -0.3578 -0.0593 -0.4977
  999TIP3   OH2 3002   1.921   3.765   1.572  0.7037  0.4509 -0.3016
  999TIP3    H1 3003   1.984   3.722   1.628 -0.0063  1.2572  1.1697
  999TIP3    H2 3004   1.840   3.766   1.623  0.5401  2.9732 -0.4676
 1000TIP3   OH2 3005   5.763   4.485   0.339 -0.0152  0.2120 -0.3304
 1000TIP3    H1 3006   5.837   4.495   0.398  0.6516  0.6873 -1.2302
 1000TIP3    H2 3007   5.758   4.391   0.322  0.5037  0.1985 -0.4181
 1001TIP3   OH2 3008   1.029   3.610   2.056 -0.2653  0.3846 -0.3424
 1001TIP3    H1 3009   0.971   3.639   1.986 -1.6471 -1.3432  0.0167
 1001TIP3    H2 3010   0.998   3.656   2.134 -1.1250 -0.4455 -0.1743
 1002TIP3   OH2 3011   4.879   2.996   3.143 -0.0544  0.3166  0.1299
 1002TIP3    H1 3012   4.892   2.917   3.195 -0.0588  0.1339 -0.1436
 1002TIP3    H2 3013   4.807   2.974   3.084  0.4593  0.2431 -0.4863
 1003TIP3   OH2 3014   2.150   2.062   2.379 -0.8369 -0.7440  0.1777
 1003TIP3    H1 3015   2.135   2.151   2.411 -3.1856 -0.3459 -1.6808
 1003TIP3    H2 3016   2.179   2.074   2.289  1.0874 -1.8815  0.6033
 1004TIP3   OH2 3017   3.065   5.902   2.643 -0.0263  0.0429 -0.0006
 1004TIP3    H1 3018   3.134   5.937   2.698 -2.1140  3.4907  0.6859
 1004TIP3    H2 3019   3.086   5.933   2.555  0.4817 -0.9544 -0.2539
 1005TIP3   OH2 3020   6.100   5.898   1.429  0.0025 -0.4898 -0.1209
 1005TIP3    H1 3021   6.083   5.844   1.352  1.3661 -1.3914  0.1836
 1005TIP3    H2 3022   6.192   5.883   1.450 -0.4846 -0.7973  2.0801
 1006TIP3   OH2 3023   6.293   5.016   0.199  0.2960 -0.0723  0.1801
 1006TIP3    H1 3024   6.356   5.032   0.269  1.4566  1.1238 -1.0832
 1006TIP3    H2 3025   6.229   5.086   0.207  0.1623 -0.2131  0.3374
 1007TIP3   OH2 3026   6.062   5.028   3.039 -0.0143 -0.3131 -0.0985
 1007TIP3    H1 3027   6.141   5.069   3.004  0.2719 -0.2599  0.6081
 1007TIP3    H2 3028   6.014   5.000   2.961  1.1696 -1.2545 -0.5210
 1008TIP3   OH2 3029   2.393   0.313   2.324  0.0705 -0.0327 -0.2236
 1008TIP3    H1 3030   2.319   0.326   2.265  1.8274 -0.0408 -2.5465
 1008TIP3    H2 3031   2.415   0.401   2.354 -1.2760 -0.1021  1.0629
 1009TIP3   OH2 3032   3.795   0.600   3.380  0.2935  0.2845  0.0904
 1009TIP3    H1 3033   3.742   0.609   3.301  0.1187  2.3453  0.3989
 1009TIP3    H2 3034   3.827   0.688   3.398  1.3138 -0.3640  1.6566
 1010TIP3   OH2 3035   4.367   0.527   2.894 -1.0945  0.1756  0.2153
 1010TIP3    H1 3036   4.273   0.510   2.902 -1.4670  2.3262  1.0556
 1010TIP3    H2 3037   4.384   0.518   2.800 -2.2328  0.1753 -0.0086
 1011TIP3   OH2 3038   4.650   5.633   3.069 -0.1494 -0.0396  0.1103
 1011TIP3    H1 3039   4.594   5.596   3.138  1.3490  0.6187  1.7455
 1011TIP3    H2 3040   4.601   5.709   3.038 -0.5785  0.0111  0.8753
 1012TIP3   OH2 3041   1.591   1.594   2.776  0.5267  0.1027  0.2409
 1012TIP3    H1 3042   1.524   1.639   2.724  0.1576 -1.1765 -0.4520
 1012TIP3    H2 3043   1.569   1.501   2.767  1.3626 -0.2448  1.4636
 1013TIP3   OH2 3044   1.596   2.934   2.359 -0.3091  0.1688  0.3174
 1013TIP3    H1 3045   1.556   2.893   2.283  1.8509 -2.0061  0.2500
 1013TIP3    H2 3046   1.612   2.863   2.420 -1.2060  1.7366  2.5055
 1014TIP3   OH2 3047   3.563   3.852   0.839  0.1839  0.5766 -0.4039
 1014TIP3    H1 3048   3.504   3.831   0.766 -0.7934 -0.9423  0.7453
 1014TIP3    H2 3049   3.508   3.843   0.917  1.7884 -0.3333  0.6764
 1015TIP3   OH2 3050   5.971   0.775   3.905 -0.2832 -0.5650  0.5440
 1015TIP3    H1 3051   5.957   0.865   3.935 -1.8070 -0.8073  0.6163
 1015TIP3    H2 3052   5.983   0.783   3.811 -1.2578 -0.3441  0.4249
 1016TIP3   OH2 3053   4.021   5.899   0.572 -0.5692 -0.2387  0.0789
 1016TIP3    H1 3054   4.013   5.994   0.564 -0.0886  0.1374  2.9200
 1016TIP3    H2 3055   4.097   5.877   0.517 -0.4412  1.0626 -0.3036
 1017TIP3   OH2 3056   4.286   0.573   4.099  0.5901 -0.0422 -0.1769
 1017TIP3    H1 3057   4.201   0.584   4.142  0.2982  0.8201 -0.9483
 1017TIP3    H2 3058   4.327   0.659   4.105  0.6216  0.0477 -1.4501
 1018TIP3   OH2 3059   4.932   2.581   0.688  0.4905 -0.1374 -0.0496
 1018TIP3    H1 3060   5.022   2.610   0.669  1.0554 -0.3731  1.9718
 1018TIP3    H2 3061   4.943   2.494   0.725 -0.5851 -0.2108  0.1171
 1019TIP3   OH2 3062   0.217   1.323   3.375  0.3306  0.0958  0.2791
 1019TIP3    H1 3063   0.156   1.359   3.440  1.4209  1.7586  0.4469
 1019TIP3    H2 3064   0.220   1.390   3.306  0.9235 -0.6079 -0.3934
 1020TIP3   OH2 3065   5.724   3.809   0.850 -0.6118 -0.4442  0.1480
 1020TIP3    H1 3066   5.780   3.767   0.785 -0.4149 -1.2621  0.8241
 1020TIP3    H2 3067   5.784   3.858   0.906 -0.5427 -1.3691  0.9097
 1021TIP3   OH2 3068   4.034   3.928   2.134  0.0121  0.1309 -0.2218
 1021TIP3    H1 3069   3.996   3.872   2.202 -0.7370 -0.6570 -1.2469
 1021TIP3    H2 3070   3.980   4.007   2.135 -1.0592 -0.5581 -0.9768
 1022TIP3   OH2 3071   3.149   2.558   1.240 -0.2735  0.4419  0.1841
 1022TIP3    H1 3072   3.057   2.581   1.240 -0.1820  0.8540 -0.6353
 1022TIP3    H2 3073   3.193   2.634   1.200  0.5005  0.5424  1.1639
 1023TIP3   OH2 3074   0.535   3.825   1.713  0.0661 -0.1176  0.6600
 1023TIP3    H1 3075   0.562   3.854   1.626 -1.4098  0.0358  0.2336
 1023TIP3    H2 3076   0.586   3.881   1.773  3.4443 -2.2546  0.0573
 1024TIP3   OH2 3077   1.645   2.643   4.234  0.7451  0.2565 -0.0009
 1024TIP3    H1 3078   1.681   2.577   4.293  0.2476  0.3542  0.4269
 1024TIP3    H2 3079   1.638   2.722   4.288  0.4362  0.3916 -0.2343
 1025TIP3   OH2 3080   1.122   2.986   4.849  0.2866 -0.3922  0.1664
 1025TIP3    H1 3081   1.090   2.914   4.904  0.5725 -1.0455 -0.5136
 1025TIP3    H2 3082   1.215   2.969   4.839  0.3681  0.1086  0.0520
 1026TIP3   OH2 3083   2.174   5.800   5.036  0.1406 -0.2407  0.5071
 1026TIP3    H1 3084   2.111   5.752   5.089 -2.1506  1.0051 -0.9435
 1026TIP3    H2 3085   2.192   5.880   5.087 -0.0741 -0.2226  0.5540
 1027TIP3   OH2 3086   0.117   3.134   3.991  0.4884  0.0970 -0.0680
 1027TIP3    H1 3087   0.179   3.067   3.961  1.4553  1.1894 -0.6083
 1027TIP3    H2 3088   0.149   3.215   3.950  0.1749  1.1431  1.6675
 1028TIP3   OH2 3089   5.777   2.568   0.958  0.3333 -0.1348 -0.2538
 1028TIP3    H1 3090   5.850   2.526   0.911  0.6187  0.2661 -0.1760
 1028TIP3    H2 3091   5.811   2.654   0.982  0.2047 -0.3470  0.7144
 1029TIP3   OH2 3092   5.046   5.955   3.098  0.0773 -0.0541  0.1744
 1029TIP3    H1 3093   4.953   5.936   3.085  0.1928 -0.4085 -0.1440
 1029TIP3    H2 3094   5.088   5.927   3.017  0.5628 -0.5827  0.5987
 1030TIP3   OH2 3095   0.647   0.930   0.818  0.2436 -0.0437 -0.2110
 1030TIP3    H1 3096   0.667   0.885   0.900 -0.9627 -0.4769 -0.1365
 1030TIP3    H2 3097   0.722   0.987   0.803  0.1378  0.6502  1.6247
 1031TIP3   OH2 3098   4.084   1.599   0.709 -0.3469  0.3735 -0.5863
 1031TIP3    H1 3099   4.010   1.538   0.706  0.4072 -0.5551 -1.2412
 1031TIP3    H2 3100   4.116   1.594   0.799 -0.0832 -0.4979 -0.7159
 1032TIP3   OH2 3101   1.398   0.290   1.612  0.4235 -0.5375  0.4154
 1032TIP3    H1 3102   1.312   0.280   1.653 -0.0205  0.6569 -0.1689
 1032TIP3    H2 3103   1.455   0.320   1.683 -0.2960  1.3387  0.2695
 1033TIP3   OH2 3104   1.695   0.338   2.281 -0.0383  0.4799 -0.0506
 1033TIP3    H1 3105   1.730   0.415   2.324 -0.7030  1.0431 -0.4872
 1033TIP3    H2 3106   1.637   0.298   2.346  0.1038  0.4998  0.0869
 1034TIP3   OH2 3107   0.841   1.745   1.334 -0.2328 -0.1040 -0.1950
 1034TIP3    H1 3108   0.922   1.781   1.299  1.5579 -0.3199  3.2914
 1034TIP3    H2 3109   0.797   1.819   1.376 -0.4033 -0.4910  0.3250
 1035TIP3   OH2 3110   1.919   3.424   4.553  0.0120  0.1371  0.2290
 1035TIP3    H1 3111   1.982   3.417   4.625  0.7022  1.0093 -0.2666
 1035TIP3    H2 3112   1.939   3.508   4.512 -2.0552  0.8706  0.5993
 1036TIP3   OH2 3113   3.748   4.317   4.963 -0.1526 -0.2406 -0.0371
 1036TIP3    H1 3114   3.714   4.321   4.874 -0.0874  0.9953 -0.0209
 1036TIP3    H2 3115   3.760   4.223   4.980 -1.6016 -0.5820 -0.7624
 1037TIP3   OH2 3116   1.600   0.150   4.519  0.0267  0.1103 -0.3530
 1037TIP3    H1 3117   1.531   0.122   4.579  1.1938 -1.4336  0.3037
 1037TIP3    H2 3118   1.647   0.070   4.497  1.8709  1.1865 -0.4632
 1038TIP3   OH2 3119   0.041   2.943   2.128 -0.3489  0.2568 -0.2268
 1038TIP3    H1 3120   0.066   2.972   2.040 -1.7219 -0.6064 -0.9240
 1038TIP3    H2 3121   0.111   2.977   2.185  1.0242  0.1028 -1.7491
 1039TIP3   OH2 3122   4.943   1.582   0.095  0.1349 -1.0753  0.0086
 1039TIP3    H1 3123   5.019   1.618   0.141  0.3137 -0.8186 -0.4849
 1039TIP3    H2 3124   4.974   1.501   0.055 -0.0617 -1.3800  0.4610
 1040TIP3   OH2 3125   5.015   0.090   2.371 -0.5879 -0.0129 -0.4037
 1040TIP3    H1 3126   5.006   0.185   2.378 -2.2368 -0.1853  0.2755
 1040TIP3    H2 3127   5.105   0.072   2.398 -0.1575  1.3706 -0.8432
 1041TIP3   OH2 3128   5.329   2.635   5.041 -0.1105  0.0230  0.5069
 1041TIP3    H1 3129   5.308   2.699   4.974 -1.2402  1.7626  2.3973
 1041TIP3    H2 3130   5.411   2.666   5.079 -0.9659  0.7783  1.8312
 1042TIP3   OH2 3131   2.225   4.609   1.390  0.5576  0.0056  0.0542
 1042TIP3    H1 3132   2.198   4.662   1.465 -0.7198 -0.0020 -0.3778
 1042TIP3    H2 3133   2.274   4.537   1.429 -1.5955 -0.9997  1.1165
 1043TIP3   OH2 3134   0.133   1.359   3.635 -0.7559  0.1719  0.3527
 1043TIP3    H1 3135   0.222   1.370   3.669 -0.7194 -0.0931  0.3463
 1043TIP3    H2 3136   0.095   1.447   3.638 -0.3024  0.3894 -0.1760
 1044TIP3   OH2 3137   3.960   3.487   1.450  0.2362 -0.1564 -0.1549
 1044TIP3    H1 3138   3.963   3.527   1.537 -2.6704  0.5785 -0.2761
 1044TIP3    H2 3139   3.961   3.393   1.466 -1.0176 -0.0385  0.7810
 1045TIP3   OH2 3140   4.468   3.506   3.291  0.0327  0.2344  0.0269
 1045TIP3    H1 3141   4.379   3.542   3.291  0.3181  1.0808  1.9973
 1045TIP3    H2 3142   4.470   3.445   3.365  0.3201 -1.9937 -1.7189
 1046TIP3   OH2 3143   0.150   2.283   2.628 -0.2193  0.6798 -0.3908
 1046TIP3    H1 3144   0.079   2.310   2.569 -1.4462  0.8129  1.0680
 1046TIP3    H2 3145   0.122   2.197   2.660  2.2464 -1.1708 -2.7738
 1047TIP3   OH2 3146   3.392   5.825   0.240 -0.6229  0.0406 -0.4539
 1047TIP3    H1 3147   3.374   5.896   0.302  1.8714  0.6488 -0.3138
 1047TIP3    H2 3148   3.445   5.866   0.171  2.3317 -1.9289  0.4692
 1048TIP3   OH2 3149   2.726   3.731   4.882  0.2429 -0.5648 -0.2302
 1048TIP3    H1 3150   2.726   3.751   4.975  1.3428 -0.6678 -0.1961
 1048TIP3    H2 3151   2.816   3.704   4.863 -0.2409 -1.6478 -1.0836
 1049TIP3   OH2 3152   3.248   1.158   4.441 -0.3284 -0.2768 -0.3551
 1049TIP3    H1 3153   3.155   1.179   4.448  0.1363  2.1693 -0.2951
 1049TIP3    H2 3154   3.261   1.135   4.349 -0.6501  1.6536 -0.9282
 1050TIP3   OH2 3155   4.468   0.101   5.099 -0.3154  0.4356  0.3729
 1050TIP3    H1 3156   4.536   0.049   5.142 -0.7694 -0.5400 -0.0451
 1050TIP3    H2 3157   4.433   0.157   5.168 -1.5017 -1.5716  1.4753
 1051TIP3   OH2 3158   3.136   0.806   2.292 -0.0045 -0.3753 -0.8495
 1051TIP3    H1 3159   3.047   0.778   2.269  0.0335  0.2608 -1.8670
 1051TIP3    H2 3160   3.133   0.901   2.286  0.7083 -0.3453 -0.7688
 1052TIP3   OH2 3161   4.749   3.455   0.328  0.2582 -0.4007  0.0687
 1052TIP3    H1 3162   4.783   3.466   0.239  0.1104 -0.8805 -0.0520
 1052TIP3    H2 3163   4.660   3.422   0.315 -0.2449  0.7870  0.3854
 1053TIP3   OH2 3164   6.034   5.403   2.844 -0.3672  0.3038 -0.1470
 1053TIP3    H1 3165   6.023   5.496   2.826  0.5011  0.3886 -0.2834
 1053TIP3    H2 3166   6.016   5.360   2.760 -0.1638  0.3946 -0.2360
 1054TIP3   OH2 3167   3.115   4.825   3.565 -0.1291  0.1586 -0.9350
 1054TIP3    H1 3168   3.106   4.788   3.477 -0.0515 -2.8995  0.2462
 1054TIP3    H2 3169   3.026   4.828   3.600 -0.1577  1.3429 -1.0626
 1055TIP3   OH2 3170   6.018   3.562   2.972  0.1284 -0.0519  0.2249
 1055TIP3    H1 3171   6.093   3.619   2.991  1.0664 -1.2939  0.3744
 1055TIP3    H2 3172   5.942   3.619   2.983  0.6506  0.1378  5.1429
 1056TIP3   OH2 3173   4.637   5.440   1.871 -0.1500 -0.2284 -0.2809
 1056TIP3    H1 3174   4.553   5.395   1.872 -0.3840  0.1868 -0.8359
 1056TIP3    H2 3175   4.623   5.518   1.924 -0.1332 -0.1264 -0.4258
 1057TIP3   OH2 3176   4.301   2.921   1.379 -0.2477 -0.2137  0.5145
 1057TIP3    H1 3177   4.383   2.873   1.389 -0.2407 -0.5276 -0.8153
 1057TIP3    H2 3178   4.285   2.961   1.465  2.1490  1.2170  0.3875
 1058TIP3   OH2 3179   5.278   4.630   2.003  0.0548 -0.5561  0.0111
 1058TIP3    H1 3180   5.203   4.636   2.062  1.2482 -0.3776  1.5836
 1058TIP3    H2 3181   5.280   4.539   1.975 -0.6946 -0.5816  0.0262
 1059TIP3   OH2 3182   0.784   4.176   2.145  0.9367  0.7003  0.6396
 1059TIP3    H1 3183   0.866   4.224   2.158  0.4132  2.2538 -1.3311
 1059TIP3    H2 3184   0.772   4.174   2.050  0.2966 -2.3596  0.6773
 1060TIP3   OH2 3185   1.701   5.887   1.462 -0.1689 -0.1943  0.0601
 1060TIP3    H1 3186   1.723   5.973   1.427 -1.8632  0.6788  1.0466
 1060TIP3    H2 3187   1.629   5.856   1.406  0.7683 -1.2401 -0.6194
 1061TIP3   OH2 3188   5.713   2.197   0.053  0.2619  0.3607 -0.4976
 1061TIP3    H1 3189   5.721   2.282   0.011  1.4231  0.3337 -0.3531
 1061TIP3    H2 3190   5.792   2.188   0.106  0.3459 -0.9594 -0.7941
 1062TIP3   OH2 3191   5.015   0.732   3.546  0.4588 -0.4309  0.4523
 1062TIP3    H1 3192   5.065   0.717   3.626 -1.0406  2.4506  2.0992
 1062TIP3    H2 3193   5.053   0.812   3.508 -0.0443 -0.7208 -0.7190
 1063TIP3   OH2 3194   3.684   4.806   0.155  0.0547 -0.2481 -0.6543
 1063TIP3    H1 3195   3.641   4.754   0.224  1.2102  0.3191  0.5440
 1063TIP3    H2 3196   3.660   4.762   0.074 -0.0233 -1.9286  0.2185
 1064TIP3   OH2 3197   1.220   2.542   0.488  0.5349  0.0152 -0.0196
 1064TIP3    H1 3198   1.195   2.613   0.430 -1.6106 -0.7118 -0.0663
 1064TIP3    H2 3199   1.312   2.558   0.508  0.5531  1.8258 -1.3773
 1065TIP3   OH2 3200   3.645   5.243   5.186  0.0671  0.0393 -0.3164
 1065TIP3    H1 3201   3.651   5.254   5.091 -2.1420  0.0328 -0.5015
 1065TIP3    H2 3202   3.569   5.295   5.211 -1.0319 -2.0904  1.0507
 1066TIP3   OH2 3203   2.085   5.373   3.238  0.2520  0.1250 -0.4079
 1066TIP3    H1 3204   2.145   5.424   3.292 -0.1447 -0.5069  0.6459
 1066TIP3    H2 3205   2.019   5.436   3.209  0.5146  0.4832 -0.2329
 1067TIP3   OH2 3206   3.327   4.092   4.326 -0.4573 -0.3283  0.6394
 1067TIP3    H1 3207   3.311   4.121   4.236  1.2090  1.2528  0.8003
 1067TIP3    H2 3208   3.275   4.151   4.380  0.8664  0.6950  0.8343
 1068TIP3   OH2 3209   3.231   2.273   3.468  0.3905 -0.4248  0.2423
 1068TIP3    H1 3210   3.154   2.261   3.524  0.7583  1.4853  1.2321
 1068TIP3    H2 3211   3.199   2.323   3.394  0.5876  0.0305  0.4609
 1069TIP3   OH2 3212   3.015   1.077   2.576  0.6176  0.1051 -0.4505
 1069TIP3    H1 3213   2.959   1.132   2.630  1.9016  0.7876  0.2326
 1069TIP3    H2 3214   2.979   0.989   2.585 -0.0909  0.4619  0.2903
 1070TIP3   OH2 3215   0.348   1.094   5.034 -0.2365  0.2656  0.5847
 1070TIP3    H1 3216   0.363   1.127   5.122 -0.5194  0.2660  0.6324
 1070TIP3    H2 3217   0.412   1.023   5.025  1.8945  2.1813 -0.3053
 1071TIP3   OH2 3218   3.131   0.099   4.084  0.3439 -0.2878  0.0668
 1071TIP3    H1 3219   3.198   0.167   4.093  0.1796 -0.0708 -0.3248
 1071TIP3    H2 3220   3.064   0.123   4.148  0.7972 -0.7016  0.7100
 1072TIP3   OH2 3221   2.118   1.793   2.421  0.0908  0.5388  0.5166
 1072TIP3    H1 3222   2.025   1.779   2.406  0.3989  0.2897 -1.3868
 1072TIP3    H2 3223   2.131   1.887   2.408 -0.2084  0.9899  2.9505
 1073TIP3   OH2 3224   1.874   0.821   4.116  0.5815  0.1729 -0.0040
 1073TIP3    H1 3225   1.928   0.882   4.066 -1.8158  1.9085 -0.6287
 1073TIP3    H2 3226   1.900   0.836   4.207  2.3113 -0.3095 -0.3717
 1074TIP3   OH2 3227   1.063   1.846   2.617 -0.7303 -0.2516 -0.0067
 1074TIP3    H1 3228   1.030   1.783   2.681  0.3969 -0.3534  0.5027
 1074TIP3    H2 3229   1.013   1.925   2.633  0.4601  0.1547  1.9593
 1075TIP3   OH2 3230   1.244   2.211   3.562 -0.2203 -0.0966  0.2765
 1075TIP3    H1 3231   1.246   2.120   3.592  1.1456 -0.1870 -0.0186
 1075TIP3    H2 3232   1.226   2.262   3.641 -1.2767 -0.6157  0.3973
 1076TIP3   OH2 3233   1.892   1.423   1.505 -0.5737 -0.0279 -0.4533
 1076TIP3    H1 3234   1.872   1.451   1.595  2.4050  1.5976 -0.1591
 1076TIP3    H2 3235   1.930   1.335   1.516 -2.1716 -0.7513 -0.4252
 1077TIP3   OH2 3236   1.586   2.134   4.618 -0.3424  0.0250 -0.3490
 1077TIP3    H1 3237   1.544   2.215   4.648 -0.7630  0.0635 -1.0316
 1077TIP3    H2 3238   1.667   2.129   4.671 -0.9404  0.2065  0.6139
 1078TIP3   OH2 3239   0.340   2.616   4.777  0.1303 -0.4584 -0.2623
 1078TIP3    H1 3240   0.363   2.641   4.687 -0.3435 -2.1860 -0.9039
 1078TIP3    H2 3241   0.260   2.665   4.796  1.4582  1.6952  0.1184
 1079TIP3   OH2 3242   6.139   2.895   2.817  0.1141 -0.5029 -0.1643
 1079TIP3    H1 3243   6.127   2.982   2.779  0.9783 -0.9676 -1.5856
 1079TIP3    H2 3244   6.070   2.842   2.777 -0.3501 -0.5187  0.6253
 1080TIP3   OH2 3245   0.791   5.819   4.457 -0.2026 -0.2290 -0.2252
 1080TIP3    H1 3246   0.787   5.915   4.465 -1.0896 -0.1564 -1.3510
 1080TIP3    H2 3247   0.784   5.787   4.547 -1.4196  0.7220  0.0376
 1081TIP3   OH2 3248   2.740   3.474   0.278  0.6271 -0.0642  0.4124
 1081TIP3    H1 3249   2.777   3.561   0.269  0.5264 -0.1155 -0.6265
 1081TIP3    H2 3250   2.731   3.442   0.189 -0.1854 -0.7851  0.7321
 1082TIP3   OH2 3251   1.290   3.029   2.143  0.0923 -0.0411  0.4190
 1082TIP3    H1 3252   1.245   3.044   2.226 -0.4320  1.2190 -0.0607
 1082TIP3    H2 3253   1.321   2.939   2.148 -0.6151 -0.2394  1.6516
 1083TIP3   OH2 3254   0.322   4.076   3.281 -0.0859 -0.4520 -0.2355
 1083TIP3    H1 3255   0.354   4.138   3.346 -1.0932  0.9316 -1.0174
 1083TIP3    H2 3256   0.275   4.010   3.333  1.6653 -1.0521  0.6698
 1084TIP3   OH2 3257   4.209   0.543   1.679 -0.1045  0.3607 -0.3299
 1084TIP3    H1 3258   4.120   0.521   1.705  0.0526 -1.1515 -0.9695
 1084TIP3    H2 3259   4.198   0.609   1.611 -0.6948  0.8478  0.2315
 1085TIP3   OH2 3260   2.618   1.844   2.997  0.2701  0.9717 -0.0933
 1085TIP3    H1 3261   2.652   1.785   3.065  1.2335  1.8968  0.2489
 1085TIP3    H2 3262   2.528   1.813   2.981  0.6865 -0.4643  0.2037
 1086TIP3   OH2 3263   0.765   1.451   0.117 -0.1383  0.1238 -0.1247
 1086TIP3    H1 3264   0.723   1.534   0.136  0.9561  0.9957 -1.3040
 1086TIP3    H2 3265   0.855   1.461   0.150 -0.0647 -0.6837 -0.0510
 1087TIP3   OH2 3266   2.312   3.705   0.671 -0.2515 -0.6985  0.1955
 1087TIP3    H1 3267   2.347   3.771   0.612 -1.8189 -0.0081 -0.0146
 1087TIP3    H2 3268   2.299   3.628   0.616 -2.1490  0.0837 -0.5362
 1088TIP3   OH2 3269   2.302   0.992   3.642  0.3962  0.9642  0.2213
 1088TIP3    H1 3270   2.274   0.916   3.592  0.6577  0.1357  1.2818
 1088TIP3    H2 3271   2.388   1.014   3.607 -0.0239  1.2880 -0.6339
 1089TIP3   OH2 3272   4.162   5.462   4.848 -0.0292  0.1016 -0.3258
 1089TIP3    H1 3273   4.107   5.467   4.926 -1.6242 -2.7679 -1.1503
 1089TIP3    H2 3274   4.107   5.422   4.781  1.8905  0.6914 -2.3970
 1090TIP3   OH2 3275   3.603   2.275   2.814  0.0936 -0.2494  0.0028
 1090TIP3    H1 3276   3.542   2.349   2.810 -0.2910 -0.4631  1.3186
 1090TIP3    H2 3277   3.605   2.240   2.725 -1.9279 -0.3963 -0.0251
 1091TIP3   OH2 3278   4.194   3.665   0.868 -0.3439  0.4217  0.3104
 1091TIP3    H1 3279   4.180   3.742   0.924 -1.9605  0.3219  0.0865
 1091TIP3    H2 3280   4.124   3.604   0.893  0.7682 -0.8928  0.3060
 1092TIP3   OH2 3281   2.251   5.363   3.897 -0.1932 -0.7415 -0.3600
 1092TIP3    H1 3282   2.236   5.339   3.806  1.6208 -0.4575 -0.7635
 1092TIP3    H2 3283   2.196   5.441   3.910  1.5244  0.8743 -2.0591
 1093TIP3   OH2 3284   6.042   5.696   2.802  0.4293 -0.5931 -0.9737
 1093TIP3    H1 3285   6.084   5.754   2.865  0.5470 -1.1025 -0.5728
 1093TIP3    H2 3286   6.097   5.702   2.724  1.3633 -1.3839 -0.3942
 1094TIP3   OH2 3287   3.661   3.976   3.331  1.1787  0.8149  0.3047
 1094TIP3    H1 3288   3.647   3.894   3.379  0.4384 -1.0578 -2.8485
 1094TIP3    H2 3289   3.732   3.956   3.270 -0.4974  1.6716 -2.0919
 1095TIP3   OH2 3290   3.397   3.798   1.033  0.4198  0.0032 -1.0717
 1095TIP3    H1 3291   3.328   3.859   1.006  0.6977  1.6747  1.6575
 1095TIP3    H2 3292   3.352   3.733   1.087  0.6103 -0.4600 -1.4602
 1096TIP3   OH2 3293   4.154   4.715   3.589  0.2706  0.4215 -0.6829
 1096TIP3    H1 3294   4.074   4.731   3.539 -0.7672 -1.4590  0.2872
 1096TIP3    H2 3295   4.158   4.620   3.599  0.3284  0.6857  2.9004
 1097TIP3   OH2 3296   2.588   1.732   3.572  0.7627 -0.2670  0.2335
 1097TIP3    H1 3297   2.585   1.769   3.484 -1.1269 -0.5194  0.1619
 1097TIP3    H2 3298   2.531   1.789   3.624  1.1912 -0.6194  1.1118
 1098TIP3   OH2 3299   5.586   5.212   4.871  0.4546  0.3688  0.3522
 1098TIP3    H1 3300   5.497   5.244   4.889  0.4245  0.6434 -0.2450
 1098TIP3    H2 3301   5.639   5.292   4.867  0.2659  0.4377 -1.8121
 1099TIP3   OH2 3302   1.805   1.598   1.106  0.1023  0.8606 -0.1074
 1099TIP3    H1 3303   1.749   1.520   1.109  1.2472  0.0301  0.9612
 1099TIP3    H2 3304   1.745   1.672   1.109 -0.9320  0.0046  0.9066
 1100TIP3   OH2 3305   4.220   4.735   0.071  0.0234 -0.2395 -0.1053
 1100TIP3    H1 3306   4.235   4.745  -0.023  0.4972  2.5235  0.1730
 1100TIP3    H2 3307   4.251   4.817   0.109 -1.4630 -0.6904  2.3106
 1101TIP3   OH2 3308   2.386   0.684   2.106  0.1943  0.3181 -0.0078
 1101TIP3    H1 3309   2.362   0.680   2.198  2.3158  0.2520  0.5966
 1101TIP3    H2 3310   2.396   0.777   2.088  0.1934  0.3095 -0.0520
 1102TIP3   OH2 3311   5.154   0.349   2.678  0.0876 -0.1376  0.0752
 1102TIP3    H1 3312   5.172   0.352   2.584  0.3444  0.2406  0.1368
 1102TIP3    H2 3313   5.091   0.277   2.688  2.3038 -2.1841  0.0042
 1103TIP3   OH2 3314   0.637   3.712   4.479  0.0964 -0.4260  0.0432
 1103TIP3    H1 3315   0.668   3.697   4.569 -0.3030 -2.4644 -0.1203
 1103TIP3    H2 3316   0.605   3.627   4.450  0.2668  0.1825 -2.0789
 1104TIP3   OH2 3317   5.824   0.521   1.530 -0.2615  0.8304 -0.4012
 1104TIP3    H1 3318   5.780   0.543   1.612 -0.2981  1.7076 -0.6441
 1104TIP3    H2 3319   5.870   0.601   1.505 -0.8777  0.8355 -1.6305
 1105TIP3   OH2 3320   0.196   1.684   1.986 -0.0296 -0.5931 -0.4988
 1105TIP3    H1 3321   0.117   1.713   2.032 -0.0615 -0.4430 -0.6495
 1105TIP3    H2 3322   0.168   1.608   1.935  0.2159 -1.3547  0.4666
 1106TIP3   OH2 3323   2.950   3.003   2.841  0.1252  0.0370  0.0454
 1106TIP3    H1 3324   2.981   2.913   2.840 -0.2861 -0.1050 -0.1220
 1106TIP3    H2 3325   2.950   3.029   2.749 -1.5101 -0.4102 -0.1144
 1107TIP3   OH2 3326   3.178   1.983   3.350  0.0212  0.4385 -0.4391
 1107TIP3    H1 3327   3.147   2.006   3.438  0.3619 -2.3159  0.5125
 1107TIP3    H2 3328   3.178   2.066   3.302 -1.3994  1.8292  1.7652
 1108TIP3   OH2 3329   3.741   3.806   4.175  0.2398  0.1842  0.1339
 1108TIP3    H1 3330   3.819   3.831   4.225  0.0042  2.0139 -0.3329
 1108TIP3    H2 3331   3.672   3.864   4.207 -0.3245  0.2307 -1.1198
 1109TIP3   OH2 3332   2.249   0.866   2.955  0.2184  0.2792  0.3148
 1109TIP3    H1 3333   2.321   0.902   3.008  0.5229  0.2123 -0.0507
 1109TIP3    H2 3334   2.289   0.848   2.870 -0.3670  0.7973 -0.0790
 1110TIP3   OH2 3335   1.568   3.465   3.958  0.2502  0.2250 -0.6435
 1110TIP3    H1 3336   1.511   3.406   4.007  1.4826  1.0888  2.0183
 1110TIP3    H2 3337   1.631   3.408   3.915 -0.8798 -0.5609 -1.3216
 1111TIP3   OH2 3338   6.060   1.447   5.028 -0.6323  0.3878 -0.4580
 1111TIP3    H1 3339   6.016   1.491   5.101 -0.9155  0.3383 -0.5967
 1111TIP3    H2 3340   6.062   1.513   4.959  1.2914  1.0761  0.1858
 1112TIP3   OH2 3341   1.220   1.484   4.397 -0.0224  1.3455 -0.3612
 1112TIP3    H1 3342   1.170   1.533   4.462  1.4316  0.6451  1.3582
 1112TIP3    H2 3343   1.304   1.467   4.439  0.3752 -0.5464 -1.7946
 1113TIP3   OH2 3344   4.175   2.548   2.327  0.5752 -0.6863 -0.0318
 1113TIP3    H1 3345   4.226   2.474   2.361  0.1796 -0.7026  0.5442
 1113TIP3    H2 3346   4.104   2.558   2.390  2.6297  2.5695  2.0482
 1114TIP3   OH2 3347   2.721   3.003   2.331 -0.5324  0.6298 -0.3393
 1114TIP3    H1 3348   2.745   2.924   2.282  0.2322  0.2128  0.6823
 1114TIP3    H2 3349   2.631   2.987   2.359 -0.5885  0.3850 -0.6560
 1115TIP3   OH2 3350   4.392   4.546   2.090  0.2526  0.2577 -0.0696
 1115TIP3    H1 3351   4.460   4.500   2.040 -0.5669 -2.1860  0.8805
 1115TIP3    H2 3352   4.372   4.624   2.038  2.4017  0.0428 -1.3306
 1116TIP3   OH2 3353   1.677   0.567   3.554 -0.7058 -0.0978 -0.0817
 1116TIP3    H1 3354   1.652   0.552   3.645 -0.3853  0.1835  0.0602
 1116TIP3    H2 3355   1.750   0.506   3.539 -1.4754 -0.9257 -0.4964
 1117TIP3   OH2 3356   3.986   0.228   1.614 -0.6062 -0.2862  0.0434
 1117TIP3    H1 3357   3.896   0.260   1.607 -0.5350  0.5698  2.2027
 1117TIP3    H2 3358   4.034   0.300   1.657  0.6346 -1.5046  0.8040
 1118TIP3   OH2 3359   5.638   0.189   3.983  0.0854  0.0707  0.0741
 1118TIP3    H1 3360   5.618   0.210   3.892  0.0616 -0.4087 -0.0380
 1118TIP3    H2 3361   5.636   0.273   4.029  1.9584  0.5970 -0.7023
 1119TIP3   OH2 3362   5.232   4.748   3.886  0.0700  0.1972 -0.3609
 1119TIP3    H1 3363   5.240   4.820   3.823 -1.3415 -0.5879 -1.5014
 1119TIP3    H2 3364   5.163   4.776   3.946 -1.2276 -0.5866 -1.4296
 1120TIP3   OH2 3365   0.871   3.832   0.193 -0.1107  0.1383 -0.2226
 1120TIP3    H1 3366   0.872   3.903   0.258  0.8948 -0.5880  0.5887
 1120TIP3    H2 3367   0.788   3.844   0.146 -2.1437 -0.7160  2.8274
 1121TIP3   OH2 3368   2.076   0.092   1.255  0.6090 -0.3892  0.3034
 1121TIP3    H1 3369   2.014   0.022   1.233 -1.5447  1.7743 -0.9626
 1121TIP3    H2 3370   2.139   0.092   1.183 -2.0223  1.7583 -2.2125
 1122TIP3   OH2 3371   1.533   3.018   0.669  0.1452  0.2520 -0.2471
 1122TIP3    H1 3372   1.625   3.021   0.696 -0.0904 -0.8441  0.7733
 1122TIP3    H2 3373   1.516   2.925   0.654 -0.0281  0.6840 -3.2933
 1123TIP3   OH2 3374   6.005   0.338   0.249 -0.5791 -0.3038 -0.3529
 1123TIP3    H1 3375   6.064   0.398   0.204 -0.1153  0.1735  0.8628
 1123TIP3    H2 3376   5.965   0.391   0.318 -0.2336 -1.3581  0.6836
 1124TIP3   OH2 3377   0.596   0.222   1.081 -0.8292  0.5466 -0.3577
 1124TIP3    H1 3378   0.561   0.134   1.091  0.2806  0.2868  2.2001
 1124TIP3    H2 3379   0.677   0.221   1.133  0.5706  2.3702 -2.3284
 1125TIP3   OH2 3380   1.310   5.767   4.088 -0.8385 -0.3192 -0.4389
 1125TIP3    H1 3381   1.387   5.823   4.093  0.0988 -1.4036 -1.9053
 1125TIP3    H2 3382   1.257   5.803   4.017 -0.1606 -1.3164 -1.4872
 1126TIP3   OH2 3383   2.664   1.569   0.669 -0.8847  0.0016  1.0476
 1126TIP3    H1 3384   2.650   1.657   0.705  0.8700  0.3220  1.0331
 1126TIP3    H2 3385   2.619   1.569   0.585  0.8987  1.6877 -0.0005
 1127TIP3   OH2 3386   3.415   5.016   3.061 -0.9241 -0.0617 -0.2032
 1127TIP3    H1 3387   3.339   5.067   3.089  0.0265  0.7942  0.9321
 1127TIP3    H2 3388   3.476   5.082   3.027 -0.3508 -0.6505 -0.3150
 1128TIP3   OH2 3389   0.281   3.770   4.248  0.0298 -0.0592  0.4368
 1128TIP3    H1 3390   0.359   3.825   4.259  1.2165 -1.8015  1.1244
 1128TIP3    H2 3391   0.229   3.787   4.327  1.0306 -0.8643  1.3041
 1129TIP3   OH2 3392   6.044   3.997   4.555 -0.2154 -0.5517 -0.0353
 1129TIP3    H1 3393   5.989   3.971   4.481 -2.9041 -0.3681  1.7438
 1129TIP3    H2 3394   5.983   4.005   4.628  1.8634  2.0038  1.5939
 1130TIP3   OH2 3395   2.365   2.559   1.549 -0.4989 -0.2897  0.0211
 1130TIP3    H1 3396   2.384   2.500   1.477  2.6835  0.2357  0.2518
 1130TIP3    H2 3397   2.378   2.647   1.512  0.8912 -0.0081  1.0952
 1131TIP3   OH2 3398   4.678   2.040   1.462  0.8720  0.5597  0.1695
 1131TIP3    H1 3399   4.761   2.080   1.433  0.6010  1.7146  0.9344
 1131TIP3    H2 3400   4.705   1.959   1.506  1.4678  0.1003 -0.9830
 1132TIP3   OH2 3401   6.297   3.092   5.134 -0.0768 -0.1371  0.4275
 1132TIP3    H1 3402   6.292   3.028   5.063  0.9684 -0.0278  0.2481
 1132TIP3    H2 3403   6.382   3.134   5.123 -1.2350  2.2076 -0.2612
 1133TIP3   OH2 3404   6.064   2.669   2.014 -0.2413 -0.2387 -0.3736
 1133TIP3    H1 3405   6.099   2.649   1.927  0.5953  0.0998 -0.1273
 1133TIP3    H2 3406   6.128   2.730   2.052 -0.4780 -0.5528  0.5611
 1134TIP3   OH2 3407   3.395   1.020   2.405 -0.0234 -0.7382 -0.2095
 1134TIP3    H1 3408   3.413   0.933   2.442 -0.4319 -0.6806  0.1271
 1134TIP3    H2 3409   3.467   1.075   2.435 -1.4325 -0.1543  2.3186
 1135TIP3   OH2 3410   0.726   3.575   2.167 -0.4149  0.1989 -0.2382
 1135TIP3    H1 3411   0.688   3.657   2.134  1.0329  0.7773 -0.5484
 1135TIP3    H2 3412   0.680   3.506   2.120 -0.5703  0.9030 -1.1477
 1136TIP3   OH2 3413   0.562   0.078   1.351 -0.0619 -0.2769 -0.3314
 1136TIP3    H1 3414   0.475   0.114   1.367 -0.4274 -1.4478  0.5060
 1136TIP3    H2 3415   0.547   0.007   1.289  0.1935 -0.8506  0.2494
 1137TIP3   OH2 3416   2.654   3.304   3.128  0.2614  0.7277 -0.3579
 1137TIP3    H1 3417   2.704   3.223   3.136  0.9445  0.8986 -2.3077
 1137TIP3    H2 3418   2.679   3.355   3.205 -0.7030 -1.1202  1.2913
 1138TIP3   OH2 3419   5.824   2.438   1.991  0.0554 -0.2680  0.2899
 1138TIP3    H1 3420   5.850   2.375   2.057  0.3431  0.3639  0.7890
 1138TIP3    H2 3421   5.873   2.413   1.913  1.6737  0.4802  1.0190
 1139TIP3   OH2 3422   5.377   1.044   1.249  0.2701 -0.1145 -0.0539
 1139TIP3    H1 3423   5.448   1.056   1.186  1.5375  0.8839  1.4884
 1139TIP3    H2 3424   5.379   0.950   1.270  1.2940 -0.0715  0.1061
 1140TIP3   OH2 3425   4.681   3.309   4.542  0.1777 -0.2614  0.2643
 1140TIP3    H1 3426   4.586   3.311   4.551  0.3344 -0.7336  2.5639
 1140TIP3    H2 3427   4.705   3.397   4.512 -0.9915 -0.2890 -0.8216
 1141TIP3   OH2 3428   1.401   1.070   3.759 -0.0672 -0.2471 -0.5530
 1141TIP3    H1 3429   1.432   1.145   3.709 -1.1250  0.3348 -0.3536
 1141TIP3    H2 3430   1.467   1.002   3.743  1.5380  1.0593  0.1957
 1142TIP3   OH2 3431   0.618   5.950   1.020  0.2674 -0.2580  0.1999
 1142TIP3    H1 3432   0.659   5.864   1.022  1.5615  0.3502  0.8029
 1142TIP3    H2 3433   0.673   6.002   0.961  0.1723  0.4803  0.7494
 1143TIP3   OH2 3434   5.114   0.200   4.173  0.4195 -0.0646 -0.2125
 1143TIP3    H1 3435   5.078   0.220   4.087 -0.4638 -0.1895  0.1144
 1143TIP3    H2 3436   5.158   0.281   4.201  0.2335  0.1533 -0.5492
 1144TIP3   OH2 3437   4.117   3.813   3.741  0.0233 -0.4825  0.1952
 1144TIP3    H1 3438   4.092   3.822   3.649  1.9479 -0.0665 -0.3226
 1144TIP3    H2 3439   4.182   3.743   3.742  0.0350 -0.4806  1.2446
 1145TIP3   OH2 3440   3.350   4.634   4.561  0.0694 -0.2453 -0.6351
 1145TIP3    H1 3441   3.289   4.676   4.622 -0.9821 -0.8305 -1.2535
 1145TIP3    H2 3442   3.430   4.686   4.568 -0.7251  0.9915 -0.3294
 1146TIP3   OH2 3443   5.797   3.925   0.251 -0.0250  0.1584 -0.1340
 1146TIP3    H1 3444   5.813   3.916   0.344  0.4940  2.3909  0.0395
 1146TIP3    H2 3445   5.881   3.905   0.209 -0.2294 -0.7327 -0.1356
 1147TIP3   OH2 3446   5.447   2.862   1.536 -0.2633 -0.6409  0.0915
 1147TIP3    H1 3447   5.427   2.792   1.598 -0.0249 -0.5711  0.2484
 1147TIP3    H2 3448   5.527   2.834   1.492 -0.4455 -0.7026 -0.2068
 1148TIP3   OH2 3449   5.655   2.582   3.687 -0.4104  0.1886  0.5360
 1148TIP3    H1 3450   5.724   2.527   3.723  0.7356  0.6487 -0.8467
 1148TIP3    H2 3451   5.584   2.521   3.666  0.6704 -0.7523 -0.5939
 1149TIP3   OH2 3452   0.292   1.242   0.308 -0.1408 -0.2000  0.3849
 1149TIP3    H1 3453   0.354   1.270   0.241 -2.5915  2.0631 -1.1425
 1149TIP3    H2 3454   0.335   1.265   0.391  0.2692  3.4408 -0.6648
 1150TIP3   OH2 3455   1.672   3.005   4.295  0.4186  0.0120 -0.3572
 1150TIP3    H1 3456   1.753   3.013   4.345 -0.7768 -0.2743  1.7636
 1150TIP3    H2 3457   1.640   3.094   4.287  0.4912  0.0352 -0.3911
 1151TIP3   OH2 3458   4.263   4.705   2.902  0.3378  0.2612 -0.2515
 1151TIP3    H1 3459   4.343   4.718   2.952 -0.7919  1.3354  1.3989
 1151TIP3    H2 3460   4.201   4.669   2.966 -0.9825  1.0724 -1.0374
 1152TIP3   OH2 3461   6.123   2.567   3.761  0.1507 -0.1868 -0.1260
 1152TIP3    H1 3462   6.032   2.542   3.747  0.0186  0.6338 -0.7820
 1152TIP3    H2 3463   6.120   2.660   3.781  0.9456  0.1438 -1.4325
 1153TIP3   OH2 3464   2.968   4.871   3.076 -0.2330  0.7114 -0.3394
 1153TIP3    H1 3465   2.951   4.960   3.046  0.8743  1.3153  0.7189
 1153TIP3    H2 3466   3.059   4.855   3.051 -0.1768  0.1894  0.1896
 1154TIP3   OH2 3467   2.045   4.118   2.435  0.1264  0.0994  0.0738
 1154TIP3    H1 3468   2.089   4.036   2.458  0.2085 -0.6341 -2.3555
 1154TIP3    H2 3469   2.115   4.183   2.433  0.1697  0.1094  1.3858
 1155TIP3   OH2 3470   0.593   3.027   4.568  0.2104  0.4857  0.4851
 1155TIP3    H1 3471   0.560   3.116   4.581  0.5082  0.7943 -0.6662
 1155TIP3    H2 3472   0.635   3.030   4.482  2.9026  0.0208  1.6798
 1156TIP3   OH2 3473   2.755   1.423   4.953 -0.2829 -0.0788  0.2920
 1156TIP3    H1 3474   2.720   1.463   4.874  2.4496 -0.2269 -1.1219
 1156TIP3    H2 3475   2.679   1.389   5.000 -1.9862 -0.0728 -2.3226
 1157TIP3   OH2 3476   0.916   0.183   2.708 -0.1889  0.2979  0.7411
 1157TIP3    H1 3477   0.888   0.255   2.765 -3.4337 -0.2028  0.0130
 1157TIP3    H2 3478   0.866   0.197   2.627 -0.1281 -2.2026  0.2039
 1158TIP3   OH2 3479   5.626   0.591   4.784  0.0682  0.0757  0.4238
 1158TIP3    H1 3480   5.552   0.636   4.824 -0.1438 -0.1948  0.3379
 1158TIP3    H2 3481   5.587   0.540   4.713  0.3323 -0.0974  0.4028
 1159TIP3   OH2 3482   3.226   2.135   2.792  0.1769 -0.2063 -0.0356
 1159TIP3    H1 3483   3.274   2.121   2.710  0.3484  1.1827 -0.1913
 1159TIP3    H2 3484   3.252   2.222   2.821 -1.1856  0.0175  0.6123
 1160TIP3   OH2 3485   1.547   1.747   1.211  0.3664 -0.1879 -0.4689
 1160TIP3    H1 3486   1.562   1.671   1.268  0.5155 -0.8543 -1.3738
 1160TIP3    H2 3487   1.467   1.725   1.164  0.5531  0.1055 -0.9245
 1161TIP3   OH2 3488   0.112   3.003   0.247 -0.1708 -0.1017  0.4512
 1161TIP3    H1 3489   0.156   3.022   0.330  0.1328  2.5502 -0.2138
 1161TIP3    H2 3490   0.121   3.084   0.197 -0.9736 -1.3860 -1.9049
 1162TIP3   OH2 3491   1.379   4.110   0.130 -0.7017 -0.0070 -0.3437
 1162TIP3    H1 3492   1.349   4.052   0.060  1.3662 -1.2948 -0.2317
 1162TIP3    H2 3493   1.460   4.070   0.162  1.3539  3.3808 -0.8463
 1163TIP3   OH2 3494   1.745   5.588   0.971  0.1945  0.2091 -0.4540
 1163TIP3    H1 3495   1.772   5.529   0.901 -3.2840 -1.1780 -0.8311
 1163TIP3    H2 3496   1.717   5.529   1.042  0.5228  1.5228  0.8045
 1164TIP3   OH2 3497   3.955   1.988   3.250  0.4255  0.4255  0.0318
 1164TIP3    H1 3498   3.864   2.007   3.228  0.3996  1.1871  0.7654
 1164TIP3    H2 3499   3.955   1.974   3.345  1.0562  0.3357  0.0252
 1165TIP3   OH2 3500   4.428   5.084   4.541  0.7819  0.4691 -0.1428
 1165TIP3    H1 3501   4.477   5.161   4.511  0.6151  0.1993 -1.1600
 1165TIP3    H2 3502   4.371   5.062   4.467 -1.5410  1.3030  1.2999
 1166TIP3   OH2 3503   5.472   0.081   3.116  0.2840  0.5933 -0.2188
 1166TIP3    H1 3504   5.426   0.157   3.150  0.2602  0.4301  0.1147
 1166TIP3    H2 3505   5.561   0.112   3.099  0.1281  0.8353 -0.5989
 1167TIP3   OH2 3506   2.929   3.215   1.421  0.0256  0.1272  0.2030
 1167TIP3    H1 3507   3.009   3.226   1.370 -0.4854  0.4867 -0.5332
 1167TIP3    H2 3508   2.861   3.259   1.370 -1.0973 -2.0889 -0.3054
 1168TIP3   OH2 3509   4.730   2.094   0.483 -0.0645 -0.5280 -0.1795
 1168TIP3    H1 3510   4.779   2.160   0.434 -0.5757 -0.2888 -0.3827
 1168TIP3    H2 3511   4.691   2.039   0.415 -1.2963  0.1782 -0.0895
 1169TIP3   OH2 3512   0.100   1.016   2.721  0.1414  0.3393  0.5853
 1169TIP3    H1 3513   0.032   0.985   2.662 -1.1980  1.4598  1.4735
 1169TIP3    H2 3514   0.080   0.975   2.805  0.7226  0.4815  0.7977
 1170TIP3   OH2 3515   3.328   2.494   5.165  0.4376  0.0710 -0.1837
 1170TIP3    H1 3516   3.399   2.430   5.160  1.0107  0.7376 -0.8185
 1170TIP3    H2 3517   3.372   2.578   5.179 -0.2782  0.3993  0.1889
 1171TIP3   OH2 3518   2.003   1.465   4.797 -0.8245 -0.8680 -0.1098
 1171TIP3    H1 3519   1.963   1.452   4.883 -1.5446  2.3706  0.1675
 1171TIP3    H2 3520   2.090   1.501   4.816 -1.3683  0.8274 -0.6838
 1172TIP3   OH2 3521   6.035   3.826   0.134  0.4581 -0.2746 -0.2512
 1172TIP3    H1 3522   6.070   3.756   0.188  0.9763 -0.3944 -0.7307
 1172TIP3    H2 3523   6.086   3.821   0.053 -0.5095 -0.3095 -0.8794
 1173TIP3   OH2 3524   2.084   4.534   4.820  0.2482  0.0269  0.0576
 1173TIP3    H1 3525   2.135   4.507   4.897 -1.3276 -0.0358  1.1388
 1173TIP3    H2 3526   2.021   4.463   4.808  0.8187 -0.2258 -1.6796
 1174TIP3   OH2 3527   0.504   3.344   0.487  0.3505 -0.3635  0.5899
 1174TIP3    H1 3528   0.582   3.395   0.468  0.5066 -1.8067 -3.8229
 1174TIP3    H2 3529   0.536   3.269   0.538  1.4396  0.0970  0.6070
 1175TIP3   OH2 3530   2.340   2.914   3.042  0.1063  0.1642 -0.1235
 1175TIP3    H1 3531   2.266   2.971   3.064  0.4159  0.8208 -0.7389
 1175TIP3    H2 3532   2.386   2.961   2.972  0.0439 -1.0994 -1.0507
 1176TIP3   OH2 3533   0.417   4.484   3.172 -0.0421 -0.3552  0.1365
 1176TIP3    H1 3534   0.451   4.395   3.169  0.5114 -0.2011  1.4863
 1176TIP3    H2 3535   0.374   4.496   3.087  0.3055 -1.7278 -0.2492
 1177TIP3   OH2 3536   2.609   4.690   2.210  0.4334 -0.1407 -0.2792
 1177TIP3    H1 3537   2.679   4.674   2.147  1.2481  0.1770  0.5376
 1177TIP3    H2 3538   2.653   4.714   2.291 -0.5772 -1.0742  0.5936
 1178TIP3   OH2 3539   1.169   5.216   1.414  0.2439  0.5886  0.4620
 1178TIP3    H1 3540   1.206   5.130   1.396  0.6082  0.2729  2.5435
 1178TIP3    H2 3541   1.083   5.214   1.372 -0.1674 -1.1826  1.3055
 1179TIP3   OH2 3542   3.194   0.733   1.316  0.0547 -0.0337  0.1395
 1179TIP3    H1 3543   3.104   0.701   1.316  0.3698 -1.0252  1.5390
 1179TIP3    H2 3544   3.206   0.772   1.403  0.6067  1.2420 -0.4817
 1180TIP3   OH2 3545   1.986   3.161   4.198 -0.4368 -0.3867 -0.6369
 1180TIP3    H1 3546   2.062   3.128   4.246 -0.3042  0.1064 -0.5083
 1180TIP3    H2 3547   1.967   3.092   4.135 -1.6102 -1.8236  1.1602
 1181TIP3   OH2 3548   5.830   5.547   0.608 -0.2275  0.0694 -0.9294
 1181TIP3    H1 3549   5.860   5.630   0.570  2.4704  0.8436  2.4286
 1181TIP3    H2 3550   5.762   5.572   0.670 -0.1198 -0.3662 -0.6326
 1182TIP3   OH2 3551   4.202   1.163   2.945 -0.4200  0.0189 -0.2609
 1182TIP3    H1 3552   4.243   1.245   2.916 -1.4817  0.4283 -0.6301
 1182TIP3    H2 3553   4.110   1.185   2.955 -0.4725 -0.7447  1.1428
 1183TIP3   OH2 3554   5.527   5.311   1.230  0.2467 -0.0442 -0.2385
 1183TIP3    H1 3555   5.502   5.238   1.174  0.1286 -0.6845  0.6190
 1183TIP3    H2 3556   5.450   5.325   1.285 -0.4171  1.9146 -1.5691
 1184TIP3   OH2 3557   2.193   3.371   0.861 -0.1001  0.2969  0.4482
 1184TIP3    H1 3558   2.187   3.360   0.955  0.3171  0.8904  0.5549
 1184TIP3    H2 3559   2.111   3.413   0.836 -0.1558  0.2602  0.5712
 1185TIP3   OH2 3560   1.832   4.483   3.705  0.1659 -0.2300  0.0043
 1185TIP3    H1 3561   1.923   4.467   3.729  0.3176  2.2079  1.3662
 1185TIP3    H2 3562   1.782   4.423   3.762  0.8581 -0.6065  0.2336
 1186TIP3   OH2 3563   3.256   2.514   1.492 -0.1448  0.1097  0.4076
 1186TIP3    H1 3564   3.184   2.496   1.552 -1.1564  1.0638 -0.4842
 1186TIP3    H2 3565   3.214   2.532   1.408  1.1205  0.8897 -0.0891
 1187TIP3   OH2 3566   1.906   4.701   4.599  0.2713  0.3285  0.1493
 1187TIP3    H1 3567   1.836   4.658   4.550  0.1411  0.1702  0.4667
 1187TIP3    H2 3568   1.932   4.775   4.544  1.7484 -1.1583 -1.2655
 1188TIP3   OH2 3569  -0.006   4.874   4.529  0.5993  0.6145 -0.3237
 1188TIP3    H1 3570   0.033   4.874   4.441  0.6245  1.2203 -0.3165
 1188TIP3    H2 3571  -0.007   4.966   4.555 -1.5638  0.7482 -0.6463
 1189TIP3   OH2 3572   3.391   0.745   4.817  0.7903  0.1989  0.1299
 1189TIP3    H1 3573   3.311   0.718   4.863  0.4171  1.1946  0.1129
 1189TIP3    H2 3574   3.369   0.737   4.724  0.4433  1.1344  0.1153
 1190TIP3   OH2 3575   3.593   2.154   0.791  0.6297 -0.0683  0.2117
 1190TIP3    H1 3576   3.646   2.092   0.842 -1.0902 -1.5050  0.3849
 1190TIP3    H2 3577   3.622   2.142   0.701  0.7318 -0.7025  0.3243
 1191TIP3   OH2 3578   3.515   0.379   2.891  0.2901  0.8763 -0.3090
 1191TIP3    H1 3579   3.430   0.344   2.865  0.7912 -0.1212 -0.6473
 1191TIP3    H2 3580   3.512   0.380   2.987  0.7318 -1.3520 -0.2401
 1192TIP3   OH2 3581   1.739   5.240   0.856  0.4379 -0.7433  0.4768
 1192TIP3    H1 3582   1.686   5.189   0.795  1.2160  0.5815 -1.3953
 1192TIP3    H2 3583   1.823   5.194   0.859  0.3808 -0.8403  0.6064
 1193TIP3   OH2 3584   4.443   0.770   4.835 -0.4489  0.2850  0.0978
 1193TIP3    H1 3585   4.388   0.756   4.758 -0.9316 -0.7107  0.6077
 1193TIP3    H2 3586   4.426   0.862   4.859  1.6589  1.4582 -2.4445
 1194TIP3   OH2 3587   5.614   5.418   2.464  0.5286 -0.2997  0.6242
 1194TIP3    H1 3588   5.704   5.452   2.473  0.3350  0.1841  0.7554
 1194TIP3    H2 3589   5.602   5.360   2.538  0.9361 -0.8212  0.2883
 1195TIP3   OH2 3590   2.813   4.020   0.293 -0.0808 -0.0988  0.3414
 1195TIP3    H1 3591   2.839   4.110   0.274  0.4950 -0.2231  0.5176
 1195TIP3    H2 3592   2.720   4.017   0.272 -0.5592  1.0354  2.0462
 1196TIP3   OH2 3593   0.894   2.178   0.677 -0.6487 -0.0276  0.1974
 1196TIP3    H1 3594   0.912   2.223   0.760 -2.2276 -0.7348  0.9669
 1196TIP3    H2 3595   0.949   2.223   0.613  0.7019  0.4689  1.6313
 1197TIP3   OH2 3596   0.685   4.014   3.234  0.0785 -0.0993 -0.0266
 1197TIP3    H1 3597   0.697   3.945   3.298 -0.3790  0.0802  0.2606
 1197TIP3    H2 3598   0.772   4.030   3.199  0.0474 -1.4997 -0.8193
 1198TIP3   OH2 3599   1.495   0.394   4.622 -0.0249  0.3696 -0.0114
 1198TIP3    H1 3600   1.472   0.467   4.564 -0.5496  0.2245  0.0109
 1198TIP3    H2 3601   1.504   0.319   4.563 -4.2964 -0.6923  0.3642
 1199TIP3   OH2 3602   5.777   5.804   5.011  0.3828  0.1408  0.2510
 1199TIP3    H1 3603   5.762   5.739   4.943  1.4374  1.6258 -1.5224
 1199TIP3    H2 3604   5.872   5.802   5.025  0.5910  1.9043 -0.5849
 1200TIP3   OH2 3605   4.086   5.613   2.208  0.0614 -0.4830  0.0060
 1200TIP3    H1 3606   4.155   5.598   2.143  0.8697 -1.5344  1.0719
 1200TIP3    H2 3607   4.127   5.668   2.275  0.0729 -1.6093  0.9471
 1201TIP3   OH2 3608   3.617   2.914   2.002 -0.2139 -0.1982  0.4918
 1201TIP3    H1 3609   3.636   2.821   1.984  1.6815  0.1552  0.4943
 1201TIP3    H2 3610   3.698   2.948   2.040 -0.9083  1.4622  0.5542
 1202TIP3   OH2 3611   3.956   1.682   1.930 -0.6381 -0.4084 -0.0926
 1202TIP3    H1 3612   3.873   1.728   1.913 -0.9099 -1.2786 -1.2520
 1202TIP3    H2 3613   3.956   1.668   2.025 -2.0253 -0.7379 -0.1159
 1203TIP3   OH2 3614   2.141   4.103   4.878  0.0508 -0.5377 -0.3733
 1203TIP3    H1 3615   2.098   4.184   4.851  0.5297 -0.2510 -0.2922
 1203TIP3    H2 3616   2.218   4.132   4.928  0.0359 -1.0459 -0.0483
 1204TIP3   OH2 3617   5.268   3.629   5.143 -0.1905 -0.2096  0.4143
 1204TIP3    H1 3618   5.229   3.669   5.221 -3.6145 -1.4726 -0.4635
 1204TIP3    H2 3619   5.336   3.570   5.178  0.3755  1.3737  2.1573
 1205TIP3   OH2 3620   4.380   2.838   2.017  0.1235 -0.4073 -0.7771
 1205TIP3    H1 3621   4.360   2.843   2.110 -0.1568  1.5022 -0.9119
 1205TIP3    H2 3622   4.301   2.801   1.978  0.6650 -2.3439 -0.1748
 1206TIP3   OH2 3623   3.631   3.475   1.486  0.9009  0.7891  0.1643
 1206TIP3    H1 3624   3.579   3.422   1.547 -0.9958  1.8490 -0.4857
 1206TIP3    H2 3625   3.721   3.445   1.500  0.1298 -1.2091  1.2175
 1207TIP3   OH2 3626   3.105   4.061   0.649 -0.2142 -0.7981 -0.3277
 1207TIP3    H1 3627   3.077   4.056   0.557  0.8554 -1.2691 -0.6474
 1207TIP3    H2 3628   3.029   4.095   0.695 -0.1760  1.3502 -1.6915
 1208TIP3   OH2 3629   5.199   3.939   4.704 -0.3379 -0.2266  0.1980
 1208TIP3    H1 3630   5.222   3.993   4.780 -0.0003  0.5946 -0.4722
 1208TIP3    H2 3631   5.282   3.923   4.660 -0.3342 -1.9132  0.7664
 1209TIP3   OH2 3632   5.631   3.601   0.128  0.3724 -0.0051  1.1791
 1209TIP3    H1 3633   5.661   3.556   0.049 -1.0587 -0.6115  0.9318
 1209TIP3    H2 3634   5.664   3.547   0.200 -0.7353 -1.1358  0.8964
 1210TIP3   OH2 3635   0.170   1.506   1.368  0.4732  0.1953 -0.0305
 1210TIP3    H1 3636   0.184   1.412   1.359  2.0148  0.5048 -1.1387
 1210TIP3    H2 3637   0.221   1.545   1.298  0.5147  1.9089  0.9040
 1211TIP3   OH2 3638   3.036   0.499   1.746  0.3727 -0.5164  0.2871
 1211TIP3    H1 3639   3.090   0.439   1.797  0.5964 -2.2700 -1.8340
 1211TIP3    H2 3640   2.947   0.467   1.758  0.4950 -1.3631 -0.8662
 1212TIP3   OH2 3641   2.919   3.188   3.431  0.6308  0.0428 -0.1722
 1212TIP3    H1 3642   2.978   3.116   3.453  0.2977 -0.3375 -0.5106
 1212TIP3    H2 3643   2.962   3.233   3.358  0.8965  0.2606  0.1167
 1213TIP3   OH2 3644   6.166   1.200   0.196 -0.1353  0.3701 -0.5643
 1213TIP3    H1 3645   6.145   1.247   0.116 -0.7421  0.2071 -0.5080
 1213TIP3    H2 3646   6.260   1.184   0.191 -0.2796 -0.2778 -1.5910
 1214TIP3   OH2 3647   5.999   3.724   2.170 -0.6264 -0.0595 -0.2661
 1214TIP3    H1 3648   5.996   3.818   2.152  1.6716 -0.3803 -3.1131
 1214TIP3    H2 3649   5.942   3.685   2.104 -0.8332 -0.7309  0.2973
 1215TIP3   OH2 3650   2.477   5.263   4.898  0.0555 -0.5281  0.5853
 1215TIP3    H1 3651   2.539   5.335   4.891  0.1379 -0.7513 -3.1746
 1215TIP3    H2 3652   2.393   5.300   4.870 -0.4861 -1.2966  1.1372
 1216TIP3   OH2 3653   2.838   5.128   2.051  0.3644  0.4537  0.2248
 1216TIP3    H1 3654   2.865   5.199   1.993 -0.8062 -1.4506 -2.9129
 1216TIP3    H2 3655   2.742   5.125   2.043  0.4373 -2.2052 -0.8326
 1217TIP3   OH2 3656   6.041   4.775   4.386 -0.1666  0.2768 -0.1725
 1217TIP3    H1 3657   6.111   4.764   4.451  0.2517 -0.8624 -0.7884
 1217TIP3    H2 3658   5.962   4.791   4.438  0.4181  0.8663  0.5557
 1218TIP3   OH2 3659   4.643   1.340   4.419 -0.4443  0.1713  0.4165
 1218TIP3    H1 3660   4.726   1.365   4.379 -1.2886  1.0785 -0.8686
 1218TIP3    H2 3661   4.585   1.414   4.402 -0.9094  0.6041  3.3319
 1219TIP3   OH2 3662   1.625   5.542   0.499  0.0870  0.0310 -0.2655
 1219TIP3    H1 3663   1.689   5.560   0.430  0.2286 -1.3593 -0.5313
 1219TIP3    H2 3664   1.562   5.481   0.459 -1.1189  0.9656  0.1529
 1220TIP3   OH2 3665   2.798   1.098   0.752 -0.3209 -0.3328 -0.2898
 1220TIP3    H1 3666   2.788   1.174   0.694 -1.5925  0.2966  0.6974
 1220TIP3    H2 3667   2.884   1.062   0.729  2.2663  3.6810  1.7816
 1221TIP3   OH2 3668   5.228   1.851   4.404  0.1629 -0.7147 -0.0229
 1221TIP3    H1 3669   5.187   1.776   4.361  0.0141 -0.2779 -0.6591
 1221TIP3    H2 3670   5.246   1.912   4.333 -2.4433  1.1436  0.7463
 1222TIP3   OH2 3671   4.159   4.570   1.186 -0.1970  0.1633 -0.6112
 1222TIP3    H1 3672   4.175   4.621   1.265 -1.4413  1.4448 -1.1325
 1222TIP3    H2 3673   4.136   4.483   1.217  2.2400 -0.2247  0.3043
 1223TIP3   OH2 3674   4.881  -0.035   4.438 -0.5660 -0.2745 -0.3257
 1223TIP3    H1 3675   4.874  -0.009   4.346 -0.8313 -0.0695 -0.2479
 1223TIP3    H2 3676   4.881   0.047   4.486 -0.4097 -0.3824 -0.1437
 1224TIP3   OH2 3677   5.401   2.130   0.902 -0.3241  0.0269  0.0300
 1224TIP3    H1 3678   5.448   2.203   0.862 -0.0789  0.1216  0.4833
 1224TIP3    H2 3679   5.369   2.079   0.828  0.9917 -0.3579 -0.2926
 1225TIP3   OH2 3680   5.609   4.521   4.158  0.2502  0.3877 -0.6814
 1225TIP3    H1 3681   5.597   4.616   4.155  1.9295  0.6339 -1.1427
 1225TIP3    H2 3682   5.588   4.491   4.069  1.6082  0.6308 -1.1084
 1226TIP3   OH2 3683   3.692   4.455   1.944  0.0277  0.0306 -0.1418
 1226TIP3    H1 3684   3.685   4.464   2.039  0.2726  2.7083 -0.3023
 1226TIP3    H2 3685   3.613   4.498   1.910  0.2281 -0.3877 -1.1903
 1227TIP3   OH2 3686   5.508   4.864   3.595 -0.4373 -0.7732 -0.6010
 1227TIP3    H1 3687   5.417   4.866   3.564 -0.6076 -0.5702 -0.0857
 1227TIP3    H2 3688   5.508   4.916   3.675  0.4595  0.6647 -1.4684
 1228TIP3   OH2 3689   3.619   3.514   0.630  0.1717  0.2109 -0.1318
 1228TIP3    H1 3690   3.689   3.535   0.691  1.0864 -0.5045 -0.8983
 1228TIP3    H2 3691   3.656   3.532   0.543 -0.6742  0.0585 -0.5390
 1229TIP3   OH2 3692   5.587   1.776   3.808 -0.2294 -0.1404  0.7547
 1229TIP3    H1 3693   5.505   1.820   3.785 -1.8015 -1.9368  2.5998
 1229TIP3    H2 3694   5.600   1.712   3.738 -1.5140 -1.2190  1.4753
 1230TIP3   OH2 3695   0.343   3.586   2.039 -0.6825 -0.1270  0.4521
 1230TIP3    H1 3696   0.347   3.587   1.943  1.7727 -0.0482  0.5023
 1230TIP3    H2 3697   0.314   3.497   2.060  0.2896 -0.6596 -0.3614
 1231TIP3   OH2 3698   5.926   1.356   0.906 -0.2795 -0.1690  0.2466
 1231TIP3    H1 3699   5.901   1.400   0.825  0.5936  0.1369  0.1327
 1231TIP3    H2 3700   6.022   1.349   0.901  0.1176  2.2013  2.3993
 1232TIP3   OH2 3701   0.435   2.578   4.513  0.3697 -0.4416 -0.2599
 1232TIP3    H1 3702   0.428   2.516   4.440 -0.3712 -1.5656  0.7237
 1232TIP3    H2 3703   0.526   2.570   4.542 -0.0187 -1.9853  0.6092
 1233TIP3   OH2 3704   5.591   3.533   2.359 -0.0866 -0.4301  0.2489
 1233TIP3    H1 3705   5.573   3.525   2.453  1.0996 -0.9705  0.4433
 1233TIP3    H2 3706   5.682   3.560   2.354 -0.4878  0.7905 -0.7406
 1234TIP3   OH2 3707   3.463   0.387   0.650  0.3152  0.3446 -0.2541
 1234TIP3    H1 3708   3.383   0.441   0.652 -0.3865 -0.6937  0.4249
 1234TIP3    H2 3709   3.512   0.421   0.576 -0.3812  1.5414 -0.1980
 1235TIP3   OH2 3710   0.697   2.535   1.673  0.0989 -0.0992 -0.4453
 1235TIP3    H1 3711   0.646   2.542   1.593  0.1926 -1.6435 -0.6648
 1235TIP3    H2 3712   0.667   2.608   1.728  0.3906  1.2843 -2.0580
 1236TIP3   OH2 3713   1.015   4.198   1.253 -0.1591 -0.3951 -0.3684
 1236TIP3    H1 3714   1.007   4.241   1.168 -1.5259  3.3428  1.4052
 1236TIP3    H2 3715   1.024   4.270   1.316 -0.2278 -2.8798  2.7879
 1237TIP3   OH2 3716   2.408   3.938   1.095 -0.1110  0.2135 -0.1475
 1237TIP3    H1 3717   2.425   3.847   1.072  1.2619  0.4006  0.0274
 1237TIP3    H2 3718   2.489   3.968   1.136 -1.0968  1.0543  1.2641
 1238TIP3   OH2 3719   5.158   5.659   1.858 -0.2110 -0.2259 -0.2713
 1238TIP3    H1 3720   5.213   5.737   1.852  0.8301 -1.0023 -1.6866
 1238TIP3    H2 3721   5.202   5.603   1.922 -0.7147  0.1584  0.4159
 1239TIP3   OH2 3722   4.194   4.337   1.981 -0.0564  0.1208 -0.3906
 1239TIP3    H1 3723   4.237   4.422   1.970 -0.8015  0.7299  1.1056
 1239TIP3    H2 3724   4.104   4.351   1.953 -1.0871  0.8091  2.8265
 1240TIP3   OH2 3725   6.261   5.757   0.799 -0.0500  0.0188  0.6836
 1240TIP3    H1 3726   6.201   5.697   0.844  0.7233 -1.0991  0.2637
 1240TIP3    H2 3727   6.303   5.807   0.869  0.2803 -0.8765  1.1287
 1241TIP3   OH2 3728   2.344   5.261   0.300 -0.3531 -0.2058 -0.5002
 1241TIP3    H1 3729   2.382   5.331   0.353  1.8514 -1.1469 -0.7427
 1241TIP3    H2 3730   2.371   5.281   0.210 -2.4236  0.3221 -1.0577
 1242TIP3   OH2 3731   1.909   4.344   1.021  0.0800 -0.0470 -0.2227
 1242TIP3    H1 3732   1.998   4.364   0.992  0.1184 -0.6554 -0.5555
 1242TIP3    H2 3733   1.891   4.257   0.984 -2.4165  1.8901 -4.3804
 1243TIP3   OH2 3734   1.804   1.754   4.606 -0.1494  0.3878  0.1573
 1243TIP3    H1 3735   1.819   1.845   4.583 -2.0665  0.6568 -0.2081
 1243TIP3    H2 3736   1.882   1.728   4.656  1.6354  1.4160 -1.8965
 1244TIP3   OH2 3737   1.847   4.448   4.288  0.3287  0.0480 -0.5087
 1244TIP3    H1 3738   1.790   4.489   4.354 -0.6900 -0.0926 -1.2634
 1244TIP3    H2 3739   1.934   4.484   4.305  0.0385  0.2203  0.7318
 1245TIP3   OH2 3740   4.929   4.900   2.091  0.5519 -0.3043  0.2057
 1245TIP3    H1 3741   4.923   4.974   2.152 -0.2083  0.5551 -0.8722
 1245TIP3    H2 3742   4.898   4.825   2.140  0.6952  0.2189  1.1122
 1246TIP3   OH2 3743   0.221   0.951   4.077 -0.0101 -0.6482  0.4549
 1246TIP3    H1 3744   0.193   0.944   4.168  0.8786 -1.3404  0.6920
 1246TIP3    H2 3745   0.221   0.860   4.045  1.2730 -0.5935  0.2653
 1247TIP3   OH2 3746   5.452   4.585   2.337 -0.5790  0.4895 -1.0939
 1247TIP3    H1 3747   5.486   4.575   2.248  0.4534 -0.8732 -0.5795
 1247TIP3    H2 3748   5.365   4.545   2.335 -0.1313 -0.5060 -1.2550
 1248TIP3   OH2 3749   4.167   3.763   1.942  0.1399  0.1264 -0.1896
 1248TIP3    H1 3750   4.101   3.809   1.994  0.8522  0.1108  0.7521
 1248TIP3    H2 3751   4.156   3.798   1.854  1.4171  3.0550  0.6804
 1249TIP3   OH2 3752   2.293   2.446   0.592 -0.5322 -0.0910  0.0961
 1249TIP3    H1 3753   2.309   2.355   0.618 -0.3360  0.2140  1.0829
 1249TIP3    H2 3754   2.284   2.442   0.497 -1.9153 -1.3452  0.2467
 1250TIP3   OH2 3755   1.099   0.949   3.407  0.2047 -0.2089  0.5814
 1250TIP3    H1 3756   1.120   0.930   3.498 -0.0770  1.7847  1.1251
 1250TIP3    H2 3757   1.052   1.032   3.410  0.8490  0.3130 -1.4380
 1251TIP3   OH2 3758   6.149   0.211   0.596 -0.4094  0.1930  0.1618
 1251TIP3    H1 3759   6.199   0.226   0.677 -1.6476 -0.7119  1.1463
 1251TIP3    H2 3760   6.093   0.288   0.587  0.3520  0.7023 -0.3422
 1252TIP3   OH2 3761   3.246   5.144   1.981  0.2425 -0.3274 -0.0670
 1252TIP3    H1 3762   3.157   5.123   1.953 -1.2601  0.6939  3.3760
 1252TIP3    H2 3763   3.264   5.080   2.051  1.6528  0.3376  0.2089
 1253TIP3   OH2 3764   3.603   3.683   4.756 -0.1532 -0.4191 -0.6384
 1253TIP3    H1 3765   3.514   3.715   4.744 -0.3229 -0.9312 -0.7926
 1253TIP3    H2 3766   3.597   3.588   4.740  0.4669 -0.4182 -0.9241
 1254TIP3   OH2 3767   3.705   0.467   3.634  0.2331 -0.1632  0.1431
 1254TIP3    H1 3768   3.648   0.498   3.705 -1.0078 -2.1630  0.1051
 1254TIP3    H2 3769   3.680   0.520   3.558 -1.3713 -0.7315  0.2283
 1255TIP3   OH2 3770  -0.017   4.675   1.168 -0.0863 -0.2225 -0.3558
 1255TIP3    H1 3771   0.066   4.645   1.207 -1.3364 -2.4623  0.8093
 1255TIP3    H2 3772  -0.029   4.618   1.092 -0.1991  0.6291 -0.9855
 1256TIP3   OH2 3773   0.362   0.973   1.918 -0.3124  0.4496 -0.1310
 1256TIP3    H1 3774   0.409   1.015   1.846 -1.5707  1.5156 -0.3636
 1256TIP3    H2 3775   0.361   0.880   1.895 -1.2516  0.8469 -1.8489
 1257TIP3   OH2 3776   6.322   3.707   4.721  0.3754 -0.0451 -0.2192
 1257TIP3    H1 3777   6.230   3.732   4.728  0.5240  0.1739  1.2651
 1257TIP3    H2 3778   6.334   3.639   4.787  1.1688 -0.4166 -0.7344
 1258TIP3   OH2 3779   5.095   2.689   5.148 -0.0641  0.6134  0.1952
 1258TIP3    H1 3780   5.176   2.676   5.099 -0.4100 -0.7591 -0.0664
 1258TIP3    H2 3781   5.034   2.626   5.109 -0.4157 -0.3814  2.2572
 1259TIP3   OH2 3782   4.233   3.390   4.986 -0.4528 -0.5564  0.3601
 1259TIP3    H1 3783   4.257   3.371   5.077  1.7343  0.0794 -0.0277
 1259TIP3    H2 3784   4.187   3.474   4.990  0.7780  0.1226  0.7758
 1260TIP3   OH2 3785   5.311   2.494   3.504 -0.4425 -0.7780 -0.0601
 1260TIP3    H1 3786   5.233   2.517   3.554  0.4216  3.0115 -0.1519
 1260TIP3    H2 3787   5.363   2.441   3.565 -1.3242  0.0490  1.4697
 1261TIP3   OH2 3788   4.498   4.960   3.632 -0.2525  0.2200  0.0876
 1261TIP3    H1 3789   4.471   4.887   3.687  0.0195  0.8014  1.0250
 1261TIP3    H2 3790   4.526   5.028   3.694  0.0226  0.9150 -0.7674
 1262TIP3   OH2 3791   4.501   3.526   3.761  0.0720  0.1137  0.5349
 1262TIP3    H1 3792   4.457   3.600   3.719  0.5075 -0.0063 -0.1476
 1262TIP3    H2 3793   4.591   3.556   3.775  0.9538 -1.0373 -1.9156
 1263TIP3   OH2 3794   5.052   4.249   3.611  0.0071  0.0389 -0.2008
 1263TIP3    H1 3795   4.995   4.253   3.688 -1.1474 -0.2012 -1.0184
 1263TIP3    H2 3796   5.135   4.288   3.641 -0.6591  0.6449  0.9416
 1264TIP3   OH2 3797   1.233   0.715   0.797 -0.6356  0.3412 -0.2913
 1264TIP3    H1 3798   1.269   0.688   0.713 -0.7325 -0.4952 -0.0757
 1264TIP3    H2 3799   1.276   0.659   0.861 -0.6345  0.9026  0.2083
 1265TIP3   OH2 3800   1.354   1.876   0.207  0.1665  0.4564 -0.5182
 1265TIP3    H1 3801   1.417   1.941   0.239 -0.7378  1.1072 -0.0210
 1265TIP3    H2 3802   1.331   1.907   0.120  0.4235  0.2975 -0.6433
 1266TIP3   OH2 3803   5.204   4.496   2.836 -0.0331  0.1544 -0.2209
 1266TIP3    H1 3804   5.144   4.564   2.865  0.9620  0.3667  1.4479
 1266TIP3    H2 3805   5.263   4.482   2.910  1.1210 -1.0141 -1.3036
 1267TIP3   OH2 3806   3.997   5.132   1.715  0.0817 -0.3697  0.1089
 1267TIP3    H1 3807   4.001   5.224   1.687 -2.0458 -0.5695 -1.0987
 1267TIP3    H2 3808   3.910   5.123   1.754 -1.1159 -2.5421 -2.7196
 1268TIP3   OH2 3809   5.382   5.591   4.123 -0.1823 -0.4487 -0.0912
 1268TIP3    H1 3810   5.362   5.675   4.083  1.5985 -0.1965 -0.5389
 1268TIP3    H2 3811   5.298   5.558   4.155 -1.0911  0.9278 -0.9963
 1269TIP3   OH2 3812   0.139   4.328   1.482 -0.1417  0.7069 -0.6082
 1269TIP3    H1 3813   0.102   4.241   1.466  2.7485 -1.0812  1.5799
 1269TIP3    H2 3814   0.193   4.345   1.405 -0.1457  0.2339 -0.7205
 1270TIP3   OH2 3815   3.537   2.990   4.352  0.6735  0.1482  0.1719
 1270TIP3    H1 3816   3.471   3.005   4.284  0.4238 -0.2834  0.3187
 1270TIP3    H2 3817   3.487   2.992   4.434  0.7032 -1.0184  0.2283
 1271TIP3   OH2 3818   0.743   4.529   0.598  0.1577 -0.0765  0.2732
 1271TIP3    H1 3819   0.647   4.531   0.596  0.1190 -1.0086  0.6175
 1271TIP3    H2 3820   0.769   4.534   0.506 -0.0659  3.8552  0.2391
 1272TIP3   OH2 3821   2.145   5.352   3.613  0.0949 -1.0277 -0.7758
 1272TIP3    H1 3822   2.102   5.273   3.580 -0.0237 -1.7334  0.9440
 1272TIP3    H2 3823   2.074   5.414   3.629 -0.5691 -2.4990  2.9050
 1273TIP3   OH2 3824   0.161   2.413   2.222  0.1569 -0.5743  0.4750
 1273TIP3    H1 3825   0.100   2.381   2.288 -2.1793  0.7512 -0.9074
 1273TIP3    H2 3826   0.128   2.500   2.199  1.2376 -0.7378 -1.9958
 1274TIP3   OH2 3827   3.687   5.783   2.793 -0.3327  0.6899  0.4533
 1274TIP3    H1 3828   3.640   5.755   2.715 -1.5610  0.6694  1.1715
 1274TIP3    H2 3829   3.751   5.847   2.762 -0.2775  0.1160 -0.6539
 1275TIP3   OH2 3830   6.175   0.679   0.370 -0.0732  0.2044 -0.5882
 1275TIP3    H1 3831   6.226   0.600   0.386  0.8456  0.7315 -0.8523
 1275TIP3    H2 3832   6.201   0.739   0.440 -0.5127  0.4000 -0.5855
 1276TIP3   OH2 3833   1.456   2.368   0.352 -0.1478  0.5629 -0.1803
 1276TIP3    H1 3834   1.407   2.315   0.415  2.3928 -0.7458  0.8232
 1276TIP3    H2 3835   1.487   2.442   0.403 -0.3821  0.9705 -0.6195
 1277TIP3   OH2 3836   1.422   5.920   0.163 -0.5066 -0.2914  0.0405
 1277TIP3    H1 3837   1.334   5.889   0.139 -1.0342  1.1711 -0.0307
 1277TIP3    H2 3838   1.481   5.850   0.134 -1.4555 -0.3603 -1.9253
 1278TIP3   OH2 3839   0.080   1.549   3.998 -0.1695 -0.0060 -0.0493
 1278TIP3    H1 3840   0.027   1.617   3.955 -0.4997 -0.7722 -0.8891
 1278TIP3    H2 3841   0.093   1.582   4.087 -1.3476  0.6040 -0.0759
 1279TIP3   OH2 3842   2.764   2.525   4.947  0.2947 -0.1895 -0.5882
 1279TIP3    H1 3843   2.811   2.553   4.869  0.6625 -0.9984 -0.6623
 1279TIP3    H2 3844   2.722   2.605   4.979  0.8004  0.3135 -1.1490
 1280TIP3   OH2 3845   6.146   0.448   4.816 -0.2559 -0.1967 -0.0920
 1280TIP3    H1 3846   6.102   0.465   4.733 -1.5513  0.1650  0.6406
 1280TIP3    H2 3847   6.076   0.449   4.881  0.7348 -0.4369  1.0152
 1281TIP3   OH2 3848   5.385   4.521   3.044 -0.2291  0.4077 -0.2072
 1281TIP3    H1 3849   5.436   4.490   2.968 -1.5793 -0.1138 -0.9273
 1281TIP3    H2 3850   5.448   4.519   3.117  0.7564 -0.3084 -1.0397
 1282TIP3   OH2 3851   4.117   5.256   1.448 -0.1751  0.6499  0.2804
 1282TIP3    H1 3852   4.041   5.251   1.390  0.2897 -1.4832 -0.2499
 1282TIP3    H2 3853   4.190   5.276   1.389  0.3781 -1.9885 -0.0869
 1283TIP3   OH2 3854   0.254   5.444   0.909 -0.2497 -0.1756 -0.1936
 1283TIP3    H1 3855   0.205   5.368   0.878  0.9286 -0.7174 -0.7743
 1283TIP3    H2 3856   0.253   5.436   1.005 -0.4898 -0.6821 -0.2379
 1284TIP3   OH2 3857   1.981   2.140   1.301  0.5801  0.7982  0.0041
 1284TIP3    H1 3858   2.008   2.050   1.282  1.6980  0.5130  2.5094
 1284TIP3    H2 3859   2.061   2.182   1.332 -0.4343  1.9979  1.0777
 1285TIP3   OH2 3860   5.323   4.505   1.001  0.0852 -0.3602  0.9610
 1285TIP3    H1 3861   5.257   4.527   0.936  0.9155  1.2704  0.6120
 1285TIP3    H2 3862   5.280   4.521   1.085  0.7229  3.2860  0.7422
 1286TIP3   OH2 3863   3.212   1.515   2.448  0.0523 -0.1431  0.1639
 1286TIP3    H1 3864   3.165   1.462   2.512 -0.6773  0.8541  0.4725
 1286TIP3    H2 3865   3.287   1.551   2.496  0.8571 -1.2809 -0.1836
 1287TIP3   OH2 3866   1.300   4.406   1.320 -0.1438 -0.0747 -0.8314
 1287TIP3    H1 3867   1.335   4.327   1.280 -3.2819 -1.0552 -1.9265
 1287TIP3    H2 3868   1.368   4.473   1.305  2.1557 -2.2557 -0.7472
 1288TIP3   OH2 3869   4.457   1.477   1.101  0.4430 -0.0233 -0.1781
 1288TIP3    H1 3870   4.477   1.383   1.104 -0.1493 -0.1519 -0.1676
 1288TIP3    H2 3871   4.535   1.516   1.062 -0.0936 -0.7657 -2.1671
 1289TIP3   OH2 3872   5.903   3.258   4.572  0.2346 -0.0249  0.5734
 1289TIP3    H1 3873   5.906   3.171   4.531  0.2641  0.0147  0.4927
 1289TIP3    H2 3874   5.984   3.264   4.622  1.5421  1.0274 -1.5690
 1290TIP3   OH2 3875   2.716   0.733   3.470 -0.2143 -0.0295  0.1909
 1290TIP3    H1 3876   2.776   0.703   3.402  0.1722  0.1516  0.4540
 1290TIP3    H2 3877   2.768   0.792   3.525 -0.5348 -0.1375  0.6185
 1291TIP3   OH2 3878   0.100   5.545   2.724  0.3701  1.2959  0.0282
 1291TIP3    H1 3879   0.181   5.519   2.679  0.7228  1.2955  0.6460
 1291TIP3    H2 3880   0.032   5.539   2.657  0.4820 -0.9728  0.0376
 1292TIP3   OH2 3881   4.739   5.633   0.541 -0.1302 -0.6413  0.1618
 1292TIP3    H1 3882   4.670   5.568   0.532  1.0677 -1.7588 -1.3160
 1292TIP3    H2 3883   4.774   5.644   0.453 -0.4558  2.2553  0.2762
 1293TIP3   OH2 3884   5.690   3.380   2.974  0.2994 -0.6409 -0.1620
 1293TIP3    H1 3885   5.774   3.351   2.939  0.8314  0.4344  0.1752
 1293TIP3    H2 3886   5.655   3.303   3.019  0.9784 -1.1722 -0.5249
 1294TIP3   OH2 3887   3.874   1.379   1.648  0.0058 -0.0421  0.7199
 1294TIP3    H1 3888   3.967   1.381   1.674  0.2721 -0.2380 -0.1931
 1294TIP3    H2 3889   3.842   1.297   1.684 -0.1903  0.6590  2.2397
 1295TIP3   OH2 3890   5.706   2.637   3.421 -0.2811  0.0471  0.0343
 1295TIP3    H1 3891   5.619   2.627   3.384 -1.1311  1.3971  1.5698
 1295TIP3    H2 3892   5.695   2.620   3.514  1.4016 -1.2058  0.0673
 1296TIP3   OH2 3893   5.572   5.315   3.923  0.5819  0.5145 -0.6816
 1296TIP3    H1 3894   5.504   5.346   3.983  1.4584  0.3910  0.4176
 1296TIP3    H2 3895   5.553   5.358   3.840 -1.3482 -0.2010 -0.6470
 1297TIP3   OH2 3896   2.111   5.702   3.086 -0.0135  0.3715 -0.2971
 1297TIP3    H1 3897   2.083   5.787   3.120  0.3183 -0.0611  1.1290
 1297TIP3    H2 3898   2.029   5.654   3.071 -0.1572  0.0130  1.4405
 1298TIP3   OH2 3899   5.905   0.501   4.922 -0.3040  0.4045  0.0473
 1298TIP3    H1 3900   5.884   0.591   4.897 -0.1270  0.7981  1.2337
 1298TIP3    H2 3901   5.834   0.449   4.886 -1.0984  1.1899  0.4246
 1299TIP3   OH2 3902   1.316   4.316   2.191 -0.4459 -0.1959  0.0152
 1299TIP3    H1 3903   1.379   4.272   2.248 -0.9799  0.1616  0.9104
 1299TIP3    H2 3904   1.364   4.390   2.154 -0.4911  0.4264  1.1618
 1300TIP3   OH2 3905   3.482   1.129   1.907  0.0169 -0.0002  0.0024
 1300TIP3    H1 3906   3.432   1.210   1.904  0.1883  0.1525  1.0293
 1300TIP3    H2 3907   3.573   1.157   1.918  0.1878 -0.3085 -0.5836
 1301TIP3   OH2 3908   5.932   2.181   0.235  0.8551 -0.6676  0.5298
 1301TIP3    H1 3909   5.995   2.110   0.232  0.9702 -0.5403 -1.0231
 1301TIP3    H2 3910   5.985   2.261   0.230  0.5987 -0.5717 -2.0215
 1302TIP3   OH2 3911   4.026   2.559   5.059  0.0589  0.3261 -0.2624
 1302TIP3    H1 3912   4.111   2.572   5.018  0.8910  1.3886  1.6807
 1302TIP3    H2 3913   4.010   2.640   5.107 -0.3892 -1.1680  2.2856
 1303TIP3   OH2 3914   4.313   3.966   4.767 -0.0317  0.0371 -0.2286
 1303TIP3    H1 3915   4.296   4.059   4.782  1.5190  0.1425  1.1784
 1303TIP3    H2 3916   4.307   3.926   4.854  1.7138 -0.7241 -0.4105
 1304TIP3   OH2 3917   4.799   2.515   1.883  0.0029 -0.1714  0.1347
 1304TIP3    H1 3918   4.786   2.421   1.888  1.4051 -0.3401  2.1414
 1304TIP3    H2 3919   4.711   2.552   1.884 -0.6188 -1.4322 -1.9529
 1305TIP3   OH2 3920   3.724   3.402   4.681  0.1557 -0.2137  0.9070
 1305TIP3    H1 3921   3.783   3.455   4.734  1.2888  1.7736 -2.0543
 1305TIP3    H2 3922   3.783   3.353   4.623 -1.0386 -0.2144 -0.3471
 1306TIP3   OH2 3923   1.143   4.698   2.893 -0.1081  0.0786  0.1610
 1306TIP3    H1 3924   1.176   4.788   2.900  1.4498 -0.3042 -1.5262
 1306TIP3    H2 3925   1.059   4.708   2.847  0.0417  0.6867  0.0043
 1307TIP3   OH2 3926   5.275   4.337   2.623 -0.3757  0.0808  0.2056
 1307TIP3    H1 3927   5.354   4.303   2.665 -0.7004 -0.0863  0.6826
 1307TIP3    H2 3928   5.234   4.391   2.690 -0.0520  1.1512 -0.4238
 1308TIP3   OH2 3929   1.340   3.568   2.261 -0.3528  0.2085  0.0835
 1308TIP3    H1 3930   1.410   3.573   2.326 -1.3417  1.1362  1.1193
 1308TIP3    H2 3931   1.368   3.626   2.190 -0.6065  1.5599  1.0491
 1309TIP3   OH2 3932   2.263   4.250   0.311 -0.1583 -0.3600 -0.3443
 1309TIP3    H1 3933   2.211   4.297   0.376 -1.3154  0.8047 -2.0199
 1309TIP3    H2 3934   2.226   4.277   0.227  2.7140 -0.0132 -1.6270
 1310TIP3   OH2 3935   5.144   5.591   1.118  0.4535  0.3096  0.5861
 1310TIP3    H1 3936   5.143   5.676   1.162  0.6005  0.0527  1.0888
 1310TIP3    H2 3937   5.130   5.527   1.188 -0.3084 -0.0487  0.1252
 1311TIP3   OH2 3938   1.472   3.849   3.357  0.2038  0.0602  0.1461
 1311TIP3    H1 3939   1.503   3.799   3.282 -0.9150  0.5115 -0.6396
 1311TIP3    H2 3940   1.429   3.783   3.413  1.7021 -0.4085  0.8102
 1312TIP3   OH2 3941   4.269   2.951   4.892  0.3734  0.3257 -0.0852
 1312TIP3    H1 3942   4.222   2.887   4.839 -3.3147  1.1529  1.9086
 1312TIP3    H2 3943   4.331   2.991   4.830 -1.2610 -1.0772 -2.8546
 1313TIP3   OH2 3944   0.184   1.790   0.256 -0.2003 -0.1806 -0.4293
 1313TIP3    H1 3945   0.091   1.792   0.281 -0.0328  0.6678  0.1500
 1313TIP3    H2 3946   0.211   1.700   0.273 -0.4596  0.0194  1.1569
 1314TIP3   OH2 3947   2.009   4.837   0.503 -0.0285 -0.4312  0.0379
 1314TIP3    H1 3948   1.991   4.844   0.596  1.3259 -1.1431  0.3863
 1314TIP3    H2 3949   2.061   4.914   0.482  0.9966 -1.0512  0.2381
 1315TIP3   OH2 3950   2.765   4.204   2.455 -0.5319 -0.8933 -0.5644
 1315TIP3    H1 3951   2.821   4.273   2.490 -0.5724 -1.1784  0.0680
 1315TIP3    H2 3952   2.711   4.248   2.389  0.4090 -0.6101 -1.1530
 1316TIP3   OH2 3953   3.775   1.948   1.632 -0.2615 -0.0437  0.0220
 1316TIP3    H1 3954   3.727   2.031   1.631  0.3461  0.3391  1.1529
 1316TIP3    H2 3955   3.777   1.920   1.540  0.7112  1.8888 -0.5936
 1317TIP3   OH2 3956   1.268   2.339   1.341 -0.1166 -0.5612 -0.4862
 1317TIP3    H1 3957   1.174   2.322   1.355 -0.6474  1.9110 -0.6296
 1317TIP3    H2 3958   1.308   2.316   1.425 -1.2829  0.9182  0.5354
 1318TIP3   OH2 3959   1.667   2.825   1.145 -0.8732  0.9229 -0.0754
 1318TIP3    H1 3960   1.719   2.770   1.086 -0.6383 -0.6437  1.5139
 1318TIP3    H2 3961   1.673   2.913   1.107  0.6549  0.2901 -1.4251
 1319TIP3   OH2 3962   0.445   1.043   2.173 -0.3488  0.2347  0.3406
 1319TIP3    H1 3963   0.418   0.987   2.100  0.4519 -0.5316  0.6196
 1319TIP3    H2 3964   0.491   1.116   2.131  0.9255 -0.6766  0.1060
 1320TIP3   OH2 3965   5.739   5.753   0.918  0.0789  0.5706  0.0782
 1320TIP3    H1 3966   5.663   5.807   0.896  1.3482  2.8719  0.9806
 1320TIP3    H2 3967   5.778   5.797   0.993  2.2547 -0.5884 -0.2998
 1321TIP3   OH2 3968   1.953   2.285   0.810 -1.2963  0.1845  0.0566
 1321TIP3    H1 3969   2.006   2.292   0.730 -2.1225  1.1357 -0.4319
 1321TIP3    H2 3970   1.996   2.217   0.861  1.7327  2.3324  0.6876
 1322TIP3   OH2 3971   2.068   3.989   1.488 -0.0537 -0.0043 -0.4695
 1322TIP3    H1 3972   2.090   3.990   1.395 -0.7488 -1.1132 -0.6716
 1322TIP3    H2 3973   2.031   3.902   1.502 -1.3145  0.6591  0.5191
 1323TIP3   OH2 3974   1.581   1.114   0.310  0.2886 -0.4591  0.2042
 1323TIP3    H1 3975   1.611   1.041   0.256 -1.1524 -1.3520  0.5633
 1323TIP3    H2 3976   1.488   1.098   0.323 -0.0870  1.5039  0.2229
 1324TIP3   OH2 3977   1.478   0.708   4.099 -0.1053  0.4362 -0.0557
 1324TIP3    H1 3978   1.520   0.790   4.123 -1.0430  0.6623  0.8909
 1324TIP3    H2 3979   1.433   0.728   4.016  0.7246  0.4978 -0.4998
 1325TIP3   OH2 3980   1.836   5.891   2.518  0.4648  0.6085  0.3455
 1325TIP3    H1 3981   1.809   5.807   2.556  2.2245  0.1969  0.8047
 1325TIP3    H2 3982   1.755   5.931   2.488 -0.2859 -1.9806 -1.4259
 1326TIP3   OH2 3983   1.167   4.215   3.572  0.1073 -0.3005  0.0100
 1326TIP3    H1 3984   1.139   4.294   3.619  0.7787  0.8224 -1.3811
 1326TIP3    H2 3985   1.123   4.222   3.487  0.1078 -1.4890 -0.0972
 1327TIP3   OH2 3986   4.577   2.169   1.089  0.0782  0.0644  0.8145
 1327TIP3    H1 3987   4.507   2.104   1.093  0.0257 -0.4655 -3.5671
 1327TIP3    H2 3988   4.654   2.121   1.059  0.4737  1.6252 -0.9394
 1328TIP3   OH2 3989   5.817   1.657   2.129  0.3693  0.6696 -0.1441
 1328TIP3    H1 3990   5.899   1.692   2.095  0.3153 -0.6398 -1.7606
 1328TIP3    H2 3991   5.750   1.712   2.090  0.4424  1.5893  0.9860
 1329TIP3   OH2 3992   2.712   3.544   3.296  0.1651 -0.4933 -0.4071
 1329TIP3    H1 3993   2.776   3.502   3.353  0.9027  1.2848  0.1452
 1329TIP3    H2 3994   2.649   3.583   3.355  0.9715  1.4223 -0.7414
 1330TIP3   OH2 3995   4.357   1.775   5.124 -0.0734  0.4686  0.3029
 1330TIP3    H1 3996   4.376   1.699   5.069 -0.1606 -0.0265  0.9443
 1330TIP3    H2 3997   4.422   1.840   5.098  0.2681  0.0274  0.0373
 1331TIP3   OH2 3998   3.453   4.352   1.582  0.2927  0.3290 -1.2254
 1331TIP3    H1 3999   3.368   4.359   1.624  0.5762  2.1272 -0.8646
 1331TIP3    H2 4000   3.453   4.421   1.516  0.7215 -0.9735 -2.6618
 1332TIP3   OH2 4001   5.422   3.674   3.869  0.1382 -0.1341  0.1029
 1332TIP3    H1 4002   5.496   3.613   3.868  0.5141  0.2800 -2.2802
 1332TIP3    H2 4003   5.346   3.619   3.889  0.9580 -0.6504  2.0818
 1333TIP3   OH2 4004   0.721   1.154   4.551 -0.8998  0.0635 -0.0196
 1333TIP3    H1 4005   0.701   1.245   4.572  1.0525  0.0488  2.4194
 1333TIP3    H2 4006   0.669   1.103   4.613  1.2207 -0.2132  1.6498
 1334TIP3   OH2 4007   2.150   2.712   1.343  0.2419 -0.1833  0.3691
 1334TIP3    H1 4008   2.191   2.733   1.260 -0.5238 -2.7346 -0.7480
 1334TIP3    H2 4009   2.210   2.748   1.409  1.9567  0.0787 -1.2465
 1335TIP3   OH2 4010   4.391   4.205   0.760 -0.4155 -0.0054  0.4517
 1335TIP3    H1 4011   4.371   4.118   0.725  0.2602 -0.3765  0.9828
 1335TIP3    H2 4012   4.329   4.217   0.831  0.5054 -0.7102  1.3964
 1336TIP3   OH2 4013   3.951   3.500   0.935 -0.3920  0.1453  0.3138
 1336TIP3    H1 4014   3.917   3.410   0.934  0.3690 -0.1477  0.0213
 1336TIP3    H2 4015   3.875   3.554   0.911 -0.2080 -0.6690 -2.4173
 1337TIP3   OH2 4016   4.115   0.037   1.790 -0.3659  0.8301  0.0769
 1337TIP3    H1 4017   4.084   0.094   1.719  0.3175  1.2655  0.1180
 1337TIP3    H2 4018   4.161   0.097   1.850  0.8787  0.1594 -0.1741
 1338TIP3   OH2 4019   4.006   5.710   3.072 -0.2854  0.3760  0.9190
 1338TIP3    H1 4020   3.916   5.708   3.106 -0.2976 -1.2448  0.8628
 1338TIP3    H2 4021   3.998   5.747   2.984 -0.8333  0.6755  1.0921
 1339TIP3   OH2 4022   5.911   3.698   4.660  0.0840 -0.4190 -0.0939
 1339TIP3    H1 4023   5.876   3.737   4.580 -0.7431 -1.1566 -0.1025
 1339TIP3    H2 4024   5.981   3.639   4.629  0.8300  0.4703 -0.1367
 1340TIP3   OH2 4025   0.351   3.162   1.446 -0.7742  0.7249  0.0802
 1340TIP3    H1 4026   0.395   3.168   1.362  1.4644  2.8073  1.2741
 1340TIP3    H2 4027   0.311   3.075   1.447  3.0665 -1.2571 -1.2818
 1341TIP3   OH2 4028   6.289   2.081   5.038  0.1615 -0.4695 -0.1457
 1341TIP3    H1 4029   6.249   2.001   5.003  0.5974  0.2296 -2.4117
 1341TIP3    H2 4030   6.383   2.062   5.040  0.1414 -0.5135  0.7596
 1342TIP3   OH2 4031   5.142   1.422   1.416 -0.3694  0.1667 -0.3616
 1342TIP3    H1 4032   5.074   1.359   1.440 -1.8310  2.1324  0.9875
 1342TIP3    H2 4033   5.223   1.384   1.449 -1.5871  0.2430  3.1598
 1343TIP3   OH2 4034   1.546   2.592   2.245  0.2277  0.0530 -0.0564
 1343TIP3    H1 4035   1.491   2.551   2.312 -0.0776 -0.2188 -0.4673
 1343TIP3    H2 4036   1.539   2.534   2.169  1.1698 -0.0382 -0.0816
 1344TIP3   OH2 4037   5.040   3.173   2.738 -0.8319 -0.1179  0.3019
 1344TIP3    H1 4038   4.949   3.161   2.767 -0.6550  0.5752  1.2085
 1344TIP3    H2 4039   5.084   3.093   2.763 -0.7057  0.4209  1.9624
 1345TIP3   OH2 4040   1.049   0.631   4.297  0.4266  0.4144  0.0324
 1345TIP3    H1 4041   1.125   0.666   4.250 -0.4478  0.8840 -1.0824
 1345TIP3    H2 4042   0.990   0.601   4.229 -0.1499 -0.4844  0.9027
 1346TIP3   OH2 4043   4.641   2.519   1.207 -0.1443  0.4419  0.0234
 1346TIP3    H1 4044   4.581   2.569   1.151  0.9157  1.8119  0.0603
 1346TIP3    H2 4045   4.723   2.517   1.158 -0.3999 -2.1680 -0.4303
 1347TIP3   OH2 4046   5.805   5.481   3.259 -0.4002  0.2610  0.2441
 1347TIP3    H1 4047   5.870   5.430   3.308  0.3726 -0.9140 -1.8600
 1347TIP3    H2 4048   5.857   5.548   3.214 -0.6279 -0.5803 -1.3264
 1348TIP3   OH2 4049   0.051   0.951   1.753 -0.0168 -0.7305 -0.2898
 1348TIP3    H1 4050   0.134   0.914   1.783 -0.0885 -2.0930 -1.6502
 1348TIP3    H2 4051  -0.016   0.893   1.791 -0.3978  0.5037  1.0043
 1349TIP3   OH2 4052   6.075   5.381   1.934  0.3266  0.1906  0.3002
 1349TIP3    H1 4053   5.983   5.387   1.957  0.4006  1.0587  0.4306
 1349TIP3    H2 4054   6.094   5.288   1.930 -0.2722  0.0073  1.4196
 1350TIP3   OH2 4055   3.055   3.456   1.764  0.1489  0.4259 -0.0440
 1350TIP3    H1 4056   3.110   3.469   1.841 -1.8410 -0.8659  1.7219
 1350TIP3    H2 4057   2.979   3.513   1.779 -0.0788  0.4721 -1.2689
 1351TIP3   OH2 4058   0.361   0.835   3.036 -0.2011  0.1694 -0.1473
 1351TIP3    H1 4059   0.284   0.872   3.079  0.4320  0.6609  0.5793
 1351TIP3    H2 4060   0.369   0.747   3.073 -1.3954 -0.5561 -1.4891
 1352TIP3   OH2 4061   4.920   2.734   4.785 -0.4126  0.6305 -0.0988
 1352TIP3    H1 4062   4.931   2.663   4.849 -0.8626  0.5227 -0.1385
 1352TIP3    H2 4063   4.953   2.812   4.830  1.2122  0.2002 -0.4831
 1353TIP3   OH2 4064   3.086   2.744   3.622  0.3459  0.0627 -0.0576
 1353TIP3    H1 4065   3.158   2.682   3.633 -0.0471 -0.6147 -1.1212
 1353TIP3    H2 4066   3.007   2.693   3.643  0.1480  0.7545  0.9430
 1354TIP3   OH2 4067   6.009   3.962   1.708 -0.5401 -0.0479  0.0231
 1354TIP3    H1 4068   6.050   3.921   1.632 -0.0977  1.4740 -0.6029
 1354TIP3    H2 4069   6.062   4.040   1.725 -0.6319 -0.3455  1.9066
 1355TIP3   OH2 4070   3.996   5.863   2.378  0.3756  0.0056  0.1785
 1355TIP3    H1 4071   4.083   5.882   2.343  0.3979  0.8902  0.6933
 1355TIP3    H2 4072   3.948   5.946   2.370 -0.4017 -0.4530 -0.0292
 1356TIP3   OH2 4073   3.694   5.162   3.840  0.0636 -0.5929  0.1787
 1356TIP3    H1 4074   3.624   5.188   3.781 -0.3152  1.5841  1.4860
 1356TIP3    H2 4075   3.711   5.070   3.818 -1.3353 -0.3988 -1.9733
 1357TIP3   OH2 4076   4.683   5.321   2.309 -0.3599 -0.1395 -0.2471
 1357TIP3    H1 4077   4.695   5.377   2.385 -0.5739 -1.1294  0.5376
 1357TIP3    H2 4078   4.676   5.233   2.345 -2.6059 -0.4157 -1.2295
 1358TIP3   OH2 4079   0.887   3.800   2.677  0.1387 -0.2441  0.2535
 1358TIP3    H1 4080   0.834   3.738   2.727 -1.3520  0.9508  0.2359
 1358TIP3    H2 4081   0.847   3.801   2.590 -0.7791  1.7324  0.6397
 1359TIP3   OH2 4082   1.190   4.501   1.076 -0.3281 -0.1288 -0.2670
 1359TIP3    H1 4083   1.205   4.475   1.167 -0.3182  1.3628  0.1936
 1359TIP3    H2 4084   1.197   4.420   1.026  1.8653 -0.6882  0.8102
 1360TIP3   OH2 4085   4.054   2.920   1.279 -0.0265 -0.0931  0.3277
 1360TIP3    H1 4086   4.146   2.901   1.296  0.4268 -0.0058 -1.8193
 1360TIP3    H2 4087   4.050   2.946   1.187 -2.3089 -0.8978  0.1102
 1361TIP3   OH2 4088   2.342   3.922   1.744  0.3419  0.1398  0.0697
 1361TIP3    H1 4089   2.391   3.891   1.820  0.9401  0.4792 -0.1724
 1361TIP3    H2 4090   2.279   3.985   1.780 -0.6223 -1.0283  0.5160
 1362TIP3   OH2 4091   4.733   2.079   3.839 -0.1812 -0.3274  0.2350
 1362TIP3    H1 4092   4.711   2.087   3.931  0.4581 -0.6728  0.4249
 1362TIP3    H2 4093   4.732   2.169   3.806  0.3796 -0.1220  0.7706
 1363TIP3   OH2 4094   6.142   5.574   5.053  0.1819 -0.2154  0.0829
 1363TIP3    H1 4095   6.151   5.577   4.958 -0.7104 -0.4054 -0.0125
 1363TIP3    H2 4096   6.199   5.644   5.084 -0.3048  0.5287 -0.6557
 1364TIP3   OH2 4097   1.878   5.565   3.184 -0.5004  0.4457 -0.1635
 1364TIP3    H1 4098   1.877   5.646   3.235 -0.2746  0.2047  0.2315
 1364TIP3    H2 4099   1.786   5.547   3.164 -0.7200 -0.0912  1.1894
 1365TIP3   OH2 4100   5.569   4.370   4.664  0.1515 -0.3605 -0.0462
 1365TIP3    H1 4101   5.652   4.321   4.659  1.9072  2.1573  1.8053
 1365TIP3    H2 4102   5.571   4.427   4.588 -0.4194 -0.9778 -0.5399
 1366TIP3   OH2 4103   1.233   1.825   0.579  0.4052 -0.3702  0.0158
 1366TIP3    H1 4104   1.161   1.868   0.626  0.8210  2.5695 -1.7179
 1366TIP3    H2 4105   1.302   1.891   0.576  1.6774 -1.6818 -1.6981
 1367TIP3   OH2 4106   4.825   5.641   4.126  0.5358  0.1316 -0.0601
 1367TIP3    H1 4107   4.745   5.664   4.078 -0.2859  0.0079  1.1863
 1367TIP3    H2 4108   4.853   5.559   4.088  0.1387  0.2498 -0.6139
 1368TIP3   OH2 4109   4.782   0.696   1.216 -0.5039  0.3323 -0.4515
 1368TIP3    H1 4110   4.742   0.609   1.219 -0.8152  0.4878  0.1518
 1368TIP3    H2 4111   4.830   0.702   1.299 -0.2953  0.6493 -0.5942
 1369TIP3   OH2 4112   5.019   3.977   4.014 -0.0299  0.1731 -0.1035
 1369TIP3    H1 4113   5.106   3.945   3.990  0.9473  1.5033  1.4839
 1369TIP3    H2 4114   4.973   3.899   4.047  0.1466 -0.7489 -1.9157
 1370TIP3   OH2 4115   5.370   2.453   2.732 -0.4547 -0.1074 -0.1587
 1370TIP3    H1 4116   5.432   2.382   2.714 -0.0841  0.1614  0.0490
 1370TIP3    H2 4117   5.413   2.506   2.798 -0.3288  0.8264 -0.9696
 1371TIP3   OH2 4118   1.836   2.343   4.050  0.5397  0.0920 -0.3924
 1371TIP3    H1 4119   1.741   2.352   4.045  0.3847 -0.8010  0.4964
 1371TIP3    H2 4120   1.867   2.363   3.962 -0.5054  0.0413 -0.7860
 1372TIP3   OH2 4121   3.224   2.131   3.118 -0.5362  0.0968 -0.0906
 1372TIP3    H1 4122   3.193   2.068   3.053  1.7481  1.1493 -2.3788
 1372TIP3    H2 4123   3.317   2.141   3.099  1.0202 -1.4729  5.1132
 1373TIP3   OH2 4124   3.458   0.082   4.621  0.0601 -0.4717  0.4688
 1373TIP3    H1 4125   3.452   0.074   4.526  1.7880  1.4673  0.1314
 1373TIP3    H2 4126   3.507   0.004   4.648  0.2135 -0.6613 -0.3242
 1374TIP3   OH2 4127   0.471   2.889   4.756 -0.1287  0.4311  0.6753
 1374TIP3    H1 4128   0.403   2.881   4.689 -0.2810 -1.7404  1.0291
 1374TIP3    H2 4129   0.527   2.960   4.724 -1.1954  0.6464 -0.8424
 1375TIP3   OH2 4130   5.842   3.449   1.323  0.1151  0.3336 -0.1464
 1375TIP3    H1 4131   5.748   3.468   1.326  0.1302  0.2752  0.8050
 1375TIP3    H2 4132   5.847   3.358   1.293 -0.2538 -0.4396  1.9502
 1376TIP3   OH2 4133   4.949   1.957   0.246  0.2453 -0.4855  0.8860
 1376TIP3    H1 4134   4.951   1.919   0.334  0.0805  1.1834  1.6417
 1376TIP3    H2 4135   4.919   2.047   0.259  0.2368 -0.1946 -0.8829
 1377TIP3   OH2 4136   1.252   5.850   3.843 -0.0557  0.0065  0.3346
 1377TIP3    H1 4137   1.299   5.899   3.776  0.6843  0.6199  1.2741
 1377TIP3    H2 4138   1.287   5.762   3.837 -0.2967 -0.0514 -0.3519
 1378TIP3   OH2 4139   4.022   1.741   2.213  0.6919  0.1301 -0.1645
 1378TIP3    H1 4140   4.007   1.831   2.183  1.4155 -0.1913 -1.5883
 1378TIP3    H2 4141   4.104   1.744   2.261 -0.5927  0.6954  2.1354
 1379TIP3   OH2 4142   2.730   4.117   3.445  0.0173  0.1083  0.8338
 1379TIP3    H1 4143   2.700   4.042   3.393  1.1972  1.0316 -1.2863
 1379TIP3    H2 4144   2.747   4.080   3.532  1.0811 -2.2214 -0.2800
 1380TIP3   OH2 4145   4.204   4.932   3.307 -0.1823  0.3061  0.0151
 1380TIP3    H1 4146   4.281   4.989   3.312 -1.1796  1.6305  1.2426
 1380TIP3    H2 4147   4.240   4.843   3.299  1.4516  0.9119  0.2565
 1381TIP3   OH2 4148   2.988   5.231   4.889 -0.2161  0.2724  0.6771
 1381TIP3    H1 4149   2.962   5.143   4.863 -0.9077  0.0004  2.1574
 1381TIP3    H2 4150   2.946   5.289   4.826 -0.7907 -0.4035  0.4267
 1382TIP3   OH2 4151   1.123   2.308   3.811 -0.1697  0.0780 -0.4709
 1382TIP3    H1 4152   1.138   2.360   3.890  0.6211 -0.7044 -0.0934
 1382TIP3    H2 4153   1.042   2.260   3.829  0.7596 -1.2037  0.4907
 1383TIP3   OH2 4154   2.744   4.864   3.415  0.1327 -0.1527 -0.0967
 1383TIP3    H1 4155   2.685   4.917   3.470 -2.2905 -2.5550 -0.1846
 1383TIP3    H2 4156   2.704   4.866   3.329  1.6050  0.1242 -0.8060
 1384TIP3   OH2 4157   0.407   2.355   2.662  0.0763  0.4052  0.2559
 1384TIP3    H1 4158   0.327   2.310   2.635 -0.9368  2.2319  0.0661
 1384TIP3    H2 4159   0.382   2.405   2.739  0.9124  1.3687 -0.0746
 1385TIP3   OH2 4160   5.377   4.972   0.405 -0.2662  0.4253  0.0696
 1385TIP3    H1 4161   5.372   4.966   0.309 -0.5615 -1.1792  0.1699
 1385TIP3    H2 4162   5.317   5.044   0.427 -0.1440  0.8560 -0.9434
 1386TIP3   OH2 4163   3.738   5.472   1.504 -0.3982 -0.2818  0.2180
 1386TIP3    H1 4164   3.648   5.439   1.505  0.0038 -1.6509 -2.2608
 1386TIP3    H2 4165   3.760   5.481   1.411  2.3585 -0.9281  0.7180
 1387TIP3   OH2 4166   5.748   0.761   1.784 -0.2655 -0.1817  0.2883
 1387TIP3    H1 4167   5.748   0.666   1.787  0.6982 -0.3297 -2.2690
 1387TIP3    H2 4168   5.665   0.785   1.744  0.1699 -0.0543 -0.5600
 1388TIP3   OH2 4169   4.828   1.739   5.130 -0.0555  0.2464  0.1776
 1388TIP3    H1 4170   4.828   1.664   5.071  1.1925 -0.4884  1.0630
 1388TIP3    H2 4171   4.806   1.814   5.074 -1.6215 -0.7861 -0.6702
 1389TIP3   OH2 4172   3.365   2.676   4.764 -0.9628 -0.5551  0.9260
 1389TIP3    H1 4173   3.420   2.626   4.825  0.0416  1.3127  1.6284
 1389TIP3    H2 4174   3.426   2.709   4.698 -1.5323  0.1105  0.7205
 1390TIP3   OH2 4175   4.416   0.951   3.362  0.6469 -0.1227 -0.1541
 1390TIP3    H1 4176   4.499   0.911   3.387  0.1553 -0.2979  1.2953
 1390TIP3    H2 4177   4.386   0.900   3.286  1.5919 -0.3860 -0.3671
 1391TIP3   OH2 4178   5.551   1.639   2.364  0.3623 -0.2950  0.3353
 1391TIP3    H1 4179   5.474   1.637   2.419 -0.1692 -0.1232 -0.3920
 1391TIP3    H2 4180   5.614   1.693   2.412 -0.2642  0.2598  0.5446
 1392TIP3   OH2 4181   3.439   1.752   4.360 -0.1044 -0.2596  0.1389
 1392TIP3    H1 4182   3.411   1.842   4.345  0.2658 -0.4821 -2.1365
 1392TIP3    H2 4183   3.517   1.760   4.415  1.6278  1.0602 -2.3155
 1393TIP3   OH2 4184   0.771   2.322   1.316 -0.3685 -0.1064 -0.2021
 1393TIP3    H1 4185   0.718   2.308   1.394 -1.2763  2.4482 -0.2708
 1393TIP3    H2 4186   0.716   2.373   1.258  1.6509  1.4756 -0.8514
 1394TIP3   OH2 4187   2.863   5.691   1.162  0.7517 -0.1678  0.4076
 1394TIP3    H1 4188   2.825   5.604   1.162 -1.8734  0.8983  0.0205
 1394TIP3    H2 4189   2.944   5.682   1.112 -0.2280 -2.0832 -0.9349
 1395TIP3   OH2 4190   5.323   2.958   2.466 -0.0870 -0.2366 -0.7358
 1395TIP3    H1 4191   5.261   2.890   2.491  0.8903 -1.6413 -1.9960
 1395TIP3    H2 4192   5.314   2.966   2.371 -0.2891  1.5171 -0.5936
 1396TIP3   OH2 4193   0.897   3.155   2.251  0.1262 -0.3878  0.2243
 1396TIP3    H1 4194   0.949   3.224   2.210 -1.5304 -0.0066 -1.3457
 1396TIP3    H2 4195   0.927   3.155   2.342  1.5880  1.0095 -0.1923
 1397TIP3   OH2 4196   0.311   4.171   3.990  1.1355  0.2345  0.0594
 1397TIP3    H1 4197   0.383   4.110   4.001  0.9980  0.0356 -0.1374
 1397TIP3    H2 4198   0.276   4.152   3.903  0.3069 -0.2445  0.4841
 1398TIP3   OH2 4199   1.756   1.951   4.967 -0.3462 -0.1862 -0.1800
 1398TIP3    H1 4200   1.753   2.046   4.955  0.8545  0.0178  0.9068
 1398TIP3    H2 4201   1.773   1.939   5.060  1.8382 -1.3849 -0.6565
 1399TIP3   OH2 4202   0.034   5.389   1.802 -0.4384 -0.2473 -0.5635
 1399TIP3    H1 4203   0.048   5.455   1.869 -0.2744  0.1329 -0.9657
 1399TIP3    H2 4204  -0.035   5.333   1.837 -0.4345  0.0134 -0.1310
 1400TIP3   OH2 4205   1.446   5.127   3.903 -0.4879  0.2245  0.5252
 1400TIP3    H1 4206   1.475   5.174   3.981 -1.2501 -0.0921  1.0136
 1400TIP3    H2 4207   1.454   5.034   3.926 -1.8324  0.1262  0.6801
 1401TIP3   OH2 4208   4.085   2.802   4.733  0.1233 -0.1714  0.3811
 1401TIP3    H1 4209   4.088   2.750   4.652  0.8951 -0.5335  0.6315
 1401TIP3    H2 4210   4.038   2.747   4.795  1.3087 -0.7821  0.7729
 1402TIP3   OH2 4211   2.452   0.593   1.637  0.3510 -0.3065  0.5001
 1402TIP3    H1 4212   2.435   0.498   1.639  0.0572 -0.2527  2.2492
 1402TIP3    H2 4213   2.413   0.626   1.718  0.4586  1.3245 -0.0774
 1403TIP3   OH2 4214   4.859   3.791   4.151 -0.1029 -0.5028  0.0972
 1403TIP3    H1 4215   4.803   3.714   4.162  0.5105 -1.4156 -2.4394
 1403TIP3    H2 4216   4.800   3.860   4.119 -0.3266 -0.4701  0.5763
 1404TIP3   OH2 4217   3.116   0.054   4.882  0.4106  0.2876  0.4798
 1404TIP3    H1 4218   3.168   0.134   4.876 -0.7690  1.0452 -0.0142
 1404TIP3    H2 4219   3.124   0.014   4.796  0.3426  0.3026  0.4664
 1405TIP3   OH2 4220   5.865   3.425   0.043  0.2869 -0.5198 -0.2056
 1405TIP3    H1 4221   5.958   3.437   0.022  0.1537  1.0834  0.0331
 1405TIP3    H2 4222   5.818   3.482  -0.017 -0.4094  0.1826  0.9613
 1406TIP3   OH2 4223   0.000   3.958   0.442  0.2832  0.3921  0.0515
 1406TIP3    H1 4224   0.022   3.924   0.355  0.0303  0.5111 -0.0594
 1406TIP3    H2 4225   0.076   4.011   0.467  1.9531 -2.4018  1.3912
 1407TIP3   OH2 4226   5.452   2.646   0.470  0.2852  0.3764  0.2387
 1407TIP3    H1 4227   5.466   2.552   0.468  1.6422  0.5708 -0.3176
 1407TIP3    H2 4228   5.444   2.672   0.378 -0.1737  0.7958  0.3883
 1408TIP3   OH2 4229   3.705   2.640   4.540  0.3328  0.0874  0.2714
 1408TIP3    H1 4230   3.722   2.586   4.464  3.0892  1.5425 -0.2682
 1408TIP3    H2 4231   3.631   2.696   4.514  0.7818  0.0790 -1.0864
 1409TIP3   OH2 4232   2.773   4.243   4.215  0.0733 -0.2063  0.2533
 1409TIP3    H1 4233   2.710   4.200   4.159 -0.7250  0.8869  0.2762
 1409TIP3    H2 4234   2.854   4.193   4.204 -0.6780 -1.3732 -0.0891
 1410TIP3   OH2 4235   1.584   4.015   3.712 -0.5699  0.5281  0.2223
 1410TIP3    H1 4236   1.500   4.017   3.667 -1.1070  0.0164  1.1677
 1410TIP3    H2 4237   1.621   3.929   3.692 -0.7696  0.3338  0.6645
 1411TIP3   OH2 4238   2.069   1.818   1.536 -0.2147 -0.8835 -0.1545
 1411TIP3    H1 4239   2.098   1.889   1.479  0.0905 -0.7489  0.1696
 1411TIP3    H2 4240   1.995   1.779   1.489 -0.5105 -0.2300 -0.2386
 1412TIP3   OH2 4241   0.295   5.399   1.452 -0.3775 -0.8490 -0.5282
 1412TIP3    H1 4242   0.218   5.347   1.478 -0.3976 -0.6001 -0.0852
 1412TIP3    H2 4243   0.350   5.402   1.530 -0.3212 -0.3051 -0.5816
 1413TIP3   OH2 4244   0.499   4.236   0.540 -0.4138 -0.4766 -0.4638
 1413TIP3    H1 4245   0.492   4.303   0.609  1.3468  0.1834 -0.8850
 1413TIP3    H2 4246   0.546   4.164   0.582  0.4066 -0.1888 -0.8687
 1414TIP3   OH2 4247   5.182   1.110   0.938 -0.0995 -0.0910  0.2201
 1414TIP3    H1 4248   5.250   1.048   0.910 -0.0358 -0.0006  0.1748
 1414TIP3    H2 4249   5.224   1.161   1.007 -0.4707 -0.7695  0.9765
 1415TIP3   OH2 4250   0.409   1.848   0.104  0.3637  0.5245  0.0537
 1415TIP3    H1 4251   0.403   1.935   0.064 -2.7368 -0.5481 -2.2848
 1415TIP3    H2 4252   0.336   1.846   0.166  0.1454 -0.5450 -0.2306
 1416TIP3   OH2 4253   0.626   5.104   4.074  0.2259 -0.3333 -0.0553
 1416TIP3    H1 4254   0.596   5.014   4.062  2.7021 -1.1157 -0.9788
 1416TIP3    H2 4255   0.562   5.157   4.026 -1.2894 -1.5443  0.5157
 1417TIP3   OH2 4256   5.267   5.061   2.426 -0.4714 -0.5256  0.5664
 1417TIP3    H1 4257   5.199   5.053   2.492 -0.4744 -1.0398  0.5062
 1417TIP3    H2 4258   5.221   5.055   2.342 -0.0436 -4.9097  0.4294
 1418TIP3   OH2 4259   6.205   5.446   2.553  0.3107 -0.0108  1.0486
 1418TIP3    H1 4260   6.131   5.388   2.537 -0.1485  0.5995  0.9389
 1418TIP3    H2 4261   6.181   5.527   2.509  1.7052 -0.2925 -0.3186
 1419TIP3   OH2 4262   5.240   1.281   1.160  0.1418  0.4415 -0.9983
 1419TIP3    H1 4263   5.300   1.213   1.191 -1.1245 -0.3575 -0.2242
 1419TIP3    H2 4264   5.296   1.359   1.149  1.1244  0.0638  0.8480
 1420TIP3   OH2 4265   0.921   2.018   2.304 -0.3437 -0.1884  0.5403
 1420TIP3    H1 4266   1.012   1.993   2.323  0.7992  2.6989 -0.5861
 1420TIP3    H2 4267   0.913   2.106   2.339 -2.5636 -0.1659  0.0970
 1421TIP3   OH2 4268   0.979   2.341   0.881  0.5598 -0.1955 -0.1651
 1421TIP3    H1 4269   0.989   2.345   0.977  1.5051  1.2522 -0.2960
 1421TIP3    H2 4270   1.012   2.425   0.850 -0.9134 -0.1248 -1.6899
 1422TIP3   OH2 4271   5.270   0.325   2.418 -0.1207 -0.4007  0.0224
 1422TIP3    H1 4272   5.298   0.286   2.335 -0.4080  0.0085 -0.2732
 1422TIP3    H2 4273   5.322   0.405   2.425 -0.1322 -0.4105  0.2094
 1423TIP3   OH2 4274   5.119   4.803   2.831 -0.0518  0.5315  0.1337
 1423TIP3    H1 4275   5.105   4.884   2.880  0.5802 -0.3601  1.8800
 1423TIP3    H2 4276   5.063   4.811   2.754 -3.5404  0.7121  2.4769
 1424TIP3   OH2 4277   4.038   1.844   1.312 -0.1549  0.0956  0.0866
 1424TIP3    H1 4278   4.051   1.918   1.253 -0.5001 -1.0147 -1.4647
 1424TIP3    H2 4279   3.950   1.857   1.347  0.0041  0.7097  0.2616
 1425TIP3   OH2 4280   1.718   3.023   1.574 -0.0810  0.2427 -0.0910
 1425TIP3    H1 4281   1.633   2.993   1.606 -0.8852  1.5211 -0.9502
 1425TIP3    H2 4282   1.723   2.991   1.484  0.3272  0.2174 -0.0617
 1426TIP3   OH2 4283   3.153   5.417   1.266 -0.3146 -0.2035  0.0672
 1426TIP3    H1 4284   3.160   5.510   1.287 -0.6689 -0.0756 -0.3566
 1426TIP3    H2 4285   3.142   5.374   1.350 -2.3715  0.3634  0.1359
 1427TIP3   OH2 4286   4.023   5.135   4.395  0.3941  0.1048  0.1892
 1427TIP3    H1 4287   4.090   5.071   4.421  0.3292 -0.7962 -1.6896
 1427TIP3    H2 4288   3.969   5.089   4.332 -1.5002  1.1170  1.0046
 1428TIP3   OH2 4289   4.537   3.862   1.269 -0.1507  0.7636 -0.3362
 1428TIP3    H1 4290   4.573   3.933   1.217  1.2892 -1.1495 -2.1418
 1428TIP3    H2 4291   4.534   3.895   1.359  0.3397  3.0807 -1.1297
 1429TIP3   OH2 4292   1.226   4.965   1.369 -0.7315 -0.5840  0.2012
 1429TIP3    H1 4293   1.201   4.904   1.439  2.0778 -2.1354  0.0249
 1429TIP3    H2 4294   1.226   4.912   1.290  1.6537 -0.4241  0.0218
 1430TIP3   OH2 4295   2.592   1.498   5.175 -0.4936 -0.2826  0.2429
 1430TIP3    H1 4296   2.565   1.587   5.198 -1.5941 -0.7145  0.6937
 1430TIP3    H2 4297   2.510   1.451   5.159  0.1176 -0.8831 -1.3142
 1431TIP3   OH2 4298   1.776   4.357   2.720  0.1678  0.3518  0.4857
 1431TIP3    H1 4299   1.713   4.429   2.728  1.3641  1.3214  1.7683
 1431TIP3    H2 4300   1.858   4.394   2.754  0.9964 -1.3990  0.4759
 1432TIP3   OH2 4301   4.030   1.274   0.605 -0.4170  0.3136 -0.7038
 1432TIP3    H1 4302   4.086   1.196   0.609 -1.1100 -0.1444  2.0484
 1432TIP3    H2 4303   4.086   1.342   0.569  1.1792 -0.6989 -0.2405
 1433TIP3   OH2 4304   0.071   5.054   4.084 -0.5863  1.0828 -0.3322
 1433TIP3    H1 4305   0.135   5.079   4.016  0.7969  1.0947  0.9240
 1433TIP3    H2 4306  -0.011   5.094   4.055 -0.0485  1.0587 -2.0182
 1434TIP3   OH2 4307   2.248   5.818   3.741 -0.4920 -0.2654 -0.0797
 1434TIP3    H1 4308   2.163   5.835   3.700 -0.6642 -1.8147 -0.4012
 1434TIP3    H2 4309   2.229   5.754   3.810  0.4055 -0.5219 -0.0669
 1435TIP3   OH2 4310   4.642   5.020   0.166 -0.2107 -0.4402 -0.2304
 1435TIP3    H1 4311   4.677   5.106   0.191 -0.5692 -0.0778 -0.9107
 1435TIP3    H2 4312   4.547   5.035   0.157 -0.6822 -1.5669  2.2422
 1436TIP3   OH2 4313   1.501   3.736   3.929  0.4629  0.2309  0.1392
 1436TIP3    H1 4314   1.408   3.756   3.925  0.5448  0.5070 -0.5142
 1436TIP3    H2 4315   1.504   3.641   3.942  0.0933  0.3570  1.2270
 1437TIP3   OH2 4316   5.838   1.422   3.469  0.2096 -0.2272 -0.1222
 1437TIP3    H1 4317   5.769   1.376   3.516  1.8689  0.7544  3.6880
 1437TIP3    H2 4318   5.884   1.354   3.421  0.7676 -2.1939  2.9438
 1438TIP3   OH2 4319   0.283   2.852   2.343  0.1073  0.0778  0.1667
 1438TIP3    H1 4320   0.278   2.912   2.417 -1.6671  1.0007 -0.6424
 1438TIP3    H2 4321   0.214   2.787   2.360 -0.3536  0.3302 -0.6767
 1439TIP3   OH2 4322   2.970   0.883   2.833  0.6449 -0.9652 -0.1066
 1439TIP3    H1 4323   2.944   0.864   2.923 -0.3234  2.4079  0.4302
 1439TIP3    H2 4324   3.065   0.890   2.837  0.4817  1.2813  1.1983
 1440TIP3   OH2 4325   6.270   3.092   0.458 -0.6177  0.6428 -0.1971
 1440TIP3    H1 4326   6.265   3.116   0.366 -0.2072  2.7059  0.2799
 1440TIP3    H2 4327   6.196   3.136   0.499  0.3894  1.5024  0.7766
 1441TIP3   OH2 4328   3.077   0.389   5.117  0.1475 -0.5374 -0.0946
 1441TIP3    H1 4329   3.118   0.468   5.154 -0.3295 -0.4163  0.1817
 1441TIP3    H2 4330   3.134   0.317   5.144  0.6559 -0.2764 -0.4537
 1442TIP3   OH2 4331   6.225   2.644   4.486  0.2102  0.5532  0.2542
 1442TIP3    H1 4332   6.299   2.601   4.528  0.7086  1.2849  0.1464
 1442TIP3    H2 4333   6.151   2.587   4.505  0.5747  0.4303  1.3875
 1443TIP3   OH2 4334   4.808   5.351   1.160  0.1866 -0.1071  0.4542
 1443TIP3    H1 4335   4.749   5.398   1.100  0.4586  1.4464  1.3572
 1443TIP3    H2 4336   4.775   5.372   1.247 -1.0946 -3.5234  0.9171
 1444TIP3   OH2 4337   4.831   4.521   4.508  0.5795 -0.0947  0.3846
 1444TIP3    H1 4338   4.900   4.556   4.451  0.9249  0.1145  0.9175
 1444TIP3    H2 4339   4.879   4.483   4.583  0.3083 -2.6065 -0.6087
 1445TIP3   OH2 4340   5.705   0.543   5.105  0.0228 -0.5726 -0.2142
 1445TIP3    H1 4341   5.718   0.630   5.143 -1.2793 -0.4695  0.0458
 1445TIP3    H2 4342   5.707   0.557   5.011 -0.7567 -0.1507 -0.1762
 1446TIP3   OH2 4343   0.674   1.943   2.409  0.2287 -0.4088 -0.9369
 1446TIP3    H1 4344   0.765   1.949   2.382  0.8008 -0.3392  0.8304
 1446TIP3    H2 4345   0.661   1.851   2.430  0.0171 -0.3482 -0.7954
 1447TIP3   OH2 4346   1.458   1.201   4.293 -0.0516 -0.2720 -0.3761
 1447TIP3    H1 4347   1.497   1.270   4.345  0.2645 -1.1597  0.6074
 1447TIP3    H2 4348   1.530   1.140   4.275 -0.4703 -0.7115 -0.6069
 1448TIP3   OH2 4349   1.523   1.773   5.040  0.0319 -0.4424 -0.3064
 1448TIP3    H1 4350   1.604   1.792   4.993  0.9390 -2.7236  0.2191
 1448TIP3    H2 4351   1.460   1.752   4.971 -0.0816  1.0678 -0.7023
 1449TIP3   OH2 4352   4.570   4.016   2.581  0.3356  0.0717  0.2653
 1449TIP3    H1 4353   4.540   4.053   2.498  1.0978 -0.1264 -0.1061
 1449TIP3    H2 4354   4.537   4.077   2.648 -0.1122  0.3385 -0.1896
 1450TIP3   OH2 4355   2.138   5.182   4.211 -0.0457  0.4609 -0.1756
 1450TIP3    H1 4356   2.179   5.129   4.278 -1.8144 -0.3484  0.3159
 1450TIP3    H2 4357   2.155   5.135   4.129  0.0656  0.1607  0.0189
 1451TIP3   OH2 4358   1.996   0.555   2.822  0.1162  0.1224 -0.0346
 1451TIP3    H1 4359   2.062   0.582   2.886  0.8822 -0.8475 -0.3872
 1451TIP3    H2 4360   1.955   0.637   2.793  0.4908  0.6576  0.8998
 1452TIP3   OH2 4361   0.764   2.788   1.828  0.3404 -0.1438  0.0125
 1452TIP3    H1 4362   0.824   2.797   1.903 -0.9008 -1.8139  1.2778
 1452TIP3    H2 4363   0.817   2.750   1.759  0.9121 -1.0045  0.9004
 1453TIP3   OH2 4364   5.441   0.049   2.809  0.3418  0.0509  0.0123
 1453TIP3    H1 4365   5.474   0.031   2.897 -0.4793  0.8588  0.5042
 1453TIP3    H2 4366   5.460   0.142   2.795 -1.5216  0.5160  0.2551
 1454TIP3   OH2 4367   4.539   4.167   2.357  0.3421  0.1107 -0.2722
 1454TIP3    H1 4368   4.480   4.222   2.408  0.7746 -0.8358  1.2887
 1454TIP3    H2 4369   4.611   4.225   2.332 -1.2094  1.3216 -2.3214
 1455TIP3   OH2 4370   5.772   0.018   4.293 -0.1711 -0.8127  1.0554
 1455TIP3    H1 4371   5.768  -0.059   4.350  1.8543 -2.7589 -1.2026
 1455TIP3    H2 4372   5.853   0.063   4.320 -0.9365  0.1268  1.8437
 1456TIP3   OH2 4373   5.407   2.566   1.537  0.4176 -0.1524 -0.7466
 1456TIP3    H1 4374   5.321   2.573   1.578  0.6232 -1.5049 -0.0295
 1456TIP3    H2 4375   5.398   2.492   1.476  1.4959 -1.4108  0.5482
 1457TIP3   OH2 4376   1.826   4.813   1.959  0.0662  0.5074 -0.5130
 1457TIP3    H1 4377   1.819   4.887   2.020  0.5690  0.8432 -0.8521
 1457TIP3    H2 4378   1.737   4.799   1.928 -0.4512 -0.5711  1.3288
 1458TIP3   OH2 4379   0.304   4.386   1.271  0.0733 -0.7466  0.2988
 1458TIP3    H1 4380   0.375   4.445   1.246 -1.1606  0.4172 -0.5851
 1458TIP3    H2 4381   0.322   4.305   1.223  0.1247 -0.0379 -0.9110
 1459TIP3   OH2 4382   4.818   5.494   0.754  0.1097 -0.4810 -0.3609
 1459TIP3    H1 4383   4.782   5.556   0.690  0.3776  0.8062  0.6778
 1459TIP3    H2 4384   4.791   5.530   0.839 -1.1441 -2.7096  0.2532
 1460TIP3   OH2 4385   2.840   4.309   3.895 -0.5105 -0.3367  0.1159
 1460TIP3    H1 4386   2.908   4.285   3.833  0.4793 -0.4182  1.2035
 1460TIP3    H2 4387   2.887   4.333   3.975 -1.6861  0.9419  0.4694
 1461TIP3   OH2 4388   6.163   5.194   5.056  0.0299 -0.2089 -0.3832
 1461TIP3    H1 4389   6.084   5.240   5.084  0.8486  1.8171 -1.1644
 1461TIP3    H2 4390   6.179   5.130   5.125 -3.4255 -2.2227 -1.2420
 1462TIP3   OH2 4391   6.138   3.226   0.963  0.0928 -0.2474  0.6979
 1462TIP3    H1 4392   6.082   3.285   1.013  0.6953  0.6339  0.3470
 1462TIP3    H2 4393   6.197   3.283   0.915  0.4853 -1.1278  0.1041
 1463TIP3   OH2 4394   3.140   2.607   0.636 -0.6109  0.0540 -0.1280
 1463TIP3    H1 4395   3.129   2.557   0.717  0.7940  0.5956  0.4519
 1463TIP3    H2 4396   3.052   2.616   0.600 -1.1346 -1.0563  0.8198
 1464TIP3   OH2 4397   6.127   1.159   2.731  0.0108 -0.2083 -0.2146
 1464TIP3    H1 4398   6.170   1.125   2.809 -1.1565  1.0697  1.0566
 1464TIP3    H2 4399   6.066   1.225   2.765 -1.5234 -0.5873 -2.0862
 1465TIP3   OH2 4400   5.582   4.159   1.961 -0.2673  0.4268  0.2176
 1465TIP3    H1 4401   5.641   4.155   1.886  2.2244 -0.1636  2.0797
 1465TIP3    H2 4402   5.503   4.112   1.933  1.1649 -1.0672 -1.5135
 1466TIP3   OH2 4403   2.573   1.009   3.582  0.4506 -0.5227 -0.0541
 1466TIP3    H1 4404   2.541   1.088   3.539  0.8993 -0.7502 -0.8100
 1466TIP3    H2 4405   2.660   1.032   3.615  0.3221 -0.5078  0.2774
 1467TIP3   OH2 4406   1.832   4.151   1.911 -0.4076 -0.2622  0.1626
 1467TIP3    H1 4407   1.781   4.077   1.946 -1.7694  1.3495  1.7968
 1467TIP3    H2 4408   1.895   4.170   1.981 -1.2639  1.2092  0.5697
 1468TIP3   OH2 4409   1.081   0.880   1.728 -0.3697  0.2880 -0.2975
 1468TIP3    H1 4410   1.171   0.904   1.705 -0.0366 -0.1443  0.5224
 1468TIP3    H2 4411   1.046   0.956   1.774 -0.9156  1.0115 -1.8305
 1469TIP3   OH2 4412   2.947   0.863   0.450  0.1553  0.5617  0.0102
 1469TIP3    H1 4413   2.926   0.780   0.493 -0.1141  0.1885 -0.8323
 1469TIP3    H2 4414   2.866   0.889   0.408 -0.0602  1.7914  1.1207
 1470TIP3   OH2 4415   5.848   5.686   4.756 -1.2018  0.4432  0.0596
 1470TIP3    H1 4416   5.860   5.721   4.668 -0.7069 -1.2088 -0.5555
 1470TIP3    H2 4417   5.831   5.593   4.744 -2.3368  0.3943  1.6565
 1471TIP3   OH2 4418   1.246   2.047   1.673 -0.6110 -0.2794 -1.1114
 1471TIP3    H1 4419   1.321   2.097   1.638 -0.2996 -0.3963 -0.6181
 1471TIP3    H2 4420   1.267   1.956   1.653  1.6690 -0.9005  2.9605
 1472TIP3   OH2 4421   2.213   0.809   0.796  0.2644 -0.4393  0.3527
 1472TIP3    H1 4422   2.127   0.828   0.834  0.9961  1.7056  1.0445
 1472TIP3    H2 4423   2.243   0.732   0.843 -0.9274 -0.7379  0.6656
 1473TIP3   OH2 4424   5.495   4.479   3.903 -0.4157  0.2750  0.1253
 1473TIP3    H1 4425   5.480   4.505   3.812 -0.4938 -2.3609 -0.6980
 1473TIP3    H2 4426   5.537   4.393   3.896 -0.0744  0.1865  2.5925
 1474TIP3   OH2 4427   2.175   1.782   2.741  0.1588  0.5960  0.1375
 1474TIP3    H1 4428   2.218   1.843   2.681 -0.3768 -1.7967 -2.9427
 1474TIP3    H2 4429   2.222   1.700   2.730 -0.2099 -0.0577  2.8254
 1475TIP3   OH2 4430   5.057   3.780   2.179 -0.0791  0.2751 -0.1310
 1475TIP3    H1 4431   5.081   3.853   2.121  2.2833  1.4370  2.0658
 1475TIP3    H2 4432   5.137   3.728   2.187 -1.5505 -2.3335 -1.1724
 1476TIP3   OH2 4433   1.779   3.131   5.185  0.1968  0.3483 -0.2749
 1476TIP3    H1 4434   1.803   3.194   5.117  1.3802 -0.1848 -0.3673
 1476TIP3    H2 4435   1.806   3.046   5.150  0.5076  0.0291  0.7077
 1477TIP3   OH2 4436   5.716   1.219   1.290 -0.0817 -0.0596 -0.4930
 1477TIP3    H1 4437   5.648   1.212   1.222 -0.1458  2.1078 -0.7223
 1477TIP3    H2 4438   5.740   1.311   1.289  4.1653 -0.9733 -1.6731
 1478TIP3   OH2 4439   1.448   2.986   2.776 -0.0174 -0.2215  0.2347
 1478TIP3    H1 4440   1.417   2.902   2.743 -1.5160  0.4687 -0.1948
 1478TIP3    H2 4441   1.502   3.021   2.705 -1.1083  0.0926 -0.4623
 1479TIP3   OH2 4442   6.055   1.763   3.719  0.3966 -0.5664  0.4376
 1479TIP3    H1 4443   6.105   1.845   3.720 -0.4814  0.0816 -1.8287
 1479TIP3    H2 4444   6.036   1.746   3.811  1.0761  1.4767  1.0252
 1480TIP3   OH2 4445   1.069   2.783   5.057 -0.2932  0.2575  0.0662
 1480TIP3    H1 4446   1.083   2.864   5.107 -2.4517 -0.0104  1.2341
 1480TIP3    H2 4447   0.983   2.753   5.084 -0.3502 -1.4485 -1.7829
 1481TIP3   OH2 4448   3.833   1.196   0.398 -0.2855 -0.3145 -0.7922
 1481TIP3    H1 4449   3.883   1.237   0.469 -3.0566  0.7054  0.7437
 1481TIP3    H2 4450   3.862   1.242   0.319  0.3649  1.0382  0.1923
 1482TIP3   OH2 4451   2.985   4.836   1.665  0.4277 -0.5763  0.3995
 1482TIP3    H1 4452   2.905   4.793   1.694 -0.7315  0.6473 -0.8140
 1482TIP3    H2 4453   2.999   4.906   1.730  1.4134 -1.7206  1.4689
 1483TIP3   OH2 4454   4.416   3.389   1.200 -0.6399  0.5466  0.7935
 1483TIP3    H1 4455   4.362   3.410   1.124  1.2877  1.4108 -0.4393
 1483TIP3    H2 4456   4.384   3.304   1.230 -2.9015  1.2185  0.4199
 1484TIP3   OH2 4457   0.787   1.199   1.544 -0.1794 -0.8628  0.3339
 1484TIP3    H1 4458   0.852   1.186   1.475 -1.0016 -1.5759 -0.3409
 1484TIP3    H2 4459   0.837   1.201   1.625  0.8925  0.6172 -0.3021
 1485TIP3   OH2 4460   6.189   2.323   1.261 -0.0763  0.0919 -0.4036
 1485TIP3    H1 4461   6.230   2.344   1.177 -0.5504 -0.1103 -0.6932
 1485TIP3    H2 4462   6.202   2.228   1.271  0.6869  0.2443  0.1453
 1486TIP3   OH2 4463   1.130   2.766   3.566  0.3852  0.1504  0.2698
 1486TIP3    H1 4464   1.144   2.675   3.541  2.0175  0.5894 -0.4965
 1486TIP3    H2 4465   1.057   2.795   3.510  0.1703 -0.5400  0.1820
 1487TIP3   OH2 4466   2.535   0.536   2.426 -0.5414 -0.1784  0.2144
 1487TIP3    H1 4467   2.528   0.631   2.413  1.7649  0.0660  0.3228
 1487TIP3    H2 4468   2.629   0.518   2.418 -0.6145 -2.0768  2.6622
 1488TIP3   OH2 4469   1.486   4.446   1.822 -0.4998  0.1195  0.1438
 1488TIP3    H1 4470   1.558   4.430   1.883 -1.6310  0.7980  1.7468
 1488TIP3    H2 4471   1.443   4.361   1.814 -1.9294  0.5280  2.5087
 1489TIP3   OH2 4472   1.794   0.611   0.667  0.0623 -0.7882  0.0580
 1489TIP3    H1 4473   1.798   0.601   0.572  1.7994  0.0677 -0.0030
 1489TIP3    H2 4474   1.710   0.574   0.692  0.2096 -2.3691 -1.6348
 1490TIP3   OH2 4475   6.096   1.719   0.709 -0.0840 -0.6199 -0.7266
 1490TIP3    H1 4476   6.041   1.739   0.785  0.4789  1.3561 -0.7977
 1490TIP3    H2 4477   6.117   1.804   0.671  3.3385 -1.2233 -0.4861
 1491TIP3   OH2 4478   0.942   1.869   0.079  0.2779 -0.1257 -0.2794
 1491TIP3    H1 4479   0.900   1.949   0.048  1.3420  0.4608 -0.2526
 1491TIP3    H2 4480   0.985   1.894   0.161 -1.4340 -1.3439  1.0686
 1492TIP3   OH2 4481   0.879   4.724   1.333  0.1785 -0.2059  0.6596
 1492TIP3    H1 4482   0.821   4.776   1.388  0.0185  0.8506 -0.4553
 1492TIP3    H2 4483   0.858   4.751   1.244  1.2708 -0.9755  0.1417
 1493TIP3   OH2 4484   5.722   5.267   1.786  0.4675  0.9578 -0.2365
 1493TIP3    H1 4485   5.634   5.272   1.750  0.8252  1.0533 -1.1127
 1493TIP3    H2 4486   5.710   5.226   1.872 -0.3616  0.4409 -0.5869
 1494TIP3   OH2 4487   5.174   5.054   2.149 -0.8052  0.1189  0.1894
 1494TIP3    H1 4488   5.238   5.013   2.090 -1.8044  0.6579 -1.3211
 1494TIP3    H2 4489   5.089   5.024   2.117 -1.6269  3.4286 -1.1135
 1495TIP3   OH2 4490   4.961   4.016   4.988  0.5169  0.0219 -0.4649
 1495TIP3    H1 4491   4.978   3.952   5.059  2.2177  0.5936 -0.3005
 1495TIP3    H2 4492   5.025   4.085   5.003 -1.0540  1.6308 -0.8579
 1496TIP3   OH2 4493   0.948   4.925   0.567  0.2618  0.1985  0.6039
 1496TIP3    H1 4494   1.004   4.847   0.574  0.4781  0.2602 -0.3024
 1496TIP3    H2 4495   1.003   4.996   0.599  0.8997  0.3376 -0.7500
 1497TIP3   OH2 4496   6.168   2.897   4.923 -0.6197 -0.1715 -0.0781
 1497TIP3    H1 4497   6.169   2.802   4.931 -0.7156 -0.1612  0.0506
 1497TIP3    H2 4498   6.200   2.914   4.834  0.8091 -0.2725  0.3897
 1498TIP3   OH2 4499   4.615   3.644   1.734 -0.5326 -0.0716 -0.0385
 1498TIP3    H1 4500   4.631   3.720   1.790 -0.1525 -0.6781  0.6929
 1498TIP3    H2 4501   4.523   3.653   1.709 -0.4357  0.7475 -0.1475
 1499TIP3   OH2 4502   2.694   1.144   0.054  0.4137 -0.4726 -0.4688
 1499TIP3    H1 4503   2.640   1.075   0.093  1.5311 -0.5966  0.9685
 1499TIP3    H2 4504   2.724   1.108  -0.029 -0.0093 -1.2357 -0.2951
 1500TIP3   OH2 4505   1.926   3.325   4.995 -0.0024 -0.2701  0.0118
 1500TIP3    H1 4506   1.900   3.414   4.972  1.4422 -0.2152 -1.6422
 1500TIP3    H2 4507   1.984   3.298   4.924  2.2346 -1.3185  2.0988
 1501TIP3   OH2 4508   1.292   5.340   1.624 -0.6001 -0.2668 -0.3438
 1501TIP3    H1 4509   1.244   5.306   1.549 -2.0335  2.2542 -0.6551
 1501TIP3    H2 4510   1.232   5.401   1.666  1.9113  2.2036 -0.0853
 1502TIP3   OH2 4511   3.650   5.653   2.536  0.2556  0.2539 -0.7454
 1502TIP3    H1 4512   3.657   5.731   2.480 -1.2535  0.3536 -0.8471
 1502TIP3    H2 4513   3.716   5.593   2.502 -2.0634 -0.6224 -4.2243
 1503TIP3   OH2 4514   1.619   4.263   0.091  0.4005  0.0943 -0.5736
 1503TIP3    H1 4515   1.631   4.293   0.181 -0.1654 -0.0415 -0.4512
 1503TIP3    H2 4516   1.536   4.215   0.092  0.7933 -0.6196 -0.9853
 1504TIP3   OH2 4517   2.743   0.561   0.589  0.2999 -0.3406  0.3364
 1504TIP3    H1 4518   2.676   0.590   0.526 -0.6608  1.1460  1.9467
 1504TIP3    H2 4519   2.766   0.473   0.560 -0.9479 -0.1646 -1.3974
 1505TIP3   OH2 4520   4.270   4.487   4.364 -0.1081  0.2498 -0.2274
 1505TIP3    H1 4521   4.312   4.537   4.434  0.2448 -0.6855  0.2447
 1505TIP3    H2 4522   4.324   4.505   4.287  0.5831 -0.1570  0.1535
 1506TIP3   OH2 4523   6.143   4.254   0.717 -0.5140 -0.4298  0.3254
 1506TIP3    H1 4524   6.073   4.189   0.724  0.1243 -1.0095  2.3273
 1506TIP3    H2 4525   6.223   4.203   0.736 -0.0484  0.9773  2.5262
 1507TIP3   OH2 4526   5.873   1.279   2.798  0.4061  0.1282 -0.1843
 1507TIP3    H1 4527   5.810   1.309   2.732  1.1226  0.1864 -0.8511
 1507TIP3    H2 4528   5.826   1.209   2.844 -1.1604  1.9533  1.1741
 1508TIP3   OH2 4529   3.385   1.440   0.729  0.1578 -0.0206  0.0621
 1508TIP3    H1 4530   3.297   1.475   0.715  0.1819  0.1714  0.3752
 1508TIP3    H2 4531   3.440   1.488   0.666 -0.0760 -0.6506 -0.6330
 1509TIP3   OH2 4532   2.742   2.840   2.596 -0.0539 -0.0580 -0.5331
 1509TIP3    H1 4533   2.724   2.934   2.603  1.8968  0.2706  0.8580
 1509TIP3    H2 4534   2.731   2.820   2.503 -1.1306  1.3878 -0.7591
 1510TIP3   OH2 4535   5.267   2.716   1.307  0.1762  0.3836 -0.1541
 1510TIP3    H1 4536   5.277   2.638   1.253  0.8988  0.8061 -0.6469
 1510TIP3    H2 4537   5.333   2.707   1.376 -1.0560 -0.3852  0.9822
 1511TIP3   OH2 4538   0.447   5.381   4.084 -0.4960 -0.1214  0.1672
 1511TIP3    H1 4539   0.459   5.402   3.991  0.8855 -0.4859  0.2366
 1511TIP3    H2 4540   0.443   5.466   4.127 -1.1143  0.0523 -0.2178
 1512TIP3   OH2 4541   4.688   4.875   1.577 -0.2883 -0.0187  0.2261
 1512TIP3    H1 4542   4.600   4.889   1.542 -0.9474 -0.0673  1.7647
 1512TIP3    H2 4543   4.739   4.950   1.545 -0.9617  0.1687 -0.4228
 1513TIP3   OH2 4544   0.217   5.483   4.990  0.4530  0.3339  0.0361
 1513TIP3    H1 4545   0.179   5.533   5.063 -0.8107 -0.4292 -0.0725
 1513TIP3    H2 4546   0.276   5.421   5.032 -0.7061 -0.4971  0.5019
 1514TIP3   OH2 4547   5.695   4.741   3.766 -0.0703  0.5435 -0.2809
 1514TIP3    H1 4548   5.677   4.775   3.854 -0.5570 -0.1087 -0.1190
 1514TIP3    H2 4549   5.630   4.785   3.710  0.0246  0.7116 -0.2603
 1515TIP3   OH2 4550   3.660   2.061   4.422 -0.3535  0.5411 -0.4799
 1515TIP3    H1 4551   3.635   2.009   4.499  1.8863 -2.1999 -1.4215
 1515TIP3    H2 4552   3.724   2.123   4.454 -1.1272  0.9937  0.2274
 1516TIP3   OH2 4553   0.620   2.337   4.442 -0.1138  0.1990 -0.4456
 1516TIP3    H1 4554   0.650   2.346   4.533 -0.8689 -1.1510 -0.0399
 1516TIP3    H2 4555   0.697   2.358   4.389 -0.0152  2.4058  0.4405
 1517TIP3   OH2 4556   4.415   5.029   1.742  0.0279 -0.3455  0.0312
 1517TIP3    H1 4557   4.343   5.090   1.752  0.4285 -0.2762  3.5110
 1517TIP3    H2 4558   4.430   5.025   1.647 -0.5622  4.2779 -0.4869
 1518TIP3   OH2 4559   0.798   3.407   3.699 -0.6533 -0.2732 -0.1356
 1518TIP3    H1 4560   0.772   3.364   3.780  1.3264  1.2751  1.4239
 1518TIP3    H2 4561   0.720   3.453   3.670 -1.4982 -1.1593  0.6580
 1519TIP3   OH2 4562   4.029   2.443   0.951 -0.4087  0.1075  0.0870
 1519TIP3    H1 4563   4.033   2.509   0.882 -0.5376 -0.9624 -0.9770
 1519TIP3    H2 4564   4.117   2.441   0.987  0.5695 -1.4319 -2.1380
 1520TIP3   OH2 4565   4.726   3.726   0.428  0.2005  0.0006 -0.3294
 1520TIP3    H1 4566   4.789   3.753   0.362 -1.5327 -1.2545 -2.6344
 1520TIP3    H2 4567   4.748   3.635   0.446  0.7731  0.3840  1.0227
 1521TIP3   OH2 4568   3.496   2.392   1.307 -0.1129  0.0258 -0.3979
 1521TIP3    H1 4569   3.482   2.303   1.275  2.6617 -0.8090  0.4147
 1521TIP3    H2 4570   3.441   2.398   1.385 -1.0250 -0.6229 -0.9671
 1522TIP3   OH2 4571   0.500   5.424   4.611  0.2602  0.2587  0.0413
 1522TIP3    H1 4572   0.494   5.348   4.553  1.0618 -0.4343  0.8478
 1522TIP3    H2 4573   0.521   5.497   4.552  1.0052 -0.4268 -0.5708
 1523TIP3   OH2 4574   2.445   0.306   1.601  0.1633  0.2729  0.2279
 1523TIP3    H1 4575   2.393   0.261   1.535  1.2866  0.9859 -1.1775
 1523TIP3    H2 4576   2.526   0.255   1.607 -0.0175  0.0728  1.2632
 1524TIP3   OH2 4577   2.966   1.443   1.728 -0.3533 -0.3157 -0.2292
 1524TIP3    H1 4578   3.022   1.506   1.682 -0.1579 -1.6221 -1.8597
 1524TIP3    H2 4579   2.992   1.450   1.820  1.0577  0.5477 -0.6717
 1525TIP3   OH2 4580   4.289   1.722   2.069 -0.1252 -0.4095 -0.4138
 1525TIP3    H1 4581   4.262   1.655   2.133 -0.5821 -1.5100 -1.7051
 1525TIP3    H2 4582   4.312   1.798   2.122 -0.7525 -1.1943  1.0432
 1526TIP3   OH2 4583   3.846   2.720   2.732 -0.1030  0.3996 -0.1281
 1526TIP3    H1 4584   3.860   2.781   2.659  1.6510  2.6690  1.8995
 1526TIP3    H2 4585   3.859   2.774   2.810  0.2768 -2.3579  1.8527
 1527TIP3   OH2 4586   2.487   0.580   3.352 -0.5588 -0.2175 -0.0586
 1527TIP3    H1 4587   2.450   0.537   3.275 -0.6498  0.1469 -0.2241
 1527TIP3    H2 4588   2.581   0.584   3.334 -0.4861 -0.7866  0.1816
 1528TIP3   OH2 4589   4.842   0.194   2.135  0.5772 -0.4660 -0.0682
 1528TIP3    H1 4590   4.836   0.188   2.230  0.3755  0.6038 -0.0058
 1528TIP3    H2 4591   4.874   0.108   2.107  0.3702 -0.8746  0.9387
 1529TIP3   OH2 4592   0.464   4.431   0.750 -0.1298  0.2352  0.2382
 1529TIP3    H1 4593   0.535   4.478   0.796  0.6997 -1.0519  0.3123
 1529TIP3    H2 4594   0.384   4.461   0.793  0.5121  0.3402  1.4017
 1530TIP3   OH2 4595   2.720   0.349   4.267 -0.2405  0.4604  0.3711
 1530TIP3    H1 4596   2.670   0.320   4.343 -0.4617  0.2885  0.1606
 1530TIP3    H2 4597   2.763   0.429   4.296 -1.8270  1.4684  0.1118
 1531TIP3   OH2 4598   4.698   0.622   2.781  0.1098  0.2720  0.2145
 1531TIP3    H1 4599   4.740   0.691   2.729  0.3601 -0.3446 -0.4158
 1531TIP3    H2 4600   4.621   0.665   2.818  0.0918  0.8146 -0.4225
 1532TIP3   OH2 4601   3.141   0.982   3.312  0.2031 -0.3565 -0.0019
 1532TIP3    H1 4602   3.220   0.956   3.360  2.0835  2.3648 -1.3309
 1532TIP3    H2 4603   3.174   1.038   3.241 -2.8294 -0.3719 -1.5786
 1533TIP3   OH2 4604   4.157   3.516   3.816 -0.5769 -0.3007  0.4657
 1533TIP3    H1 4605   4.177   3.485   3.904 -0.5691 -0.6785  0.3326
 1533TIP3    H2 4606   4.205   3.456   3.758 -0.8803 -0.2835  0.1948
 1534TIP3   OH2 4607   6.155   2.877   2.254 -0.2697 -0.2703 -0.5002
 1534TIP3    H1 4608   6.220   2.910   2.193 -0.5340 -0.5641 -0.9415
 1534TIP3    H2 4609   6.193   2.895   2.341  0.7764 -1.1893 -0.7489
 1535TIP3   OH2 4610   4.822   4.727   2.266 -0.5968  0.0641 -0.2144
 1535TIP3    H1 4611   4.795   4.635   2.272  0.3764 -0.4313 -2.4077
 1535TIP3    H2 4612   4.755   4.775   2.314 -0.7738 -1.8278  1.5694
 1536TIP3   OH2 4613   3.319   1.748   4.724 -0.2278  0.0301 -0.4625
 1536TIP3    H1 4614   3.240   1.723   4.675 -0.1550 -1.2389  0.0255
 1536TIP3    H2 4615   3.299   1.724   4.814  0.8205 -0.5711 -0.3736
 1537TIP3   OH2 4616   2.651   1.173   1.347  0.3824 -0.0630 -0.4783
 1537TIP3    H1 4617   2.704   1.108   1.394 -1.0473 -1.0253 -0.1179
 1537TIP3    H2 4618   2.566   1.131   1.336 -0.1767  1.2513 -1.4484
 1538TIP3   OH2 4619   2.146   4.779   2.585  0.0542 -1.2207 -0.1695
 1538TIP3    H1 4620   2.066   4.818   2.551  1.2860  0.5630 -1.1255
 1538TIP3    H2 4621   2.132   4.776   2.680 -0.9130 -0.4121 -0.2705
 1539TIP3   OH2 4622   4.909   3.723   4.883 -0.2216 -0.0272  0.7551
 1539TIP3    H1 4623   4.926   3.665   4.957  0.3847 -0.7752  0.0313
 1539TIP3    H2 4624   4.823   3.695   4.850 -1.0266  1.0426  1.8424
 1540TIP3   OH2 4625   0.118   4.532   1.888 -0.4281 -0.5183 -0.0472
 1540TIP3    H1 4626   0.150   4.488   1.810 -0.5248 -0.2252 -0.2518
 1540TIP3    H2 4627   0.150   4.478   1.961  2.7033  1.0491 -0.0936
 1541TIP3   OH2 4628   0.765   3.122   0.154  0.3963 -0.1034 -0.3256
 1541TIP3    H1 4629   0.718   3.200   0.127 -0.1743 -0.3086  0.0678
 1541TIP3    H2 4630   0.808   3.091   0.074  1.0841  0.9164 -0.3630
 1542TIP3   OH2 4631   5.503   1.755   5.037 -0.3764 -0.1858  0.0673
 1542TIP3    H1 4632   5.570   1.712   4.984 -0.1630  1.0544 -0.6848
 1542TIP3    H2 4633   5.423   1.749   4.984 -0.6415 -0.7484  0.5149
 1543TIP3   OH2 4634   0.388   1.734   4.328 -0.2175 -0.1961 -0.2895
 1543TIP3    H1 4635   0.426   1.813   4.289  0.2971  0.0245  0.6392
 1543TIP3    H2 4636   0.453   1.666   4.313 -0.4084 -0.3197 -0.5775
 1544TIP3   OH2 4637   5.896   1.020   0.266 -0.3907  0.5028 -0.0277
 1544TIP3    H1 4638   5.934   1.081   0.204 -0.9242  1.1366  0.2512
 1544TIP3    H2 4639   5.968   0.995   0.323  0.0456  0.1110 -0.7337
 1545TIP3   OH2 4640   4.448   5.949   0.182  0.1235 -0.4299 -0.3139
 1545TIP3    H1 4641   4.353   5.945   0.174  0.1184 -0.8556 -0.0751
 1545TIP3    H2 4642   4.480   5.889   0.114  0.1808 -1.1903  0.3644
 1546TIP3   OH2 4643   2.030   1.784   4.261 -0.0181 -0.7806 -0.0892
 1546TIP3    H1 4644   2.024   1.849   4.332  1.8690 -0.7846  0.1246
 1546TIP3    H2 4645   2.085   1.826   4.195  0.0619 -1.6308 -0.5769
 1547TIP3   OH2 4646   5.216   3.526   1.707  0.1000  0.2593 -0.2357
 1547TIP3    H1 4647   5.157   3.540   1.781 -0.4928 -1.1766 -0.4122
 1547TIP3    H2 4648   5.304   3.543   1.743 -0.1427 -0.7988  0.9235
 1548TIP3   OH2 4649   1.715   3.349   2.424  0.2057  0.0424 -0.2435
 1548TIP3    H1 4650   1.804   3.344   2.459  0.3718 -1.5473 -0.7975
 1548TIP3    H2 4651   1.699   3.442   2.412  0.8465  0.5317  2.2140
 1549TIP3   OH2 4652   5.693   2.027   2.840  0.3622 -0.1775  0.1278
 1549TIP3    H1 4653   5.682   1.932   2.835  1.5581 -0.3324 -0.0073
 1549TIP3    H2 4654   5.631   2.055   2.906 -3.8884 -0.3122 -3.3520
 1550TIP3   OH2 4655   4.383   0.651   1.026 -0.1771  0.7463  0.1825
 1550TIP3    H1 4656   4.301   0.681   0.988 -0.4132  0.0722  0.1402
 1550TIP3    H2 4657   4.417   0.588   0.962 -1.4110 -1.7043  1.8053
 1551TIP3   OH2 4658   1.246   1.452   2.860  0.2469 -0.1564 -0.0029
 1551TIP3    H1 4659   1.183   1.458   2.932  0.5426 -1.3093  0.3707
 1551TIP3    H2 4660   1.311   1.388   2.889 -0.0551 -1.2683 -1.6004
 1552TIP3   OH2 4661   0.531   0.661   2.803 -0.3524  0.3157 -0.2956
 1552TIP3    H1 4662   0.616   0.669   2.846 -0.2948 -0.3641 -0.2778
 1552TIP3    H2 4663   0.472   0.629   2.871 -0.4383 -0.0124 -0.5260
 1553TIP3   OH2 4664   6.108   2.185   4.512  0.1223 -0.0708 -0.7548
 1553TIP3    H1 4665   6.193   2.200   4.469  0.0815 -0.7155 -1.0804
 1553TIP3    H2 4666   6.082   2.098   4.482 -0.3729 -0.1249 -0.1750
 1554TIP3   OH2 4667   1.992   0.180   0.161 -0.0013 -0.1911  0.6056
 1554TIP3    H1 4668   2.073   0.172   0.111  0.7119  2.3292  1.2103
 1554TIP3    H2 4669   1.937   0.108   0.130  1.7133 -0.7865 -1.2385
 1555TIP3   OH2 4670   3.450   2.986   3.400  0.5213 -0.1221  0.1525
 1555TIP3    H1 4671   3.359   2.969   3.378  0.4639  1.2655 -0.8598
 1555TIP3    H2 4672   3.489   3.015   3.317  2.0029 -1.1400  0.4595
 1556TIP3   OH2 4673   1.143   4.693   0.294 -0.5309  0.3709 -0.3559
 1556TIP3    H1 4674   1.171   4.703   0.385 -1.0482  2.7053 -0.3867
 1556TIP3    H2 4675   1.185   4.765   0.247  0.1177 -1.0514 -2.1144
 1557TIP3   OH2 4676   4.810   4.106   3.346 -0.1684 -0.0949  0.1974
 1557TIP3    H1 4677   4.758   4.109   3.427  2.1866 -0.2645  1.7995
 1557TIP3    H2 4678   4.826   4.013   3.332 -0.2498 -0.0378 -0.2705
 1558TIP3   OH2 4679   2.909   5.072   5.187  0.3944 -0.2088  0.3365
 1558TIP3    H1 4680   2.846   5.041   5.122 -0.9643 -0.2731  1.6200
 1558TIP3    H2 4681   2.890   5.166   5.194 -0.3990 -0.4368  1.5607
 1559TIP3   OH2 4682   3.538   5.284   0.764 -0.0862 -0.0548 -0.0081
 1559TIP3    H1 4683   3.559   5.329   0.682  0.2934  1.0096  0.6470
 1559TIP3    H2 4684   3.594   5.206   0.764  2.2321  1.4856  0.5777
 1560TIP3   OH2 4685   0.649   4.460   0.961  0.5668  0.0718 -0.7287
 1560TIP3    H1 4686   0.733   4.493   0.994 -0.0521  0.7536  0.2061
 1560TIP3    H2 4687   0.602   4.431   1.039 -0.6979  1.1812 -1.0547
 1561TIP3   OH2 4688   3.916   4.161   2.445 -0.3924  0.8018  0.2687
 1561TIP3    H1 4689   3.918   4.139   2.352  2.0355 -0.3733  0.5168
 1561TIP3    H2 4690   3.976   4.236   2.454  1.0231 -0.3602  1.0846
 1562TIP3   OH2 4691   5.878   1.006   0.839  0.2458 -0.4162  0.1970
 1562TIP3    H1 4692   5.886   1.101   0.825 -1.4919 -0.3571 -0.7143
 1562TIP3    H2 4693   5.835   0.999   0.924 -0.6104 -0.3096 -0.2066
 1563TIP3   OH2 4694   0.402   0.274   0.510 -0.2797 -0.0409  0.0431
 1563TIP3    H1 4695   0.447   0.299   0.591  0.8494  1.9111 -1.0930
 1563TIP3    H2 4696   0.390   0.357   0.464 -2.4536 -0.8941 -1.0391
 1564TIP3   OH2 4697   0.051   3.152   4.517  0.1617 -0.2161  0.0585
 1564TIP3    H1 4698   0.032   3.163   4.424  2.2341 -0.2269 -0.4239
 1564TIP3    H2 4699   0.114   3.222   4.536  0.0276 -0.4386  1.3750
 1565TIP3   OH2 4700   1.303   4.878   4.157 -0.3435  0.2687  0.2285
 1565TIP3    H1 4701   1.299   4.959   4.207 -3.0591 -0.2498  0.9645
 1565TIP3    H2 4702   1.345   4.815   4.216 -1.0534  0.3584  0.8379
 1566TIP3   OH2 4703   2.546   6.011   4.736 -0.2598 -0.5787  0.0799
 1566TIP3    H1 4704   2.498   6.003   4.818  0.9785  0.5351  0.9645
 1566TIP3    H2 4705   2.508   5.945   4.678 -1.0141 -1.5300  1.6181
 1567TIP3   OH2 4706   4.302   1.521   4.651  0.4127  0.6839 -0.3968
 1567TIP3    H1 4707   4.290   1.439   4.699  0.2647  1.5555  1.1088
 1567TIP3    H2 4708   4.361   1.572   4.706  1.4761  1.1559 -1.8937
 1568TIP3   OH2 4709   1.830   5.717   3.446  0.5776  0.0722  0.0743
 1568TIP3    H1 4710   1.838   5.768   3.365  3.5144  1.9461  1.3608
 1568TIP3    H2 4711   1.798   5.780   3.510  0.9338 -0.6382  0.9714
 1569TIP3   OH2 4712   0.497   1.262   0.514  0.0393 -0.4654  0.0923
 1569TIP3    H1 4713   0.480   1.234   0.605 -0.2892 -0.3486  0.0686
 1569TIP3    H2 4714   0.592   1.260   0.506  0.0815 -0.2568  0.5093
 1570TIP3   OH2 4715   1.806   0.970   3.538  0.3199  0.1257 -0.4520
 1570TIP3    H1 4716   1.891   0.990   3.578  0.5277 -1.5598 -0.0022
 1570TIP3    H2 4717   1.773   0.895   3.587 -1.6716  1.0128 -0.3144
 1571TIP3   OH2 4718   4.668   4.659   1.384  0.2795  0.2451 -0.0022
 1571TIP3    H1 4719   4.714   4.580   1.413  2.0637  0.1868 -2.6052
 1571TIP3    H2 4720   4.576   4.641   1.399  0.7475 -1.7786  0.7234
 1572TIP3   OH2 4721   2.133   5.890   4.150 -0.3243 -0.1433 -0.1787
 1572TIP3    H1 4722   2.067   5.883   4.081  0.6609 -0.1276 -1.1505
 1572TIP3    H2 4723   2.114   5.974   4.192  0.4071  0.9531 -1.9162
 1573TIP3   OH2 4724   4.558   1.438   0.720 -0.4423  0.4336 -0.3003
 1573TIP3    H1 4725   4.605   1.416   0.801 -0.6246  1.6685  0.1710
 1573TIP3    H2 4726   4.470   1.402   0.733 -0.9676  1.9782  0.7822
 1574TIP3   OH2 4727   3.142   2.846   4.770  0.0567  0.5949  0.6173
 1574TIP3    H1 4728   3.225   2.807   4.742 -0.6089 -1.9237  1.8019
 1574TIP3    H2 4729   3.105   2.885   4.691  0.9218 -1.0490 -0.6643
 1575TIP3   OH2 4730   1.419   4.738   4.351 -0.1583  0.4973  0.0660
 1575TIP3    H1 4731   1.460   4.665   4.304 -0.6695  0.5968 -0.5482
 1575TIP3    H2 4732   1.491   4.798   4.369  0.0337  0.5056 -0.6885
 1576TIP3   OH2 4733   4.439   3.549   0.082  0.4874  0.1105 -0.6820
 1576TIP3    H1 4734   4.344   3.533   0.079  0.4998 -0.0020 -0.4360
 1576TIP3    H2 4735   4.461   3.577  -0.007  0.5498 -1.6883 -1.2606
 1577TIP3   OH2 4736   2.092   0.014   2.515  0.5413  0.3860  0.0466
 1577TIP3    H1 4737   2.128   0.000   2.427  0.0562  1.2232 -0.2956
 1577TIP3    H2 4738   2.055   0.102   2.512 -0.0460  0.1797  0.9008
 1578TIP3   OH2 4739   6.180   4.080   0.229  0.2398  0.0362  0.4089
 1578TIP3    H1 4740   6.238   4.081   0.305  1.6067 -0.9725 -0.5954
 1578TIP3    H2 4741   6.150   3.990   0.222 -0.8733  0.3855  0.4619
 1579TIP3   OH2 4742   2.192   3.448   4.341 -0.0986  0.1477  0.5509
 1579TIP3    H1 4743   2.110   3.458   4.294  0.2274 -0.2014 -0.1157
 1579TIP3    H2 4744   2.193   3.356   4.369 -0.2172  0.3110  1.1105
 1580TIP3   OH2 4745   4.640   1.304   1.461 -0.6093  0.5353  0.2518
 1580TIP3    H1 4746   4.602   1.219   1.486 -0.3214  0.5788  0.8492
 1580TIP3    H2 4747   4.681   1.287   1.376 -0.6156  0.0912  0.3337
 1581TIP3   OH2 4748   0.371   2.257   4.370  0.2520 -0.0036 -0.1495
 1581TIP3    H1 4749   0.458   2.274   4.407  0.4885 -0.6445 -0.3880
 1581TIP3    H2 4750   0.348   2.338   4.324  0.9867 -0.0280 -0.5868
 1582TIP3   OH2 4751   0.252   1.914   0.838  0.4993  0.2413  0.4971
 1582TIP3    H1 4752   0.245   1.872   0.752  2.2470  2.3346 -0.7535
 1582TIP3    H2 4753   0.282   1.844   0.896 -1.2607 -1.3558 -0.3947
 1583TIP3   OH2 4754   2.234   3.505   2.049 -0.1685 -0.6126  0.1580
 1583TIP3    H1 4755   2.205   3.596   2.057  2.6507  0.2805  1.7911
 1583TIP3    H2 4756   2.209   3.479   1.960 -0.4174  2.0237 -0.6293
 1584TIP3   OH2 4757   2.564   0.460   1.977  0.1973  0.4628  0.3738
 1584TIP3    H1 4758   2.550   0.516   2.053 -0.0019  1.1552 -0.1543
 1584TIP3    H2 4759   2.548   0.372   2.008 -0.6586  0.8111  0.9445
 1585TIP3   OH2 4760   6.181   5.131   1.907  0.1524  0.1478  0.2211
 1585TIP3    H1 4761   6.266   5.087   1.914 -0.2071 -0.2888  2.7049
 1585TIP3    H2 4762   6.142   5.095   1.827  1.5320 -1.0058  0.0251
 1586TIP3   OH2 4763   0.314   0.813   2.725  0.4699 -0.0303 -0.6408
 1586TIP3    H1 4764   0.399   0.781   2.755  0.0071 -0.8596 -0.1729
 1586TIP3    H2 4765   0.257   0.806   2.801  0.1658  1.2699 -0.7269
 1587TIP3   OH2 4766   0.289   4.484   1.674  0.5814  0.1044  0.0468
 1587TIP3    H1 4767   0.248   4.424   1.612 -0.2543  0.3567  0.3309
 1587TIP3    H2 4768   0.325   4.554   1.621  3.2014 -1.5003 -0.4659
 1588TIP3   OH2 4769   4.812   4.835   0.327  0.2917 -0.5595 -0.0914
 1588TIP3    H1 4770   4.757   4.784   0.386  1.1379 -1.1519  0.2033
 1588TIP3    H2 4771   4.751   4.872   0.262 -1.0941  2.2372  2.5474
 1589TIP3   OH2 4772   3.720   3.913   1.440 -0.0763 -0.4895 -0.3531
 1589TIP3    H1 4773   3.672   3.878   1.365 -0.0037 -1.8070  0.1910
 1589TIP3    H2 4774   3.657   3.969   1.485  0.0663  0.8118 -1.7182
 1590TIP3   OH2 4775   4.266   3.317   2.236  0.0006  0.1348  0.0780
 1590TIP3    H1 4776   4.355   3.346   2.254 -0.2911  1.9610 -1.1094
 1590TIP3    H2 4777   4.214   3.352   2.308  0.0567  0.1939  0.0894
 1591TIP3   OH2 4778   1.795   4.515   0.791  0.1234  0.0808 -0.0367
 1591TIP3    H1 4779   1.749   4.431   0.788  0.1012  0.1022 -2.1997
 1591TIP3    H2 4780   1.867   4.505   0.728  1.1040  1.1459  0.8744
 1592TIP3   OH2 4781   6.232   5.691   3.729 -0.6146 -0.1856 -0.1280
 1592TIP3    H1 4782   6.229   5.684   3.824 -1.9705 -0.1969 -0.1561
 1592TIP3    H2 4783   6.262   5.604   3.700 -0.9267 -0.4240  0.2546
 1593TIP3   OH2 4784   4.245   0.003   2.503 -0.2466  0.1492  0.0428
 1593TIP3    H1 4785   4.206  -0.011   2.589 -2.4617  1.0973 -0.7446
 1593TIP3    H2 4786   4.294   0.085   2.512 -0.3098  0.1458  0.4422
 1594TIP3   OH2 4787   4.895   5.133   2.212  0.0360  0.1942 -0.1055
 1594TIP3    H1 4788   4.923   5.132   2.304  1.7856  1.8221 -0.5453
 1594TIP3    H2 4789   4.871   5.224   2.196  0.5985  0.1139 -1.4830
 1595TIP3   OH2 4790   4.912   3.392   4.718  0.1420  0.1585  0.2043
 1595TIP3    H1 4791   4.849   3.340   4.668 -0.9561  0.7534  0.9364
 1595TIP3    H2 4792   4.889   3.377   4.809  0.1997  1.4192  0.4456
 1596TIP3   OH2 4793   5.983   5.026   0.826  0.1696  0.1026 -0.5555
 1596TIP3    H1 4794   6.009   5.062   0.911 -1.4523  0.7206 -0.2744
 1596TIP3    H2 4795   5.917   5.088   0.793 -1.0476 -1.4212 -1.1022
 1597TIP3   OH2 4796   1.486   2.812   2.118  0.3814 -0.5525  0.5492
 1597TIP3    H1 4797   1.559   2.811   2.056  0.7836  0.6360  0.9725
 1597TIP3    H2 4798   1.504   2.739   2.177  1.3548 -0.1633  0.7616
 1598TIP3   OH2 4799   0.971   0.636   0.888 -0.2451 -0.0310 -0.2621
 1598TIP3    H1 4800   1.061   0.651   0.858  0.0916  1.2071  1.2394
 1598TIP3    H2 4801   0.978   0.568   0.954 -0.7596 -1.5763 -1.7441
 1599TIP3   OH2 4802   1.103   2.458   3.568  0.6130  0.6280 -0.3615
 1599TIP3    H1 4803   1.138   2.439   3.655  1.7248  0.6639 -0.7959
 1599TIP3    H2 4804   1.093   2.373   3.526  1.7673  0.7129 -0.8362
 1600TIP3   OH2 4805   3.110   5.300   2.556 -0.3861 -0.6780  0.2639
 1600TIP3    H1 4806   3.161   5.318   2.478  1.7355 -0.2118  1.6853
 1600TIP3    H2 4807   3.115   5.205   2.568 -0.6584 -0.7410 -0.1087
 1601TIP3   OH2 4808   0.986   5.953   3.848 -0.7765 -0.1125 -0.2768
 1601TIP3    H1 4809   1.049   5.883   3.867  0.5908  1.0558 -0.3500
 1601TIP3    H2 4810   0.985   6.006   3.928  0.0755  1.1481 -1.0691
 1602TIP3   OH2 4811   2.466   3.608   4.889  0.0525 -0.0733  0.2432
 1602TIP3    H1 4812   2.492   3.527   4.845  0.1366  0.8200 -1.4181
 1602TIP3    H2 4813   2.544   3.663   4.887 -0.2295  0.3513  0.6473
 1603TIP3   OH2 4814   4.530   1.013   2.710  0.2959  0.3419  0.0051
 1603TIP3    H1 4815   4.564   1.090   2.663 -1.6041 -0.1157 -2.3682
 1603TIP3    H2 4816   4.498   0.956   2.640 -0.7233 -1.4292  1.8326
 1604TIP3   OH2 4817   5.653   4.876   2.605 -0.0330  0.5605 -0.6919
 1604TIP3    H1 4818   5.584   4.853   2.542 -0.3816  0.6005 -0.3339
 1604TIP3    H2 4819   5.605   4.900   2.685  0.3112  2.3312 -0.9731
 1605TIP3   OH2 4820   0.429   1.664   3.347 -0.0337  0.4671 -0.3449
 1605TIP3    H1 4821   0.491   1.591   3.348  2.8431  2.6755 -1.1370
 1605TIP3    H2 4822   0.421   1.689   3.439 -1.8113 -1.3397  0.0501
 1606TIP3   OH2 4823   4.259   5.569   1.700  0.1153  0.4897  0.3556
 1606TIP3    H1 4824   4.268   5.573   1.795 -0.8295  1.0035  0.4349
 1606TIP3    H2 4825   4.165   5.576   1.684  0.1400 -0.8188 -0.5731
 1607TIP3   OH2 4826   0.084   0.449   1.578  0.7239 -0.3368 -0.0055
 1607TIP3    H1 4827   0.116   0.396   1.506 -0.1030 -0.1911 -0.4954
 1607TIP3    H2 4828   0.159   0.503   1.603  2.3227 -3.1928  1.9797
 1608TIP3   OH2 4829   1.678   4.185   0.430 -0.0074 -0.1270  0.0170
 1608TIP3    H1 4830   1.755   4.219   0.384 -1.5155  0.8604 -1.9088
 1608TIP3    H2 4831   1.622   4.262   0.442 -0.9429 -0.9230  0.8905
 1609TIP3   OH2 4832   4.229   1.921   1.541  0.5778 -0.5136  0.3686
 1609TIP3    H1 4833   4.236   1.893   1.633 -0.0240 -1.6225  0.0949
 1609TIP3    H2 4834   4.175   1.854   1.500  1.3971 -0.3983 -0.9512
 1610TIP3   OH2 4835   3.647   5.900   2.393 -0.1077  0.2927 -0.3008
 1610TIP3    H1 4836   3.580   5.963   2.366  0.5446  0.4810 -1.5660
 1610TIP3    H2 4837   3.724   5.954   2.411  0.0114 -0.0146  0.1180
 1611TIP3   OH2 4838   4.588   2.904   3.075  0.0130  0.0381  0.2854
 1611TIP3    H1 4839   4.519   2.881   3.137 -0.6978  0.9491 -0.1524
 1611TIP3    H2 4840   4.545   2.905   2.990  0.5973  0.4773 -0.0114
 1612TIP3   OH2 4841   1.225   5.932   2.314 -0.4547  0.1373 -0.2622
 1612TIP3    H1 4842   1.168   5.975   2.376  1.0442 -0.0003  1.2907
 1612TIP3    H2 4843   1.234   5.842   2.347  1.1114  0.3197 -0.0952
 1613TIP3   OH2 4844   1.652   3.692   3.182  0.1891  0.6895 -0.1177
 1613TIP3    H1 4845   1.668   3.763   3.120 -0.4518  0.6651 -0.3185
 1613TIP3    H2 4846   1.649   3.613   3.127 -1.3015  0.7789 -0.1846
 1614TIP3   OH2 4847   6.107   2.710   0.233  0.3888 -0.2565 -0.5745
 1614TIP3    H1 4848   6.120   2.654   0.310  0.8827 -0.9097 -1.1239
 1614TIP3    H2 4849   6.068   2.790   0.269  0.6598 -0.5264  0.3644
 1615TIP3   OH2 4850   6.145   0.968   0.966 -0.3621  0.1079 -0.2460
 1615TIP3    H1 4851   6.211   0.902   0.943 -0.3151 -0.4807  1.3880
 1615TIP3    H2 4852   6.078   0.960   0.898 -1.0830 -2.7091  0.6608
 1616TIP3   OH2 4853   2.475   4.739   4.622 -0.0170  0.3018 -0.1822
 1616TIP3    H1 4854   2.478   4.791   4.542  2.9098 -0.1548 -0.4892
 1616TIP3    H2 4855   2.392   4.763   4.663 -1.6210  0.5862 -3.2868
 1617TIP3   OH2 4856   2.491   0.236   3.267 -0.0164 -0.4858 -0.0841
 1617TIP3    H1 4857   2.442   0.176   3.323  0.8526 -1.6059 -0.4893
 1617TIP3    H2 4858   2.582   0.209   3.276  0.3017  0.2590 -0.9126
 1618TIP3   OH2 4859   0.861   0.949   0.026 -0.0925  0.7104 -0.0125
 1618TIP3    H1 4860   0.954   0.940   0.009 -0.2815 -0.2168 -0.6342
 1618TIP3    H2 4861   0.831   1.017  -0.034  0.2255  1.2223  0.3979
 1619TIP3   OH2 4862   4.746   2.627   4.193 -0.3773 -0.2455  0.8134
 1619TIP3    H1 4863   4.688   2.558   4.225 -1.3261  0.8205  1.4762
 1619TIP3    H2 4864   4.731   2.630   4.099  0.7030 -1.8441  0.5497
 1620TIP3   OH2 4865   1.116   4.240   2.709  0.4052 -0.3274  0.1228
 1620TIP3    H1 4866   1.201   4.277   2.682  0.4065  1.2844  2.0739
 1620TIP3    H2 4867   1.051   4.290   2.660  0.5393 -0.1847  0.0884
 1621TIP3   OH2 4868   6.124   3.282   3.091  0.2669 -0.1415  0.7068
 1621TIP3    H1 4869   6.039   3.276   3.047  0.6927  0.8419 -0.3261
 1621TIP3    H2 4870   6.155   3.192   3.097 -0.6366 -0.4623  0.6546
 1622TIP3   OH2 4871   5.330   0.470   0.242  0.7767 -0.0922 -0.1112
 1622TIP3    H1 4872   5.284   0.508   0.317  0.7189  0.5427 -0.4568
 1622TIP3    H2 4873   5.422   0.493   0.255  0.5836  1.2349 -0.9275
 1623TIP3   OH2 4874   4.048   1.842   4.900 -0.3066  0.0494  0.1606
 1623TIP3    H1 4875   3.970   1.792   4.876 -1.0548  0.6541  1.2783
 1623TIP3    H2 4876   4.064   1.819   4.991  0.9407 -0.1851 -0.0876
 1624TIP3   OH2 4877   3.351   0.439   3.827 -0.3245  0.6891 -0.4238
 1624TIP3    H1 4878   3.382   0.526   3.851 -1.0852  0.6678  0.7522
 1624TIP3    H2 4879   3.345   0.392   3.911  1.5498 -1.0177 -1.1830
 1625TIP3   OH2 4880   5.021   4.721   1.873 -0.7738  0.5690 -0.0361
 1625TIP3    H1 4881   5.001   4.804   1.916 -1.2042 -0.8806  2.8298
 1625TIP3    H2 4882   5.115   4.725   1.856 -0.9199  1.9078 -0.6838
 1626TIP3   OH2 4883   2.825   5.524   2.225  0.0884 -0.2432  0.1430
 1626TIP3    H1 4884   2.837   5.613   2.259  0.8421 -0.5306  0.6550
 1626TIP3    H2 4885   2.893   5.472   2.269  0.5061 -0.8061 -1.1384
 1627TIP3   OH2 4886   2.778   1.712   5.089  0.2143  0.1596  0.6096
 1627TIP3    H1 4887   2.721   1.636   5.104 -0.3994  1.0196  3.2622
 1627TIP3    H2 4888   2.720   1.780   5.056  0.2725  0.1724  0.5352
 1628TIP3   OH2 4889   0.743   1.962   1.101 -0.1167  0.0947  0.9821
 1628TIP3    H1 4890   0.708   1.882   1.062  1.2553  0.9058 -2.3378
 1628TIP3    H2 4891   0.837   1.956   1.088  0.0565  2.0266  0.9789
 1629TIP3   OH2 4892   2.989   0.824   3.113  0.0741 -0.4564 -0.1035
 1629TIP3    H1 4893   2.903   0.810   3.152 -0.1591  0.7891 -0.1357
 1629TIP3    H2 4894   3.035   0.882   3.175  1.6669 -2.6819  0.9541
 1630TIP3   OH2 4895   0.279   3.705   3.627  0.2003 -0.3135  0.0028
 1630TIP3    H1 4896   0.214   3.742   3.687  0.2060  0.5214 -0.4956
 1630TIP3    H2 4897   0.356   3.761   3.639  1.4562 -2.2429  1.8112
 1631TIP3   OH2 4898   1.639   2.099   3.322  0.3650  0.9496 -0.1872
 1631TIP3    H1 4899   1.684   2.169   3.369  1.7974  0.5350 -0.8631
 1631TIP3    H2 4900   1.597   2.143   3.248  1.2581  1.1241 -0.6080
 1632TIP3   OH2 4901   2.365   4.687   0.821  0.0063  0.2464  0.3030
 1632TIP3    H1 4902   2.385   4.729   0.737  2.3204 -0.6639  0.3067
 1632TIP3    H2 4903   2.377   4.756   0.886  1.7875  0.1309  0.1421
 1633TIP3   OH2 4904   5.878   5.937   0.635 -0.1231 -0.0819  0.3832
 1633TIP3    H1 4905   5.959   5.959   0.682  0.3177 -0.7173 -0.0720
 1633TIP3    H2 4906   5.896   5.852   0.594 -0.6087  0.3179 -0.6894
 1634TIP3   OH2 4907   1.101   4.678   0.613  0.1899  0.0500 -0.2919
 1634TIP3    H1 4908   1.190   4.667   0.645 -0.4572 -0.1954  1.5356
 1634TIP3    H2 4909   1.050   4.612   0.660 -0.6955 -1.0673 -2.6220
 1635TIP3   OH2 4910   5.076   0.689   0.295  0.7436 -0.0084  0.6267
 1635TIP3    H1 4911   5.162   0.729   0.283 -0.3540  2.6470  1.0441
 1635TIP3    H2 4912   5.013   0.760   0.282 -1.3762 -1.6514  1.2179
 1636TIP3   OH2 4913   0.867   0.341   4.046  0.2861 -0.3559 -0.3383
 1636TIP3    H1 4914   0.775   0.326   4.069 -0.1221 -1.3778 -2.3436
 1636TIP3    H2 4915   0.872   0.433   4.022  0.6218  0.6178  2.9808
 1637TIP3   OH2 4916   1.522   3.910   4.653  0.4610  0.2647 -0.2762
 1637TIP3    H1 4917   1.533   3.888   4.561  3.2739 -0.4283  0.1297
 1637TIP3    H2 4918   1.537   4.004   4.658 -0.8307  0.5096 -0.6252
 1638TIP3   OH2 4919   2.189   2.450   1.060  0.1126 -0.3019 -0.0873
 1638TIP3    H1 4920   2.259   2.516   1.058 -1.3352  1.2967 -0.0847
 1638TIP3    H2 4921   2.199   2.403   0.977  0.4171  0.7487 -0.6674
 1639TIP3   OH2 4922   0.951   2.755   1.596  0.2462 -0.7231  0.0054
 1639TIP3    H1 4923   1.046   2.748   1.605  0.9225  1.4344 -3.5296
 1639TIP3    H2 4924   0.928   2.691   1.528 -1.0042 -1.6244  1.2082
 1640TIP3   OH2 4925   3.989   3.164   0.507 -0.6928  0.0420  0.0728
 1640TIP3    H1 4926   3.990   3.247   0.460 -0.3511  0.9302  1.5590
 1640TIP3    H2 4927   3.898   3.152   0.534 -0.8477 -0.3578 -0.6149
 1641TIP3   OH2 4928   1.109   3.508   4.406 -0.1817  0.0867  0.4604
 1641TIP3    H1 4929   1.089   3.564   4.481 -1.3436  1.0035 -0.4760
 1641TIP3    H2 4930   1.180   3.554   4.360 -1.6752  1.2926 -0.7481
 1642TIP3   OH2 4931   4.435   1.968   2.444  0.4382 -0.1354  0.5011
 1642TIP3    H1 4932   4.489   1.990   2.520  1.1472 -0.5620  0.1275
 1642TIP3    H2 4933   4.349   1.948   2.480  0.8211 -0.5146  1.2083
 1643TIP3   OH2 4934   0.366  -0.012   5.039 -0.3782  0.1898 -0.0483
 1643TIP3    H1 4935   0.389   0.020   4.951 -0.4371  0.3633 -0.0015
 1643TIP3    H2 4936   0.361   0.068   5.092 -1.6071  0.2082 -0.1688
 1644TIP3   OH2 4937   4.343   0.591   0.705 -0.2117  0.4698  0.1792
 1644TIP3    H1 4938   4.286   0.642   0.648 -0.0308 -1.4687 -1.8483
 1644TIP3    H2 4939   4.421   0.645   0.715  0.1155  0.5447 -2.1776
 1645TIP3   OH2 4940   4.441   1.053   1.362  0.6949 -0.1702  0.4274
 1645TIP3    H1 4941   4.384   1.027   1.290  1.1470  0.0759 -0.0312
 1645TIP3    H2 4942   4.527   1.019   1.338  1.3104  1.6871 -0.1938
 1646TIP3   OH2 4943   2.340   1.441   3.753 -0.1741 -0.7320  1.2024
 1646TIP3    H1 4944   2.308   1.375   3.815 -0.3558 -2.8914 -1.0523
 1646TIP3    H2 4945   2.265   1.458   3.696  0.8106 -1.0018 -0.2038
 1647TIP3   OH2 4946   4.613   2.595   2.868  0.1827  0.0948 -0.3785
 1647TIP3    H1 4947   4.549   2.523   2.871 -1.3486  1.2787 -2.1117
 1647TIP3    H2 4948   4.675   2.575   2.938 -1.2607 -1.8974  0.4360
 1648TIP3   OH2 4949   6.160   0.256   1.290 -0.3223 -0.2088  0.0449
 1648TIP3    H1 4950   6.182   0.349   1.287 -0.9900 -0.0801 -1.4744
 1648TIP3    H2 4951   6.216   0.215   1.224 -1.2342 -0.6181 -0.4888
 1649TIP3   OH2 4952   5.161   4.546   3.695 -0.2336  0.4643  0.1196
 1649TIP3    H1 4953   5.200   4.612   3.752  1.3107  0.6008 -1.0222
 1649TIP3    H2 4954   5.224   4.474   3.693 -1.5632 -0.7532  0.7674
 1650TIP3   OH2 4955   4.942   0.995   0.529 -0.0422  0.1197  0.4401
 1650TIP3    H1 4956   4.962   0.928   0.595  0.1280 -1.2656 -0.9460
 1650TIP3    H2 4957   5.025   1.042   0.517 -0.4200  1.2848  2.1416
 1651TIP3   OH2 4958   4.188   0.750   1.469  0.5456 -0.1764 -0.2301
 1651TIP3    H1 4959   4.115   0.757   1.407  0.7581 -0.9812 -0.5889
 1651TIP3    H2 4960   4.206   0.840   1.495  0.4601  0.1842 -1.3515
 1652TIP3   OH2 4961   5.609   5.563   1.186  0.0087  0.0258  0.4676
 1652TIP3    H1 4962   5.576   5.527   1.104 -3.5330  0.3021  1.5681
 1652TIP3    H2 4963   5.602   5.490   1.248 -0.5898  0.7085  1.2200
 1653TIP3   OH2 4964   4.565   1.035   3.705  0.1298 -0.2947  0.2819
 1653TIP3    H1 4965   4.511   1.054   3.782  0.8937 -0.3974  0.8647
 1653TIP3    H2 4966   4.588   1.121   3.670 -1.5521 -0.2577 -0.8184
 1654TIP3   OH2 4967   5.363   1.246   3.752 -0.2433  0.5182 -0.3377
 1654TIP3    H1 4968   5.336   1.312   3.815  1.4586 -0.1008  1.1186
 1654TIP3    H2 4969   5.281   1.215   3.713 -1.5529 -0.1815  2.7046
 1655TIP3   OH2 4970   2.566   5.139   1.974  0.6121  0.3274 -0.5707
 1655TIP3    H1 4971   2.607   5.079   1.912 -1.2452 -2.1682  0.4676
 1655TIP3    H2 4972   2.508   5.193   1.921  2.6946  1.6847 -1.5954
 1656TIP3   OH2 4973   3.385   0.583   3.359 -0.1357  0.6378  0.2984
 1656TIP3    H1 4974   3.378   0.543   3.445  1.4571  1.4396  0.8486
 1656TIP3    H2 4975   3.433   0.665   3.375  0.6775  0.5321 -1.4087
 1657TIP3   OH2 4976   3.873   2.059   3.885 -0.1680 -0.2002 -0.0247
 1657TIP3    H1 4977   3.924   2.073   3.965 -0.0696  0.7282 -0.2426
 1657TIP3    H2 4978   3.916   2.114   3.819 -1.5808  0.7990 -0.1497
 1658TIP3   OH2 4979   6.078   4.915   0.597 -0.2589 -0.2903 -0.2446
 1658TIP3    H1 4980   6.050   4.955   0.680  0.1521 -0.6808  0.0869
 1658TIP3    H2 4981   6.142   4.849   0.623  0.2322 -0.0890 -0.9136
 1659TIP3   OH2 4982   2.101   2.639   1.940 -0.1929  0.0552  0.3201
 1659TIP3    H1 4983   2.100   2.611   1.848  2.1590 -1.9606  0.8038
 1659TIP3    H2 4984   2.157   2.717   1.940  0.7956 -0.6353  0.1650
 1660TIP3   OH2 4985   0.218   2.257   5.197 -0.0391 -0.5051 -0.5488
 1660TIP3    H1 4986   0.313   2.272   5.200  0.4773 -3.3849  0.5483
 1660TIP3    H2 4987   0.208   2.180   5.140 -1.8320  0.1959 -1.2617
 1661TIP3   OH2 4988   2.083   3.313   0.292  0.2194 -0.0753  0.4837
 1661TIP3    H1 4989   2.027   3.263   0.233  0.5897 -0.6578  0.6223
 1661TIP3    H2 4990   2.027   3.330   0.369  0.1177 -0.3442  0.4703
 1662TIP3   OH2 4991   2.794   0.577   1.165  0.4472  0.4594  0.1649
 1662TIP3    H1 4992   2.785   0.483   1.150  2.6665 -0.0829  1.5914
 1662TIP3    H2 4993   2.750   0.592   1.249  1.4638  0.3432  0.7338
 1663TIP3   OH2 4994   1.980   0.911   1.383  0.0507 -0.9311  0.0668
 1663TIP3    H1 4995   1.987   0.994   1.430  1.7430  0.3249 -2.2339
 1663TIP3    H2 4996   2.065   0.900   1.340 -1.1378 -2.2970 -2.1227
 1664TIP3   OH2 4997   4.378   5.726   2.730  0.5043  0.5663 -0.4144
 1664TIP3    H1 4998   4.397   5.732   2.824  0.8284 -1.3089 -0.3205
 1664TIP3    H2 4999   4.464   5.734   2.688  0.6770 -0.8798 -0.3903
 1665TIP3   OH2 5000   4.780   5.874   3.144 -0.1169  0.3780 -0.3837
 1665TIP3    H1 5001   4.760   5.781   3.137 -0.0455  0.2524  0.8273
 1665TIP3    H2 5002   4.733   5.903   3.222  0.6381  1.1384 -0.1898
 1666TIP3   OH2 5003   5.168   3.057   4.301  0.2030  0.0305 -0.0146
 1666TIP3    H1 5004   5.100   3.060   4.369 -1.2078 -0.6135 -1.3263
 1666TIP3    H2 5005   5.133   3.111   4.231  1.2961  0.0897 -0.5188
 1667TIP3   OH2 5006   3.019   1.428   4.702 -0.0664 -0.1062  0.8243
 1667TIP3    H1 5007   2.925   1.412   4.696  0.1358 -0.9653 -0.4544
 1667TIP3    H2 5008   3.038   1.427   4.796 -1.1115 -1.2750  1.0395
 1668TIP3   OH2 5009   4.569   1.777   3.006 -0.4211 -0.1256 -0.8633
 1668TIP3    H1 5010   4.531   1.689   3.003  1.1622 -0.8145 -2.0063
 1668TIP3    H2 5011   4.555   1.812   2.918 -1.4322  0.9755 -0.2913
 1669TIP3   OH2 5012   1.272   5.423   4.663 -0.7374  0.2326  0.1900
 1669TIP3    H1 5013   1.229   5.454   4.583 -1.1010  2.0339  1.0169
 1669TIP3    H2 5014   1.203   5.378   4.712 -0.8486  0.2627  0.0606
 1670TIP3   OH2 5015   6.157   3.277   0.193  0.1039  0.1889  0.1125
 1670TIP3    H1 5016   6.117   3.345   0.139  0.0902 -0.0092 -0.1307
 1670TIP3    H2 5017   6.251   3.296   0.188  0.6342 -2.2946 -3.5725
 1671TIP3   OH2 5018   5.252   5.666   3.602  0.0641  0.0925  0.2127
 1671TIP3    H1 5019   5.233   5.574   3.589 -2.5209  0.5791  0.0341
 1671TIP3    H2 5020   5.338   5.679   3.562  0.4865 -2.2054  0.2582
 1672TIP3   OH2 5021   1.988   3.456   0.512 -0.1521  0.4477  0.3432
 1672TIP3    H1 5022   1.946   3.461   0.598 -0.0568 -3.1399  0.7822
 1672TIP3    H2 5023   2.081   3.467   0.530 -0.1282 -0.3258  0.7748
 1673TIP3   OH2 5024   1.346   5.650   2.332  0.0908 -0.1243  0.0355
 1673TIP3    H1 5025   1.322   5.605   2.251 -0.6233  2.4189 -1.3137
 1673TIP3    H2 5026   1.436   5.623   2.349 -0.1057 -1.5541 -0.9844
 1674TIP3   OH2 5027   2.772   5.608   3.185 -0.0944  0.0492  0.0342
 1674TIP3    H1 5028   2.696   5.596   3.241  0.1793 -0.5996  0.2705
 1674TIP3    H2 5029   2.829   5.668   3.234 -0.3025  0.2830 -0.0048
 1675TIP3   OH2 5030   2.596   1.804   0.273 -0.1335  0.1054 -0.3314
 1675TIP3    H1 5031   2.561   1.736   0.216  1.1191 -0.0107 -1.0083
 1675TIP3    H2 5032   2.529   1.873   0.271 -0.3639 -0.1190 -1.5391
 1676TIP3   OH2 5033   5.675   0.691   2.091 -0.7972  0.7440  0.1678
 1676TIP3    H1 5034   5.716   0.722   2.011 -1.4609  2.4551  0.4622
 1676TIP3    H2 5035   5.608   0.756   2.111 -1.0757  0.0124  1.7587
 1677TIP3   OH2 5036   3.328   2.621   2.068  0.4064 -0.4573 -0.0262
 1677TIP3    H1 5037   3.382   2.642   1.991  0.8208 -0.9287  0.1272
 1677TIP3    H2 5038   3.322   2.704   2.116 -1.1669  0.2342 -1.3437
 1678TIP3   OH2 5039   0.166   3.372   4.637  0.0032  0.0194  0.0777
 1678TIP3    H1 5040   0.183   3.462   4.608 -0.1795 -0.3886 -1.3359
 1678TIP3    H2 5041   0.085   3.379   4.687 -0.2175  0.5794 -0.3446
 1679TIP3   OH2 5042   6.142   3.724   3.685  0.3154  0.5845 -0.4381
 1679TIP3    H1 5043   6.131   3.683   3.599  0.9624  1.7259 -1.0967
 1679TIP3    H2 5044   6.169   3.814   3.665  1.7652  0.5008  0.9728
 1680TIP3   OH2 5045   4.892   0.253   0.384 -0.1897 -0.2647 -0.4196
 1680TIP3    H1 5046   4.957   0.309   0.341  0.9228  0.3570  1.9341
 1680TIP3    H2 5047   4.808   0.293   0.360  0.5201  1.8632  0.3647
 1681TIP3   OH2 5048   3.940   4.903   3.187 -0.1589  0.1517 -0.0781
 1681TIP3    H1 5049   3.916   4.901   3.094 -1.6539  0.1312  0.2901
 1681TIP3    H2 5050   4.028   4.940   3.188 -0.1268  0.1668 -1.5057
 1682TIP3   OH2 5051   5.139   3.634   0.213  0.0761 -0.3616  0.0586
 1682TIP3    H1 5052   5.096   3.706   0.260 -0.3964 -1.0338  0.6846
 1682TIP3    H2 5053   5.176   3.579   0.282  1.1966 -0.2654 -0.4488
 1683TIP3   OH2 5054   4.765   5.856   1.188  0.0406  0.2715 -0.4316
 1683TIP3    H1 5055   4.810   5.785   1.143 -1.7363 -1.1657 -0.0847
 1683TIP3    H2 5056   4.684   5.869   1.137 -0.3268  1.0677  0.3246
 1684TIP3   OH2 5057   1.452   1.362   3.643 -0.4831  0.2894  0.7644
 1684TIP3    H1 5058   1.501   1.305   3.583 -1.8599  0.7159 -0.8650
 1684TIP3    H2 5059   1.481   1.450   3.620 -1.6323  0.5165  0.0646
 1685TIP3   OH2 5060   2.121   2.978   3.374  0.3085  0.3739 -0.8968
 1685TIP3    H1 5061   2.042   3.030   3.359 -0.3175 -0.1055  0.6040
 1685TIP3    H2 5062   2.089   2.892   3.401  1.3450 -0.0236 -0.8765
 1686TIP3   OH2 5063   5.641   2.916   5.028 -0.1100 -0.2109 -0.6271
 1686TIP3    H1 5064   5.734   2.898   5.038 -0.5258 -1.5855  1.3259
 1686TIP3    H2 5065   5.598   2.853   5.086 -2.3468 -0.5411 -2.4923
 1687TIP3   OH2 5066   3.058   2.217   3.956 -0.3221  0.1252  0.5983
 1687TIP3    H1 5067   3.131   2.208   3.896 -0.0303 -2.2359  1.2185
 1687TIP3    H2 5068   2.983   2.238   3.900  0.2458 -0.4597 -0.4062
 1688TIP3   OH2 5069   4.231   3.516   3.048 -0.9669 -0.2278  0.1323
 1688TIP3    H1 5070   4.315   3.515   3.002  0.0362 -0.4421  1.8828
 1688TIP3    H2 5071   4.198   3.426   3.037 -1.2043 -0.0266 -0.9297
 1689TIP3   OH2 5072   5.418   3.232   4.002  0.2018  0.4217 -0.1759
 1689TIP3    H1 5073   5.481   3.183   4.054 -0.0459 -1.6744 -1.7247
 1689TIP3    H2 5074   5.451   3.225   3.912 -1.1794  0.9850 -0.7516
 1690TIP3   OH2 5075   1.198   1.850   4.486 -0.2427  0.1756  0.3378
 1690TIP3    H1 5076   1.161   1.858   4.398  2.4388 -1.1740 -1.0438
 1690TIP3    H2 5077   1.155   1.773   4.523  1.4291 -1.8084 -1.5071
 1691TIP3   OH2 5078   5.288   0.058   3.747 -0.2026 -0.7674  0.7214
 1691TIP3    H1 5079   5.317   0.147   3.728  1.4617 -1.7617 -1.8509
 1691TIP3    H2 5080   5.327   0.039   3.833  1.8311  0.0201  0.0236
 1692TIP3   OH2 5081   4.708   5.841   2.376 -0.2078  0.5278 -0.2133
 1692TIP3    H1 5082   4.720   5.850   2.470  2.5248  0.8702 -0.5305
 1692TIP3    H2 5083   4.761   5.910   2.337  0.3910 -0.8626 -2.0425
 1693TIP3   OH2 5084   4.889   4.807   1.319 -0.0667 -0.3294  0.0851
 1693TIP3    H1 5085   4.880   4.786   1.226 -0.7135  0.0337  0.0540
 1693TIP3    H2 5086   4.804   4.783   1.357 -0.1867  0.4954  0.3747
 1694TIP3   OH2 5087   2.355   4.294   4.807  0.2967 -0.4015 -0.4687
 1694TIP3    H1 5088   2.390   4.208   4.828  0.9095  0.3241  1.7662
 1694TIP3    H2 5089   2.427   4.341   4.766 -0.2240 -1.0810 -2.2956
 1695TIP3   OH2 5090   3.058   2.880   3.882  0.0897  0.0419 -0.4452
 1695TIP3    H1 5091   3.063   2.796   3.838 -0.0117 -0.1361 -0.1190
 1695TIP3    H2 5092   3.006   2.935   3.823 -0.5662 -0.3732 -0.2682
 1696TIP3   OH2 5093   3.426   0.781   0.263 -0.1440  0.2499 -0.2096
 1696TIP3    H1 5094   3.394   0.828   0.341  0.3260 -0.6097  0.5168
 1696TIP3    H2 5095   3.354   0.722   0.240 -0.7998  1.3859 -1.2188
 1697TIP3   OH2 5096   2.973   2.861   1.174  0.1682  0.4135  0.0070
 1697TIP3    H1 5097   2.954   2.771   1.148 -0.2897  0.8797 -1.3669
 1697TIP3    H2 5098   3.057   2.881   1.133  0.7887  0.2920  1.1755
 1698TIP3   OH2 5099   3.424   3.779   3.876  0.0574  0.5445  0.6054
 1698TIP3    H1 5100   3.396   3.843   3.811 -0.1396  2.2528  2.2741
 1698TIP3    H2 5101   3.411   3.823   3.960 -0.4923 -1.8701  1.8721
 1699TIP3   OH2 5102   4.094   2.509   2.972  0.0988 -0.2093  0.3353
 1699TIP3    H1 5103   4.020   2.465   2.932  0.5718 -1.3557  0.6846
 1699TIP3    H2 5104   4.127   2.568   2.904  0.0812 -1.1465 -0.5111
 1700TIP3   OH2 5105   1.037   3.945   3.441 -0.6277 -0.6954  0.1653
 1700TIP3    H1 5106   0.998   3.964   3.526 -0.4405 -2.5188  0.6970
 1700TIP3    H2 5107   0.977   3.986   3.377 -1.6597 -0.7017  1.0990
 1701TIP3   OH2 5108   5.961   1.640   1.709  0.2550  0.4985  0.1729
 1701TIP3    H1 5109   5.931   1.722   1.747 -0.0581 -0.6214  2.4928
 1701TIP3    H2 5110   6.056   1.650   1.702  0.3049  0.8100  1.1395
 1702TIP3   OH2 5111   5.591   4.670   1.732 -0.0972  0.1680 -0.2244
 1702TIP3    H1 5112   5.601   4.729   1.806 -2.8546  0.2644  0.1809
 1702TIP3    H2 5113   5.562   4.726   1.660  2.4028  0.0524 -1.3990
 1703TIP3   OH2 5114   3.325   2.948   2.058 -0.1480  0.4653 -0.0644
 1703TIP3    H1 5115   3.417   2.963   2.038  0.5987 -1.9548  1.1297
 1703TIP3    H2 5116   3.294   2.891   1.988  0.0005 -0.7096  0.7820
 1704TIP3   OH2 5117   0.486   2.880   1.835  0.3405  0.1703 -0.4099
 1704TIP3    H1 5118   0.571   2.840   1.853  0.4344  0.4314 -0.2719
 1704TIP3    H2 5119   0.453   2.906   1.921  0.4294  0.6925 -0.5299
 1705TIP3   OH2 5120   0.615   3.449   1.971  0.0604  0.2152  0.0753
 1705TIP3    H1 5121   0.546   3.510   1.946 -0.7262 -1.3153 -1.8113
 1705TIP3    H2 5122   0.567   3.371   2.001  0.8504 -1.1968 -2.0796
 1706TIP3   OH2 5123   5.046   3.090   1.193 -0.0244 -0.0150 -0.1255
 1706TIP3    H1 5124   5.122   3.033   1.178 -0.9486 -1.4451  0.4043
 1706TIP3    H2 5125   5.015   3.064   1.280 -1.2699  0.3565 -0.4466
 1707TIP3   OH2 5126   3.556   1.786   4.942 -0.1659 -0.3961  0.4847
 1707TIP3    H1 5127   3.508   1.833   4.874  0.2254 -1.3547 -0.4772
 1707TIP3    H2 5128   3.602   1.716   4.896  0.6306 -0.6789  1.6461
 1708TIP3   OH2 5129   5.623   3.210   1.882 -0.3993 -0.6691  0.1259
 1708TIP3    H1 5130   5.551   3.207   1.819 -0.9371  0.1760  0.6841
 1708TIP3    H2 5131   5.687   3.269   1.842 -0.2461 -0.9904 -0.1162
 1709TIP3   OH2 5132   5.825   3.495   4.022 -0.3439 -0.5132 -0.0445
 1709TIP3    H1 5133   5.783   3.473   4.105 -1.9294 -1.4919 -1.0318
 1709TIP3    H2 5134   5.904   3.441   4.020 -0.6524 -1.0008  0.5450
 1710TIP3   OH2 5135   3.811   5.195   2.811 -0.2250  0.2710  0.1133
 1710TIP3    H1 5136   3.803   5.288   2.827 -1.0814 -0.2522  3.3036
 1710TIP3    H2 5137   3.853   5.189   2.724 -1.4542  3.5208 -0.8349
 1711TIP3   OH2 5138   2.992   4.090   4.334  0.0354  0.2221  0.1030
 1711TIP3    H1 5139   3.065   4.115   4.391  1.4090  0.2765 -1.6234
 1711TIP3    H2 5140   2.986   3.995   4.342  0.9436  0.1065 -0.4693
 1712TIP3   OH2 5141   1.411   3.368   4.169  0.4172 -0.3641  0.2101
 1712TIP3    H1 5142   1.481   3.360   4.233  0.7778  1.1459  0.0459
 1712TIP3    H2 5143   1.383   3.460   4.175 -0.1426 -0.4169 -1.1660
 1713TIP3   OH2 5144   1.860   0.902   2.539 -0.3079  0.1873  0.0311
 1713TIP3    H1 5145   1.911   0.932   2.614 -1.6587 -1.5826  1.7521
 1713TIP3    H2 5146   1.921   0.906   2.465  1.1733  1.6333  1.2613
 1714TIP3   OH2 5147   5.905   0.573   0.051  0.1311 -0.2892 -0.3579
 1714TIP3    H1 5148   5.859   0.511   0.107 -0.6495  1.9285  1.6400
 1714TIP3    H2 5149   5.995   0.541   0.048  0.0921 -0.7443  1.8889
 1715TIP3   OH2 5150   4.716   3.989   2.265 -0.4706  0.0654  0.1201
 1715TIP3    H1 5151   4.782   3.982   2.335 -0.2151  0.1861 -0.1079
 1715TIP3    H2 5152   4.645   4.039   2.304  0.2328  1.2851 -0.1119
 1716TIP3   OH2 5153   6.338   2.840   0.507 -0.1735  0.1337 -0.8035
 1716TIP3    H1 5154   6.339   2.932   0.481 -0.0913  0.4451  0.2692
 1716TIP3    H2 5155   6.250   2.826   0.542  0.0099 -0.0301 -0.4057
 1717TIP3   OH2 5156   0.485   1.174   0.758  0.1427 -0.0745 -0.3807
 1717TIP3    H1 5157   0.462   1.125   0.837 -1.7762  0.2729 -0.6774
 1717TIP3    H2 5158   0.435   1.255   0.764  1.5742  0.9020 -0.9719
 1718TIP3   OH2 5159   4.860   1.563   3.233  0.1596  0.3832 -0.5363
 1718TIP3    H1 5160   4.818   1.477   3.238  1.1733 -0.0762  1.3455
 1718TIP3    H2 5161   4.840   1.604   3.318  2.5959  0.5250  0.0697
 1719TIP3   OH2 5162   3.930  -0.026   4.075  0.0858 -0.4550  1.0147
 1719TIP3    H1 5163   3.884  -0.030   4.159 -0.7649  0.3336  0.5919
 1719TIP3    H2 5164   3.966   0.062   4.071 -0.0614 -0.4195  0.4487
 1720TIP3   OH2 5165   2.860   1.830   0.520  0.0496 -0.4456  0.1737
 1720TIP3    H1 5166   2.898   1.751   0.558 -2.3354 -1.7293  0.1512
 1720TIP3    H2 5167   2.786   1.797   0.467  0.4624  1.6317 -1.8585
 1721TIP3   OH2 5168   6.086   5.282   0.666  0.0108 -0.0682  0.3403
 1721TIP3    H1 5169   6.011   5.223   0.661 -0.2877  0.1706  1.6469
 1721TIP3    H2 5170   6.063   5.354   0.608 -0.9011  0.1260  0.9128
 1722TIP3   OH2 5171   0.603   4.229   2.337  0.8537  0.9065 -0.4954
 1722TIP3    H1 5172   0.651   4.179   2.271  0.3510 -1.7683  1.0102
 1722TIP3    H2 5173   0.672   4.272   2.388  1.4627  0.1792 -0.6717
 1723TIP3   OH2 5174   4.906   4.282   3.843  0.1220  0.6188 -0.5624
 1723TIP3    H1 5175   4.927   4.257   3.933 -0.7900 -0.4040 -0.6201
 1723TIP3    H2 5176   4.851   4.360   3.852 -0.4710  0.1647 -0.2060
 1724TIP3   OH2 5177   3.751   1.321   5.123  0.2716  0.2491 -0.8078
 1724TIP3    H1 5178   3.777   1.326   5.215  2.3802  0.0029 -1.3455
 1724TIP3    H2 5179   3.780   1.234   5.094 -0.1838  0.4025 -1.7584
 1725TIP3   OH2 5180   2.806   4.292   0.169  0.3462 -0.1482 -0.4998
 1725TIP3    H1 5181   2.870   4.361   0.183  0.1410 -0.2592  1.1299
 1725TIP3    H2 5182   2.758   4.319   0.090  0.2448  1.5741  0.1287
 1726TIP3   OH2 5183   3.187   5.422   4.302  0.6301  0.6690 -0.1185
 1726TIP3    H1 5184   3.096   5.420   4.272  1.1385  0.2085 -1.7864
 1726TIP3    H2 5185   3.181   5.424   4.397 -1.1220  0.0046 -0.1657
 1727TIP3   OH2 5186   0.940   2.461   1.581 -0.1980 -0.5388  0.4766
 1727TIP3    H1 5187   0.982   2.480   1.665 -0.0246  0.8760  0.1050
 1727TIP3    H2 5188   0.846   2.474   1.598 -0.1588 -0.2079  0.4404
 1728TIP3   OH2 5189   5.242   0.844   0.657 -0.5099 -0.9986  0.3958
 1728TIP3    H1 5190   5.261   0.938   0.662  1.1307 -1.3419  1.4293
 1728TIP3    H2 5191   5.281   0.816   0.574 -0.0628 -0.9632  0.5952
 1729TIP3   OH2 5192   1.538   5.958   3.939  0.3595 -0.6400  0.5275
 1729TIP3    H1 5193   1.549   5.890   3.872  0.8584 -1.1429  1.1088
 1729TIP3    H2 5194   1.627   5.979   3.967  0.1512 -0.5334  1.1236
 1730TIP3   OH2 5195   2.145   2.731   0.525  0.4103 -0.2949 -0.5333
 1730TIP3    H1 5196   2.237   2.744   0.501  0.9723 -3.8193 -0.8700
 1730TIP3    H2 5197   2.147   2.715   0.619  0.2124 -0.7664 -0.6078
 1731TIP3   OH2 5198   0.467   5.066   2.833  0.3167 -0.4880  0.4712
 1731TIP3    H1 5199   0.421   5.004   2.776  2.3756 -0.4484 -1.3355
 1731TIP3    H2 5200   0.430   5.151   2.809  0.9420 -0.5063 -0.6326
 1732TIP3   OH2 5201   6.282   4.115   1.455 -0.0587  0.2443  0.1221
 1732TIP3    H1 5202   6.249   4.139   1.542  0.7693  1.0315  0.2318
 1732TIP3    H2 5203   6.222   4.159   1.394 -0.9837 -0.7774  0.2723
 1733TIP3   OH2 5204   1.241   2.917   3.340  0.2906 -0.1029 -0.5079
 1733TIP3    H1 5205   1.317   2.972   3.322  0.7031  0.8289  3.2189
 1733TIP3    H2 5206   1.271   2.857   3.408 -2.1928  0.2104  0.9923
 1734TIP3   OH2 5207   1.903   1.453   0.555 -0.7971  0.6907  0.3912
 1734TIP3    H1 5208   1.969   1.418   0.494 -1.3658  1.5634 -0.7450
 1734TIP3    H2 5209   1.949   1.456   0.640 -0.2834 -1.4330  0.2539
 1735TIP3   OH2 5210   1.088   3.024   2.557 -0.0901 -0.0542 -0.0109
 1735TIP3    H1 5211   1.130   3.095   2.507 -1.1132  0.4306 -0.2083
 1735TIP3    H2 5212   1.123   3.035   2.646  1.1897 -0.4778 -0.4319
 1736TIP3   OH2 5213   1.410   4.566   2.093  0.1653 -0.3094 -0.6040
 1736TIP3    H1 5214   1.361   4.623   2.153  1.3170  0.7757 -0.6611
 1736TIP3    H2 5215   1.465   4.626   2.043  0.4703 -1.3719 -1.5752
 1737TIP3   OH2 5216   3.512   2.087   2.982  0.0477  0.1594 -0.1094
 1737TIP3    H1 5217   3.485   2.019   2.921  2.4559  0.1478 -1.2892
 1737TIP3    H2 5218   3.536   2.161   2.927 -0.6345  1.2661  1.0301
 1738TIP3   OH2 5219   1.171   5.250   4.130 -0.3026  0.2279 -0.3417
 1738TIP3    H1 5220   1.110   5.303   4.182 -0.0302 -1.3303  1.6990
 1738TIP3    H2 5221   1.246   5.307   4.115 -0.6138  0.8962  0.5500
 1739TIP3   OH2 5222   4.936   2.512   4.952 -0.1926  0.2182 -0.8154
 1739TIP3    H1 5223   5.000   2.485   4.886  0.9606  1.5500 -0.2983
 1739TIP3    H2 5224   4.854   2.473   4.923  0.8824 -1.8429 -1.3287
 1740TIP3   OH2 5225   4.713   3.901   2.806  0.3956  0.0092  0.0558
 1740TIP3    H1 5226   4.658   3.914   2.729  0.3520  0.4712  0.1616
 1740TIP3    H2 5227   4.787   3.848   2.774  0.5588  0.4927 -0.3878
 1741TIP3   OH2 5228   3.980   3.413   0.401 -0.0486 -0.2839 -0.7769
 1741TIP3    H1 5229   4.053   3.468   0.372  1.6724 -0.5606  2.4958
 1741TIP3    H2 5230   3.906   3.473   0.406  0.9729  0.9963 -0.4181
 1742TIP3   OH2 5231   4.585   2.927   4.120  0.1237 -0.0474  0.6989
 1742TIP3    H1 5232   4.596   2.869   4.194 -1.9630  1.2521  2.1350
 1742TIP3    H2 5233   4.530   2.878   4.059  0.2090 -0.3858  0.8919
 1743TIP3   OH2 5234   2.550   1.594   2.658 -1.0453  0.1806  0.1640
 1743TIP3    H1 5235   2.638   1.601   2.619 -0.6841 -0.2972  0.8657
 1743TIP3    H2 5236   2.496   1.653   2.606 -0.5470 -0.3246 -0.9647
 1744TIP3   OH2 5237   6.169   5.546   3.983 -1.1012  0.2466  0.4139
 1744TIP3    H1 5238   6.092   5.595   3.953 -0.7200  0.7136  0.1886
 1744TIP3    H2 5239   6.214   5.607   4.042 -0.1475  0.5052 -0.5591
 1745TIP3   OH2 5240   5.587   4.526   4.887  0.8455 -0.3860 -0.3280
 1745TIP3    H1 5241   5.554   4.606   4.845  1.5956  0.6722  1.0237
 1745TIP3    H2 5242   5.587   4.461   4.817 -1.5786  0.2458 -1.0224
 1746TIP3   OH2 5243   2.840   4.720   1.025  0.3574  0.9291 -0.4933
 1746TIP3    H1 5244   2.922   4.686   0.989  0.3509  1.5700 -1.1362
 1746TIP3    H2 5245   2.807   4.649   1.081  1.6728  0.9015  0.3016
 1747TIP3   OH2 5246   2.838   0.335   5.011  0.1198  0.3410  0.2043
 1747TIP3    H1 5247   2.933   0.346   5.022  0.3484 -1.2090  0.0411
 1747TIP3    H2 5248   2.813   0.277   5.083 -0.5912  0.2188 -0.1421
 1748TIP3   OH2 5249   2.668   2.606   4.582 -0.2838  0.1638  0.3781
 1748TIP3    H1 5250   2.709   2.531   4.625  1.7005  0.0185 -1.6137
 1748TIP3    H2 5251   2.682   2.680   4.641 -1.2477 -0.7520  1.8219
 1749TIP3   OH2 5252   0.499   0.003   2.855  0.4339  0.3642  0.1598
 1749TIP3    H1 5253   0.538   0.090   2.859 -0.9236  0.9676  2.9282
 1749TIP3    H2 5254   0.487  -0.022   2.947  0.2639 -2.5317 -0.5513
 1750TIP3   OH2 5255   0.331   2.297   2.030  0.1194 -0.5918 -0.0785
 1750TIP3    H1 5256   0.250   2.283   2.080  0.9078  0.5812  1.6057
 1750TIP3    H2 5257   0.365   2.380   2.063  2.3279 -1.3520 -0.3285
 1751TIP3   OH2 5258   0.295   5.791   2.157  0.1179 -0.0750  0.7125
 1751TIP3    H1 5259   0.209   5.760   2.187  0.3572 -2.0871 -0.5081
 1751TIP3    H2 5260   0.279   5.879   2.124 -1.9990 -1.2377 -1.6394
 1752TIP3   OH2 5261   5.090   0.868   2.110  0.2481  0.0076  0.5501
 1752TIP3    H1 5262   5.132   0.799   2.161  0.2378  0.0878  0.6676
 1752TIP3    H2 5263   5.131   0.862   2.024 -1.0903 -1.3798 -0.0270
 1753TIP3   OH2 5264   3.394   1.009   4.654 -0.3577 -0.3191  0.2958
 1753TIP3    H1 5265   3.349   1.044   4.577 -0.4179  1.5544  1.1206
 1753TIP3    H2 5266   3.330   0.949   4.693 -0.3867 -1.1647 -0.9878
 1754TIP3   OH2 5267   5.098   5.670   3.914  0.4949  0.2995 -0.1026
 1754TIP3    H1 5268   5.154   5.697   3.840 -1.3338  2.9897 -0.6346
 1754TIP3    H2 5269   5.027   5.733   3.915 -0.6638 -0.8708  2.7702
 1755TIP3   OH2 5270   4.842   3.924   3.784 -0.0296 -0.2805 -0.0388
 1755TIP3    H1 5271   4.811   3.862   3.717  0.0086 -0.2510 -0.0837
 1755TIP3    H2 5272   4.935   3.935   3.765 -0.2367  0.5665 -0.6609
 1756TIP3   OH2 5273   5.868   0.834   4.546  0.4622  0.0892  0.1160
 1756TIP3    H1 5274   5.779   0.800   4.532 -0.2553  1.8574  0.0470
 1756TIP3    H2 5275   5.896   0.862   4.459  0.6965  0.4203  0.2979
 1757TIP3   OH2 5276   1.796   4.605   0.038 -0.0436 -0.3725  0.5545
 1757TIP3    H1 5277   1.833   4.549   0.106  1.2575  0.6133  0.7013
 1757TIP3    H2 5278   1.812   4.694   0.069 -1.2915  0.0977 -0.0820
 1758TIP3   OH2 5279   0.748   3.536   4.879 -0.1536  0.4492  0.3815
 1758TIP3    H1 5280   0.658   3.540   4.848 -0.1224  1.2528  0.3885
 1758TIP3    H2 5281   0.779   3.626   4.875  0.5567  0.2216  0.6580
 1759TIP3   OH2 5282   3.586   1.193   2.477  0.0004 -0.6750  0.0244
 1759TIP3    H1 5283   3.639   1.219   2.552 -2.9527  0.2638  1.9598
 1759TIP3    H2 5284   3.596   1.264   2.414 -0.6206  0.5786  1.2882
 1760TIP3   OH2 5285   3.280   5.307   2.319 -0.5239 -0.4670 -0.1678
 1760TIP3    H1 5286   3.199   5.310   2.268 -2.4403  4.2408  2.4639
 1760TIP3    H2 5287   3.348   5.337   2.259 -1.9744  1.2202 -1.0729
 1761TIP3   OH2 5288   2.631   1.043   2.299 -0.1514  0.3868  0.0903
 1761TIP3    H1 5289   2.630   1.138   2.312 -0.6594  0.3164  0.6310
 1761TIP3    H2 5290   2.644   1.032   2.205  0.4324  0.9812  0.0868
 1762TIP3   OH2 5291   3.175   3.199   2.084  0.3258 -0.1394  0.2618
 1762TIP3    H1 5292   3.196   3.105   2.084 -0.8553 -0.4349  1.3197
 1762TIP3    H2 5293   3.085   3.203   2.116  0.8381  1.4460  1.6266
 1763TIP3   OH2 5294   2.156   0.372   4.905 -0.5841  0.0037 -0.1421
 1763TIP3    H1 5295   2.232   0.350   4.852 -1.2219 -0.0546 -1.0614
 1763TIP3    H2 5296   2.083   0.370   4.843 -1.6915 -2.1726  1.1426
 1764TIP3   OH2 5297   2.978   1.351   0.912  0.4789  0.0490 -0.1764
 1764TIP3    H1 5298   3.022   1.431   0.943 -0.4963  0.2326  0.8030
 1764TIP3    H2 5299   2.984   1.290   0.986  1.3971 -0.8809 -0.9936
 1765TIP3   OH2 5300   4.663   0.513   3.064 -0.1422  0.0333  0.1199
 1765TIP3    H1 5301   4.701   0.572   2.999 -0.2157 -0.6066 -0.5147
 1765TIP3    H2 5302   4.569   0.532   3.061  0.0839  1.7605  1.8341
 1766TIP3   OH2 5303   2.905   1.582   2.297  0.2746 -0.4415  0.2854
 1766TIP3    H1 5304   2.850   1.634   2.238 -1.9692 -1.5894  1.2747
 1766TIP3    H2 5305   2.973   1.545   2.240 -0.2187  0.6399 -1.0617
 1767TIP3   OH2 5306   0.438   5.583   0.579  0.3508  0.1339 -0.2429
 1767TIP3    H1 5307   0.521   5.540   0.598  0.6922  1.2798  1.0403
 1767TIP3    H2 5308   0.462   5.674   0.561 -0.6046  0.4577  0.0394
 1768TIP3   OH2 5309   3.790   5.275   0.438 -0.3303 -0.1977  0.0168
 1768TIP3    H1 5310   3.720   5.229   0.392  0.1863 -0.2884 -0.6978
 1768TIP3    H2 5311   3.745   5.332   0.500 -1.0294 -0.3186 -0.3747
 1769TIP3   OH2 5312   6.218   4.807   3.067  0.2807  0.8089 -0.0031
 1769TIP3    H1 5313   6.163   4.885   3.076 -1.0984 -0.1248  0.0864
 1769TIP3    H2 5314   6.155   4.736   3.052  1.4249 -0.4488  0.9413
 1770TIP3   OH2 5315   4.067   4.228   2.222  0.2733  0.1482 -0.3876
 1770TIP3    H1 5316   4.072   4.303   2.282  1.2394 -0.3522  0.1850
 1770TIP3    H2 5317   4.113   4.257   2.143 -1.1166  0.8571 -0.9766
 1771TIP3   OH2 5318   4.206   1.104   0.885  0.2452 -0.0246  0.5206
 1771TIP3    H1 5319   4.211   1.020   0.930 -3.2802 -0.3242  0.6323
 1771TIP3    H2 5320   4.202   1.082   0.792  1.9503  0.2527  0.3495
 1772TIP3   OH2 5321   0.478   3.234   0.243  0.5121 -0.6033 -0.5968
 1772TIP3    H1 5322   0.525   3.312   0.215 -1.2225  0.4419 -0.7698
 1772TIP3    H2 5323   0.455   3.250   0.334 -1.4622  0.0069 -1.1340
 1773TIP3   OH2 5324   5.982   1.917   0.155 -0.3370  0.6778  0.0404
 1773TIP3    H1 5325   5.983   1.825   0.129  0.8350  0.7854 -0.3262
 1773TIP3    H2 5326   5.890   1.934   0.177 -0.5894 -0.5413  0.0053
 1774TIP3   OH2 5327   3.098   2.897   0.920  0.2503 -0.0620  0.3924
 1774TIP3    H1 5328   3.007   2.878   0.897  0.6313 -0.9992 -0.3887
 1774TIP3    H2 5329   3.101   2.993   0.925 -0.6397  0.0070 -0.1520
 1775TIP3   OH2 5330   5.960   0.408   2.516  0.9994  0.0921  0.4139
 1775TIP3    H1 5331   5.894   0.410   2.447  2.2780  0.9639 -0.8447
 1775TIP3    H2 5332   5.933   0.336   2.573 -0.5470 -0.1172 -0.5193
 1776TIP3   OH2 5333   3.566   3.755   0.043 -0.0449 -0.3702  0.2807
 1776TIP3    H1 5334   3.489   3.760  -0.013  0.1622  1.5203  0.0992
 1776TIP3    H2 5335   3.540   3.799   0.124  0.1286 -1.7817  1.1462
 1777TIP3   OH2 5336   0.452   3.235   2.027 -0.5710  0.0428 -0.1349
 1777TIP3    H1 5337   0.525   3.175   2.017 -0.8985 -0.1991 -1.1516
 1777TIP3    H2 5338   0.399   3.197   2.097  0.3010  0.2634  0.6668
 1778TIP3   OH2 5339   2.667   3.607   2.554  0.1210 -0.8320  0.1968
 1778TIP3    H1 5340   2.589   3.662   2.553  1.7121  1.7231  1.9823
 1778TIP3    H2 5341   2.661   3.559   2.636  0.7680  0.0058  0.7522
 1779TIP3   OH2 5342   5.580   3.386   1.070  0.1013  0.5093 -0.2284
 1779TIP3    H1 5343   5.579   3.325   1.144  0.0487 -1.1644 -1.5524
 1779TIP3    H2 5344   5.518   3.455   1.095 -0.3504 -0.3162  1.0415
 1780TIP3   OH2 5345   6.248   0.140   4.734  0.0271 -0.1901 -0.1242
 1780TIP3    H1 5346   6.301   0.218   4.719 -0.4494  0.0332 -0.6593
 1780TIP3    H2 5347   6.311   0.074   4.764  1.2843 -0.9264 -3.8342
 1781TIP3   OH2 5348   5.459   3.424   3.251  0.7677 -0.2320  0.1862
 1781TIP3    H1 5349   5.440   3.434   3.345  0.3947 -2.8458  0.4801
 1781TIP3    H2 5350   5.386   3.372   3.218  1.0811  0.3667 -1.5062
 1782TIP3   OH2 5351   4.844   5.620   1.004 -0.3540 -0.0882 -0.1947
 1782TIP3    H1 5352   4.892   5.551   1.050 -1.4865 -0.4391  0.4965
 1782TIP3    H2 5353   4.754   5.588   1.002 -0.5692  0.5613 -1.4541
 1783TIP3   OH2 5354   1.239   0.490   1.496  0.5067 -0.4200 -0.2720
 1783TIP3    H1 5355   1.285   0.574   1.492 -0.3582  0.0769 -0.1778
 1783TIP3    H2 5356   1.308   0.425   1.496  1.2023  0.2968 -0.2898
 1784TIP3   OH2 5357   4.198   2.951   2.523 -0.4461  0.4824  0.2750
 1784TIP3    H1 5358   4.268   3.012   2.548  1.0958 -1.4139  0.7712
 1784TIP3    H2 5359   4.155   2.928   2.606 -0.0006 -0.2958  0.2955
 1785TIP3   OH2 5360   4.301   1.354   0.792 -0.0541  0.3855  0.1462
 1785TIP3    H1 5361   4.289   1.264   0.823 -0.1891  0.6086  0.7560
 1785TIP3    H2 5362   4.241   1.406   0.846 -0.5176  0.7478 -0.7037
 1786TIP3   OH2 5363   2.815   4.575   2.053 -0.1371  0.1189  0.2887
 1786TIP3    H1 5364   2.904   4.595   2.022 -0.7196  0.7349 -1.1044
 1786TIP3    H2 5365   2.776   4.526   1.981 -0.6377 -0.9699  1.2816
 1787TIP3   OH2 5366   4.196   2.775   0.292 -0.3164  0.2054  0.3428
 1787TIP3    H1 5367   4.207   2.812   0.379  0.5301  1.6157 -0.3218
 1787TIP3    H2 5368   4.105   2.746   0.289 -0.7177  1.3117  1.2621
 1788TIP3   OH2 5369   2.824   0.741   1.661 -0.0317  0.4559 -0.7496
 1788TIP3    H1 5370   2.879   0.771   1.734 -1.1924  0.8268  0.0068
 1788TIP3    H2 5371   2.815   0.647   1.675 -1.9311  0.8039  0.8392
 1789TIP3   OH2 5372   4.249   3.827   5.012  0.5730 -0.4942  0.0712
 1789TIP3    H1 5373   4.235   3.860   5.100 -2.5384  0.1396 -0.5530
 1789TIP3    H2 5374   4.197   3.747   5.007  1.4983 -1.0693 -0.9190
 1790TIP3   OH2 5375   1.538   0.253   2.496 -0.5162  0.7016  0.4052
 1790TIP3    H1 5376   1.448   0.276   2.474 -0.9852 -1.1938  0.1633
 1790TIP3    H2 5377   1.529   0.189   2.567  0.5730 -0.3859 -0.4071
 1791TIP3   OH2 5378   2.610   1.362   3.826 -0.3862  0.2313 -0.1370
 1791TIP3    H1 5379   2.669   1.360   3.750 -0.7136  0.3614 -0.3944
 1791TIP3    H2 5380   2.524   1.378   3.789 -0.6723 -0.5154  0.1912
 1792TIP3   OH2 5381   2.156   1.017   4.619 -0.1487 -0.0378  0.0689
 1792TIP3    H1 5382   2.092   0.984   4.557 -1.2964  0.8641  0.7407
 1792TIP3    H2 5383   2.162   0.949   4.685  2.3091 -1.7742 -1.7741
 1793TIP3   OH2 5384   4.569   4.524   0.744 -0.0081 -0.4891 -0.4251
 1793TIP3    H1 5385   4.533   4.576   0.671  0.9301  0.1496 -0.4430
 1793TIP3    H2 5386   4.501   4.458   0.761 -0.9276  0.3116 -0.8537
 1794TIP3   OH2 5387   4.053   2.065   2.926  0.0713  0.3619  0.3411
 1794TIP3    H1 5388   4.006   2.147   2.941 -0.4200  0.4587 -1.5322
 1794TIP3    H2 5389   4.143   2.084   2.953 -0.6745  0.4496  3.1030
 1795TIP3   OH2 5390   4.502   2.337   0.888 -0.5848  0.1136 -0.6192
 1795TIP3    H1 5391   4.560   2.407   0.859 -0.4449  0.3676  0.2460
 1795TIP3    H2 5392   4.550   2.293   0.959 -0.9925 -0.3613 -0.6288
 1796TIP3   OH2 5393   0.853   0.176   4.625 -0.5374  0.1111  0.1214
 1796TIP3    H1 5394   0.780   0.126   4.661 -0.5992  1.4074  1.9173
 1796TIP3    H2 5395   0.919   0.109   4.604 -1.3883 -0.8937  0.5431
 1797TIP3   OH2 5396   5.977   1.783   3.017  0.3488  0.4506 -0.3002
 1797TIP3    H1 5397   6.011   1.833   3.092 -0.3712 -0.6319  0.7917
 1797TIP3    H2 5398   5.898   1.741   3.051 -1.0397  1.3743 -2.2134
 1798TIP3   OH2 5399   5.307   5.524   2.051 -0.2214 -0.7276 -0.2833
 1798TIP3    H1 5400   5.229   5.481   2.086 -1.0109  1.9369  1.5041
 1798TIP3    H2 5401   5.372   5.516   2.120  0.1973 -0.6005 -0.6604
 1799TIP3   OH2 5402   1.811   5.184   1.826 -0.1796  0.1713 -0.0872
 1799TIP3    H1 5403   1.798   5.111   1.765  0.2080  1.5999 -1.9433
 1799TIP3    H2 5404   1.723   5.207   1.856 -0.2935 -1.1374  0.6641
 1800TIP3   OH2 5405   5.009   0.987   1.253 -0.1525 -0.2129 -0.5697
 1800TIP3    H1 5406   5.021   1.017   1.163 -3.0886  0.5885 -0.7825
 1800TIP3    H2 5407   5.077   0.921   1.265  2.2381  1.7405 -2.3452
 1801TIP3   OH2 5408   4.461   5.366   4.858 -0.1359 -0.2077 -0.6229
 1801TIP3    H1 5409   4.504   5.404   4.782  1.5293  2.0821  1.2906
 1801TIP3    H2 5410   4.379   5.414   4.866  0.4488  0.7278 -0.0826
 1802TIP3   OH2 5411   5.567   5.591   2.967  0.0294 -0.4192  0.3145
 1802TIP3    H1 5412   5.612   5.507   2.961  0.0103 -0.4143  0.1117
 1802TIP3    H2 5413   5.520   5.600   2.884  0.0039 -0.2247  0.3488
 1803TIP3   OH2 5414   3.276   3.397   4.623  0.7882  0.0973  0.0322
 1803TIP3    H1 5415   3.263   3.429   4.534 -1.0801  0.2289  0.3120
 1803TIP3    H2 5416   3.221   3.453   4.678  0.7169 -0.9247  1.0628
 1804TIP3   OH2 5417   2.012   1.241   2.496 -0.6356 -0.1258  0.3386
 1804TIP3    H1 5418   2.068   1.312   2.466  0.1982 -1.3882 -1.2847
 1804TIP3    H2 5419   2.073   1.172   2.522 -1.4270 -0.3371  1.6947
 1805TIP3   OH2 5420   4.747   3.571   4.481 -0.3858  0.7771 -0.2565
 1805TIP3    H1 5421   4.667   3.574   4.427 -0.6809 -1.0301  0.0065
 1805TIP3    H2 5422   4.818   3.564   4.418 -0.7594 -1.7755 -0.4905
 1806TIP3   OH2 5423   3.765   5.605   4.951  0.2060  0.4706  0.0906
 1806TIP3    H1 5424   3.694   5.640   5.006 -0.8764 -0.9539 -0.3589
 1806TIP3    H2 5425   3.824   5.562   5.013 -0.2545  0.1263  0.2988
 1807TIP3   OH2 5426   5.187   2.585   1.682  0.1681 -0.3025 -0.1210
 1807TIP3    H1 5427   5.218   2.603   1.771 -0.5353  0.2108  0.0259
 1807TIP3    H2 5428   5.092   2.593   1.688  0.1916  0.9381 -1.1904
 1808TIP3   OH2 5429   5.387   4.057   3.551 -0.4430 -0.4389 -0.0427
 1808TIP3    H1 5430   5.439   3.977   3.563  0.0371 -0.5770 -2.5783
 1808TIP3    H2 5431   5.451   4.128   3.558 -0.5420 -0.3832  0.3229
 1809TIP3   OH2 5432   3.729   4.923   2.936  0.1373  0.5213 -0.1452
 1809TIP3    H1 5433   3.747   5.007   2.893 -1.1373  0.2162 -1.3690
 1809TIP3    H2 5434   3.812   4.876   2.933  1.4868  2.4599  2.4318
 1810TIP3   OH2 5435   0.305   3.839   1.347 -0.0019 -0.3716 -0.1355
 1810TIP3    H1 5436   0.249   3.900   1.299 -0.6311 -0.8622 -0.0273
 1810TIP3    H2 5437   0.297   3.756   1.300  0.8835 -0.3724 -0.3061
 1811TIP3   OH2 5438   6.143   3.834   2.375 -0.0044 -0.3612 -0.6485
 1811TIP3    H1 5439   6.158   3.770   2.445 -0.3633 -1.3927 -1.4834
 1811TIP3    H2 5440   6.104   3.783   2.304 -1.4247  1.0253 -0.9171
 1812TIP3   OH2 5441   4.359   0.999   5.123 -0.2219  0.1034 -0.3924
 1812TIP3    H1 5442   4.447   1.033   5.139  0.3789 -1.4025 -0.3557
 1812TIP3    H2 5443   4.307   1.076   5.100  1.1691  0.9710 -0.7109
 1813TIP3   OH2 5444   5.298   4.449   4.443 -0.3495  0.4524 -0.0288
 1813TIP3    H1 5445   5.366   4.400   4.397 -1.4826 -0.4612 -0.7651
 1813TIP3    H2 5446   5.338   4.535   4.459  0.9670 -0.0531 -0.4373
 1814TIP3   OH2 5447   1.313   2.246   4.767 -0.1671  0.2799  0.1961
 1814TIP3    H1 5448   1.258   2.297   4.708  0.3432  0.9690  0.2987
 1814TIP3    H2 5449   1.274   2.159   4.768  0.8370 -0.3216 -2.6022
 1815TIP3   OH2 5450   4.928   1.352   3.035  1.0546  0.6153 -0.0292
 1815TIP3    H1 5451   4.874   1.428   3.013 -0.1647  0.2966  1.6584
 1815TIP3    H2 5452   4.899   1.327   3.122  3.0620 -0.3882  0.4060
 1816TIP3   OH2 5453   4.398   2.750   3.951 -0.4723  0.4527  0.1005
 1816TIP3    H1 5454   4.341   2.817   3.913 -0.5547  2.5352  3.4503
 1816TIP3    H2 5455   4.339   2.682   3.982 -0.6195 -0.0033 -1.1585
 1817TIP3   OH2 5456   2.735   3.915   4.568  0.6908 -0.3228  0.1489
 1817TIP3    H1 5457   2.700   3.918   4.657  2.3494 -1.6678  0.8974
 1817TIP3    H2 5458   2.754   4.006   4.547 -1.8124  0.3093  0.2306
 1818TIP3   OH2 5459   0.848   4.784   0.037 -0.2280  0.3742  0.0040
 1818TIP3    H1 5460   0.858   4.699   0.082 -1.0145  0.1040 -0.3051
 1818TIP3    H2 5461   0.755   4.786   0.012 -0.5114  1.8437  1.0350
 1819TIP3   OH2 5462   1.430   5.671   5.096 -0.1107 -0.1798  0.4313
 1819TIP3    H1 5463   1.339   5.697   5.106 -0.3040  1.1983 -3.4927
 1819TIP3    H2 5464   1.476   5.717   5.167 -1.8438  3.2353 -0.4509
 1820TIP3   OH2 5465   0.328   1.150   2.997 -0.0823  0.7995 -0.2011
 1820TIP3    H1 5466   0.288   1.065   3.015  0.6982  0.4151 -0.2274
 1820TIP3    H2 5467   0.400   1.130   2.938  0.4830  1.3959  0.2733
 1821TIP3   OH2 5468   1.175   0.362   3.584  0.3104 -0.0828  0.0501
 1821TIP3    H1 5469   1.241   0.430   3.572  0.2691 -0.1852 -0.8292
 1821TIP3    H2 5470   1.218   0.294   3.636  1.2298 -0.5782 -1.2967
 1822TIP3   OH2 5471   5.445   0.834   2.140  0.2426 -0.2853 -0.1448
 1822TIP3    H1 5472   5.386   0.902   2.172 -0.2444 -1.6442  2.0577
 1822TIP3    H2 5473   5.393   0.754   2.143  1.5261 -1.1452 -0.3238
 1823TIP3   OH2 5474   0.953   3.634   0.402 -0.1881 -0.1589  0.4148
 1823TIP3    H1 5475   0.975   3.707   0.345 -0.6165 -1.6457 -1.7540
 1823TIP3    H2 5476   0.989   3.659   0.488  1.0326  1.8694 -0.6132
 1824TIP3   OH2 5477   0.538   1.696   2.414 -0.4918 -0.3966  0.2143
 1824TIP3    H1 5478   0.531   1.651   2.330 -2.0104 -0.3923  0.3065
 1824TIP3    H2 5479   0.491   1.778   2.401  2.4346  1.3651 -0.0203
 1825TIP3   OH2 5480   4.861   3.659   3.305  0.2187  0.6756 -0.1424
 1825TIP3    H1 5481   4.817   3.600   3.367  1.0856  0.8670  0.6791
 1825TIP3    H2 5482   4.836   3.627   3.219 -0.0138 -0.3618  0.3020
 1826TIP3   OH2 5483   1.943   3.634   3.703  0.4059 -0.0008 -0.5366
 1826TIP3    H1 5484   2.032   3.624   3.668  0.8688  0.2190  0.5256
 1826TIP3    H2 5485   1.943   3.582   3.783 -0.3593  0.1877 -0.4056
 1827TIP3   OH2 5486   4.658   5.026   2.101  0.2088 -0.3990 -0.5382
 1827TIP3    H1 5487   4.684   4.997   2.014 -0.5739  0.9378 -1.2427
 1827TIP3    H2 5488   4.741   5.038   2.147  0.6876 -0.1174 -1.4449
 1828TIP3   OH2 5489   5.175   0.975   2.558  0.8862  0.6251 -0.1411
 1828TIP3    H1 5490   5.098   1.003   2.507  0.1135 -0.5591  0.3370
 1828TIP3    H2 5491   5.188   1.046   2.621 -1.3609 -0.2015  1.3874
 1829TIP3   OH2 5492   6.280   1.700   2.070 -1.0977 -0.1153 -0.2382
 1829TIP3    H1 5493   6.194   1.688   2.030 -1.1953 -0.6979  0.1340
 1829TIP3    H2 5494   6.293   1.622   2.124 -1.5413  1.2415  1.9231
 1830TIP3   OH2 5495   0.619   2.220   0.976  0.2126 -0.1278  0.2384
 1830TIP3    H1 5496   0.565   2.176   0.910 -0.2336 -2.2411  1.8988
 1830TIP3    H2 5497   0.672   2.150   1.014 -0.6134  0.7027  3.1281
 1831TIP3   OH2 5498   1.356   5.248   2.552 -0.6300 -0.4565 -0.1778
 1831TIP3    H1 5499   1.304   5.317   2.510  0.6511  0.2506 -0.6557
 1831TIP3    H2 5500   1.360   5.178   2.487  1.0451  0.4895 -1.1644
 1832TIP3   OH2 5501   2.889   0.666   0.825 -0.7718  0.2300 -0.4059
 1832TIP3    H1 5502   2.846   0.628   0.748 -0.8132  0.5849 -0.5575
 1832TIP3    H2 5503   2.818   0.703   0.876 -1.0120 -1.7939  0.8502
 1833TIP3   OH2 5504   6.088   3.300   4.301 -0.2567 -0.1594 -0.3202
 1833TIP3    H1 5505   6.086   3.378   4.246 -0.8926 -1.3442 -2.0859
 1833TIP3    H2 5506   6.166   3.252   4.272  0.1878 -0.1560  0.8132
 1834TIP3   OH2 5507   4.976   5.191   2.493 -0.2576  0.2540 -0.1745
 1834TIP3    H1 5508   4.910   5.257   2.509  0.1991  0.5500  0.5293
 1834TIP3    H2 5509   4.941   5.111   2.532 -1.6922 -0.4509 -2.7041
 1835TIP3   OH2 5510   3.502   2.140   0.313  0.6872  0.3712 -0.1582
 1835TIP3    H1 5511   3.415   2.154   0.349  0.2868 -1.5055 -0.2928
 1835TIP3    H2 5512   3.496   2.168   0.222  0.8640  2.3006  0.3939
 1836TIP3   OH2 5513   0.054   0.438   1.977  0.4203 -0.0702  0.0552
 1836TIP3    H1 5514  -0.030   0.398   2.000  1.2969 -1.2823  1.3410
 1836TIP3    H2 5515   0.100   0.447   2.061  1.0201  1.9269 -0.4452
 1837TIP3   OH2 5516   3.485   4.076   1.526  0.2939 -0.7125 -0.1487
 1837TIP3    H1 5517   3.431   4.006   1.489  0.2779  0.3161 -2.2382
 1837TIP3    H2 5518   3.447   4.156   1.492  0.7296  0.3047  1.6451
 1838TIP3   OH2 5519   4.575   2.042   2.872 -0.3734 -0.0260  0.0010
 1838TIP3    H1 5520   4.663   2.019   2.901  0.3660  2.2720 -0.1855
 1838TIP3    H2 5521   4.542   2.099   2.941 -2.3408 -1.9903  0.7757
 1839TIP3   OH2 5522   5.008   1.792   3.470  0.4129  0.0938 -0.0571
 1839TIP3    H1 5523   4.928   1.750   3.501  1.2028  0.0423  2.0765
 1839TIP3    H2 5524   4.999   1.883   3.495  0.3683  0.4270 -1.2286
 1840TIP3   OH2 5525   4.068   3.862   0.532 -0.4438  0.3729 -0.3539
 1840TIP3    H1 5526   4.096   3.775   0.502  1.0250 -0.0135  1.8603
 1840TIP3    H2 5527   4.143   3.918   0.516  0.2816  0.2159  2.0884
 1841TIP3   OH2 5528   5.783   3.548   0.948  0.0002 -0.7799 -0.0121
 1841TIP3    H1 5529   5.760   3.640   0.961  1.9492 -0.4659  1.6696
 1841TIP3    H2 5530   5.717   3.499   0.998  0.2321 -0.1627  0.9175
 1842TIP3   OH2 5531   1.195   1.240   4.956 -0.0128  0.5744  0.4671
 1842TIP3    H1 5532   1.126   1.179   4.930  1.3239 -0.9890  0.3823
 1842TIP3    H2 5533   1.231   1.273   4.874  0.7417 -0.3106  0.4165
 1843TIP3   OH2 5534   0.538   3.886   2.571  0.0071  0.4366 -0.4169
 1843TIP3    H1 5535   0.491   3.850   2.646 -0.3523 -0.8169 -1.2010
 1843TIP3    H2 5536   0.581   3.965   2.604 -1.1012  0.5580  0.7873
 1844TIP3   OH2 5537   3.168   5.839   4.330  0.1076  0.1338 -0.1744
 1844TIP3    H1 5538   3.230   5.912   4.334  1.0407 -0.6207 -0.5960
 1844TIP3    H2 5539   3.161   5.808   4.421 -0.5661  0.9534  0.0673
 1845TIP3   OH2 5540   5.480   5.136   2.277  0.0740 -0.6074  0.1399
 1845TIP3    H1 5541   5.505   5.047   2.250  0.2504 -0.3548 -0.5395
 1845TIP3    H2 5542   5.408   5.123   2.339  0.0538 -1.2233 -0.0079
 1846TIP3   OH2 5543   4.196   0.005   3.128 -0.0578  0.5548  0.3890
 1846TIP3    H1 5544   4.253   0.022   3.203  0.3970  0.7445  0.0105
 1846TIP3    H2 5545   4.229   0.064   3.060 -0.1104 -0.0100 -0.1340
 1847TIP3   OH2 5546   1.820   3.211   4.425  0.0763 -0.0684  0.1565
 1847TIP3    H1 5547   1.844   3.284   4.482 -0.5339 -1.5935  2.5516
 1847TIP3    H2 5548   1.904   3.175   4.395  0.5731 -0.5890  2.0196
 1848TIP3   OH2 5549   0.749   2.717   3.887  0.0059 -0.0069 -0.0347
 1848TIP3    H1 5550   0.807   2.780   3.844  1.1452 -0.2828  1.0261
 1848TIP3    H2 5551   0.660   2.749   3.868  0.5352  1.5173 -0.1052
 1849TIP3   OH2 5552   2.877   5.753   4.917  0.2431 -0.3644 -0.1742
 1849TIP3    H1 5553   2.903   5.806   4.842 -0.7394 -0.9903 -0.9774
 1849TIP3    H2 5554   2.787   5.779   4.936  0.7886  0.4791  1.4173
 1850TIP3   OH2 5555   1.920   0.407   2.097 -0.2804 -0.0698  0.2646
 1850TIP3    H1 5556   1.849   0.366   2.146 -1.7272  1.7360 -0.2415
 1850TIP3    H2 5557   1.881   0.433   2.014  1.1662  0.3058 -0.3272
 1851TIP3   OH2 5558   3.534   4.207   3.353 -0.4926 -0.4480  0.6669
 1851TIP3    H1 5559   3.557   4.119   3.325 -2.1119 -0.3636 -1.1165
 1851TIP3    H2 5560   3.443   4.201   3.381 -0.8832  0.7831 -0.2290
 1852TIP3   OH2 5561   4.392   2.642   2.563  0.0058 -0.0484 -0.0911
 1852TIP3    H1 5562   4.448   2.568   2.540 -0.2486 -0.6531  1.1576
 1852TIP3    H2 5563   4.450   2.718   2.563  0.3798 -0.3262 -0.8735
 1853TIP3   OH2 5564   0.263   1.416   5.109  0.0261 -0.4259  0.1581
 1853TIP3    H1 5565   0.177   1.384   5.080 -0.4694  0.4053  0.6478
 1853TIP3    H2 5566   0.244   1.466   5.188  0.3720  3.0262 -1.7446
 1854TIP3   OH2 5567   1.423   1.678   4.264  0.5331  0.1869 -0.2704
 1854TIP3    H1 5568   1.337   1.636   4.264  0.3163  0.4741  1.9412
 1854TIP3    H2 5569   1.406   1.769   4.243 -0.0539  0.6770  1.9929
 1855TIP3   OH2 5570   3.289   4.732   0.840  0.5870  0.2096  0.0780
 1855TIP3    H1 5571   3.371   4.769   0.874  0.5742 -0.6911  1.1606
 1855TIP3    H2 5572   3.232   4.807   0.829  1.5229  0.8472 -0.6136
 1856TIP3   OH2 5573   6.345   3.788   1.742  0.9067  0.5231 -0.0586
 1856TIP3    H1 5574   6.305   3.873   1.765  1.3495  0.3409  1.5020
 1856TIP3    H2 5575   6.360   3.746   1.826  1.9593 -0.5399 -0.7591
 1857TIP3   OH2 5576   2.338   4.288   4.064  0.3386 -0.5407 -0.5391
 1857TIP3    H1 5577   2.339   4.244   3.979 -0.9076 -0.4829 -0.5955
 1857TIP3    H2 5578   2.387   4.229   4.122  0.2221 -1.1302 -1.0350
 1858TIP3   OH2 5579   6.045   3.631   5.048  0.5313  0.4139  0.1180
 1858TIP3    H1 5580   5.963   3.609   5.003  0.3527  3.7668 -1.5027
 1858TIP3    H2 5581   6.023   3.629   5.141 -0.6031 -1.3237 -0.1399
 1859TIP3   OH2 5582   2.853   3.749   0.274  0.0084 -0.3712  0.2931
 1859TIP3    H1 5583   2.946   3.726   0.264 -0.1913 -0.2725 -2.4216
 1859TIP3    H2 5584   2.853   3.844   0.283  0.0969  0.1606 -3.5877
 1860TIP3   OH2 5585   3.982   4.876   4.619 -0.4743  0.8642 -0.2275
 1860TIP3    H1 5586   3.894   4.872   4.583 -0.2774 -3.0384 -0.7490
 1860TIP3    H2 5587   4.040   4.869   4.542  0.1219 -0.1549  0.2798
 1861TIP3   OH2 5588   2.186   3.151   4.380 -0.3655 -0.0507  0.3290
 1861TIP3    H1 5589   2.197   3.057   4.362 -0.2426  0.4696 -2.8395
 1861TIP3    H2 5590   2.273   3.179   4.408  0.2639 -0.4593 -1.1242
 1862TIP3   OH2 5591   1.111   3.678   2.427 -0.8342  0.1929 -0.3441
 1862TIP3    H1 5592   1.072   3.753   2.383  0.7372  2.3840  1.7745
 1862TIP3    H2 5593   1.185   3.654   2.371  1.2222  3.0215  0.9169
 1863TIP3   OH2 5594   5.334   1.997   1.771 -0.2551 -0.0581 -0.4887
 1863TIP3    H1 5595   5.407   1.937   1.760 -0.0013  0.1379  0.0653
 1863TIP3    H2 5596   5.341   2.026   1.862 -2.0929 -1.4202  0.1439
 1864TIP3   OH2 5597   5.149   4.320   0.494 -0.1070  0.0216 -1.0547
 1864TIP3    H1 5598   5.226   4.362   0.455 -0.6591  0.4826 -1.6734
 1864TIP3    H2 5599   5.076   4.377   0.470 -0.7376 -0.7645 -1.0503
 1865TIP3   OH2 5600   0.737   5.869   3.292 -0.1037 -0.4206 -0.3751
 1865TIP3    H1 5601   0.777   5.956   3.294 -2.0380  0.5242 -0.1763
 1865TIP3    H2 5602   0.700   5.857   3.379  1.4604 -2.1528  0.1149
 1866TIP3   OH2 5603   4.087   3.738   4.753 -0.2306 -0.3741  0.5167
 1866TIP3    H1 5604   4.009   3.725   4.806  0.2259 -0.0698  1.2892
 1866TIP3    H2 5605   4.079   3.828   4.721  0.3347  0.0675  1.5441
 1867TIP3   OH2 5606   2.449   0.156   4.983 -0.4619  0.0133 -0.2043
 1867TIP3    H1 5607   2.402   0.216   4.925 -1.3486 -1.0203 -0.5862
 1867TIP3    H2 5608   2.487   0.090   4.924 -0.2982 -0.3379  0.2858
 1868TIP3   OH2 5609   4.981   2.033   1.416  0.7172  0.1353 -0.0628
 1868TIP3    H1 5610   5.060   2.047   1.364  0.0800  3.7837 -0.3170
 1868TIP3    H2 5611   4.998   2.078   1.499 -0.4394 -0.6300  0.6184
 1869TIP3   OH2 5612   2.825   1.041   3.691  0.7749 -0.1466  0.4326
 1869TIP3    H1 5613   2.883   0.966   3.679  0.5600 -0.1210 -1.0362
 1869TIP3    H2 5614   2.783   1.027   3.775  1.6938 -1.0063  0.7620
 1870TIP3   OH2 5615   4.227   5.107   2.250 -0.9927 -0.4847 -0.3682
 1870TIP3    H1 5616   4.309   5.142   2.215 -1.0462 -0.8162 -0.8358
 1870TIP3    H2 5617   4.170   5.182   2.259 -1.5647 -0.5917 -2.5891
 1871TIP3   OH2 5618   4.219   3.178   3.044  0.0731 -0.0699  0.3514
 1871TIP3    H1 5619   4.165   3.099   3.042 -1.5313  0.8645  2.3096
 1871TIP3    H2 5620   4.279   3.164   3.118  1.4707 -0.4393 -0.8228
 1872TIP3   OH2 5621   4.743   1.211   2.140 -0.0750 -0.1225 -0.0445
 1872TIP3    H1 5622   4.735   1.243   2.050 -1.5196 -1.9278 -0.6210
 1872TIP3    H2 5623   4.836   1.191   2.151  0.4807  2.0414 -0.3903
 1873TIP3   OH2 5624   0.481   4.382   4.385  0.4113  0.0212  0.2656
 1873TIP3    H1 5625   0.405   4.355   4.437  0.5293 -1.5255 -0.3296
 1873TIP3    H2 5626   0.488   4.476   4.401 -2.4608  0.5012 -0.6959
 1874TIP3   OH2 5627   1.354   3.873   2.487  0.2322 -0.2851 -0.1357
 1874TIP3    H1 5628   1.413   3.798   2.496 -0.2713 -0.6304  0.3698
 1874TIP3    H2 5629   1.298   3.868   2.565 -0.4532  0.0424 -0.6044
 1875TIP3   OH2 5630   0.166   4.661   4.469 -0.2414 -0.1389 -0.2855
 1875TIP3    H1 5631   0.170   4.665   4.374  1.1389  0.0627 -0.2413
 1875TIP3    H2 5632   0.116   4.739   4.495  0.7005  0.6420 -0.7797
 1876TIP3   OH2 5633   6.162   4.474   4.763 -0.1901 -0.2993 -0.2221
 1876TIP3    H1 5634   6.184   4.426   4.683 -1.2466  0.5596 -1.0635
 1876TIP3    H2 5635   6.082   4.522   4.741 -0.3522  0.1712  1.2753
 1877TIP3   OH2 5636   3.313   3.538   1.344  0.5427 -0.2468  0.1883
 1877TIP3    H1 5637   3.386   3.514   1.287  0.1516 -0.3549 -0.2762
 1877TIP3    H2 5638   3.254   3.589   1.288 -1.2882 -2.7819 -0.4136
 1878TIP3   OH2 5639   1.786   4.612   2.557  0.0964 -0.4085  0.0963
 1878TIP3    H1 5640   1.860   4.609   2.618  0.5762 -0.7035 -0.4851
 1878TIP3    H2 5641   1.721   4.667   2.601  0.1589 -1.1581  1.1657
 1879TIP3   OH2 5642   0.044   0.563   3.047  0.4709 -0.0240  0.1200
 1879TIP3    H1 5643   0.037   0.590   3.139  1.4406 -0.5605  0.3615
 1879TIP3    H2 5644   0.061   0.469   3.051  1.6191  0.1344 -0.5664
 1880TIP3   OH2 5645   1.414   0.008   0.759  0.0168  0.0266  0.2280
 1880TIP3    H1 5646   1.362   0.047   0.688  0.5450 -0.1539 -0.2665
 1880TIP3    H2 5647   1.495  -0.019   0.716  0.2473 -0.2899  0.8646
 1881TIP3   OH2 5648   4.205   0.017   2.123  0.1486  0.5217  0.2442
 1881TIP3    H1 5649   4.224   0.110   2.128  1.6468  0.2366  0.0748
 1881TIP3    H2 5650   4.289  -0.025   2.104 -0.3351 -0.9380  1.1124
 1882TIP3   OH2 5651   4.418   2.219   4.938  0.3732 -0.2348 -0.0355
 1882TIP3    H1 5652   4.440   2.282   5.006 -0.5495  1.2813 -1.0788
 1882TIP3    H2 5653   4.355   2.160   4.979 -0.5879  0.9852  0.2968
 1883TIP3   OH2 5654   5.233   2.305   4.330 -0.3965  0.3422 -0.3900
 1883TIP3    H1 5655   5.319   2.308   4.371  0.1360  3.6897 -1.3898
 1883TIP3    H2 5656   5.171   2.302   4.403  0.5742  0.8937  0.4716
 1884TIP3   OH2 5657   6.272   4.340   1.084 -0.2703  0.8561  0.0727
 1884TIP3    H1 5658   6.188   4.360   1.125 -1.1758 -0.1674 -1.1828
 1884TIP3    H2 5659   6.295   4.419   1.035  0.1604  1.6009  1.4301
 1885TIP3   OH2 5660   5.967   5.987   2.594 -0.0908  0.2472  0.3074
 1885TIP3    H1 5661   6.041   5.968   2.653  0.1238  0.8613  0.2493
 1885TIP3    H2 5662   5.890   5.969   2.647  0.0951 -0.4746  0.3465
 1886TIP3   OH2 5663   3.280   2.487   4.595 -0.2437  0.1666  0.1584
 1886TIP3    H1 5664   3.196   2.505   4.637  0.7634 -0.5009  2.6495
 1886TIP3    H2 5665   3.337   2.559   4.622  0.2758  0.0862 -0.6725
 1887TIP3   OH2 5666   4.079   4.728   4.833 -0.3578  0.6902 -0.4050
 1887TIP3    H1 5667   4.142   4.773   4.890  1.2323 -0.6799 -1.0096
 1887TIP3    H2 5668   4.075   4.782   4.754  1.1713  0.0782 -0.9346
 1888TIP3   OH2 5669   1.512   3.527   4.467  0.7736  0.2433  0.3969
 1888TIP3    H1 5670   1.571   3.517   4.542  0.8455 -2.5490  0.0430
 1888TIP3    H2 5671   1.430   3.557   4.506  1.4640  1.0576  1.2817
 1889TIP3   OH2 5672   1.969   4.151   0.704  0.2157 -0.2790  0.1379
 1889TIP3    H1 5673   2.033   4.119   0.767  0.6150  2.9052  1.5332
 1889TIP3    H2 5674   1.884   4.135   0.745  0.3693 -0.1046  0.5238
 1890TIP3   OH2 5675   4.072   5.368   1.201  0.2150  0.3747 -0.2048
 1890TIP3    H1 5676   4.165   5.346   1.195  0.2402  0.2624  0.4978
 1890TIP3    H2 5677   4.071   5.463   1.214  0.1103  0.8608 -3.1060
 1891TIP3   OH2 5678   0.669   5.067   3.458  0.5087 -0.0825  0.0522
 1891TIP3    H1 5679   0.670   5.100   3.548  1.1550  0.0987 -0.0111
 1891TIP3    H2 5680   0.698   4.976   3.466 -1.4414 -0.7122  0.2455
 1892TIP3   OH2 5681   3.330   2.288   1.918 -0.2649  0.5130  0.0323
 1892TIP3    H1 5682   3.392   2.278   1.991 -0.2519  4.3346  0.7578
 1892TIP3    H2 5683   3.246   2.260   1.954  0.0377  0.7936  0.9927
 1893TIP3   OH2 5684   0.668   1.426   1.413  0.1523  0.1617 -0.2547
 1893TIP3    H1 5685   0.595   1.384   1.368 -0.0453 -1.5062  1.4875
 1893TIP3    H2 5686   0.720   1.353   1.447  0.1464  1.2946  2.3842
 1894TIP3   OH2 5687   0.928   1.233   0.319 -0.5365  0.3002 -0.2570
 1894TIP3    H1 5688   0.959   1.304   0.265  3.1203 -0.3683  0.7190
 1894TIP3    H2 5689   0.895   1.275   0.399 -0.8263  0.9738 -0.7276
 1895TIP3   OH2 5690   3.374   1.324   4.634  0.6594  0.3779 -0.2908
 1895TIP3    H1 5691   3.302   1.339   4.573  0.4055  2.6215  0.4329
 1895TIP3    H2 5692   3.331   1.312   4.719  1.0768  2.4568  0.2752
 1896TIP3   OH2 5693   5.220   2.603   0.619 -0.4538  0.5926 -0.0298
 1896TIP3    H1 5694   5.197   2.692   0.647 -1.1068  0.0486  1.2544
 1896TIP3    H2 5695   5.310   2.610   0.588  0.8735  1.0878  3.4595
 1897TIP3   OH2 5696   3.646   1.476   0.312 -0.0689  0.1607 -0.1655
 1897TIP3    H1 5697   3.702   1.541   0.269  0.5124 -0.3391 -0.1870
 1897TIP3    H2 5698   3.647   1.402   0.251 -0.0882 -0.1569  0.2220
 1898TIP3   OH2 5699   2.238   3.639   0.296  0.2985 -0.0637 -0.2381
 1898TIP3    H1 5700   2.164   3.615   0.240 -0.2572  1.8366 -0.3840
 1898TIP3    H2 5701   2.315   3.620   0.243 -0.0290 -2.2563 -0.0154
 1899TIP3   OH2 5702   2.563   5.874   2.302 -0.7676 -0.0054  0.3391
 1899TIP3    H1 5703   2.652   5.843   2.290 -1.0930 -1.0160  0.4400
 1899TIP3    H2 5704   2.522   5.810   2.360 -1.3771  0.7937  0.8259
 1900TIP3   OH2 5705   3.989   4.896   3.947 -0.4572  0.1967 -0.0888
 1900TIP3    H1 5706   4.076   4.870   3.916 -0.5880 -0.1271 -0.1825
 1900TIP3    H2 5707   3.944   4.928   3.869 -0.9882 -1.1581 -0.3579
 1901TIP3   OH2 5708   2.962   1.559   1.257  0.0407 -0.5080 -0.2559
 1901TIP3    H1 5709   3.041   1.588   1.302  1.9520 -3.0698 -1.6591
 1901TIP3    H2 5710   2.961   1.610   1.176 -0.5636  0.4982  0.3647
 1902TIP3   OH2 5711   4.774   1.311   4.670  0.2682  0.0907 -0.8388
 1902TIP3    H1 5712   4.743   1.308   4.580 -0.8050 -0.7049 -0.4718
 1902TIP3    H2 5713   4.727   1.239   4.714 -0.8342  1.7136  0.8117
 1903TIP3   OH2 5714   3.819   4.291   4.677  0.3474 -0.0913  0.0980
 1903TIP3    H1 5715   3.736   4.251   4.703 -0.0096  0.2159 -0.5288
 1903TIP3    H2 5716   3.807   4.384   4.696 -0.2005  0.2635 -1.7636
 1904TIP3   OH2 5717   5.903   0.300   1.669 -0.0940  0.2900 -0.0672
 1904TIP3    H1 5718   5.888   0.371   1.607 -1.3783  0.1076  0.0018
 1904TIP3    H2 5719   5.815   0.275   1.698  0.2279 -2.2405 -1.0980
 1905TIP3   OH2 5720   3.935   5.201   2.061  0.0769  0.7759  0.5839
 1905TIP3    H1 5721   4.009   5.237   2.110 -0.1634  0.6190  1.0715
 1905TIP3    H2 5722   3.875   5.168   2.129  0.0807 -0.1240  0.1564
 1906TIP3   OH2 5723   6.318   5.157   4.636 -0.5362 -0.6070 -0.2111
 1906TIP3    H1 5724   6.232   5.154   4.595 -1.0400 -0.4210  0.7868
 1906TIP3    H2 5725   6.368   5.220   4.584 -1.5166  0.4838  0.1025
 1907TIP3   OH2 5726   3.924   3.344   3.904 -0.0175 -0.0402 -0.2174
 1907TIP3    H1 5727   3.863   3.294   3.850  1.7844 -2.2528 -0.3526
 1907TIP3    H2 5728   3.974   3.395   3.842 -1.3434  1.4236 -0.1423
 1908TIP3   OH2 5729   3.265   2.090   4.933 -0.0804  0.3706 -0.8666
 1908TIP3    H1 5730   3.335   2.130   4.881 -0.0017 -0.3231 -1.3148
 1908TIP3    H2 5731   3.250   2.005   4.891  0.6464 -0.6296  0.8093
 1909TIP3   OH2 5732   3.759   4.629   1.048 -0.2326  0.5845  0.0069
 1909TIP3    H1 5733   3.801   4.544   1.037 -0.1621  0.7190 -0.8359
 1909TIP3    H2 5734   3.823   4.691   1.013  0.7325  1.2463  2.7314
 1910TIP3   OH2 5735   5.831   2.598   2.531  0.1277  0.0804 -0.0119
 1910TIP3    H1 5736   5.844   2.512   2.573 -0.4870 -0.5817 -1.1357
 1910TIP3    H2 5737   5.761   2.583   2.467 -0.8885  1.7310  0.6473
 1911TIP3   OH2 5738   0.507   0.947   3.979  0.0288 -0.4008 -0.3165
 1911TIP3    H1 5739   0.428   0.922   4.026 -0.0937 -1.1548 -0.9010
 1911TIP3    H2 5740   0.493   0.914   3.890  0.1854  1.1203 -0.9324
 1912TIP3   OH2 5741   0.721   0.877   1.275 -0.7019 -0.1148 -0.6770
 1912TIP3    H1 5742   0.712   0.826   1.194 -0.8086  1.7847 -1.9245
 1912TIP3    H2 5743   0.661   0.950   1.264  0.0975  0.7738  0.6455
 1913TIP3   OH2 5744   6.296   2.667   0.063 -0.3278 -0.1913 -0.2802
 1913TIP3    H1 5745   6.375   2.688   0.114 -0.0725 -0.3369 -0.6056
 1913TIP3    H2 5746   6.223   2.684   0.122  0.0159 -2.9665  1.1261
 1914TIP3   OH2 5747   4.292   3.590   4.674 -0.2042  0.8811  0.1267
 1914TIP3    H1 5748   4.212   3.623   4.713 -0.0973 -0.5949  1.7307
 1914TIP3    H2 5749   4.358   3.597   4.744  0.2442 -0.9160 -0.0623
 1915TIP3   OH2 5750   0.049   1.437   1.848 -0.0348 -0.0350 -0.1571
 1915TIP3    H1 5751  -0.012   1.388   1.793  1.5757 -0.0256 -2.0351
 1915TIP3    H2 5752   0.080   1.373   1.912  1.1186 -1.1910 -1.8123
 1916TIP3   OH2 5753   1.630   1.701   1.656 -0.1046 -1.0710  0.0070
 1916TIP3    H1 5754   1.682   1.623   1.676  0.2493 -0.5277  1.2911
 1916TIP3    H2 5755   1.597   1.730   1.741  0.2014  0.4798 -0.3802
 1917TIP3   OH2 5756   3.429   5.112   2.661  0.1937 -0.2261  0.0740
 1917TIP3    H1 5757   3.434   5.038   2.721  0.6310 -1.1862 -1.1123
 1917TIP3    H2 5758   3.448   5.189   2.716  0.5324 -1.0645  1.1589
 1918TIP3   OH2 5759   5.490   2.098   1.478 -0.1389 -0.7775  0.4373
 1918TIP3    H1 5760   5.456   2.187   1.484 -1.2337 -1.2449  1.6373
 1918TIP3    H2 5761   5.580   2.104   1.510 -0.4338 -0.2091  1.1751
 1919TIP3   OH2 5762   0.446   2.371   0.731  0.0884  0.4276  0.3375
 1919TIP3    H1 5763   0.464   2.283   0.762 -1.1165 -0.0127 -0.1668
 1919TIP3    H2 5764   0.528   2.400   0.692  1.1598  0.3900  2.4428
 1920TIP3   OH2 5765   2.898   2.650   3.032 -0.4226 -0.3059 -0.5783
 1920TIP3    H1 5766   2.839   2.575   3.036 -0.5798 -0.1692 -0.2776
 1920TIP3    H2 5767   2.899   2.685   3.121  0.5128 -0.6040 -0.4612
 1921TIP3   OH2 5768   5.841   0.505   3.583 -0.6478  0.3504  0.2729
 1921TIP3    H1 5769   5.807   0.517   3.672 -0.1787  0.1800  0.4788
 1921TIP3    H2 5770   5.936   0.509   3.593 -0.5994  0.6314 -0.2669
 1922TIP3   OH2 5771   3.712   4.656   3.809 -0.5797  0.2295  0.3505
 1922TIP3    H1 5772   3.680   4.672   3.720  0.7507  0.7876 -0.0487
 1922TIP3    H2 5773   3.678   4.730   3.860  1.7320  2.0267 -0.5236
 1923TIP3   OH2 5774   0.155   3.822   2.490 -0.1850 -0.3897 -0.2852
 1923TIP3    H1 5775   0.136   3.846   2.580 -0.6131  0.0966 -0.5029
 1923TIP3    H2 5776   0.183   3.903   2.448  0.2313 -0.6565 -0.5333
 1924TIP3   OH2 5777   1.850   2.612   0.020 -0.6070 -0.2547  0.0345
 1924TIP3    H1 5778   1.882   2.698  -0.009 -3.0826 -0.0242 -2.3247
 1924TIP3    H2 5779   1.760   2.628   0.049 -0.6832 -1.8505  0.7872
 1925TIP3   OH2 5780   6.267   0.319   0.869 -0.1080  0.2913  0.9279
 1925TIP3    H1 5781   6.237   0.392   0.924  0.5712  0.7913  0.6617
 1925TIP3    H2 5782   6.278   0.246   0.929 -1.0728  0.3209  1.1559
 1926TIP3   OH2 5783   2.754   1.886   2.437 -0.4273 -0.1449 -0.4800
 1926TIP3    H1 5784   2.676   1.915   2.485  0.6055 -0.2541  1.3411
 1926TIP3    H2 5785   2.801   1.831   2.499  1.3793  0.3746 -1.3427
 1927TIP3   OH2 5786   5.901   1.252   1.918 -0.3107  0.1727 -0.9657
 1927TIP3    H1 5787   5.881   1.320   1.854 -2.7972 -1.1563 -1.7259
 1927TIP3    H2 5788   5.823   1.247   1.973  0.4130 -1.0616  0.0000
 1928TIP3   OH2 5789   2.007   2.992   0.924 -0.0717 -0.3696 -0.2084
 1928TIP3    H1 5790   2.089   3.026   0.888  0.1354 -0.9407 -0.2784
 1928TIP3    H2 5791   2.032   2.910   0.966 -0.1227  0.6941  2.0637
 1929TIP3   OH2 5792   4.164   0.768   1.966 -0.3356 -0.1578  0.6533
 1929TIP3    H1 5793   4.115   0.843   1.998  0.5679 -0.6489  3.5468
 1929TIP3    H2 5794   4.176   0.784   1.873 -2.4494  1.9290  0.6634
 1930TIP3   OH2 5795   5.663   3.788   2.180  0.5363  0.1087 -0.1215
 1930TIP3    H1 5796   5.726   3.833   2.235 -0.0246 -0.3735  0.9377
 1930TIP3    H2 5797   5.659   3.699   2.214 -0.3444 -0.0060 -0.4846
 1931TIP3   OH2 5798   0.172   5.042   3.380 -0.3739  0.1428  0.6402
 1931TIP3    H1 5799   0.148   4.981   3.310  0.3752  1.2596 -0.6528
 1931TIP3    H2 5800   0.202   5.120   3.334  1.3229  0.4740  2.2004
 1932TIP3   OH2 5801   0.848   4.339   4.242 -0.2172  0.9397 -0.1821
 1932TIP3    H1 5802   0.894   4.266   4.200 -0.1023  1.4514 -0.9758
 1932TIP3    H2 5803   0.918   4.397   4.272 -0.3003  0.5984  0.7142
 1933TIP3   OH2 5804   6.319   4.663   1.514  0.3427 -0.9802 -0.0593
 1933TIP3    H1 5805   6.401   4.670   1.464 -1.0517  2.3809 -2.2273
 1933TIP3    H2 5806   6.322   4.736   1.576 -1.2523 -0.3116 -0.7080
 1934TIP3   OH2 5807   0.166   5.089   1.071 -0.4503 -0.1709 -1.1666
 1934TIP3    H1 5808   0.181   5.149   0.998 -2.2032 -0.2340 -1.6184
 1934TIP3    H2 5809   0.093   5.034   1.042 -1.1365 -0.2493  0.6035
 1935TIP3   OH2 5810   4.000   5.148   0.594 -0.2023 -0.6041  0.7244
 1935TIP3    H1 5811   3.954   5.189   0.521  1.4141 -2.0667 -1.2574
 1935TIP3    H2 5812   3.974   5.198   0.671 -2.7606  0.4097 -0.6784
 1936TIP3   OH2 5813   5.335   4.065   1.413 -0.4518  0.1174  0.2416
 1936TIP3    H1 5814   5.294   4.071   1.327  0.1387  0.2705 -0.0334
 1936TIP3    H2 5815   5.261   4.062   1.475 -0.8833  1.2307 -0.1849
 1937TIP3   OH2 5816   4.532   3.500   0.594 -0.5108 -0.4660  0.2382
 1937TIP3    H1 5817   4.544   3.550   0.513  0.1600  0.4573  0.8744
 1937TIP3    H2 5818   4.438   3.503   0.610 -0.4172  1.3853  0.7012
 1938TIP3   OH2 5819   1.329   2.220   1.004 -0.0272  0.0062 -0.2342
 1938TIP3    H1 5820   1.334   2.271   1.086  0.0503  0.6471 -0.6262
 1938TIP3    H2 5821   1.373   2.138   1.025  0.2418  0.2752  0.2929
 1939TIP3   OH2 5822   5.484   3.733   4.892 -0.9611  0.5810  0.0688
 1939TIP3    H1 5823   5.496   3.755   4.984 -0.9422  1.2848 -0.0990
 1939TIP3    H2 5824   5.541   3.657   4.878 -2.1273 -0.4901  1.0017
 1940TIP3   OH2 5825   1.947   1.942   3.534 -0.8296 -0.5765  0.1152
 1940TIP3    H1 5826   2.014   2.004   3.566  0.1980 -1.4523 -0.2738
 1940TIP3    H2 5827   1.939   1.962   3.441  0.3021 -1.7043 -0.2529
 1941TIP3   OH2 5828   1.935   2.642   3.982 -0.3173 -0.1676 -0.5941
 1941TIP3    H1 5829   2.004   2.584   3.948 -0.7409  0.2676 -2.2951
 1941TIP3    H2 5830   1.862   2.583   4.003  0.5384 -0.6417  1.2861
 1942TIP3   OH2 5831   5.067   4.340   1.977 -0.0976  0.1215 -0.0082
 1942TIP3    H1 5832   5.140   4.342   2.040 -0.5653  1.7292  0.5356
 1942TIP3    H2 5833   5.107   4.363   1.894  0.1559  0.1619  0.1233
 1943TIP3   OH2 5834   1.049   4.455   3.744  0.0168  0.5692  0.6622
 1943TIP3    H1 5835   0.985   4.483   3.810 -1.5702  1.9382 -1.3413
 1943TIP3    H2 5836   1.130   4.501   3.769 -0.3901  0.6562  1.9185
 1944TIP3   OH2 5837   0.404   4.717   2.293  0.5300  0.5510  0.1267
 1944TIP3    H1 5838   0.412   4.622   2.291  1.3153  0.6206 -1.4375
 1944TIP3    H2 5839   0.343   4.738   2.222 -0.5522  1.1619  1.1974
 1945TIP3   OH2 5840   0.935   5.406   4.241  0.2400 -0.3831 -0.0449
 1945TIP3    H1 5841   0.883   5.330   4.264  0.5475 -0.6987 -0.3839
 1945TIP3    H2 5842   0.889   5.446   4.167 -1.0725  0.9647  1.4144
 1946TIP3   OH2 5843   3.390   1.622   0.066  0.2759 -0.1774 -0.1078
 1946TIP3    H1 5844   3.483   1.614   0.044  0.2163  0.9026 -0.8390
 1946TIP3    H2 5845   3.360   1.531   0.076  1.7557 -0.5115  1.7723
 1947TIP3   OH2 5846   3.076   5.655   0.997  0.1745 -0.2455  0.2632
 1947TIP3    H1 5847   3.158   5.627   0.956 -0.0090 -2.2945  1.1731
 1947TIP3    H2 5848   3.073   5.750   0.982  1.5328 -0.4605 -1.8287
 1948TIP3   OH2 5849   4.264   5.867   0.786  0.2985 -0.1060  0.7432
 1948TIP3    H1 5850   4.349   5.860   0.742  0.6923  1.3847  1.2071
 1948TIP3    H2 5851   4.272   5.809   0.862  1.7231  1.6147  1.9732
 1949TIP3   OH2 5852   4.448   2.892   3.618 -0.0894 -0.3003  0.1551
 1949TIP3    H1 5853   4.382   2.896   3.688 -0.3497 -0.6812 -0.0658
 1949TIP3    H2 5854   4.510   2.962   3.640 -0.2237 -0.3488  0.7119
 1950TIP3   OH2 5855   1.534   2.073   5.159 -0.1212  0.5440  0.3310
 1950TIP3    H1 5856   1.496   1.985   5.148 -0.0894  0.6447 -0.6720
 1950TIP3    H2 5857   1.548   2.104   5.070  1.9111  0.6908  0.6460
 1951TIP3   OH2 5858   3.106   4.141   0.366 -0.3236  0.0472  0.4409
 1951TIP3    H1 5859   3.121   4.235   0.374 -0.4134  0.1500 -0.4684
 1951TIP3    H2 5860   3.100   4.126   0.272  2.0055 -1.2491  0.4242
 1952TIP3   OH2 5861   0.432   2.888   1.012  0.1199  0.4092 -0.0036
 1952TIP3    H1 5862   0.429   2.963   1.072  0.3419 -0.3999  1.0579
 1952TIP3    H2 5863   0.412   2.925   0.926 -2.9840  1.2214  0.9373
 1953TIP3   OH2 5864   4.619   5.390   3.346 -0.2412  0.1924  0.6676
 1953TIP3    H1 5865   4.654   5.303   3.363 -0.4319  0.1204  0.6906
 1953TIP3    H2 5866   4.673   5.448   3.400 -0.7254 -0.0155  1.3847
 1954TIP3   OH2 5867   1.514   1.740   1.898 -0.4227 -0.4712 -0.5296
 1954TIP3    H1 5868   1.513   1.644   1.890 -0.5098 -0.5248  0.0585
 1954TIP3    H2 5869   1.441   1.759   1.957  0.0143 -0.0981 -0.1095
 1955TIP3   OH2 5870   5.614   3.865   1.426 -0.0847 -0.3648  0.2565
 1955TIP3    H1 5871   5.522   3.889   1.421 -0.1951 -0.7951  0.2086
 1955TIP3    H2 5872   5.660   3.948   1.440 -0.5349 -0.2226  0.9754
 1956TIP3   OH2 5873   2.198   2.307   3.197  0.3934  0.6072 -0.1824
 1956TIP3    H1 5874   2.204   2.374   3.265 -1.0391  0.1721  0.4130
 1956TIP3    H2 5875   2.289   2.288   3.174  0.8598  1.8084  0.5672
 1957TIP3   OH2 5876   2.454   0.571   1.037  0.2827  0.2650 -0.7250
 1957TIP3    H1 5877   2.509   0.649   1.025  1.5864 -0.4301  0.4047
 1957TIP3    H2 5878   2.457   0.554   1.132 -1.7178  0.0526 -0.6609
 1958TIP3   OH2 5879   3.693   3.922   1.896  0.2894  0.0646 -0.5665
 1958TIP3    H1 5880   3.783   3.954   1.903  0.2691 -0.2469  2.1726
 1958TIP3    H2 5881   3.639   4.002   1.898  0.4628  0.2402 -2.0290
 1959TIP3   OH2 5882   3.609   4.942   1.325 -0.0715  0.0308  0.6712
 1959TIP3    H1 5883   3.641   4.898   1.405  1.4822  1.0060  0.6266
 1959TIP3    H2 5884   3.682   4.936   1.264 -0.3976  1.3126  0.1284
 1960TIP3   OH2 5885   2.120   4.970   1.892  0.1331 -0.0679  0.0795
 1960TIP3    H1 5886   2.086   4.946   1.806 -0.5978  0.0711  0.3269
 1960TIP3    H2 5887   2.049   5.019   1.933  0.6640  0.3020  0.5705
 1961TIP3   OH2 5888   0.976   0.685   2.871 -0.7601 -0.3354 -0.3130
 1961TIP3    H1 5889   1.032   0.748   2.918 -0.3431 -1.8406  1.3448
 1961TIP3    H2 5890   1.019   0.673   2.787  0.4615 -0.1212  0.2510
 1962TIP3   OH2 5891   2.261   2.276   0.830  0.0038  0.3034 -0.3925
 1962TIP3    H1 5892   2.291   2.236   0.748  2.1723  0.5681  0.2090
 1962TIP3    H2 5893   2.221   2.205   0.878  1.9967 -0.7572 -0.1940
 1963TIP3   OH2 5894   5.203   3.438   4.459 -0.4722  0.5554  0.3390
 1963TIP3    H1 5895   5.240   3.353   4.434  1.7217  1.2810  0.8421
 1963TIP3    H2 5896   5.150   3.464   4.384 -1.2892 -1.2926  0.2290
 1964TIP3   OH2 5897   3.529   1.036   0.911 -0.1966  0.2606 -0.2361
 1964TIP3    H1 5898   3.510   1.054   1.004 -2.0316 -0.3419 -0.4585
 1964TIP3    H2 5899   3.565   0.948   0.911  1.5666  0.9478  0.0651
 1965TIP3   OH2 5900   2.700   0.325   4.558 -0.1781  0.1032  0.5030
 1965TIP3    H1 5901   2.763   0.318   4.630 -0.9611  1.0844  1.3127
 1965TIP3    H2 5902   2.666   0.415   4.564  0.1437  0.4016 -1.4457
 1966TIP3   OH2 5903   2.708   0.973   3.918  0.1864 -0.0791  0.2421
 1966TIP3    H1 5904   2.753   0.902   3.963  1.3607 -0.0320 -0.8103
 1966TIP3    H2 5905   2.616   0.948   3.919  0.3533 -0.7029  1.4962
 1967TIP3   OH2 5906   0.328   0.628   1.049 -0.1895 -0.2635  0.1847
 1967TIP3    H1 5907   0.329   0.715   1.008 -0.2557  0.9245  2.5702
 1967TIP3    H2 5908   0.420   0.601   1.048 -0.2176 -0.3668 -0.9193
 1968TIP3   OH2 5909   0.556   5.664   4.475  0.5381 -0.2791  0.0521
 1968TIP3    H1 5910   0.528   5.608   4.403  1.4057 -1.0784  0.3196
 1968TIP3    H2 5911   0.630   5.713   4.440  2.3821 -2.2602  1.0229
 1969TIP3   OH2 5912   0.610   2.949   3.101 -0.4532 -0.1249  0.0578
 1969TIP3    H1 5913   0.606   2.918   3.192 -2.3587 -0.4036 -0.0806
 1969TIP3    H2 5914   0.542   3.017   3.097 -1.4496 -1.1606 -1.5089
 1970TIP3   OH2 5915   1.765   4.006   1.305  0.4907  0.1618 -0.2383
 1970TIP3    H1 5916   1.697   4.060   1.266 -0.1340 -0.1890  0.3406
 1970TIP3    H2 5917   1.835   4.004   1.240 -0.4997 -0.3774 -1.3220
 1971TIP3   OH2 5918   5.141   0.500   1.070  0.9894  0.0726 -0.0277
 1971TIP3    H1 5919   5.102   0.418   1.040  3.2346 -1.0032 -0.2691
 1971TIP3    H2 5920   5.099   0.518   1.154 -1.6714  0.3421 -1.3237
 1972TIP3   OH2 5921   3.130   4.480   3.011 -0.0978  0.3947  0.7355
 1972TIP3    H1 5922   3.051   4.487   3.065  0.8835 -0.0539  2.2629
 1972TIP3    H2 5923   3.172   4.399   3.039  0.1750 -0.1417 -1.1030
 1973TIP3   OH2 5924   2.263   2.514   3.361  0.1250 -0.4626  0.4610
 1973TIP3    H1 5925   2.338   2.476   3.406  0.2267 -0.0205  0.6765
 1973TIP3    H2 5926   2.228   2.579   3.423 -0.1509 -0.3369  0.1787
 1974TIP3   OH2 5927   2.750   5.866   0.410  1.0797  0.5233 -0.1436
 1974TIP3    H1 5928   2.816   5.921   0.367  0.9272  1.4488  0.7512
 1974TIP3    H2 5929   2.668   5.911   0.393  1.0027  0.8452  0.9854
 1975TIP3   OH2 5930   1.960   0.882   1.773  0.3797 -0.2235 -0.0335
 1975TIP3    H1 5931   1.926   0.966   1.744 -0.4397 -0.2787  0.7249
 1975TIP3    H2 5932   1.980   0.835   1.692  0.8664  0.6950 -0.4595
 1976TIP3   OH2 5933   3.972   2.855   4.353 -0.3217 -0.2851 -0.1770
 1976TIP3    H1 5934   3.994   2.915   4.424 -0.4117  0.0453 -0.4246
 1976TIP3    H2 5935   3.908   2.902   4.300 -0.8423 -0.8290 -0.0486
 1977TIP3   OH2 5936   3.453   2.169   2.458 -0.6367 -0.4100 -0.5615
 1977TIP3    H1 5937   3.535   2.197   2.499 -0.2750 -0.8933 -0.9394
 1977TIP3    H2 5938   3.475   2.155   2.366 -0.9609 -1.2551 -0.5201
 1978TIP3   OH2 5939   4.077   4.531   4.100 -0.2653 -0.3263  0.0547
 1978TIP3    H1 5940   3.993   4.498   4.070 -0.1083 -0.3902 -0.3159
 1978TIP3    H2 5941   4.127   4.453   4.124 -0.1866 -0.3121 -0.0582
 1979TIP3   OH2 5942   1.673   2.298   0.601 -0.1531 -0.6467 -0.1179
 1979TIP3    H1 5943   1.738   2.267   0.537 -0.7789 -0.3665 -0.8981
 1979TIP3    H2 5944   1.673   2.230   0.668  1.6170 -0.2078  0.3779
 1980TIP3   OH2 5945   3.609   4.523   5.124  0.0456 -0.1678  1.1782
 1980TIP3    H1 5946   3.655   4.588   5.177 -0.0090  1.8240 -1.0310
 1980TIP3    H2 5947   3.665   4.446   5.126  1.1573  0.6283  2.2574
 1981TIP3   OH2 5948   2.796   1.622   0.307  0.2962 -0.1131  0.1721
 1981TIP3    H1 5949   2.730   1.692   0.303 -1.3572 -1.4599  1.9967
 1981TIP3    H2 5950   2.785   1.574   0.225  0.7921  1.1119 -0.6640
 1982TIP3   OH2 5951   1.308   5.599   1.197  0.4202 -0.2743  0.3898
 1982TIP3    H1 5952   1.278   5.599   1.289  0.4452  0.0669  0.3988
 1982TIP3    H2 5953   1.303   5.507   1.171 -1.6939 -0.1149  0.0607
 1983TIP3   OH2 5954   2.936   4.474   1.352  0.1381  1.1509 -0.4969
 1983TIP3    H1 5955   2.929   4.404   1.287  0.1695  0.8749 -0.2061
 1983TIP3    H2 5956   3.013   4.524   1.324  1.4075 -0.1941  0.4860
 1984TIP3   OH2 5957   1.486   3.084   1.071  0.2127  0.3617  0.0356
 1984TIP3    H1 5958   1.567   3.056   1.027 -0.1961 -0.1786 -0.3889
 1984TIP3    H2 5959   1.468   3.171   1.035 -0.9970 -0.7073 -2.1509
 1985TIP3   OH2 5960   3.011   2.764   3.339  0.1638 -0.1476 -0.0923
 1985TIP3    H1 5961   3.035   2.753   3.431  1.0185  2.9083  0.1704
 1985TIP3    H2 5962   2.921   2.731   3.334  0.6115 -1.7444  1.4682
 1986TIP3   OH2 5963   3.786   5.616   1.754  0.1549  0.1093 -0.2608
 1986TIP3    H1 5964   3.779   5.705   1.720  0.5516  0.1213 -0.3134
 1986TIP3    H2 5965   3.736   5.562   1.693 -1.5400  0.5299  0.7013
 1987TIP3   OH2 5966   4.491   3.132   0.962 -0.0770 -0.1936  0.1560
 1987TIP3    H1 5967   4.490   3.199   0.894  1.5289 -0.4947 -0.2041
 1987TIP3    H2 5968   4.424   3.160   1.024 -0.4718  0.9319 -0.7335
 1988TIP3   OH2 5969   3.087   4.581   0.939  0.2487  0.2521  0.6415
 1988TIP3    H1 5970   3.164   4.623   0.901  0.5011 -0.6435  0.1221
 1988TIP3    H2 5971   3.054   4.524   0.869 -1.0052  0.7593  0.7905
 1989TIP3   OH2 5972   5.875   0.840   4.254 -0.7973 -0.1312 -0.4774
 1989TIP3    H1 5973   5.825   0.921   4.243 -0.1927  0.2066 -0.8056
 1989TIP3    H2 5974   5.817   0.772   4.219 -2.6497 -0.3573  2.6062
 1990TIP3   OH2 5975   5.210   5.789   1.277 -0.1778  0.1004  0.0180
 1990TIP3    H1 5976   5.216   5.739   1.359  0.9045 -1.5297 -0.9903
 1990TIP3    H2 5977   5.299   5.824   1.265 -0.5628  1.0816 -0.0253
 1991TIP3   OH2 5978   1.915   1.379   5.074  0.2681  0.2016  0.7257
 1991TIP3    H1 5979   1.884   1.306   5.127  0.7538 -0.5772 -0.0310
 1991TIP3    H2 5980   2.010   1.379   5.086  0.6194 -1.1497 -1.5199
 1992TIP3   OH2 5981   2.413   0.713   4.616 -0.1865 -0.4906 -0.4720
 1992TIP3    H1 5982   2.362   0.672   4.546 -0.5608 -0.3288 -0.2944
 1992TIP3    H2 5983   2.449   0.793   4.576 -0.0778 -0.5999 -0.5942
 1993TIP3   OH2 5984   3.726   5.395   3.185 -0.2125 -0.6087 -0.3424
 1993TIP3    H1 5985   3.662   5.414   3.116  1.0931  0.7955 -1.2371
 1993TIP3    H2 5986   3.739   5.300   3.180 -1.1229 -0.7099 -1.1330
 1994TIP3   OH2 5987   4.578   1.060   4.491 -0.1294 -0.5021  0.6820
 1994TIP3    H1 5988   4.594   1.153   4.473 -1.9003 -0.1005  1.0304
 1994TIP3    H2 5989   4.655   1.032   4.540 -0.7794  1.5384  3.0849
 1995TIP3   OH2 5990   0.420   3.638   0.328  0.0186  0.7371 -0.3579
 1995TIP3    H1 5991   0.368   3.579   0.383  1.2270 -0.1085 -0.0923
 1995TIP3    H2 5992   0.509   3.630   0.362  0.4861  1.4989 -1.3635
 1996TIP3   OH2 5993   2.933   5.685   0.719 -0.4641 -0.2767 -0.8783
 1996TIP3    H1 5994   2.930   5.652   0.809 -2.1846 -1.0872 -1.1936
 1996TIP3    H2 5995   2.885   5.767   0.723  0.3733  0.2313 -0.8833
 1997TIP3   OH2 5996   5.347   4.617   0.117 -0.3683  0.2222 -0.5793
 1997TIP3    H1 5997   5.427   4.631   0.168  0.3157 -1.7045 -1.0690
 1997TIP3    H2 5998   5.281   4.669   0.163  0.3746 -0.8558  1.9088
 1998TIP3   OH2 5999   0.959   1.552   1.838  0.0866  0.0428  0.7309
 1998TIP3    H1 6000   0.918   1.523   1.920  0.1957 -2.9127 -0.1452
 1998TIP3    H2 6001   1.044   1.587   1.865 -0.5025  0.5738  1.9965
 1999TIP3   OH2 6002   0.355   5.190   2.111 -0.2230  0.1059  0.1522
 1999TIP3    H1 6003   0.403   5.109   2.127  0.8971  0.6576 -0.3574
 1999TIP3    H2 6004   0.318   5.179   2.023  0.1906  0.2719 -0.0433
 2000TIP3   OH2 6005   5.116   1.827   3.912  0.0490  0.4852  0.1864
 2000TIP3    H1 6006   5.050   1.863   3.971  0.5031 -1.0628  1.7084
 2000TIP3    H2 6007   5.107   1.732   3.920  2.2921  0.2132  0.2928
 2001TIP3   OH2 6008   3.192   5.852   3.520  0.9471 -0.4590 -0.2094
 2001TIP3    H1 6009   3.190   5.914   3.593  0.7168 -0.3804 -0.2810
 2001TIP3    H2 6010   3.221   5.769   3.559  2.2646 -0.0620 -0.2997
 2002TIP3   OH2 6011   3.261   0.360   2.208  0.3427  0.1038 -0.0924
 2002TIP3    H1 6012   3.284   0.295   2.142  1.3802  2.1625 -1.8967
 2002TIP3    H2 6013   3.345   0.395   2.237 -0.1952  0.9122  0.5293
 2003TIP3   OH2 6014   1.101   5.029   1.661  0.1164 -0.0222  0.3200
 2003TIP3    H1 6015   1.041   4.955   1.659  0.0772 -0.0073  0.8520
 2003TIP3    H2 6016   1.114   5.051   1.569  1.9428 -2.1272  0.0016
 2004TIP3   OH2 6017   4.687   3.624   4.743  0.0411  0.2410  0.4413
 2004TIP3    H1 6018   4.630   3.697   4.721  0.1402  0.0238 -0.5775
 2004TIP3    H2 6019   4.735   3.606   4.662  0.1579 -0.8230  0.7351
 2005TIP3   OH2 6020   4.715   4.886   1.871  0.1087 -0.2941  0.0570
 2005TIP3    H1 6021   4.688   4.881   1.779 -0.4494  2.8608 -0.0581
 2005TIP3    H2 6022   4.801   4.928   1.869  0.7391 -1.4740  0.9538
 2006TIP3   OH2 6023   5.497   4.006   4.467 -0.3580 -0.3158  0.2152
 2006TIP3    H1 6024   5.510   4.100   4.482  0.6108 -0.3628 -0.2073
 2006TIP3    H2 6025   5.499   3.967   4.555  2.9259 -0.3317  0.2541
 2007TIP3   OH2 6026   0.209   4.037   1.870 -0.0784  0.1344 -0.0497
 2007TIP3    H1 6027   0.116   4.022   1.883 -0.6183  2.1363 -1.1456
 2007TIP3    H2 6028   0.217   4.058   1.776  1.6570 -1.1452 -0.2356
 2008TIP3   OH2 6029   6.244   1.664   1.733  0.3474 -0.1010 -0.3530
 2008TIP3    H1 6030   6.294   1.657   1.652  1.0103  0.3450  0.0143
 2008TIP3    H2 6031   6.308   1.648   1.802  0.0722  0.8827  0.1412
 2009TIP3   OH2 6032   3.054   4.201   3.730  0.6388  0.6195 -0.0765
 2009TIP3    H1 6033   3.136   4.183   3.776  0.2506 -3.0798 -0.5529
 2009TIP3    H2 6034   3.071   4.176   3.639 -1.5671 -2.7194  0.2612
 2010TIP3   OH2 6035   3.582   0.178   4.114  0.2728  0.2259 -0.2459
 2010TIP3    H1 6036   3.649   0.243   4.092  0.7199  0.2323  1.0404
 2010TIP3    H2 6037   3.592   0.110   4.047 -1.3475  2.2090 -2.6655
 2011TIP3   OH2 6038   6.269   1.755   1.062  0.3019  0.0616  0.0399
 2011TIP3    H1 6039   6.283   1.674   1.013  0.2104  0.8595 -1.3412
 2011TIP3    H2 6040   6.182   1.744   1.101  0.1399 -0.3661 -0.4246
 2012TIP3   OH2 6041   1.128   4.126   2.439  0.1863  0.0402 -0.0287
 2012TIP3    H1 6042   1.191   4.145   2.509  1.2027  0.3621 -0.9964
 2012TIP3    H2 6043   1.134   4.031   2.428  1.2411  0.1681 -0.7527
 2013TIP3   OH2 6044   4.654   3.066   3.584  0.0294  0.9477 -0.4855
 2013TIP3    H1 6045   4.605   3.129   3.531 -0.2973 -0.5120 -1.9732
 2013TIP3    H2 6046   4.740   3.107   3.594 -0.2501  1.7579 -1.2056
 2014TIP3   OH2 6047   0.779   0.148   1.715  0.2821  1.0132 -0.4240
 2014TIP3    H1 6048   0.722   0.123   1.788  1.0803  3.0581  0.9883
 2014TIP3    H2 6049   0.868   0.126   1.746  0.4860  0.0756 -1.6177
 2015TIP3   OH2 6050   4.632   2.439   2.498  0.0522  0.0289  0.2459
 2015TIP3    H1 6051   4.601   2.387   2.423 -1.3852 -0.9252  1.4409
 2015TIP3    H2 6052   4.711   2.482   2.466 -0.4650 -0.4135 -1.7953
 2016TIP3   OH2 6053   5.560   5.513   0.909 -0.0189 -0.4194 -0.2109
 2016TIP3    H1 6054   5.508   5.532   0.831 -2.1275  2.4421  1.6964
 2016TIP3    H2 6055   5.618   5.588   0.919 -0.5649 -0.1845  1.5338
 2017TIP3   OH2 6056   5.001   2.823   4.130 -0.2711 -0.2408 -0.0254
 2017TIP3    H1 6057   5.089   2.793   4.105 -0.0589 -0.0660  0.4987
 2017TIP3    H2 6058   4.956   2.743   4.158 -0.1207 -0.2602  0.1648
 2018TIP3   OH2 6059   6.223   0.196   4.287  0.1170  0.7199 -0.3920
 2018TIP3    H1 6060   6.202   0.231   4.200  1.1200  1.2969 -0.4209
 2018TIP3    H2 6061   6.138   0.176   4.326 -0.4056  1.5301 -1.0761
 2019TIP3   OH2 6062   1.845   3.976   4.285 -0.6952  0.4795 -0.0506
 2019TIP3    H1 6063   1.901   4.049   4.310 -0.8247  1.1145 -1.5539
 2019TIP3    H2 6064   1.864   3.961   4.192 -0.6183 -1.4481  0.2212
 2020TIP3   OH2 6065   2.467   2.889   2.352  0.1255  0.2448  0.0155
 2020TIP3    H1 6066   2.388   2.835   2.354  1.1658 -1.3415  0.1007
 2020TIP3    H2 6067   2.444   2.964   2.298 -1.5408 -0.0112  0.3267
 2021TIP3   OH2 6068   4.009   1.863   5.166  0.4762  0.1046  0.0478
 2021TIP3    H1 6069   3.942   1.896   5.106  0.8338 -0.4416 -0.6647
 2021TIP3    H2 6070   3.964   1.855   5.250  0.3506  2.3873  0.2759
 2022TIP3   OH2 6071   2.386   5.567   2.175 -0.5665 -0.3336  0.0489
 2022TIP3    H1 6072   2.330   5.493   2.200 -1.6859  0.0128 -1.3015
 2022TIP3    H2 6073   2.471   5.547   2.215 -0.3395 -3.2013 -1.6082
 2023TIP3   OH2 6074   4.581   2.054   0.178 -0.1628  0.3002  0.2335
 2023TIP3    H1 6075   4.529   2.091   0.106 -0.4305 -0.5253 -0.0050
 2023TIP3    H2 6076   4.657   2.014   0.135  0.4130  1.0468  0.5387
 2024TIP3   OH2 6077   2.294   0.609   4.412 -0.6890  0.0723 -0.0220
 2024TIP3    H1 6078   2.353   0.550   4.364  0.7639  1.5210 -0.1008
 2024TIP3    H2 6079   2.207   0.587   4.380 -0.0783 -1.2854 -0.8484
 2025TIP3   OH2 6080   4.559   2.107   4.713  0.2542 -0.3215  0.7118
 2025TIP3    H1 6081   4.501   2.125   4.787 -0.0707 -1.9840  0.9092
 2025TIP3    H2 6082   4.523   2.027   4.673  0.0867  0.8131 -1.6098
 2026TIP3   OH2 6083   1.076   3.700   0.633  0.2733 -0.4767 -0.4942
 2026TIP3    H1 6084   1.079   3.761   0.707  1.6712 -0.7064 -0.3360
 2026TIP3    H2 6085   1.121   3.622   0.664  1.8687 -0.1902 -1.9070
 2027TIP3   OH2 6086   2.511   3.080   2.858  0.1403 -0.0195  0.0252
 2027TIP3    H1 6087   2.497   3.141   2.785 -0.5780 -0.7313 -0.4527
 2027TIP3    H2 6088   2.575   3.124   2.914  0.0072  0.9541 -0.5557
 2028TIP3   OH2 6089   6.015   0.864   1.190 -0.2160 -0.0521  0.2749
 2028TIP3    H1 6090   6.033   0.945   1.238 -1.0396  0.6437 -0.5477
 2028TIP3    H2 6091   6.058   0.877   1.105  1.3164 -1.3074  0.8171
 2029TIP3   OH2 6092   2.250   5.304   4.751  0.1153  0.1828 -0.3610
 2029TIP3    H1 6093   2.165   5.262   4.740  0.6849 -1.1951  0.2069
 2029TIP3    H2 6094   2.302   5.272   4.677  1.0046 -1.3647  0.8756
 2030TIP3   OH2 6095   5.559   0.308   3.478  0.2510  0.6328  0.0751
 2030TIP3    H1 6096   5.504   0.382   3.452 -1.0155 -0.6061 -0.9202
 2030TIP3    H2 6097   5.646   0.330   3.445  0.4350  2.6718  1.7511
 2031TIP3   OH2 6098   5.324   3.768   2.546 -0.3493 -0.5398 -0.2291
 2031TIP3    H1 6099   5.230   3.777   2.530 -0.3329  3.1152  0.9103
 2031TIP3    H2 6100   5.365   3.828   2.485  0.9685  0.3201  1.4329
 2032TIP3   OH2 6101   2.048   1.518   0.800  0.1028 -0.1534 -0.0449
 2032TIP3    H1 6102   2.050   1.457   0.874  0.0382  0.1187  0.1837
 2032TIP3    H2 6103   1.997   1.593   0.832 -0.1010 -0.1226 -0.4341
 2033TIP3   OH2 6104   2.482   1.914   1.142 -0.1140  0.4850  0.4351
 2033TIP3    H1 6105   2.568   1.889   1.109 -0.2937  0.6467 -0.1519
 2033TIP3    H2 6106   2.420   1.879   1.078 -0.5147 -0.0793  1.1195
 2034TIP3   OH2 6107   5.812   0.247   0.945  0.3621  0.3358 -0.2612
 2034TIP3    H1 6108   5.717   0.235   0.940  0.4548 -0.4627 -0.3845
 2034TIP3    H2 6109   5.848   0.159   0.931  1.2432  1.1275 -3.9655
 2035TIP3   OH2 6110   2.847   4.649   4.754 -0.1557 -0.0495  0.3709
 2035TIP3    H1 6111   2.837   4.743   4.740 -0.8243 -0.4932 -2.7126
 2035TIP3    H2 6112   2.790   4.630   4.829 -2.2943  1.5673 -0.7670
 2036TIP3   OH2 6113   3.280   1.564   4.249  0.5571 -0.2488  0.3098
 2036TIP3    H1 6114   3.224   1.529   4.318  0.5318  0.1050  0.4685
 2036TIP3    H2 6115   3.323   1.640   4.288 -0.6897  0.9453 -0.5433
 2037TIP3   OH2 6116   4.329   0.157   4.503  0.1017 -0.8599 -0.1626
 2037TIP3    H1 6117   4.256   0.112   4.460 -0.6931  0.4084 -0.1944
 2037TIP3    H2 6118   4.294   0.182   4.589  1.0220 -1.6044  0.4491
 2038TIP3   OH2 6119   1.442   5.571   0.802  0.0914  0.4196 -0.1065
 2038TIP3    H1 6120   1.404   5.542   0.720 -0.2284  1.5031 -0.3546
 2038TIP3    H2 6121   1.419   5.502   0.865 -0.1030 -0.1606 -0.7998
 2039TIP3   OH2 6122   0.487   5.101   3.234  0.1480 -0.3128 -0.1256
 2039TIP3    H1 6123   0.441   5.019   3.254  1.1361 -0.5624  1.2211
 2039TIP3    H2 6124   0.545   5.114   3.308  2.3558 -0.0688 -1.8192
 2040TIP3   OH2 6125   0.097   0.542   2.434  0.3691 -0.1886 -0.2489
 2040TIP3    H1 6126   0.145   0.496   2.365  0.7216  0.5625 -0.5153
 2040TIP3    H2 6127   0.127   0.633   2.428  0.8248 -0.2078  1.2536
 2041TIP3   OH2 6128   3.754   4.561   3.140 -0.4545  0.4193 -0.4416
 2041TIP3    H1 6129   3.709   4.479   3.119 -0.0170  0.3959 -1.3445
 2041TIP3    H2 6130   3.702   4.628   3.098 -0.0790  0.4683 -0.8340
 2042TIP3   OH2 6131   1.562   4.553   1.568  0.5309  0.4765 -0.2993
 2042TIP3    H1 6132   1.594   4.473   1.526  1.2287  0.7210 -0.2560
 2042TIP3    H2 6133   1.547   4.528   1.659 -0.4665  0.0815 -0.5635
 2043TIP3   OH2 6134   2.509   4.063   3.040  0.1112 -0.0291  0.2089
 2043TIP3    H1 6135   2.527   4.130   3.106  2.2797 -0.5903  0.2767
 2043TIP3    H2 6136   2.512   3.980   3.087 -0.8656 -0.2937 -0.1693
 2044TIP3   OH2 6137   4.737   4.951   4.189  0.9568  0.1766  0.2871
 2044TIP3    H1 6138   4.822   4.908   4.203  1.9277  2.0200  0.3560
 2044TIP3    H2 6139   4.755   5.044   4.202 -1.0119  0.6491 -0.0997
 2045TIP3   OH2 6140   2.667   0.472   3.840  0.3920 -0.0378 -0.6121
 2045TIP3    H1 6141   2.690   0.537   3.907  0.1285 -0.1093 -0.4498
 2045TIP3    H2 6142   2.751   0.444   3.803  0.4400  1.6067 -1.8431
 2046TIP3   OH2 6143   1.305   1.613   2.630  0.6672  0.0003 -0.1344
 2046TIP3    H1 6144   1.218   1.626   2.592  0.7444 -0.2759 -0.4084
 2046TIP3    H2 6145   1.291   1.553   2.703  0.3108  1.5536  1.1240
 2047TIP3   OH2 6146   2.564   4.984   3.581  0.1904 -0.3655  0.1610
 2047TIP3    H1 6147   2.539   5.015   3.669  0.4900 -1.7836  0.7689
 2047TIP3    H2 6148   2.482   4.985   3.532  0.2082  1.4866  0.1012
 2048TIP3   OH2 6149   1.013   1.529   3.920  0.0264 -0.4418  0.0149
 2048TIP3    H1 6150   1.075   1.539   3.847  0.1857 -0.8474  0.0893
 2048TIP3    H2 6151   0.929   1.556   3.884  0.4094  1.0805  0.1977
 2049TIP3   OH2 6152   5.390   5.965   0.521 -0.5940 -0.4866  0.1897
 2049TIP3    H1 6153   5.355   5.882   0.554 -0.4979 -0.2604  0.8873
 2049TIP3    H2 6154   5.455   5.939   0.455  1.8627 -1.1675  2.6504
 2050TIP3   OH2 6155   2.029   0.408   2.596  0.2472 -0.1240  0.4404
 2050TIP3    H1 6156   2.018   0.460   2.676 -0.5088  0.6661 -0.1624
 2050TIP3    H2 6157   2.115   0.367   2.606  1.8268  2.8740  0.0060
 2051TIP3   OH2 6158   1.014   1.922   0.739  0.3775 -0.1923 -0.6058
 2051TIP3    H1 6159   1.050   1.952   0.823  0.1348  0.7829 -0.8493
 2051TIP3    H2 6160   0.949   1.988   0.715 -0.7512 -1.3168 -0.7546
 2052TIP3   OH2 6161   0.795   1.146   5.129  0.0479 -0.5795  0.4654
 2052TIP3    H1 6162   0.798   1.198   5.049  0.4890 -0.3514  0.6254
 2052TIP3    H2 6163   0.721   1.183   5.178  2.6065  2.5993  2.3486
 2053TIP3   OH2 6164   6.211   3.528   3.170 -0.1121  0.0788  0.4399
 2053TIP3    H1 6165   6.120   3.559   3.175 -0.2489 -0.1168 -0.5362
 2053TIP3    H2 6166   6.204   3.435   3.148  0.3153  0.2915 -0.6742
 2054TIP3   OH2 6167   1.967   5.255   2.777 -0.2323  0.1636 -0.3015
 2054TIP3    H1 6168   2.009   5.187   2.830  0.5928 -0.8006 -2.0996
 2054TIP3    H2 6169   2.028   5.270   2.705 -0.4236  2.8188  0.0195
 2055TIP3   OH2 6170   5.126   3.477   3.477  0.6835 -0.0242 -0.1345
 2055TIP3    H1 6171   5.043   3.442   3.442  0.3951 -0.2381  0.7458
 2055TIP3    H2 6172   5.153   3.542   3.412  0.0712 -0.2885 -0.6734
 2056TIP3   OH2 6173   3.451   0.941   1.414  0.1244 -0.5882  0.0651
 2056TIP3    H1 6174   3.497   0.897   1.486 -1.3913 -0.5244  1.1142
 2056TIP3    H2 6175   3.359   0.936   1.437 -0.2816  1.0498 -0.9862
 2057TIP3   OH2 6176   2.957   5.658   3.738 -0.0011  0.1133  0.0326
 2057TIP3    H1 6177   3.014   5.690   3.668 -0.9146  0.1124 -0.7296
 2057TIP3    H2 6178   2.979   5.565   3.747 -0.2859 -0.0198 -0.6546
 2058TIP3   OH2 6179   4.644   1.330   0.476  0.1601  0.2325 -0.2015
 2058TIP3    H1 6180   4.623   1.385   0.551  0.0629  1.3593 -1.0362
 2058TIP3    H2 6181   4.723   1.368   0.439 -0.2190  0.1487 -1.1187
 2059TIP3   OH2 6182   2.763   4.836   3.772  0.4489 -0.0137 -0.4937
 2059TIP3    H1 6183   2.716   4.753   3.766 -0.8135  0.2141  3.5223
 2059TIP3    H2 6184   2.697   4.902   3.751  0.8957  0.1257 -1.5616
 2060TIP3   OH2 6185   3.658   2.015   4.148  0.0873  0.2756 -0.6213
 2060TIP3    H1 6186   3.640   2.031   4.241 -2.2690  0.3205 -1.0070
 2060TIP3    H2 6187   3.747   1.980   4.146  0.5057  1.0421  1.5523
 2061TIP3   OH2 6188   5.197   0.136   4.422  0.5809 -0.6961 -0.0476
 2061TIP3    H1 6189   5.160   0.157   4.336  1.2621 -0.7402 -0.3620
 2061TIP3    H2 6190   5.154   0.055   4.447 -1.1901  0.3839  0.6332
 2062TIP3   OH2 6191   3.137   4.690   4.750  0.4086 -0.4528  0.4922
 2062TIP3    H1 6192   3.127   4.751   4.823  0.6958 -0.9147  0.9223
 2062TIP3    H2 6193   3.049   4.655   4.736 -0.0244  0.9699 -0.5806
 2063TIP3   OH2 6194   3.739   1.706   0.153 -0.1112  0.0449 -0.3830
 2063TIP3    H1 6195   3.725   1.662   0.069 -1.5864  0.6805 -0.5007
 2063TIP3    H2 6196   3.763   1.796   0.130  2.0035 -0.3920 -0.1280
 2064TIP3   OH2 6197   5.646   1.456   5.181 -0.1006 -0.1006  0.2651
 2064TIP3    H1 6198   5.739   1.436   5.172  0.0655  0.3405  0.9608
 2064TIP3    H2 6199   5.603   1.394   5.123  0.5833 -0.7406  0.4245
 2065TIP3   OH2 6200   5.985   2.077   1.952  0.0611  0.0197  0.3111
 2065TIP3    H1 6201   6.059   2.118   1.907 -1.0271  2.4255  0.5745
 2065TIP3    H2 6202   5.970   2.131   2.029 -0.1127 -2.1988  1.9428
 2066TIP3   OH2 6203   5.388   3.263   4.958  0.7370  0.3496  0.4257
 2066TIP3    H1 6204   5.481   3.276   4.975  0.5074 -0.3209  2.4478
 2066TIP3    H2 6205   5.352   3.236   5.042 -1.4641  1.4895 -0.0740
 2067TIP3   OH2 6206   4.860   4.502   2.020 -0.2313 -0.3532  0.0693
 2067TIP3    H1 6207   4.931   4.441   1.999 -1.3623 -1.2894 -1.2323
 2067TIP3    H2 6208   4.883   4.582   1.974 -0.5844 -1.0481 -1.3866
 2068TIP3   OH2 6209   2.374   3.952   0.198  0.3055  0.6420  0.3262
 2068TIP3    H1 6210   2.308   4.017   0.223  0.4835  1.8702 -2.1294
 2068TIP3    H2 6211   2.326   3.889   0.145  0.6675  0.2405  0.4733
 2069TIP3   OH2 6212   4.199   1.478   0.461  0.3269 -0.4789 -0.2022
 2069TIP3    H1 6213   4.157   1.555   0.423  0.2330 -0.6904 -0.5248
 2069TIP3    H2 6214   4.236   1.510   0.543 -0.2473 -0.2361 -0.0334
 2070TIP3   OH2 6215   0.382   2.680   2.741  0.0174 -0.8514  0.0341
 2070TIP3    H1 6216   0.384   2.624   2.818  0.2638  1.0483  1.5011
 2070TIP3    H2 6217   0.470   2.716   2.734  0.1031 -1.2422 -1.3757
 2071TIP3   OH2 6218   4.427   1.345   2.432  0.0733 -0.2070  0.3307
 2071TIP3    H1 6219   4.440   1.395   2.351 -0.6089 -1.5532 -0.6387
 2071TIP3    H2 6220   4.456   1.257   2.411  1.1414 -0.3061  1.9836
 2072TIP3   OH2 6221   2.658   3.480   1.247  0.0128  0.4707  0.4453
 2072TIP3    H1 6222   2.703   3.565   1.249 -0.4656  0.7131  1.2632
 2072TIP3    H2 6223   2.635   3.467   1.155  0.1575  1.1925  0.3041
 2073TIP3   OH2 6224   5.488   4.301   4.350 -0.5958  0.5988  0.0853
 2073TIP3    H1 6225   5.485   4.230   4.287  1.2061 -0.1323  0.7784
 2073TIP3    H2 6226   5.547   4.366   4.311  2.7383 -1.0075  2.0185
 2074TIP3   OH2 6227   2.936   5.220   2.742 -0.1798 -0.0198  0.2750
 2074TIP3    H1 6228   3.003   5.257   2.684  0.7185 -0.2369  1.1448
 2074TIP3    H2 6229   2.855   5.265   2.717  0.8041  2.3543  1.0842
 2075TIP3   OH2 6230   5.459   0.341   1.544  0.8639  0.5972 -0.2968
 2075TIP3    H1 6231   5.472   0.258   1.590  0.7583  1.6301  1.6992
 2075TIP3    H2 6232   5.365   0.357   1.547  0.9985  1.3332  0.3788
 2076TIP3   OH2 6233   3.159   0.448   0.340  0.2252  0.3660  0.1119
 2076TIP3    H1 6234   3.180   0.400   0.261  0.3971 -0.7970  0.8327
 2076TIP3    H2 6235   3.121   0.381   0.399  2.5843  0.5652  2.0045
 2077TIP3   OH2 6236   1.401   3.358   4.799  0.4189 -0.0609  0.2991
 2077TIP3    H1 6237   1.476   3.409   4.769  0.0981  0.5124  0.4590
 2077TIP3    H2 6238   1.385   3.388   4.888  1.4203 -1.8149  1.1271
 2078TIP3   OH2 6239   2.134   1.182   5.102 -0.4856  0.3408  0.0543
 2078TIP3    H1 6240   2.053   1.190   5.051 -1.7047 -2.1021  1.4183
 2078TIP3    H2 6241   2.113   1.119   5.170  2.7088 -0.6769  0.2656
 2079TIP3   OH2 6242   2.769   2.926   3.526  0.2964 -0.9614  0.0181
 2079TIP3    H1 6243   2.766   2.840   3.484  0.8916 -0.6126 -0.7702
 2079TIP3    H2 6244   2.763   2.988   3.453  0.2915 -0.3363  0.5418
 2080TIP3   OH2 6245   0.108   0.146   2.326  0.3483  0.1276  0.0467
 2080TIP3    H1 6246   0.137   0.101   2.405  0.8544  1.7311  0.8348
 2080TIP3    H2 6247   0.016   0.167   2.342 -0.3902 -2.0196 -1.0358
 2081TIP3   OH2 6248   3.758   5.001   5.070 -0.2011  0.1232 -0.3122
 2081TIP3    H1 6249   3.666   5.002   5.043 -0.2407  0.9437 -0.1681
 2081TIP3    H2 6250   3.767   5.077   5.128  0.5816  0.0845 -0.3690
 2082TIP3   OH2 6251   6.115   1.905   1.583  0.1862  0.3058 -0.7821
 2082TIP3    H1 6252   6.145   1.838   1.645 -1.5915  1.6520  1.7555
 2082TIP3    H2 6253   6.184   1.972   1.585  0.2322  0.2507 -0.3677
 2083TIP3   OH2 6254   3.767   2.190   4.879 -0.1286 -0.1642  0.2331
 2083TIP3    H1 6255   3.859   2.185   4.850 -0.7377  1.8601 -2.5052
 2083TIP3    H2 6256   3.768   2.253   4.951  0.7230 -0.7677  0.7658
 2084TIP3   OH2 6257   3.477   3.372   4.803 -0.5367  0.1684 -0.3587
 2084TIP3    H1 6258   3.551   3.392   4.746 -0.8116 -0.1435 -0.8360
 2084TIP3    H2 6259   3.400   3.392   4.749 -0.8083  1.6228  0.5288
 2085TIP3   OH2 6260   1.392   4.862   2.064 -0.2424 -0.4153  0.3216
 2085TIP3    H1 6261   1.361   4.847   1.975  1.2186 -5.1173  0.3672
 2085TIP3    H2 6262   1.320   4.831   2.119 -0.4713  0.9033  0.7970
 2086TIP3   OH2 6263   1.938   5.799   1.238  0.4542  0.1536  0.0880
 2086TIP3    H1 6264   1.933   5.880   1.288 -2.4888  0.4872 -0.5657
 2086TIP3    H2 6265   1.866   5.745   1.271  1.2868 -1.4973 -0.6678
 2087TIP3   OH2 6266   4.732   2.342   2.741  0.3227  0.1172 -0.5248
 2087TIP3    H1 6267   4.715   2.425   2.696 -1.5583  1.0323  1.6499
 2087TIP3    H2 6268   4.657   2.287   2.717  0.6397 -0.3116 -0.5332
 2088TIP3   OH2 6269   5.933   1.032   3.943  0.1358 -0.1715  0.4603
 2088TIP3    H1 6270   5.842   1.060   3.931 -0.1505 -0.1243  2.3951
 2088TIP3    H2 6271   5.985   1.110   3.923 -0.1573 -0.4115 -1.4185
 2089TIP3   OH2 6272   5.229   3.848   4.977 -0.4779  0.4285  0.0257
 2089TIP3    H1 6273   5.172   3.811   4.910 -0.4761 -0.1447  0.3348
 2089TIP3    H2 6274   5.262   3.772   5.025  2.5287  0.5006 -1.6812
 2090TIP3   OH2 6275   2.798   2.845   0.597  0.2368  0.6695  0.0869
 2090TIP3    H1 6276   2.753   2.927   0.617 -2.1332 -0.3439 -0.7953
 2090TIP3    H2 6277   2.805   2.800   0.682  3.0268  2.3534  0.8942
 2091TIP3   OH2 6278   0.874   3.089   0.769  0.0339  0.6676  0.0194
 2091TIP3    H1 6279   0.836   3.067   0.855  0.5521 -0.8949 -0.1106
 2091TIP3    H2 6280   0.968   3.094   0.786  0.2611 -0.7800 -0.6259
 2092TIP3   OH2 6281   4.546   0.808   0.737  0.3023  0.4542  0.5027
 2092TIP3    H1 6282   4.504   0.860   0.668 -0.8267  1.0251  1.5883
 2092TIP3    H2 6283   4.590   0.873   0.792  1.3142 -0.0106  0.2752
 2093TIP3   OH2 6284   5.091   3.839   2.437 -0.4266  0.8558  0.0939
 2093TIP3    H1 6285   5.060   3.798   2.357  0.6112 -0.9805  0.5805
 2093TIP3    H2 6286   5.119   3.927   2.409 -0.7043  0.4940 -1.4169
 2094TIP3   OH2 6287   4.034   1.054   2.601  0.3418 -0.8086  0.3905
 2094TIP3    H1 6288   4.121   1.090   2.622  0.1668 -1.2158  1.9507
 2094TIP3    H2 6289   4.043   1.021   2.512  0.6474  2.6289 -1.0098
 2095TIP3   OH2 6290   1.724   0.572   4.055  0.7157  0.1514  0.7773
 2095TIP3    H1 6291   1.796   0.620   4.096 -0.9592 -0.1350  4.3786
 2095TIP3    H2 6292   1.645   0.612   4.091 -0.9562 -0.8095 -1.5571
 2096TIP3   OH2 6293   2.021   1.050   4.005 -0.0920  0.1524  0.2286
 2096TIP3    H1 6294   2.006   1.124   3.946  1.6562  0.2395 -0.1583
 2096TIP3    H2 6295   2.111   1.062   4.036 -0.5819 -0.5306  2.0221
 2097TIP3   OH2 6296   4.478   4.236   1.763  0.2351 -0.2284  0.4877
 2097TIP3    H1 6297   4.438   4.166   1.813  2.1525 -1.3485  0.5662
 2097TIP3    H2 6298   4.517   4.293   1.829 -0.6081  0.4863  0.3880
 2098TIP3   OH2 6299   1.082   3.400   5.009 -0.0550  0.3258  0.1634
 2098TIP3    H1 6300   1.103   3.370   4.920 -0.7638  1.1269 -0.2920
 2098TIP3    H2 6301   1.165   3.399   5.055 -0.0001 -2.1326  0.1219
 2099TIP3   OH2 6302   6.146   2.982   0.101  0.4881 -0.9704 -0.1200
 2099TIP3    H1 6303   6.172   2.920   0.168  0.4799 -0.4599  0.3672
 2099TIP3    H2 6304   6.132   3.064   0.149 -0.1635 -0.7668 -0.6488
 2100TIP3   OH2 6305   2.655   4.020   2.087  0.0224 -0.8459  0.2997
 2100TIP3    H1 6306   2.744   4.054   2.092 -0.7887  1.6742 -0.5612
 2100TIP3    H2 6307   2.622   4.026   2.176 -0.1307  0.9220  0.1617
 2101TIP3   OH2 6308   3.410   5.615   4.587 -0.3905 -0.1745  0.2722
 2101TIP3    H1 6309   3.410   5.539   4.645  0.7716 -1.3214 -1.1609
 2101TIP3    H2 6310   3.473   5.676   4.626 -0.2432 -0.5786  0.6632
 2102TIP3   OH2 6311   2.885   0.642   2.289 -0.3357  0.4490  0.2687
 2102TIP3    H1 6312   2.943   0.600   2.353  0.5283  1.5713  0.2494
 2102TIP3    H2 6313   2.879   0.579   2.217  0.6963  0.2190  0.3648
 2103TIP3   OH2 6314   2.932   2.932   1.423 -0.0097 -0.5053 -0.1964
 2103TIP3    H1 6315   2.873   3.006   1.408 -0.1119 -0.4220  0.5703
 2103TIP3    H2 6316   2.964   2.908   1.336 -2.1338 -1.3549 -0.7990
 2104TIP3   OH2 6317   2.561   5.491   4.046  0.4729  0.4207 -0.2976
 2104TIP3    H1 6318   2.525   5.406   4.070  1.1089 -0.1614 -1.3187
 2104TIP3    H2 6319   2.498   5.554   4.080  0.9961 -0.3411  2.2712
 2105TIP3   OH2 6320   2.696   4.042   1.628 -0.4101 -0.3159 -0.5486
 2105TIP3    H1 6321   2.679   3.950   1.609  0.6640 -0.9778  1.3696
 2105TIP3    H2 6322   2.787   4.056   1.600  0.5626 -0.8174  2.0355
 2106TIP3   OH2 6323  -0.005   1.993   0.937 -0.1584  0.6069 -0.1315
 2106TIP3    H1 6324  -0.034   1.912   0.980 -0.8794  1.5511  1.2351
 2106TIP3    H2 6325   0.077   1.969   0.895  0.4074 -0.5086  1.4939
 2107TIP3   OH2 6326   2.696   5.325   2.666 -0.9190  0.4285  0.1015
 2107TIP3    H1 6327   2.688   5.396   2.603  1.0601  1.4217  0.8823
 2107TIP3    H2 6328   2.633   5.346   2.735 -1.3333  0.6676 -0.3473
 2108TIP3   OH2 6329   1.357   4.541   3.293 -0.0784  0.1594  0.0094
 2108TIP3    H1 6330   1.263   4.524   3.295 -0.1896  0.7579  1.6171
 2108TIP3    H2 6331   1.365   4.634   3.315  0.9140 -0.0541  0.6137
 2109TIP3   OH2 6332   5.011   0.051   0.214 -0.0318  0.3806 -0.1354
 2109TIP3    H1 6333   4.947   0.114   0.246  1.1516  1.2658  0.5397
 2109TIP3    H2 6334   5.092   0.100   0.207  0.7617 -0.9037 -0.2510
 2110TIP3   OH2 6335   3.042   4.778   2.704  0.3658  0.1663 -0.0116
 2110TIP3    H1 6336   3.088   4.828   2.772  0.6949  0.4691 -0.4524
 2110TIP3    H2 6337   2.955   4.816   2.702  0.4284  0.3168  0.0779
 2111TIP3   OH2 6338   0.631   3.326   2.817  0.1583  0.4255  0.3946
 2111TIP3    H1 6339   0.722   3.356   2.825  0.2564  0.9374 -1.9506
 2111TIP3    H2 6340   0.618   3.266   2.891  2.2321  0.7183  1.0451
 2112TIP3   OH2 6341   2.657   1.210   2.945  0.1781  0.2315  0.2213
 2112TIP3    H1 6342   2.600   1.287   2.946  0.3464  0.3696 -0.7214
 2112TIP3    H2 6343   2.701   1.213   3.030 -2.8924 -1.1523  2.0540
 2113TIP3   OH2 6344   2.305   1.598   1.869 -0.4916  0.6725 -0.4032
 2113TIP3    H1 6345   2.346   1.529   1.816  1.4428 -0.8209  2.7604
 2113TIP3    H2 6346   2.215   1.568   1.882  0.5062 -1.8411  1.5751
 2114TIP3   OH2 6347   6.043   2.774   1.332 -0.2142  0.1881 -0.3400
 2114TIP3    H1 6348   6.083   2.840   1.275  0.8398 -1.1301 -1.2165
 2114TIP3    H2 6349   5.963   2.748   1.286 -0.5431  0.7332 -0.0780
 2115TIP3   OH2 6350   5.298   1.416   4.358 -0.3677 -0.0275  0.2976
 2115TIP3    H1 6351   5.363   1.454   4.300 -0.4689 -0.8727 -0.3792
 2115TIP3    H2 6352   5.286   1.326   4.327 -2.1603  0.2290  0.1395
 2116TIP3   OH2 6353   5.488   3.950   4.739  0.5285  0.1060  0.3609
 2116TIP3    H1 6354   5.469   4.019   4.802 -2.7159 -0.1049 -0.2283
 2116TIP3    H2 6355   5.479   3.869   4.788  1.8502  0.0111  0.4736
 2117TIP3   OH2 6356   1.203   4.971   3.119  0.5303  0.3600  0.4728
 2117TIP3    H1 6357   1.222   5.061   3.093  0.3280  0.1299 -0.4778
 2117TIP3    H2 6358   1.115   4.953   3.086  1.4605 -0.9592 -1.4673
 2118TIP3   OH2 6359   5.525   0.541   2.985  0.1331 -0.5993  0.4154
 2118TIP3    H1 6360   5.448   0.513   3.034 -0.2202 -2.4908 -1.1151
 2118TIP3    H2 6361   5.591   0.560   3.052 -1.3553  0.2004  1.7044
 2119TIP3   OH2 6362   5.641   3.165   4.510  0.1992  0.2002 -0.3015
 2119TIP3    H1 6363   5.692   3.134   4.435  0.1242  1.7858 -1.0533
 2119TIP3    H2 6364   5.691   3.240   4.544  0.3449 -0.6071  1.3907
 2120TIP3   OH2 6365   4.025   2.080   0.452 -0.6137  0.5394  0.4821
 2120TIP3    H1 6366   4.013   2.175   0.456  0.8012  0.9324 -2.0677
 2120TIP3    H2 6367   4.119   2.068   0.462 -0.5110 -0.3729 -1.2847
 2121TIP3   OH2 6368   3.961   3.476   4.414 -0.0748  0.4395 -0.0648
 2121TIP3    H1 6369   3.937   3.482   4.321 -0.9189 -2.1719 -0.1041
 2121TIP3    H2 6370   3.888   3.519   4.460 -0.4524  0.3293 -0.5510
 2122TIP3   OH2 6371   1.513   2.750   0.631  0.1273 -0.5910 -0.2441
 2122TIP3    H1 6372   1.496   2.681   0.696 -1.5495 -0.6036 -0.6332
 2122TIP3    H2 6373   1.533   2.703   0.550  0.2086 -0.6129 -0.2105
 2123TIP3   OH2 6374   0.022   3.605   2.320 -0.5824  0.4006 -0.2259
 2123TIP3    H1 6375   0.038   3.666   2.392 -1.7791  1.3345 -0.7193
 2123TIP3    H2 6376   0.068   3.644   2.246 -0.4373  0.1175 -0.2868
 2124TIP3   OH2 6377   2.603   5.082   2.551  0.1142 -0.3118  0.4835
 2124TIP3    H1 6378   2.616   5.166   2.595  0.7905 -0.1227 -0.0384
 2124TIP3    H2 6379   2.533   5.039   2.599 -0.5217  0.7250  0.5151
 2125TIP3   OH2 6380   0.555   0.153   0.705  0.2416  0.0022  0.9255
 2125TIP3    H1 6381   0.537   0.095   0.630  0.9113  1.6832 -0.6116
 2125TIP3    H2 6382   0.650   0.147   0.717  0.1703 -0.0572  1.4824
 2126TIP3   OH2 6383   1.588   0.871   0.640  0.2048  0.0776 -0.1615
 2126TIP3    H1 6384   1.576   0.964   0.660  0.0925 -0.1599  0.9635
 2126TIP3    H2 6385   1.596   0.830   0.726  0.7686 -0.8860 -0.6653
 2127TIP3   OH2 6386   2.417   2.798   0.505 -0.8471 -0.1754  0.4355
 2127TIP3    H1 6387   2.452   2.741   0.436 -1.3742  1.1577 -1.0118
 2127TIP3    H2 6388   2.467   2.776   0.583 -1.8599 -3.4818  0.2894
 2128TIP3   OH2 6389   2.258   4.977   4.366  0.6252 -0.5426  0.5207
 2128TIP3    H1 6390   2.256   4.913   4.295 -0.1322 -1.0426  0.9704
 2128TIP3    H2 6391   2.173   4.968   4.409  1.5377 -1.2077  2.3229
 2129TIP3   OH2 6392   3.234   5.383   1.708  0.0337  0.4436  0.4786
 2129TIP3    H1 6393   3.183   5.313   1.667 -0.2630  1.7494 -1.4993
 2129TIP3    H2 6394   3.173   5.424   1.770 -1.0136  1.2387 -1.0139
 2130TIP3   OH2 6395   3.957   3.819   3.991  0.1426 -0.0373  0.2657
 2130TIP3    H1 6396   3.997   3.851   3.910  1.0264 -0.4735  0.5212
 2130TIP3    H2 6397   3.865   3.806   3.968  0.3122  0.1741 -0.5751
 2131TIP3   OH2 6398   3.611   0.705   1.247 -0.6046 -0.2083 -0.1946
 2131TIP3    H1 6399   3.666   0.635   1.210  0.4284 -0.2677  1.3743
 2131TIP3    H2 6400   3.660   0.785   1.230 -1.6014  0.1274 -1.6376
 2132TIP3   OH2 6401   1.669   0.712   1.487  0.3369 -0.7437  0.3388
 2132TIP3    H1 6402   1.742   0.765   1.518  0.6122 -0.9680  0.0753
 2132TIP3    H2 6403   1.692   0.689   1.397 -0.2322 -0.4960  0.1218
 2133TIP3   OH2 6404   2.159   1.330   1.749 -0.7928  0.3643 -0.0762
 2133TIP3    H1 6405   2.101   1.259   1.721 -0.1862 -0.1232 -0.1321
 2133TIP3    H2 6406   2.246   1.303   1.718 -0.1639  0.0066  1.8756
 2134TIP3   OH2 6407   0.275   4.546   2.950  0.1630  0.6030 -0.0856
 2134TIP3    H1 6408   0.181   4.527   2.945 -0.2442  2.4521 -0.3272
 2134TIP3    H2 6409   0.303   4.556   2.859  0.7143 -0.3856 -0.0354
 2135TIP3   OH2 6410   2.440   1.269   0.303 -0.7350  0.1532  0.0164
 2135TIP3    H1 6411   2.431   1.198   0.239 -0.7964 -0.2999  0.5246
 2135TIP3    H2 6412   2.529   1.302   0.289 -0.7781  0.1108 -0.3613
 2136TIP3   OH2 6413   3.709   5.556   4.335 -0.1779  0.4837  1.1118
 2136TIP3    H1 6414   3.677   5.630   4.387  0.3681  0.8857  0.8812
 2136TIP3    H2 6415   3.657   5.559   4.254  0.7495  1.4361  0.5226
 2137TIP3   OH2 6416   0.070   1.180   0.123 -0.0785  0.1067  0.4588
 2137TIP3    H1 6417   0.134   1.194   0.191 -0.6355 -1.1751  1.2780
 2137TIP3    H2 6418   0.120   1.148   0.048  0.3913  0.4065  0.6450
 2138TIP3   OH2 6419   2.342   1.204   2.908 -0.8827  0.1649 -0.0379
 2138TIP3    H1 6420   2.394   1.189   2.830  0.1611  1.3789  0.3842
 2138TIP3    H2 6421   2.365   1.132   2.967 -1.2189 -0.4149 -0.6040
 2139TIP3   OH2 6422   4.010   2.651   2.117 -0.7373 -0.4016 -0.2497
 2139TIP3    H1 6423   4.023   2.628   2.025 -0.1183 -0.5828 -0.1170
 2139TIP3    H2 6424   4.073   2.597   2.165 -0.1296  0.6455  0.1737
 2140TIP3   OH2 6425   5.502   3.699   1.078  0.0990 -0.2284 -0.0064
 2140TIP3    H1 6426   5.422   3.655   1.052 -1.0452  1.6515  0.1484
 2140TIP3    H2 6427   5.492   3.789   1.046  0.9125  0.7869  2.2986
 2141TIP3   OH2 6428   2.370   0.273   0.213 -0.4897  0.1698  0.2177
 2141TIP3    H1 6429   2.345   0.361   0.185  1.2959  0.5992 -0.1614
 2141TIP3    H2 6430   2.376   0.279   0.308 -1.8930  0.0127  0.3333
 2142TIP3   OH2 6431   6.246   3.052   4.113 -0.1784  0.0817 -0.8115
 2142TIP3    H1 6432   6.330   3.091   4.134 -0.5216 -0.3986  1.8107
 2142TIP3    H2 6433   6.265   2.960   4.096 -0.2013 -0.1264  0.2408
 2143TIP3   OH2 6434   2.550   1.108   5.189 -0.2281 -0.2679 -0.1124
 2143TIP3    H1 6435   2.500   1.026   5.190  0.5738 -0.8012 -1.4529
 2143TIP3    H2 6436   2.557   1.131   5.097  0.7426  0.5805  0.1502
 2144TIP3   OH2 6437   3.962   2.857   2.455  0.5073 -0.2560 -0.8706
 2144TIP3    H1 6438   3.940   2.940   2.411  1.1518  2.0419  2.7550
 2144TIP3    H2 6439   4.056   2.864   2.472  0.2608 -0.9368  0.9398
 2145TIP3   OH2 6440   4.465   1.107   4.873 -0.1192  0.3533  0.2247
 2145TIP3    H1 6441   4.492   1.127   4.963  0.3256 -0.2337  0.2295
 2145TIP3    H2 6442   4.545   1.078   4.830 -0.1655  1.3819 -0.5932
 2146TIP3   OH2 6443   3.650   1.256   2.911 -0.2680  0.0950  0.0912
 2146TIP3    H1 6444   3.703   1.269   2.832 -0.3127 -0.0580  0.0350
 2146TIP3    H2 6445   3.597   1.336   2.918 -0.1638  0.1675  0.0430
 2147TIP3   OH2 6446   2.767   5.896   0.771 -0.0656  0.3931 -0.3279
 2147TIP3    H1 6447   2.711   5.885   0.847  0.6156 -2.3018 -0.1235
 2147TIP3    H2 6448   2.727   5.968   0.722 -0.6834  2.0063  2.3624
 2148TIP3   OH2 6449   4.137   3.149   4.051  0.6367 -0.0237 -0.4934
 2148TIP3    H1 6450   4.160   3.242   4.061 -0.1370  0.0783  0.4721
 2148TIP3    H2 6451   4.046   3.150   4.023  0.4568 -0.5037  0.0731
 2149TIP3   OH2 6452   4.199   5.289   4.608  0.4967 -0.1225 -0.1348
 2149TIP3    H1 6453   4.287   5.293   4.571  1.1607  0.7119  1.4081
 2149TIP3    H2 6454   4.171   5.380   4.614 -0.4897 -0.3818 -0.6276
 2150TIP3   OH2 6455   4.918   1.186   3.935  0.0277  0.5240 -0.5464
 2150TIP3    H1 6456   4.917   1.090   3.931  0.3347  0.5290 -0.7842
 2150TIP3    H2 6457   4.956   1.206   4.021 -0.0087  0.4359 -0.5089
 2151TIP3   OH2 6458   0.067   0.290   3.030  0.7470 -0.1327  0.5689
 2151TIP3    H1 6459   0.025   0.204   3.023  1.2501 -0.5657  2.2762
 2151TIP3    H2 6460   0.101   0.293   3.120  2.4805  1.0695 -0.0707
 2152TIP3   OH2 6461   1.053   5.285   0.261 -0.1271  0.5914  0.3972
 2152TIP3    H1 6462   1.138   5.273   0.304  1.0028 -0.1942 -1.9090
 2152TIP3    H2 6463   1.013   5.197   0.261 -0.3066  0.6723  0.2005
 2153TIP3   OH2 6464   2.624   2.798   4.766  0.5918 -0.1212 -0.3385
 2153TIP3    H1 6465   2.619   2.794   4.861 -2.0280  1.6492 -0.3077
 2153TIP3    H2 6466   2.716   2.817   4.747  1.2164 -0.8035  1.7845
 2154TIP3   OH2 6467   2.207   0.741   1.204  0.4577 -0.2082  0.2224
 2154TIP3    H1 6468   2.169   0.701   1.126 -0.5132 -0.7840  0.9639
 2154TIP3    H2 6469   2.219   0.833   1.180  2.1536 -0.7540 -1.3030
 2155TIP3   OH2 6470   0.929   4.676   4.241  0.0530  0.0019  0.2163
 2155TIP3    H1 6471   0.939   4.589   4.278  0.6821  0.4720  1.1870
 2155TIP3    H2 6472   0.870   4.721   4.302 -1.8619 -0.3013 -1.2869
 2156TIP3   OH2 6473   4.618   4.858   1.142  0.4649 -0.2372  0.3813
 2156TIP3    H1 6474   4.600   4.815   1.225 -0.5464 -0.8432 -0.1263
 2156TIP3    H2 6475   4.585   4.947   1.153 -1.6529 -0.9033 -0.0311
 2157TIP3   OH2 6476   2.388   4.574   1.165 -0.0732 -0.0824 -0.1769
 2157TIP3    H1 6477   2.388   4.664   1.134  0.4476 -0.1733 -0.4498
 2157TIP3    H2 6478   2.311   4.568   1.222 -0.2958  0.4425 -0.4164
 2158TIP3   OH2 6479   1.634   5.481   4.061  0.2720 -0.4490  0.8936
 2158TIP3    H1 6480   1.665   5.391   4.062  0.7855 -0.2770  0.8500
 2158TIP3    H2 6481   1.653   5.514   4.149 -0.1709 -0.4668  0.9991
 2159TIP3   OH2 6482   0.115   0.182   4.392  0.1221 -0.6595 -0.1755
 2159TIP3    H1 6483   0.024   0.191   4.364  0.9276  1.1240 -2.5920
 2159TIP3    H2 6484   0.137   0.266   4.432  0.7873 -0.9850  0.1739
 2160TIP3   OH2 6485   4.088   2.241   0.718 -0.1120  0.2919 -0.5337
 2160TIP3    H1 6486   4.018   2.277   0.773 -0.5625  0.6351 -1.3131
 2160TIP3    H2 6487   4.048   2.164   0.676  0.2466 -0.0055 -0.3299
 2161TIP3   OH2 6488   2.530   4.717   2.938  0.2060  0.3365 -0.1861
 2161TIP3    H1 6489   2.516   4.804   2.974  2.7913 -0.1842  2.4812
 2161TIP3    H2 6490   2.603   4.727   2.877  2.3784 -0.2436  2.1539
 2162TIP3   OH2 6491   5.789   0.334   2.902 -0.0029 -0.0325  0.5386
 2162TIP3    H1 6492   5.782   0.416   2.950  0.3973  0.0870  0.3977
 2162TIP3    H2 6493   5.754   0.268   2.962 -0.8520  0.3195  0.4334
 2163TIP3   OH2 6494   5.364   4.978   0.794 -0.1600  0.3724  0.5095
 2163TIP3    H1 6495   5.346   4.889   0.826  2.1196  0.0197  0.9673
 2163TIP3    H2 6496   5.429   4.966   0.726  1.5982  1.7849  1.8589
 2164TIP3   OH2 6497   2.497   1.164   2.645  0.0265 -0.7352 -0.3288
 2164TIP3    H1 6498   2.554   1.088   2.659  0.3261 -0.9228 -2.2294
 2164TIP3    H2 6499   2.555   1.231   2.610 -0.5915 -0.2933 -0.5182
 2165TIP3   OH2 6500   1.839   0.094   0.773 -0.6187 -0.3687  0.1596
 2165TIP3    H1 6501   1.931   0.108   0.796 -0.2470 -0.5572 -1.1253
 2165TIP3    H2 6502   1.799   0.058   0.852  0.8472 -2.1225  0.1592
 2166TIP3   OH2 6503   0.870   3.319   3.018  0.3060  0.0487  0.2832
 2166TIP3    H1 6504   0.851   3.333   3.111 -0.6745 -0.8612  0.2339
 2166TIP3    H2 6505   0.859   3.225   3.005 -2.3823  0.4808 -1.3210
 2167TIP3   OH2 6506   5.307   1.900   3.121  0.2047  0.1164 -0.4190
 2167TIP3    H1 6507   5.360   1.901   3.201  3.0063 -0.9395 -2.0844
 2167TIP3    H2 6508   5.343   1.828   3.069 -2.2699  0.0014 -2.1739
 2168TIP3   OH2 6509   4.497   1.114   0.645  0.7094  0.0755  0.5074
 2168TIP3    H1 6510   4.537   1.178   0.586 -1.6799  0.4728 -0.8038
 2168TIP3    H2 6511   4.511   1.149   0.733  0.4932  1.8037 -0.1139
 2169TIP3   OH2 6512   0.335   1.227   4.046  0.5765  0.6109  0.5967
 2169TIP3    H1 6513   0.311   1.136   4.025 -0.3337  0.2157  3.0267
 2169TIP3    H2 6514   0.418   1.220   4.093 -0.8964  0.6391  3.3980
 2170TIP3   OH2 6515   0.366   3.695   0.070 -0.5317  0.0965 -0.0028
 2170TIP3    H1 6516   0.403   3.669   0.155 -0.8702 -0.7274 -0.1003
 2170TIP3    H2 6517   0.438   3.687   0.008 -0.5004 -0.0949  0.0599
 2171TIP3   OH2 6518   4.514   4.817   2.998  0.0130  0.4588  0.0158
 2171TIP3    H1 6519   4.555   4.752   3.054 -0.1770 -0.0193 -0.3941
 2171TIP3    H2 6520   4.507   4.895   3.053  0.0425  0.0705  0.5761
 2172TIP3   OH2 6521   0.570   3.435   4.501 -0.3498  0.2589 -1.0207
 2172TIP3    H1 6522   0.576   3.357   4.556 -2.4075  1.3964  0.9515
 2172TIP3    H2 6523   0.502   3.415   4.437  0.8674 -0.4305 -2.1522
 2173TIP3   OH2 6524   5.746   5.900   2.112  0.5141 -0.3197  0.2610
 2173TIP3    H1 6525   5.702   5.963   2.170 -0.2990 -0.6513  0.0290
 2173TIP3    H2 6526   5.753   5.821   2.165  1.5350 -0.0517  0.5521
 2174TIP3   OH2 6527   0.894   3.184   2.535  0.5644  0.6429 -0.7378
 2174TIP3    H1 6528   0.969   3.130   2.557 -1.4183 -1.9439  0.1220
 2174TIP3    H2 6529   0.874   3.233   2.615  0.4308  0.1735 -0.4826
 2175TIP3   OH2 6530   0.532   0.077   2.223 -0.5872 -0.5480  0.2753
 2175TIP3    H1 6531   0.570   0.094   2.137  0.0375 -0.6959  0.5209
 2175TIP3    H2 6532   0.439   0.099   2.212 -0.0328  2.3276  0.3336
 2176TIP3   OH2 6533   0.817   1.383   0.541 -0.0626  0.0307  0.0445
 2176TIP3    H1 6534   0.773   1.461   0.506  0.0767  0.6607  1.2428
 2176TIP3    H2 6535   0.886   1.418   0.597  0.3085 -0.9662  0.2163
 2177TIP3   OH2 6536   4.476   3.567   2.897 -0.4093 -0.1740  0.2541
 2177TIP3    H1 6537   4.454   3.635   2.833 -0.3371 -1.1191 -0.7866
 2177TIP3    H2 6538   4.557   3.528   2.864  0.1499 -0.0576  1.4268
 2178TIP3   OH2 6539   3.063   0.408   2.410  0.4709  0.2552 -0.6644
 2178TIP3    H1 6540   3.149   0.448   2.396  0.6755  0.1500  0.2337
 2178TIP3    H2 6541   3.074   0.318   2.380  1.3313 -0.3865  1.4294
 2179TIP3   OH2 6542   0.289   0.142   1.420 -0.0527  0.1590  0.1423
 2179TIP3    H1 6543   0.231   0.113   1.490 -0.2358  1.0336  0.3632
 2179TIP3    H2 6544   0.242   0.214   1.377  0.6336  0.5264 -0.0170
 2180TIP3   OH2 6545   4.148   2.587   2.705  0.0173  0.4676  0.3627
 2180TIP3    H1 6546   4.228   2.618   2.662  0.8716  0.0436  1.5956
 2180TIP3    H2 6547   4.100   2.667   2.727  0.6883  0.7788  0.7056
 2181TIP3   OH2 6548   4.627   2.471   5.122  0.0506 -0.4608 -0.1140
 2181TIP3    H1 6549   4.548   2.453   5.173 -0.3937  1.2465 -0.1424
 2181TIP3    H2 6550   4.694   2.414   5.160 -0.7633 -0.6472  1.0819
 2182TIP3   OH2 6551   4.640   0.415   4.118 -0.6528  0.2757  0.3268
 2182TIP3    H1 6552   4.602   0.391   4.034 -0.7968  1.2668  0.0953
 2182TIP3    H2 6553   4.565   0.443   4.171 -0.4471  0.6614  0.4197
 2183TIP3   OH2 6554   5.918   4.119   1.210  0.3545  0.3223  0.3738
 2183TIP3    H1 6555   5.829   4.152   1.227 -0.0487 -0.4744 -0.1598
 2183TIP3    H2 6556   5.933   4.055   1.280 -0.0679 -0.6075 -0.3627
 2184TIP3   OH2 6557   4.345   1.993   2.730 -0.4980 -0.0870 -0.9334
 2184TIP3    H1 6558   4.414   1.990   2.796 -1.8685 -0.8539  0.5341
 2184TIP3    H2 6559   4.326   2.087   2.720 -0.2941  0.0376 -0.2026
 2185TIP3   OH2 6560   0.395   2.356   4.784 -0.4986 -0.1836 -0.2628
 2185TIP3    H1 6561   0.383   2.446   4.752 -0.3099  0.0832  0.4044
 2185TIP3    H2 6562   0.307   2.329   4.812 -1.2605 -1.3705 -3.3299
 2186TIP3   OH2 6563   0.803   0.867   5.120 -0.6212  0.4545  0.1874
 2186TIP3    H1 6564   0.820   0.960   5.134  2.2413 -0.1429  1.2529
 2186TIP3    H2 6565   0.888   0.830   5.096 -2.1673 -1.4777 -2.9950
 2187TIP3   OH2 6566   3.641   1.689   5.209  0.1009  0.2027 -0.3967
 2187TIP3    H1 6567   3.607   1.716   5.124 -0.6291  0.4046 -0.0450
 2187TIP3    H2 6568   3.724   1.646   5.189  0.8151  1.8121 -1.0795
 2188TIP3   OH2 6569   0.205   0.488   4.225  0.1629 -0.1259 -0.2702
 2188TIP3    H1 6570   0.175   0.464   4.313  0.1019  1.8898  0.3099
 2188TIP3    H2 6571   0.274   0.552   4.240  1.7601 -1.4204 -1.6941
 2189TIP3   OH2 6572   6.065   5.281   4.827  0.0738 -0.1987  0.0514
 2189TIP3    H1 6573   6.133   5.344   4.806 -0.1605  0.4326  1.0619
 2189TIP3    H2 6574   6.080   5.259   4.919 -0.6097 -0.6390  0.0702
 2190TIP3   OH2 6575   3.757   2.908   0.465  0.1071  0.4599 -0.1264
 2190TIP3    H1 6576   3.709   2.968   0.408  0.6641  0.0183 -1.0889
 2190TIP3    H2 6577   3.689   2.850   0.501 -0.1498  0.0463 -1.2218
 2191TIP3   OH2 6578   3.289   2.537   3.341 -0.3140  0.0104 -0.4716
 2191TIP3    H1 6579   3.205   2.510   3.304 -0.9115  1.9889 -0.6214
 2191TIP3    H2 6580   3.276   2.534   3.436  0.2378 -1.9871 -0.4073
 2192TIP3   OH2 6581   2.878   2.998   5.128  0.3434  0.8777  0.3215
 2192TIP3    H1 6582   2.913   3.048   5.202  0.8592  0.8413  0.1011
 2192TIP3    H2 6583   2.954   2.976   5.075  0.1077 -0.0606  0.3579
 2193TIP3   OH2 6584   2.296   3.376   0.003 -0.2521  0.2067  0.1723
 2193TIP3    H1 6585   2.353   3.299  -0.002 -1.6734 -0.8661 -0.2730
 2193TIP3    H2 6586   2.297   3.401   0.095  0.6672  0.0273  0.2240
 2194TIP3   OH2 6587   2.137   0.098   3.619 -0.2452 -0.4574  0.4280
 2194TIP3    H1 6588   2.122   0.076   3.528  1.6181 -1.7964  0.3944
 2194TIP3    H2 6589   2.072   0.166   3.638 -0.7810 -0.2583 -1.8235
 2195TIP3   OH2 6590   1.097   2.835   0.713 -0.0474 -0.5058  0.3651
 2195TIP3    H1 6591   1.169   2.806   0.769  0.6987 -0.2240 -0.4206
 2195TIP3    H2 6592   1.136   2.902   0.657 -0.7873 -0.7274 -0.4396
 2196TIP3   OH2 6593   4.259   4.623   5.118 -0.3521  0.2603  0.2195
 2196TIP3    H1 6594   4.319   4.663   5.056  0.1316 -0.0134  0.5077
 2196TIP3    H2 6595   4.194   4.578   5.063 -0.2266  0.4514 -0.0882
 2197TIP3   OH2 6596   5.640   1.184   0.591 -0.1638  0.0606  0.6723
 2197TIP3    H1 6597   5.722   1.233   0.582 -0.2461  0.0681 -0.0946
 2197TIP3    H2 6598   5.641   1.122   0.518 -1.3164  0.7740  0.0218
 2198TIP3   OH2 6599   3.693   3.899   0.562  0.0539 -0.3280 -0.2904
 2198TIP3    H1 6600   3.759   3.926   0.626 -0.3184 -0.5279  0.1883
 2198TIP3    H2 6601   3.610   3.920   0.604 -0.3193 -3.1619  0.5895
 2199TIP3   OH2 6602   3.251   4.382   0.479 -0.2289  0.1247 -0.0303
 2199TIP3    H1 6603   3.263   4.419   0.566 -2.6124  0.6512  0.1364
 2199TIP3    H2 6604   3.233   4.457   0.423 -1.5032 -0.4281 -0.3973
 2200TIP3   OH2 6605   5.731   2.120   3.874 -0.5077 -0.2747  0.0039
 2200TIP3    H1 6606   5.799   2.187   3.868 -1.6384  0.9037 -0.2469
 2200TIP3    H2 6607   5.768   2.044   3.830  0.3261  0.6228 -0.8945
 2201TIP3   OH2 6608   1.307   4.539   4.727 -0.6096 -0.1547 -0.0811
 2201TIP3    H1 6609   1.298   4.446   4.746 -0.1158 -0.2298 -0.2032
 2201TIP3    H2 6610   1.251   4.554   4.651  0.1699 -0.5772 -0.7395
 2202TIP3   OH2 6611   1.589   4.906   0.601 -0.5643  0.0397  0.3506
 2202TIP3    H1 6612   1.641   4.851   0.660 -1.3725 -0.5747  0.5164
 2202TIP3    H2 6613   1.532   4.845   0.555 -0.7934  0.6441 -0.1876
 2203TIP3   OH2 6614   1.490   5.123   0.146  0.1772 -0.3263  0.0142
 2203TIP3    H1 6615   1.427   5.111   0.075 -1.2305  0.8022  1.0109
 2203TIP3    H2 6616   1.478   5.046   0.202 -0.6776  0.0979  0.4369
 2204TIP3   OH2 6617   4.529   1.893   4.505 -0.3645  0.2106 -0.2767
 2204TIP3    H1 6618   4.566   1.849   4.582  2.1455  1.7675 -0.4832
 2204TIP3    H2 6619   4.480   1.824   4.461 -0.6187 -1.1211  1.8969
 2205TIP3   OH2 6620   4.003   1.435   2.606 -0.2160 -0.3158  0.5434
 2205TIP3    H1 6621   4.015   1.456   2.513  2.7299 -1.7247  0.4953
 2205TIP3    H2 6622   4.092   1.425   2.640 -1.0463  2.2940  4.1179
 2206TIP3   OH2 6623   5.117   5.643   4.215  0.1880 -0.2664 -0.7032
 2206TIP3    H1 6624   5.054   5.614   4.149  1.7718 -1.0615 -1.9591
 2206TIP3    H2 6625   5.069   5.643   4.297 -1.4478 -0.7498 -1.6297
 2207TIP3   OH2 6626   4.572   4.517   2.563 -0.2841 -0.3440  0.3188
 2207TIP3    H1 6627   4.514   4.441   2.559 -0.7924  0.0495  0.1557
 2207TIP3    H2 6628   4.534   4.580   2.501 -0.1983  0.2785  0.8847
 2208TIP3   OH2 6629   0.359   0.586   1.369 -0.0023 -0.4829  0.5129
 2208TIP3    H1 6630   0.374   0.607   1.276  0.3081  1.0356  0.8749
 2208TIP3    H2 6631   0.445   0.558   1.401 -0.2982 -1.8716  0.1588
 2209TIP3   OH2 6632   4.383   5.402   4.062  0.0898  0.0707 -0.1870
 2209TIP3    H1 6633   4.394   5.334   4.128  0.0069  0.4907  0.2697
 2209TIP3    H2 6634   4.409   5.361   3.980  2.0904  0.1106  0.3819
 2210TIP3   OH2 6635   0.557   1.561   4.177  0.0465 -0.1411  0.0161
 2210TIP3    H1 6636   0.594   1.483   4.135 -1.5177 -0.8877 -0.0167
 2210TIP3    H2 6637   0.497   1.597   4.112 -0.5364  0.1093  0.6943
 2211TIP3   OH2 6638   4.092   2.072   1.113 -0.6274  0.1607 -0.1647
 2211TIP3    H1 6639   4.156   2.124   1.161 -1.0870 -0.2517  0.9288
 2211TIP3    H2 6640   4.122   2.076   1.022  0.9544 -0.0348  0.3117
 2212TIP3   OH2 6641   2.364   2.711   3.576 -0.1988  0.0905 -0.4657
 2212TIP3    H1 6642   2.405   2.748   3.654  0.7551  0.3262 -1.0626
 2212TIP3    H2 6643   2.272   2.697   3.601  0.0355  0.4026  0.6039
 2213TIP3   OH2 6644   5.452   2.182   4.455 -0.5134 -0.0027  0.0004
 2213TIP3    H1 6645   5.524   2.158   4.396  2.4763  1.2341  2.7807
 2213TIP3    H2 6646   5.459   2.120   4.527 -2.4941 -0.0242  0.2122
 2214TIP3   OH2 6647   0.616   4.639   3.759  0.1545  0.2274 -0.1155
 2214TIP3    H1 6648   0.687   4.594   3.713 -0.8511 -1.8072  0.2153
 2214TIP3    H2 6649   0.545   4.575   3.762 -1.0214  1.5255  1.2507
 2215TIP3   OH2 6650   6.326   2.388   2.410  0.9872  0.0078  0.2685
 2215TIP3    H1 6651   6.248   2.444   2.413  1.3889  0.5127  2.0169
 2215TIP3    H2 6652   6.293   2.305   2.376 -0.4859 -0.0029  1.5768
 2216TIP3   OH2 6653   5.902   1.011   3.588 -0.5245  0.2634 -0.1003
 2216TIP3    H1 6654   5.985   0.964   3.595 -0.6530 -0.1897 -1.2992
 2216TIP3    H2 6655   5.836   0.948   3.616 -0.4730  0.6482  0.9252
 2217TIP3   OH2 6656   5.801   1.470   1.134  0.3633 -0.0917 -0.2864
 2217TIP3    H1 6657   5.882   1.510   1.164  1.5768 -1.9692 -0.9081
 2217TIP3    H2 6658   5.826   1.420   1.056 -1.1577 -1.6122  0.1463
 2218TIP3   OH2 6659   4.227   3.492   4.418  0.4271  0.0928  0.1928
 2218TIP3    H1 6660   4.248   3.512   4.510  1.1810 -0.0343  0.0544
 2218TIP3    H2 6661   4.134   3.513   4.410  0.4234  0.3965  0.9108
 2219TIP3   OH2 6662   0.428   2.657   1.694 -0.7623 -0.1729  0.2763
 2219TIP3    H1 6663   0.444   2.740   1.740 -0.5020 -0.4818  0.7487
 2219TIP3    H2 6664   0.378   2.605   1.757 -0.3982 -0.6021  0.2139
 2220TIP3   OH2 6665   0.932   1.823   4.754 -0.4360 -0.1177 -0.1514
 2220TIP3    H1 6666   0.975   1.908   4.760 -1.1504  0.1666  1.0361
 2220TIP3    H2 6667   0.861   1.836   4.692  0.4609 -0.3041 -1.2627
 2221TIP3   OH2 6668   2.791   5.156   3.578  0.3004  0.4623 -0.0866
 2221TIP3    H1 6669   2.711   5.105   3.566  0.7238 -0.0899 -0.6716
 2221TIP3    H2 6670   2.813   5.187   3.490  1.0688  0.0810 -0.0356
 2222TIP3   OH2 6671   5.569   3.532   3.526 -0.3611  0.7710 -1.0393
 2222TIP3    H1 6672   5.589   3.546   3.619  2.1251  1.0378 -1.5450
 2222TIP3    H2 6673   5.492   3.474   3.527 -1.5006  2.1657  1.1439
 2223TIP3   OH2 6674   2.720   2.840   0.284  0.2788 -0.5190 -0.3359
 2223TIP3    H1 6675   2.715   2.751   0.319 -0.7705 -0.4739 -0.3395
 2223TIP3    H2 6676   2.678   2.834   0.198  0.1629 -0.0175 -0.3149
 2224TIP3   OH2 6677   1.078   2.543   0.101  0.8682  0.1728  0.5435
 2224TIP3    H1 6678   1.013   2.490   0.055  1.3037 -1.1323  1.3704
 2224TIP3    H2 6679   1.026   2.605   0.153  0.3046 -0.3386  0.5958
 2225TIP3   OH2 6680   4.686   2.858   1.731 -0.2098  0.4757 -0.2975
 2225TIP3    H1 6681   4.621   2.787   1.727  0.1914  0.0448  0.5137
 2225TIP3    H2 6682   4.665   2.906   1.810 -0.8098  1.6149 -1.1257
 2226TIP3   OH2 6683   1.179   2.526   2.636  0.2031  0.6529  0.1808
 2226TIP3    H1 6684   1.110   2.523   2.702 -0.6004  1.0505 -0.6238
 2226TIP3    H2 6685   1.168   2.445   2.586  0.2909  0.7383  0.0233
 2227TIP3   OH2 6686   6.092   3.611   2.546  0.2957  0.2923  0.3451
 2227TIP3    H1 6687   6.147   3.577   2.617 -0.2712  0.3025  0.7928
 2227TIP3    H2 6688   6.005   3.577   2.565 -0.4774  2.6056  1.2607
 2228TIP3   OH2 6689   2.205   3.984   4.182 -0.2476  0.3108  0.4817
 2228TIP3    H1 6690   2.300   3.994   4.174 -0.3690 -0.0240 -2.0874
 2228TIP3    H2 6691   2.193   3.937   4.264  1.8806 -0.5052  0.3933
 2229TIP3   OH2 6692   1.017   3.103   3.352 -0.0476  0.0976 -0.6647
 2229TIP3    H1 6693   1.077   3.029   3.363 -0.3676 -0.1511 -0.6157
 2229TIP3    H2 6694   1.056   3.154   3.281  1.1384  0.8285  0.4557
 2230TIP3   OH2 6695   2.918   1.746   4.077  0.4433  1.0202  0.4893
 2230TIP3    H1 6696   2.950   1.802   4.006  0.1379  0.2905 -0.2474
 2230TIP3    H2 6697   2.852   1.691   4.035 -1.2338  1.9409  1.7939
 2231TIP3   OH2 6698   1.952   3.314   2.778 -0.3706 -0.0319 -0.0839
 2231TIP3    H1 6699   1.982   3.386   2.834 -0.8903 -0.2231  0.4559
 2231TIP3    H2 6700   1.886   3.269   2.831  0.0192 -0.9667 -0.3822
 2232TIP3   OH2 6701   1.575   0.493   0.782  0.3445 -0.3820  0.1041
 2232TIP3    H1 6702   1.580   0.406   0.742  1.1555  0.2945 -1.3339
 2232TIP3    H2 6703   1.483   0.504   0.804  0.2517 -1.6459  0.3921
 2233TIP3   OH2 6704   4.635   3.974   5.038 -0.6320 -0.4906 -0.9062
 2233TIP3    H1 6705   4.623   3.884   5.067 -0.3925 -0.2194  0.0817
 2233TIP3    H2 6706   4.726   3.978   5.009 -0.7223 -0.6355 -1.2072
 2234TIP3   OH2 6707   0.453   3.524   2.344 -0.4222  0.0619 -0.4767
 2234TIP3    H1 6708   0.411   3.538   2.429  1.8171  0.2851  0.6505
 2234TIP3    H2 6709   0.384   3.486   2.289 -1.6470 -1.0751  1.7391
 2235TIP3   OH2 6710   0.443   3.160   2.283 -0.0173  0.0074  0.2498
 2235TIP3    H1 6711   0.482   3.246   2.301 -1.3752  0.9971 -1.2699
 2235TIP3    H2 6712   0.425   3.124   2.369 -3.0298  2.9846  1.0931
 2236TIP3   OH2 6713   5.999   5.732   3.265  0.1582  0.3514 -0.2370
 2236TIP3    H1 6714   6.080   5.761   3.223  0.1505  0.1453 -0.3968
 2236TIP3    H2 6715   5.931   5.752   3.202 -0.1048  1.8996  0.5053
 2237TIP3   OH2 6716   2.007   1.191   4.258 -0.2805 -0.0623  0.3911
 2237TIP3    H1 6717   1.980   1.187   4.166 -0.9425 -0.2339  0.5871
 2237TIP3    H2 6718   1.994   1.102   4.291 -2.0087  0.4497  1.1796
 2238TIP3   OH2 6719   0.281   3.371   3.909 -0.3378  0.2425  0.3013
 2238TIP3    H1 6720   0.376   3.367   3.908 -0.2877 -1.0141  2.6933
 2238TIP3    H2 6721   0.259   3.419   3.990 -1.7499  0.9890 -0.4714
 2239TIP3   OH2 6722   1.535   1.158   0.674 -0.1123 -0.3885 -0.0699
 2239TIP3    H1 6723   1.576   1.242   0.654  0.6368  0.1569  3.2996
 2239TIP3    H2 6724   1.466   1.149   0.607  0.6651  2.2086 -1.3459
 2240TIP3   OH2 6725   5.654   4.334   3.548 -0.1011 -0.3751  0.2150
 2240TIP3    H1 6726   5.729   4.393   3.535 -1.3107  0.9445 -1.2247
 2240TIP3    H2 6727   5.592   4.386   3.598 -1.1314 -0.4639 -0.9408
 2241TIP3   OH2 6728   1.908   1.723   5.025  0.3925 -0.1345  0.0888
 2241TIP3    H1 6729   1.824   1.757   4.993 -1.3666 -3.9046  0.1292
 2241TIP3    H2 6730   1.899   1.723   5.120  0.6007 -0.2463  0.1078
 2242TIP3   OH2 6731   1.122   3.955   3.820 -0.4495  0.1238  0.5484
 2242TIP3    H1 6732   1.143   4.020   3.753  0.0490  1.6152  2.0596
 2242TIP3    H2 6733   1.028   3.941   3.811 -0.4308  0.4922 -0.3025
 2243TIP3   OH2 6734   3.693   1.195   0.735  0.1821  0.0624  0.1929
 2243TIP3    H1 6735   3.618   1.160   0.782 -0.4927  1.2236  0.0175
 2243TIP3    H2 6736   3.699   1.142   0.656 -0.3389 -0.1515  0.2931
 2244TIP3   OH2 6737   1.748   5.920   1.829  0.0366 -0.7186 -0.1388
 2244TIP3    H1 6738   1.744   5.844   1.772  1.7539  0.1725 -1.5668
 2244TIP3    H2 6739   1.826   5.967   1.800 -0.4150  1.0721  1.3568
 2245TIP3   OH2 6740   1.951   3.548   1.082 -0.1010  0.2413 -0.0998
 2245TIP3    H1 6741   2.026   3.516   1.132  0.1651  1.4250  0.2734
 2245TIP3    H2 6742   1.908   3.611   1.141 -0.0272  1.3461 -1.1975
 2246TIP3   OH2 6743   1.947   2.503   1.272  0.1791 -0.3060 -0.3660
 2246TIP3    H1 6744   1.993   2.450   1.208 -1.8509  0.5587 -2.6948
 2246TIP3    H2 6745   2.004   2.580   1.285  1.5250 -1.3865  0.4756
 2247TIP3   OH2 6746   3.962   1.210   3.316  0.0012 -0.2097  0.0326
 2247TIP3    H1 6747   3.925   1.230   3.230  0.0690  2.3768  0.5359
 2247TIP3    H2 6748   4.050   1.247   3.314  0.8313 -1.9916  0.5471
 2248TIP3   OH2 6749   5.449   1.967   3.360 -0.1506  0.0857 -0.1411
 2248TIP3    H1 6750   5.540   1.945   3.343  0.0438  1.6672 -1.4612
 2248TIP3    H2 6751   5.419   1.902   3.423  2.4903  0.7639  2.0022
 2249TIP3   OH2 6752   4.293   3.988   0.142  0.2216 -0.2850  0.3640
 2249TIP3    H1 6753   4.231   3.915   0.134  1.1940 -0.9845 -1.4519
 2249TIP3    H2 6754   4.376   3.951   0.113  0.7372  1.5598 -0.6382
 2250TIP3   OH2 6755   0.453   4.396   3.773 -0.0811 -0.6226  0.7951
 2250TIP3    H1 6756   0.362   4.413   3.797  0.2003  1.6162  0.4724
 2250TIP3    H2 6757   0.487   4.341   3.844 -1.7319 -1.6893  0.7859
 2251TIP3   OH2 6758   3.134   5.415   4.574  0.5241 -0.5120 -0.1073
 2251TIP3    H1 6759   3.207   5.444   4.629 -0.7143  2.2865  0.1910
 2251TIP3    H2 6760   3.072   5.376   4.636  0.2182  0.3583  0.1351
 2252TIP3   OH2 6761   2.936   1.848  -0.020 -0.4706  0.2402  0.4802
 2252TIP3    H1 6762   2.985   1.907   0.038 -1.2902  0.0416  1.3909
 2252TIP3    H2 6763   2.969   1.761   0.000  0.0265  0.2710 -0.1551
 2253TIP3   OH2 6764   5.015   4.434   4.683  0.6413  0.3791 -0.4831
 2253TIP3    H1 6765   5.055   4.521   4.684  0.3981  0.4918 -0.4456
 2253TIP3    H2 6766   5.089   4.374   4.671  0.7939  0.5981 -0.6439
 2254TIP3   OH2 6767   5.756   3.365   1.681 -0.1057 -0.1936  0.6925
 2254TIP3    H1 6768   5.689   3.432   1.669  0.2314  0.1754  0.8411
 2254TIP3    H2 6769   5.725   3.290   1.629 -1.6550 -0.8033  2.3938
 2255TIP3   OH2 6770   6.109   1.886   4.663 -0.1169  0.3890 -0.6136
 2255TIP3    H1 6771   6.058   1.967   4.663  0.9619  1.1448 -2.5782
 2255TIP3    H2 6772   6.200   1.914   4.672  0.2848 -0.5623 -1.3969
 2256TIP3   OH2 6773   5.682   5.221   3.576 -0.2955  0.1527 -0.2142
 2256TIP3    H1 6774   5.737   5.291   3.539  1.3192 -1.0726 -0.2372
 2256TIP3    H2 6775   5.743   5.149   3.592 -1.3403 -0.1922  2.7420
 2257TIP3   OH2 6776   5.760   0.280   0.025  0.3836  0.0800  0.4403
 2257TIP3    H1 6777   5.761   0.265   0.119  1.2165 -1.3416  0.2329
 2257TIP3    H2 6778   5.849   0.257  -0.004 -0.4143 -1.4766 -0.9544
 2258TIP3   OH2 6779   0.422   3.390   3.083 -0.1847 -0.3746 -0.3945
 2258TIP3    H1 6780   0.484   3.449   3.040  0.7864 -0.6021  0.6358
 2258TIP3    H2 6781   0.337   3.415   3.049  0.4796 -0.1503 -1.9786
 2259TIP3   OH2 6782   5.065   1.502   0.885 -0.2377  0.2048 -0.2098
 2259TIP3    H1 6783   5.019   1.517   0.968  0.8952 -1.4579  0.7936
 2259TIP3    H2 6784   5.132   1.571   0.882  0.0145  0.0029  0.5210
 2260TIP3   OH2 6785   4.117   0.172   0.221  0.3868  0.0975 -0.0158
 2260TIP3    H1 6786   4.040   0.228   0.214 -0.1834 -0.4351  1.6056
 2260TIP3    H2 6787   4.128   0.135   0.134  0.2475  2.0161 -0.8913
 2261TIP3   OH2 6788   2.516   0.990   3.015 -0.5481  0.1895  0.2934
 2261TIP3    H1 6789   2.546   0.984   3.106  0.9414  0.0242 -0.1737
 2261TIP3    H2 6790   2.573   1.055   2.976  0.3304 -1.3233 -1.0655
 2262TIP3   OH2 6791   4.072   0.040   1.372 -0.3918 -0.7494 -0.8128
 2262TIP3    H1 6792   4.043   0.094   1.446  0.5933 -1.4782  0.1460
 2262TIP3    H2 6793   4.124   0.099   1.318  0.6855 -0.7105  0.2312
 2263TIP3   OH2 6794   6.026   4.644   4.953  0.0269 -0.5085  0.2432
 2263TIP3    H1 6795   6.093   4.693   4.907  0.1020 -0.8903 -0.0589
 2263TIP3    H2 6796   5.965   4.616   4.885  0.1568 -1.1071  0.3689
 2264TIP3   OH2 6797   4.839   4.641   3.217 -0.6560 -0.7590  0.5970
 2264TIP3    H1 6798   4.829   4.656   3.123 -1.5880 -1.2268  0.6042
 2264TIP3    H2 6799   4.824   4.547   3.228  0.4649 -0.9008  1.1019
 2265TIP3   OH2 6800   0.258   3.813   2.188  0.0691  0.1432 -0.4072
 2265TIP3    H1 6801   0.310   3.836   2.265  1.0359 -0.3340 -0.8993
 2265TIP3    H2 6802   0.290   3.727   2.163 -1.4105 -0.4410 -0.3612
 2266TIP3   OH2 6803   5.502   1.502   4.200  0.4648  0.0303 -0.6347
 2266TIP3    H1 6804   5.573   1.535   4.255  0.1893 -0.1445 -0.1620
 2266TIP3    H2 6805   5.545   1.448   4.134  0.6502 -1.9587  1.0007
 2267TIP3   OH2 6806   2.695   4.589   3.506  0.2215 -0.4297 -0.3179
 2267TIP3    H1 6807   2.689   4.681   3.480  3.4323 -0.0892 -0.3488
 2267TIP3    H2 6808   2.692   4.590   3.602 -0.3962 -0.3940 -0.3332
 2268TIP3   OH2 6809   0.731   0.726   2.989 -0.1434  0.5362 -0.6870
 2268TIP3    H1 6810   0.822   0.718   2.961  0.4410  0.1897  1.1408
 2268TIP3    H2 6811   0.702   0.635   3.002 -0.8200  0.6385 -1.4677
 2269TIP3   OH2 6812   4.523   4.274   2.888  0.3099 -0.4267 -0.0277
 2269TIP3    H1 6813   4.454   4.208   2.886  0.4254 -0.5425 -0.1965
 2269TIP3    H2 6814   4.587   4.244   2.823  0.2880 -0.0683 -0.2140
 2270TIP3   OH2 6815   5.147   1.014   3.124  0.2897 -0.8978  0.1254
 2270TIP3    H1 6816   5.109   0.934   3.089 -1.9162  0.3957 -0.6457
 2270TIP3    H2 6817   5.089   1.038   3.196  1.7154 -0.6756  1.2610
 2271TIP3   OH2 6818   5.183   2.239   1.117 -0.3161  0.1298  0.3720
 2271TIP3    H1 6819   5.102   2.280   1.087 -0.7211 -0.6681  0.3475
 2271TIP3    H2 6820   5.244   2.250   1.044 -0.9618 -0.8456 -0.3282
 2272TIP3   OH2 6821   2.454   4.002   4.804  0.6444  0.0441  0.3561
 2272TIP3    H1 6822   2.467   3.962   4.890 -0.8300  1.0404  1.0776
 2272TIP3    H2 6823   2.539   4.041   4.783  0.9557  0.0339  1.5023
 2273TIP3   OH2 6824   0.622   4.656   1.808 -0.5877  0.1766 -0.1230
 2273TIP3    H1 6825   0.536   4.668   1.849  0.3098 -0.3356  2.0505
 2273TIP3    H2 6826   0.678   4.720   1.852  0.6246 -0.9963  0.0867
 2274TIP3   OH2 6827   3.604   0.661   0.092  0.0971 -0.5029  0.1621
 2274TIP3    H1 6828   3.544   0.723   0.132 -0.6177 -0.4186 -0.9979
 2274TIP3    H2 6829   3.691   0.689   0.123 -0.3245  0.2525  0.7050
 2275TIP3   OH2 6830   3.193   1.768   5.020  0.2509  0.5521 -0.2640
 2275TIP3    H1 6831   3.197   1.848   5.071  1.7206 -0.0239  0.5793
 2275TIP3    H2 6832   3.173   1.699   5.084  0.3222  0.0566 -0.7621
 2276TIP3   OH2 6833   6.235   4.109   2.988 -0.3514 -0.2273 -0.2608
 2276TIP3    H1 6834   6.205   4.196   3.015  0.3891  0.5411 -1.7867
 2276TIP3    H2 6835   6.298   4.126   2.917  1.0348 -1.9391  0.4816
 2277TIP3   OH2 6836   1.358   0.548   0.963 -0.1187  0.4342 -0.2696
 2277TIP3    H1 6837   1.371   0.585   1.051 -0.7499  1.6742 -0.6774
 2277TIP3    H2 6838   1.295   0.476   0.977 -0.0410  0.4715  0.3229
 2278TIP3   OH2 6839   1.458   4.243   2.678 -0.4291  0.0152  0.3244
 2278TIP3    H1 6840   1.523   4.310   2.700  0.4074 -1.1576  1.5578
 2278TIP3    H2 6841   1.448   4.191   2.758 -1.8750 -0.6740 -0.2670
 2279TIP3   OH2 6842   6.105   4.975   1.698 -0.2573  0.1842 -0.2843
 2279TIP3    H1 6843   6.045   5.050   1.692 -0.9538 -0.1209  1.9630
 2279TIP3    H2 6844   6.049   4.899   1.684 -0.3108 -0.0644  1.1166
 2280TIP3   OH2 6845   6.101   0.249   3.755 -0.2037  0.5635 -0.1967
 2280TIP3    H1 6846   6.052   0.204   3.686 -0.5732  1.9419 -0.8565
 2280TIP3    H2 6847   6.117   0.336   3.721 -1.7047  1.8053  2.0319
 2281TIP3   OH2 6848  -0.004   5.083   2.960 -0.5543 -0.0892  0.7184
 2281TIP3    H1 6849   0.022   5.162   2.914  0.5730 -1.0331 -0.3362
 2281TIP3    H2 6850   0.071   5.062   3.016 -1.2193  0.0861  1.6979
 2282TIP3   OH2 6851   2.010   5.881   3.653  0.7109  0.2365 -0.0483
 2282TIP3    H1 6852   1.989   5.973   3.637 -1.9657 -0.5261 -1.6323
 2282TIP3    H2 6853   1.926   5.841   3.677  1.9472 -1.6777  1.4003
 2283TIP3   OH2 6854   0.056   3.710   2.899  0.1624 -0.2468 -0.4214
 2283TIP3    H1 6855  -0.007   3.772   2.937  1.7341  1.2989 -0.2236
 2283TIP3    H2 6856   0.094   3.758   2.825  1.4234 -0.9792 -0.2609
 2284TIP3   OH2 6857   0.178   3.461   2.979 -0.5601  0.8061  0.1577
 2284TIP3    H1 6858   0.130   3.539   2.953 -3.0730 -0.5600  0.4485
 2284TIP3    H2 6859   0.228   3.437   2.901 -0.1567  2.3602 -0.0996
 2285TIP3   OH2 6860   1.212   3.506   0.746 -0.4810 -0.0910 -0.7616
 2285TIP3    H1 6861   1.278   3.436   0.742 -1.8782 -1.5320  0.0766
 2285TIP3    H2 6862   1.208   3.530   0.838  2.1117  3.3560 -1.3677
 2286TIP3   OH2 6863   3.153   1.999   1.723 -0.0545  0.2760  0.2203
 2286TIP3    H1 6864   3.216   2.018   1.653  1.4510  0.0606  1.4920
 2286TIP3    H2 6865   3.203   2.005   1.804 -1.6076 -0.2023  1.2625
 2287TIP3   OH2 6866   1.316   1.034   2.590  0.3805 -0.1341  0.8464
 2287TIP3    H1 6867   1.366   0.982   2.653  0.8899 -0.7971 -0.0921
 2287TIP3    H2 6868   1.225   1.022   2.616  0.4869 -1.5980  0.5789
 2288TIP3   OH2 6869   6.054   2.469   4.991 -0.5242  0.1565  0.4458
 2288TIP3    H1 6870   6.001   2.549   4.990  0.9689  1.2664  2.5365
 2288TIP3    H2 6871   6.016   2.415   5.059 -0.4825 -0.1523  0.2273
 2289TIP3   OH2 6872   1.305   4.252   0.574 -0.0214 -0.0919 -0.2676
 2289TIP3    H1 6873   1.310   4.178   0.514 -2.2811 -0.0390 -0.6156
 2289TIP3    H2 6874   1.217   4.245   0.613  1.1184  0.2020  2.6111
 2290TIP3   OH2 6875   3.581   1.187   4.755 -0.5473  0.1341  0.0621
 2290TIP3    H1 6876   3.517   1.258   4.746 -0.5479  0.0683 -0.5028
 2290TIP3    H2 6877   3.542   1.114   4.705 -0.1613  0.0039 -0.0497
 2291TIP3   OH2 6878   1.381   2.537   4.327  0.3023  0.2296 -0.2058
 2291TIP3    H1 6879   1.335   2.620   4.341 -2.0023 -0.8656 -0.8616
 2291TIP3    H2 6880   1.473   2.562   4.320 -0.4844  3.0245 -2.4993
 2292TIP3   OH2 6881   5.767   1.432   1.716 -0.4784 -0.2684  0.4609
 2292TIP3    H1 6882   5.709   1.491   1.765  1.3337  1.8530  0.2460
 2292TIP3    H2 6883   5.841   1.488   1.690  0.8218 -2.4184 -0.7638
 2293TIP3   OH2 6884   5.119   5.551   5.057 -0.3138  0.3508  0.0269
 2293TIP3    H1 6885   5.104   5.634   5.103 -1.2806  0.2351 -0.0600
 2293TIP3    H2 6886   5.062   5.557   4.980  1.4770  0.6586 -1.3177
 2294TIP3   OH2 6887   3.693   2.686   2.230  0.1653 -0.0723 -0.4374
 2294TIP3    H1 6888   3.749   2.664   2.304  0.1775  0.2154 -0.3582
 2294TIP3    H2 6889   3.664   2.776   2.248  0.7166  0.2480 -1.1152
 2295TIP3   OH2 6890   2.901   3.349   4.673 -0.2290 -0.4277 -0.3386
 2295TIP3    H1 6891   2.969   3.360   4.740 -0.0399 -1.1759 -0.3960
 2295TIP3    H2 6892   2.942   3.294   4.606 -0.0718  1.1413 -1.5758
 2296TIP3   OH2 6893   3.954   0.545   1.747  0.0716 -0.2127  0.2330
 2296TIP3    H1 6894   3.930   0.562   1.838  0.6162 -0.1342  0.3698
 2296TIP3    H2 6895   3.920   0.621   1.699  1.3374  0.6624  0.6496
 2297TIP3   OH2 6896   5.950   2.401   4.361 -0.1650  0.2681 -0.2928
 2297TIP3    H1 6897   6.010   2.380   4.432  1.1151  0.8677 -1.1588
 2297TIP3    H2 6898   5.960   2.329   4.298 -0.1008  0.5348 -0.5923
 2298TIP3   OH2 6899   5.660   0.172   1.766 -0.0780 -0.1584 -0.0552
 2298TIP3    H1 6900   5.626   0.155   1.854 -0.0670 -0.0823 -0.0366
 2298TIP3    H2 6901   5.665   0.085   1.726 -1.7054 -0.0408 -0.5821
 2299TIP3   OH2 6902   3.484   2.037   5.135 -0.4058 -0.1056 -0.0598
 2299TIP3    H1 6903   3.402   2.010   5.093 -0.7403  0.1284  0.4423
 2299TIP3    H2 6904   3.503   1.966   5.196  0.4081 -0.7499 -1.0275
 2300TIP3   OH2 6905   6.345   4.885   1.667 -0.0511  0.1609 -0.5448
 2300TIP3    H1 6906   6.261   4.910   1.705 -1.0279 -2.0656 -1.0283
 2300TIP3    H2 6907   6.408   4.896   1.738 -1.3541 -1.2770  0.9382
 2301TIP3   OH2 6908   6.172   2.315   3.657  0.3494 -0.0054 -0.0412
 2301TIP3    H1 6909   6.084   2.307   3.620  0.7023 -0.6315 -0.7629
 2301TIP3    H2 6910   6.176   2.405   3.690 -1.1632 -0.4765  1.6096
 2302TIP3   OH2 6911   4.856   2.005   3.616  0.2283 -0.3366  0.2714
 2302TIP3    H1 6912   4.784   2.041   3.564 -0.8077  0.1860  1.9881
 2302TIP3    H2 6913   4.828   2.016   3.707  1.9992 -1.1578  0.9652
 2303TIP3   OH2 6914   0.395   3.110   3.087 -0.1576  0.3934 -0.1917
 2303TIP3    H1 6915   0.391   3.205   3.094 -2.5759  0.3291  0.2151
 2303TIP3    H2 6916   0.317   3.079   3.134  2.1141 -1.9797  2.4655
 2304TIP3   OH2 6917   0.581   1.242   2.597 -0.6109  0.0441 -0.1783
 2304TIP3    H1 6918   0.502   1.189   2.582 -0.3770 -0.9988  1.8476
 2304TIP3    H2 6919   0.645   1.206   2.536 -1.0738 -0.6078 -0.2952
 2305TIP3   OH2 6920   6.334   3.870   0.979  0.2815  0.1265 -0.5561
 2305TIP3    H1 6921   6.240   3.856   0.991 -0.1462  2.3248 -0.8923
 2305TIP3    H2 6922   6.340   3.931   0.906  1.9927  0.0700 -0.5066
 2306TIP3   OH2 6923   0.475   2.660   0.283  0.7561 -0.1962 -0.6475
 2306TIP3    H1 6924   0.545   2.702   0.333 -0.7202  0.6632  0.7593
 2306TIP3    H2 6925   0.492   2.566   0.293  1.0505 -0.0161  0.6659
 2307TIP3   OH2 6926   2.892   2.508   0.520 -0.2773 -0.1150  0.0570
 2307TIP3    H1 6927   2.797   2.508   0.535 -0.3195  0.5572 -0.1910
 2307TIP3    H2 6928   2.915   2.415   0.519 -1.5561 -0.5785 -3.5112
 2308TIP3   OH2 6929   4.894   0.329   4.775  0.3712 -0.3762  0.4535
 2308TIP3    H1 6930   4.805   0.358   4.757  0.6554 -0.1090 -0.6095
 2308TIP3    H2 6931   4.925   0.292   4.692  1.7258  0.8169  0.3893
 2309TIP3   OH2 6932   3.498   3.400   2.330 -0.0504  0.1896 -0.7135
 2309TIP3    H1 6933   3.534   3.338   2.267 -0.5210 -2.1067  1.1342
 2309TIP3    H2 6934   3.437   3.453   2.280 -0.0242 -1.1974 -2.2979
 2310TIP3   OH2 6935   1.749   2.303   3.481 -0.0955 -0.2377  0.5369
 2310TIP3    H1 6936   1.714   2.302   3.571 -0.7698 -2.0791  0.2995
 2310TIP3    H2 6937   1.842   2.320   3.492 -0.5809  2.5628  1.3379
 2311TIP3   OH2 6938   6.203   4.065   1.162  0.2507 -0.7612 -0.7541
 2311TIP3    H1 6939   6.259   4.141   1.144 -0.1349 -0.2715  0.0193
 2311TIP3    H2 6940   6.116   4.104   1.178  0.2710 -1.2674  0.6818
 2312TIP3   OH2 6941   3.585   4.371   2.224 -0.3791 -0.2411  0.0967
 2312TIP3    H1 6942   3.609   4.290   2.178 -2.4940 -0.3490 -0.9305
 2312TIP3    H2 6943   3.534   4.342   2.299 -0.5642  0.1051  0.1085
 2313TIP3   OH2 6944   0.465   3.604   2.900  0.6982  0.1207 -0.0750
 2313TIP3    H1 6945   0.432   3.680   2.853  1.8813  0.9058  0.3147
 2313TIP3    H2 6946   0.439   3.529   2.846 -0.0518  0.8371 -0.7206
 2314TIP3   OH2 6947   2.876   2.128   2.608  0.1695 -0.2513 -0.5779
 2314TIP3    H1 6948   2.852   2.060   2.671  0.9098  0.6089  0.6754
 2314TIP3    H2 6949   2.964   2.103   2.578  0.7542  0.4749  0.4286
 2315TIP3   OH2 6950   4.971   2.266   4.162  0.3784  0.5189 -0.2883
 2315TIP3    H1 6951   5.033   2.273   4.235 -1.5344 -2.0012  1.7689
 2315TIP3    H2 6952   4.999   2.189   4.114  0.2010  0.7581 -0.7837
 2316TIP3   OH2 6953   6.275   2.621   4.958 -0.1430  0.8200  0.2909
 2316TIP3    H1 6954   6.186   2.585   4.957  0.4954 -0.8410 -1.1038
 2316TIP3    H2 6955   6.320   2.571   5.026 -0.3962  2.1198  1.4717
 2317TIP3   OH2 6956   4.742   4.345   1.685  0.7918  0.1926 -0.4362
 2317TIP3    H1 6957   4.760   4.436   1.661  2.0232  0.3093  0.7689
 2317TIP3    H2 6958   4.648   4.344   1.706  0.6450  1.0499 -0.9998
 2318TIP3   OH2 6959   2.645   5.086   4.074 -0.1953  0.7106 -0.4366
 2318TIP3    H1 6960   2.684   5.138   4.005  0.2769  1.8734  0.6618
 2318TIP3    H2 6961   2.551   5.104   4.069 -0.0858  1.3060 -0.3608
 2319TIP3   OH2 6962   2.169   2.197   0.151 -0.0789 -0.1898  0.2817
 2319TIP3    H1 6963   2.129   2.160   0.072 -1.1163  0.2597  0.5777
 2319TIP3    H2 6964   2.131   2.285   0.158 -1.5507 -0.9279  2.3465
 2320TIP3   OH2 6965   1.120   2.493   4.849 -0.4991  0.1616  0.0751
 2320TIP3    H1 6966   1.068   2.465   4.925 -0.9496 -0.6802 -0.5325
 2320TIP3    H2 6967   1.090   2.438   4.777  1.4465 -0.5683 -0.2366
 2321TIP3   OH2 6968   0.900   3.518   2.493  0.7896 -0.1726 -0.1862
 2321TIP3    H1 6969   0.932   3.450   2.553  0.9311  0.9867  1.1162
 2321TIP3    H2 6970   0.979   3.564   2.464  0.5976  0.5383  0.3621
 2322TIP3   OH2 6971   5.089   3.819   2.942 -0.0405 -0.1898  0.8586
 2322TIP3    H1 6972   5.007   3.842   2.986  0.7418  1.2993  1.6331
 2322TIP3    H2 6973   5.140   3.901   2.942  0.6750 -0.5652 -1.3447
 2323TIP3   OH2 6974   3.412   2.170   4.085  0.1166 -0.0029 -0.3427
 2323TIP3    H1 6975   3.490   2.114   4.080 -0.2773 -0.5993  0.0630
 2323TIP3    H2 6976   3.369   2.159   4.000  1.0698  1.2418 -1.0253
 2324TIP3   OH2 6977   1.036   5.013   4.939  0.2320  0.2655  0.1444
 2324TIP3    H1 6978   1.002   5.062   5.014  0.8954  0.1187  0.5411
 2324TIP3    H2 6979   1.034   4.922   4.968  0.2950  0.1887 -0.0953
 2325TIP3   OH2 6980   2.278   4.033   2.187 -0.0367  0.4528 -0.2260
 2325TIP3    H1 6981   2.369   4.003   2.183 -0.2115  0.0412 -1.4059
 2325TIP3    H2 6982   2.283   4.127   2.169  0.5287  1.3405  3.6308
 2326TIP3   OH2 6983   0.814   2.323   2.974  0.5257  0.2342 -0.5200
 2326TIP3    H1 6984   0.878   2.277   3.028 -0.0077 -0.3153 -0.3327
 2326TIP3    H2 6985   0.767   2.253   2.929 -1.0584  0.5069  0.6212
 2327TIP3   OH2 6986   1.284   4.098   4.140  0.2007 -0.8134  0.3279
 2327TIP3    H1 6987   1.363   4.071   4.094  0.2503 -1.0478  0.5502
 2327TIP3    H2 6988   1.287   4.194   4.137  1.5098 -0.7461  2.0083
 2328TIP3   OH2 6989   4.954   4.880   3.951  0.1341  0.2260 -0.2151
 2328TIP3    H1 6990   4.946   4.787   3.973 -1.2408  0.6144  1.0823
 2328TIP3    H2 6991   4.896   4.892   3.875  0.0953  0.0823 -0.2079
 2329TIP3   OH2 6992   0.226   1.171   4.788  0.0672  0.0242  0.6469
 2329TIP3    H1 6993   0.296   1.235   4.795  1.1269 -1.2452  3.0967
 2329TIP3    H2 6994   0.236   1.116   4.866 -1.6425 -2.2437 -0.5987
 2330TIP3   OH2 6995   3.382   3.328   4.306 -0.1929 -0.3974 -0.1842
 2330TIP3    H1 6996   3.287   3.328   4.298 -0.1175 -0.9071 -1.1569
 2330TIP3    H2 6997   3.399   3.277   4.386 -0.7773  0.9362  0.8253
 2331TIP3   OH2 6998   2.584   4.952   3.186 -0.3235 -0.5191  0.2924
 2331TIP3    H1 6999   2.552   5.037   3.215 -0.6771  0.0219 -1.5211
 2331TIP3    H2 7000   2.641   4.972   3.112  1.5577 -1.7256  1.3461
 2332TIP3   OH2 7001   2.085   5.259   0.180  0.2781 -0.3755 -0.3061
 2332TIP3    H1 7002   2.179   5.257   0.200  0.1704 -0.3392  0.2196
 2332TIP3    H2 7003   2.081   5.258   0.084  0.9381  2.8265 -0.5008
 2333TIP3   OH2 7004   6.085   3.799   4.836  0.1439  0.1502 -0.3759
 2333TIP3    H1 7005   6.089   3.742   4.913  1.3060 -0.5419 -0.9218
 2333TIP3    H2 7006   6.007   3.772   4.789  0.5294 -0.8275 -0.4804
 2334TIP3   OH2 7007   5.556   0.769   4.224 -0.0251  0.1788  0.1858
 2334TIP3    H1 7008   5.467   0.746   4.198  0.5805 -1.2382 -0.7950
 2334TIP3    H2 7009   5.591   0.817   4.149  0.5508 -0.7109 -0.1302
 2335TIP3   OH2 7010   3.330   4.470   0.733  0.3447 -0.5899  0.3502
 2335TIP3    H1 7011   3.295   4.549   0.774  1.7446 -0.2613  0.9534
 2335TIP3    H2 7012   3.424   4.483   0.732  0.4282 -0.8502 -2.4634
 2336TIP3   OH2 7013   4.768   5.431   4.365 -0.0239  0.2404 -0.5300
 2336TIP3    H1 7014   4.819   5.511   4.377  0.1963  0.1862 -1.1064
 2336TIP3    H2 7015   4.716   5.446   4.287  2.6398 -1.4890 -2.8203
 2337TIP3   OH2 7016   6.309   3.882   2.172  0.2605  0.0265  0.4269
 2337TIP3    H1 7017   6.261   3.865   2.253  0.9303 -1.8078  0.5050
 2337TIP3    H2 7018   6.398   3.850   2.190  1.1216  1.9275 -0.2140
 2338TIP3   OH2 7019   2.195   0.772   1.643  0.1541  0.1806 -0.6923
 2338TIP3    H1 7020   2.218   0.735   1.728 -0.3893  0.9977 -0.1840
 2338TIP3    H2 7021   2.134   0.709   1.605 -0.4564  0.3514 -0.0050
 2339TIP3   OH2 7022   5.158   2.630   3.940 -0.1302 -0.0042 -0.3313
 2339TIP3    H1 7023   5.064   2.619   3.949 -0.4783  1.6128 -1.5772
 2339TIP3    H2 7024   5.193   2.541   3.941 -1.7034 -0.6379 -0.2049
 2340TIP3   OH2 7025   0.734   1.726   4.252 -0.2083  0.5473 -0.3026
 2340TIP3    H1 7026   0.657   1.677   4.222 -0.9104  2.5058 -1.9234
 2340TIP3    H2 7027   0.760   1.779   4.177 -0.6784  4.0685  1.7625
 2341TIP3   OH2 7028   1.106   5.422   3.003  0.2390 -0.2370 -0.5384
 2341TIP3    H1 7029   1.107   5.492   2.937  0.0618  1.9103  1.6221
 2341TIP3    H2 7030   1.021   5.429   3.045  1.5588  0.7998  2.2008
 2342TIP3   OH2 7031   0.314   3.910   0.301 -0.1784 -0.0679 -0.0905
 2342TIP3    H1 7032   0.344   3.822   0.282 -0.1081  0.1872 -1.3009
 2342TIP3    H2 7033   0.242   3.924   0.238  0.0703  0.8583 -0.1872
 2343TIP3   OH2 7034   5.472   0.950   5.149  0.0981 -0.5584 -0.2051
 2343TIP3    H1 7035   5.417   1.007   5.096  0.4183 -0.0765 -0.0234
 2343TIP3    H2 7036   5.410   0.889   5.190 -0.1525 -0.9103 -1.0873
 2344TIP3   OH2 7037   4.536   3.310   0.248  0.0599  0.6108 -0.7120
 2344TIP3    H1 7038   4.575   3.240   0.196  1.3995  0.4996  0.3810
 2344TIP3    H2 7039   4.487   3.362   0.185  3.0951  1.5516 -2.5121
 2345TIP3   OH2 7040   0.453   5.976   1.239  0.0287  0.1252 -0.3994
 2345TIP3    H1 7041   0.510   5.983   1.163 -0.2819 -2.7024 -1.0322
 2345TIP3    H2 7042   0.365   5.992   1.204  0.1200  1.4840 -0.0464
 2346TIP3   OH2 7043   4.437   2.077   3.968 -0.0157 -0.1887  0.2073
 2346TIP3    H1 7044   4.488   2.035   3.899 -0.0077  1.2568 -0.7041
 2346TIP3    H2 7045   4.467   2.036   4.049  1.2391 -0.6705 -0.4836
 2347TIP3   OH2 7046   5.753   0.806   0.202  0.0921 -0.2824  0.0332
 2347TIP3    H1 7047   5.810   0.881   0.217  0.1062 -0.5169  1.2680
 2347TIP3    H2 7048   5.810   0.730   0.215 -0.4723 -0.5181  1.3616
 2348TIP3   OH2 7049   2.816   0.079   3.830  0.3271 -0.0001  0.1921
 2348TIP3    H1 7050   2.771   0.037   3.757 -0.4710 -0.5355  0.9747
 2348TIP3    H2 7051   2.749   0.134   3.871  0.3493 -0.8599  1.4152
 2349TIP3   OH2 7052   1.019   1.514   2.640 -0.7009  0.2528  0.0433
 2349TIP3    H1 7053   0.951   1.498   2.574 -0.9345  0.5871  0.2011
 2349TIP3    H2 7054   1.046   1.426   2.668  0.4343  0.0586 -1.5447
 2350TIP3   OH2 7055   2.286   5.983   4.814  0.2193 -0.0868 -0.0709
 2350TIP3    H1 7056   2.247   5.927   4.880  0.9509 -2.6625 -1.6676
 2350TIP3    H2 7057   2.233   5.968   4.735  0.4635  1.4788 -0.5789
 2351TIP3   OH2 7058   3.232   0.883   0.457 -0.1325 -0.1362  0.4856
 2351TIP3    H1 7059   3.138   0.893   0.446  0.0458  3.9378  1.1613
 2351TIP3    H2 7060   3.244   0.866   0.551 -0.1531  1.5248  0.8092
 2352TIP3   OH2 7061   5.754   5.710   1.378  0.4004  0.0245  0.5973
 2352TIP3    H1 7062   5.717   5.661   1.305  0.2304 -0.5111  1.0286
 2352TIP3    H2 7063   5.838   5.741   1.346 -0.5519  1.5589 -0.5220
 2353TIP3   OH2 7064   5.539   2.374   0.481  0.4018 -0.1615  0.1685
 2353TIP3    H1 7065   5.516   2.344   0.393 -0.6921  3.0033 -0.7561
 2353TIP3    H2 7066   5.633   2.358   0.488  0.2539 -1.8352 -0.9247
 2354TIP3   OH2 7067   3.999   5.933   3.767 -0.2653  0.2479  0.0483
 2354TIP3    H1 7068   3.930   5.889   3.717 -1.4708  0.9456  1.0339
 2354TIP3    H2 7069   3.975   6.026   3.764  1.2095  0.6402 -0.4424
 2355TIP3   OH2 7070   0.935   1.986   4.376 -0.0430 -0.7781 -0.1277
 2355TIP3    H1 7071   0.970   1.917   4.319 -0.5416 -1.6654  0.6072
 2355TIP3    H2 7072   1.005   2.051   4.381  0.5201 -1.3327 -0.6755
 2356TIP3   OH2 7073   5.554   3.252   0.827 -0.0841  0.1616  0.0465
 2356TIP3    H1 7074   5.531   3.320   0.764 -3.2444  0.1913  1.0736
 2356TIP3    H2 7075   5.534   3.290   0.913  1.2449 -0.9372  0.8986
 2357TIP3   OH2 7076   0.170   0.677   1.893 -0.0367  0.3167 -0.2784
 2357TIP3    H1 7077   0.131   0.591   1.882 -1.7438  0.8385  1.2410
 2357TIP3    H2 7078   0.246   0.676   1.835 -0.2414 -2.0428 -0.6122
 2358TIP3   OH2 7079   3.899   1.093   3.571  0.5092  0.0234  0.4513
 2358TIP3    H1 7080   3.913   1.146   3.493  1.3714  1.1115  1.3087
 2358TIP3    H2 7081   3.884   1.157   3.641 -0.4938 -0.9308  1.1452
 2359TIP3   OH2 7082   4.433   0.032   0.684  0.3858  0.6171 -0.1718
 2359TIP3    H1 7083   4.458   0.038   0.776  0.3755  1.9717 -0.2320
 2359TIP3    H2 7084   4.470   0.111   0.644  0.9992 -0.3046 -1.4869
 2360TIP3   OH2 7085   1.630   4.934   4.378  0.0429 -0.2191  0.2112
 2360TIP3    H1 7086   1.566   5.005   4.379  1.1397  0.7834  1.1234
 2360TIP3    H2 7087   1.714   4.977   4.363  0.5047 -1.5594 -1.4728
 2361TIP3   OH2 7088   1.338   1.379   0.398 -0.5711 -0.2498  0.4063
 2361TIP3    H1 7089   1.337   1.427   0.481  1.1661 -0.0743  0.3488
 2361TIP3    H2 7090   1.364   1.290   0.423 -0.6922 -0.3630  0.1252
 2362TIP3   OH2 7091   2.653   2.737   1.280  0.2923  0.2926  0.5092
 2362TIP3    H1 7092   2.626   2.820   1.318  1.7741  1.6165 -1.1853
 2362TIP3    H2 7093   2.586   2.718   1.214 -0.3336 -0.1831  1.2519
 2363TIP3   OH2 7094   1.471   0.414   0.448  0.2352 -0.0894 -0.1196
 2363TIP3    H1 7095   1.425   0.336   0.478  1.7799 -0.8853  0.3030
 2363TIP3    H2 7096   1.547   0.380   0.401  1.3836  1.1530  0.7765
 2364TIP3   OH2 7097   5.468   4.820   5.071  0.1012 -0.5074 -0.0167
 2364TIP3    H1 7098   5.459   4.743   5.127 -0.3150 -1.2761 -1.0994
 2364TIP3    H2 7099   5.561   4.844   5.076  1.2285 -3.5940 -2.7952
 2365TIP3   OH2 7100   4.696   3.002   1.477  0.0064 -0.5033  0.3713
 2365TIP3    H1 7101   4.647   3.057   1.537  2.2484  1.4412  0.5565
 2365TIP3    H2 7102   4.728   2.930   1.531  0.5517  0.2995  1.1424
 2366TIP3   OH2 7103   4.263   0.291   1.752  0.2330 -0.0566 -0.1569
 2366TIP3    H1 7104   4.238   0.376   1.716 -1.4380 -0.3588  0.2050
 2366TIP3    H2 7105   4.352   0.304   1.784 -0.7191  2.2485  1.9166
 2367TIP3   OH2 7106   0.828   4.380   5.128  0.5251 -0.5709 -0.0812
 2367TIP3    H1 7107   0.794   4.297   5.095  1.1663 -1.1255  0.6259
 2367TIP3    H2 7108   0.912   4.391   5.084 -0.4105  0.7042 -1.6787
 2368TIP3   OH2 7109   3.773   3.688   0.828  0.2283 -0.1001 -0.1903
 2368TIP3    H1 7110   3.684   3.722   0.828 -0.8443 -2.3926  2.9699
 2368TIP3    H2 7111   3.829   3.765   0.826 -1.8815  1.5383  0.7517
 2369TIP3   OH2 7112   4.808   1.597   2.701  0.3345  0.1663 -0.4238
 2369TIP3    H1 7113   4.729   1.544   2.712  0.4514 -0.2511 -1.4469
 2369TIP3    H2 7114   4.827   1.631   2.788  0.4638 -1.7590  0.3346
 2370TIP3   OH2 7115   2.843   5.252   2.368 -0.6033  1.0539  0.4375
 2370TIP3    H1 7116   2.802   5.199   2.436  0.5452 -4.0101 -2.2926
 2370TIP3    H2 7117   2.776   5.260   2.300  0.9020 -2.7002 -1.7899
 2371TIP3   OH2 7118   4.956   4.365   1.254  0.1689  0.1276 -0.0243
 2371TIP3    H1 7119   4.925   4.391   1.167 -0.2705 -1.6629 -0.4311
 2371TIP3    H2 7120   4.876   4.343   1.302  0.5386 -0.6949  0.2258
 2372TIP3   OH2 7121   4.910   0.432   1.569  0.2020 -0.0304  0.6046
 2372TIP3    H1 7122   4.856   0.511   1.577 -1.4854 -1.1094  0.4479
 2372TIP3    H2 7123   4.858   0.364   1.611  1.4411 -1.1430  0.3768
 2373TIP3   OH2 7124   3.971   1.260   3.778 -0.0967 -0.2202  0.1247
 2373TIP3    H1 7125   4.042   1.295   3.724 -1.8229  0.1289 -2.0946
 2373TIP3    H2 7126   3.908   1.332   3.784 -1.0766 -1.0741  0.4839
 2374TIP3   OH2 7127   1.837   3.975   2.515  0.5608  0.1110 -0.4112
 2374TIP3    H1 7128   1.782   4.009   2.444 -0.6176  0.4602  0.6530
 2374TIP3    H2 7129   1.916   4.029   2.512 -0.2379  1.2992 -0.3267
 2375TIP3   OH2 7130   4.495   0.752   2.977  0.2225 -0.2991  0.1938
 2375TIP3    H1 7131   4.428   0.819   2.993  0.3323 -0.1708  0.1133
 2375TIP3    H2 7132   4.446   0.679   2.938 -0.1870 -0.9252  1.8079
 2376TIP3   OH2 7133   1.578   0.573   2.021  0.3049 -0.1509  0.0561
 2376TIP3    H1 7134   1.545   0.645   1.967  0.9868  0.4429  0.4124
 2376TIP3    H2 7135   1.608   0.616   2.101  2.0053 -0.6420 -0.2751
 2377TIP3   OH2 7136   2.142   0.307   3.910 -0.1903 -0.4015  0.5661
 2377TIP3    H1 7137   2.203   0.244   3.948 -0.7715 -0.9640  0.5856
 2377TIP3    H2 7138   2.138   0.379   3.974 -1.0682 -1.2834  1.5318
 2378TIP3   OH2 7139   5.360   3.546   1.964  0.6272  0.0040  0.0072
 2378TIP3    H1 7140   5.325   3.632   1.983 -0.4296 -0.4928  0.3943
 2378TIP3    H2 7141   5.446   3.545   2.005 -0.6377 -0.2365  2.8956
 2379TIP3   OH2 7142   2.351   5.509   0.516 -0.3178 -0.3216  0.0632
 2379TIP3    H1 7143   2.416   5.528   0.584 -0.7984  0.4917  0.2981
 2379TIP3    H2 7144   2.289   5.450   0.557 -0.8898  0.5718  0.4974
 2380TIP3   OH2 7145   1.388   2.417   3.318 -0.6927  0.2357 -0.0971
 2380TIP3    H1 7146   1.314   2.453   3.269 -0.7590  1.0685  0.5789
 2380TIP3    H2 7147   1.368   2.437   3.409  0.8903  1.5208  0.0121
 2381TIP3   OH2 7148   4.504   4.884   5.151  0.0554 -0.7437 -0.0887
 2381TIP3    H1 7149   4.461   4.832   5.083  0.3136  0.6718 -1.3768
 2381TIP3    H2 7150   4.521   4.969   5.109  1.4167 -0.2834  1.3292
 2382TIP3   OH2 7151   3.801   0.107   3.190  0.5108  0.4839  0.3277
 2382TIP3    H1 7152   3.882   0.117   3.241  0.1820 -0.3915  1.0512
 2382TIP3    H2 7153   3.756   0.033   3.231  0.3709 -0.4423 -1.4205
 2383TIP3   OH2 7154   0.557   2.832   2.567  0.1359  0.4507 -0.3970
 2383TIP3    H1 7155   0.608   2.776   2.508 -0.6825  1.1130 -1.7991
 2383TIP3    H2 7156   0.466   2.813   2.545 -0.1708  2.2542 -0.8800
 2384TIP3   OH2 7157   4.597   4.419   1.938  0.0561 -0.1775  0.1849
 2384TIP3    H1 7158   4.660   4.482   1.973 -0.8079 -0.4418  2.3695
 2384TIP3    H2 7159   4.632   4.334   1.964 -0.9201 -0.3506  1.0156
 2385TIP3   OH2 7160   5.408   1.222   3.430 -0.2003  0.1336 -0.2196
 2385TIP3    H1 7161   5.332   1.201   3.484 -1.2219  1.7461 -0.9635
 2385TIP3    H2 7162   5.415   1.148   3.369  0.4874 -1.3155  1.5176
 2386TIP3   OH2 7163   5.800   3.620   2.570 -0.6528 -0.4500  0.4258
 2386TIP3    H1 7164   5.724   3.653   2.619 -0.4194 -2.3931  2.2407
 2386TIP3    H2 7165   5.798   3.526   2.585  1.3725 -0.7022 -0.6354
 2387TIP3   OH2 7166   1.592   5.068   2.727 -0.5482 -0.3555 -0.1741
 2387TIP3    H1 7167   1.634   5.139   2.776 -0.9924  0.2887 -0.7109
 2387TIP3    H2 7168   1.500   5.073   2.751 -0.7134 -0.2491 -0.7952
 2388TIP3   OH2 7169   4.470   1.838   1.358 -0.3208  0.3516 -0.5314
 2388TIP3    H1 7170   4.386   1.831   1.403 -0.4203 -0.9279 -0.8523
 2388TIP3    H2 7171   4.459   1.910   1.296 -1.3421 -0.0695 -0.8623
 2389TIP3   OH2 7172   0.989   5.619   4.412 -0.0822  0.2078 -0.3318
 2389TIP3    H1 7173   0.934   5.697   4.406  0.5603  1.3005  4.3014
 2389TIP3    H2 7174   0.945   5.555   4.357 -2.3876  2.8571 -1.8438
 2390TIP3   OH2 7175   1.287   5.771   1.805  0.4496 -0.5861 -0.1012
 2390TIP3    H1 7176   1.306   5.820   1.725 -1.7599  1.0059  0.2662
 2390TIP3    H2 7177   1.231   5.699   1.776  0.4032 -0.5438 -0.1178
 2391TIP3   OH2 7178   5.816   2.178   1.160 -0.7886  0.0801 -0.1560
 2391TIP3    H1 7179   5.902   2.138   1.172 -0.4473 -0.7336 -3.9656
 2391TIP3    H2 7180   5.754   2.106   1.164 -1.0047  0.2738  0.0425
 2392TIP3   OH2 7181   5.147   1.940   0.681 -0.5645 -0.4004 -0.3362
 2392TIP3    H1 7182   5.163   1.973   0.770 -0.4202  0.2458 -0.5953
 2392TIP3    H2 7183   5.058   1.969   0.661 -1.2932 -2.0878  0.2621
 2393TIP3   OH2 7184   3.242   3.442   1.971  0.1791 -0.4015 -0.9788
 2393TIP3    H1 7185   3.218   3.357   2.008 -3.2387  0.7185 -0.2453
 2393TIP3    H2 7186   3.281   3.490   2.044  2.3656 -1.3444 -1.4630
 2394TIP3   OH2 7187   3.911   2.864   3.357 -0.4064  0.0060 -0.2636
 2394TIP3    H1 7188   3.983   2.861   3.420 -2.0359 -3.5593  1.7022
 2394TIP3    H2 7189   3.950   2.833   3.275  0.5976 -0.7588  0.4699
 2395TIP3   OH2 7190   3.897   5.427   3.374  0.3124  0.2373  0.3551
 2395TIP3    H1 7191   3.880   5.347   3.425 -0.0822  0.5277  0.6826
 2395TIP3    H2 7192   3.832   5.424   3.303  0.3267  0.2430  0.3417
 2396TIP3   OH2 7193   3.182   4.845   4.181 -0.1334  0.0616 -0.0133
 2396TIP3    H1 7194   3.088   4.842   4.197 -0.2166 -1.2899 -0.6357
 2396TIP3    H2 7195   3.217   4.770   4.228  0.5790  0.2933 -0.1586
 2397TIP3   OH2 7196   1.076   3.045   4.033  0.0968 -0.4511 -0.0788
 2397TIP3    H1 7197   1.140   3.107   3.998  1.2747 -1.1346  0.8062
 2397TIP3    H2 7198   1.038   3.090   4.109 -0.7708  0.1016 -0.8197
 2398TIP3   OH2 7199   4.759   5.861   4.676  0.4529 -0.2936 -0.4425
 2398TIP3    H1 7200   4.706   5.799   4.727  1.0506  0.9309  1.7855
 2398TIP3    H2 7201   4.701   5.892   4.608 -1.5287  0.4696  1.4917
 2399TIP3   OH2 7202   0.160   1.939   1.341 -0.6136 -0.1398 -0.6887
 2399TIP3    H1 7203   0.231   1.977   1.288 -0.0136 -0.6467 -0.2575
 2399TIP3    H2 7204   0.205   1.897   1.414 -1.4743  1.5545  0.8996
 2400TIP3   OH2 7205   3.512   0.804   2.552  0.3112 -0.1406 -0.2622
 2400TIP3    H1 7206   3.476   0.752   2.624  1.2365  0.2457  0.4991
 2400TIP3    H2 7207   3.603   0.819   2.576  0.1124  1.6983 -0.5446
 2401TIP3   OH2 7208   5.067   2.821   2.495  0.2697  0.5517 -0.3330
 2401TIP3    H1 7209   5.009   2.775   2.435  1.5994 -1.7015 -0.0037
 2401TIP3    H2 7210   5.062   2.772   2.577  0.9443  1.6330  0.3929
 2402TIP3   OH2 7211   1.099   4.767   1.505 -0.9943 -0.3496  0.2693
 2402TIP3    H1 7212   1.057   4.743   1.422 -2.3755 -1.3151  1.2112
 2402TIP3    H2 7213   1.134   4.684   1.538 -1.0516 -0.0874  0.9854
 2403TIP3   OH2 7214   4.871   1.019   1.506 -0.2877 -0.5195 -0.5819
 2403TIP3    H1 7215   4.934   1.015   1.434 -0.1772 -0.0735 -0.5125
 2403TIP3    H2 7216   4.787   0.995   1.466 -0.2942  0.0912 -0.9424
 2404TIP3   OH2 7217   5.621   1.719   4.075 -0.0563 -0.0368 -0.3953
 2404TIP3    H1 7218   5.671   1.638   4.064  1.4704  0.7999  0.0766
 2404TIP3    H2 7219   5.606   1.750   3.986 -0.3879 -0.6724 -0.5663
 2405TIP3   OH2 7220   0.453   2.001   1.333 -0.1186 -0.5301  0.7245
 2405TIP3    H1 7221   0.483   1.914   1.360 -2.2496 -1.6860 -0.3238
 2405TIP3    H2 7222   0.416   1.987   1.246  0.7598  1.7520 -0.0719
 2406TIP3   OH2 7223   5.410   2.956   3.730  0.2380  0.0196  0.3045
 2406TIP3    H1 7224   5.435   2.902   3.805  0.0845  0.6632  0.8285
 2406TIP3    H2 7225   5.409   2.895   3.656  0.1975 -0.6663  0.8555
 2407TIP3   OH2 7226   1.306   3.671   4.549  0.0253  0.3022  0.2045
 2407TIP3    H1 7227   1.218   3.688   4.585 -0.1561 -1.4059  0.6566
 2407TIP3    H2 7228   1.348   3.756   4.548 -2.3388  1.5783 -1.9854
 2408TIP3   OH2 7229   0.220   2.900   4.263  0.2429 -0.3946 -0.5475
 2408TIP3    H1 7230   0.127   2.887   4.281 -0.1251  2.7991  0.4406
 2408TIP3    H2 7231   0.226   2.900   4.167  0.0005 -4.3169 -0.7400
 2409TIP3   OH2 7232   4.861   2.554   1.612 -0.6641 -0.2199  0.4883
 2409TIP3    H1 7233   4.852   2.537   1.706 -0.1714 -2.1101  0.2536
 2409TIP3    H2 7234   4.784   2.513   1.573 -0.1980 -0.6305 -0.0182
 2410TIP3   OH2 7235   3.699   4.998   4.487 -0.0060  0.0280  0.4098
 2410TIP3    H1 7236   3.637   5.010   4.415  0.0765 -0.1736  0.3062
 2410TIP3    H2 7237   3.733   5.086   4.503 -0.3367  0.1458  0.4845
 2411TIP3   OH2 7238   3.510   3.006   0.696 -0.5225 -0.1744  0.0713
 2411TIP3    H1 7239   3.534   3.093   0.728 -3.2841  0.2967  1.1663
 2411TIP3    H2 7240   3.484   2.958   0.774 -0.4257 -1.5106 -0.6866
 2412TIP3   OH2 7241   3.262   5.636   3.688 -0.7339 -0.7902  0.2363
 2412TIP3    H1 7242   3.233   5.575   3.756  0.0308 -0.2062  1.1312
 2412TIP3    H2 7243   3.348   5.667   3.720 -0.0662 -0.9757 -1.3147
 2413TIP3   OH2 7244   0.051   1.135   4.412 -0.0140 -0.0512  0.1081
 2413TIP3    H1 7245   0.071   1.209   4.353  0.8079  0.2416  0.7303
 2413TIP3    H2 7246   0.046   1.175   4.499  0.4404 -0.7257  0.4512
 2414TIP3   OH2 7247   0.169   5.293   3.901 -0.2064  0.2305  0.1536
 2414TIP3    H1 7248   0.180   5.332   3.988  1.4141 -0.9373  0.5224
 2414TIP3    H2 7249   0.257   5.266   3.875 -0.9065 -1.0202 -1.1050
 2415TIP3   OH2 7250   2.471   1.585   3.949 -0.5896  0.2787 -0.1883
 2415TIP3    H1 7251   2.512   1.502   3.973  0.2869  0.6165 -0.4696
 2415TIP3    H2 7252   2.427   1.567   3.866 -0.0102  0.2126 -0.4831
 2416TIP3   OH2 7253   3.078   2.360   3.256 -0.0088  0.6152  0.2616
 2416TIP3    H1 7254   2.988   2.385   3.236 -1.1926 -1.7768  2.1133
 2416TIP3    H2 7255   3.100   2.295   3.189  0.2192  0.9093  0.0471
 2417TIP3   OH2 7256   0.876   2.546   0.411  0.0815  0.0476  0.1836
 2417TIP3    H1 7257   0.823   2.611   0.457  0.2307  1.0324 -0.9736
 2417TIP3    H2 7258   0.910   2.593   0.335  1.0514 -1.1093 -0.1263
 2418TIP3   OH2 7259   4.204   2.951   0.831 -0.1621 -0.2580  0.2268
 2418TIP3    H1 7260   4.262   2.876   0.821 -1.4522 -1.1341 -1.0524
 2418TIP3    H2 7261   4.190   2.982   0.741 -1.2482  0.2710  0.5683
 2419TIP3   OH2 7262   4.183   1.805   3.449 -0.1217  0.6510  0.3827
 2419TIP3    H1 7263   4.238   1.858   3.391  0.0832  0.9436  0.8436
 2419TIP3    H2 7264   4.192   1.716   3.415 -1.3270  1.0359 -1.0867
 2420TIP3   OH2 7265   3.002   4.798   0.632  0.5559  0.1812 -0.2799
 2420TIP3    H1 7266   3.023   4.891   0.626 -0.8674  0.5572  0.1666
 2420TIP3    H2 7267   2.984   4.772   0.542  1.6913  0.1260 -0.5127
 2421TIP3   OH2 7268   6.124   2.461   3.150  0.3503 -0.7721 -0.4391
 2421TIP3    H1 7269   6.208   2.488   3.187 -0.2643  0.7530 -0.0844
 2421TIP3    H2 7270   6.146   2.427   3.063  1.5692 -2.4698  0.4452
 2422TIP3   OH2 7271   3.686   3.100   0.208  0.0297  0.0726  0.4649
 2422TIP3    H1 7272   3.640   3.022   0.176 -0.9438  1.1471 -0.8967
 2422TIP3    H2 7273   3.776   3.090   0.177  0.1585 -0.9572  1.1411
 2423TIP3   OH2 7274   0.228   4.364   2.083 -0.2626  0.0374 -0.4834
 2423TIP3    H1 7275   0.176   4.403   2.154  0.9236  0.9432 -0.0873
 2423TIP3    H2 7276   0.209   4.270   2.090 -1.0113  0.2284  0.3359
 2424TIP3   OH2 7277   2.724   3.424   4.408 -0.4579 -0.1508 -0.1783
 2424TIP3    H1 7278   2.690   3.341   4.442  0.9303 -0.9538 -0.6890
 2424TIP3    H2 7279   2.732   3.480   4.485 -1.5896 -0.4113  0.1468
 2425TIP3   OH2 7280   2.075   0.194   4.489  0.3301 -0.0352 -0.5994
 2425TIP3    H1 7281   2.050   0.126   4.427  1.6613 -1.7849  0.6776
 2425TIP3    H2 7282   2.165   0.217   4.466  0.7870 -0.5921  0.5486
 2426TIP3   OH2 7283   5.303   3.680   0.752  0.1764 -0.0966 -0.1497
 2426TIP3    H1 7284   5.372   3.743   0.773 -0.0275  0.0882 -0.0334
 2426TIP3    H2 7285   5.265   3.657   0.837  0.9700 -1.1995 -0.0789
 2427TIP3   OH2 7286   3.752   5.968   0.873 -0.3136 -0.0983 -0.1805
 2427TIP3    H1 7287   3.702   5.980   0.792  0.4597 -1.1176 -0.8293
 2427TIP3    H2 7288   3.745   5.875   0.891  1.1684 -0.2318 -0.1757
 2428TIP3   OH2 7289   6.235   5.544   0.183  0.2567 -0.0883  0.8816
 2428TIP3    H1 7290   6.293   5.505   0.249  0.7356 -1.3824 -0.2455
 2428TIP3    H2 7291   6.293   5.595   0.128 -0.2489  1.5877  1.8359
 2429TIP3   OH2 7292   2.979   4.938   4.897  0.3223 -0.0866  0.2402
 2429TIP3    H1 7293   3.017   4.865   4.945 -0.2911  0.2758  1.3151
 2429TIP3    H2 7294   2.905   4.966   4.951  0.4163  1.1888 -0.2653
 2430TIP3   OH2 7295   4.178   4.315   0.346 -0.3943  0.6462 -0.2194
 2430TIP3    H1 7296   4.218   4.391   0.304  0.6951 -1.2365 -2.8671
 2430TIP3    H2 7297   4.086   4.319   0.320  0.0207  0.1645 -1.8885
 2431TIP3   OH2 7298   5.450   4.861   2.028 -0.1310  0.2253 -0.1997
 2431TIP3    H1 7299   5.395   4.913   1.971 -1.3007 -1.3544 -0.5810
 2431TIP3    H2 7300   5.414   4.773   2.023  1.3706 -0.5102  0.9174
 2432TIP3   OH2 7301   3.229   0.652   2.965  0.4360 -0.6144 -0.2903
 2432TIP3    H1 7302   3.209   0.715   3.035 -0.2415 -0.4223 -0.6443
 2432TIP3    H2 7303   3.214   0.567   3.004 -0.2457 -0.4967 -0.2875
 2433TIP3   OH2 7304   0.208   0.304   3.277  1.0789 -0.3575 -0.5167
 2433TIP3    H1 7305   0.298   0.305   3.310  1.2213  2.5501 -0.7043
 2433TIP3    H2 7306   0.155   0.337   3.349  0.5061  0.0472 -1.1020
 2434TIP3   OH2 7307   4.893   1.992   1.110 -0.3374 -0.1153 -0.8487
 2434TIP3    H1 7308   4.801   1.967   1.122 -0.8258  1.4541 -1.0438
 2434TIP3    H2 7309   4.919   2.031   1.194  0.1611 -0.5472 -0.7953
 2435TIP3   OH2 7310   5.402   0.883   0.406 -0.9027 -0.8307  0.2303
 2435TIP3    H1 7311   5.447   0.963   0.376 -3.1427 -0.0689 -1.3183
 2435TIP3    H2 7312   5.453   0.812   0.367 -0.7519 -0.0196 -1.1214
 2436TIP3   OH2 7313   3.736   4.952   0.517  0.1685 -0.1617  0.4830
 2436TIP3    H1 7314   3.705   4.989   0.434 -0.7536 -0.5030  0.6552
 2436TIP3    H2 7315   3.661   4.901   0.549  1.2328 -1.7794  0.4909
 2437TIP3   OH2 7316   4.669   3.409   2.768  0.1228  0.0175  0.2999
 2437TIP3    H1 7317   4.742   3.437   2.713 -1.2522  2.0061 -0.6036
 2437TIP3    H2 7318   4.598   3.389   2.706 -0.8371  0.3633  1.2558
 2438TIP3   OH2 7319   2.428   2.712   1.979 -0.1713  0.0879 -0.5548
 2438TIP3    H1 7320   2.404   2.624   1.949  0.2693 -0.2985  0.2030
 2438TIP3    H2 7321   2.509   2.699   2.028 -2.0072  0.3211  2.7537
 2439TIP3   OH2 7322   2.034   0.980   2.729  0.5357 -0.0421 -0.2863
 2439TIP3    H1 7323   2.013   0.954   2.818  0.4968  2.2791  0.4396
 2439TIP3    H2 7324   2.129   0.967   2.722  0.5011 -0.4610  0.0071
 2440TIP3   OH2 7325   6.260   4.153   4.681  0.5335 -0.8553 -0.4397
 2440TIP3    H1 7326   6.184   4.113   4.639 -0.6748 -0.0377  0.8689
 2440TIP3    H2 7327   6.276   4.098   4.758 -0.9751  0.9256  1.2251
 2441TIP3   OH2 7328   4.735   0.230   1.647 -0.4496 -0.7249 -0.1721
 2441TIP3    H1 7329   4.665   0.210   1.585 -1.2184  0.3224  0.3249
 2441TIP3    H2 7330   4.792   0.154   1.644 -0.5851 -0.8072 -1.9895
 2442TIP3   OH2 7331   1.923   4.566   1.888 -0.3331  0.4653  0.2383
 2442TIP3    H1 7332   1.929   4.653   1.926  1.9525  0.8825 -0.8665
 2442TIP3    H2 7333   2.007   4.555   1.842 -0.7232 -2.1588  0.0294
 2443TIP3   OH2 7334   1.515   2.814   4.411  0.1296  0.6739  0.3475
 2443TIP3    H1 7335   1.547   2.892   4.365 -0.7522  0.8949  0.0964
 2443TIP3    H2 7336   1.421   2.829   4.422 -0.2672 -0.8179 -0.6326
 2444TIP3   OH2 7337   4.946   2.989   4.895 -0.8298  0.3566  0.0477
 2444TIP3    H1 7338   4.987   3.062   4.940 -2.1031  0.8253  0.5000
 2444TIP3    H2 7339   4.905   3.028   4.818  1.5351 -0.4726 -1.7323
 2445TIP3   OH2 7340   2.826   0.894   2.434 -0.0841  0.1000  0.0275
 2445TIP3    H1 7341   2.778   0.944   2.369  0.5320 -0.0261 -0.5439
 2445TIP3    H2 7342   2.830   0.805   2.398 -2.4163 -0.7778  1.6973
 2446TIP3   OH2 7343   5.137   3.931   3.603  0.5645  0.0617 -0.3814
 2446TIP3    H1 7344   5.087   4.009   3.628  2.1448  0.7505  0.7765
 2446TIP3    H2 7345   5.223   3.965   3.580 -0.0418 -0.7433 -4.8556
 2447TIP3   OH2 7346   3.010   3.289   2.486 -0.0619 -0.0588  0.7448
 2447TIP3    H1 7347   3.000   3.197   2.510 -2.2386 -0.0183  0.2368
 2447TIP3    H2 7348   3.086   3.319   2.535  1.6171 -2.4750 -0.2041
 2448TIP3   OH2 7349   4.484   5.450   0.447  0.0507  0.2034  0.4527
 2448TIP3    H1 7350   4.424   5.410   0.510  0.5674  1.9971  2.2228
 2448TIP3    H2 7351   4.441   5.532   0.423  0.0483 -0.2801 -1.3149
 2449TIP3   OH2 7352   4.822   1.786   2.166 -0.1326  0.2495  0.7025
 2449TIP3    H1 7353   4.807   1.763   2.258 -1.2478  0.7256  0.6554
 2449TIP3    H2 7354   4.915   1.769   2.152 -0.2817 -1.3222  1.4852
 2450TIP3   OH2 7355   1.725   0.253   1.109  0.0916 -0.1169 -0.1873
 2450TIP3    H1 7356   1.642   0.249   1.061 -0.7827 -0.9812  1.3161
 2450TIP3    H2 7357   1.765   0.168   1.095  0.7613  0.3097 -0.9342
 2451TIP3   OH2 7358   0.140   2.078   0.200 -0.9162 -0.0284 -0.1049
 2451TIP3    H1 7359   0.142   2.064   0.105 -0.7921 -1.3519  0.0836
 2451TIP3    H2 7360   0.165   1.994   0.238  1.9247  1.2098  1.0654
 2452TIP3   OH2 7361   1.780   5.922   4.561  0.2044  0.1711  0.1851
 2452TIP3    H1 7362   1.760   5.981   4.633 -0.1837 -0.0390  0.2548
 2452TIP3    H2 7363   1.785   5.835   4.602 -0.4633 -0.0109 -0.1069
 2453TIP3   OH2 7364   5.695   2.169   2.444 -0.6202 -0.8186 -0.6693
 2453TIP3    H1 7365   5.738   2.085   2.426  2.1688  0.3164  0.1964
 2453TIP3    H2 7366   5.762   2.221   2.488 -3.8317 -0.0265  4.1052
 2454TIP3   OH2 7367   2.978   3.881   2.894 -0.6028 -0.2957 -0.2340
 2454TIP3    H1 7368   3.068   3.849   2.900 -0.6405 -0.2338  1.1603
 2454TIP3    H2 7369   2.982   3.968   2.934 -1.6473 -1.1723  1.9687
 2455TIP3   OH2 7370   0.284   2.306   3.962  0.1582  0.0746 -0.5714
 2455TIP3    H1 7371   0.365   2.317   4.012 -0.2829  1.2213 -0.0812
 2455TIP3    H2 7372   0.228   2.253   4.019  0.8982 -1.6063 -1.3340
 2456TIP3   OH2 7373   4.273   2.655   3.437 -0.2216 -0.1055 -0.0986
 2456TIP3    H1 7374   4.200   2.712   3.461 -1.4718 -0.6479 -2.3152
 2456TIP3    H2 7375   4.242   2.607   3.360  1.1989 -2.9367  0.9365
 2457TIP3   OH2 7376   5.929   2.985   4.454  0.1497  0.2492  0.0105
 2457TIP3    H1 7377   5.959   2.958   4.367  0.0765  0.7985 -0.1891
 2457TIP3    H2 7378   5.873   2.913   4.483 -1.8567  1.1213 -1.4608
 2458TIP3   OH2 7379   4.233   4.575   1.490  0.1642  0.3330  0.4000
 2458TIP3    H1 7380   4.151   4.581   1.539  0.7820  0.9221  1.3872
 2458TIP3    H2 7381   4.299   4.613   1.547  1.3756 -1.2917  0.1753
 2459TIP3   OH2 7382   2.651   3.542   4.186 -0.3298 -0.0949  0.3130
 2459TIP3    H1 7383   2.673   3.499   4.269 -0.8779 -0.2722  0.3751
 2459TIP3    H2 7384   2.558   3.565   4.196 -0.2477  0.3910 -0.0315
 2460TIP3   OH2 7385   0.154   3.678   5.070 -0.0330  0.7445 -0.3389
 2460TIP3    H1 7386   0.170   3.665   5.163 -3.7970 -0.1191  0.3797
 2460TIP3    H2 7387   0.197   3.603   5.028  1.1995  0.8076  0.7559
 2461TIP3   OH2 7388   4.215   3.401   4.160 -0.7562  0.4215 -0.1845
 2461TIP3    H1 7389   4.247   3.444   4.239 -0.5083  2.5221 -1.3750
 2461TIP3    H2 7390   4.147   3.459   4.126  0.7476  0.8242 -2.7724
 2462TIP3   OH2 7391   4.621   0.069   2.852 -0.0626 -0.1974  0.1096
 2462TIP3    H1 7392   4.631  -0.020   2.885 -0.5950 -0.1819  0.3107
 2462TIP3    H2 7393   4.697   0.082   2.795  0.9260 -0.2112  1.3630
 2463TIP3   OH2 7394   5.356   0.285   3.217  1.0356  0.2234  0.0286
 2463TIP3    H1 7395   5.310   0.271   3.300 -0.9214  1.2973 -0.7994
 2463TIP3    H2 7396   5.382   0.377   3.218 -1.1396  0.9500 -1.4518
 2464TIP3   OH2 7397   4.656   0.027   1.958 -0.6193  0.2329 -0.2912
 2464TIP3    H1 7398   4.740   0.057   1.991 -0.9520  0.1627  0.6567
 2464TIP3    H2 7399   4.661  -0.069   1.960 -0.7806  0.2274 -0.0634
 2465TIP3   OH2 7400   3.069   4.683   1.241  0.6340 -0.3639 -0.5270
 2465TIP3    H1 7401   3.031   4.720   1.161 -1.6402 -1.1573  0.1259
 2465TIP3    H2 7402   3.035   4.738   1.312  2.3286  0.1056 -0.0306
 2466TIP3   OH2 7403   5.340   2.733   4.777 -0.5454  0.2506  0.4922
 2466TIP3    H1 7404   5.271   2.728   4.712  1.3156  0.0382 -1.5945
 2466TIP3    H2 7405   5.406   2.671   4.747  0.7861  0.7748  2.1330
 2467TIP3   OH2 7406   1.336   3.981   1.199  0.4504  0.0955 -0.3460
 2467TIP3    H1 7407   1.406   4.045   1.189 -0.4419  1.0450 -0.6418
 2467TIP3    H2 7408   1.304   3.965   1.110  0.0894 -0.1027 -0.1854
 2468TIP3   OH2 7409   4.531   4.401   4.022 -0.2622  0.2517  0.2225
 2468TIP3    H1 7410   4.443   4.438   4.036  0.0022  1.2100 -0.5322
 2468TIP3    H2 7411   4.590   4.475   4.037  0.3401 -0.0915 -0.4242
 2469TIP3   OH2 7412   5.551   3.016   2.184  0.1203  0.3209 -0.0750
 2469TIP3    H1 7413   5.501   2.935   2.190 -0.8783  0.8856 -0.4358
 2469TIP3    H2 7414   5.485   3.085   2.188  0.7822  1.0723 -1.4572
 2470TIP3   OH2 7415   0.599   2.645   4.259 -0.0070 -0.1260  0.1243
 2470TIP3    H1 7416   0.552   2.716   4.302  0.4872 -1.2775  2.8231
 2470TIP3    H2 7417   0.690   2.674   4.258  0.0535 -0.3054  0.3322
 2471TIP3   OH2 7418   2.408   2.877   3.376 -0.2407 -0.3785 -0.1534
 2471TIP3    H1 7419   2.411   2.823   3.455  0.3193  0.6509  0.5616
 2471TIP3    H2 7420   2.316   2.880   3.352 -0.6770  0.6577  1.4760
 2472TIP3   OH2 7421   3.465   0.584   4.558  0.7112  0.4282  0.5618
 2472TIP3    H1 7422   3.548   0.618   4.524  1.5541 -0.3577  1.7330
 2472TIP3    H2 7423   3.491   0.525   4.628 -0.8889  0.6759  1.4033
 2473TIP3   OH2 7424   3.866   3.028   4.993  0.6204 -0.7801 -0.1988
 2473TIP3    H1 7425   3.801   3.059   5.056  0.9259  0.3767 -0.4270
 2473TIP3    H2 7426   3.920   3.105   4.975  0.0443 -0.8316 -2.4847
 2474TIP3   OH2 7427   5.673   4.148   1.473  0.5770  0.2467 -0.1223
 2474TIP3    H1 7428   5.754   4.195   1.493  1.0645 -0.8349  0.5231
 2474TIP3    H2 7429   5.660   4.161   1.379  3.5834 -2.6492 -1.1409
 2475TIP3   OH2 7430   4.761   3.705   2.042 -0.2691  0.5299 -0.0425
 2475TIP3    H1 7431   4.682   3.749   2.010 -1.3524  0.5008  2.3173
 2475TIP3    H2 7432   4.830   3.770   2.032 -1.0131  1.2891 -0.3693
 2476TIP3   OH2 7433   1.943   2.921   5.070 -0.0632  0.7758  0.0550
 2476TIP3    H1 7434   2.017   2.951   5.019  0.1298  0.5390  0.1924
 2476TIP3    H2 7435   1.951   2.825   5.070 -0.1972  0.7640  0.3243
 2477TIP3   OH2 7436   3.247   3.155   3.074 -0.8686  1.2975 -0.2460
 2477TIP3    H1 7437   3.273   3.128   2.986 -0.7576  3.3133 -0.8748
 2477TIP3    H2 7438   3.214   3.075   3.115 -0.4103  0.2072 -1.9230
 2478TIP3   OH2 7439   5.074   1.673   4.244 -0.4407  0.3143  0.1695
 2478TIP3    H1 7440   4.997   1.616   4.250  0.1651 -0.5326  0.1480
 2478TIP3    H2 7441   5.131   1.630   4.181  0.8085 -0.0260  1.4652
 2479TIP3   OH2 7442   4.680   1.524   0.232  0.0198  0.3198  0.0325
 2479TIP3    H1 7443   4.641   1.456   0.176 -0.0711  0.4809 -0.1019
 2479TIP3    H2 7444   4.771   1.530   0.202  0.0594  0.1735  0.1243
 2480TIP3   OH2 7445   1.260   5.574   4.420 -0.0905 -0.2717  0.3579
 2480TIP3    H1 7446   1.266   5.539   4.331 -0.6364 -2.1380  1.0179
 2480TIP3    H2 7447   1.176   5.621   4.421  0.5431  0.9427 -0.4692
 2481TIP3   OH2 7448   3.571   4.038   2.177 -0.0810  0.3177  0.2191
 2481TIP3    H1 7449   3.552   3.945   2.192  0.5569  0.1070 -0.2070
 2481TIP3    H2 7450   3.486   4.078   2.161 -0.7023  0.3497  3.1758
 2482TIP3   OH2 7451   3.104   0.497   0.941  0.0466 -0.3386  0.2335
 2482TIP3    H1 7452   3.093   0.510   1.036  0.5541 -1.1485  0.4186
 2482TIP3    H2 7453   3.033   0.546   0.901  0.8232  1.4434  0.9487
 2483TIP3   OH2 7454   1.152   1.756   4.919  0.0847  0.2274  0.2457
 2483TIP3    H1 7455   1.071   1.758   4.869  0.4852  0.6137 -0.3996
 2483TIP3    H2 7456   1.200   1.681   4.885  0.1109  0.1491  0.4517
 2484TIP3   OH2 7457   3.363   4.809   1.497 -0.2903 -0.1124 -0.0580
 2484TIP3    H1 7458   3.422   4.881   1.522  0.3964 -0.5345 -0.4408
 2484TIP3    H2 7459   3.346   4.824   1.404 -0.1975 -0.4166 -0.1218
 2485TIP3   OH2 7460   2.641   3.745   0.039  0.4814  0.2859 -0.2346
 2485TIP3    H1 7461   2.656   3.807   0.111 -0.1439 -1.3320  1.3896
 2485TIP3    H2 7462   2.703   3.771  -0.029  2.7495  0.5372  1.7858
 2486TIP3   OH2 7463   4.088   1.527   3.683  0.3143  0.1085 -0.0265
 2486TIP3    H1 7464   4.179   1.548   3.705 -0.0505  1.4044  0.3293
 2486TIP3    H2 7465   4.036   1.571   3.750 -0.6367  0.5464 -1.0211
 2487TIP3   OH2 7466   2.443   3.449   0.776  0.3795  0.3040  0.3904
 2487TIP3    H1 7467   2.358   3.415   0.803  0.0801 -0.0332 -0.8804
 2487TIP3    H2 7468   2.422   3.517   0.712  1.0475 -1.1822 -1.5145
 2488TIP3   OH2 7469   5.732   1.856   1.130 -0.0417  0.2589 -0.2600
 2488TIP3    H1 7470   5.671   1.930   1.138  0.2657  0.3732  1.6899
 2488TIP3    H2 7471   5.677   1.779   1.146  0.0957  0.2796  0.3464
 2489TIP3   OH2 7472   4.269   0.724   4.636 -0.1125 -0.2240  0.2162
 2489TIP3    H1 7473   4.298   0.796   4.580 -1.5462  0.6258  0.5116
 2489TIP3    H2 7474   4.246   0.654   4.576 -0.1530  0.1144 -0.1641
 2490TIP3   OH2 7475   3.917   5.930   5.072  0.1640 -0.5877 -0.2234
 2490TIP3    H1 7476   3.964   6.012   5.052  0.1569 -0.4117  0.4604
 2490TIP3    H2 7477   3.951   5.903   5.157 -1.7232  0.1140  0.8085
 2491TIP3   OH2 7478   6.228   2.198   0.796  0.0025  0.1723 -0.7307
 2491TIP3    H1 7479   6.253   2.273   0.850  0.0885 -1.0157  0.9237
 2491TIP3    H2 7480   6.260   2.121   0.843 -0.5965 -0.9687 -2.0895
 2492TIP3   OH2 7481   4.365   5.531   0.770  0.2791  0.0879  0.0934
 2492TIP3    H1 7482   4.411   5.607   0.735 -0.4620  0.3093 -0.4249
 2492TIP3    H2 7483   4.426   5.458   0.757 -0.8256 -0.3548 -4.1219
 2493TIP3   OH2 7484   3.512   1.500   0.977 -0.3446 -0.0704  0.1963
 2493TIP3    H1 7485   3.583   1.532   0.921  0.5169  0.8098  1.7230
 2493TIP3    H2 7486   3.440   1.481   0.916  1.0855 -0.7466 -1.3700
 2494TIP3   OH2 7487   0.512   3.516   3.608  0.1553 -0.6244  0.1297
 2494TIP3    H1 7488   0.509   3.597   3.558  2.5193 -0.4778  0.0900
 2494TIP3    H2 7489   0.420   3.494   3.625 -0.5617  2.4285  0.7655
 2495TIP3   OH2 7490   5.624   0.474   1.100 -0.0548 -0.2168  0.5756
 2495TIP3    H1 7491   5.558   0.528   1.056  1.2160  1.3877  0.5729
 2495TIP3    H2 7492   5.578   0.392   1.119 -1.5426  0.1961 -0.9598
 2496TIP3   OH2 7493   4.262   0.306   0.458  0.2466 -0.2980  0.3219
 2496TIP3    H1 7494   4.215   0.245   0.400 -1.6878  1.5006 -0.0981
 2496TIP3    H2 7495   4.221   0.295   0.543  0.8993 -0.6191  0.5998
 2497TIP3   OH2 7496   2.632   3.803   1.511  0.6780  0.0218 -0.1846
 2497TIP3    H1 7497   2.680   3.721   1.527 -0.1721 -1.1361 -2.8869
 2497TIP3    H2 7498   2.542   3.774   1.494 -0.4128  1.8868  1.9497
 2498TIP3   OH2 7499   5.750   1.971   2.264 -0.5699 -0.5530  0.1241
 2498TIP3    H1 7500   5.747   1.889   2.312  0.8589 -1.6940 -1.6001
 2498TIP3    H2 7501   5.672   1.970   2.209 -0.5462 -0.7686  0.0951
 2499TIP3   OH2 7502   5.774   3.031   3.806 -0.5043  0.5197 -0.4232
 2499TIP3    H1 7503   5.856   2.983   3.794  0.6015  1.8712  1.2444
 2499TIP3    H2 7504   5.717   2.970   3.852 -1.1073 -1.0066 -2.9728
 2500TIP3   OH2 7505   0.713   0.411   1.880 -0.3296 -0.3457  0.1834
 2500TIP3    H1 7506   0.634   0.432   1.830 -0.6725  1.6972  1.5023
 2500TIP3    H2 7507   0.785   0.427   1.818 -0.7944  1.1420 -0.0064
 2501TIP3   OH2 7508   3.625   3.819   1.214  0.1549 -0.0963  0.0435
 2501TIP3    H1 7509   3.559   3.813   1.145  0.7497 -1.2973 -0.4487
 2501TIP3    H2 7510   3.673   3.736   1.209  1.2726  0.4764  0.8167
 2502TIP3   OH2 7511   4.407   4.623   3.485  0.2685  0.3967 -0.1014
 2502TIP3    H1 7512   4.329   4.638   3.539  0.7369  0.2914  0.6213
 2502TIP3    H2 7513   4.471   4.587   3.546  0.5591 -0.4780 -0.9012
 2503TIP3   OH2 7514   1.831   2.041   2.004 -0.6842 -0.4909  0.3668
 2503TIP3    H1 7515   1.897   2.008   1.943  0.1578 -1.3396  1.6874
 2503TIP3    H2 7516   1.861   2.130   2.025  1.2789 -1.5168  2.4784
 2504TIP3   OH2 7517   0.405   0.803   4.871 -0.6261  0.4599 -0.4495
 2504TIP3    H1 7518   0.320   0.760   4.858 -0.6417  0.3158  0.0760
 2504TIP3    H2 7519   0.463   0.764   4.806 -0.2300 -1.5190  1.0160
 2505TIP3   OH2 7520   2.185   5.719   2.412  0.0436  0.3945  0.2694
 2505TIP3    H1 7521   2.278   5.704   2.392 -0.6439 -0.0106 -3.3733
 2505TIP3    H2 7522   2.186   5.790   2.476  2.8699  2.3142 -1.6459
 2506TIP3   OH2 7523   5.778   5.944   2.388  0.0976  0.0107  0.0488
 2506TIP3    H1 7524   5.837   6.007   2.429 -0.3407 -0.0772  0.8501
 2506TIP3    H2 7525   5.792   5.863   2.438 -0.2979 -0.1549 -0.1043
 2507TIP3   OH2 7526   0.573   2.178   4.984  0.3382 -0.1371  0.9458
 2507TIP3    H1 7527   0.560   2.262   4.940 -1.3011 -0.9264 -0.1764
 2507TIP3    H2 7528   0.555   2.196   5.076  0.8302  0.9036  0.8564
 2508TIP3   OH2 7529   5.174   2.572   4.256 -0.2171  0.1171 -0.7254
 2508TIP3    H1 7530   5.097   2.564   4.311  1.5432 -0.5494  1.8280
 2508TIP3    H2 7531   5.208   2.483   4.249  2.0460  0.7235  1.0428
 2509TIP3   OH2 7532   2.189   3.210   1.744 -0.3286 -0.2487  0.3461
 2509TIP3    H1 7533   2.133   3.280   1.778 -0.4853 -0.3148  0.2259
 2509TIP3    H2 7534   2.278   3.242   1.758 -0.3832 -0.4295  1.1443
 2510TIP3   OH2 7535   6.106   2.829   0.974 -0.2993 -0.2386 -0.5329
 2510TIP3    H1 7536   6.146   2.850   1.059  1.1924 -1.0603 -0.9827
 2510TIP3    H2 7537   6.160   2.876   0.910 -0.1117 -1.2566 -1.1509
 2511TIP3   OH2 7538   2.728   4.334   0.660 -0.8533  0.4940 -0.0623
 2511TIP3    H1 7539   2.648   4.377   0.689 -1.3838 -1.5609  1.7937
 2511TIP3    H2 7540   2.704   4.242   0.650  1.2821 -0.2226  0.7225
 2512TIP3   OH2 7541   2.073   4.305   0.493  0.1729 -0.0867  0.0546
 2512TIP3    H1 7542   2.015   4.261   0.431  0.7055 -2.0416  0.8556
 2512TIP3    H2 7543   2.067   4.252   0.573  1.2620  1.0270  0.9121
 2513TIP3   OH2 7544   4.767   3.114   4.692  0.4966 -0.4777 -0.3192
 2513TIP3    H1 7545   4.687   3.106   4.744  2.4501  0.9650  3.2601
 2513TIP3    H2 7546   4.748   3.183   4.628 -1.0428 -0.0558  0.5479
 2514TIP3   OH2 7547   2.363   5.597   3.144  0.4179  0.1597  0.6649
 2514TIP3    H1 7548   2.364   5.535   3.216  1.8422  1.7578  2.1370
 2514TIP3    H2 7549   2.283   5.648   3.157  1.7866  1.9973  2.6626
 2515TIP3   OH2 7550   3.844   1.925   2.455  0.1808  0.0068 -0.1682
 2515TIP3    H1 7551   3.863   1.901   2.364  0.0559 -0.8288  0.0179
 2515TIP3    H2 7552   3.897   2.003   2.470  1.2569 -0.6238 -0.5454
 2516TIP3   OH2 7553   1.185   4.668   4.478 -0.2369  0.2115 -0.4662
 2516TIP3    H1 7554   1.165   4.739   4.538 -0.0289  0.4644 -0.6939
 2516TIP3    H2 7555   1.266   4.695   4.435 -0.1034 -0.2067 -0.4828
 2517TIP3   OH2 7556   0.220   1.733   5.085  0.1362  0.1210 -0.1457
 2517TIP3    H1 7557   0.211   1.711   5.178  1.9256 -0.3484 -0.0438
 2517TIP3    H2 7558   0.170   1.665   5.039 -1.2350  0.6815  0.4590
 2518TIP3   OH2 7559   3.848   5.970   2.682 -0.2233 -0.1094  0.5652
 2518TIP3    H1 7560   3.892   5.887   2.700  0.7697  0.6150  1.6318
 2518TIP3    H2 7561   3.918   6.036   2.686 -0.7734  0.6860 -1.4094
 2519TIP3   OH2 7562   2.077   3.376   3.461  0.0568 -0.4811  0.2215
 2519TIP3    H1 7563   2.108   3.443   3.400  0.0112  0.0545  0.7727
 2519TIP3    H2 7564   2.153   3.358   3.517 -0.7356  1.3547  2.0374
 2520TIP3   OH2 7565   2.201   5.091   2.856 -0.3137  0.1801  0.3407
 2520TIP3    H1 7566   2.192   5.082   2.762 -1.0905 -0.9220  0.5024
 2520TIP3    H2 7567   2.179   5.004   2.891  0.5584  0.3926  1.4941
 2521TIP3   OH2 7568   4.475   4.191   4.933  0.7146 -0.1139 -0.0556
 2521TIP3    H1 7569   4.498   4.104   4.965  1.2497  0.7060  1.9145
 2521TIP3    H2 7570   4.499   4.250   5.004 -3.1594  1.3125  0.2852
 2522TIP3   OH2 7571   5.915   4.743   2.253  0.0084 -0.2853  0.0508
 2522TIP3    H1 7572   5.830   4.767   2.288 -0.0752  1.1530 -1.0853
 2522TIP3    H2 7573   5.901   4.730   2.160  0.6185 -2.2035  0.1758
 2523TIP3   OH2 7574   0.790   4.048   1.257  0.2536  0.6109  0.6860
 2523TIP3    H1 7575   0.863   4.109   1.248  1.1203 -0.4678  0.1969
 2523TIP3    H2 7576   0.811   3.996   1.335  0.0303  0.2632  0.5159
 2524TIP3   OH2 7577   3.666   5.691   0.918  0.2807 -0.1864 -0.2586
 2524TIP3    H1 7578   3.605   5.708   0.847 -0.4298 -0.6126  0.2332
 2524TIP3    H2 7579   3.635   5.610   0.958 -0.1306  0.6892  1.3286
 2525TIP3   OH2 7580   3.242   4.806   2.129  0.0682  0.6199  0.3780
 2525TIP3    H1 7581   3.325   4.837   2.165  0.8988 -0.6537 -0.3740
 2525TIP3    H2 7582   3.194   4.886   2.108  0.8414  1.3801  1.3882
 2526TIP3   OH2 7583   2.390   5.893   1.717  0.5485 -0.0556  0.0356
 2526TIP3    H1 7584   2.425   5.974   1.754  0.8337 -0.6052  1.0184
 2526TIP3    H2 7585   2.410   5.826   1.783  2.8272 -1.4566 -1.8940
 2527TIP3   OH2 7586   1.412   0.699   1.537  0.1282  0.1322  0.8051
 2527TIP3    H1 7587   1.384   0.787   1.512  0.3565  0.3530  1.3113
 2527TIP3    H2 7588   1.503   0.694   1.509 -0.4260 -0.6263 -0.9439
 2528TIP3   OH2 7589   0.702   2.496   0.738  0.1213  0.1058 -0.2744
 2528TIP3    H1 7590   0.784   2.450   0.756  0.1908  1.0501  2.2533
 2528TIP3    H2 7591   0.676   2.532   0.823 -1.3025  2.4540 -1.6076
 2529TIP3   OH2 7592   3.759   4.023   5.045  0.1987  0.5061 -0.2918
 2529TIP3    H1 7593   3.760   3.977   5.130 -0.4248  0.5420 -0.2591
 2529TIP3    H2 7594   3.851   4.029   5.020  0.3304 -0.3241 -0.0535
 2530TIP3   OH2 7595   2.192   4.392   5.020 -0.3276  0.4142  0.3277
 2530TIP3    H1 7596   2.266   4.385   4.959 -1.9064 -0.4705 -1.6016
 2530TIP3    H2 7597   2.231   4.382   5.107  1.6744 -1.2214 -0.6881
 2531TIP3   OH2 7598   3.348   4.796   1.227  0.2849  0.2115 -0.2123
 2531TIP3    H1 7599   3.301   4.793   1.145  0.4035  1.0086 -0.3124
 2531TIP3    H2 7600   3.438   4.816   1.203  0.5324 -0.5406  0.0379
 2532TIP3   OH2 7601   3.215   3.450   3.800 -1.3379  0.3062 -0.7897
 2532TIP3    H1 7602   3.180   3.424   3.715 -2.0808  1.8643 -0.9828
 2532TIP3    H2 7603   3.157   3.520   3.830  0.4511  1.6389 -0.2430
 2533TIP3   OH2 7604   3.975   3.091   0.199 -0.3050 -0.2362  0.3373
 2533TIP3    H1 7605   4.002   3.078   0.290  1.5851 -1.4255 -0.3565
 2533TIP3    H2 7606   4.053   3.071   0.147 -1.3435  0.4148 -1.5606
 2534TIP3   OH2 7607   5.465   5.807   1.216 -0.8322 -0.1098  0.1412
 2534TIP3    H1 7608   5.519   5.729   1.229 -0.9196 -0.1077  0.5211
 2534TIP3    H2 7609   5.460   5.817   1.121  0.8315  0.5910  0.1013
 2535TIP3   OH2 7610   2.779   5.108   0.807 -0.6926 -0.1516  0.2675
 2535TIP3    H1 7611   2.736   5.193   0.809 -0.8835 -0.2427  0.0838
 2535TIP3    H2 7612   2.866   5.126   0.770 -0.5846  0.0263  0.6061
 2536TIP3   OH2 7613   1.648   3.677   1.882  0.2989 -0.3429 -0.5327
 2536TIP3    H1 7614   1.562   3.657   1.919  0.8546  0.0090  1.0563
 2536TIP3    H2 7615   1.634   3.681   1.788 -2.1127  2.8534 -0.1959
 2537TIP3   OH2 7616   6.199   5.777   4.139  0.7322 -0.0666 -0.3335
 2537TIP3    H1 7617   6.283   5.794   4.095  1.2033  0.3539  0.7046
 2537TIP3    H2 7618   6.222   5.728   4.218 -0.0552 -0.3562 -0.2722
 2538TIP3   OH2 7619   2.989   2.402   2.825 -0.5171 -0.4047  0.1140
 2538TIP3    H1 7620   2.930   2.477   2.825  0.7887  0.6599 -0.1410
 2538TIP3    H2 7621   3.031   2.404   2.739  0.8807 -0.3013  0.7584
 2539TIP3   OH2 7622   1.518   0.829   1.929  0.3726  0.1320 -0.6119
 2539TIP3    H1 7623   1.594   0.884   1.947  1.3106 -0.9726 -1.0991
 2539TIP3    H2 7624   1.473   0.873   1.857 -0.3662  1.6471  0.7333
 2540TIP3   OH2 7625   3.763   1.451   3.786  0.3445 -0.1162  0.2186
 2540TIP3    H1 7626   3.715   1.496   3.856  0.0105 -0.5130  0.2457
 2540TIP3    H2 7627   3.704   1.455   3.711  0.8865  0.7013 -0.1726
 2541TIP3   OH2 7628   5.473   2.007   4.636 -0.3436 -0.3756 -0.4125
 2541TIP3    H1 7629   5.512   2.022   4.722 -1.5638 -1.5668  0.3988
 2541TIP3    H2 7630   5.415   1.932   4.649 -0.0396 -1.0287 -2.4528
 2542TIP3   OH2 7631   3.920   0.398   3.243  0.3219  0.2694 -0.3649
 2542TIP3    H1 7632   3.926   0.318   3.295  2.2104 -0.0146 -0.9342
 2542TIP3    H2 7633   3.900   0.467   3.306 -0.1680 -0.4667  0.3007
 2543TIP3   OH2 7634   4.439   0.798   3.674 -0.1814 -0.1368  0.3835
 2543TIP3    H1 7635   4.351   0.827   3.701 -0.1510  1.3064 -0.9268
 2543TIP3    H2 7636   4.496   0.870   3.699  0.4629 -0.5757  0.1865
 2544TIP3   OH2 7637   1.477   4.792   2.958 -0.0106 -0.2325  0.5429
 2544TIP3    H1 7638   1.429   4.856   3.010  0.3436  0.5147 -0.0164
 2544TIP3    H2 7639   1.465   4.709   3.004 -2.7379 -0.3223 -0.1181
 2545TIP3   OH2 7640   2.144   2.327   1.810 -0.0747 -0.3874  0.0222
 2545TIP3    H1 7641   2.057   2.366   1.812 -0.5746 -1.4052 -0.8226
 2545TIP3    H2 7642   2.183   2.350   1.894 -0.2247  2.1309 -0.4921
 2546TIP3   OH2 7643   5.356   2.066   2.039  0.3320  0.0453 -0.4375
 2546TIP3    H1 7644   5.399   2.109   2.113 -0.5990 -0.9800  0.7357
 2546TIP3    H2 7645   5.278   2.025   2.077 -0.7296  0.3457 -2.1718
 2547TIP3   OH2 7646   1.392   4.717   1.376 -0.6822  0.0344 -0.3572
 2547TIP3    H1 7647   1.480   4.728   1.340 -1.6122  1.5684 -2.3774
 2547TIP3    H2 7648   1.406   4.708   1.471  1.5215  3.3282 -0.1781
 2548TIP3   OH2 7649   3.174   0.676   4.944 -0.5591  0.1155  0.4268
 2548TIP3    H1 7650   3.095   0.636   4.906 -0.4944 -0.4972  0.9136
 2548TIP3    H2 7651   3.176   0.644   5.034  0.1460  0.2777  0.4773
 2549TIP3   OH2 7652   2.671   3.318   4.040  0.2120  0.3481 -0.2329
 2549TIP3    H1 7653   2.585   3.341   4.005  0.0956  0.2946  0.0117
 2549TIP3    H2 7654   2.687   3.384   4.108 -0.6049 -0.8948  1.2264
 2550TIP3   OH2 7655   3.357   5.014   2.394 -0.3085 -0.5211  0.3711
 2550TIP3    H1 7656   3.414   5.023   2.471 -0.9978  0.7090  0.7660
 2550TIP3    H2 7657   3.268   5.014   2.430 -0.7418  2.0171 -0.5245
 2551TIP3   OH2 7658   2.639   0.300   2.192 -0.3975 -0.2665 -0.4522
 2551TIP3    H1 7659   2.689   0.219   2.206 -0.6483 -0.4448 -0.5828
 2551TIP3    H2 7660   2.572   0.299   2.260 -0.1867  0.0059 -0.2369
 2552TIP3   OH2 7661   3.978   0.914   2.146  0.4430  0.5478  0.5490
 2552TIP3    H1 7662   3.891   0.897   2.182 -0.6192 -0.6828 -2.2917
 2552TIP3    H2 7663   3.980   1.008   2.130  0.0561  0.7430  1.6291
 2553TIP3   OH2 7664   5.025   1.096   5.039 -0.1020 -0.0092  0.4507
 2553TIP3    H1 7665   5.116   1.075   5.018 -0.2477  0.1296 -0.3823
 2553TIP3    H2 7666   5.015   1.187   5.012 -0.0654  0.4733  2.0114
 2554TIP3   OH2 7667   3.983   1.063   1.197 -0.4555  0.3197 -0.1950
 2554TIP3    H1 7668   3.975   1.075   1.103  0.7620  0.9916 -0.2327
 2554TIP3    H2 7669   3.965   1.150   1.234  0.1964  0.3369  0.0997
 2555TIP3   OH2 7670   3.792   1.063   3.878  0.1117 -0.1982 -0.5937
 2555TIP3    H1 7671   3.807   1.074   3.972  0.7563  0.1227 -0.7306
 2555TIP3    H2 7672   3.864   1.109   3.836 -1.0270  1.0553 -1.2812
 2556TIP3   OH2 7673   4.609   5.833   3.573  0.1173 -0.0090 -0.0458
 2556TIP3    H1 7674   4.669   5.767   3.539 -0.6904 -0.4225 -0.6982
 2556TIP3    H2 7675   4.587   5.887   3.497 -0.7622 -0.2017  0.0601
 2557TIP3   OH2 7676   1.763   2.471   0.791  0.0975  0.3535  0.2486
 2557TIP3    H1 7677   1.722   2.438   0.711  0.4007  2.2330 -0.7390
 2557TIP3    H2 7678   1.836   2.412   0.807 -0.5349 -0.5997 -0.3151
 2558TIP3   OH2 7679   2.748   5.515   1.569  0.2832 -0.6255 -0.2630
 2558TIP3    H1 7680   2.834   5.554   1.585  0.1725 -0.9041  1.1010
 2558TIP3    H2 7681   2.724   5.546   1.481  0.7141  1.4101  0.2859
 2559TIP3   OH2 7682   3.369   0.406   4.380  0.4716  0.4029 -0.4115
 2559TIP3    H1 7683   3.390   0.490   4.420 -0.3741 -0.0906  1.1197
 2559TIP3    H2 7684   3.283   0.383   4.414  0.2196 -0.5864 -1.6474
 2560TIP3   OH2 7685   2.778   4.452   4.558 -0.1799  0.2964  0.2913
 2560TIP3    H1 7686   2.827   4.443   4.475 -0.9552 -1.5841 -0.0332
 2560TIP3    H2 7687   2.804   4.537   4.592 -0.6467  1.6438 -2.4273
 2561TIP3   OH2 7688   6.182   2.221   1.857  0.1448  0.4877  0.1516
 2561TIP3    H1 7689   6.241   2.273   1.911  2.1816 -2.0509  0.5484
 2561TIP3    H2 7690   6.201   2.249   1.767  0.2680  1.2990  0.4222
 2562TIP3   OH2 7691   1.336   5.470   1.913 -0.3309 -0.3091  0.1189
 2562TIP3    H1 7692   1.306   5.449   2.002 -1.1014 -2.1478 -0.5249
 2562TIP3    H2 7693   1.258   5.505   1.870  0.1700  1.0491  0.2850
 2563TIP3   OH2 7694   1.341   2.547   3.898 -0.1804  0.5724 -0.2685
 2563TIP3    H1 7695   1.286   2.490   3.951  0.4457  0.5838  0.4177
 2563TIP3    H2 7696   1.314   2.636   3.922  1.8944  0.6686  2.1117
 2564TIP3   OH2 7697   4.542   2.885   2.561  0.0362  0.1101  0.2380
 2564TIP3    H1 7698   4.636   2.866   2.559  0.3943  1.4605  1.8394
 2564TIP3    H2 7699   4.533   2.964   2.507  0.0326  0.6626  1.0270
 2565TIP3   OH2 7700   3.793   4.225   3.475 -0.2489  0.3148  0.0083
 2565TIP3    H1 7701   3.843   4.201   3.398 -1.5660 -2.3271 -0.1254
 2565TIP3    H2 7702   3.706   4.247   3.442 -1.0696 -1.6472  0.7379
 2566TIP3   OH2 7703   4.726   4.503   4.849 -0.5683  0.2228  0.5347
 2566TIP3    H1 7704   4.707   4.445   4.775 -3.2779  0.2689  1.0870
 2566TIP3    H2 7705   4.771   4.578   4.810 -1.8374  0.1941 -1.0856
 2567TIP3   OH2 7706   1.721   0.228   2.765  0.7072  0.3560 -0.1637
 2567TIP3    H1 7707   1.807   0.270   2.766  0.6365  0.4954  0.0194
 2567TIP3    H2 7708   1.707   0.204   2.673 -0.0117  2.2914 -0.5906
 2568TIP3   OH2 7709   0.364   0.607   3.547  0.2650 -0.5663 -0.4767
 2568TIP3    H1 7710   0.313   0.688   3.541 -2.0111 -1.8916  0.0810
 2568TIP3    H2 7711   0.367   0.588   3.641 -0.3441 -1.7990 -0.6951
 2569TIP3   OH2 7712   6.291   4.613   3.461  0.2066 -0.5263  0.3746
 2569TIP3    H1 7713   6.241   4.689   3.430  0.8709 -1.1301 -2.5265
 2569TIP3    H2 7714   6.383   4.640   3.451  0.4480 -1.5793 -0.4484
 2570TIP3   OH2 7715   3.911   1.184   3.055 -0.8931  0.0352 -0.2510
 2570TIP3    H1 7716   3.830   1.221   3.019 -0.5869  0.8404 -0.1355
 2570TIP3    H2 7717   3.891   1.092   3.067 -1.5123  0.0455 -1.0481
 2571TIP3   OH2 7718   5.145   3.614   2.777  0.1833  0.1978  0.0897
 2571TIP3    H1 7719   5.117   3.681   2.839  1.5924 -0.3191  1.3416
 2571TIP3    H2 7720   5.236   3.637   2.757  0.4693 -0.9501  0.0265
 2572TIP3   OH2 7721   3.019   1.891   3.822  0.3361 -0.2325  0.3644
 2572TIP3    H1 7722   3.039   1.799   3.803  0.5648  0.3112 -2.5514
 2572TIP3    H2 7723   3.103   1.928   3.848  0.9608 -0.2562 -1.4513
 2573TIP3   OH2 7724   4.766   3.415   2.017 -0.0502 -0.3489 -0.0363
 2573TIP3    H1 7725   4.759   3.510   2.017  0.2614 -0.3016 -1.4435
 2573TIP3    H2 7726   4.846   3.396   1.968 -0.9076 -1.3503 -1.1482
 2574TIP3   OH2 7727   5.065   0.326   3.933 -0.3040  0.1582  0.1735
 2574TIP3    H1 7728   5.121   0.289   3.865 -1.8732  0.2910 -1.2806
 2574TIP3    H2 7729   4.996   0.371   3.885 -1.2342  0.6639  1.8812
 2575TIP3   OH2 7730   4.266   4.930   4.369 -0.3788 -0.2501  0.1278
 2575TIP3    H1 7731   4.208   4.879   4.313 -0.0776 -2.0339  1.3699
 2575TIP3    H2 7732   4.290   4.871   4.439  1.0507  1.2139  0.9414
 2576TIP3   OH2 7733   1.363   3.499   0.381  0.0813  0.1360  0.3627
 2576TIP3    H1 7734   1.392   3.504   0.472  2.8222  2.5591 -0.4836
 2576TIP3    H2 7735   1.426   3.440   0.339  0.2581  0.8363 -0.3755
 2577TIP3   OH2 7736   6.258   3.441   5.032 -0.3190  0.1645  0.2650
 2577TIP3    H1 7737   6.198   3.516   5.035 -0.9435 -0.3019 -0.3755
 2577TIP3    H2 7738   6.296   3.438   5.120 -2.1746 -0.2755  1.1166
 2578TIP3   OH2 7739   5.163   2.939   2.779  0.3602 -0.0372 -0.3480
 2578TIP3    H1 7740   5.241   2.884   2.775  1.1258  0.9814  0.1571
 2578TIP3    H2 7741   5.100   2.888   2.831  0.4087 -1.1778 -1.3708
 2579TIP3   OH2 7742   5.870   0.126   2.092  0.3769 -0.5362  0.2015
 2579TIP3    H1 7743   5.931   0.184   2.047 -2.2108  0.4535 -2.4115
 2579TIP3    H2 7744   5.910   0.040   2.089  0.9778 -0.2444 -2.9652
 2580TIP3   OH2 7745   2.617   0.209   2.584 -0.0328 -0.2142  0.2266
 2580TIP3    H1 7746   2.574   0.168   2.509 -0.2974 -0.1848  0.3596
 2580TIP3    H2 7747   2.680   0.269   2.545 -1.9793  1.7735 -0.0399
 2581TIP3   OH2 7748   1.007   4.313   1.653  0.2808  0.2188  0.0819
 2581TIP3    H1 7749   0.945   4.386   1.657  1.2895  1.2281 -1.6102
 2581TIP3    H2 7750   0.951   4.235   1.649 -0.8485  1.0136 -0.1556
 2582TIP3   OH2 7751   3.058   1.998   0.624  0.0444  0.6375 -0.2096
 2582TIP3    H1 7752   3.141   1.951   0.625  0.1663  0.8530  0.7343
 2582TIP3    H2 7753   3.011   1.963   0.547 -0.0101 -1.2600  0.6329
 2583TIP3   OH2 7754   3.774   1.340   4.598 -0.4765  0.5102 -0.3556
 2583TIP3    H1 7755   3.716   1.409   4.565 -0.5274  0.5304 -0.2214
 2583TIP3    H2 7756   3.734   1.311   4.679 -0.6459  0.0749 -0.5899
 2584TIP3   OH2 7757   1.586   2.738   1.381  0.3540  0.8693  0.2165
 2584TIP3    H1 7758   1.661   2.708   1.432 -1.3600 -2.2892  1.1149
 2584TIP3    H2 7759   1.621   2.751   1.293  1.6374 -2.9084 -0.0268
 2585TIP3   OH2 7760   4.245   4.017   1.433  0.5644 -0.1137 -0.4630
 2585TIP3    H1 7761   4.263   3.926   1.456 -0.9491 -0.5871 -1.0382
 2585TIP3    H2 7762   4.172   4.013   1.372  0.2559  1.5128 -0.2594
 2586TIP3   OH2 7763   2.924   2.800   4.285  0.5071  0.4206  0.3631
 2586TIP3    H1 7764   2.937   2.716   4.240  0.2765  0.1703  0.7572
 2586TIP3    H2 7765   2.971   2.864   4.231 -0.3167  0.2337 -0.5882
 2587TIP3   OH2 7766   3.346   5.683   2.824  0.8788 -0.8272 -0.6333
 2587TIP3    H1 7767   3.360   5.748   2.755 -1.8617 -0.6327 -1.1053
 2587TIP3    H2 7768   3.289   5.617   2.783  0.0620 -1.2675  1.1206
 2588TIP3   OH2 7769   1.796   1.918   4.040  0.3137  0.8599  0.8155
 2588TIP3    H1 7770   1.842   1.847   4.084 -0.7470 -0.3002  0.1100
 2588TIP3    H2 7771   1.732   1.874   3.983  0.0951  2.3587 -0.1545
 2589TIP3   OH2 7772   4.636   3.137   0.058 -0.0617  0.3527 -0.9174
 2589TIP3    H1 7773   4.630   3.157  -0.036  1.2124 -2.2748 -1.6767
 2589TIP3    H2 7774   4.600   3.048   0.065  0.8986  0.0600  0.8780
 2590TIP3   OH2 7775   2.640   3.056   1.368  0.5598 -0.2665 -0.2944
 2590TIP3    H1 7776   2.636   3.080   1.461  0.5503  1.7864 -0.7643
 2590TIP3    H2 7777   2.549   3.059   1.339  0.7390  1.0654 -0.7835
 2591TIP3   OH2 7778   5.305   5.284   1.387 -0.5078  0.2483 -0.3761
 2591TIP3    H1 7779   5.230   5.247   1.339  0.1113 -1.4383 -0.1284
 2591TIP3    H2 7780   5.267   5.355   1.439 -2.3085 -1.5212  0.9318
 2592TIP3   OH2 7781   4.143   3.986   3.270 -0.4547 -0.2385 -0.2383
 2592TIP3    H1 7782   4.101   3.949   3.193 -1.4669  0.6785 -0.1577
 2592TIP3    H2 7783   4.235   3.959   3.263 -0.5233 -0.1794 -1.7639
 2593TIP3   OH2 7784   1.133   2.203   4.276  0.2030  0.0098 -0.2266
 2593TIP3    H1 7785   1.228   2.217   4.278  0.1878  0.2061 -0.8273
 2593TIP3    H2 7786   1.097   2.281   4.318  0.2037  1.0281 -2.0438
 2594TIP3   OH2 7787   1.619   0.073   3.820 -0.1777 -0.1086 -0.2478
 2594TIP3    H1 7788   1.710   0.045   3.832  0.2070  0.3181 -1.9439
 2594TIP3    H2 7789   1.624   0.149   3.762 -1.5278  0.8345  0.7905
 2595TIP3   OH2 7790   0.221   3.496   4.176 -0.6438 -0.3121  0.0604
 2595TIP3    H1 7791   0.256   3.577   4.213  0.2610 -0.9894  0.7398
 2595TIP3    H2 7792   0.161   3.525   4.107 -1.2302  0.9505  1.0541
 2596TIP3   OH2 7793   0.572   4.484   4.719 -0.2776 -0.3475  0.1774
 2596TIP3    H1 7794   0.591   4.437   4.638 -0.2243  0.5449 -0.3515
 2596TIP3    H2 7795   0.489   4.528   4.702  0.1465  0.5245  0.2802
 2597TIP3   OH2 7796   0.807   2.710   5.125  0.7449  0.2831 -0.0055
 2597TIP3    H1 7797   0.812   2.762   5.206 -0.1273  1.2555 -0.5649
 2597TIP3    H2 7798   0.715   2.712   5.100  0.6409 -1.7604  0.0759
 2598TIP3   OH2 7799   2.677   4.923   1.038 -0.3772  0.3767 -0.3027
 2598TIP3    H1 7800   2.728   4.845   1.017  0.4359  0.4401  1.2916
 2598TIP3    H2 7801   2.667   4.969   0.954  0.8421 -0.4205 -0.9094
 2599TIP3   OH2 7802   1.163   3.278   3.160 -0.1095  0.2613 -0.3011
 2599TIP3    H1 7803   1.242   3.294   3.212 -0.7709  0.7197  0.5764
 2599TIP3    H2 7804   1.182   3.320   3.076  1.8894 -2.4081 -1.3514
 2600TIP3   OH2 7805   5.479   3.796   3.625  0.1999 -0.0071 -0.0210
 2600TIP3    H1 7806   5.494   3.722   3.566 -2.6541 -0.0369 -0.8300
 2600TIP3    H2 7807   5.481   3.757   3.713  0.6588 -0.6598 -0.3104
 2601TIP3   OH2 7808   2.093   4.016   1.882 -0.4058 -0.0404  0.3596
 2601TIP3    H1 7809   2.088   4.077   1.956  1.3440 -0.5512  0.9515
 2601TIP3    H2 7810   2.096   3.929   1.922 -1.3404 -0.4528 -0.4137
 2602TIP3   OH2 7811   3.184   2.597   4.244 -0.3697  0.1754  0.0403
 2602TIP3    H1 7812   3.210   2.510   4.276  1.0597  0.6691  0.2536
 2602TIP3    H2 7813   3.120   2.578   4.176  1.7062 -1.1800 -1.6626
 2603TIP3   OH2 7814   0.446   0.848   2.396  0.3250 -0.1747 -0.4772
 2603TIP3    H1 7815   0.480   0.763   2.366 -1.8644 -1.3821  0.2559
 2603TIP3    H2 7816   0.443   0.902   2.317  2.6512 -0.3917 -0.7982
 2604TIP3   OH2 7817   2.709   0.873   0.309 -0.3800  0.6196  0.4356
 2604TIP3    H1 7818   2.670   0.786   0.314  0.7173  0.0212 -0.7141
 2604TIP3    H2 7819   2.637   0.931   0.287 -1.0506 -0.0544  0.8240
 2605TIP3   OH2 7820   3.108   2.405   2.552  0.2555  0.0797  0.3032
 2605TIP3    H1 7821   3.167   2.331   2.568 -0.1789 -0.3075  0.1320
 2605TIP3    H2 7822   3.048   2.374   2.485 -1.2207 -0.1335  1.6552
 2606TIP3   OH2 7823   4.298   4.539   0.859  0.3764  0.1749 -0.0707
 2606TIP3    H1 7824   4.356   4.554   0.934  0.4278 -0.1986 -0.0364
 2606TIP3    H2 7825   4.290   4.626   0.818  0.5952  0.3196  0.1856
 2607TIP3   OH2 7826   6.315   2.572   3.976  0.1126  0.4403  0.1634
 2607TIP3    H1 7827   6.252   2.544   3.909  0.1226  0.5773  0.0973
 2607TIP3    H2 7828   6.400   2.567   3.933  0.2875 -0.9440  0.6221
 2608TIP3   OH2 7829   4.948   5.637   4.449 -0.1892 -0.4096  0.1315
 2608TIP3    H1 7830   4.914   5.716   4.408 -0.5182 -0.4779  0.2638
 2608TIP3    H2 7831   4.913   5.639   4.538  1.7775  0.5152  0.9289
 2609TIP3   OH2 7832   3.845   3.259   4.167  0.5734 -0.2233 -0.2062
 2609TIP3    H1 7833   3.897   3.313   4.108 -0.7336  1.3105 -0.0162
 2609TIP3    H2 7834   3.802   3.322   4.226 -2.3506 -1.2662 -1.0315
 2610TIP3   OH2 7835   6.236   4.800   4.819 -0.6612  0.3882  0.1540
 2610TIP3    H1 7836   6.278   4.789   4.734 -2.3601  1.5299 -0.9018
 2610TIP3    H2 7837   6.303   4.775   4.883  0.8607  0.0893 -1.4879
 2611TIP3   OH2 7838   1.924   2.280   3.175 -0.0383 -0.4672 -0.0303
 2611TIP3    H1 7839   2.016   2.308   3.179 -0.6777  2.0075 -0.7159
 2611TIP3    H2 7840   1.927   2.195   3.132  2.0050 -1.0031  1.0232
 2612TIP3   OH2 7841   2.538   5.603   3.406  0.3178  0.4210  0.0041
 2612TIP3    H1 7842   2.462   5.659   3.423 -1.7369 -2.4352  0.8895
 2612TIP3    H2 7843   2.591   5.610   3.486 -0.8567 -0.2139  0.8768
 2613TIP3   OH2 7844   1.451   5.940   2.761  0.0796 -0.1309  0.1840
 2613TIP3    H1 7845   1.396   6.013   2.733  1.7162  1.2100  0.2914
 2613TIP3    H2 7846   1.494   5.972   2.841  1.0086 -1.1126  0.0987
 2614TIP3   OH2 7847   1.519   2.165   3.957 -0.2482  0.7387  0.1209
 2614TIP3    H1 7848   1.468   2.084   3.951  1.9047 -0.7053  0.3866
 2614TIP3    H2 7849   1.499   2.200   4.043 -0.2813 -0.1754  0.4977
 2615TIP3   OH2 7850   3.005   2.994   0.211  0.0233 -0.4997  0.3236
 2615TIP3    H1 7851   3.096   3.023   0.216  0.4051 -1.4584 -0.6371
 2615TIP3    H2 7852   2.961   3.060   0.157  0.0722  0.1109  1.0161
 2616TIP3   OH2 7853   4.461   3.660   0.354 -0.2616 -0.0328  0.6299
 2616TIP3    H1 7854   4.551   3.687   0.371 -0.4352  0.0661  1.4209
 2616TIP3    H2 7855   4.464   3.620   0.267  1.1280 -2.6615  1.7801
 2617TIP3   OH2 7856   1.181   5.634   2.558 -0.2693  0.7623 -0.0145
 2617TIP3    H1 7857   1.244   5.649   2.629 -0.4973  2.0258 -0.0574
 2617TIP3    H2 7858   1.234   5.631   2.479  0.0534 -1.2372  0.2343
 2618TIP3   OH2 7859   0.978   1.061   1.354 -0.0002 -0.0892  0.1843
 2618TIP3    H1 7860   1.018   1.031   1.273  1.1765 -2.3766  1.5050
 2618TIP3    H2 7861   0.892   1.018   1.355 -0.3018  0.5030 -0.1688
 2619TIP3   OH2 7862   4.174   1.279   4.257  0.3370 -0.5071  0.0982
 2619TIP3    H1 7863   4.207   1.350   4.311 -0.2280 -0.3975  0.3117
 2619TIP3    H2 7864   4.079   1.280   4.272  0.2606 -0.9431 -0.3298
 2620TIP3   OH2 7865   5.524   0.426   4.037 -0.4558  0.0708  0.2530
 2620TIP3    H1 7866   5.460   0.448   3.970 -1.4733 -1.9970  0.4813
 2620TIP3    H2 7867   5.521   0.500   4.098  0.0084  1.6631 -1.5582
 2621TIP3   OH2 7868   5.079   1.470   4.525 -0.4584  0.0614  0.2586
 2621TIP3    H1 7869   5.153   1.478   4.465 -0.4395  1.2953  0.4229
 2621TIP3    H2 7870   5.002   1.474   4.469 -0.4209 -0.0203  0.2016
 2622TIP3   OH2 7871   2.800   2.345   1.140 -0.0942 -0.0885 -0.0664
 2622TIP3    H1 7872   2.858   2.279   1.103  0.0099 -0.0204 -0.0225
 2622TIP3    H2 7873   2.715   2.326   1.100  0.2981  0.8589 -1.4357
 2623TIP3   OH2 7874   1.487   2.222   2.237  0.1358 -0.3724 -0.5053
 2623TIP3    H1 7875   1.506   2.220   2.143  0.9351 -2.1069 -0.3385
 2623TIP3    H2 7876   1.394   2.202   2.243  0.1841 -0.7218 -0.9027
 2624TIP3   OH2 7877   4.027   3.266   2.823 -0.3243 -0.0356  0.3438
 2624TIP3    H1 7878   4.036   3.216   2.742  0.2045  1.6230 -0.6594
 2624TIP3    H2 7879   3.977   3.344   2.798 -1.7569 -0.3516  2.0172
 2625TIP3   OH2 7880   5.232   2.433   3.223  0.2699  0.0526  0.4757
 2625TIP3    H1 7881   5.192   2.346   3.216  1.6527 -0.5001 -0.9641
 2625TIP3    H2 7882   5.266   2.436   3.312 -0.8218 -0.4015  0.9319
 2626TIP3   OH2 7883   3.908   1.568   5.104 -0.0296  0.1780  0.4775
 2626TIP3    H1 7884   3.978   1.565   5.169 -0.9044  1.4112  1.5114
 2626TIP3    H2 7885   3.868   1.481   5.107  0.4029 -0.0042  1.0590
 2627TIP3   OH2 7886   3.529   4.635   0.376  0.0878  0.0919 -0.0433
 2627TIP3    H1 7887   3.565   4.567   0.433 -0.3254 -0.6037 -0.6022
 2627TIP3    H2 7888   3.485   4.587   0.306 -1.2270  0.9159  0.1753
 2628TIP3   OH2 7889   3.562   4.191   0.612  0.0548  0.4126 -0.4582
 2628TIP3    H1 7890   3.474   4.191   0.648  0.0198  0.7088 -0.5361
 2628TIP3    H2 7891   3.619   4.171   0.687 -0.2114 -2.0693 -0.8322
 2629TIP3   OH2 7892   3.468   0.012   4.349 -0.0985 -0.5533 -0.1492
 2629TIP3    H1 7893   3.497   0.066   4.275  0.7142 -0.8351 -0.0447
 2629TIP3    H2 7894   3.378  -0.013   4.326 -0.5942  1.0523 -0.0789
 2630TIP3   OH2 7895   5.651   3.710   0.582 -0.1847 -0.6975 -0.1259
 2630TIP3    H1 7896   5.713   3.779   0.559  0.0001 -1.4186 -1.8660
 2630TIP3    H2 7897   5.573   3.728   0.530 -0.6159 -1.0947  0.3573
 2631TIP3   OH2 7898   3.963   0.832   3.512  0.4127 -0.0910  0.4253
 2631TIP3    H1 7899   4.034   0.826   3.575 -0.7492  0.5352  1.8702
 2631TIP3    H2 7900   3.934   0.923   3.517 -1.2901 -0.6081  0.8634
 2632TIP3   OH2 7901   4.792   0.893   2.704 -0.0235  0.3771  0.3615
 2632TIP3    H1 7902   4.832   0.931   2.782 -0.0760 -0.6944  0.9291
 2632TIP3    H2 7903   4.706   0.935   2.697  0.4410  1.3268  0.2004
 2633TIP3   OH2 7904   4.317   5.925   4.790  0.2480 -0.2463 -0.1637
 2633TIP3    H1 7905   4.346   5.897   4.877 -2.3335 -0.2960  0.7439
 2633TIP3    H2 7906   4.325   5.846   4.736  0.2998 -0.6623  0.4417
 2634TIP3   OH2 7907   2.826   2.389   1.458 -0.0260  0.6243 -0.1083
 2634TIP3    H1 7908   2.816   2.415   1.367 -2.2957  0.4972  0.0595
 2634TIP3    H2 7909   2.813   2.469   1.509 -0.2416  0.4286  0.1512
 2635TIP3   OH2 7910   2.191   3.756   3.968  1.0184 -0.5853 -0.2576
 2635TIP3    H1 7911   2.122   3.691   3.970  0.7974 -0.3447  0.2258
 2635TIP3    H2 7912   2.201   3.783   4.060  0.4428  0.7542 -0.5602
 2636TIP3   OH2 7913   0.431   3.494   0.874 -0.5523  0.4592  0.0434
 2636TIP3    H1 7914   0.388   3.578   0.892 -0.9654 -0.0574  1.6521
 2636TIP3    H2 7915   0.400   3.436   0.944  0.7648 -0.6602 -0.2617
 2637TIP3   OH2 7916   5.747   0.952   1.096  0.5389 -0.0991  0.2220
 2637TIP3    H1 7917   5.674   0.899   1.127  0.4779  0.4438  1.0594
 2637TIP3    H2 7918   5.823   0.916   1.141  0.6224 -0.0037  0.1575
 2638TIP3   OH2 7919   3.682   0.163   5.141 -0.5784 -0.5203 -0.1534
 2638TIP3    H1 7920   3.705   0.182   5.050  0.0353 -0.8940 -0.0801
 2638TIP3    H2 7921   3.680   0.249   5.183 -1.8045 -0.2479 -0.7242
 2639TIP3   OH2 7922   2.785   3.078   3.044 -0.3189  0.5542  0.0216
 2639TIP3    H1 7923   2.755   3.019   3.113  1.4508 -0.0843  0.2842
 2639TIP3    H2 7924   2.850   3.028   2.995  0.5256  1.9480 -0.3394
 2640TIP3   OH2 7925   2.563   5.949   4.014  0.0742  0.1750 -0.2705
 2640TIP3    H1 7926   2.627   5.880   3.998 -0.4334 -0.3226 -0.2003
 2640TIP3    H2 7927   2.500   5.941   3.942 -1.4323 -1.1544  1.1026
 2641TIP3   OH2 7928   6.318   1.577   3.075  0.1415 -0.1098 -0.6016
 2641TIP3    H1 7929   6.257   1.581   3.001  0.7528 -1.4771 -1.2206
 2641TIP3    H2 7930   6.265   1.547   3.149 -0.9407  3.2249  0.1137
 2642TIP3   OH2 7931   0.479   5.880   3.159  0.1485  0.0730 -0.3279
 2642TIP3    H1 7932   0.392   5.864   3.195  0.3268 -0.0432  0.0584
 2642TIP3    H2 7933   0.539   5.860   3.231  0.4791  0.4953 -0.4819
 2643TIP3   OH2 7934   0.483   4.945   4.626  0.4546  0.1256  0.0809
 2643TIP3    H1 7935   0.560   4.998   4.644  1.0077 -0.5211 -0.3560
 2643TIP3    H2 7936   0.410   5.007   4.626  1.0394  0.8142 -0.0191
 2644TIP3   OH2 7937   3.175   4.596   4.013  0.4759 -0.3138  0.1005
 2644TIP3    H1 7938   3.109   4.636   3.956  0.7070 -1.3931 -0.9509
 2644TIP3    H2 7939   3.207   4.668   4.067 -1.4501  0.2725  0.5401
 2645TIP3   OH2 7940   2.328   0.543   0.131 -0.0837  0.3058 -0.5096
 2645TIP3    H1 7941   2.241   0.504   0.139  0.3323 -0.3981  0.9736
 2645TIP3    H2 7942   2.317   0.633   0.161 -0.6183  0.7409 -1.9292
 2646TIP3   OH2 7943   1.621   5.769   0.098 -0.8239 -0.9557 -0.5023
 2646TIP3    H1 7944   1.667   5.827   0.037 -1.5831 -0.0948 -0.2801
 2646TIP3    H2 7945   1.691   5.715   0.136 -0.5529 -3.3691 -3.9366
 2647TIP3   OH2 7946   3.855   0.343   0.192 -0.2782 -0.2266 -0.1514
 2647TIP3    H1 7947   3.794   0.379   0.127 -0.6002 -0.0723  0.2258
 2647TIP3    H2 7948   3.818   0.258   0.215 -0.5443  0.0130  0.3278
 2648TIP3   OH2 7949   1.003   2.928   1.232 -0.5384  0.1232 -0.2369
 2648TIP3    H1 7950   1.068   2.937   1.162  0.3181 -0.3322  0.4807
 2648TIP3    H2 7951   1.009   2.836   1.259  1.5226  0.9324  2.6194
 2649TIP3   OH2 7952   2.708   1.783   0.981  0.0361 -0.1285  0.2655
 2649TIP3    H1 7953   2.739   1.825   0.901  0.5363  0.1405  0.5965
 2649TIP3    H2 7954   2.628   1.737   0.954 -1.9252  2.9257  0.3569
 2650TIP3   OH2 7955   6.157   1.400   1.178  0.2583  0.0658  0.5007
 2650TIP3    H1 7956   6.100   1.468   1.142 -1.2935 -0.6817  1.4752
 2650TIP3    H2 7957   6.166   1.337   1.107  0.6562  0.6446  0.0256
 2651TIP3   OH2 7958   0.470   2.904   2.116 -0.1723 -0.2411  0.1013
 2651TIP3    H1 7959   0.536   2.959   2.159  1.0265 -2.0628  0.7497
 2651TIP3    H2 7960   0.399   2.897   2.180 -0.4875  0.8074 -0.1280
 2652TIP3   OH2 7961   0.940   2.620   1.303  0.0280  0.2869  0.1114
 2652TIP3    H1 7962   1.022   2.597   1.260 -0.4921 -0.4102 -0.5330
 2652TIP3    H2 7963   0.908   2.538   1.341 -0.6313  0.4347 -0.1086
 2653TIP3   OH2 7964   4.066   2.384   0.304  0.5394 -0.0099 -0.0438
 2653TIP3    H1 7965   4.014   2.443   0.357 -2.1659 -0.5520 -1.8519
 2653TIP3    H2 7966   4.096   2.437   0.230  0.0169 -0.3261 -0.5005
 2654TIP3   OH2 7967   5.292   4.847   3.059  0.5800  0.0482  0.4700
 2654TIP3    H1 7968   5.381   4.883   3.056 -0.6911  3.4575 -1.7378
 2654TIP3    H2 7969   5.290   4.783   2.987  0.9299  0.8525 -0.2696
 2655TIP3   OH2 7970   4.112   5.548   3.869  0.0970 -0.3823  0.3702
 2655TIP3    H1 7971   4.031   5.556   3.920 -0.8430  0.4221 -1.1800
 2655TIP3    H2 7972   4.095   5.477   3.808  1.3293 -1.5404  1.2999
 2656TIP3   OH2 7973   2.082   5.344   0.586  0.3048 -0.0668  0.6537
 2656TIP3    H1 7974   2.022   5.388   0.647 -1.2765 -0.0157 -0.8571
 2656TIP3    H2 7975   2.070   5.251   0.604 -1.5833 -0.1579 -0.7466
 2657TIP3   OH2 7976   0.262   4.758   3.997  0.1587 -0.0971  0.2889
 2657TIP3    H1 7977   0.276   4.663   3.991 -1.2765 -0.2279 -2.4310
 2657TIP3    H2 7978   0.168   4.769   3.990  0.3184  1.5662  0.3641
 2658TIP3   OH2 7979   1.118   3.170   0.849  0.0492 -0.3569  0.0590
 2658TIP3    H1 7980   1.146   3.214   0.769 -1.8924 -1.2489 -1.1649
 2658TIP3    H2 7981   1.076   3.238   0.901 -1.0066 -0.2920 -0.8596
 2659TIP3   OH2 7982   6.085   5.979   1.100  0.2044  0.2752 -0.1063
 2659TIP3    H1 7983   6.148   5.910   1.120  0.1423  0.0996 -0.5068
 2659TIP3    H2 7984   6.001   5.943   1.128  0.1481  0.1179 -0.4756
 2660TIP3   OH2 7985   5.371   5.851   4.353 -0.3664  0.3482 -0.1697
 2660TIP3    H1 7986   5.402   5.811   4.272  0.0673 -0.7105  0.5004
 2660TIP3    H2 7987   5.327   5.931   4.325 -0.6740 -0.2573 -1.5001
 2661TIP3   OH2 7988   3.265   2.745   1.083  0.1449 -0.0890 -0.2684
 2661TIP3    H1 7989   3.235   2.805   1.015  0.6595  0.2528 -0.1962
 2661TIP3    H2 7990   3.317   2.800   1.142  0.4572 -0.5687 -0.0966
 2662TIP3   OH2 7991   3.636   3.157   5.137  0.2457  0.3721  0.3647
 2662TIP3    H1 7992   3.578   3.099   5.089  0.2270  0.7738 -0.1078
 2662TIP3    H2 7993   3.652   3.112   5.220  0.3589 -0.3743 -0.0521
 2663TIP3   OH2 7994   2.146   0.531   4.060  0.1758 -0.5469  0.4542
 2663TIP3    H1 7995   2.090   0.544   4.135 -0.5234 -1.7809  0.1781
 2663TIP3    H2 7996   2.192   0.614   4.048 -0.5265  0.0058  1.5533
 2664TIP3   OH2 7997   2.301   2.483   4.200  0.2394 -1.2901 -0.0826
 2664TIP3    H1 7998   2.293   2.577   4.187 -0.8251 -1.4219 -0.4874
 2664TIP3    H2 7999   2.395   2.467   4.203  0.5121 -0.5705 -2.7556
 2665TIP3   OH2 8000   4.695   5.211   4.489  0.3284 -0.2027  0.5915
 2665TIP3    H1 8001   4.702   5.306   4.478 -2.1197  0.0130  0.1401
 2665TIP3    H2 8002   4.687   5.198   4.584 -1.1550  0.2835  0.5663
 2666TIP3   OH2 8003   0.990   4.727   5.134  0.3540  0.0329  0.1895
 2666TIP3    H1 8004   1.060   4.696   5.191  2.2166 -0.8688 -2.4272
 2666TIP3    H2 8005   0.973   4.654   5.075  0.4208  1.7685 -2.1047
 2667TIP3   OH2 8006   6.006   1.963   4.405 -0.5310  0.0020  0.0787
 2667TIP3    H1 8007   6.000   1.912   4.486 -0.4318 -0.3480 -0.1330
 2667TIP3    H2 8008   5.953   1.914   4.342 -1.1211  0.6018  0.0965
 2668TIP3   OH2 8009   5.087   1.244   1.812  0.2479  0.3780 -0.2266
 2668TIP3    H1 8010   5.024   1.243   1.741  2.6592  0.0786 -2.5091
 2668TIP3    H2 8011   5.127   1.331   1.808  0.0217  0.5857  1.2226
 2669TIP3   OH2 8012   5.063   0.559   4.705 -0.3762  0.2945  0.0929
 2669TIP3    H1 8013   5.020   0.478   4.732 -0.7452  0.7244  0.8473
 2669TIP3    H2 8014   5.141   0.531   4.658 -1.8349 -0.5350 -1.9697
 2670TIP3   OH2 8015   4.237   3.036   1.640 -0.3008  0.0150  0.4690
 2670TIP3    H1 8016   4.246   3.131   1.637  0.4751 -0.0559 -0.2274
 2670TIP3    H2 8017   4.151   3.020   1.677 -0.4477  0.9919  0.5700
 2671TIP3   OH2 8018   3.304   1.218   3.222 -0.3799 -0.4786 -0.2466
 2671TIP3    H1 8019   3.370   1.240   3.288 -2.2352  0.9185  1.2556
 2671TIP3    H2 8020   3.237   1.285   3.232 -1.1321 -0.7129 -3.0576
 2672TIP3   OH2 8021   1.352   3.423   5.062 -0.1717  1.0213  0.0262
 2672TIP3    H1 8022   1.421   3.370   5.100 -1.6068 -0.3701  0.8097
 2672TIP3    H2 8023   1.367   3.511   5.096  1.8547  1.0316 -0.7588
 2673TIP3   OH2 8024   4.928   0.514   4.161 -0.1729 -0.0509  0.2980
 2673TIP3    H1 8025   4.838   0.481   4.151  0.0506 -0.7600  0.5274
 2673TIP3    H2 8026   4.924   0.604   4.129 -0.2863 -1.0176 -2.6323
 2674TIP3   OH2 8027   2.384   4.219   1.073  0.2237 -0.2707  0.1031
 2674TIP3    H1 8028   2.416   4.129   1.072  2.6195  0.5076 -0.9376
 2674TIP3    H2 8029   2.437   4.263   1.140 -0.8646  0.3984  0.5522
 2675TIP3   OH2 8030   3.407   3.109   0.390 -0.3892 -0.0253  0.2808
 2675TIP3    H1 8031   3.477   3.047   0.369 -1.1532 -0.4787 -1.0536
 2675TIP3    H2 8032   3.384   3.089   0.480  0.1048 -0.9827  0.2123
 2676TIP3   OH2 8033   1.158   1.613   4.140 -0.2618 -0.1784  0.0433
 2676TIP3    H1 8034   1.119   1.584   4.058  1.5798  0.6481 -1.2081
 2676TIP3    H2 8035   1.153   1.537   4.198 -1.0473 -0.9739 -1.0353
 2677TIP3   OH2 8036   3.050   5.021   2.187 -0.1753  0.2249  0.6579
 2677TIP3    H1 8037   3.046   5.055   2.276  0.1263 -0.0174  0.7611
 2677TIP3    H2 8038   2.959   5.028   2.155 -0.1105  1.2385  0.6356
 2678TIP3   OH2 8039   5.937   4.078   0.692 -0.0518  0.1258 -0.2018
 2678TIP3    H1 8040   5.844   4.086   0.669 -0.3228  0.2018  0.8419
 2678TIP3    H2 8041   5.936   4.049   0.784  0.9570  0.2644 -0.1378
 2679TIP3   OH2 8042   5.787   1.070   4.655  0.0433  0.0544  0.1409
 2679TIP3    H1 8043   5.835   0.992   4.627 -0.8653 -0.4002 -0.1851
 2679TIP3    H2 8044   5.722   1.037   4.718 -1.2490  0.3313 -1.0035
 2680TIP3   OH2 8045   1.935   5.527   3.676 -0.2384  0.3189  0.0386
 2680TIP3    H1 8046   1.902   5.564   3.594 -1.7781  1.3412  1.0686
 2680TIP3    H2 8047   1.927   5.598   3.739 -1.7760 -1.2769  1.7313
 2681TIP3   OH2 8048   1.579   2.643   0.388 -0.2529  0.1047  0.2667
 2681TIP3    H1 8049   1.572   2.711   0.321  0.1139  0.1709  0.2954
 2681TIP3    H2 8050   1.645   2.583   0.354 -2.7076 -1.9456 -1.2708
 2682TIP3   OH2 8051   3.632   4.590   2.379  0.4313 -0.1504 -0.3236
 2682TIP3    H1 8052   3.665   4.659   2.322 -0.6191 -1.2448 -2.3797
 2682TIP3    H2 8053   3.609   4.519   2.320 -2.1937 -0.8066  1.3011
 2683TIP3   OH2 8054   5.082   5.511   1.369 -0.0074  0.3982  0.2834
 2683TIP3    H1 8055   5.164   5.547   1.401 -0.2279  1.9129 -0.7433
 2683TIP3    H2 8056   5.014   5.563   1.413 -0.4562 -0.9267  1.2340
 2684TIP3   OH2 8057   5.600   1.330   3.593 -0.4798  0.0761 -0.0444
 2684TIP3    H1 8058   5.560   1.310   3.677  0.5802  1.6097  0.8808
 2684TIP3    H2 8059   5.546   1.284   3.529 -0.8760 -1.7230  1.5016
 2685TIP3   OH2 8060   4.922   0.923   0.223 -0.6341 -0.2666  0.4787
 2685TIP3    H1 8061   4.880   0.960   0.146 -0.0033  0.0342  0.2746
 2685TIP3    H2 8062   4.979   0.992   0.255 -1.0904 -0.2892  1.3785
 2686TIP3   OH2 8063   5.858   1.401   0.282  0.1362  0.0712  0.7395
 2686TIP3    H1 8064   5.770   1.410   0.245  0.8970 -0.9585 -1.5191
 2686TIP3    H2 8065   5.910   1.363   0.211  2.2523 -0.0225  2.2418
 2687TIP3   OH2 8066   0.309   5.684   3.645 -0.7317 -0.3684 -0.2698
 2687TIP3    H1 8067   0.245   5.736   3.694 -0.6664 -1.4102  0.9576
 2687TIP3    H2 8068   0.380   5.746   3.626  0.5054 -0.4704  3.3363
 2688TIP3   OH2 8069   4.167   4.877   2.696  0.3737  0.0706  0.3369
 2688TIP3    H1 8070   4.239   4.832   2.740  0.1064 -1.6032 -0.8373
 2688TIP3    H2 8071   4.208   4.921   2.621  0.3852  0.3756  0.5207
 2689TIP3   OH2 8072   5.622   4.197   2.989  1.1777 -0.0430 -0.0998
 2689TIP3    H1 8073   5.607   4.290   2.971 -0.3861 -0.3503 -0.5390
 2689TIP3    H2 8074   5.634   4.193   3.084  1.2487  0.5897 -0.0745
 2690TIP3   OH2 8075   0.564   3.000   3.606  0.3601 -0.5026 -0.0495
 2690TIP3    H1 8076   0.506   3.069   3.575  1.6650 -0.2319 -2.0494
 2690TIP3    H2 8077   0.631   3.046   3.656 -0.3321 -0.6770  1.0898
 2691TIP3   OH2 8078   0.801   1.160   2.429 -0.2324  0.6148 -0.1560
 2691TIP3    H1 8079   0.827   1.110   2.506  0.6727  0.9555 -0.2188
 2691TIP3    H2 8080   0.765   1.095   2.369 -0.2292  0.2313  0.2490
 2692TIP3   OH2 8081   5.972   2.901   0.389 -0.8486  0.0889 -0.3327
 2692TIP3    H1 8082   6.008   2.866   0.471  1.3904  1.9600 -0.4033
 2692TIP3    H2 8083   5.924   2.979   0.415 -0.9062  0.1841 -0.7173
 2693TIP3   OH2 8084   4.982   4.142   1.470  0.3892  0.2079  0.2673
 2693TIP3    H1 8085   5.011   4.230   1.449 -0.3997  0.3124 -0.4047
 2693TIP3    H2 8086   4.952   4.105   1.387  1.2153 -0.8898  0.4312
 2694TIP3   OH2 8087   2.245   1.006   1.135  0.5961  0.6146  0.7501
 2694TIP3    H1 8088   2.284   1.043   1.214  0.8786 -0.3988  1.0926
 2694TIP3    H2 8089   2.319   0.996   1.074  0.5045  0.6881  0.6252
 2695TIP3   OH2 8090   1.029   2.334   0.453  0.7255 -0.3580  0.2098
 2695TIP3    H1 8091   0.967   2.403   0.429  0.2341 -1.0925 -0.6888
 2695TIP3    H2 8092   1.114   2.378   0.457  0.4267  0.2909 -0.4129
 2696TIP3   OH2 8093   3.047   1.500   2.768  0.7095 -0.3747 -0.0284
 2696TIP3    H1 8094   3.055   1.446   2.847  2.0520 -0.6670 -0.3313
 2696TIP3    H2 8095   3.101   1.455   2.703  0.0821  0.1715 -0.9426
 2697TIP3   OH2 8096   5.611   4.931   4.411  0.0016  0.1130  0.2838
 2697TIP3    H1 8097   5.659   4.970   4.484  3.2152 -1.2342 -0.9423
 2697TIP3    H2 8098   5.663   4.952   4.334 -0.7918 -2.3535 -1.0417
 2698TIP3   OH2 8099   4.192   4.301   4.180 -0.0185 -0.2424 -0.1170
 2698TIP3    H1 8100   4.226   4.217   4.213  2.7853  0.8370  0.0056
 2698TIP3    H2 8101   4.202   4.361   4.253 -0.2591  0.6156 -0.7771
 2699TIP3   OH2 8102   4.972   2.018   2.500  0.7430  0.1645  0.0375
 2699TIP3    H1 8103   4.996   2.108   2.524  0.9564  0.1266 -0.0296
 2699TIP3    H2 8104   4.977   1.969   2.583 -1.2412  0.5983  0.4505
 2700TIP3   OH2 8105   4.253   2.292   3.097  0.5481  0.3375 -0.0302
 2700TIP3    H1 8106   4.192   2.363   3.077  0.4484 -0.0841 -1.2944
 2700TIP3    H2 8107   4.223   2.259   3.182 -0.6344  0.5022 -0.3669
 2701TIP3   OH2 8108   6.151   5.416   4.439 -0.0764  0.2613  0.3294
 2701TIP3    H1 8109   6.115   5.327   4.445  0.5228 -0.0202 -0.0991
 2701TIP3    H2 8110   6.078   5.469   4.408 -0.1075 -0.3280 -0.6609
 2702TIP3   OH2 8111   4.531   0.021   3.792 -0.0850 -0.0667  0.4130
 2702TIP3    H1 8112   4.472  -0.050   3.770 -1.5241  0.8791  1.0588
 2702TIP3    H2 8113   4.523   0.083   3.720 -1.2702  0.8774  1.3133
 2703TIP3   OH2 8114   3.926   3.624   3.717  0.1427 -0.2020 -0.4135
 2703TIP3    H1 8115   4.002   3.627   3.774 -0.5316 -1.2787  0.5792
 2703TIP3    H2 8116   3.862   3.683   3.758 -0.2529 -0.7863 -0.1798
 2704TIP3   OH2 8117   4.227   3.360   0.997 -0.4597 -0.1309 -0.0281
 2704TIP3    H1 8118   4.222   3.346   0.902 -1.0075 -0.2395  0.0113
 2704TIP3    H2 8119   4.142   3.400   1.019 -1.0374 -1.6923  0.6761
 2705TIP3   OH2 8120   5.437   5.798   4.728 -0.1738  0.2345 -0.1377
 2705TIP3    H1 8121   5.371   5.729   4.726 -1.7540  1.6642  0.7379
 2705TIP3    H2 8122   5.481   5.787   4.812  0.1745 -0.2069 -0.3691
 2706TIP3   OH2 8123   0.723   2.775   4.739 -0.1239 -0.0950 -0.4224
 2706TIP3    H1 8124   0.798   2.816   4.695  0.7944 -0.6186  0.5766
 2706TIP3    H2 8125   0.649   2.832   4.720  0.7737  1.0930 -0.4897
 2707TIP3   OH2 8126   3.860   1.397   0.754 -0.6294  0.8749 -0.3371
 2707TIP3    H1 8127   3.774   1.356   0.745 -1.4332  2.8995 -2.9770
 2707TIP3    H2 8128   3.920   1.338   0.707 -0.2309 -1.0276  2.2784
 2708TIP3   OH2 8129   0.385   0.480   3.794 -0.1379 -0.1980  0.0871
 2708TIP3    H1 8130   0.307   0.487   3.849 -0.5906  0.3425 -0.6081
 2708TIP3    H2 8131   0.391   0.387   3.773 -0.4664 -0.2757  0.3215
 2709TIP3   OH2 8132   3.746   0.419   4.087  0.2900 -0.0786  0.1149
 2709TIP3    H1 8133   3.741   0.480   4.013  0.6854  0.6490  0.6774
 2709TIP3    H2 8134   3.699   0.463   4.158 -3.1621 -2.2162 -0.6168
 2710TIP3   OH2 8135   1.449   4.852   3.906 -0.4033  0.0491  0.2148
 2710TIP3    H1 8136   1.414   4.855   3.995  0.6006  2.2496  0.6143
 2710TIP3    H2 8137   1.542   4.874   3.916  0.1501 -1.4597 -1.2226
 2711TIP3   OH2 8138   4.265   3.187   0.309  0.4550 -0.6315 -0.3895
 2711TIP3    H1 8139   4.226   3.169   0.395  1.5683  0.1567  0.3099
 2711TIP3    H2 8140   4.359   3.179   0.324  0.7796  1.4620 -1.0460
 2712TIP3   OH2 8141   2.748   0.814   4.892  0.2932 -0.4154 -0.3809
 2712TIP3    H1 8142   2.686   0.833   4.821  1.7405  0.3235 -1.5029
 2712TIP3    H2 8143   2.790   0.898   4.911 -2.2076  0.2020  3.6466
 2713TIP3   OH2 8144   3.508   0.738   2.878 -0.2516  0.1629 -0.0362
 2713TIP3    H1 8145   3.428   0.718   2.926  1.2800 -2.4344  1.6920
 2713TIP3    H2 8146   3.517   0.664   2.817 -0.9428  2.2406 -2.8570
 2714TIP3   OH2 8147   0.185   2.750   0.191  0.0581  0.9635 -0.0476
 2714TIP3    H1 8148   0.278   2.753   0.211  0.7092  1.5836 -2.7914
 2714TIP3    H2 8149   0.152   2.837   0.214  0.5013  1.2529 -0.4895
 2715TIP3   OH2 8150   2.362   5.556   5.000  0.2461  0.1666  0.0579
 2715TIP3    H1 8151   2.454   5.566   5.026 -0.3681  1.1503  2.0759
 2715TIP3    H2 8152   2.327   5.645   5.002 -0.8448 -0.2376 -0.3497
 2716TIP3   OH2 8153   1.864   5.665   4.700 -0.0361  0.2263  0.0643
 2716TIP3    H1 8154   1.931   5.622   4.754 -1.1235 -1.2731  0.2973
 2716TIP3    H2 8155   1.787   5.669   4.757 -0.8510 -0.2999 -0.9710
 2717TIP3   OH2 8156   2.161   4.219   3.010 -0.1355  0.4930  0.0223
 2717TIP3    H1 8157   2.076   4.262   3.019 -1.0420 -1.0034 -0.9761
 2717TIP3    H2 8158   2.160   4.149   3.075 -0.1405 -0.2286 -0.7382
 2718TIP3   OH2 8159   0.307   5.464   3.079  0.0097  0.0434  0.1688
 2718TIP3    H1 8160   0.398   5.470   3.109  0.1685 -1.3514  0.0515
 2718TIP3    H2 8161   0.296   5.540   3.021  1.3157 -0.1222 -0.3525
 2719TIP3   OH2 8162   0.621   1.579   1.676  0.6139 -0.0611  0.1997
 2719TIP3    H1 8163   0.540   1.559   1.722  0.3923  0.6908  0.1557
 2719TIP3    H2 8164   0.688   1.529   1.722  0.1431 -0.6224  0.2918
 2720TIP3   OH2 8165   1.811   4.710   5.075 -0.1535 -0.0487 -0.2583
 2720TIP3    H1 8166   1.808   4.745   4.986  1.9843  0.4303 -0.1884
 2720TIP3    H2 8167   1.903   4.716   5.100 -0.5062 -1.3625  1.5279
 2721TIP3   OH2 8168   1.431   3.014   1.733 -0.4456 -0.4356  0.2036
 2721TIP3    H1 8169   1.456   3.053   1.817 -0.2197 -0.9248  0.3690
 2721TIP3    H2 8170   1.341   3.044   1.719 -1.4148 -2.3087  1.8427
 2722TIP3   OH2 8171   5.807   5.203   1.074  0.6359  0.4054  0.6842
 2722TIP3    H1 8172   5.771   5.214   1.162 -0.9479  1.8975 -0.1071
 2722TIP3    H2 8173   5.900   5.185   1.089  0.3199  0.1564  2.6656
 2723TIP3   OH2 8174   5.598   3.107   4.173 -0.1208  0.0124  0.1667
 2723TIP3    H1 8175   5.677   3.111   4.227 -0.3792 -0.8088  0.6160
 2723TIP3    H2 8176   5.560   3.021   4.192 -0.6858  0.0719 -0.6647
 2724TIP3   OH2 8177   5.141   5.586   4.703 -0.4539  0.2262  0.6895
 2724TIP3    H1 8178   5.084   5.515   4.672  0.2867 -0.8361  1.6645
 2724TIP3    H2 8179   5.086   5.637   4.761 -1.3599  1.2298 -0.9799
 2725TIP3   OH2 8180   2.828   1.913   1.778 -0.1773  0.0905 -0.4397
 2725TIP3    H1 8181   2.753   1.972   1.769  0.4100  0.9892  0.3554
 2725TIP3    H2 8182   2.789   1.828   1.797 -1.0595  0.1047 -1.9793
 2726TIP3   OH2 8183   2.883   4.433   2.547  0.1211 -0.3165  0.1854
 2726TIP3    H1 8184   2.887   4.518   2.504 -1.6659 -0.1207  0.3396
 2726TIP3    H2 8185   2.936   4.444   2.626  2.2011 -0.2372 -1.1560
 2727TIP3   OH2 8186   5.289   4.285   3.769 -0.0175 -0.7645 -0.6254
 2727TIP3    H1 8187   5.301   4.261   3.677  1.2137 -0.3420 -0.5807
 2727TIP3    H2 8188   5.371   4.260   3.811  0.0226  0.4941  0.0629
 2728TIP3   OH2 8189   4.478   5.594   3.276 -0.5628  0.6206  0.2650
 2728TIP3    H1 8190   4.428   5.626   3.351 -2.6946 -0.2674 -0.7219
 2728TIP3    H2 8191   4.497   5.503   3.297 -3.8650 -0.6103 -1.4817
 2729TIP3   OH2 8192   0.694   5.042   3.734 -0.0214 -0.1933  0.1081
 2729TIP3    H1 8193   0.756   4.980   3.696 -0.2224 -1.0375  1.1288
 2729TIP3    H2 8194   0.663   5.000   3.814  0.8522  1.7729  1.5651
 2730TIP3   OH2 8195   2.593   3.394   0.995  0.2301  0.1025 -0.1382
 2730TIP3    H1 8196   2.682   3.378   0.963  0.8643 -0.5067  1.8132
 2730TIP3    H2 8197   2.537   3.381   0.918  1.7931  0.2496 -1.3434
 2731TIP3   OH2 8198   5.022   3.857   0.323  0.6760 -0.0926 -0.1703
 2731TIP3    H1 8199   5.054   3.883   0.410  0.1054 -0.5625  0.1890
 2731TIP3    H2 8200   4.995   3.940   0.283  0.9181  0.1269  0.1082
 2732TIP3   OH2 8201   6.204   5.300   0.924  0.2136 -0.1989 -0.5566
 2732TIP3    H1 8202   6.285   5.264   0.887 -0.1540 -0.7965 -0.7845
 2732TIP3    H2 8203   6.148   5.316   0.848 -0.2097 -0.6016 -0.3337
 2733TIP3   OH2 8204   5.707   2.880   1.919  0.1054  0.1062 -0.5008
 2733TIP3    H1 8205   5.746   2.864   1.834  0.5353 -2.0883  0.0331
 2733TIP3    H2 8206   5.671   2.795   1.945 -2.9862  1.4558  0.0717
 2734TIP3   OH2 8207   0.339   5.757   5.043 -0.3771  0.2116 -0.2538
 2734TIP3    H1 8208   0.420   5.795   5.076  0.0412  1.9267 -2.9618
 2734TIP3    H2 8209   0.331   5.674   5.089  0.9651  1.6156  2.7644
 2735TIP3   OH2 8210   6.130   4.406   3.365 -0.2077  0.0394  0.3342
 2735TIP3    H1 8211   6.177   4.341   3.417 -0.0869 -0.6359 -0.5849
 2735TIP3    H2 8212   6.170   4.490   3.388 -1.3571  0.0177  2.6661
 2736TIP3   OH2 8213   5.980   0.208   4.660 -0.0130 -0.0328  0.4511
 2736TIP3    H1 8214   6.074   0.205   4.674 -0.2437  1.1623  2.6261
 2736TIP3    H2 8215   5.945   0.144   4.722 -0.7162  0.7053  0.8326
 2737TIP3   OH2 8216   4.021   0.332   0.624 -0.2998  0.3181 -0.1817
 2737TIP3    H1 8217   3.996   0.408   0.572  0.1957 -0.0656 -1.0067
 2737TIP3    H2 8218   3.959   0.263   0.598  0.1151  0.0484 -0.4718
 2738TIP3   OH2 8219   6.146   4.732   0.314 -0.9986 -0.1724  0.3768
 2738TIP3    H1 8220   6.181   4.770   0.394 -0.6120 -1.0385  0.6258
 2738TIP3    H2 8221   6.052   4.727   0.329 -0.9332 -0.2722  0.7460
 2739TIP3   OH2 8222   4.727   5.354   2.591  0.1175 -0.1851 -0.4573
 2739TIP3    H1 8223   4.796   5.370   2.656 -0.1549 -0.7043 -0.0300
 2739TIP3    H2 8224   4.692   5.268   2.615 -0.3371 -0.1477 -0.9833
 2740TIP3   OH2 8225   4.145   2.614   1.431  0.1836 -0.3049  0.0244
 2740TIP3    H1 8226   4.227   2.571   1.408  1.7506  2.4798 -0.0105
 2740TIP3    H2 8227   4.098   2.623   1.348 -1.9095 -4.8006  0.3922
 2741TIP3   OH2 8228   3.926   0.622   0.127  0.0258 -0.0471 -0.0419
 2741TIP3    H1 8229   3.922   0.544   0.181  0.4534  1.5220  2.4250
 2741TIP3    H2 8230   4.004   0.669   0.157  0.1810  1.0141 -1.9213
 2742TIP3   OH2 8231   4.435   1.772   0.880 -0.3633  0.1697  0.2430
 2742TIP3    H1 8232   4.482   1.696   0.847  0.6331  0.7614  0.2876
 2742TIP3    H2 8233   4.377   1.797   0.808  0.5800  0.4356 -0.4369
 2743TIP3   OH2 8234   3.416   1.487   3.816  0.5035 -0.2201  0.2299
 2743TIP3    H1 8235   3.325   1.511   3.830  0.3391 -0.7208  0.0466
 2743TIP3    H2 8236   3.437   1.524   3.730  0.9141  1.1318  0.8867
 2744TIP3   OH2 8237   2.828   2.627   3.666 -0.2347 -0.5058 -0.0115
 2744TIP3    H1 8238   2.784   2.661   3.588 -0.4930  0.2428  0.4550
 2744TIP3    H2 8239   2.757   2.603   3.726 -0.0959  2.8548  1.6815
 2745TIP3   OH2 8240   3.447   1.092   2.756  0.0059  0.2705  0.1246
 2745TIP3    H1 8241   3.512   1.130   2.815  0.5404 -1.4609  0.7076
 2745TIP3    H2 8242   3.498   1.057   2.683 -0.2263 -1.1320  0.6031
 2746TIP3   OH2 8243   1.944   0.046   5.035 -0.1756  0.3674 -0.0825
 2746TIP3    H1 8244   2.034   0.044   5.001 -1.2224  0.7695 -3.1267
 2746TIP3    H2 8245   1.896  -0.016   4.981 -2.0613  1.3330  0.3993
 2747TIP3   OH2 8246   0.820   1.923   5.183  0.3178  0.4791  0.3976
 2747TIP3    H1 8247   0.828   1.833   5.216  0.6476 -0.3116 -1.6804
 2747TIP3    H2 8248   0.740   1.922   5.130 -0.1360  1.6552  1.0399
 2748TIP3   OH2 8249   2.388   1.925   0.510  0.3606  0.2698 -0.0061
 2748TIP3    H1 8250   2.343   1.850   0.549 -1.5132  0.7195 -1.1669
 2748TIP3    H2 8251   2.382   1.910   0.416 -1.1512  2.4200 -0.3296
 2749TIP3   OH2 8252   2.268   0.373   3.448  0.0759 -0.1972 -0.5252
 2749TIP3    H1 8253   2.185   0.339   3.414  0.2014 -0.4561 -0.5753
 2749TIP3    H2 8254   2.322   0.295   3.461 -0.0644 -0.1326  0.5475
 2750TIP3   OH2 8255   1.144   1.812   1.111 -0.1093  0.5665  0.3800
 2750TIP3    H1 8256   1.091   1.857   1.177 -1.2744 -0.6687  0.3278
 2750TIP3    H2 8257   1.161   1.879   1.045 -2.4587  0.7775 -0.0818
 2751TIP3   OH2 8258   6.014   3.449   1.050 -0.2982  0.2803 -0.1432
 2751TIP3    H1 8259   6.005   3.464   1.144  2.8852  1.1995  0.1509
 2751TIP3    H2 8260   5.925   3.458   1.015 -1.3210  1.6827  2.5299
 2752TIP3   OH2 8261   5.146   3.338   1.054 -0.3990 -0.2260 -0.3009
 2752TIP3    H1 8262   5.168   3.294   0.971 -2.3531 -1.0585 -0.4175
 2752TIP3    H2 8263   5.124   3.267   1.114  0.7391  0.3866  0.8917
 2753TIP3   OH2 8264   4.932   1.397   3.537 -0.3130 -0.1527 -0.2928
 2753TIP3    H1 8265   4.851   1.448   3.531  0.2451  1.0068  1.2747
 2753TIP3    H2 8266   4.908   1.321   3.591  0.2839  1.8403  3.0652
 2754TIP3   OH2 8267   1.534   5.873   4.743  0.0474 -0.1427  0.1073
 2754TIP3    H1 8268   1.532   5.801   4.806  0.5603 -0.5249 -0.2994
 2754TIP3    H2 8269   1.558   5.832   4.660  0.3135  0.4857 -0.1381
 2755TIP3   OH2 8270   3.862   2.119   1.272  0.2337 -0.0171  0.0801
 2755TIP3    H1 8271   3.934   2.140   1.213 -0.5751  1.5361 -0.4304
 2755TIP3    H2 8272   3.822   2.204   1.293 -2.8014 -0.8859 -1.4674
 2756TIP3   OH2 8273   3.582   2.410   0.421 -0.0849 -0.2130  0.6296
 2756TIP3    H1 8274   3.495   2.400   0.461  0.0337 -0.1621  0.9047
 2756TIP3    H2 8275   3.572   2.377   0.332 -0.0745 -1.3799  1.0418
 2757TIP3   OH2 8276   1.139   3.366   2.188  0.4677 -0.0074  0.3485
 2757TIP3    H1 8277   1.076   3.425   2.146  0.4670  0.4461  0.9834
 2757TIP3    H2 8278   1.209   3.424   2.219  0.1694 -0.2521  1.5277
 2758TIP3   OH2 8279   5.905   2.056   0.825  0.0054 -0.1857  0.2709
 2758TIP3    H1 8280   5.922   2.138   0.779  1.2956 -1.2440 -1.2351
 2758TIP3    H2 8281   5.817   2.030   0.797 -1.1912  1.5407  2.1887
 2759TIP3   OH2 8282   2.963   1.800   3.089 -0.0303  0.5480 -0.0963
 2759TIP3    H1 8283   3.008   1.852   3.022 -0.0199 -1.9715 -2.2359
 2759TIP3    H2 8284   2.906   1.741   3.039  0.1986 -1.6976  2.0724
 2760TIP3   OH2 8285   4.942   5.023   0.605 -0.9066  0.1034 -0.0408
 2760TIP3    H1 8286   4.902   5.043   0.520  0.2269  0.1062 -0.5911
 2760TIP3    H2 8287   5.017   5.081   0.611 -0.1641 -0.8691  0.3352
 2761TIP3   OH2 8288   2.389   5.536   1.583  0.2501 -0.0605  0.0245
 2761TIP3    H1 8289   2.299   5.541   1.615 -0.7341  0.4629 -2.5773
 2761TIP3    H2 8290   2.430   5.616   1.615  0.0857 -0.7137  1.9616
 2762TIP3   OH2 8291   3.875   5.401   4.752  0.8140  0.2310 -0.0695
 2762TIP3    H1 8292   3.839   5.490   4.753  0.7439  0.2074 -0.3109
 2762TIP3    H2 8293   3.896   5.382   4.843 -1.7402 -0.5564  0.4309
 2763TIP3   OH2 8294   4.230   1.044   0.623 -0.4056 -0.6081 -0.1138
 2763TIP3    H1 8295   4.321   1.071   0.609 -1.2777  1.6024 -2.1345
 2763TIP3    H2 8296   4.223   0.959   0.578  0.5861 -0.6995 -0.1182
 2764TIP3   OH2 8297   3.891   2.309   1.619  0.4640  0.0437 -0.1575
 2764TIP3    H1 8298   3.951   2.379   1.646  1.1716 -0.8865  0.7299
 2764TIP3    H2 8299   3.948   2.241   1.583 -0.0583 -0.8203  0.6153
 2765TIP3   OH2 8300   1.444   4.180   3.283 -0.5623 -0.4043  0.4541
 2765TIP3    H1 8301   1.499   4.110   3.317  0.2155  0.3978  0.8982
 2765TIP3    H2 8302   1.483   4.203   3.199  0.3336  0.7416  1.1510
 2766TIP3   OH2 8303   1.950   3.971   5.049  0.0427 -0.0789  0.1004
 2766TIP3    H1 8304   1.948   4.042   5.113  0.1066  1.3017 -1.3601
 2766TIP3    H2 8305   2.000   4.006   4.976  0.6105 -1.8789 -0.4234
 2767TIP3   OH2 8306   4.593   0.135   0.906  0.0921  0.2599  0.8804
 2767TIP3    H1 8307   4.504   0.112   0.932 -0.0024 -0.0419  0.3022
 2767TIP3    H2 8308   4.640   0.146   0.989 -0.2330 -0.5600  1.1902
 2768TIP3   OH2 8309   0.598   4.053   5.147 -0.3041 -0.2341  0.6664
 2768TIP3    H1 8310   0.672   4.065   5.088  1.3955 -0.6984  2.5971
 2768TIP3    H2 8311   0.522   4.081   5.096  1.1674  0.2085 -1.4102
 2769TIP3   OH2 8312   3.914   3.526   4.104 -0.0228  0.0769 -0.6220
 2769TIP3    H1 8313   3.923   3.511   4.010 -2.4303 -0.2336 -0.8716
 2769TIP3    H2 8314   3.914   3.622   4.112 -0.9261  0.1357 -1.1187
 2770TIP3   OH2 8315   4.041   0.445   1.082  0.0995  0.4386 -0.2234
 2770TIP3    H1 8316   4.101   0.457   1.008  2.3375  1.0581  1.5641
 2770TIP3    H2 8317   4.080   0.375   1.134 -0.8806  0.6646  0.8765
 2771TIP3   OH2 8318   2.869   4.025   2.284  0.2095  0.0666  0.6164
 2771TIP3    H1 8319   2.821   4.083   2.345  0.9560 -0.0612  1.3401
 2771TIP3    H2 8320   2.945   3.996   2.334  0.7381 -0.1963 -0.3285
 2772TIP3   OH2 8321   4.089   0.764   5.095  0.3860 -0.2387 -0.1967
 2772TIP3    H1 8322   4.182   0.741   5.094  1.1525  2.5205 -0.1796
 2772TIP3    H2 8323   4.068   0.785   5.005 -0.0176 -0.0963 -0.0721
 2773TIP3   OH2 8324   2.387   2.105   4.242  0.2539 -0.6616  0.1864
 2773TIP3    H1 8325   2.478   2.107   4.211  0.9713 -0.5428  2.1828
 2773TIP3    H2 8326   2.382   2.177   4.305 -1.3745 -0.3745 -0.2234
 2774TIP3   OH2 8327   6.357   5.090   4.890 -0.4869 -0.2313 -0.4397
 2774TIP3    H1 8328   6.368   5.132   4.805 -1.1350 -0.1167 -0.4693
 2774TIP3    H2 8329   6.271   5.118   4.921 -0.3850 -0.5071  0.1221
 2775TIP3   OH2 8330   5.765   2.661   1.286  0.4261 -0.1025 -0.0309
 2775TIP3    H1 8331   5.745   2.568   1.296  1.0676 -0.1356  1.0446
 2775TIP3    H2 8332   5.781   2.671   1.192  1.1614 -1.2567 -0.0618
 2776TIP3   OH2 8333   0.260   2.859   3.258 -0.2784 -0.0540  0.0162
 2776TIP3    H1 8334   0.208   2.932   3.291  0.3635  0.8474 -0.8932
 2776TIP3    H2 8335   0.221   2.837   3.173 -1.0373 -1.4001  0.6839
 2777TIP3   OH2 8336   2.660   2.892   4.191  0.3454 -0.0608  0.5642
 2777TIP3    H1 8337   2.710   2.843   4.126 -1.0341 -1.1598  0.2929
 2777TIP3    H2 8338   2.709   2.974   4.202  1.1629 -0.2891 -1.0863
 2778TIP3   OH2 8339   1.020   4.067   2.955  0.1794  0.4583 -1.0607
 2778TIP3    H1 8340   1.075   4.098   2.884  0.3410 -0.9572 -1.5909
 2778TIP3    H2 8341   1.049   3.977   2.971  0.5531  0.9162  1.2100
 2779TIP3   OH2 8342   4.412   0.375   4.333  0.3931  0.4124 -0.4350
 2779TIP3    H1 8343   4.383   0.347   4.245 -1.2148  0.9359 -0.1112
 2779TIP3    H2 8344   4.393   0.299   4.389 -2.3490  1.3785  0.1273
 2780TIP3   OH2 8345   5.447   4.856   2.413 -0.9709  0.1684 -0.3279
 2780TIP3    H1 8346   5.411   4.773   2.382 -1.3852  0.6143 -1.0520
 2780TIP3    H2 8347   5.371   4.907   2.440 -0.6235 -0.2240  1.5236
 2781TIP3   OH2 8348   3.916   4.388   0.965  0.3882 -0.2000  0.0248
 2781TIP3    H1 8349   3.940   4.354   1.051  0.2524 -0.7631 -0.1574
 2781TIP3    H2 8350   3.876   4.313   0.920 -2.1893  0.7887  0.4918
 2782TIP3   OH2 8351   5.520   2.680   0.913 -0.2871 -0.3813  0.2119
 2782TIP3    H1 8352   5.596   2.623   0.929 -0.1751  0.3256  2.5991
 2782TIP3    H2 8353   5.444   2.623   0.925 -0.1502 -0.6518 -0.2043
 2783TIP3   OH2 8354   2.543   3.474   2.951  0.1381  0.0135  0.2221
 2783TIP3    H1 8355   2.540   3.436   2.864  0.1558 -0.6355  0.5005
 2783TIP3    H2 8356   2.594   3.412   3.003  1.1025  0.9544  0.4282
 2784TIP3   OH2 8357   3.498   3.095   4.799  0.7217  0.1027  0.4932
 2784TIP3    H1 8358   3.494   3.184   4.834 -1.4421  0.4090 -0.4105
 2784TIP3    H2 8359   3.488   3.039   4.876  2.1867  0.6118  1.0784
 2785TIP3   OH2 8360   1.353   1.640   1.063 -0.1767  0.0625 -0.1339
 2785TIP3    H1 8361   1.274   1.693   1.076 -1.3459 -1.5572 -0.2949
 2785TIP3    H2 8362   1.321   1.560   1.021  1.7702 -0.0505 -1.4984
 2786TIP3   OH2 8363   6.258   0.101   0.177 -0.2557 -0.1016  0.3811
 2786TIP3    H1 8364   6.246   0.007   0.160 -1.0245  0.2163 -0.9536
 2786TIP3    H2 8365   6.170   0.137   0.175  0.0140  0.6244  1.1738
 2787TIP3   OH2 8366   1.396   5.896   1.579  0.3801  0.4041 -0.0294
 2787TIP3    H1 8367   1.325   5.894   1.515  1.3102  0.6719 -1.0965
 2787TIP3    H2 8368   1.464   5.839   1.542  0.8096  0.3147  0.8663
 2788TIP3   OH2 8369   1.578   4.868   1.771  0.5316 -0.2532 -0.2978
 2788TIP3    H1 8370   1.539   4.943   1.725  2.2785  0.1123 -1.2568
 2788TIP3    H2 8371   1.510   4.800   1.766 -1.2662  1.3466  0.9723
 2789TIP3   OH2 8372   0.435   5.499   3.803  0.4178  0.0676  0.0822
 2789TIP3    H1 8373   0.409   5.533   3.717  2.7035 -1.1563 -1.1620
 2789TIP3    H2 8374   0.507   5.556   3.831 -0.0791  0.2415  1.0799
 2790TIP3   OH2 8375   0.272   2.906   1.426 -0.4824  0.6505 -0.5110
 2790TIP3    H1 8376   0.262   2.843   1.498  0.5257 -0.2034 -1.0799
 2790TIP3    H2 8377   0.271   2.851   1.347  0.7920  1.2916 -0.9997
 2791TIP3   OH2 8378   0.211   3.577   1.630  0.7274 -0.9629  0.1890
 2791TIP3    H1 8379   0.218   3.671   1.648  0.7466 -0.6635 -1.1963
 2791TIP3    H2 8380   0.159   3.542   1.702  0.4166  0.1870  0.5468
 2792TIP3   OH2 8381   0.103   2.382   4.853 -0.6232  0.2009  0.9211
 2792TIP3    H1 8382   0.094   2.406   4.945  0.5910  0.6424  0.9393
 2792TIP3    H2 8383   0.028   2.423   4.810 -0.4273  1.1895  1.4940
 2793TIP3   OH2 8384   4.551   2.898   1.083  0.2180 -0.1876 -0.3942
 2793TIP3    H1 8385   4.624   2.893   1.145 -1.5004 -0.3175  1.7755
 2793TIP3    H2 8386   4.535   2.991   1.071 -0.0113 -0.1527  0.1315
 2794TIP3   OH2 8387   2.241   0.246   5.130  0.1534  0.0791 -0.2476
 2794TIP3    H1 8388   2.197   0.289   5.056  0.0233  1.0231  0.3721
 2794TIP3    H2 8389   2.328   0.226   5.097 -0.2126 -0.3858 -0.9691
 2795TIP3   OH2 8390   5.957   4.427   1.843  0.2914 -0.3501  0.2959
 2795TIP3    H1 8391   5.944   4.491   1.912  1.4359  1.0295 -0.6953
 2795TIP3    H2 8392   5.869   4.396   1.821 -0.1288 -0.4041  1.9422
 2796TIP3   OH2 8393   1.021   4.231   0.678  0.2716 -0.2477 -0.2393
 2796TIP3    H1 8394   0.978   4.226   0.593  1.9623 -1.2376 -1.0954
 2796TIP3    H2 8395   1.010   4.322   0.705 -1.1129 -0.1370 -1.0399
 2797TIP3   OH2 8396   2.448   3.221   1.120  0.3428  0.1753 -0.0203
 2797TIP3    H1 8397   2.524   3.270   1.086 -1.2398  1.2421 -2.2498
 2797TIP3    H2 8398   2.451   3.138   1.073 -0.4862  0.6956 -1.0432
 2798TIP3   OH2 8399   2.419   5.906   4.507  0.0649 -0.0696 -0.3460
 2798TIP3    H1 8400   2.345   5.965   4.514 -0.3210 -0.5099 -0.6375
 2798TIP3    H2 8401   2.458   5.927   4.422  1.2089  1.2124  0.4461
 2799TIP3   OH2 8402   2.921   5.221   1.331 -0.3491  0.6091  0.1802
 2799TIP3    H1 8403   2.989   5.155   1.344  0.5895  1.2019 -1.4403
 2799TIP3    H2 8404   2.867   5.186   1.260 -0.0478  1.4066 -0.4558
 2800TIP3   OH2 8405   4.421   5.244   0.976 -0.3693 -0.6139  0.5725
 2800TIP3    H1 8406   4.454   5.250   0.887 -0.7681  1.1046  0.5226
 2800TIP3    H2 8407   4.328   5.265   0.970 -0.3268 -0.1128  1.4402
 2801TIP3   OH2 8408   3.550   2.899   0.078 -0.3114  0.0392 -0.1757
 2801TIP3    H1 8409   3.592   2.867  -0.002  0.7242  2.4954 -0.6961
 2801TIP3    H2 8410   3.490   2.967   0.049 -0.2543  0.6722  1.0896
 2802TIP3   OH2 8411   4.447   2.826   3.352 -0.2173  0.9110  0.2380
 2802TIP3    H1 8412   4.386   2.757   3.375  0.5021  0.5204  1.0652
 2802TIP3    H2 8413   4.457   2.877   3.433 -0.1474  1.5154 -0.1426
 2803TIP3   OH2 8414   5.458   2.398   2.180 -0.0846 -0.2359  0.3162
 2803TIP3    H1 8415   5.469   2.310   2.214 -1.5478 -0.5112  0.1535
 2803TIP3    H2 8416   5.469   2.389   2.085 -0.1789 -0.2391  0.3053
 2804TIP3   OH2 8417   2.287   1.064   4.085 -0.1285 -0.3297  0.4341
 2804TIP3    H1 8418   2.279   1.150   4.127 -0.4618 -0.6670  1.0758
 2804TIP3    H2 8419   2.296   1.002   4.157  0.1902 -0.8334 -0.0253
 2805TIP3   OH2 8420   0.853   2.602   3.597 -0.1907 -0.3362 -0.3648
 2805TIP3    H1 8421   0.933   2.549   3.601  0.3857  0.5575  0.6267
 2805TIP3    H2 8422   0.885   2.692   3.591 -1.1526 -0.0664 -1.8593
 2806TIP3   OH2 8423   3.279   5.391   0.012 -0.0906 -0.2047  0.0929
 2806TIP3    H1 8424   3.289   5.459   0.078 -0.5019  1.2562 -1.2921
 2806TIP3    H2 8425   3.348   5.409  -0.052 -0.7335 -0.5480 -0.7233
 2807TIP3   OH2 8426   1.608   1.140   1.629  0.6929  0.6878 -0.1438
 2807TIP3    H1 8427   1.571   1.200   1.694  1.9826  0.4416  0.8791
 2807TIP3    H2 8428   1.701   1.138   1.649  0.7644 -1.2743 -0.4537
 2808TIP3   OH2 8429   5.598   4.196   3.880  0.7062 -0.7497 -0.8461
 2808TIP3    H1 8430   5.558   4.119   3.921  2.7140 -1.2711  0.2386
 2808TIP3    H2 8431   5.629   4.163   3.795  1.2374 -1.0555 -0.5378
 2809TIP3   OH2 8432   0.265   2.654   3.444 -0.4252 -0.5725  0.2315
 2809TIP3    H1 8433   0.184   2.652   3.495 -0.1157  0.5534  0.8179
 2809TIP3    H2 8434   0.250   2.721   3.378  0.9605  1.7606  2.1056
 2810TIP3   OH2 8435   0.240   2.196   0.546 -0.0371 -0.3576  0.2655
 2810TIP3    H1 8436   0.231   2.254   0.471  0.5747 -0.9865 -0.3100
 2810TIP3    H2 8437   0.332   2.204   0.571 -0.3352  0.1959  1.2484
 2811TIP3   OH2 8438   0.997   3.433   0.217  0.0653  0.0318  0.2495
 2811TIP3    H1 8439   1.070   3.448   0.158  0.7588 -1.6322  0.6522
 2811TIP3    H2 8440   1.004   3.504   0.282 -0.4747  1.6486 -1.3543
 2812TIP3   OH2 8441   6.107   4.778   1.365 -0.0152 -0.0985 -0.2926
 2812TIP3    H1 8442   6.178   4.728   1.405  0.4208 -0.1866 -1.1500
 2812TIP3    H2 8443   6.150   4.853   1.325 -0.4963  0.2245 -0.2140
 2813TIP3   OH2 8444   4.870   3.194   1.741  0.4756 -0.2412  0.5851
 2813TIP3    H1 8445   4.806   3.248   1.694  0.7015  0.1344  0.7068
 2813TIP3    H2 8446   4.907   3.253   1.806 -0.1743 -0.8868  1.5539
 2814TIP3   OH2 8447   4.557   3.366   3.525  0.2004 -0.0342 -0.1944
 2814TIP3    H1 8448   4.637   3.368   3.471  0.6574 -2.8231  0.2509
 2814TIP3    H2 8449   4.584   3.406   3.608  0.8581 -0.1264 -0.3558
 2815TIP3   OH2 8450   1.978   5.127   0.717 -0.6289  0.2313 -0.2182
 2815TIP3    H1 8451   1.937   5.108   0.632  0.9694  0.8900 -1.1834
 2815TIP3    H2 8452   1.998   5.041   0.754 -1.5329 -0.0693 -0.4005
 2816TIP3   OH2 8453   3.602   5.391   1.022  0.1336  0.0044 -0.0220
 2816TIP3    H1 8454   3.541   5.337   1.073 -2.2662  2.3125 -0.2568
 2816TIP3    H2 8455   3.604   5.350   0.936  0.3047 -1.0790  0.4790
 2817TIP3   OH2 8456   1.214   2.728   1.611  0.4649  0.2560 -0.3774
 2817TIP3    H1 8457   1.223   2.751   1.518 -1.6087  1.6728 -0.2945
 2817TIP3    H2 8458   1.298   2.752   1.650  1.2254  0.0169 -1.8122
 2818TIP3   OH2 8459   3.500   4.823   0.585 -0.0086  0.0930  0.2823
 2818TIP3    H1 8460   3.481   4.751   0.646 -0.1038 -0.4405 -0.3600
 2818TIP3    H2 8461   3.483   4.786   0.498  0.5304  0.7087 -0.0994
 2819TIP3   OH2 8462   4.674   2.436   4.821 -0.0550 -0.2663 -0.2682
 2819TIP3    H1 8463   4.624   2.401   4.896  1.0984  0.3845  0.8427
 2819TIP3    H2 8464   4.635   2.522   4.804  0.7477  0.3131  0.7058
 2820TIP3   OH2 8465   1.057   1.629   4.566 -0.2958  0.2882  0.2109
 2820TIP3    H1 8466   0.979   1.586   4.530  0.0964 -0.2873  0.0394
 2820TIP3    H2 8467   1.041   1.633   4.660 -0.5211  0.1423  0.1802
 2821TIP3   OH2 8468   4.146   1.401   1.692 -0.2824 -0.2158  0.0809
 2821TIP3    H1 8469   4.175   1.490   1.671 -2.4825  0.8452  1.1469
 2821TIP3    H2 8470   4.209   1.344   1.648  1.7609  1.8452  0.1250
 2822TIP3   OH2 8471   5.839   0.745   4.839  0.0936 -0.2354  0.2678
 2822TIP3    H1 8472   5.754   0.712   4.807 -0.9243  3.0516 -0.8499
 2822TIP3    H2 8473   5.892   0.753   4.760  0.2540  0.8263  0.4745
 2823TIP3   OH2 8474   1.882   4.807   0.237  0.3233  0.0219  0.1685
 2823TIP3    H1 8475   1.860   4.900   0.250 -0.7123 -0.4003  1.7080
 2823TIP3    H2 8476   1.955   4.791   0.296  0.1404 -0.2633  0.3194
 2824TIP3   OH2 8477   4.404   3.946   3.141 -0.1300 -0.1077 -0.8305
 2824TIP3    H1 8478   4.398   3.983   3.053  1.7272 -0.9671 -1.3732
 2824TIP3    H2 8479   4.450   3.863   3.129 -1.8779 -1.3769  0.6769
 2825TIP3   OH2 8480   0.829   3.346   5.116 -0.0642 -0.3114  0.7303
 2825TIP3    H1 8481   0.783   3.415   5.068 -0.0354 -0.9606 -0.2635
 2825TIP3    H2 8482   0.922   3.361   5.097 -0.1327 -1.3541 -0.5300
 2826TIP3   OH2 8483   0.039   0.934   3.776 -0.0832  0.3425 -0.3728
 2826TIP3    H1 8484   0.064   0.914   3.866 -0.2707  0.4410 -0.2989
 2826TIP3    H2 8485  -0.023   1.006   3.784 -2.2748 -1.4372 -0.3662
 2827TIP3   OH2 8486   4.056   1.521   2.355  0.1813  0.2235  0.0531
 2827TIP3    H1 8487   4.142   1.487   2.328 -0.5215 -0.6135 -1.2318
 2827TIP3    H2 8488   4.041   1.596   2.297 -0.0791  0.2121  0.1083
 2828TIP3   OH2 8489   3.844   0.939   0.002 -0.4740 -0.6068  0.2501
 2828TIP3    H1 8490   3.800   0.974   0.079  0.0863 -0.1441  0.3596
 2828TIP3    H2 8491   3.777   0.943  -0.067 -0.9166 -0.8512  0.6587
 2829TIP3   OH2 8492   4.089   4.066   1.782  0.5971  0.3316 -0.1580
 2829TIP3    H1 8493   4.090   4.134   1.850 -0.8641 -0.5548  0.8005
 2829TIP3    H2 8494   4.080   4.115   1.700 -1.4937  1.3009  0.5935
 2830TIP3   OH2 8495   3.612   5.320   4.921 -0.1988 -0.2759 -0.1277
 2830TIP3    H1 8496   3.582   5.274   4.842  0.2761 -0.4516 -0.2075
 2830TIP3    H2 8497   3.652   5.401   4.888 -1.1571  0.2752  0.0209
 2831TIP3   OH2 8498   3.830   0.696   4.861  0.2402 -0.0042  0.8205
 2831TIP3    H1 8499   3.826   0.619   4.803 -0.8002  1.1800 -0.7677
 2831TIP3    H2 8500   3.771   0.673   4.933  0.3278 -0.8944  0.6302
 2832TIP3   OH2 8501   5.050   4.274   5.100  0.1119  0.3793 -0.1832
 2832TIP3    H1 8502   4.971   4.325   5.083  0.5073  0.8997 -0.5143
 2832TIP3    H2 8503   5.066   4.284   5.193 -1.3640 -1.4433  0.3259
 2833TIP3   OH2 8504   3.753   2.505   3.403  0.5165  0.0442  0.3866
 2833TIP3    H1 8505   3.813   2.507   3.328 -0.6853 -0.6110 -0.6251
 2833TIP3    H2 8506   3.699   2.428   3.388 -1.6897  1.5217  0.3826
 2834TIP3   OH2 8507   0.583   4.766   0.357  0.3702 -0.1104  0.2898
 2834TIP3    H1 8508   0.615   4.832   0.418  0.1936 -1.0141  1.3892
 2834TIP3    H2 8509   0.509   4.808   0.313 -0.5061  0.0274  1.8320
 2835TIP3   OH2 8510   1.965   0.569   1.597 -0.0255 -0.2340  0.1596
 2835TIP3    H1 8511   2.033   0.524   1.547 -0.1879  0.3311 -0.5827
 2835TIP3    H2 8512   1.883   0.536   1.560 -0.1451  0.3898 -0.1384
 2836TIP3   OH2 8513   1.762   2.436   0.316  0.2839 -0.9597 -0.2172
 2836TIP3    H1 8514   1.848   2.454   0.353 -1.2283  1.3128  2.6231
 2836TIP3    H2 8515   1.734   2.354   0.358  0.1471 -0.4148  0.8015
 2837TIP3   OH2 8516   5.303   1.990   0.466 -0.2228 -0.4288 -0.2602
 2837TIP3    H1 8517   5.312   2.085   0.469 -2.6905 -0.0760 -1.1414
 2837TIP3    H2 8518   5.241   1.969   0.536  1.0304 -1.5367  0.5608
 2838TIP3   OH2 8519   1.285   3.090   4.481 -0.0369 -0.1302  0.4081
 2838TIP3    H1 8520   1.347   3.105   4.553 -0.6109 -1.9727  1.3392
 2838TIP3    H2 8521   1.326   3.131   4.405  2.2169 -1.1038  1.0357
 2839TIP3   OH2 8522   2.711   2.110   3.202 -0.1047  0.2754  0.3224
 2839TIP3    H1 8523   2.733   2.164   3.126  2.3007 -1.2269 -0.1686
 2839TIP3    H2 8524   2.771   2.139   3.271 -1.1168  0.4946  1.1372
 2840TIP3   OH2 8525   3.134   0.629   4.296  0.4259  0.3058  0.4861
 2840TIP3    H1 8526   3.207   0.692   4.297  1.2105 -0.5761  0.4702
 2840TIP3    H2 8527   3.131   0.597   4.206  0.4008 -0.0901  0.6252
 2841TIP3   OH2 8528   5.338   1.442   5.093  0.5587  0.4212 -0.0118
 2841TIP3    H1 8529   5.306   1.484   5.014 -1.7591  0.5326  0.9287
 2841TIP3    H2 8530   5.403   1.503   5.128 -0.4397  1.7205 -0.3549
 2842TIP3   OH2 8531   0.280   5.918   4.125  0.1184 -1.1350  0.9959
 2842TIP3    H1 8532   0.375   5.926   4.128  0.0761 -0.7031  1.3272
 2842TIP3    H2 8533   0.252   5.933   4.215 -0.2864 -0.9584  0.8418
 2843TIP3   OH2 8534   5.154   5.201   0.602 -0.6549  0.2371  0.4298
 2843TIP3    H1 8535   5.166   5.292   0.627 -2.0853  0.2564  1.1491
 2843TIP3    H2 8536   5.167   5.199   0.507  1.7290  0.7395  0.6840
 2844TIP3   OH2 8537   0.058   3.706   3.287  0.5811  0.3533  0.4254
 2844TIP3    H1 8538   0.028   3.635   3.230 -1.3653  0.2857  1.4360
 2844TIP3    H2 8539   0.007   3.782   3.259  2.3668  1.3030 -0.3926
 2845TIP3   OH2 8540   2.087   5.578   4.832 -0.5251 -0.8536 -0.1064
 2845TIP3    H1 8541   2.166   5.542   4.793 -0.8107 -0.9675 -0.5809
 2845TIP3    H2 8542   2.118   5.654   4.882  0.0418 -1.6012  0.7058
 2846TIP3   OH2 8543   2.070   3.677   4.752 -0.1383 -0.3489 -0.2461
 2846TIP3    H1 8544   2.110   3.621   4.818  0.0085 -0.8923 -0.7852
 2846TIP3    H2 8545   2.104   3.764   4.770 -0.6772 -0.3440  0.8524
 2847TIP3   OH2 8546   0.372   4.096   0.001  0.2582 -0.3836  0.1400
 2847TIP3    H1 8547   0.431   4.070   0.071  2.1639  1.3507 -0.7111
 2847TIP3    H2 8548   0.380   4.191  -0.004 -1.3757 -0.2510 -1.1266
 2848TIP3   OH2 8549   3.518   4.414   3.958  0.1902 -0.0077  0.2011
 2848TIP3    H1 8550   3.460   4.442   3.887  0.5951  1.8645  0.5442
 2848TIP3    H2 8551   3.602   4.456   3.939  0.9927 -1.3977  0.5539
 2849TIP3   OH2 8552   2.911   3.099   0.806  0.2666 -0.1710 -0.0452
 2849TIP3    H1 8553   2.952   3.108   0.719 -0.1374 -2.2390 -0.5081
 2849TIP3    H2 8554   2.819   3.080   0.787  0.2306 -0.8945  0.8165
 2850TIP3   OH2 8555   4.529   2.131   0.659 -0.4616 -0.1149 -0.5417
 2850TIP3    H1 8556   4.583   2.135   0.738 -0.1051 -1.4233 -0.6919
 2850TIP3    H2 8557   4.590   2.108   0.589 -0.7133  1.3589 -1.2891
 2851TIP3   OH2 8558   1.333   0.123   3.980  0.0575  0.5653  1.1390
 2851TIP3    H1 8559   1.283   0.201   4.003  0.2526  0.8532  0.6159
 2851TIP3    H2 8560   1.414   0.158   3.942  0.0614  0.1087  0.7227
 2852TIP3   OH2 8561   1.330   4.006   3.552 -0.2059 -0.3672  0.0088
 2852TIP3    H1 8562   1.367   4.008   3.463  2.4041  2.9477  0.9757
 2852TIP3    H2 8563   1.269   4.079   3.554  0.1393 -0.1031  1.0934
 2853TIP3   OH2 8564   6.228   2.857   3.428  0.0794 -0.3378  0.9398
 2853TIP3    H1 8565   6.213   2.768   3.461  0.3872  0.3020  2.9888
 2853TIP3    H2 8566   6.146   2.882   3.386 -0.9597 -0.6852  2.6563
 2854TIP3   OH2 8567   1.432   2.752   1.769 -0.5977  0.4713  0.0685
 2854TIP3    H1 8568   1.427   2.847   1.755 -0.2662  0.4677 -0.0647
 2854TIP3    H2 8569   1.477   2.742   1.852  0.4630  0.4022 -0.4966
 2855TIP3   OH2 8570   0.985   5.571   4.689  0.0000  0.2619  0.3834
 2855TIP3    H1 8571   0.973   5.571   4.594  0.4036  0.3566  0.3314
 2855TIP3    H2 8572   1.071   5.610   4.703  0.4853 -0.8640  0.7120
 2856TIP3   OH2 8573   3.447   1.059   0.397  0.1849  0.7360  0.2187
 2856TIP3    H1 8574   3.369   1.027   0.442 -0.7833  2.4059 -0.1998
 2856TIP3    H2 8575   3.433   1.153   0.389  1.4304  0.8150 -1.4483
 2857TIP3   OH2 8576   4.515   0.425   2.264  0.0554  0.4367  0.5569
 2857TIP3    H1 8577   4.535   0.412   2.357 -0.5152  1.3070  0.8157
 2857TIP3    H2 8578   4.601   0.433   2.222  0.3069  1.0890  1.1792
 2858TIP3   OH2 8579   5.511   2.577   2.941  0.1327  0.3858  0.3067
 2858TIP3    H1 8580   5.491   2.594   3.034 -1.1196 -1.2638  0.3979
 2858TIP3    H2 8581   5.565   2.498   2.943 -0.1388  0.1831 -0.3859
 2859TIP3   OH2 8582   0.780   1.244   4.844  0.2839  0.4281  0.0424
 2859TIP3    H1 8583   0.793   1.336   4.868 -1.5566  0.5745  0.6577
 2859TIP3    H2 8584   0.685   1.236   4.830  0.3584 -1.4509  0.3471
 2860TIP3   OH2 8585   5.068   1.812   1.976 -0.5838 -0.1526  0.1148
 2860TIP3    H1 8586   5.134   1.745   1.994 -0.9188 -0.6622 -0.4861
 2860TIP3    H2 8587   5.049   1.802   1.882 -1.9005 -0.3826  0.3786
 2861TIP3   OH2 8588   0.590   3.799   2.118 -0.2089 -0.0790  0.1131
 2861TIP3    H1 8589   0.598   3.882   2.072 -0.3469 -0.4398 -0.5851
 2861TIP3    H2 8590   0.509   3.761   2.084 -0.5014 -0.2002  0.9213
 2862TIP3   OH2 8591   2.075   2.967   1.705 -0.2890 -0.4786  0.5525
 2862TIP3    H1 8592   2.143   2.900   1.702  0.0739 -0.2345  2.3664
 2862TIP3    H2 8593   2.121   3.047   1.732 -0.8896  0.2731 -0.5864
 2863TIP3   OH2 8594   0.518   5.653   3.384  0.0555 -0.2628 -0.4325
 2863TIP3    H1 8595   0.422   5.646   3.382 -0.0329  0.7760 -0.3268
 2863TIP3    H2 8596   0.535   5.726   3.443  0.9962 -1.6375  1.0885
 2864TIP3   OH2 8597   5.358   1.714   0.410 -0.2300  0.1073  0.0563
 2864TIP3    H1 8598   5.360   1.808   0.392  1.9395 -0.0611 -0.9931
 2864TIP3    H2 8599   5.405   1.705   0.493  0.8184 -0.1373 -0.5481
 2865TIP3   OH2 8600   2.486   3.329   0.502  0.0420 -0.5170 -0.2857
 2865TIP3    H1 8601   2.502   3.276   0.424  1.2827  0.2307 -0.5602
 2865TIP3    H2 8602   2.476   3.265   0.573  0.9078 -1.1352 -0.7108
 2866TIP3   OH2 8603   1.884   2.488   4.676 -0.4563 -0.5134 -0.1677
 2866TIP3    H1 8604   1.965   2.528   4.643  0.4871 -2.0682  0.1728
 2866TIP3    H2 8605   1.889   2.500   4.771 -1.7367  1.3196 -0.2661
 2867TIP3   OH2 8606   5.920   3.920   4.050 -0.4068 -0.1460 -0.1730
 2867TIP3    H1 8607   5.852   3.874   4.100 -0.4635 -0.7929 -0.8247
 2867TIP3    H2 8608   5.901   4.013   4.063 -0.8312 -0.3104  0.4375
 2868TIP3   OH2 8609   5.459   0.613   1.398  0.0019 -0.1537 -0.3546
 2868TIP3    H1 8610   5.495   0.524   1.404 -2.3386 -1.0671  1.7738
 2868TIP3    H2 8611   5.532   0.670   1.422  0.9790 -1.6580  0.3746
 2869TIP3   OH2 8612   5.324   1.682   4.074 -0.1869  0.5085 -0.3687
 2869TIP3    H1 8613   5.317   1.777   4.077  1.8210  0.6786 -0.2036
 2869TIP3    H2 8614   5.415   1.663   4.097  0.1567 -1.3196 -2.7953
 2870TIP3   OH2 8615   4.210   2.723   4.282  0.1838 -0.4546  0.6861
 2870TIP3    H1 8616   4.262   2.783   4.228  1.2690 -2.2356 -0.3186
 2870TIP3    H2 8617   4.138   2.778   4.314  1.8938  1.7563  1.0304
 2871TIP3   OH2 8618   1.235   3.249   1.860  0.3248  0.4572  0.3058
 2871TIP3    H1 8619   1.303   3.242   1.927 -0.1658 -1.2812  0.6725
 2871TIP3    H2 8620   1.215   3.343   1.856  2.0959  0.8993  0.8099
 2872TIP3   OH2 8621   4.874   2.487   3.227  0.1294  0.3154 -0.8068
 2872TIP3    H1 8622   4.937   2.420   3.255 -0.9218 -0.5747 -0.5127
 2872TIP3    H2 8623   4.858   2.467   3.134 -0.3054  0.0553 -0.6775
 2873TIP3   OH2 8624   4.598   2.374   4.251  0.1634  0.3552 -0.5383
 2873TIP3    H1 8625   4.621   2.313   4.321  1.2189 -0.4940 -1.5829
 2873TIP3    H2 8626   4.553   2.446   4.295  3.0400  1.1388  1.4328
 2874TIP3   OH2 8627   2.393   3.058   0.584  0.0930  0.2679  0.0531
 2874TIP3    H1 8628   2.344   3.085   0.506  0.5431 -0.0686 -0.3527
 2874TIP3    H2 8629   2.397   2.962   0.577 -1.8490  0.0005  1.6757
 2875TIP3   OH2 8630   1.185   4.493   1.580  0.0017  0.4155  0.2566
 2875TIP3    H1 8631   1.250   4.441   1.533 -0.6514  0.9167 -1.2872
 2875TIP3    H2 8632   1.115   4.431   1.600 -0.5013  0.5304 -1.0364
 2876TIP3   OH2 8633   3.023   0.483   1.464  1.0760 -0.1020 -0.3623
 2876TIP3    H1 8634   3.085   0.472   1.536  1.3526 -0.0066 -0.5830
 2876TIP3    H2 8635   2.947   0.429   1.489  0.5791  1.0043  0.6654
 2877TIP3   OH2 8636   3.753   5.675   3.230 -0.2848  0.3704 -0.1534
 2877TIP3    H1 8637   3.741   5.582   3.212 -1.9274  0.7695 -1.3500
 2877TIP3    H2 8638   3.670   5.703   3.269  0.5498  1.1501  1.1586
 2878TIP3   OH2 8639   0.041   5.667   2.292 -0.6374  0.0316 -0.2897
 2878TIP3    H1 8640  -0.008   5.739   2.253 -0.8896  0.0547  0.0693
 2878TIP3    H2 8641  -0.005   5.588   2.263  0.2817 -0.0599 -1.6051
 2879TIP3   OH2 8642   4.618  -0.017   0.350  0.1671  0.2607  0.1953
 2879TIP3    H1 8643   4.564   0.039   0.405 -2.7667 -1.2590 -0.9171
 2879TIP3    H2 8644   4.602   0.015   0.261  0.2696 -0.8566 -0.2389
 2880TIP3   OH2 8645   2.127   3.718   1.787 -0.5289  0.0988 -0.1945
 2880TIP3    H1 8646   2.064   3.722   1.859  0.6814 -0.8543  0.9620
 2880TIP3    H2 8647   2.212   3.734   1.828  0.0235  1.3364 -1.7129
 2881TIP3   OH2 8648   3.918   0.634   2.500  0.0266  0.4370 -0.0262
 2881TIP3    H1 8649   3.909   0.539   2.507 -2.1948  0.2804 -3.0728
 2881TIP3    H2 8650   3.968   0.647   2.419 -0.7019  1.8317 -0.2751
 2882TIP3   OH2 8651   0.641   0.248   2.929 -0.0789  0.0558  0.2379
 2882TIP3    H1 8652   0.632   0.288   3.015 -0.1400  2.6635 -0.8924
 2882TIP3    H2 8653   0.736   0.240   2.916  0.0338  2.0288 -0.4106
 2883TIP3   OH2 8654   0.687   1.440   2.722  0.1102  0.3682  0.0616
 2883TIP3    H1 8655   0.726   1.476   2.643 -0.6376  1.1343  0.0268
 2883TIP3    H2 8656   0.639   1.362   2.692  1.2837 -0.3777  0.0541
 2884TIP3   OH2 8657   4.686   0.550   0.102 -0.1210 -0.2275  0.0567
 2884TIP3    H1 8658   4.692   0.596   0.018 -2.6120  1.5314  0.7031
 2884TIP3    H2 8659   4.714   0.615   0.167  2.0996 -1.6798  0.6265
 2885TIP3   OH2 8660   4.645   2.375   3.328  0.0859 -0.2616  0.1378
 2885TIP3    H1 8661   4.598   2.432   3.387  3.1135 -0.4027  3.0023
 2885TIP3    H2 8662   4.649   2.423   3.245 -0.0466  2.3189  1.5319
 2886TIP3   OH2 8663   3.357   4.386   4.197  0.5011 -0.1243  0.2599
 2886TIP3    H1 8664   3.395   4.440   4.127  0.2206 -0.0153  0.1943
 2886TIP3    H2 8665   3.303   4.322   4.151  1.0351 -0.6310  0.3172
 2887TIP3   OH2 8666   5.160   3.801   1.240  0.2646 -0.0369 -0.5409
 2887TIP3    H1 8667   5.157   3.786   1.335  0.2923 -0.3112 -0.5817
 2887TIP3    H2 8668   5.196   3.889   1.231  0.1615  0.0336 -0.2921
 2888TIP3   OH2 8669   0.961   0.861   4.720  0.3487 -0.2571  0.3214
 2888TIP3    H1 8670   1.032   0.801   4.744  0.2932  0.1544  1.5600
 2888TIP3    H2 8671   0.881   0.817   4.747  0.3236  0.4638  1.4773
 2889TIP3   OH2 8672   4.100  -0.013   0.563 -0.3662  0.2144 -0.0257
 2889TIP3    H1 8673   4.083   0.064   0.616 -2.2240 -1.1208  1.4650
 2889TIP3    H2 8674   4.020  -0.025   0.511 -0.4830 -1.1712  0.4277
 2890TIP3   OH2 8675   2.295   3.129   0.340 -0.0323  0.5424 -0.2225
 2890TIP3    H1 8676   2.253   3.214   0.356 -0.5779  0.3744 -0.7263
 2890TIP3    H2 8677   2.232   3.081   0.286  1.0511  0.4950 -1.4953
 2891TIP3   OH2 8678   2.307   3.973   2.808 -0.2565 -0.1692  0.1099
 2891TIP3    H1 8679   2.323   4.063   2.781  1.8417 -0.3045  0.6896
 2891TIP3    H2 8680   2.327   3.973   2.902 -0.9666 -1.0927  0.2752
 2892TIP3   OH2 8681   3.978   4.214   0.751 -0.4283  0.3947  0.1697
 2892TIP3    H1 8682   3.959   4.120   0.755  0.6645  0.1858  0.9168
 2892TIP3    H2 8683   4.049   4.227   0.814 -1.1071  1.8640  0.6815
 2893TIP3   OH2 8684   1.472   5.417   5.101  0.1556  0.0727  0.1232
 2893TIP3    H1 8685   1.466   5.512   5.094  0.6410  0.1568  0.7440
 2893TIP3    H2 8686   1.525   5.390   5.026 -0.5776  0.2080 -0.4592
 2894TIP3   OH2 8687   5.339   3.604   0.014  0.0867  0.3151  0.2107
 2894TIP3    H1 8688   5.284   3.620   0.091  0.6824 -3.3419  1.5636
 2894TIP3    H2 8689   5.420   3.651   0.032  0.6515 -1.3648  2.4677
 2895TIP3   OH2 8690   0.758   5.141   4.329 -0.7196  0.0533  0.6321
 2895TIP3    H1 8691   0.745   5.119   4.237 -0.8845  1.2531  0.3569
 2895TIP3    H2 8692   0.673   5.175   4.358 -0.3336  0.8139  0.8896
 2896TIP3   OH2 8693   4.780   2.713   0.515  0.0643 -0.0620 -1.0012
 2896TIP3    H1 8694   4.852   2.692   0.575 -0.6884 -0.4874 -0.2130
 2896TIP3    H2 8695   4.719   2.763   0.568 -1.5613 -2.1340 -0.7901
 2897TIP3   OH2 8696   0.570   0.701   2.148  0.3306 -0.0328  0.3420
 2897TIP3    H1 8697   0.582   0.621   2.097 -0.4639  0.2492 -0.3021
 2897TIP3    H2 8698   0.610   0.770   2.095  1.2376 -0.0327  1.0109
 2898TIP3   OH2 8699   5.892   3.863   0.502 -0.2848 -0.2192  0.4964
 2898TIP3    H1 8700   5.931   3.799   0.561  1.3652  0.3565  0.0753
 2898TIP3    H2 8701   5.882   3.942   0.556 -0.1506 -0.1327  0.3942
 2899TIP3   OH2 8702   3.065   1.704   1.727  0.2087 -0.1964  0.0496
 2899TIP3    H1 8703   3.157   1.693   1.748  0.0520 -0.2619  0.7273
 2899TIP3    H2 8704   3.023   1.726   1.811 -0.5906 -1.4123  0.0001
 2900TIP3   OH2 8705   2.791   1.001   1.142  0.1157  0.1618  0.8476
 2900TIP3    H1 8706   2.712   1.054   1.147 -0.9008 -1.2155 -0.1117
 2900TIP3    H2 8707   2.846   1.046   1.078  2.1098  3.5249  4.4223
 2901TIP3   OH2 8708   0.104   1.212   1.631  0.2630  0.4377  0.2841
 2901TIP3    H1 8709   0.114   1.138   1.691  1.2724  0.0403 -0.3582
 2901TIP3    H2 8710   0.035   1.185   1.571  0.6259  0.0225  0.0529
 2902TIP3   OH2 8711   2.926   0.740   4.604 -0.5381  0.2132  0.4867
 2902TIP3    H1 8712   2.916   0.781   4.518 -0.1803 -1.2956 -0.3210
 2902TIP3    H2 8713   3.020   0.741   4.620 -0.6564  1.0819  1.1869
 2903TIP3   OH2 8714   4.877   5.222   0.413 -0.3134 -0.1534 -0.3092
 2903TIP3    H1 8715   4.785   5.226   0.387  0.1282  0.0164 -1.9544
 2903TIP3    H2 8716   4.924   5.200   0.333  1.1033 -0.0920  0.4703
 2904TIP3   OH2 8717   3.347   1.329   0.100 -0.1261  0.4148 -0.2476
 2904TIP3    H1 8718   3.414   1.283   0.050  0.3816  1.6176 -0.7222
 2904TIP3    H2 8719   3.372   1.316   0.191  1.5448  1.9044 -0.4348
 2905TIP3   OH2 8720   0.652   5.252   0.368  0.1013  0.0483  0.2357
 2905TIP3    H1 8721   0.648   5.342   0.337  0.0967  0.1489  0.5248
 2905TIP3    H2 8722   0.716   5.254   0.439 -0.5978  0.0153  0.8786
 2906TIP3   OH2 8723   4.324   3.693   1.683  0.1418  0.5176 -0.0728
 2906TIP3    H1 8724   4.322   3.647   1.599 -2.1858  0.4655 -0.0626
 2906TIP3    H2 8725   4.263   3.644   1.739  1.9339  0.3062  1.8267
 2907TIP3   OH2 8726   2.755   5.355   4.459 -0.5509 -0.2867  0.1176
 2907TIP3    H1 8727   2.711   5.429   4.417  0.4115 -0.8506 -2.0409
 2907TIP3    H2 8728   2.846   5.360   4.427 -0.8671 -3.4225 -1.6921
 2908TIP3   OH2 8729   4.621   2.588   3.935 -0.3521  0.3970 -0.0070
 2908TIP3    H1 8730   4.537   2.630   3.953 -0.5956  0.4769 -1.2221
 2908TIP3    H2 8731   4.603   2.494   3.942 -0.3832  0.4296  0.3622
 2909TIP3   OH2 8732   2.416   2.097   3.378  0.3654 -0.4889  0.0550
 2909TIP3    H1 8733   2.509   2.094   3.402  0.3082 -0.1276  0.3362
 2909TIP3    H2 8734   2.416   2.129   3.288  0.4187  1.9385  0.8462
 2910TIP3   OH2 8735   0.904   0.653   1.903  0.1907 -0.0992 -0.1275
 2910TIP3    H1 8736   0.958   0.574   1.906  3.4474  1.9505  1.6161
 2910TIP3    H2 8737   0.876   0.667   1.993  1.5919  1.8273  0.0730
 2911TIP3   OH2 8738   4.928   0.697   1.455 -0.0273  0.3336  0.8552
 2911TIP3    H1 8739   5.018   0.699   1.421 -0.4173  1.2113 -0.2113
 2911TIP3    H2 8740   4.937   0.710   1.549  0.9595  0.5683  0.7361
 2912TIP3   OH2 8741   4.401   4.106   4.239  0.1487 -0.0559 -0.8282
 2912TIP3    H1 8742   4.420   4.018   4.207 -4.7516 -1.1405 -1.6848
 2912TIP3    H2 8743   4.373   4.094   4.330  0.4324  0.7932 -0.6161
 2913TIP3   OH2 8744   6.222   5.290   4.023  0.3125  0.3535  0.5697
 2913TIP3    H1 8745   6.203   5.383   4.034  1.4788  0.5280  1.2319
 2913TIP3    H2 8746   6.317   5.284   4.022  0.2661 -0.7306 -0.5057
 2914TIP3   OH2 8747   4.155   5.193   4.040 -0.0579  0.2648 -0.5017
 2914TIP3    H1 8748   4.073   5.202   3.991  0.0392 -0.7389 -0.8766
 2914TIP3    H2 8749   4.153   5.264   4.104 -1.0797  0.4375 -0.7098
 2915TIP3   OH2 8750   2.260   0.402   0.955 -0.2001 -0.2716 -0.4716
 2915TIP3    H1 8751   2.186   0.457   0.983 -1.2648 -0.3987 -2.8422
 2915TIP3    H2 8752   2.337   0.453   0.980 -1.0777  0.5156  0.8080
 2916TIP3   OH2 8753   2.294   1.460   0.665 -0.1701 -0.1690  0.1014
 2916TIP3    H1 8754   2.303   1.373   0.625 -0.2610  0.3268 -1.0310
 2916TIP3    H2 8755   2.214   1.455   0.717 -1.0622 -0.2806 -1.2589
 2917TIP3   OH2 8756   6.326   1.859   4.366  0.2278  1.1554  0.6496
 2917TIP3    H1 8757   6.332   1.926   4.434  0.2413  1.0795  0.7234
 2917TIP3    H2 8758   6.273   1.789   4.406  0.3812  1.0366  0.6427
 2918TIP3   OH2 8759   0.637   1.174   1.087  0.3176 -0.3064 -0.5905
 2918TIP3    H1 8760   0.595   1.134   1.163  1.5444 -0.2866  0.1221
 2918TIP3    H2 8761   0.657   1.264   1.114 -0.0053 -0.0331 -1.2373
 2919TIP3   OH2 8762   1.890   5.282   3.402  0.3528  0.0579 -0.0964
 2919TIP3    H1 8763   1.943   5.335   3.342  0.5938  1.6352  1.4282
 2919TIP3    H2 8764   1.813   5.336   3.418  1.6009  1.1009  3.2260
 2920TIP3   OH2 8765   4.514   2.752   1.475  0.7020  0.1151 -0.8665
 2920TIP3    H1 8766   4.561   2.770   1.394 -0.4107 -1.8512 -2.0092
 2920TIP3    H2 8767   4.460   2.675   1.456 -0.3989  0.2282  1.4200
 2921TIP3   OH2 8768   2.653   1.157   0.971 -0.2269  0.1549  0.1606
 2921TIP3    H1 8769   2.691   1.237   1.008  1.9594 -1.2876  1.2781
 2921TIP3    H2 8770   2.702   1.143   0.890 -0.1175 -0.3843  0.3164
 2922TIP3   OH2 8771   1.926   4.286   4.777 -0.4081 -0.3530 -0.3007
 2922TIP3    H1 8772   1.852   4.346   4.768 -0.0997  0.1434  0.4340
 2922TIP3    H2 8773   1.919   4.229   4.700 -0.5067  0.8335 -1.2076
 2923TIP3   OH2 8774   4.544   3.164   4.829 -0.7035  0.1447  0.2912
 2923TIP3    H1 8775   4.454   3.188   4.805 -0.2163 -0.3600 -2.3197
 2923TIP3    H2 8776   4.566   3.224   4.901 -2.1772  2.2319 -0.8829
 2924TIP3   OH2 8777   3.821   4.499   3.406  0.6659 -0.5684  0.2157
 2924TIP3    H1 8778   3.824   4.595   3.414 -1.6805  0.0025 -3.2891
 2924TIP3    H2 8779   3.796   4.484   3.315 -2.2631 -4.4511  1.3914
 2925TIP3   OH2 8780   4.070   2.277   1.989  0.2547  0.1989 -0.3019
 2925TIP3    H1 8781   4.126   2.297   1.914  0.0631  0.8996 -0.2665
 2925TIP3    H2 8782   4.019   2.200   1.962  1.7625 -0.9442 -0.0530
 2926TIP3   OH2 8783   6.138   3.583   4.248 -0.2055 -0.5014 -0.3951
 2926TIP3    H1 8784   6.134   3.621   4.160  2.3127  2.0537  0.4295
 2926TIP3    H2 8785   6.133   3.658   4.307 -2.1772 -2.1724  1.7544
 2927TIP3   OH2 8786   5.311   5.720   1.530  0.0290  0.2556 -0.3672
 2927TIP3    H1 8787   5.398   5.686   1.549 -0.7459 -1.5815  0.1127
 2927TIP3    H2 8788   5.281   5.756   1.614  0.2412  0.7351 -0.4917
 2928TIP3   OH2 8789   1.089   2.468   4.339 -0.6287 -0.1031 -0.4804
 2928TIP3    H1 8790   1.163   2.528   4.348 -1.5722  1.0943 -0.3265
 2928TIP3    H2 8791   1.027   2.497   4.406 -1.3228 -0.9486 -0.7369
 2929TIP3   OH2 8792   2.200   3.721   0.945 -0.3119  0.5314  0.0588
 2929TIP3    H1 8793   2.229   3.718   0.853 -1.3739 -2.3106 -0.2838
 2929TIP3    H2 8794   2.279   3.698   0.995 -0.1421  0.3655 -0.2765
 2930TIP3   OH2 8795   5.139   3.659   3.257  0.0424  0.1414  0.3760
 2930TIP3    H1 8796   5.184   3.742   3.271  0.9502 -0.3463  0.4177
 2930TIP3    H2 8797   5.046   3.679   3.270  0.1407  1.3638 -0.6483
 2931TIP3   OH2 8798   2.477   1.527   3.378  0.1124  0.1066  0.1086
 2931TIP3    H1 8799   2.564   1.547   3.413 -0.2077  1.5731  0.1062
 2931TIP3    H2 8800   2.436   1.612   3.366 -1.0524 -0.5420 -0.6150
 2932TIP3   OH2 8801   1.788   5.957   2.802 -0.1020  0.0629  0.1229
 2932TIP3    H1 8802   1.717   6.018   2.817 -1.0301 -0.9779  0.0928
 2932TIP3    H2 8803   1.748   5.870   2.808  1.0524 -0.5458 -0.4215
 2933TIP3   OH2 8804   2.427   0.464   3.123 -0.3324 -0.1248 -0.0143
 2933TIP3    H1 8805   2.465   0.390   3.171 -0.9515 -1.0580 -0.9284
 2933TIP3    H2 8806   2.398   0.427   3.040  0.6833  1.4432 -1.1256
 2934TIP3   OH2 8807   2.858   4.666   2.411 -0.3552  0.1726  0.0933
 2934TIP3    H1 8808   2.812   4.749   2.396  0.4215  0.9362  1.6275
 2934TIP3    H2 8809   2.949   4.684   2.386  0.2174  0.4234  2.1231
 2935TIP3   OH2 8810   0.561   3.114   2.543 -0.1264 -0.3063 -0.1019
 2935TIP3    H1 8811   0.603   3.028   2.552 -0.5679 -0.4217  1.0399
 2935TIP3    H2 8812   0.586   3.161   2.622 -0.8608  0.1819 -0.1500
 2936TIP3   OH2 8813   4.677   4.664   0.497 -0.6905 -0.2774  0.1326
 2936TIP3    H1 8814   4.743   4.596   0.512 -0.4736 -0.1714 -0.3330
 2936TIP3    H2 8815   4.621   4.628   0.428 -0.2332  0.2580 -0.5184
 2937TIP3   OH2 8816   0.797   0.160   0.833  0.5441 -0.0651  0.6485
 2937TIP3    H1 8817   0.761   0.142   0.919 -1.0061  1.6375  0.4196
 2937TIP3    H2 8818   0.876   0.107   0.828 -1.5359 -3.5397  1.4543
 2938TIP3   OH2 8819   1.900   5.074   2.065 -0.3798  0.7575  0.3890
 2938TIP3    H1 8820   1.880   5.113   1.980 -0.6574  1.2058  0.6565
 2938TIP3    H2 8821   1.851   5.127   2.128  0.5627  1.0134  0.9225
 2939TIP3   OH2 8822   3.204   5.867   3.258  0.4193  0.0845 -0.3414
 2939TIP3    H1 8823   3.193   5.880   3.352  0.0377  0.2128 -0.4033
 2939TIP3    H2 8824   3.267   5.934   3.232  1.2042 -0.5078 -0.0269
 2940TIP3   OH2 8825   4.417   2.349   4.050  0.0167 -0.2169  0.4103
 2940TIP3    H1 8826   4.408   2.267   4.003 -1.5653  0.6763 -0.9769
 2940TIP3    H2 8827   4.476   2.330   4.123  0.2149 -2.3766 -0.2690
 2941TIP3   OH2 8828   5.804   1.375   4.866 -0.3928  0.0078  0.2949
 2941TIP3    H1 8829   5.812   1.294   4.816  0.7378 -0.4924  1.2484
 2941TIP3    H2 8830   5.877   1.374   4.927  0.8868  2.7448 -1.0158
 2942TIP3   OH2 8831   3.341   3.797   4.760 -0.1950  0.0860 -0.4738
 2942TIP3    H1 8832   3.351   3.869   4.823 -3.4678 -0.3519  0.7470
 2942TIP3    H2 8833   3.305   3.839   4.682  0.1419  0.0934 -0.6248
 2943TIP3   OH2 8834   1.769   1.743   3.538 -0.4432 -0.3230  0.2169
 2943TIP3    H1 8835   1.845   1.799   3.527 -0.4154 -0.6242 -1.2575
 2943TIP3    H2 8836   1.725   1.745   3.454 -1.4267 -1.0962  0.6911
 2944TIP3   OH2 8837   5.049   5.942   1.041  0.6367 -0.3813  0.4247
 2944TIP3    H1 8838   5.062   6.004   1.113 -0.9051 -0.7244  1.0289
 2944TIP3    H2 8839   5.089   5.861   1.072  0.5272 -0.3543  0.6385
 2945TIP3   OH2 8840   6.158   2.798   4.028 -0.4755  0.3904  0.2369
 2945TIP3    H1 8841   6.157   2.830   3.937  1.6700  0.3950  0.1593
 2945TIP3    H2 8842   6.222   2.727   4.027  0.7616  1.4209  2.0411
 2946TIP3   OH2 8843   2.141   3.833   0.041 -0.8455  0.3083 -0.0741
 2946TIP3    H1 8844   2.204   3.790  -0.017  1.2233 -1.4937  3.1835
 2946TIP3    H2 8845   2.083   3.763   0.070 -1.9814  1.2067 -0.1010
 2947TIP3   OH2 8846   4.924   1.305   1.565 -0.1489  0.4401 -0.5564
 2947TIP3    H1 8847   4.830   1.324   1.576 -0.2933 -1.3126  2.0659
 2947TIP3    H2 8848   4.926   1.221   1.519  0.2045  0.8601 -1.3347
 2948TIP3   OH2 8849   5.644   3.470   4.848 -0.0614 -0.3642  0.8528
 2948TIP3    H1 8850   5.693   3.389   4.841  0.1022 -0.2534  0.7128
 2948TIP3    H2 8851   5.711   3.539   4.852 -0.1632  0.0477 -2.2256
 2949TIP3   OH2 8852   3.537   3.233   2.116 -0.5095  0.0547 -0.6515
 2949TIP3    H1 8853   3.589   3.206   2.040  0.3348  2.2193 -0.9137
 2949TIP3    H2 8854   3.448   3.242   2.082 -0.3547 -0.0852 -1.1097
 2950TIP3   OH2 8855   3.603   4.117   3.993 -0.3797  0.0581 -0.3183
 2950TIP3    H1 8856   3.691   4.100   3.959  0.6278  2.5556  0.7965
 2950TIP3    H2 8857   3.593   4.212   3.988 -2.2130  0.0229  1.4448
 2951TIP3   OH2 8858   2.565   5.707   2.777 -0.2528 -0.3953 -0.2013
 2951TIP3    H1 8859   2.510   5.710   2.855  0.1873 -0.0568  0.1069
 2951TIP3    H2 8860   2.637   5.649   2.800  0.0705 -0.0078 -0.2219
 2952TIP3   OH2 8861   4.845   0.387   5.031  0.0276 -0.0659 -0.0184
 2952TIP3    H1 8862   4.839   0.482   5.040  1.6474 -0.0777  2.0566
 2952TIP3    H2 8863   4.863   0.373   4.938 -3.5778  1.3510 -1.1075
 2953TIP3   OH2 8864   2.718   5.323   3.167 -0.0994 -0.5193  0.3942
 2953TIP3    H1 8865   2.767   5.405   3.175 -0.4017 -0.1183 -1.3784
 2953TIP3    H2 8866   2.649   5.331   3.233  1.4454 -0.5659  2.0852
 2954TIP3   OH2 8867   5.927   0.857   2.293  0.0544 -0.0155  0.1634
 2954TIP3    H1 8868   5.984   0.864   2.370  0.5396 -0.6528 -0.1266
 2954TIP3    H2 8869   5.873   0.935   2.297 -0.3972 -0.3606  1.5320
 2955TIP3   OH2 8870   1.099   1.627   2.353  0.0619  0.9808  0.5999
 2955TIP3    H1 8871   1.022   1.628   2.296  0.4168  0.5783  0.0944
 2955TIP3    H2 8872   1.074   1.570   2.426  0.5829 -0.9361 -0.6312
 2956TIP3   OH2 8873   2.096   0.433   0.348  0.8390 -0.1361 -0.5303
 2956TIP3    H1 8874   2.093   0.339   0.363  0.6188 -0.3443 -1.7781
 2956TIP3    H2 8875   2.113   0.471   0.435 -2.8957 -1.0622  0.8260
 2957TIP3   OH2 8876   6.307   4.883   1.997  0.0217 -0.0409  0.4581
 2957TIP3    H1 8877   6.288   4.810   1.939 -0.4025  0.5915 -0.2214
 2957TIP3    H2 8878   6.230   4.890   2.054 -0.0530  0.0362  0.3483
 2958TIP3   OH2 8879   3.086   2.436   0.306  0.6114  0.8336 -0.4943
 2958TIP3    H1 8880   3.175   2.469   0.316  0.4146  0.9724  1.0267
 2958TIP3    H2 8881   3.081   2.362   0.366 -0.4651  1.1982 -0.1049
 2959TIP3   OH2 8882   3.234   0.923   2.698  0.0475 -0.4382 -0.4080
 2959TIP3    H1 8883   3.308   0.983   2.694 -0.0513 -0.3730 -1.4628
 2959TIP3    H2 8884   3.165   0.965   2.646 -1.2856  0.2113  1.7197
 2960TIP3   OH2 8885   2.005   2.752   2.956  0.1399  0.4029 -0.4146
 2960TIP3    H1 8886   2.057   2.737   2.877 -0.7290 -1.4116 -0.6828
 2960TIP3    H2 8887   2.067   2.738   3.028  0.1081 -1.6769 -0.7333
 2961TIP3   OH2 8888   6.137   4.201   1.708  1.0179  0.5026  0.0590
 2961TIP3    H1 8889   6.162   4.276   1.655  1.1325  0.6641  0.3354
 2961TIP3    H2 8890   6.157   4.228   1.798  0.1266  0.5268  0.2619
 2962TIP3   OH2 8891   6.234   5.563   1.667  0.5406 -0.3989  0.5174
 2962TIP3    H1 8892   6.193   5.577   1.752  0.9794  3.1629  0.3313
 2962TIP3    H2 8893   6.321   5.529   1.688  0.9624  1.2315  1.6433
 2963TIP3   OH2 8894   1.115   1.860   5.162 -0.3142  0.1866 -0.1739
 2963TIP3    H1 8895   1.149   1.846   5.074 -1.8457  0.8716 -0.9063
 2963TIP3    H2 8896   1.020   1.848   5.154 -0.3636 -1.0622  1.6649
 2964TIP3   OH2 8897   4.137   2.038   4.031 -0.3630  0.5325 -0.0871
 2964TIP3    H1 8898   4.194   2.068   3.960 -0.3816 -0.7688 -0.6673
 2964TIP3    H2 8899   4.195   2.031   4.107 -0.0385  0.5341 -0.3316
 2965TIP3   OH2 8900   2.835   2.592   1.892  0.0014  0.0377 -0.3062
 2965TIP3    H1 8901   2.911   2.559   1.939 -0.7737 -2.5068 -0.6519
 2965TIP3    H2 8902   2.772   2.615   1.960  1.2287  2.7928  0.0036
 2966TIP3   OH2 8903   4.718   0.398   2.026 -0.5254 -0.3883 -0.5369
 2966TIP3    H1 8904   4.736   0.316   2.072 -0.1831 -0.2357 -0.4000
 2966TIP3    H2 8905   4.796   0.452   2.040 -1.8359  1.0956  1.7933
 2967TIP3   OH2 8906   4.692   4.163   2.041 -0.4475 -0.0713 -0.4123
 2967TIP3    H1 8907   4.715   4.127   2.127 -0.7365  2.1892  0.7148
 2967TIP3    H2 8908   4.773   4.157   1.990 -0.0880 -0.8642  0.2402
 2968TIP3   OH2 8909   4.393   3.088   2.170  0.3647  0.7487 -0.3114
 2968TIP3    H1 8910   4.460   3.101   2.237  0.4457 -0.1302 -0.2035
 2968TIP3    H2 8911   4.340   3.168   2.172  0.4500  0.7925  0.7093
 2969TIP3   OH2 8912   3.895   1.634   4.835  0.0361 -0.4021 -0.2966
 2969TIP3    H1 8913   3.814   1.597   4.801  0.2294  0.6129 -1.9381
 2969TIP3    H2 8914   3.899   1.604   4.926 -1.3710 -1.7628 -0.6568
 2970TIP3   OH2 8915   2.703   4.920   2.345  0.0992  0.5255  0.1053
 2970TIP3    H1 8916   2.696   4.964   2.429  0.9193  0.6573  0.1131
 2970TIP3    H2 8917   2.633   4.957   2.292 -0.3328  0.5415  0.6823
 2971TIP3   OH2 8918   3.019   5.485   3.077  0.5555 -0.0340  0.3038
 2971TIP3    H1 8919   3.054   5.559   3.027 -1.0368  0.2786 -0.3932
 2971TIP3    H2 8920   2.961   5.525   3.142  0.4027 -0.6168  0.5342
 2972TIP3   OH2 8921   0.784   5.521   2.362 -0.2954 -0.2360 -0.0334
 2972TIP3    H1 8922   0.689   5.507   2.371 -0.5955  0.8137 -1.2732
 2972TIP3    H2 8923   0.794   5.567   2.279  1.4293 -1.2859 -0.4526
 2973TIP3   OH2 8924   2.774   3.809   0.611 -0.5001 -0.0863 -0.0840
 2973TIP3    H1 8925   2.705   3.745   0.628 -0.2705 -0.6607 -1.2175
 2973TIP3    H2 8926   2.813   3.781   0.528  1.5062 -0.1133  0.8117
 2974TIP3   OH2 8927   1.553   0.820   0.910 -0.1146 -0.6159 -0.4086
 2974TIP3    H1 8928   1.525   0.900   0.954  0.6569  0.4842 -1.8437
 2974TIP3    H2 8929   1.474   0.766   0.905 -1.4123  1.2909 -1.9867
 2975TIP3   OH2 8930   5.121   2.413   0.409  0.2155 -0.2005 -0.0194
 2975TIP3    H1 8931   5.128   2.466   0.330 -0.1469  0.3938  0.3378
 2975TIP3    H2 8932   5.130   2.476   0.481 -0.6229 -0.5512  0.4165
 2976TIP3   OH2 8933   5.929   0.385   1.915 -0.1437  0.5507 -0.3991
 2976TIP3    H1 8934   5.946   0.323   1.844  0.4932 -0.5660  0.6904
 2976TIP3    H2 8935   5.835   0.404   1.909 -0.0603  0.6545 -1.6508
 2977TIP3   OH2 8936   4.532   2.565   3.545 -0.1832 -0.0311 -0.2542
 2977TIP3    H1 8937   4.596   2.636   3.532  0.7949 -1.1687 -2.0882
 2977TIP3    H2 8938   4.447   2.606   3.528  0.3259  0.8027 -0.8427
 2978TIP3   OH2 8939   3.909   3.251   1.882  0.0350  0.1403  0.0015
 2978TIP3    H1 8940   3.825   3.295   1.898 -0.1045 -0.4886  1.0511
 2978TIP3    H2 8941   3.960   3.268   1.961  0.9844  0.6877 -0.7131
 2979TIP3   OH2 8942   5.675   2.626   4.881  0.2996 -0.6536  0.4290
 2979TIP3    H1 8943   5.691   2.535   4.907 -0.6697 -0.8751  0.2992
 2979TIP3    H2 8944   5.633   2.619   4.796  0.5676 -0.0605  0.2484
 2980TIP3   OH2 8945   3.439   3.952   0.175  0.5203  0.4284  0.3666
 2980TIP3    H1 8946   3.412   3.966   0.265 -0.0548  0.0666  0.2567
 2980TIP3    H2 8947   3.413   4.032   0.129  0.0150  0.2562  0.3487
 2981TIP3   OH2 8948   3.189   4.752   2.957 -0.3217 -0.3745  0.3114
 2981TIP3    H1 8949   3.199   4.656   2.955  2.7537 -0.2082  1.8527
 2981TIP3    H2 8950   3.268   4.785   2.914 -0.4940  1.4701  1.3391
 2982TIP3   OH2 8951   3.195   5.509   2.692 -0.7396  0.3690 -0.2066
 2982TIP3    H1 8952   3.148   5.438   2.648  0.6335 -0.1516 -0.9025
 2982TIP3    H2 8953   3.269   5.529   2.634  0.6134  0.2821  1.3990
 2983TIP3   OH2 8954   4.021   4.598   4.449  0.1640 -0.0472  0.3367
 2983TIP3    H1 8955   3.952   4.604   4.382 -0.4004 -1.2006  0.7830
 2983TIP3    H2 8956   4.100   4.578   4.400  0.1547  1.1157 -0.1698
 2984TIP3   OH2 8957   1.412   2.492   1.169  0.0490  0.0170  0.2478
 2984TIP3    H1 8958   1.493   2.511   1.215  0.4749 -1.0959  0.0041
 2984TIP3    H2 8959   1.352   2.460   1.237 -0.0717  0.5149  0.3749
 2985TIP3   OH2 8960   2.541   3.106   3.906 -0.1676  0.1333  0.1079
 2985TIP3    H1 8961   2.594   3.180   3.935  1.9173 -0.7994 -1.0527
 2985TIP3    H2 8962   2.549   3.107   3.810  1.0064 -2.2733  0.1028
 2986TIP3   OH2 8963   5.907   3.395   0.452 -0.4859  0.7145 -0.2727
 2986TIP3    H1 8964   5.874   3.436   0.532 -0.0584  1.4528 -0.4576
 2986TIP3    H2 8965   5.841   3.413   0.386 -0.8154  0.1484 -0.1039
 2987TIP3   OH2 8966   1.040   5.421   2.418  0.1391  0.3107  0.7867
 2987TIP3    H1 8967   0.961   5.465   2.386  0.8792  0.4019 -1.0438
 2987TIP3    H2 8968   1.078   5.484   2.480  0.2870  1.5700 -0.5205
 2988TIP3   OH2 8969   2.300   1.205   2.241 -0.5844  0.0841 -0.0685
 2988TIP3    H1 8970   2.312   1.146   2.166  3.9032  1.2690 -0.5685
 2988TIP3    H2 8971   2.319   1.292   2.205  0.0421  0.8756  2.0652
 2989TIP3   OH2 8972   1.101   3.382   1.356 -0.1645  0.0218 -0.0944
 2989TIP3    H1 8973   1.142   3.403   1.272 -1.0921  1.8520 -0.1548
 2989TIP3    H2 8974   1.026   3.327   1.332 -0.9009  1.1996 -0.5882
 2990TIP3   OH2 8975   2.669   0.958   2.673  0.2458  0.1283  0.6045
 2990TIP3    H1 8976   2.715   0.917   2.599  1.6275 -2.0398  2.5296
 2990TIP3    H2 8977   2.736   1.010   2.717  0.2072 -0.8572  1.8857
 2991TIP3   OH2 8978   3.872   2.521   0.087  0.1173 -0.4457 -0.0311
 2991TIP3    H1 8979   3.848   2.610   0.115  0.1319 -1.3596  3.2515
 2991TIP3    H2 8980   3.934   2.534   0.015  0.0726  2.1834  0.3146
 2992TIP3   OH2 8981   4.651   4.170   0.663 -0.0450 -0.0033  0.6083
 2992TIP3    H1 8982   4.674   4.181   0.571  0.1307  1.2831  0.7916
 2992TIP3    H2 8983   4.556   4.186   0.666  0.2436  1.8843  0.9061
 2993TIP3   OH2 8984   5.081   0.039   1.775 -0.2589  0.1949  0.3685
 2993TIP3    H1 8985   5.163  -0.003   1.750  0.6385  1.1616  1.5492
 2993TIP3    H2 8986   5.031   0.045   1.694  1.7438  1.5494 -0.8357
 2994TIP3   OH2 8987   6.025   5.865   1.695  0.1051  0.3948 -0.1596
 2994TIP3    H1 8988   6.054   5.880   1.605 -1.0581 -0.2309 -0.6620
 2994TIP3    H2 8989   6.100   5.824   1.738  0.5740  0.4277 -0.9208
 2995TIP3   OH2 8990   0.987   1.321   2.311  0.5726 -0.2577 -0.1360
 2995TIP3    H1 8991   0.913   1.264   2.334  0.2879  0.6306  1.2827
 2995TIP3    H2 8992   1.064   1.273   2.343  0.4234 -0.2940  0.1785
 2996TIP3   OH2 8993   2.486   5.010   2.864 -0.3587  0.0648  0.0768
 2996TIP3    H1 8994   2.449   4.970   2.785 -0.0257 -1.7723  0.7957
 2996TIP3    H2 8995   2.423   4.989   2.933 -0.5824  1.5408  0.3433
 2997TIP3   OH2 8996   3.668   1.990   2.094 -0.8566 -0.2949  0.1997
 2997TIP3    H1 8997   3.621   2.073   2.085  0.3161  0.5277  1.2698
 2997TIP3    H2 8998   3.631   1.951   2.173  0.1393  0.3263  1.0100
 2998TIP3   OH2 8999   0.035   3.258   4.228 -1.2712  0.2243 -0.1040
 2998TIP3    H1 9000   0.086   3.224   4.154  1.5038  1.1826  1.2579
 2998TIP3    H2 9001   0.023   3.351   4.207  0.3564  0.7212  1.0248
 2999TIP3   OH2 9002   3.133   4.370   0.143  0.2199  0.3327  0.3020
 2999TIP3    H1 9003   3.139   4.412   0.057 -2.8457  0.3238 -0.0221
 2999TIP3    H2 9004   3.204   4.409   0.194  1.4468  1.1209 -1.9076
 3000TIP3   OH2 9005   4.843   3.420   3.470 -0.0502 -0.4379 -0.3919
 3000TIP3    H1 9006   4.846   3.425   3.565 -4.5718  1.0126 -0.0633
 3000TIP3    H2 9007   4.868   3.330   3.449  1.5043 -0.6593  2.0550
 3001TIP3   OH2 9008   4.367   5.477   2.880  0.3239 -0.0006  0.1848
 3001TIP3    H1 9009   4.366   5.551   2.819 -0.4089 -0.4677 -0.3793
 3001TIP3    H2 9010   4.310   5.505   2.952  0.3981  0.1515  0.1862
 3002TIP3   OH2 9011   3.575   3.935   4.361  0.4199 -0.0572 -0.0899
 3002TIP3    H1 9012   3.645   3.985   4.404 -0.3078 -0.4255  1.5718
 3002TIP3    H2 9013   3.501   3.996   4.357 -0.5166 -0.9677  2.0705
 3003TIP3   OH2 9014   4.598   3.878   1.925  0.3524  1.2936 -0.4632
 3003TIP3    H1 9015   4.618   3.962   1.967 -0.2561  0.2214  2.2069
 3003TIP3    H2 9016   4.506   3.885   1.899 -0.8230  0.4189  2.9053
 3004TIP3   OH2 9017   3.065   5.380   1.010 -0.2847 -0.4187  0.0211
 3004TIP3    H1 9018   3.016   5.461   0.998  0.3953  0.4125  2.3313
 3004TIP3    H2 9019   3.097   5.384   1.100  1.7530 -2.1755 -0.5407
 3005TIP3   OH2 9020   5.109   1.902   2.727 -0.1534  0.3663 -0.0490
 3005TIP3    H1 9021   5.161   1.945   2.795 -0.5223  1.1868 -0.2868
 3005TIP3    H2 9022   5.167   1.834   2.693 -1.0875 -2.5144  3.4666
 3006TIP3   OH2 9023   4.770   2.811   2.097  0.1243 -0.0716  0.3321
 3006TIP3    H1 9024   4.749   2.731   2.049  0.8358 -0.0384 -0.0491
 3006TIP3    H2 9025   4.710   2.877   2.062 -1.1595 -0.6523  1.3515
 3007TIP3   OH2 9026   2.808   1.564   2.551 -0.0933 -0.2477 -0.2929
 3007TIP3    H1 9027   2.872   1.576   2.621 -0.3870  1.7330 -0.2934
 3007TIP3    H2 9028   2.861   1.553   2.472  0.3267  1.4850 -0.3123
 3008TIP3   OH2 9029   0.371   4.984   0.884  0.5745  0.1705  0.5459
 3008TIP3    H1 9030   0.382   5.079   0.885  1.5206  0.0750  0.5925
 3008TIP3    H2 9031   0.459   4.950   0.903 -0.0306 -0.6982  1.9439
 3009TIP3   OH2 9032   5.199   4.734   0.816  0.2925 -0.0520 -0.4232
 3009TIP3    H1 9033   5.143   4.656   0.810  2.1859 -1.5828  0.5991
 3009TIP3    H2 9034   5.160   4.786   0.886 -0.0202 -0.9671  0.1021
 3010TIP3   OH2 9035   5.926   3.711   1.786  0.1031 -0.3316 -0.4556
 3010TIP3    H1 9036   5.883   3.679   1.707  0.2133 -0.4925 -0.4516
 3010TIP3    H2 9037   5.968   3.793   1.760 -0.3750 -0.0659 -0.4076
 3011TIP3   OH2 9038   3.299   1.014   5.100 -0.2200 -0.5593 -0.1361
 3011TIP3    H1 9039   3.335   0.976   5.180  2.0895  0.5757 -0.5233
 3011TIP3    H2 9040   3.370   1.070   5.067 -1.8745  0.6660 -1.8416
 3012TIP3   OH2 9041   4.630   0.291   4.680  0.5495 -0.1518  1.3589
 3012TIP3    H1 9042   4.622   0.295   4.585  0.1534  1.7749  1.4350
 3012TIP3    H2 9043   4.670   0.206   4.697 -0.9799 -1.3036 -0.4038
 3013TIP3   OH2 9044   2.526   3.302   1.644  0.3496 -0.0983  0.1756
 3013TIP3    H1 9045   2.485   3.285   1.559  0.5183 -0.8316  0.2406
 3013TIP3    H2 9046   2.550   3.216   1.677 -0.6421  0.0910  1.4366
 3014TIP3   OH2 9047   2.776   2.923   4.481 -0.2095 -0.4684  0.2328
 3014TIP3    H1 9048   2.700   2.872   4.453 -0.7988  1.5238 -2.1131
 3014TIP3    H2 9049   2.848   2.891   4.425 -0.4438  0.7756 -0.8157
 3015TIP3   OH2 9050   2.202   3.110   2.144 -0.7963  0.4123 -0.4155
 3015TIP3    H1 9051   2.121   3.130   2.098 -1.5242  0.0534  0.6683
 3015TIP3    H2 9052   2.195   3.157   2.227 -1.6762 -2.5272  1.3634
 3016TIP3   OH2 9053   3.984   3.836   2.842 -0.4976 -0.2699  0.2227
 3016TIP3    H1 9054   4.058   3.829   2.902  0.9644 -0.1266 -1.4623
 3016TIP3    H2 9055   3.965   3.930   2.838 -0.6711 -0.2919  0.5509
 3017TIP3   OH2 9056   0.265   4.032   1.617 -0.1500  0.1837  0.0263
 3017TIP3    H1 9057   0.237   4.014   1.527 -0.2219  1.8386 -0.3150
 3017TIP3    H2 9058   0.343   3.978   1.628 -1.0305 -1.2421 -0.4717
 3018TIP3   OH2 9059   1.385   1.405   3.898 -0.7602  0.2970  0.2667
 3018TIP3    H1 9060   1.459   1.352   3.927 -2.2673 -1.4607  1.1034
 3018TIP3    H2 9061   1.386   1.397   3.803 -0.6545 -0.8308  0.3486
 3019TIP3   OH2 9062   0.859   2.847   3.497 -0.6797 -0.4330 -0.1985
 3019TIP3    H1 9063   0.819   2.870   3.413 -0.3356 -0.2771 -0.3211
 3019TIP3    H2 9064   0.874   2.931   3.540  0.1453 -0.4426 -0.4459
 3020TIP3   OH2 9065   1.113   2.560   1.094 -0.1559  0.5899 -0.2310
 3020TIP3    H1 9066   1.155   2.630   1.044 -0.1284  0.4741 -0.3687
 3020TIP3    H2 9067   1.174   2.486   1.089  0.0392  0.7089  0.3153
 3021TIP3   OH2 9068   2.179   5.263   1.648 -0.6368  0.1414 -0.1592
 3021TIP3    H1 9069   2.150   5.346   1.686 -0.3345  0.1001  0.1716
 3021TIP3    H2 9070   2.105   5.233   1.596 -0.4026  1.0755 -1.0516
 3022TIP3   OH2 9071   1.668   2.873   3.523 -0.0996  0.0702  0.0737
 3022TIP3    H1 9072   1.663   2.910   3.611  1.0628  2.3754 -0.7357
 3022TIP3    H2 9073   1.698   2.784   3.536  0.8033  0.5961  1.9828
 3023TIP3   OH2 9074   5.597   1.504   2.604 -0.1562  0.4032  0.4246
 3023TIP3    H1 9075   5.519   1.559   2.598  0.7004  1.5149 -1.3154
 3023TIP3    H2 9076   5.564   1.415   2.615 -1.6698  0.8585 -0.2523
 3024TIP3   OH2 9077   3.416   1.632   1.940 -0.6556 -0.0361 -0.3023
 3024TIP3    H1 9078   3.410   1.652   1.847  0.6697 -0.0942 -0.4200
 3024TIP3    H2 9079   3.388   1.712   1.984 -0.7476  0.1835 -0.7508
 3025TIP3   OH2 9080   3.942   3.147   3.060 -0.3721 -0.4616  0.3732
 3025TIP3    H1 9081   3.973   3.189   2.980  2.9553 -1.3904  1.0333
 3025TIP3    H2 9082   3.922   3.220   3.119  1.3945  0.2474  0.1476
 3026TIP3   OH2 9083   3.809   5.845   1.528 -0.0008 -0.4056 -0.4688
 3026TIP3    H1 9084   3.762   5.809   1.452 -0.1894 -0.5421 -0.2879
 3026TIP3    H2 9085   3.838   5.931   1.499  0.1706 -0.5690 -0.7945
 3027TIP3   OH2 9086   1.804   5.369   4.518  0.2552 -0.4217 -0.4515
 3027TIP3    H1 9087   1.863   5.444   4.515  1.1823 -1.0276  1.2664
 3027TIP3    H2 9088   1.723   5.403   4.556  0.8903 -0.3916  0.9234
 3028TIP3   OH2 9089   1.532   1.749   4.710 -0.4713 -0.1043  0.0036
 3028TIP3    H1 9090   1.604   1.695   4.680 -1.2373 -1.2205  0.1211
 3028TIP3    H2 9091   1.518   1.812   4.639  0.3723 -0.1045 -0.1672
 3029TIP3   OH2 9092   0.946   3.142   4.251 -0.2020 -0.0150  0.9279
 3029TIP3    H1 9093   0.977   3.076   4.313 -0.3400  0.0079  1.0216
 3029TIP3    H2 9094   0.886   3.197   4.302 -0.1757  0.1133  0.8216
 3030TIP3   OH2 9095   4.825   1.673   2.988  0.6388 -0.0631  0.5840
 3030TIP3    H1 9096   4.740   1.713   3.003  0.0355 -1.9232  2.4598
 3030TIP3    H2 9097   4.852   1.639   3.073  1.8260 -2.2306 -0.5658
 3031TIP3   OH2 9098   0.068   2.055   3.783  0.4505  0.1537 -0.0754
 3031TIP3    H1 9099   0.128   2.032   3.854  0.8195  0.5438 -0.2570
 3031TIP3    H2 9100   0.125   2.089   3.714 -0.1208  2.6523  0.5811
 3032TIP3   OH2 9101   0.362   1.996   1.081 -0.4212  0.4650 -0.0732
 3032TIP3    H1 9102   0.407   1.949   1.012 -0.2777  0.1979  0.2001
 3032TIP3    H2 9103   0.289   2.040   1.037  0.1229  0.9383 -0.5225
 3033TIP3   OH2 9104   1.521   5.446   2.150  0.3410 -0.1456  0.7125
 3033TIP3    H1 9105   1.508   5.394   2.071 -1.2304 -0.2812  1.0385
 3033TIP3    H2 9106   1.581   5.516   2.124  0.3692 -0.5721 -0.4046
 3034TIP3   OH2 9107   4.450   2.836   2.833 -0.2930 -0.4637  0.3572
 3034TIP3    H1 9108   4.484   2.750   2.859 -1.9940 -1.5508 -0.8329
 3034TIP3    H2 9109   4.469   2.843   2.740 -0.6840  0.1950  0.3187
 3035TIP3   OH2 9110   0.923   3.401   3.298 -0.1343  0.1414 -0.6182
 3035TIP3    H1 9111   1.001   3.396   3.242  0.4300 -1.4921  0.2543
 3035TIP3    H2 9112   0.958   3.420   3.385 -1.0811  3.9369 -0.8954
 3036TIP3   OH2 9113   3.565   4.354   2.670  0.1470  0.1133  0.0415
 3036TIP3    H1 9114   3.627   4.282   2.663  0.2387  0.2210 -0.3227
 3036TIP3    H2 9115   3.616   4.431   2.642 -0.1911  0.1783 -0.4000
 3037TIP3   OH2 9116   3.962   0.123   3.448  0.2108 -0.7776  0.2668
 3037TIP3    H1 9117   4.029   0.061   3.419 -0.7390 -1.4770 -0.5417
 3037TIP3    H2 9118   4.007   0.181   3.509  1.0568 -2.4873  1.3555
 3038TIP3   OH2 9119   4.413   4.547   4.590 -0.6410 -0.1249 -0.6389
 3038TIP3    H1 9120   4.447   4.462   4.617 -2.2898 -1.4024 -2.3180
 3038TIP3    H2 9121   4.482   4.584   4.534  0.0501 -0.3439  0.0404
 3039TIP3   OH2 9122   4.515   1.561   4.320 -0.4823 -0.2397 -0.2305
 3039TIP3    H1 9123   4.424   1.589   4.326 -0.8767 -1.3470 -0.9223
 3039TIP3    H2 9124   4.538   1.573   4.228 -0.3355 -1.1810 -0.3230
 3040TIP3   OH2 9125   4.538   1.966   5.090 -0.4411 -0.0720 -0.2213
 3040TIP3    H1 9126   4.623   1.975   5.046 -0.0427 -1.1757  0.2981
 3040TIP3    H2 9127   4.550   2.009   5.174  0.1384 -1.6167  0.5217
 3041TIP3   OH2 9128   1.809   4.703   1.642  0.0449 -0.5289 -0.1784
 3041TIP3    H1 9129   1.718   4.690   1.614  0.3267 -0.8439 -0.9723
 3041TIP3    H2 9130   1.814   4.660   1.727 -1.2164  1.7052  1.1396
 3042TIP3   OH2 9131   1.501   4.693   2.447 -0.1245 -0.0492 -0.8117
 3042TIP3    H1 9132   1.549   4.715   2.527 -1.1491 -0.7910  0.0508
 3042TIP3    H2 9133   1.426   4.753   2.448 -0.3581 -0.3400 -1.0061
 3043TIP3   OH2 9134   1.466   4.630   0.188 -0.1449 -0.1995 -0.2453
 3043TIP3    H1 9135   1.527   4.679   0.133 -0.1722  2.1427  1.6689
 3043TIP3    H2 9136   1.440   4.556   0.133  1.4077  0.8287 -2.5652
 3044TIP3   OH2 9137   1.980   0.428   3.130  0.3928  0.2274  0.3379
 3044TIP3    H1 9138   2.036   0.478   3.070 -0.1934  0.1622 -0.2704
 3044TIP3    H2 9139   1.891   0.453   3.106  0.0826 -1.0694  0.0521
 3045TIP3   OH2 9140   6.113   5.960   3.840  0.0512  0.2743 -0.0733
 3045TIP3    H1 9141   6.203   5.949   3.870 -0.0350  1.1035  0.5395
 3045TIP3    H2 9142   6.088   5.874   3.808  0.5844 -0.3524  1.1064
 3046TIP3   OH2 9143   5.883   4.952   2.842  0.2549  0.4317  0.1364
 3046TIP3    H1 9144   5.895   4.943   2.747 -0.3576  0.5627  0.0383
 3046TIP3    H2 9145   5.789   4.941   2.855  0.4269 -0.2910  0.8188
 3047TIP3   OH2 9146   4.529   3.245   1.628 -0.4677 -0.2744 -0.1026
 3047TIP3    H1 9147   4.458   3.298   1.663  0.8211  0.6137  1.3038
 3047TIP3    H2 9148   4.584   3.226   1.704  1.0858 -0.4706 -1.2268
 3048TIP3   OH2 9149   6.063   4.060   3.407  0.2956 -0.4375  0.1700
 3048TIP3    H1 9150   6.027   4.102   3.329  0.6890 -0.0641  0.1862
 3048TIP3    H2 9151   6.018   4.104   3.480 -0.2048 -0.9123  0.1523
 3049TIP3   OH2 9152   3.734   1.436   3.271 -0.1856  0.1531 -0.0230
 3049TIP3    H1 9153   3.762   1.477   3.190 -1.1328 -0.8784 -0.9096
 3049TIP3    H2 9154   3.814   1.424   3.321  0.5044  0.2354 -1.0797
 3050TIP3   OH2 9155   0.468   2.980   0.036  0.1831  0.1853  0.1586
 3050TIP3    H1 9156   0.486   3.043   0.106  2.1697 -1.2561  1.0537
 3050TIP3    H2 9157   0.508   3.018  -0.042  1.3812  0.0652  0.6928
 3051TIP3   OH2 9158   2.424   4.838   1.061  0.3366 -0.4335  0.1784
 3051TIP3    H1 9159   2.512   4.875   1.062  0.3601 -0.4906  0.2005
 3051TIP3    H2 9160   2.366   4.912   1.079  0.3698 -0.3687  0.0233
 3052TIP3   OH2 9161   5.871   2.704   2.224 -0.1992 -0.2056 -0.4093
 3052TIP3    H1 9162   5.938   2.712   2.156  0.3913 -1.2788  0.0116
 3052TIP3    H2 9163   5.896   2.624   2.272 -0.4982  0.5942  1.1449
 3053TIP3   OH2 9164   6.236   1.972   4.126  0.5317  0.4106  0.2219
 3053TIP3    H1 9165   6.142   1.990   4.133  0.4701  0.1293  0.1509
 3053TIP3    H2 9166   6.257   1.926   4.207 -0.0006 -2.0803 -0.9646
 3054TIP3   OH2 9167   4.079   3.926   0.999 -0.4430  0.6465  0.0528
 3054TIP3    H1 9168   4.148   3.896   1.058  0.5056  3.2127  0.3712
 3054TIP3    H2 9169   4.011   3.961   1.058 -2.5867 -2.6514 -0.1963
 3055TIP3   OH2 9170   5.615   1.610   3.598 -0.4047  0.0154  0.5839
 3055TIP3    H1 9171   5.606   1.518   3.621 -0.3710 -0.2345 -0.3597
 3055TIP3    H2 9172   5.567   1.619   3.516 -1.1168  1.0268  1.0924
 3056TIP3   OH2 9173   2.040   1.457   1.225 -0.1880  0.7964 -0.2105
 3056TIP3    H1 9174   1.997   1.444   1.310 -0.3069  2.4175  0.0072
 3056TIP3    H2 9175   1.976   1.504   1.172  0.4072  1.0543 -0.7211
 3057TIP3   OH2 9176   4.542   2.206   3.092 -0.3152  0.0079  0.1267
 3057TIP3    H1 9177   4.448   2.216   3.111 -0.1020  0.1429  1.1755
 3057TIP3    H2 9178   4.585   2.233   3.173  0.7487  2.3484 -1.1400
 3058TIP3   OH2 9179   3.162   0.687   0.219  0.2347  0.2472  0.3111
 3058TIP3    H1 9180   3.171   0.596   0.246  3.1076  0.1907 -0.4980
 3058TIP3    H2 9181   3.118   0.730   0.293 -0.5938 -1.6442  0.9688
 3059TIP3   OH2 9182   4.226   5.843   2.204 -0.1151  0.0243 -0.2770
 3059TIP3    H1 9183   4.295   5.784   2.233  0.4740 -0.0755 -1.7830
 3059TIP3    H2 9184   4.269   5.902   2.141 -0.9148  1.4026  0.4103
 3060TIP3   OH2 9185   6.001   4.333   5.023  0.4721  0.2330 -0.3199
 3060TIP3    H1 9186   6.082   4.313   5.071 -0.0658  2.4734  1.7242
 3060TIP3    H2 9187   6.009   4.427   5.003 -2.3144  0.9995  1.5498
 3061TIP3   OH2 9188   3.496   1.066   3.100  0.1606  0.6187  0.7870
 3061TIP3    H1 9189   3.545   1.134   3.052  0.2680  0.5951  0.8616
 3061TIP3    H2 9190   3.422   1.113   3.138  0.2727  0.7102  0.8963
 3062TIP3   OH2 9191   3.508   5.268   4.476 -0.0553  0.2394 -0.2649
 3062TIP3    H1 9192   3.601   5.276   4.498 -0.5990  0.5849  2.1899
 3062TIP3    H2 9193   3.506   5.271   4.381  2.4784 -0.1468 -0.4027
 3063TIP3   OH2 9194   0.710   3.016   4.323  0.4342 -0.0806 -0.1779
 3063TIP3    H1 9195   0.642   2.956   4.292 -1.0429  1.2013  0.4655
 3063TIP3    H2 9196   0.785   2.998   4.266 -0.9881 -0.3291 -2.0886
 3064TIP3   OH2 9197   4.228   3.047   0.088  0.2383  0.1552  0.6691
 3064TIP3    H1 9198   4.233   3.092   0.172 -1.6752  1.4256  0.1660
 3064TIP3    H2 9199   4.237   3.117   0.023 -0.9477 -0.4149 -0.1510
 3065TIP3   OH2 9200   2.988   4.431   4.365 -0.1670  0.0722 -0.2494
 3065TIP3    H1 9201   2.987   4.396   4.276  0.6712  0.0971 -0.2800
 3065TIP3    H2 9202   3.049   4.504   4.361 -0.6478  0.5069  0.1940
 3066TIP3   OH2 9203   2.200   1.568   1.550  0.1214  0.2629  0.3304
 3066TIP3    H1 9204   2.187   1.541   1.640  0.4154  0.5399  0.4588
 3066TIP3    H2 9205   2.144   1.645   1.539 -0.1825  0.0241  0.1698
 3067TIP3   OH2 9206   3.043   5.406   3.664  0.5093  0.5284  0.2714
 3067TIP3    H1 9207   3.097   5.374   3.591  0.2736 -0.1662  0.3864
 3067TIP3    H2 9208   3.049   5.336   3.729 -0.7755  0.2889  0.1579
 3068TIP3   OH2 9209   2.183   0.997   3.318  0.1212 -0.6514 -0.3049
 3068TIP3    H1 9210   2.180   1.088   3.290  0.2820 -0.8564 -1.0077
 3068TIP3    H2 9211   2.125   0.951   3.258 -1.1395 -0.7857  0.9705
 3069TIP3   OH2 9212   3.827   4.621   0.689  0.1706 -0.5229  0.3931
 3069TIP3    H1 9213   3.907   4.571   0.681  0.6730  0.5389 -2.5127
 3069TIP3    H2 9214   3.852   4.711   0.665 -1.3075  0.5168  2.3954
 3070TIP3   OH2 9215   1.410   0.074   3.069 -0.4149  0.5286 -0.0104
 3070TIP3    H1 9216   1.379   0.035   3.151 -1.6103  0.6964 -0.3718
 3070TIP3    H2 9217   1.337   0.128   3.038  0.0011  0.4279 -1.2243
 3071TIP3   OH2 9218   2.047   0.963   2.344 -0.1595  0.2335  0.2829
 3071TIP3    H1 9219   2.112   1.019   2.386  2.1135 -0.7038 -1.7204
 3071TIP3    H2 9220   2.037   0.999   2.256 -1.9220 -0.0356  0.3395
 3072TIP3   OH2 9221   3.808   2.566   3.128 -0.1775 -0.4246 -0.7804
 3072TIP3    H1 9222   3.830   2.659   3.117  0.6762 -0.3550  1.0605
 3072TIP3    H2 9223   3.724   2.556   3.084 -0.9315  1.5471  0.0749
 3073TIP3   OH2 9224   3.581   3.182   3.836  0.4670  0.1160 -0.0882
 3073TIP3    H1 9225   3.501   3.210   3.881 -0.0700 -0.9985 -0.3202
 3073TIP3    H2 9226   3.572   3.220   3.748  0.9868  1.3532  0.3659
 3074TIP3   OH2 9227   6.057   3.611   1.291 -0.1372 -0.0012  0.2431
 3074TIP3    H1 9228   6.074   3.655   1.374 -1.1631  0.5595  0.1789
 3074TIP3    H2 9229   5.983   3.554   1.309  1.8030 -2.5845  0.5969
 3075TIP3   OH2 9230   6.050   5.138   4.184  0.2048 -0.6866  0.3992
 3075TIP3    H1 9231   6.091   5.053   4.168 -1.6802 -1.5769 -0.0438
 3075TIP3    H2 9232   6.089   5.197   4.121 -1.1226 -2.1614 -1.9559
 3076TIP3   OH2 9233   2.297   1.836   0.938 -0.1234  0.7310 -0.3054
 3076TIP3    H1 9234   2.225   1.799   0.989  0.4767  0.8004  0.6042
 3076TIP3    H2 9235   2.349   1.760   0.912 -1.2597  0.5343 -2.1610
 3077TIP3   OH2 9236   0.182   5.589   4.480 -0.1482  1.1228  0.4677
 3077TIP3    H1 9237   0.197   5.498   4.503 -0.7495  0.8668 -0.1207
 3077TIP3    H2 9238   0.193   5.637   4.562  0.8439  0.6099  0.6446
 3078TIP3   OH2 9239   2.734   0.470   1.779  0.1291  0.0078  0.2345
 3078TIP3    H1 9240   2.657   0.511   1.738  0.7451  1.3499  0.3511
 3078TIP3    H2 9241   2.708   0.455   1.869 -0.0545  0.3151  0.2349
 3079TIP3   OH2 9242   2.695   4.495   4.270  0.2012  0.3792 -0.2354
 3079TIP3    H1 9243   2.612   4.471   4.311 -0.0406 -0.8991 -1.3757
 3079TIP3    H2 9244   2.739   4.411   4.255  1.6082  1.0219  0.1306
 3080TIP3   OH2 9245   2.657   2.216   3.502  0.0588  0.7950  0.8193
 3080TIP3    H1 9246   2.743   2.216   3.459 -0.5938  0.2872 -0.5542
 3080TIP3    H2 9247   2.661   2.142   3.563 -0.0299 -0.4482 -0.6284
 3081TIP3   OH2 9248   0.244   0.028   2.556 -0.3191  0.3096  0.0442
 3081TIP3    H1 9249   0.329   0.060   2.586  0.4915 -1.1944 -0.5511
 3081TIP3    H2 9250   0.248  -0.067   2.569 -1.6400  0.1389 -0.6568
 3082TIP3   OH2 9251   4.948   4.539   0.459  0.2812  0.4734  0.0084
 3082TIP3    H1 9252   4.932   4.508   0.548  0.8691  1.7409  0.5876
 3082TIP3    H2 9253   4.998   4.620   0.471  0.5463  0.5535 -1.4867
 3083TIP3   OH2 9254   0.433   1.987   3.629 -0.3723  0.1735  0.0048
 3083TIP3    H1 9255   0.407   2.079   3.628 -0.9698  0.0489 -2.2701
 3083TIP3    H2 9256   0.502   1.981   3.564  0.3445 -0.8334  0.8309
 3084TIP3   OH2 9257   5.046   5.431   2.750 -0.1656  0.0663  0.1216
 3084TIP3    H1 9258   5.096   5.432   2.832  0.7706 -2.6426 -0.2957
 3084TIP3    H2 9259   4.964   5.475   2.772  0.8894  1.3153  1.8873
 3085TIP3   OH2 9260   6.228   0.284   1.766 -0.7353  0.5606 -0.5143
 3085TIP3    H1 9261   6.234   0.243   1.679 -1.7966 -0.6699 -0.0452
 3085TIP3    H2 9262   6.298   0.349   1.766 -1.5298  1.5157 -2.7541
 3086TIP3   OH2 9263   2.792   0.403   2.493  0.2262  0.1499  0.0752
 3086TIP3    H1 9264   2.870   0.362   2.456  0.3920  1.9011 -1.6642
 3086TIP3    H2 9265   2.826   0.476   2.544 -0.2136 -0.1032  0.7422
 3087TIP3   OH2 9266   0.215   5.189   3.156 -0.4474 -0.4222  0.4656
 3087TIP3    H1 9267   0.303   5.173   3.122 -0.1170 -0.0702  1.1185
 3087TIP3    H2 9268   0.188   5.272   3.115 -1.1998 -1.3911 -1.0838
 3088TIP3   OH2 9269   5.041   1.488   2.611  0.0091 -0.0651 -0.3219
 3088TIP3    H1 9270   4.961   1.536   2.632 -0.7417 -1.2066 -0.4666
 3088TIP3    H2 9271   5.112   1.551   2.626 -0.7017  0.1859  2.4873
 3089TIP3   OH2 9272   0.795   0.970   3.687 -0.0027  0.7179 -0.5824
 3089TIP3    H1 9273   0.832   0.917   3.616  0.0162  0.8632 -0.6828
 3089TIP3    H2 9274   0.767   0.907   3.753 -1.7004  0.4486 -1.4947
 3090TIP3   OH2 9275   0.965   4.067   3.213 -1.0467  0.3929 -0.2118
 3090TIP3    H1 9276   0.988   4.058   3.121 -1.6945  2.1050 -0.5682
 3090TIP3    H2 9277   1.006   4.149   3.241 -0.6826 -0.1952  1.0966
 3091TIP3   OH2 9278   3.370   0.040   1.181  0.6353 -0.2187 -1.1150
 3091TIP3    H1 9279   3.289   0.091   1.186 -0.3507 -1.6366 -1.9923
 3091TIP3    H2 9280   3.342  -0.047   1.153  2.3415 -1.0803 -0.3075
 3092TIP3   OH2 9281   3.880   4.108   1.221 -0.5308 -0.1091 -0.7653
 3092TIP3    H1 9282   3.891   4.035   1.282  1.1547  0.5240 -0.2762
 3092TIP3    H2 9283   3.785   4.111   1.205 -0.8903 -0.9985  0.9331
 3093TIP3   OH2 9284   6.319   3.845   5.116 -0.2996  0.0395  0.4106
 3093TIP3    H1 9285   6.382   3.773   5.113 -0.1228  0.2158 -0.4280
 3093TIP3    H2 9286   6.234   3.802   5.127  0.0440 -0.1420  3.0651
 3094TIP3   OH2 9287   5.499   5.286   0.546  0.1287  0.5621  0.0672
 3094TIP3    H1 9288   5.521   5.230   0.471 -0.0351  0.5235  0.0472
 3094TIP3    H2 9289   5.546   5.247   0.619  1.5827  1.5084 -0.3056
 3095TIP3   OH2 9290   1.809   2.420   2.029  0.0797 -0.0161 -0.2739
 3095TIP3    H1 9291   1.722   2.446   1.999  0.2142 -0.4412 -1.0597
 3095TIP3    H2 9292   1.792   2.360   2.101 -0.2395  1.4306  0.9033
 3096TIP3   OH2 9293   3.765   4.550   4.284  0.0132 -0.4377  0.5850
 3096TIP3    H1 9294   3.799   4.492   4.216  1.0720  0.8885 -0.0627
 3096TIP3    H2 9295   3.691   4.502   4.321  0.5867 -2.0074 -0.2009
 3097TIP3   OH2 9296   2.939   5.664   0.251 -0.2546  0.1222  0.1180
 3097TIP3    H1 9297   2.873   5.595   0.248 -1.0035  0.8618 -1.0611
 3097TIP3    H2 9298   2.904   5.729   0.313  1.1213 -1.1560  2.3746
 3098TIP3   OH2 9299   1.888   1.813   1.350 -0.0714  0.1146 -0.3558
 3098TIP3    H1 9300   1.888   1.845   1.259 -1.1515 -4.7033 -2.3756
 3098TIP3    H2 9301   1.795   1.800   1.371  0.1986  0.5951  1.2271
 3099TIP3   OH2 9302   0.557   5.931   2.878  0.1304  0.1315 -0.5271
 3099TIP3    H1 9303   0.540   6.024   2.891  1.5679  0.4971 -1.0650
 3099TIP3    H2 9304   0.532   5.890   2.961  1.0523  1.2548  0.3397
 3100TIP3   OH2 9305   6.270   0.713   1.084 -0.0255 -0.1685 -0.1857
 3100TIP3    H1 9306   6.319   0.637   1.052 -0.2678 -0.5151  0.2599
 3100TIP3    H2 9307   6.179   0.683   1.085  0.1247 -0.7283  2.3692
 3101TIP3   OH2 9308   3.638   1.339   0.038 -0.2049  0.1105 -0.6905
 3101TIP3    H1 9309   3.732   1.322   0.032  0.2803  1.0338  2.3539
 3101TIP3    H2 9310   3.627   1.425  -0.003  0.8487  1.2780  1.2983
 3102TIP3   OH2 9311   0.311   4.568   4.674  0.5397 -0.4247 -0.0841
 3102TIP3    H1 9312   0.240   4.539   4.731  0.3524  0.1757 -0.0064
 3102TIP3    H2 9313   0.267   4.595   4.593  0.3917  2.1106  0.7561
 3103TIP3   OH2 9314   6.138   3.246   3.450 -0.0358  0.1063  0.0134
 3103TIP3    H1 9315   6.217   3.264   3.400 -0.1292 -0.3132 -0.2856
 3103TIP3    H2 9316   6.070   3.300   3.409  0.2402  1.0201  0.7154
 3104TIP3   OH2 9317   0.658   2.888   1.332 -0.3326 -0.2682  0.2811
 3104TIP3    H1 9318   0.702   2.829   1.271 -1.3745 -0.9721  0.1902
 3104TIP3    H2 9319   0.605   2.831   1.388 -0.3748  0.4752  1.0320
 3105TIP3   OH2 9320   0.044   4.127   2.719 -0.6955 -0.1197 -1.1573
 3105TIP3    H1 9321   0.066   4.140   2.627  1.4365  0.5893 -0.5981
 3105TIP3    H2 9322   0.087   4.044   2.742  1.4878  1.2098 -0.0802
 3106TIP3   OH2 9323   1.291   0.733   0.270  0.1181  0.1480 -0.9403
 3106TIP3    H1 9324   1.376   0.740   0.312  0.0567 -2.0247 -0.3410
 3106TIP3    H2 9325   1.245   0.813   0.295  1.7671  1.0878 -0.8196
 3107TIP3   OH2 9326   3.555   2.489   1.059  0.3548  0.5418 -0.3456
 3107TIP3    H1 9327   3.632   2.432   1.053 -1.6577 -2.2889 -1.3498
 3107TIP3    H2 9328   3.521   2.473   1.147  0.2715  0.9107 -0.3099
 3108TIP3   OH2 9329   1.784   3.627   2.402  0.2095  0.3470 -0.1892
 3108TIP3    H1 9330   1.831   3.653   2.323  0.2285  3.1101  0.6412
 3108TIP3    H2 9331   1.850   3.630   2.471  0.1439 -1.8291  0.0508
 3109TIP3   OH2 9332   2.505   4.437   0.848  1.1384 -0.5093  0.3171
 3109TIP3    H1 9333   2.450   4.515   0.853 -0.5544 -1.5428 -1.0108
 3109TIP3    H2 9334   2.483   4.387   0.927 -0.0324 -1.0111 -0.3067
 3110TIP3   OH2 9335   4.961   0.514   2.119 -0.5963 -0.1550  0.1552
 3110TIP3    H1 9336   4.960   0.516   2.214  0.1741 -1.6481  0.2216
 3110TIP3    H2 9337   5.053   0.523   2.095 -0.7527 -0.0856 -0.4401
 3111TIP3   OH2 9338   5.475   4.530   3.610 -0.4289  0.2839 -0.2098
 3111TIP3    H1 9339   5.496   4.623   3.623  1.8502 -0.2698  0.6078
 3111TIP3    H2 9340   5.402   4.530   3.550 -1.9168  2.6779  1.4197
 3112TIP3   OH2 9341   2.118  -0.023   3.359 -0.2978  0.3796 -0.6997
 3112TIP3    H1 9342   2.179   0.017   3.297 -0.5529  0.9678 -0.5821
 3112TIP3    H2 9343   2.033   0.019   3.339 -0.8073 -0.8891 -1.2909
 3113TIP3   OH2 9344   1.438   3.015   0.333  0.5177 -0.0703 -0.2409
 3113TIP3    H1 9345   1.361   3.053   0.292 -0.0042 -1.0583 -0.1894
 3113TIP3    H2 9346   1.411   2.999   0.424  0.9934  0.1524 -0.0533
 3114TIP3   OH2 9347   0.922   0.946   4.464 -0.2476  0.3119 -0.2501
 3114TIP3    H1 9348   0.927   0.878   4.531 -0.4307  0.6440  0.1046
 3114TIP3    H2 9349   0.861   1.011   4.500 -1.1298  0.0218 -1.1646
 3115TIP3   OH2 9350   3.973   0.261   4.698  0.2119 -0.0458 -0.2643
 3115TIP3    H1 9351   3.951   0.265   4.605 -0.3146 -0.2771 -0.1532
 3115TIP3    H2 9352   4.068   0.272   4.701  0.3005 -0.6063 -0.8722
 3116TIP3   OH2 9353   2.245   1.092   2.505 -0.0247 -0.0074  0.0755
 3116TIP3    H1 9354   2.312   1.125   2.564 -1.7992  2.3379  0.9596
 3116TIP3    H2 9355   2.277   1.114   2.418  1.1369 -0.5137  0.3645
 3117TIP3   OH2 9356   2.065   5.162   0.969  0.1751  0.3379  0.0235
 3117TIP3    H1 9357   2.022   5.093   1.020  2.6872 -1.1969  0.2123
 3117TIP3    H2 9358   2.031   5.150   0.880  0.5788 -1.2187  0.0448
 3118TIP3   OH2 9359   5.946   4.895   2.565  0.0270  0.4650  0.0218
 3118TIP3    H1 9360   5.980   4.962   2.505 -0.5637  1.2215  0.5120
 3118TIP3    H2 9361   5.851   4.904   2.560 -0.0330  0.5964  1.1166
 3119TIP3   OH2 9362   2.367   4.099   5.101  0.3701 -0.2930 -0.8555
 3119TIP3    H1 9363   2.395   4.187   5.126 -0.0919  0.2304 -2.0819
 3119TIP3    H2 9364   2.440   4.042   5.124  0.1560  0.1906  1.1852
 3120TIP3   OH2 9365   0.868   0.774   2.384 -0.0230 -0.4399  0.3340
 3120TIP3    H1 9366   0.812   0.731   2.448 -1.4909  2.5723  1.2482
 3120TIP3    H2 9367   0.813   0.840   2.343  2.1278  0.8576 -0.6879
 3121TIP3   OH2 9368   4.492   3.357   0.828 -0.1349 -0.1478 -0.2429
 3121TIP3    H1 9369   4.489   3.371   0.733  1.3207 -1.1862 -0.4706
 3121TIP3    H2 9370   4.521   3.440   0.863  0.1302 -0.0050 -0.7858
 3122TIP3   OH2 9371   2.982   4.883   1.398 -0.6246 -0.2967  0.1142
 3122TIP3    H1 9372   2.980   4.863   1.492 -0.7722 -0.7714  0.0105
 3122TIP3    H2 9373   2.898   4.924   1.381  0.2414  1.8336  0.6269
 3123TIP3   OH2 9374   0.574   2.193   1.488  0.2899 -0.1254 -0.1003
 3123TIP3    H1 9375   0.522   2.173   1.566  0.5334 -0.1994  0.0430
 3123TIP3    H2 9376   0.534   2.140   1.419 -0.7185  0.8880 -0.3210
 3124TIP3   OH2 9377   2.159   4.607   2.097 -0.4688 -0.6143 -0.5932
 3124TIP3    H1 9378   2.247   4.607   2.135 -1.2486 -2.1655  1.3807
 3124TIP3    H2 9379   2.115   4.681   2.138 -0.8321 -1.3454  0.3537
 3125TIP3   OH2 9380   2.475   1.549   0.472  0.1724  0.1627 -0.2387
 3125TIP3    H1 9381   2.415   1.516   0.538  0.7559  0.5191  0.4851
 3125TIP3    H2 9382   2.420   1.567   0.396 -0.2500 -1.9378 -0.4868
 3126TIP3   OH2 9383   2.838   0.594   4.035  0.4412  0.2298  0.3333
 3126TIP3    H1 9384   2.772   0.589   4.104 -0.0865  2.4934  0.0486
 3126TIP3    H2 9385   2.919   0.567   4.077 -0.0857  0.4124  1.5090
 3127TIP3   OH2 9386   2.231   1.030   1.577  0.2884 -0.3582 -0.8870
 3127TIP3    H1 9387   2.146   1.073   1.586  0.8128  0.1849  2.9834
 3127TIP3    H2 9388   2.218   0.942   1.611  1.2937 -0.2096 -0.0704
 3128TIP3   OH2 9389   4.766   5.552   2.170 -0.5909  0.2454  0.0571
 3128TIP3    H1 9390   4.723   5.469   2.191 -2.0817  0.6429 -1.2086
 3128TIP3    H2 9391   4.847   5.550   2.220 -1.1866 -1.4046  1.0559
 3129TIP3   OH2 9392   3.303   0.613   2.423 -0.0391 -0.0338 -0.1857
 3129TIP3    H1 9393   3.263   0.663   2.351 -0.1391 -0.1423 -0.2047
 3129TIP3    H2 9394   3.249   0.633   2.499  1.0317  1.4077  0.2425
 3130TIP3   OH2 9395   4.848   1.052   2.928 -0.4319 -0.1036 -0.1231
 3130TIP3    H1 9396   4.774   1.113   2.933 -0.4375  0.0887 -1.8748
 3130TIP3    H2 9397   4.923   1.102   2.960 -1.0991 -0.4741  2.2168
 3131TIP3   OH2 9398   1.156   0.350   4.298 -0.4335  0.0563 -0.4601
 3131TIP3    H1 9399   1.251   0.341   4.300 -0.3961  0.1698 -1.4541
 3131TIP3    H2 9400   1.141   0.444   4.287 -0.6734  0.0601 -0.1378
 3132TIP3   OH2 9401   0.051   5.852   3.995  0.2244  0.0534 -0.0488
 3132TIP3    H1 9402   0.136   5.870   4.035 -0.1528  1.7727  0.0664
 3132TIP3    H2 9403   0.070   5.841   3.902  0.3339  3.1189 -0.4894
 3133TIP3   OH2 9404   6.239   1.480   2.478  0.2433  0.1001  0.3153
 3133TIP3    H1 9405   6.317   1.508   2.526  1.4123 -0.4440 -1.1606
 3133TIP3    H2 9406   6.170   1.539   2.507  1.7271  2.0676  0.0863
 3134TIP3   OH2 9407   6.082   0.431   5.132 -0.6135  0.1380 -0.0750
 3134TIP3    H1 9408   6.013   0.442   5.067 -0.3254 -1.0522 -0.6239
 3134TIP3    H2 9409   6.036   0.410   5.213 -0.9059 -2.4069 -0.8195
 3135TIP3   OH2 9410   1.617   5.651   2.384 -0.4584  0.4224  0.1969
 3135TIP3    H1 9411   1.657   5.643   2.298 -1.6363  1.5952 -0.4902
 3135TIP3    H2 9412   1.615   5.745   2.401 -0.1527  0.2026  1.5544
 3136TIP3   OH2 9413   6.035   2.523   0.857 -0.1912  0.3116  0.9025
 3136TIP3    H1 9414   6.095   2.459   0.895 -0.5563  1.0287  2.7861
 3136TIP3    H2 9415   6.074   2.608   0.877 -0.2878  0.7350 -0.5789
 3137TIP3   OH2 9416   4.845   3.921   3.076 -0.0604  0.4118  0.3727
 3137TIP3    H1 9417   4.785   3.893   3.145  0.2059  0.3277  0.5730
 3137TIP3    H2 9418   4.796   3.911   2.995 -0.0775 -0.3232  0.4699
 3138TIP3   OH2 9419   0.971   4.051   5.137 -0.9535 -0.5329  0.6826
 3138TIP3    H1 9420   0.892   4.037   5.084  0.0702 -1.1120 -0.7329
 3138TIP3    H2 9421   1.030   4.099   5.080 -0.5875  0.6995  2.0411
 3139TIP3   OH2 9422   2.257   2.642   2.406 -0.3213 -0.4267  0.1271
 3139TIP3    H1 9423   2.323   2.698   2.447  0.1073 -0.2351 -0.7872
 3139TIP3    H2 9424   2.183   2.701   2.390 -0.0412 -0.2168 -0.4271
 3140TIP3   OH2 9425   2.002   1.999   2.807 -0.5097 -0.0870 -0.3415
 3140TIP3    H1 9426   2.037   1.915   2.780  1.5933  0.1320  1.3767
 3140TIP3    H2 9427   2.010   2.055   2.730  2.4999 -0.2541 -0.2685
 3141TIP3   OH2 9428   5.632   2.781   2.641  0.1597  0.3575 -0.3301
 3141TIP3    H1 9429   5.669   2.693   2.644 -3.1487 -1.1649 -0.1174
 3141TIP3    H2 9430   5.649   2.811   2.551  0.6529 -0.8020 -0.6397
 3142TIP3   OH2 9431   3.354   4.169   2.879  0.4742 -0.1804  0.2110
 3142TIP3    H1 9432   3.336   4.211   2.963  1.7844  2.2937 -0.6684
 3142TIP3    H2 9433   3.304   4.220   2.815  1.9470 -0.0501 -0.8766
 3143TIP3   OH2 9434   2.994   2.367   3.601  0.3387  0.2338 -0.2202
 3143TIP3    H1 9435   2.956   2.299   3.657  1.2935 -1.5855 -1.6344
 3143TIP3    H2 9436   2.938   2.443   3.613 -1.7658 -1.3084  0.2184
 3144TIP3   OH2 9437   3.358   3.584   0.527 -0.4426  0.2320  1.0196
 3144TIP3    H1 9438   3.450   3.574   0.553 -0.7551  1.3108  2.6838
 3144TIP3    H2 9439   3.350   3.677   0.504 -0.7957 -0.1685 -0.5229
 3145TIP3   OH2 9440   4.135   5.074   4.779 -0.3625  0.1500 -0.2215
 3145TIP3    H1 9441   4.075   5.013   4.735 -1.4596  0.3287  0.9732
 3145TIP3    H2 9442   4.145   5.146   4.717 -1.0598 -0.0748 -0.6078
 3146TIP3   OH2 9443   0.891   1.572   1.533 -0.2733  0.6736  0.2496
 3146TIP3    H1 9444   0.804   1.545   1.563 -0.3861 -1.2101 -1.5409
 3146TIP3    H2 9445   0.873   1.626   1.456  0.1467  0.5774  0.0843
 3147TIP3   OH2 9446   3.365   2.437   2.275 -0.6286  0.3811 -0.4330
 3147TIP3    H1 9447   3.369   2.494   2.198 -2.0343  1.0833 -0.0275
 3147TIP3    H2 9448   3.272   2.417   2.285 -0.6938  1.5006  1.9078
 3148TIP3   OH2 9449   0.801   2.954   1.025  0.1592  0.5069  0.4689
 3148TIP3    H1 9450   0.761   2.867   1.034  2.8267 -1.0236 -1.0809
 3148TIP3    H2 9451   0.868   2.957   1.093 -0.4015  1.7146  0.9997
 3149TIP3   OH2 9452   1.996   3.701   1.297 -0.3481  0.1441  0.6892
 3149TIP3    H1 9453   1.972   3.732   1.385  0.2310  1.9517  0.2615
 3149TIP3    H2 9454   2.001   3.781   1.244  1.6273 -0.6357 -0.4322
 3150TIP3   OH2 9455   2.092   4.999   4.759 -0.2360 -0.2498  0.5140
 3150TIP3    H1 9456   2.128   4.990   4.847 -0.2338 -1.1616  0.4354
 3150TIP3    H2 9457   2.044   5.082   4.760 -0.5184 -0.4217  1.4774
 3151TIP3   OH2 9458   6.325   4.929   0.962  0.2679 -0.5725 -0.3391
 3151TIP3    H1 9459   6.291   4.877   1.035  0.2476  0.4755  0.4260
 3151TIP3    H2 9460   6.315   4.872   0.885 -0.5860 -1.3499  0.3175
 3152TIP3   OH2 9461   0.245   0.735   1.593  0.4149 -0.0251  0.1079
 3152TIP3    H1 9462   0.213   0.816   1.554  0.1865  0.1534  0.6497
 3152TIP3    H2 9463   0.279   0.684   1.520 -2.5777 -0.9562 -0.7509
 3153TIP3   OH2 9464   0.520   3.393   4.037  0.0892 -0.7268  0.1741
 3153TIP3    H1 9465   0.492   3.303   4.057  2.4007 -2.0733 -2.0940
 3153TIP3    H2 9466   0.613   3.394   4.057  0.0623  1.2681  0.3561
 3154TIP3   OH2 9467   0.328   4.687   1.916 -0.0911 -0.8500 -0.0715
 3154TIP3    H1 9468   0.239   4.653   1.923 -0.5691  0.3449 -0.0843
 3154TIP3    H2 9469   0.329   4.738   1.835  0.0331  0.6865  0.8411
 3155TIP3   OH2 9470   4.296   2.422   1.035  0.3941 -0.0591 -0.1875
 3155TIP3    H1 9471   4.314   2.508   1.072 -0.4272  0.3767 -0.7530
 3155TIP3    H2 9472   4.367   2.407   0.973  0.6776  0.1028  0.0986
 3156TIP3   OH2 9473   3.630   2.412   0.139  0.4107 -0.6276  0.1255
 3156TIP3    H1 9474   3.586   2.415   0.054  0.2973 -1.1167  0.1613
 3156TIP3    H2 9475   3.723   2.401   0.118  0.3707 -0.8604  0.0624
 3157TIP3   OH2 9476   0.945   1.469   3.029  0.1435  0.5933 -0.0907
 3157TIP3    H1 9477   0.939   1.392   2.973  1.7663 -0.1095  0.6545
 3157TIP3    H2 9478   0.887   1.533   2.987  0.1905 -0.3842 -1.7529
 3158TIP3   OH2 9479   0.248   1.025   1.001  0.1372  0.1597  0.1667
 3158TIP3    H1 9480   0.157   1.005   0.977  0.1022 -1.8041  1.6152
 3158TIP3    H2 9481   0.300   0.968   0.945  0.3587 -0.1433  0.6766
 3159TIP3   OH2 9482   5.854   5.853   4.461 -0.3899  0.3677 -0.4295
 3159TIP3    H1 9483   5.867   5.832   4.368 -0.3301 -0.6593 -0.2001
 3159TIP3    H2 9484   5.760   5.841   4.475 -0.2573 -0.4010 -0.1489
 3160TIP3   OH2 9485   2.982   0.266   1.976 -0.3746 -0.1759  0.0712
 3160TIP3    H1 9486   3.074   0.291   1.966 -0.4416  0.3813  0.7619
 3160TIP3    H2 9487   2.984   0.179   2.014 -0.1391 -0.4009 -0.4393
 3161TIP3   OH2 9488   5.999   5.700   1.242 -0.0651  0.3453  0.1581
 3161TIP3    H1 9489   5.969   5.634   1.179 -0.6372 -0.0045  0.7875
 3161TIP3    H2 9490   6.039   5.650   1.313 -1.3614  0.5916  1.1045
 3162TIP3   OH2 9491   0.044   3.618   0.445 -0.3277  0.1045 -0.2536
 3162TIP3    H1 9492   0.069   3.569   0.523 -1.1357 -0.2660 -0.2090
 3162TIP3    H2 9493   0.073   3.707   0.462 -2.4501  0.5501  1.4773
 3163TIP3   OH2 9494   0.259   0.780   5.124 -0.1238 -0.0202 -0.4656
 3163TIP3    H1 9495   0.343   0.738   5.141  0.5267  0.9106 -1.2235
 3163TIP3    H2 9496   0.282   0.861   5.079 -1.4416  0.1810 -0.8197
 3164TIP3   OH2 9497   2.361   4.858   1.939  0.4148 -0.0651 -0.3053
 3164TIP3    H1 9498   2.419   4.907   1.880  0.3467 -1.0235 -1.1940
 3164TIP3    H2 9499   2.272   4.885   1.913  0.3799 -0.5846 -0.7484
 3165TIP3   OH2 9500   4.713   1.801   4.738 -0.1111 -0.3781  0.1548
 3165TIP3    H1 9501   4.749   1.713   4.725  1.4369 -0.0193  1.7717
 3165TIP3    H2 9502   4.789   1.858   4.744 -1.0139  0.7343  1.4916
 3166TIP3   OH2 9503   5.216   2.576   2.987  0.1816 -0.0650  0.2015
 3166TIP3    H1 9504   5.233   2.509   2.921 -0.9263 -1.5002  1.3115
 3166TIP3    H2 9505   5.228   2.531   3.071 -1.4308  0.8746  0.9834
 3167TIP3   OH2 9506   2.252   3.526   3.256  0.4826 -0.3770  0.0535
 3167TIP3    H1 9507   2.254   3.578   3.176  1.9533  1.2767  1.0954
 3167TIP3    H2 9508   2.288   3.441   3.230  1.7959  0.4252 -0.8978
 3168TIP3   OH2 9509   5.276   5.130   3.806 -0.3246  0.6094  0.6351
 3168TIP3    H1 9510   5.274   5.226   3.803 -2.8635  0.6076 -0.0455
 3168TIP3    H2 9511   5.239   5.103   3.722  2.6675 -1.0920 -0.2887
 3169TIP3   OH2 9512   0.496   5.841   1.468 -0.0508  0.1214 -0.2778
 3169TIP3    H1 9513   0.477   5.905   1.399 -0.7952  1.2154  0.8791
 3169TIP3    H2 9514   0.432   5.771   1.454  1.3500 -0.8724 -2.0962
 3170TIP3   OH2 9515   1.208   5.887   4.975  0.4484  0.4523  0.1099
 3170TIP3    H1 9516   1.121   5.896   5.015 -0.6593  2.2984 -2.4410
 3170TIP3    H2 9517   1.262   5.951   5.023  0.2910 -0.3026  1.3412
 3171TIP3   OH2 9518   3.253   5.862   3.989 -0.0354  0.2244 -0.0708
 3171TIP3    H1 9519   3.269   5.811   4.069 -0.6077 -2.0426 -1.3338
 3171TIP3    H2 9520   3.294   5.811   3.919  0.6130  2.2547 -1.2643
 3172TIP3   OH2 9521   6.147   0.932   3.395  0.0057 -0.1092 -0.6055
 3172TIP3    H1 9522   6.166   1.023   3.372 -0.1380 -0.5014 -2.4205
 3172TIP3    H2 9523   6.151   0.885   3.312 -0.1951 -1.7273  0.2602
 3173TIP3   OH2 9524   1.816   5.099   0.020  0.4413  0.2005  0.1603
 3173TIP3    H1 9525   1.905   5.096  -0.015  0.0205  0.0305 -0.9258
 3173TIP3    H2 9526   1.827   5.086   0.114  1.8118  2.9212  0.4771
 3174TIP3   OH2 9527   3.414   1.890   1.359  0.1210  0.2488  0.6557
 3174TIP3    H1 9528   3.460   1.877   1.442  0.6973 -1.8638  0.0497
 3174TIP3    H2 9529   3.463   1.838   1.296 -0.8285  1.1105 -0.8438
 3175TIP3   OH2 9530   3.087   5.566   4.934 -0.9277 -0.5073 -0.0728
 3175TIP3    H1 9531   3.008   5.607   4.900 -1.9711 -2.7064 -0.5114
 3175TIP3    H2 9532   3.057   5.515   5.010  0.1531 -0.9796  0.0631
 3176TIP3   OH2 9533   6.254   5.062   3.480 -0.1010  0.1488  0.1685
 3176TIP3    H1 9534   6.341   5.093   3.454  0.4846 -1.1957  0.4400
 3176TIP3    H2 9535   6.251   5.075   3.574  0.1832 -0.6749  0.2971
 3177TIP3   OH2 9536   4.779   2.795   2.756 -0.1689 -0.2225 -0.1388
 3177TIP3    H1 9537   4.854   2.763   2.806 -0.0179  0.5644  0.1499
 3177TIP3    H2 9538   4.711   2.729   2.769  0.6216 -1.1933 -0.7982
 3178TIP3   OH2 9539   1.455   2.224   2.654 -0.3214  0.2188  0.3946
 3178TIP3    H1 9540   1.523   2.181   2.602 -0.5584  1.0052 -0.5895
 3178TIP3    H2 9541   1.433   2.160   2.722  0.1347 -0.7621 -0.3573
 3179TIP3   OH2 9542   0.444   5.175   1.544  0.8915 -0.2656  0.1339
 3179TIP3    H1 9543   0.395   5.170   1.462  1.1265  3.3570 -0.3875
 3179TIP3    H2 9544   0.514   5.237   1.526  1.3821  0.0875  2.9007
 3180TIP3   OH2 9545   0.470   3.898   3.696 -0.2632 -0.8042 -0.1438
 3180TIP3    H1 9546   0.507   3.865   3.778 -3.7557 -1.8151  1.2045
 3180TIP3    H2 9547   0.522   3.976   3.677  1.1716 -0.9321  2.6435
 3181TIP3   OH2 9548   0.775   3.827   3.404  0.1456  0.7166  0.1189
 3181TIP3    H1 9549   0.868   3.816   3.424 -0.1949  0.6523  1.8406
 3181TIP3    H2 9550   0.744   3.738   3.384  0.5195  0.7898 -0.7975
 3182TIP3   OH2 9551   1.682   3.558   4.237  0.3275  0.3280 -0.2600
 3182TIP3    H1 9552   1.612   3.560   4.302 -0.5946 -0.2758 -1.2037
 3182TIP3    H2 9553   1.637   3.563   4.152  1.2855 -1.6008 -0.9416
 3183TIP3   OH2 9554   4.450   5.225   2.783 -0.1941  0.0603 -0.4176
 3183TIP3    H1 9555   4.376   5.173   2.812  0.1544  0.7819  1.9725
 3183TIP3    H2 9556   4.430   5.314   2.811  1.5869  0.2507  0.4022
 3184TIP3   OH2 9557   4.359   3.946   1.763 -0.2740  0.0289  0.0055
 3184TIP3    H1 9558   4.338   3.861   1.723  1.1091 -2.2497  3.6382
 3184TIP3    H2 9559   4.290   3.959   1.828 -0.9624  2.2327 -1.0961
 3185TIP3   OH2 9560   4.158   0.990   4.107  0.4584  0.5250  0.0482
 3185TIP3    H1 9561   4.192   1.063   4.055 -1.1465  0.1526 -1.6473
 3185TIP3    H2 9562   4.070   1.019   4.133  0.2587 -0.3346  0.3613
 3186TIP3   OH2 9563   4.652   2.112   3.423  0.8811 -0.7501 -0.7102
 3186TIP3    H1 9564   4.664   2.189   3.368  1.8333 -0.3099  0.1062
 3186TIP3    H2 9565   4.559   2.090   3.413  0.2321  1.3903  0.2189
 3187TIP3   OH2 9566   4.517   0.638   3.925 -0.0861 -0.1755  0.2970
 3187TIP3    H1 9567   4.446   0.586   3.888  0.2460  0.8016 -1.8947
 3187TIP3    H2 9568   4.474   0.701   3.983 -0.9724 -0.0200 -0.5040
 3188TIP3   OH2 9569   4.259   2.601   4.923 -0.2892  0.2694 -0.5019
 3188TIP3    H1 9570   4.278   2.677   4.868 -0.1256 -0.9232 -2.1660
 3188TIP3    H2 9571   4.280   2.525   4.868 -1.9133 -1.0144  0.5505
 3189TIP3   OH2 9572   1.493   3.127   4.709 -0.5783 -0.0684 -0.1369
 3189TIP3    H1 9573   1.579   3.168   4.718 -0.4036 -0.5769  0.5508
 3189TIP3    H2 9574   1.433   3.188   4.751 -0.2113 -0.8530  1.6312
 3190TIP3   OH2 9575   0.952   3.291   1.621 -0.1522 -0.1906  0.3433
 3190TIP3    H1 9576   0.928   3.199   1.626 -0.2249 -0.1323  1.1931
 3190TIP3    H2 9577   0.871   3.338   1.643 -1.1679  0.2214 -3.4184
 3191TIP3   OH2 9578   4.640   2.558   0.778  0.3968 -0.5482 -0.4284
 3191TIP3    H1 9579   4.597   2.632   0.821 -0.0680 -0.7100 -0.6017
 3191TIP3    H2 9580   4.729   2.588   0.761  0.6146 -0.5090  0.7047
 3192TIP3   OH2 9581   6.122   1.484   1.431  0.2887 -0.5408 -0.3450
 3192TIP3    H1 9582   6.138   1.450   1.343  1.5214 -1.8858  0.3590
 3192TIP3    H2 9583   6.184   1.556   1.440  0.2361 -0.4716 -0.5364
 3193TIP3   OH2 9584   5.809   3.910   4.462  0.0750 -0.3099  0.5920
 3193TIP3    H1 9585   5.725   3.901   4.507 -0.7971 -2.6181 -1.2791
 3193TIP3    H2 9586   5.794   3.872   4.375  2.7016  0.4737 -0.3064
 3194TIP3   OH2 9587   4.190   3.129   3.478 -0.1946  0.1849 -0.3537
 3194TIP3    H1 9588   4.110   3.165   3.441 -0.3297 -0.5262 -0.7734
 3194TIP3    H2 9589   4.214   3.190   3.548 -1.8732 -0.3369  0.7366
 3195TIP3   OH2 9590   3.144   1.925   2.937 -0.1898 -0.0263 -0.1650
 3195TIP3    H1 9591   3.202   1.848   2.936  0.8779  0.6547  2.3247
 3195TIP3    H2 9592   3.167   1.973   2.857  2.6632  0.1175  0.6089
 3196TIP3   OH2 9593   0.405   2.610   2.073  0.4321 -0.4638 -0.1556
 3196TIP3    H1 9594   0.492   2.573   2.061  1.6419  1.1365  2.6030
 3196TIP3    H2 9595   0.418   2.705   2.071 -0.8859 -0.1665  1.9316
 3197TIP3   OH2 9596   0.063   2.833   2.733  0.0472 -0.2711 -0.6102
 3197TIP3    H1 9597   0.133   2.768   2.725 -0.1083 -1.0834  2.8270
 3197TIP3    H2 9598   0.038   2.829   2.825 -2.7589  1.8729 -1.1518
 3198TIP3   OH2 9599   0.643   2.461   1.093 -0.5944  0.5022  0.5932
 3198TIP3    H1 9600   0.590   2.526   1.048  1.0891  1.8339  0.4343
 3198TIP3    H2 9601   0.628   2.380   1.044 -1.4354  1.1496 -0.2536
 3199TIP3   OH2 9602   1.908   2.782   2.140 -0.0896 -0.3039 -0.1044
 3199TIP3    H1 9603   1.974   2.818   2.199 -0.9059  2.1396 -0.5556
 3199TIP3    H2 9604   1.953   2.712   2.093  1.3010 -0.6258  1.6067
 3200TIP3   OH2 9605   0.284   0.102   0.760 -0.0802 -0.1915  0.4686
 3200TIP3    H1 9606   0.242   0.065   0.682  0.6856 -0.8107  0.3329
 3200TIP3    H2 9607   0.363   0.145   0.727 -0.9274  1.5889  0.6296
 3201TIP3   OH2 9608   5.653   4.162   4.895 -0.2117 -0.0579 -0.2528
 3201TIP3    H1 9609   5.711   4.152   4.819 -0.3359 -1.0390 -0.2265
 3201TIP3    H2 9610   5.704   4.215   4.956 -0.3481  1.2704 -1.2510
 3202TIP3   OH2 9611   2.858   4.908   4.125 -0.5653 -0.3446 -0.0136
 3202TIP3    H1 9612   2.908   4.916   4.045 -0.5275  2.3517  0.1850
 3202TIP3    H2 9613   2.777   4.957   4.108 -0.4533  0.5001  1.6130
 3203TIP3   OH2 9614   3.410   3.352   5.067  0.3643 -0.1597 -0.4983
 3203TIP3    H1 9615   3.419   3.440   5.103  1.5244 -0.1597 -0.7427
 3203TIP3    H2 9616   3.443   3.359   4.977  0.3068 -0.7987 -0.5783
 3204TIP3   OH2 9617   4.016   4.638   0.376  0.1903  0.3506  0.0902
 3204TIP3    H1 9618   3.977   4.723   0.396 -1.7781 -0.4575 -0.0962
 3204TIP3    H2 9619   3.966   4.605   0.302  3.1259  0.4426 -2.0921
 3205TIP3   OH2 9620   5.825   0.292   3.403  0.2538 -0.4883  0.1627
 3205TIP3    H1 9621   5.897   0.244   3.442 -0.7616  0.1035  3.0092
 3205TIP3    H2 9622   5.858   0.381   3.391 -0.0930 -0.0960  1.9195
 3206TIP3   OH2 9623   5.842   4.190   4.085  0.1876 -0.3216 -0.2591
 3206TIP3    H1 9624   5.882   4.266   4.042  1.3571 -1.8511 -2.0627
 3206TIP3    H2 9625   5.753   4.188   4.051 -0.0323  0.5322  0.2334
 3207TIP3   OH2 9626   1.019   1.616   3.597 -0.1745 -0.5111  0.5133
 3207TIP3    H1 9627   1.043   1.551   3.530  1.1957  0.8859 -0.4170
 3207TIP3    H2 9628   1.097   1.626   3.651 -1.3161 -1.7290  2.4951
 3208TIP3   OH2 9629   5.920   3.251   3.916 -0.2490 -0.0568  0.2571
 3208TIP3    H1 9630   5.858   3.186   3.885  2.2633 -2.4561 -0.0845
 3208TIP3    H2 9631   5.938   3.306   3.840  0.7442 -1.6354 -0.6807
 3209TIP3   OH2 9632   3.324   0.268   3.441 -0.0810  0.1403 -0.1826
 3209TIP3    H1 9633   3.372   0.216   3.376 -2.0225 -0.7252 -1.0375
 3209TIP3    H2 9634   3.346   0.229   3.525  0.5065 -0.3998 -0.5797
 3210TIP3   OH2 9635   5.399   4.462   0.433  0.1778  0.1861 -0.1313
 3210TIP3    H1 9636   5.415   4.478   0.527 -1.3174 -0.4805  0.2686
 3210TIP3    H2 9637   5.370   4.547   0.400  2.4788  0.9154 -0.4512
 3211TIP3   OH2 9638   5.443   0.785   4.595  0.2103 -0.2210  0.6564
 3211TIP3    H1 9639   5.446   0.877   4.566  0.4594  0.2146  2.0067
 3211TIP3    H2 9640   5.368   0.748   4.549  1.3984  0.0250 -1.6495
 3212TIP3   OH2 9641   5.160   3.683   3.718 -0.1105 -0.2953  0.3204
 3212TIP3    H1 9642   5.163   3.772   3.683 -0.7834  0.1189  1.2941
 3212TIP3    H2 9643   5.160   3.627   3.640  0.7495  0.5329 -0.2971
 3213TIP3   OH2 9644   5.167   3.229   4.765 -0.0193  0.2664  0.1769
 3213TIP3    H1 9645   5.224   3.244   4.840 -0.1336 -0.2392  0.3688
 3213TIP3    H2 9646   5.182   3.138   4.741 -0.1628  0.3579 -0.2645
 3214TIP3   OH2 9647   3.843   0.537   0.795 -0.1526  0.4796 -0.1302
 3214TIP3    H1 9648   3.838   0.443   0.808  0.1892  0.6441  1.4650
 3214TIP3    H2 9649   3.848   0.549   0.701 -0.3621 -1.0825 -0.3595
 3215TIP3   OH2 9650   5.225   0.661   2.251 -0.3104 -0.2025  0.2213
 3215TIP3    H1 9651   5.310   0.636   2.287 -0.2411 -0.9671 -0.4411
 3215TIP3    H2 9652   5.161   0.630   2.315 -0.2138 -1.9693 -0.4980
 3216TIP3   OH2 9653   1.017   3.905   2.285 -0.6040  0.1020  0.9343
 3216TIP3    H1 9654   0.933   3.951   2.279 -0.4192  0.5012  1.3694
 3216TIP3    H2 9655   1.047   3.899   2.194 -1.7107 -1.2038  0.6179
 3217TIP3   OH2 9656   5.399   5.512   5.064 -0.0378  0.1961  0.0595
 3217TIP3    H1 9657   5.304   5.524   5.066  0.0622  1.0433  0.3562
 3217TIP3    H2 9658   5.433   5.599   5.042  0.6476 -0.2208 -0.5267
 3218TIP3   OH2 9659   0.539   1.076   4.727 -0.2014 -0.1596  0.0337
 3218TIP3    H1 9660   0.506   1.004   4.780 -0.1119 -1.4053 -1.5288
 3218TIP3    H2 9661   0.467   1.096   4.666 -0.4982  1.5770  0.8953
 3219TIP3   OH2 9662   5.255   4.939   4.938 -0.0923 -0.8343 -0.4159
 3219TIP3    H1 9663   5.190   4.942   5.007  0.6338 -0.2422  0.2678
 3219TIP3    H2 9664   5.332   4.899   4.978  1.1365  1.6241 -0.1262
 3220TIP3   OH2 9665   5.684   4.421   1.727  0.2709  0.1030  0.1006
 3220TIP3    H1 9666   5.651   4.509   1.707 -0.3186 -0.1838 -0.2290
 3220TIP3    H2 9667   5.608   4.364   1.715  0.8687 -0.5658 -0.5511
 3221TIP3   OH2 9668   4.218   0.319   2.635  0.0649  0.3549 -0.0139
 3221TIP3    H1 9669   4.291   0.257   2.623 -0.0245 -0.0343  1.2579
 3221TIP3    H2 9670   4.259   0.405   2.635  0.3001  0.2530 -0.9766
 3222TIP3   OH2 9671   2.217   4.290   2.648  0.8886  0.1916  0.0887
 3222TIP3    H1 9672   2.142   4.329   2.692 -0.8140  0.6848 -2.9780
 3222TIP3    H2 9673   2.293   4.323   2.696 -0.7744 -0.4506  3.4011
 3223TIP3   OH2 9674   1.715   2.900   4.650 -0.3963  0.3459  0.7538
 3223TIP3    H1 9675   1.768   2.881   4.572 -1.5265 -1.3176  0.3325
 3223TIP3    H2 9676   1.636   2.940   4.615 -1.0331 -0.6731  0.9900
 3224TIP3   OH2 9677   3.993   2.873   3.070  0.3446 -0.0315  0.2381
 3224TIP3    H1 9678   4.085   2.853   3.083  0.3203 -1.2111 -1.1911
 3224TIP3    H2 9679   3.990   2.969   3.064  1.2094  0.1408  1.9145
 3225TIP3   OH2 9680   2.942   0.571   4.826 -0.4343 -0.0290  0.1577
 3225TIP3    H1 9681   2.881   0.559   4.899  0.9303 -0.5747  1.2558
 3225TIP3    H2 9682   2.908   0.647   4.779 -1.2531  0.4540  1.4737
 3226TIP3   OH2 9683   2.019   1.037   2.081 -0.2257  0.2154 -0.7132
 3226TIP3    H1 9684   1.994   1.128   2.097  0.2068 -0.0044  1.5415
 3226TIP3    H2 9685   2.079   1.042   2.007  1.5226  2.0891  0.7137
 3227TIP3   OH2 9686   0.954   5.655   0.586  0.1357  0.0879 -0.0958
 3227TIP3    H1 9687   0.978   5.746   0.602  1.0244 -0.2519  0.5153
 3227TIP3    H2 9688   0.980   5.639   0.495 -0.6355  0.6235 -0.4285
 3228TIP3   OH2 9689   3.718   0.938   1.163  0.4746 -0.3824  0.0365
 3228TIP3    H1 9690   3.673   1.021   1.180  1.6522 -0.0572  1.9125
 3228TIP3    H2 9691   3.803   0.963   1.127  0.2135 -0.8748 -0.9670
 3229TIP3   OH2 9692   0.290   3.765   3.137 -0.7765  0.2415 -0.3719
 3229TIP3    H1 9693   0.222   3.766   3.204 -0.6105 -3.0129  0.0232
 3229TIP3    H2 9694   0.251   3.717   3.064  1.3529 -3.0911  0.4191
 3230TIP3   OH2 9695   3.070   4.646   1.940  0.1813  0.0421  0.8290
 3230TIP3    H1 9696   3.112   4.700   2.008 -0.4957 -0.7291  1.8812
 3230TIP3    H2 9697   3.140   4.630   1.876  1.2166 -0.3144  2.0035
 3231TIP3   OH2 9698   4.069   2.522   1.667 -0.4960  0.8981 -0.4965
 3231TIP3    H1 9699   4.064   2.524   1.571  0.8813 -1.3912 -0.6866
 3231TIP3    H2 9700   4.090   2.612   1.691 -0.2151  1.3891 -2.3889
 3232TIP3   OH2 9701   2.436   0.142   2.793  0.1680  0.0940 -0.5694
 3232TIP3    H1 9702   2.497   0.153   2.720  1.0405  0.3447  0.1720
 3232TIP3    H2 9703   2.385   0.065   2.770 -0.6150  1.0239 -2.1426
 3233TIP3   OH2 9704   5.780   3.499   0.667  0.1980  0.8562 -0.5694
 3233TIP3    H1 9705   5.736   3.582   0.646 -1.8439 -0.3865 -1.5263
 3233TIP3    H2 9706   5.795   3.503   0.761  0.1150  2.2790 -0.5836
 3234TIP3   OH2 9707   3.324   2.456   0.179  0.5864 -0.0885  0.0988
 3234TIP3    H1 9708   3.274   2.490   0.105  1.0724 -0.4026 -0.3846
 3234TIP3    H2 9709   3.395   2.518   0.191  1.3414 -0.7709 -0.6379
 3235TIP3   OH2 9710   5.620   4.953   2.877 -0.3309  0.0910  0.3823
 3235TIP3    H1 9711   5.541   4.973   2.826  0.2026  1.5831  0.0775
 3235TIP3    H2 9712   5.608   5.001   2.959  0.3773  0.5970  0.2052
 3236TIP3   OH2 9713   3.488   5.776   4.330  0.3690 -0.5309  0.3945
 3236TIP3    H1 9714   3.444   5.732   4.403  0.2249  0.3313  0.8363
 3236TIP3    H2 9715   3.463   5.726   4.253  2.0699 -2.6772  1.1133
 3237TIP3   OH2 9716   3.795   1.958   5.036  0.8892  0.7370  0.0616
 3237TIP3    H1 9717   3.719   1.945   5.092  0.9011 -0.9077 -0.2381
 3237TIP3    H2 9718   3.779   2.042   4.993 -0.6575  0.5238  0.1520
 3238TIP3   OH2 9719   5.260   4.330   0.752 -0.0291  0.3381  0.7561
 3238TIP3    H1 9720   5.196   4.294   0.813 -0.1797  1.5785  1.3750
 3238TIP3    H2 9721   5.228   4.306   0.665  0.7077 -2.3157  1.1203
 3239TIP3   OH2 9722   2.172   4.775   1.595  0.2227  0.0348 -0.3020
 3239TIP3    H1 9723   2.090   4.814   1.567 -0.0814  0.0523  0.5658
 3239TIP3    H2 9724   2.234   4.848   1.601  0.3540 -0.0039 -1.1206
 3240TIP3   OH2 9725   2.453   1.627   0.907  0.9171  0.3188  0.1716
 3240TIP3    H1 9726   2.388   1.563   0.934  2.4471 -0.0765  3.4801
 3240TIP3    H2 9727   2.509   1.580   0.846  2.0169 -1.7112  2.5384
 3241TIP3   OH2 9728   2.607   4.086   0.089  0.3819 -0.0110  0.0993
 3241TIP3    H1 9729   2.525   4.062   0.133 -0.0356  0.3939 -0.4401
 3241TIP3    H2 9730   2.610   4.181   0.096 -0.1966  0.1646 -1.5839
 3242TIP3   OH2 9731   3.859   5.863   4.416 -0.0236  0.0341  0.5178
 3242TIP3    H1 9732   3.909   5.896   4.341  0.4458 -0.5664  0.5527
 3242TIP3    H2 9733   3.916   5.880   4.491  0.4064 -1.1919  0.4912
 3243TIP3   OH2 9734   0.985   1.714   0.395 -0.2576  0.2564 -0.6807
 3243TIP3    H1 9735   1.034   1.700   0.314 -0.5470 -0.0327 -0.8080
 3243TIP3    H2 9736   1.049   1.751   0.456  0.3865 -1.0362 -0.5321
 3244TIP3   OH2 9737   5.566   1.629   1.125 -0.5030  0.2744  0.0461
 3244TIP3    H1 9738   5.626   1.555   1.132 -0.8569  0.0604  0.9440
 3244TIP3    H2 9739   5.491   1.604   1.178 -1.3741  0.5667 -1.0308
 3245TIP3   OH2 9740   0.141   4.875   4.278 -0.8345  0.0378  0.0880
 3245TIP3    H1 9741   0.181   4.805   4.225 -0.0902  0.6798 -0.2237
 3245TIP3    H2 9742   0.091   4.926   4.215 -2.2412 -0.7951  0.4881
 3246TIP3   OH2 9743   4.079   2.548   3.234 -0.4730  0.6925  0.1848
 3246TIP3    H1 9744   4.113   2.539   3.146 -1.4392 -1.3173 -0.0448
 3246TIP3    H2 9745   3.984   2.556   3.223 -0.6614 -0.1117  1.0289
 3247TIP3   OH2 9746   1.807   2.651   2.406 -0.1843  0.6022 -0.2527
 3247TIP3    H1 9747   1.794   2.668   2.313  1.3984  1.2682 -0.3790
 3247TIP3    H2 9748   1.720   2.661   2.445 -0.7550  0.8978 -1.5707
 3248TIP3   OH2 9749   0.273   3.945   0.880  0.0445 -0.1790 -0.2683
 3248TIP3    H1 9750   0.351   3.910   0.836 -0.3093  0.4980 -1.4600
 3248TIP3    H2 9751   0.301   4.030   0.914 -0.1596  0.0376 -0.6435
 3249TIP3   OH2 9752   5.181   1.501   1.786  0.0589 -0.5159 -0.4317
 3249TIP3    H1 9753   5.194   1.559   1.712 -0.5634 -2.4002 -2.1050
 3249TIP3    H2 9754   5.216   1.550   1.861 -0.5432  2.0143 -1.6870
 3250TIP3   OH2 9755   5.016   2.089   5.077 -0.1908 -0.3782  0.3047
 3250TIP3    H1 9756   5.029   2.019   5.141 -0.4164 -0.0761  0.6870
 3250TIP3    H2 9757   5.027   2.170   5.128 -1.1643 -0.1315  0.1344
 3251TIP3   OH2 9758   0.975   2.104   2.698  0.2036  0.0189  0.8294
 3251TIP3    H1 9759   0.879   2.110   2.699  0.2792  4.1391  1.2934
 3251TIP3    H2 9760   0.999   2.100   2.791  0.4617  1.3224  0.8389
 3252TIP3   OH2 9761   0.409   0.616   3.209 -0.1200  0.5440 -1.0986
 3252TIP3    H1 9762   0.352   0.617   3.286  0.5262 -0.8817 -0.5686
 3252TIP3    H2 9763   0.478   0.679   3.230 -0.2857  0.6237 -0.7817
 3253TIP3   OH2 9764   5.876   0.614   4.096  0.2649  0.0041 -0.4920
 3253TIP3    H1 9765   5.871   0.544   4.032  0.1004  0.2802 -0.7851
 3253TIP3    H2 9766   5.924   0.684   4.052  0.1447  0.1971 -0.3176
 3254TIP3   OH2 9767   5.015   3.981   0.847  0.0630 -0.3937 -0.4216
 3254TIP3    H1 9768   4.989   3.927   0.921  0.8647 -0.3800 -0.1213
 3254TIP3    H2 9769   5.031   3.919   0.776  0.3278 -0.4912 -0.2745
 3255TIP3   OH2 9770   0.175   2.710   1.902  0.1423  0.2200  0.5500
 3255TIP3    H1 9771   0.229   2.631   1.905  0.3769  0.3698  0.2760
 3255TIP3    H2 9772   0.121   2.700   1.824  0.0546  0.2542  0.6058
 3256TIP3   OH2 9773   2.325   5.612   4.202  0.2945 -0.2471  0.0472
 3256TIP3    H1 9774   2.321   5.706   4.222 -1.6353 -0.4264  0.6988
 3256TIP3    H2 9775   2.256   5.598   4.137  2.1912 -0.8407 -1.9640
 3257TIP3   OH2 9776   0.188   2.355   1.572 -0.4422  0.3669 -0.3148
 3257TIP3    H1 9777   0.185   2.379   1.479 -1.5794  0.9928 -0.1412
 3257TIP3    H2 9778   0.224   2.266   1.572  1.1248  0.9644 -1.2061
 3258TIP3   OH2 9779   1.159   0.212   2.224 -0.6116  0.9110 -0.5201
 3258TIP3    H1 9780   1.066   0.230   2.220 -0.8733  0.1845  1.3296
 3258TIP3    H2 9781   1.168   0.142   2.288  1.1384  0.3797 -1.2636
 3259TIP3   OH2 9782   0.083   0.506   1.060 -0.5496 -0.0610 -0.3520
 3259TIP3    H1 9783   0.090   0.420   1.018  0.1179  0.5774 -1.5878
 3259TIP3    H2 9784   0.173   0.539   1.063 -0.4614 -0.2874  2.1259
 3260TIP3   OH2 9785   0.770   1.317   0.792 -0.0816 -0.2196  0.1606
 3260TIP3    H1 9786   0.812   1.310   0.707 -1.0074 -0.6922 -0.2685
 3260TIP3    H2 9787   0.694   1.259   0.787 -1.3454  1.3368  0.5681
 3261TIP3   OH2 9788   6.177   5.758   2.537 -0.1662 -0.3307  0.5490
 3261TIP3    H1 9789   6.221   5.838   2.510  2.2992 -1.6082  0.4489
 3261TIP3    H2 9790   6.162   5.710   2.456 -0.8174 -0.3550  0.6826
 3262TIP3   OH2 9791   0.634   2.038   3.071 -0.5618  0.1246  0.4325
 3262TIP3    H1 9792   0.662   2.094   3.144  1.1472 -0.0310 -0.0561
 3262TIP3    H2 9793   0.585   2.097   3.013  0.3266  0.8981  0.4376
 3263TIP3   OH2 9794   4.077   4.447   3.309 -0.7404  0.2602  0.1173
 3263TIP3    H1 9795   4.112   4.428   3.397 -0.6491  0.5951  0.1539
 3263TIP3    H2 9796   3.984   4.465   3.323 -0.8974 -0.4777  0.0402
 3264TIP3   OH2 9797   2.787   4.320   2.858  0.1504 -0.5418 -0.3119
 3264TIP3    H1 9798   2.723   4.323   2.788  0.2910 -0.4722 -0.4381
 3264TIP3    H2 9799   2.830   4.405   2.855 -0.7036 -0.0538  0.6724
 3265TIP3   OH2 9800   3.770   0.060   2.074  0.3094 -0.4268 -0.3260
 3265TIP3    H1 9801   3.702  -0.006   2.071  0.4978 -0.6590  0.2826
 3265TIP3    H2 9802   3.818   0.050   1.992  0.3060 -1.0179 -0.2579
 3266TIP3   OH2 9803   1.467   3.391   3.366  0.0681 -0.0692  0.3197
 3266TIP3    H1 9804   1.514   3.398   3.450  2.6758  0.7592 -1.0921
 3266TIP3    H2 9805   1.428   3.478   3.354  0.0346 -0.0610  0.4766
 3267TIP3   OH2 9806   0.022   4.916   2.728 -0.4097  0.4987 -0.0004
 3267TIP3    H1 9807   0.117   4.922   2.719 -0.5632  3.4577 -0.3480
 3267TIP3    H2 9808   0.002   4.969   2.805 -1.7097 -1.5394  1.1833
 3268TIP3   OH2 9809   1.075   3.977   1.749  0.9151  0.1040 -0.0316
 3268TIP3    H1 9810   1.140   3.959   1.682  1.1421 -0.4662  0.3375
 3268TIP3    H2 9811   1.008   4.029   1.704  0.4141 -1.3598 -1.0505
 3269TIP3   OH2 9812   1.534   5.261   1.894  0.1101  0.3538  0.0609
 3269TIP3    H1 9813   1.482   5.336   1.867 -1.5719 -0.8325 -0.1367
 3269TIP3    H2 9814   1.529   5.201   1.819  1.8370  0.2205  0.0104
 3270TIP3   OH2 9815   2.930   0.156   4.249 -0.0598 -0.5510 -0.1461
 3270TIP3    H1 9816   2.866   0.226   4.234 -2.2976 -2.7397 -1.7881
 3270TIP3    H2 9817   2.913   0.126   4.338  1.0467  1.0040  0.6425
 3271TIP3   OH2 9818   5.701   1.024   1.474 -0.2536 -0.3643  0.0992
 3271TIP3    H1 9819   5.639   1.073   1.529  2.0457  1.3856  1.3582
 3271TIP3    H2 9820   5.711   1.078   1.396 -0.3149 -0.6520 -0.1084
 3272TIP3   OH2 9821   4.901   0.485   3.493  0.3255  0.5276  0.5064
 3272TIP3    H1 9822   4.905   0.576   3.520 -0.0715  0.5490  0.5034
 3272TIP3    H2 9823   4.920   0.486   3.399 -1.8718  0.8698  0.0236
 3273TIP3   OH2 9824   4.248   4.790   0.536  0.4307 -0.0617  0.4555
 3273TIP3    H1 9825   4.323   4.813   0.481  0.6726  0.7155  1.0920
 3273TIP3    H2 9826   4.229   4.869   0.586  0.0834 -0.6803  1.3360
 3274TIP3   OH2 9827   1.487   0.183   0.996  0.3977  0.6449  0.2585
 3274TIP3    H1 9828   1.414   0.244   1.007 -1.3810 -1.3352  0.2308
 3274TIP3    H2 9829   1.470   0.142   0.910  1.8418  0.5004  0.0227
 3275TIP3   OH2 9830   3.014   4.205   5.126 -0.4696  0.3549 -0.1669
 3275TIP3    H1 9831   3.077   4.257   5.076 -0.6634 -0.7655 -1.6364
 3275TIP3    H2 9832   3.034   4.225   5.218  1.8405  0.2654 -0.5916
 3276TIP3   OH2 9833   0.525   2.652   0.919 -0.3683 -0.3613  0.1153
 3276TIP3    H1 9834   0.496   2.673   0.830 -2.9294 -2.6100  0.2921
 3276TIP3    H2 9835   0.510   2.733   0.969  1.0308  0.9096 -1.3798
 3277TIP3   OH2 9836   5.968   4.056   4.811 -0.7892 -0.1872  0.1452
 3277TIP3    H1 9837   5.965   4.087   4.901  0.8648  1.9686 -0.4622
 3277TIP3    H2 9838   6.020   3.975   4.815 -0.1739  0.2349  1.0597
 3278TIP3   OH2 9839   3.586   0.559   4.248 -0.3359  0.0455  0.6100
 3278TIP3    H1 9840   3.521   0.491   4.265 -0.8731  0.4521  0.2060
 3278TIP3    H2 9841   3.550   0.610   4.176  0.5815  0.0816  0.1565
 3279TIP3   OH2 9842   4.654   1.455   2.237 -0.3008  0.3266  0.0595
 3279TIP3    H1 9843   4.613   1.504   2.167  2.4133 -0.9215 -2.6809
 3279TIP3    H2 9844   4.642   1.363   2.212 -0.2826 -0.2148  1.9005
 3280TIP3   OH2 9845   4.347   5.612   1.433  0.7133 -0.1935 -0.5235
 3280TIP3    H1 9846   4.282   5.667   1.389  0.7875 -0.1049 -0.5226
 3280TIP3    H2 9847   4.319   5.610   1.525  1.1514  0.4923 -0.3651
 3281TIP3   OH2 9848   4.703   0.596   4.872 -0.1837  0.2586 -0.5668
 3281TIP3    H1 9849   4.651   0.570   4.948  2.0906 -0.0591  0.9811
 3281TIP3    H2 9850   4.693   0.691   4.868  0.8052  0.4764  1.0969
 3282TIP3   OH2 9851   1.183   0.624   4.767 -0.1061 -0.6187  0.0673
 3282TIP3    H1 9852   1.238   0.634   4.690 -0.7758  1.4844 -0.1992
 3282TIP3    H2 9853   1.120   0.555   4.744  0.4845 -0.8826 -0.7695
 3283TIP3   OH2 9854   5.501   5.475   0.326  0.4051 -0.6126  0.3695
 3283TIP3    H1 9855   5.465   5.419   0.258 -0.3090  0.4272 -0.1422
 3283TIP3    H2 9856   5.499   5.422   0.406  0.6723 -1.6305 -0.2826
 3284TIP3   OH2 9857   3.141   5.020   3.956  0.0364  0.1774 -0.0160
 3284TIP3    H1 9858   3.190   4.954   4.006  2.8062  2.0671  0.0106
 3284TIP3    H2 9859   3.209   5.080   3.924 -1.8803  0.5991 -3.7874
 3285TIP3   OH2 9860   3.864   0.805   3.952  0.4224  0.3533 -0.2452
 3285TIP3    H1 9861   3.860   0.808   4.047  1.9451  0.2899 -0.1557
 3285TIP3    H2 9862   3.819   0.884   3.923 -2.1954 -0.7663  0.4009
 3286TIP3   OH2 9863   3.894   3.149   2.607  0.4622 -0.0581  0.0203
 3286TIP3    H1 9864   3.926   3.100   2.531  2.5156 -1.8107  1.8922
 3286TIP3    H2 9865   3.845   3.222   2.569  3.2858  0.4877 -3.0339
 3287TIP3   OH2 9866   3.067   3.310   4.922 -0.2769  0.0758  0.2954
 3287TIP3    H1 9867   3.127   3.369   4.968 -0.5863 -0.2459  1.1455
 3287TIP3    H2 9868   3.087   3.224   4.958 -1.8472  0.0779  1.2965
 3288TIP3   OH2 9869   3.801   0.017   4.327 -0.4128 -0.0795  0.0250
 3288TIP3    H1 9870   3.795  -0.025   4.413 -1.0978 -0.2398 -0.0908
 3288TIP3    H2 9871   3.754   0.100   4.338  0.0835  0.2049 -0.0126
 3289TIP3   OH2 9872   6.197   1.253   0.933  0.3774  0.3520 -0.1811
 3289TIP3    H1 9873   6.215   1.259   0.839 -0.7098  0.4597 -0.3960
 3289TIP3    H2 9874   6.157   1.167   0.944  1.1700  0.0323  0.3163
 3290TIP3   OH2 9875   2.951   3.965   3.797 -0.4915  0.0147  0.1529
 3290TIP3    H1 9876   2.924   3.970   3.889  0.3817  0.0359  0.4138
 3290TIP3    H2 9877   2.981   4.053   3.776 -0.7837  0.0362 -0.1931
 3291TIP3   OH2 9878   3.064   2.455   1.699 -0.1607  0.6363  0.2277
 3291TIP3    H1 9879   3.030   2.366   1.706  0.8103  0.3736  2.5879
 3291TIP3    H2 9880   3.014   2.505   1.765  0.7254  1.3264  0.4000
 3292TIP3   OH2 9881   5.539   4.777   4.123  0.5953  0.0402 -0.3395
 3292TIP3    H1 9882   5.462   4.755   4.072 -0.0960 -1.6022  1.3289
 3292TIP3    H2 9883   5.540   4.873   4.124 -0.3639  0.1016 -1.8683
 3293TIP3   OH2 9884   0.258   1.793   2.713 -0.3377  0.8909 -0.1622
 3293TIP3    H1 9885   0.338   1.741   2.718 -0.0227  1.4404  0.6944
 3293TIP3    H2 9886   0.218   1.767   2.629 -0.2825 -0.8309  0.3100
 3294TIP3   OH2 9887   2.620   2.157   4.467 -0.3995  0.5125  0.1678
 3294TIP3    H1 9888   2.588   2.237   4.425 -0.3493 -0.0787 -1.0670
 3294TIP3    H2 9889   2.662   2.186   4.547  0.8535  1.8718 -0.9338
 3295TIP3   OH2 9890   5.849   0.544   0.945  0.1570 -0.4948 -0.2463
 3295TIP3    H1 9891   5.858   0.458   0.905 -0.8396 -1.0697  0.7436
 3295TIP3    H2 9892   5.771   0.538   1.000  0.4317  0.8438  0.3337
 3296TIP3   OH2 9893   5.389   0.652   1.704 -0.2559 -0.3185 -0.1335
 3296TIP3    H1 9894   5.323   0.710   1.743  1.5988 -0.2081  3.2292
 3296TIP3    H2 9895   5.420   0.699   1.627 -1.7195  1.1565  0.1129
 3297TIP3   OH2 9896   5.303   1.088   1.757 -0.2468  0.1873  0.1087
 3297TIP3    H1 9897   5.374   1.126   1.810  1.2588  0.1453 -1.7590
 3297TIP3    H2 9898   5.230   1.148   1.770  0.1213  0.2870  2.0315
 3298TIP3   OH2 9899   1.555   5.434   2.649  0.1560  0.2132 -0.4035
 3298TIP3    H1 9900   1.606   5.394   2.720  1.2885 -0.5016 -1.5882
 3298TIP3    H2 9901   1.497   5.364   2.620  0.7756  0.0121 -1.1863
 3299TIP3   OH2 9902   0.184   2.477   0.683  0.5415  0.1303  0.2628
 3299TIP3    H1 9903   0.275   2.473   0.712  0.2452  0.0965  1.2045
 3299TIP3    H2 9904   0.182   2.550   0.621  0.8191  1.3789  1.6835
 3300TIP3   OH2 9905   2.007   4.173   4.373 -0.1810  0.0848  0.2561
 3300TIP3    H1 9906   2.088   4.135   4.336  1.1451  1.6204  1.4385
 3300TIP3    H2 9907   2.035   4.212   4.456 -2.3234  0.0131  1.0631
 3301TIP3   OH2 9908   1.955   1.115   0.708 -0.0492 -0.1552  0.2392
 3301TIP3    H1 9909   1.921   1.178   0.772  0.1772  1.7303 -1.4132
 3301TIP3    H2 9910   2.050   1.120   0.717 -0.0329 -1.5667  1.2482
 3302TIP3   OH2 9911   3.927   4.564   0.116  0.3346  0.2230 -0.2924
 3302TIP3    H1 9912   3.979   4.520   0.049  0.4323 -0.5782  0.2858
 3302TIP3    H2 9913   3.836   4.546   0.091  0.3476 -2.5331  1.2756
 3303TIP3   OH2 9914   1.102   5.161   1.890  0.4634 -0.0065 -0.0132
 3303TIP3    H1 9915   1.181   5.133   1.937  0.8683 -0.2010 -0.7916
 3303TIP3    H2 9916   1.113   5.126   1.802 -0.5605 -0.1388 -0.0997
 3304TIP3   OH2 9917   6.126   5.494   1.400 -0.0321 -0.1395 -0.3863
 3304TIP3    H1 9918   6.130   5.521   1.492  2.1744  1.0504 -0.7581
 3304TIP3    H2 9919   6.141   5.400   1.401  0.1785 -0.0996  0.4769
 3305TIP3   OH2 9920   5.023   1.829   1.678  1.0147 -0.0551 -0.1658
 3305TIP3    H1 9921   5.045   1.921   1.665  1.5825  0.0258  1.2266
 3305TIP3    H2 9922   5.095   1.781   1.636  0.5617  0.1213 -1.1599
 3306TIP3   OH2 9923   1.554   4.507   2.795  0.2561 -0.1664  0.1987
 3306TIP3    H1 9924   1.469   4.506   2.750  0.2009  1.7401  0.1988
 3306TIP3    H2 9925   1.534   4.530   2.885  0.9025  2.6803 -0.2901
 3307TIP3   OH2 9926   4.172   5.527   0.221  0.1441  0.3491 -0.0001
 3307TIP3    H1 9927   4.231   5.457   0.247 -0.2829  0.0454  0.1699
 3307TIP3    H2 9928   4.091   5.510   0.269 -0.1129  0.7065 -0.2929
 3308TIP3   OH2 9929   0.616   0.424   5.174  0.3032  0.1282 -0.0610
 3308TIP3    H1 9930   0.561   0.416   5.096 -0.7102  1.2435  0.5039
 3308TIP3    H2 9931   0.684   0.487   5.149  0.1854  0.2156 -0.1647
 3309TIP3   OH2 9932   2.459   4.993   2.187 -0.2187  0.5698  0.2406
 3309TIP3    H1 9933   2.470   5.042   2.105 -1.0441  1.0145  0.3740
 3309TIP3    H2 9934   2.451   4.902   2.160 -0.0536  0.6654 -0.1405
 3310TIP3   OH2 9935   3.529   2.765   1.245  0.3965 -0.8674 -0.5736
 3310TIP3    H1 9936   3.518   2.710   1.167  3.2526 -0.3995 -1.4079
 3310TIP3    H2 9937   3.623   2.766   1.261  0.0891  0.8989  1.5645
 3311TIP3   OH2 9938   3.651   3.063   1.773 -0.2838 -0.8033 -0.1267
 3311TIP3    H1 9939   3.630   3.014   1.853 -0.1286  0.1262  0.4968
 3311TIP3    H2 9940   3.599   3.143   1.779  0.4672 -0.2707 -0.4694
 3312TIP3   OH2 9941   3.058   5.647   4.141 -0.2671 -0.5651 -0.0163
 3312TIP3    H1 9942   3.069   5.741   4.155 -4.1732  0.0282  0.2741
 3312TIP3    H2 9943   3.092   5.607   4.221  2.3929  0.4169 -0.5679
 3313TIP3   OH2 9944   5.560   1.170   1.067 -0.1833  0.0482 -0.6300
 3313TIP3    H1 9945   5.631   1.108   1.050  0.3145  0.6724 -0.8606
 3313TIP3    H2 9946   5.518   1.182   0.982  1.6696  2.3832 -1.3490
 3314TIP3   OH2 9947   5.953   4.432   3.978 -0.6937  0.1854  0.3321
 3314TIP3    H1 9948   5.922   4.512   4.019 -0.8610  0.3886 -0.1839
 3314TIP3    H2 9949   6.026   4.459   3.922 -1.5336  0.1844 -0.7974
 3315TIP3   OH2 9950   1.963   1.123   4.875  0.2794  0.3091  0.0079
 3315TIP3    H1 9951   1.928   1.121   4.786 -0.5971  0.4815  0.3429
 3315TIP3    H2 9952   1.926   1.046   4.918 -0.1361  0.7853  0.5220
 3316TIP3   OH2 9953   0.128   4.063   5.179 -0.3920  0.4214 -0.6884
 3316TIP3    H1 9954   0.074   4.138   5.203 -1.1983  0.5120 -2.5861
 3316TIP3    H2 9955   0.066   3.991   5.168 -0.2643  0.6042 -3.1914
 3317TIP3   OH2 9956   2.876   4.475   5.017 -0.4493  0.2905 -0.1663
 3317TIP3    H1 9957   2.939   4.545   5.032  0.5423 -0.8513  1.2858
 3317TIP3    H2 9958   2.872   4.428   5.100 -1.4345 -1.0877 -0.9524
 3318TIP3   OH2 9959   0.996   1.880   3.450 -0.3473  0.0822  0.0808
 3318TIP3    H1 9960   0.947   1.890   3.369 -0.0045  1.3275  0.0097
 3318TIP3    H2 9961   0.993   1.786   3.468 -0.0160 -0.2848 -1.6143
 3319TIP3   OH2 9962   3.693   0.590   1.545  0.1445  0.1019  0.9287
 3319TIP3    H1 9963   3.629   0.609   1.477 -1.0442 -2.0657  1.3400
 3319TIP3    H2 9964   3.752   0.665   1.545 -1.6462  1.5877 -0.3438
 3320TIP3   OH2 9965   0.094   3.800   3.809 -0.1047  0.1433  0.1492
 3320TIP3    H1 9966   0.017   3.744   3.816 -0.7497  0.9864 -0.1008
 3320TIP3    H2 9967   0.084   3.865   3.878 -0.2401  0.9933 -0.6575
 3321TIP3   OH2 9968   4.302   2.972   4.182 -0.0092 -0.1916  0.0556
 3321TIP3    H1 9969   4.385   3.006   4.150 -0.7038 -0.6916 -2.5254
 3321TIP3    H2 9970   4.236   3.025   4.138 -1.1659  0.9898  2.9511
 3322TIP3   OH2 9971   0.711   3.797   2.400  0.1517  0.0463  1.0375
 3322TIP3    H1 9972   0.640   3.848   2.438  0.1559  0.8384  0.0435
 3322TIP3    H2 9973   0.682   3.778   2.311  1.1992  0.4756  0.5799
 3323TIP3   OH2 9974   1.856   5.050   1.092  0.0150 -1.0623  0.6011
 3323TIP3    H1 9975   1.871   5.086   1.179 -0.4875  1.6188 -0.3266
 3323TIP3    H2 9976   1.764   5.023   1.094 -0.5822  0.8212  0.3663
 3324TIP3   OH2 9977   2.595   5.182   1.168 -0.4176 -0.6256  0.4155
 3324TIP3    H1 9978   2.586   5.171   1.074 -0.6221 -2.5953  0.6137
 3324TIP3    H2 9979   2.505   5.178   1.201 -0.3190 -0.2964  0.7313
 3325TIP3   OH2 9980   3.871   2.328   2.914 -0.2405 -0.4969  0.7377
 3325TIP3    H1 9981   3.849   2.339   3.006 -0.6655 -1.9031  0.8363
 3325TIP3    H2 9982   3.786   2.328   2.869  0.0402  2.0369  0.0704
 3326TIP3   OH2 9983   4.422   3.273   3.874  0.7245 -0.1164  0.1498
 3326TIP3    H1 9984   4.473   3.243   3.950  2.3208 -0.6874 -1.0849
 3326TIP3    H2 9985   4.468   3.352   3.845  1.1986 -0.8605 -1.2339
 3327TIP3   OH2 9986   2.382   0.233   4.031 -0.1123  0.6446  0.1072
 3327TIP3    H1 9987   2.475   0.227   4.008  0.2982  0.6625  1.6778
 3327TIP3    H2 9988   2.355   0.142   4.045 -0.6092  0.5499 -1.2537
 3328TIP3   OH2 9989   1.852   5.568   1.898 -0.2415 -0.3575 -0.5979
 3328TIP3    H1 9990   1.911   5.642   1.883  0.2199 -1.0462 -2.5601
 3328TIP3    H2 9991   1.814   5.551   1.812 -3.3532  0.0318  0.5703
 3329TIP3   OH2 9992   0.568   2.623   1.450 -0.5537  0.0280 -0.1839
 3329TIP3    H1 9993   0.526   2.645   1.534  0.0094 -1.2393  0.4514
 3329TIP3    H2 9994   0.503   2.568   1.405 -1.1752  1.3308 -0.9474
 3330TIP3   OH2 9995   3.667   0.597   3.893  0.2636 -0.3690 -0.1819
 3330TIP3    H1 9996   3.740   0.659   3.892 -0.9078  1.1843 -3.4457
 3330TIP3    H2 9997   3.589   0.651   3.905 -0.5614 -1.7215  0.8627
 3331TIP3   OH2 9998   3.504   2.648   1.590 -0.1734  0.2964 -0.0693
 3331TIP3    H1 9999   3.421   2.601   1.579  0.7560 -1.0992 -1.6130
 3331TIP3    H210000   3.493   2.728   1.538 -0.5839  0.1609 -0.1916
 3332TIP3   OH210001   1.516   0.431   4.884  0.1717 -0.0145  0.1228
 3332TIP3    H110002   1.496   0.337   4.884  1.8134 -0.4108  0.7165
 3332TIP3    H210003   1.522   0.454   4.791 -3.4871  0.3290 -0.1409
 3333TIP3   OH210004   3.757   2.943   4.703 -0.0643  0.4515 -0.1717
 3333TIP3    H110005   3.801   2.930   4.787  0.6392 -0.1827 -0.6230
 3333TIP3    H210006   3.677   2.992   4.725 -0.1065 -0.0693  0.9204
 3334TIP3   OH210007   2.540   0.378   0.833  0.0544  0.7556 -0.1537
 3334TIP3    H110008   2.465   0.370   0.775 -0.6440  1.1443  0.6744
 3334TIP3    H210009   2.527   0.462   0.878 -1.6896 -1.3239  3.6844
 3335TIP3   OH210010   2.820   2.093   0.386  0.3065 -0.2541 -0.0561
 3335TIP3    H110011   2.877   2.016   0.388  0.3189 -0.2383  0.3515
 3335TIP3    H210012   2.734   2.058   0.365  0.7321 -0.0989 -2.2489
 3336TIP3   OH210013   5.127   0.477   4.339  0.4888 -0.4469 -0.5030
 3336TIP3    H110014   5.053   0.490   4.279 -0.0922 -0.1171  0.2604
 3336TIP3    H210015   5.155   0.565   4.361 -0.2310 -0.5267  0.8117
 3337TIP3   OH210016   0.283   0.095   3.087  0.2110 -0.4631  0.3961
 3337TIP3    H110017   0.306   0.140   3.006  2.2655 -0.9436  0.6544
 3337TIP3    H210018   0.249   0.163   3.145 -1.0857 -0.0838 -0.7518
 3338TIP3   OH210019   0.438   3.246   4.664  0.8623 -0.4704  0.7992
 3338TIP3    H110020   0.347   3.274   4.656  0.5408 -1.9558 -1.6743
 3338TIP3    H210021   0.446   3.216   4.754 -0.5495  1.3237  1.6036
 3339TIP3   OH210022   4.474   0.527   0.356 -0.3532  0.1429  0.1704
 3339TIP3    H110023   4.392   0.520   0.405 -0.1483 -1.0912  0.3610
 3339TIP3    H210024   4.542   0.533   0.423 -0.3355  2.7075  0.0436
 3340TIP3   OH210025   5.917   4.740   3.018 -0.0696  0.1167 -0.1944
 3340TIP3    H110026   5.913   4.824   2.972 -0.5592  0.0439 -0.2833
 3340TIP3    H210027   5.887   4.761   3.107  1.0461  0.2961  0.1618
 3341TIP3   OH210028   6.219   1.147   2.996 -0.4315 -0.1794 -0.1950
 3341TIP3    H110029   6.300   1.199   2.999 -0.4571 -0.1866  1.3775
 3341TIP3    H210030   6.195   1.136   3.088 -1.3973 -1.4768 -0.5882
 3342TIP3   OH210031   2.360   5.960   2.155 -0.1322  0.0317 -0.6209
 3342TIP3    H110032   2.432   5.914   2.198  0.7887  0.4169 -1.6822
 3342TIP3    H210033   2.403   6.011   2.086 -1.4603  0.0773 -1.4477
 3343TIP3   OH210034   0.633   1.405   4.576  0.2763 -0.3141  0.4553
 3343TIP3    H110035   0.606   1.433   4.664 -2.6739  2.5554 -1.1280
 3343TIP3    H210036   0.687   1.478   4.544  0.4395 -0.8340 -0.4778
 3344TIP3   OH210037   1.012   5.691   2.887 -0.2101 -0.2803 -0.4664
 3344TIP3    H110038   0.980   5.621   2.830 -0.5521 -1.2439  0.8715
 3344TIP3    H210039   0.938   5.710   2.945  0.2629  0.4025 -0.0703
 3345TIP3   OH210040   5.364   3.364   3.499 -0.3708 -0.0690 -0.1007
 3345TIP3    H110041   5.271   3.382   3.510 -0.3918  0.1923 -0.6862
 3345TIP3    H210042   5.370   3.269   3.490 -0.5657 -0.0974  0.0650
 3346TIP3   OH210043   4.114   2.163   2.276  0.2850 -0.6233  0.2936
 3346TIP3    H110044   4.049   2.104   2.238  0.9257  0.0099 -1.9801
 3346TIP3    H210045   4.118   2.237   2.215  1.8068  0.2231  1.3403
 3347TIP3   OH210046   6.235   0.643   1.523  0.3878  0.6701 -0.2058
 3347TIP3    H110047   6.221   0.684   1.608  0.3331 -0.1162  0.1810
 3347TIP3    H210048   6.289   0.566   1.542  0.5420  0.5906 -0.9130
 3348TIP3   OH210049   0.728   0.176   2.527 -0.4039 -0.7646 -0.0801
 3348TIP3    H110050   0.777   0.119   2.468  0.5918  0.3704 -0.4020
 3348TIP3    H210051   0.636   0.163   2.504 -0.1407 -1.6213 -0.6811
 3349TIP3   OH210052   0.426   1.366   4.407 -0.2097  0.2096 -0.2792
 3349TIP3    H110053   0.363   1.404   4.469 -0.5327  1.7600 -1.4793
 3349TIP3    H210054   0.507   1.357   4.457 -1.4250 -2.2372  1.4290
 3350TIP3   OH210055   3.821   5.502   2.178 -0.1902 -0.3779  0.5954
 3350TIP3    H110056   3.912   5.531   2.184 -0.3811  0.5166 -0.4629
 3350TIP3    H210057   3.769   5.580   2.202 -0.6880 -0.5781  0.1885
 3351TIP3   OH210058   1.374   3.248   0.760 -0.4738 -0.1258  0.0549
 3351TIP3    H110059   1.445   3.312   0.758 -0.6243  0.1791  2.4664
 3351TIP3    H210060   1.417   3.163   0.754  0.0154  0.0946  0.4356
 3352TIP3   OH210061   5.599   2.320   3.244  0.0253 -0.2461 -0.4947
 3352TIP3    H110062   5.670   2.372   3.208  0.1167  0.5329  0.7705
 3352TIP3    H210063   5.632   2.287   3.327 -0.6628 -0.8711 -0.4538
 3353TIP3   OH210064   3.994   4.336   1.310  0.5098 -0.3160  0.3577
 3353TIP3    H110065   3.953   4.256   1.276  1.4960  0.7510 -3.9637
 3353TIP3    H210066   3.922   4.399   1.317  0.3087 -0.5163  0.0871
 3354TIP3   OH210067   4.176   5.102   1.926 -0.1365  0.0902 -0.9501
 3354TIP3    H110068   4.115   5.146   1.985  2.0901  0.1525  1.5503
 3354TIP3    H210069   4.129   5.094   1.843 -3.5467 -0.0911  0.8328
 3355TIP3   OH210070   6.017   2.777   3.198  0.3360 -0.0488  0.0270
 3355TIP3    H110071   5.934   2.754   3.156  0.8181  2.1135 -2.3902
 3355TIP3    H210072   6.054   2.693   3.225 -2.0302 -1.1744  0.0307
 3356TIP3   OH210073   4.359   5.823   1.126  0.0845 -0.0791 -0.3544
 3356TIP3    H110074   4.329   5.757   1.064 -1.3077  0.3051 -0.1190
 3356TIP3    H210075   4.441   5.855   1.089 -0.6447  0.0523 -1.9398
 3357TIP3   OH210076   4.816   2.005   1.858  0.0020 -0.0584 -0.1793
 3357TIP3    H110077   4.866   1.927   1.884  0.4995  0.2661 -0.1453
 3357TIP3    H210078   4.875   2.078   1.876 -0.3458  0.3040 -0.5006
 3358TIP3   OH210079   3.126   2.790   2.772 -0.4383 -0.1021 -0.6922
 3358TIP3    H110080   3.193   2.856   2.759 -0.5134  0.3581  1.1169
 3358TIP3    H210081   3.120   2.746   2.687  1.8235  0.1265 -1.0321
 3359TIP3   OH210082   0.010   2.499   2.716  0.0803  0.1428  0.2057
 3359TIP3    H110083  -0.001   2.443   2.792  1.1608  0.3448  0.5198
 3359TIP3    H210084   0.083   2.461   2.668 -0.8506 -0.2347 -0.9707
 3360TIP3   OH210085   1.879   5.964   4.856 -0.2389  0.0178  0.0831
 3360TIP3    H110086   1.842   5.928   4.937  0.8543 -1.0967  0.1129
 3360TIP3    H210087   1.936   6.035   4.884  1.1662 -1.2064  0.4397
 3361TIP3   OH210088   4.654   0.926   4.262 -0.1409 -0.6496  0.1113
 3361TIP3    H110089   4.629   0.961   4.347  1.9543 -2.3966  1.5698
 3361TIP3    H210090   4.733   0.975   4.238 -1.7066  1.0967 -1.8016
 3362TIP3   OH210091   2.831   2.188  -0.034 -0.3908  0.2161  0.2509
 3362TIP3    H110092   2.853   2.123   0.033 -1.3151 -1.3511 -0.8996
 3362TIP3    H210093   2.851   2.273   0.007  0.2615 -0.7478  2.0256
 3363TIP3   OH210094   4.670   5.363   1.411  0.4087 -0.1335  0.2903
 3363TIP3    H110095   4.728   5.289   1.433 -0.5121 -1.1819 -0.6679
 3363TIP3    H210096   4.630   5.388   1.494 -0.3344 -1.6701  0.4386
 3364TIP3   OH210097   4.927   2.598   0.287 -0.0281 -0.7888  0.1853
 3364TIP3    H110098   4.872   2.525   0.260  0.6488 -1.3414  0.2859
 3364TIP3    H210099   4.883   2.633   0.365  0.1028 -1.6188  0.6368
 3365TIP3   OH210100   0.860   5.522   0.835 -0.1264  0.1314 -0.0668
 3365TIP3    H110101   0.881   5.581   0.763 -1.0754 -1.1844 -1.4724
 3365TIP3    H210102   0.919   5.549   0.905 -1.4281  3.6199 -0.1277
 3366TIP3   OH210103   2.078   4.535   2.463 -0.4204 -0.1453  0.4505
 3366TIP3    H110104   2.079   4.630   2.474 -1.6519  0.2416 -1.9998
 3366TIP3    H210105   2.170   4.510   2.463 -0.0632  1.0740  0.9152
 3367TIP3   OH210106   1.442   0.696   1.188 -0.0010 -0.0523  0.0368
 3367TIP3    H110107   1.511   0.761   1.175 -0.9091  0.9266  0.0097
 3367TIP3    H210108   1.382   0.736   1.251 -0.2510 -1.1350  0.5197
 3368TIP3   OH210109   5.850   2.675   4.032 -0.7654 -0.2699 -0.5292
 3368TIP3    H110110   5.917   2.733   4.068 -0.7751  0.1493 -1.1738
 3368TIP3    H210111   5.798   2.731   3.974 -2.4904 -0.2612  0.9203
 3369TIP3   OH210112   4.762   3.333   0.626  0.0880  0.4411 -0.9480
 3369TIP3    H110113   4.676   3.372   0.611 -1.2480 -1.4985  1.2357
 3369TIP3    H210114   4.759   3.248   0.583 -0.0849 -0.7491  1.2969
 3370TIP3   OH210115   5.202   0.464   3.511  0.4416  0.4232  0.1771
 3370TIP3    H110116   5.241   0.551   3.503  0.5963  0.3044 -0.3724
 3370TIP3    H210117   5.108   0.479   3.498  0.4715  0.5017  0.0539
 3371TIP3   OH210118   0.428   5.476   1.716 -0.0172 -0.2393  0.3629
 3371TIP3    H110119   0.497   5.423   1.757  1.0625  1.4137  0.7971
 3371TIP3    H210120   0.394   5.530   1.787 -0.4125  0.3552 -0.2674
 3372TIP3   OH210121   1.250   1.282   4.658  0.4269 -0.2929  0.7486
 3372TIP3    H110122   1.171   1.326   4.628  0.7579 -0.3363 -0.2376
 3372TIP3    H210123   1.317   1.350   4.658  0.9536 -0.7486 -0.8273
 3373TIP3   OH210124   5.431   0.550   2.390 -1.0086  0.2231 -0.1275
 3373TIP3    H110125   5.396   0.607   2.458 -0.8107 -0.0831  0.2337
 3373TIP3    H210126   5.517   0.586   2.371 -0.3210 -0.7198  1.0520
 3374TIP3   OH210127   4.054   2.326   2.718 -0.0894 -0.1049 -0.1490
 3374TIP3    H110128   4.061   2.418   2.693 -0.6755 -0.4111 -1.5398
 3374TIP3    H210129   3.997   2.326   2.795  0.7034  0.7612  0.4573
 3375TIP3   OH210130   5.889   4.435   2.526  0.4010  0.1813  0.2416
 3375TIP3    H110131   5.818   4.496   2.505  1.8558  1.0748 -2.7421
 3375TIP3    H210132   5.959   4.491   2.560  0.8158 -0.1915  0.0076
 3376TIP3   OH210133   4.534   0.264   3.000 -0.2777 -0.3582  0.2525
 3376TIP3    H110134   4.609   0.322   3.017 -0.1691 -0.9338  1.9804
 3376TIP3    H210135   4.572   0.188   2.955  0.2101 -0.6771  1.1801
 3377TIP3   OH210136   5.623   3.481   2.082  0.2051  0.3053  0.0857
 3377TIP3    H110137   5.655   3.391   2.077 -3.9854 -1.4395  0.7218
 3377TIP3    H210138   5.612   3.497   2.176 -0.3638  0.9576 -0.0856
 3378TIP3   OH210139   5.483   1.221   1.953 -0.2565 -0.1969  0.1146
 3378TIP3    H110140   5.416   1.248   2.015  0.1457  0.3341  0.3290
 3378TIP3    H210141   5.565   1.230   2.001 -0.0175 -0.6645 -0.2040
 3379TIP3   OH210142   2.894   0.734   1.969  0.2240 -0.0504  0.3790
 3379TIP3    H110143   2.990   0.734   1.963  0.2724 -2.8418 -0.5024
 3379TIP3    H210144   2.874   0.658   2.023 -1.4997 -0.6552 -1.0219
 3380TIP3   OH210145   1.652   4.892   3.278 -0.1160  0.3160  0.9086
 3380TIP3    H110146   1.657   4.800   3.305 -1.9222  0.1501  0.8032
 3380TIP3    H210147   1.560   4.915   3.290  0.1582  1.8872  0.1678
 3381TIP3   OH210148   0.855   2.712   4.282  0.3548  0.7378 -0.0715
 3381TIP3    H110149   0.909   2.764   4.222 -0.8467  1.0723 -0.9051
 3381TIP3    H210150   0.855   2.762   4.363  0.3577  1.3327 -0.4318
 3382TIP3   OH210151   5.672   2.409   1.154  0.2510 -0.4557 -0.2921
 3382TIP3    H110152   5.710   2.322   1.153  0.8233 -0.2017 -0.9303
 3382TIP3    H210153   5.696   2.448   1.070 -1.9591 -0.5168 -1.0231
 3383TIP3   OH210154   2.551   4.650   3.733  0.1903  0.1790 -0.3819
 3383TIP3    H110155   2.457   4.651   3.712  0.2824 -0.8571 -0.9278
 3383TIP3    H210156   2.568   4.560   3.761  0.5867  0.9104  1.8998
 3384TIP3   OH210157   0.141   4.270   3.111  0.1015  0.1719  0.4165
 3384TIP3    H110158   0.113   4.311   3.029  0.7387  1.5755  0.8727
 3384TIP3    H210159   0.233   4.294   3.119  0.4916 -1.3498  0.7402
 3385TIP3   OH210160   2.451   4.555   4.097  0.0361 -0.4419 -0.2867
 3385TIP3    H110161   2.484   4.577   4.184  0.6265 -1.5585 -0.2164
 3385TIP3    H210162   2.417   4.466   4.105  1.5036 -1.1551 -1.5438
 3386TIP3   OH210163   2.897   2.181   3.408  0.0707  0.1167  0.1533
 3386TIP3    H110164   2.957   2.129   3.461  1.6415  0.8658 -0.8228
 3386TIP3    H210165   2.933   2.270   3.412 -0.9735  0.5845 -0.4804
 3387TIP3   OH210166   0.504   4.115   0.262  0.2484  0.2978 -0.0235
 3387TIP3    H110167   0.441   4.053   0.297 -0.6733  1.2454  0.0339
 3387TIP3    H210168   0.501   4.189   0.322 -0.0194  1.1712 -1.0897
 3388TIP3   OH210169   4.247   1.824   0.675 -0.5877  0.5390 -0.7532
 3388TIP3    H110170   4.229   1.875   0.595 -1.3728 -0.1314 -1.0143
 3388TIP3    H210171   4.170   1.769   0.686 -0.0110 -0.1530 -0.1248
 3389TIP3   OH210172   0.178   4.098   2.462  0.0066 -0.2237 -0.3151
 3389TIP3    H110173   0.202   4.116   2.371  1.6083 -0.2192  0.0717
 3389TIP3    H210174   0.260   4.108   2.510 -1.1314  1.4024  1.3895
 3390TIP3   OH210175   1.282   4.170   0.960  0.6463 -0.8800 -0.2763
 3390TIP3    H110176   1.366   4.189   1.003  0.2224 -0.9395  0.5976
 3390TIP3    H210177   1.301   4.095   0.903  1.2801 -0.6431 -0.3893
 3391TIP3   OH210178   0.849   4.569   1.661  0.1078  0.4784  0.2771
 3391TIP3    H110179   0.765   4.584   1.704  0.4993  0.1719  1.1856
 3391TIP3    H210180   0.886   4.656   1.648 -1.1777  0.7534 -1.9021
 3392TIP3   OH210181   2.078   2.414   2.090 -0.4666 -0.2362 -0.1908
 3392TIP3    H110182   2.095   2.502   2.055 -0.7696  0.4429  1.2911
 3392TIP3    H210183   1.987   2.396   2.066 -0.1988 -0.4615 -1.0966
 3393TIP3   OH210184   0.709   5.608   3.678  0.0108  0.7540 -0.6878
 3393TIP3    H110185   0.685   5.700   3.673 -1.4323  0.3962 -0.7158
 3393TIP3    H210186   0.779   5.597   3.613  0.7124  1.9627 -0.1619
 3394TIP3   OH210187   3.431   5.585   0.352  0.1633 -0.2533  0.6404
 3394TIP3    H110188   3.344   5.546   0.346  0.2677 -0.2773 -1.0814
 3394TIP3    H210189   3.422   5.671   0.310  0.4301  0.7713  2.5643
 3395TIP3   OH210190   2.268   2.159   0.586 -0.2815 -0.0043 -0.1752
 3395TIP3    H110191   2.317   2.080   0.563 -0.3068 -0.4962  1.3403
 3395TIP3    H210192   2.181   2.146   0.548 -1.2993 -2.1899  2.6127
 3396TIP3   OH210193   0.551   5.722   3.934 -0.0178 -0.5952 -0.6494
 3396TIP3    H110194   0.599   5.789   3.983 -0.1638 -0.6368 -0.4477
 3396TIP3    H210195   0.548   5.755   3.844  0.3974 -0.5968 -0.6664
 3397TIP3   OH210196   2.003   4.444   3.452  0.1491 -0.4091 -0.0056
 3397TIP3    H110197   1.917   4.487   3.452 -0.1926 -1.0479 -1.3675
 3397TIP3    H210198   2.066   4.515   3.458 -0.4559  0.0115  2.5909
 3398TIP3   OH210199   0.206   1.539   3.216  0.3947  0.0769  0.3088
 3398TIP3    H110200   0.125   1.589   3.217  0.6395  0.4818  0.7420
 3398TIP3    H210201   0.272   1.601   3.247  0.6697 -0.5590  1.0430
 3399TIP3   OH210202   2.917   1.144   3.440 -0.4384 -0.3076 -0.0561
 3399TIP3    H110203   3.004   1.151   3.480 -0.9229  1.8626  0.7592
 3399TIP3    H210204   2.863   1.101   3.506 -0.1673 -0.9788 -0.2661
 3400TIP3   OH210205   5.911   3.227   1.941 -0.0522 -0.6657  0.3185
 3400TIP3    H110206   5.920   3.319   1.967 -0.0518 -0.2994 -0.9149
 3400TIP3    H210207   5.936   3.226   1.848 -1.9090 -1.5616 -0.2165
 3401TIP3   OH210208   0.363   1.396   4.866  0.3270 -0.5703  0.7181
 3401TIP3    H110209   0.338   1.400   4.958  1.5503 -2.0809  1.1691
 3401TIP3    H210210   0.451   1.434   4.863 -0.1730  0.6206 -0.0800
 3402TIP3   OH210211   2.512   2.176   1.215 -0.0407 -0.3486 -0.0669
 3402TIP3    H110212   2.496   2.084   1.236  0.6285 -0.1540  1.4165
 3402TIP3    H210213   2.523   2.219   1.300  0.3119  0.9860 -0.7536
 3403TIP3   OH210214   1.805   0.769   2.959 -0.1226  0.0598  0.1384
 3403TIP3    H110215   1.782   0.755   2.867  0.1420 -0.6744  0.1776
 3403TIP3    H210216   1.749   0.708   3.008 -1.5400  1.6656  0.6292
 3404TIP3   OH210217   3.444   4.066   2.606  0.2162  0.6334 -0.5508
 3404TIP3    H110218   3.538   4.055   2.592  0.0212 -1.3065 -0.6179
 3404TIP3    H210219   3.437   4.107   2.692  1.1307 -1.0340  0.3810
 3405TIP3   OH210220   0.405   4.231   3.475  0.4203  0.4737  0.2356
 3405TIP3    H110221   0.334   4.294   3.464 -2.5663 -2.4334  1.2591
 3405TIP3    H210222   0.412   4.218   3.569  2.5779  0.8959  0.1784
 3406TIP3   OH210223   1.655   2.088   2.537  0.3634  1.0037  0.0146
 3406TIP3    H110224   1.723   2.058   2.477 -0.1386 -1.1162  0.4178
 3406TIP3    H210225   1.580   2.030   2.520 -1.4289  3.3095 -0.4898
 3407TIP3   OH210226   3.244   4.676   1.709  0.3079 -0.5186  0.0647
 3407TIP3    H110227   3.175   4.739   1.688  1.8503  0.6687 -1.8043
 3407TIP3    H210228   3.321   4.710   1.664  1.8444 -2.3938  1.1582
 3408TIP3   OH210229   2.805   1.999   0.777  0.2894  0.0662 -0.4009
 3408TIP3    H110230   2.860   1.960   0.708  1.0033 -0.5271  0.4720
 3408TIP3    H210231   2.862   2.064   0.819  0.0424  0.0491 -0.0330
 3409TIP3   OH210232   5.094   1.176   4.511  0.0839  0.7695  0.2141
 3409TIP3    H110233   5.184   1.144   4.519  0.2702  0.8492 -1.2188
 3409TIP3    H210234   5.102   1.271   4.505 -0.0844  0.7799  0.1153
 3410TIP3   OH210235   2.004   4.106   2.122  0.5296  0.0361  0.0638
 3410TIP3    H110236   2.072   4.079   2.184  1.5133  0.2257 -0.9005
 3410TIP3    H210237   1.926   4.057   2.149  1.3690 -1.1539  0.4345
 3411TIP3   OH210238   0.811   0.801   1.696  0.3198  0.2036  0.6092
 3411TIP3    H110239   0.888   0.854   1.675 -0.7386  1.9387  0.8380
 3411TIP3    H210240   0.837   0.750   1.773  1.0823  1.1667  1.0143
 3412TIP3   OH210241   0.170   4.803   2.143 -0.1897  0.2026 -0.3541
 3412TIP3    H110242   0.158   4.882   2.197 -0.9841 -1.4899  2.1162
 3412TIP3    H210243   0.116   4.819   2.065 -0.1857  2.1600 -0.0086
 3413TIP3   OH210244   2.995   3.571   4.526 -0.4182 -0.1981  0.0806
 3413TIP3    H110245   2.952   3.490   4.551  3.4064 -2.5772 -0.2059
 3413TIP3    H210246   3.051   3.592   4.601 -0.4056  1.4968 -0.3683
 3414TIP3   OH210247   5.863   2.732   1.709 -0.2194 -0.5707 -0.0999
 3414TIP3    H110248   5.867   2.700   1.799 -0.9490 -0.5942 -0.0693
 3414TIP3    H210249   5.797   2.677   1.667 -1.4756  0.8340 -0.0579
 3415TIP3   OH210250   2.265   5.453   1.152  0.1284 -0.4514  0.5027
 3415TIP3    H110251   2.255   5.400   1.072  0.4041  0.3026 -0.0461
 3415TIP3    H210252   2.284   5.541   1.119 -0.0068 -0.0816  1.4063
 3416TIP3   OH210253   1.900   2.081   4.233 -0.4808 -0.1117 -0.2970
 3416TIP3    H110254   1.880   2.026   4.157  1.7826 -1.9096  0.2666
 3416TIP3    H210255   1.962   2.146   4.200  1.6595 -1.7810  0.1432
 3417TIP3   OH210256   3.898   5.609   4.522 -0.3189  0.2659  0.0402
 3417TIP3    H110257   3.860   5.697   4.524 -0.3301  0.3767 -2.4172
 3417TIP3    H210258   3.831   5.554   4.481 -0.0049 -0.7459  0.8413
 3418TIP3   OH210259   3.920   4.643   5.032  0.5220 -0.1115  0.2940
 3418TIP3    H110260   3.933   4.550   5.013  1.8470  0.2318 -0.5876
 3418TIP3    H210261   3.927   4.686   4.947 -0.3236  0.7853  0.6566
 3419TIP3   OH210262   4.592   1.338   0.052 -0.2161  0.1618 -0.7115
 3419TIP3    H110263   4.607   1.383  -0.032 -1.1656  0.9489 -0.4765
 3419TIP3    H210264   4.595   1.245   0.030  1.6211  0.3011 -1.2438
 3420TIP3   OH210265   3.710   0.227   4.515 -0.0119 -0.0905 -0.0255
 3420TIP3    H110266   3.624   0.192   4.536 -0.1743 -0.6987 -1.5526
 3420TIP3    H210267   3.707   0.318   4.545 -0.4098 -0.6881  1.8638
 3421TIP3   OH210268   0.698   2.549   3.321 -0.0633 -0.5292 -0.3723
 3421TIP3    H110269   0.678   2.643   3.324  0.9818 -0.3057  0.0843
 3421TIP3    H210270   0.768   2.538   3.385  0.6070 -1.4251 -1.2344
 3422TIP3   OH210271   2.225   1.467   0.117  0.3121  0.3440  0.5815
 3422TIP3    H110272   2.176   1.521   0.055  1.6808  1.6487  0.5669
 3422TIP3    H210273   2.244   1.525   0.191 -0.0533 -0.7731  1.6016
 3423TIP3   OH210274   1.121   3.262   4.772  0.6457 -0.6411 -0.0857
 3423TIP3    H110275   1.130   3.169   4.794 -0.0002 -0.4992  0.8946
 3423TIP3    H210276   1.209   3.297   4.776  0.6539 -0.7631  1.8312
 3424TIP3   OH210277   1.109   3.958   1.345  0.4194 -0.1737  0.5478
 3424TIP3    H110278   1.073   4.040   1.312 -1.2285 -1.3818 -0.8773
 3424TIP3    H210279   1.180   3.937   1.284 -0.6905 -0.9139 -0.5578
 3425TIP3   OH210280   0.141   1.388   4.270 -0.0012  0.1349  0.2298
 3425TIP3    H110281   0.232   1.357   4.266  0.4144  1.2677  0.6903
 3425TIP3    H210282   0.145   1.480   4.248 -0.9392  0.3885  1.0127
 3426TIP3   OH210283   6.064   5.017   4.708  0.1700 -0.4141  0.4951
 3426TIP3    H110284   6.139   4.960   4.727  1.8409  0.9830 -1.4483
 3426TIP3    H210285   6.077   5.094   4.764  0.2079 -0.1452  0.1155
 3427TIP3   OH210286   3.388   3.177   0.938 -0.3452 -0.1208  0.2631
 3427TIP3    H110287   3.315   3.154   0.995  0.1704  0.5226  1.2156
 3427TIP3    H210288   3.450   3.222   0.995  0.9382 -0.9071 -0.4474
 3428TIP3   OH210289   1.036   1.432   0.147  0.2306  0.3549  0.6017
 3428TIP3    H110290   1.108   1.375   0.120 -0.2290  0.3762 -0.7580
 3428TIP3    H210291   1.079   1.514   0.172  0.7163  0.2745  0.0622
 3429TIP3   OH210292   5.719   3.252   2.222  0.1956 -0.1988 -0.5141
 3429TIP3    H110293   5.691   3.188   2.288  1.1065  0.5911  0.6754
 3429TIP3    H210294   5.814   3.256   2.233  0.1945  0.9897 -0.9145
 3430TIP3   OH210295   1.563   3.428   0.714 -0.1291 -0.5939 -0.0833
 3430TIP3    H110296   1.556   3.519   0.684  1.0850  0.2845  2.0636
 3430TIP3    H210297   1.629   3.389   0.657  1.4197  0.7433  0.6886
 3431TIP3   OH210298   3.189   5.072   1.279 -1.1297  0.5717  0.5012
 3431TIP3    H110299   3.151   4.985   1.289  0.6580 -0.1340  1.5892
 3431TIP3    H210300   3.185   5.089   1.185 -2.5226 -0.1820  0.3920
 3432TIP3   OH210301   6.234   5.960   4.343 -0.0030 -0.1069 -0.2174
 3432TIP3    H110302   6.227   5.921   4.256  0.0989  0.3214 -0.4250
 3432TIP3    H210303   6.183   5.903   4.400  0.8439 -1.0209 -0.3463
 3433TIP3   OH210304   1.226   3.317   2.890 -0.1841  0.1513  0.4451
 3433TIP3    H110305   1.205   3.231   2.854  0.6342 -0.5372  1.5441
 3433TIP3    H210306   1.322   3.323   2.882 -0.3590  1.8439 -1.4839
 3434TIP3   OH210307   2.095   2.536   4.490  0.1522 -0.1299 -0.3343
 3434TIP3    H110308   2.187   2.511   4.490 -0.1081 -1.1536 -0.3671
 3434TIP3    H210309   2.054   2.477   4.427 -0.6759 -0.3243  0.3587
 3435TIP3   OH210310   4.960   1.609   1.149 -0.8764  0.1667  0.1889
 3435TIP3    H110311   5.029   1.662   1.189 -1.2527  0.3064  0.6546
 3435TIP3    H210312   4.884   1.620   1.206 -0.7406 -1.4849  0.7385
 3436TIP3   OH210313   2.546   3.488   3.708  0.3092 -0.0772  0.0078
 3436TIP3    H110314   2.590   3.431   3.646  0.6430  0.1673  0.0205
 3436TIP3    H210315   2.558   3.576   3.673 -1.7580 -0.1215 -1.0034
 3437TIP3   OH210316   4.778   3.596   3.924 -0.0150 -0.0865 -0.3421
 3437TIP3    H110317   4.734   3.586   4.008 -1.0082  0.3441 -0.7929
 3437TIP3    H210318   4.863   3.634   3.945  0.6702 -2.0744  0.6607
 3438TIP3   OH210319   1.315   5.228   3.040 -0.0981  0.2722 -0.2524
 3438TIP3    H110320   1.333   5.189   2.955 -0.6960 -1.0142  0.1800
 3438TIP3    H210321   1.241   5.287   3.025  0.4411  0.8323 -0.7992
 3439TIP3   OH210322   2.967   2.586   4.497  0.4659 -0.2628  0.0408
 3439TIP3    H110323   3.007   2.644   4.432 -1.6534  1.6964  0.3472
 3439TIP3    H210324   2.943   2.507   4.449  1.7476 -0.1562 -0.8176
 3440TIP3   OH210325   1.174   1.192   1.531 -0.3104  0.1920 -0.3603
 3440TIP3    H110326   1.252   1.138   1.548 -0.1004  0.9349  1.1735
 3440TIP3    H210327   1.120   1.138   1.473  1.2776 -0.3927 -1.3799
 3441TIP3   OH210328   0.393   0.831   0.839  0.3024  0.6195  0.0568
 3441TIP3    H110329   0.392   0.775   0.761 -1.5305 -0.0409  0.4876
 3441TIP3    H210330   0.480   0.870   0.840  0.8695 -0.5004 -1.5035
 3442TIP3   OH210331   3.911   3.649   0.155  0.2301 -0.9330  0.8974
 3442TIP3    H110332   3.848   3.579   0.144 -0.8470  0.3721 -2.1963
 3442TIP3    H210333   3.859   3.723   0.188  0.9923 -0.9794  2.2974
 3443TIP3   OH210334   2.210   2.822   2.158 -0.0693  0.2401  0.5692
 3443TIP3    H110335   2.215   2.912   2.125  0.6053  0.4322  1.1764
 3443TIP3    H210336   2.296   2.785   2.139  0.5834  0.5692  2.6868
 3444TIP3   OH210337   3.616   1.724   2.973 -0.3318 -0.3205  0.1053
 3444TIP3    H110338   3.701   1.760   2.948 -0.2948  0.0020  0.6898
 3444TIP3    H210339   3.616   1.725   3.069 -0.3526 -1.8198  0.1474
 3445TIP3   OH210340   4.881   5.400   1.741 -0.8115  0.4902  0.0960
 3445TIP3    H110341   4.901   5.486   1.704 -0.3528  0.7157  0.8418
 3445TIP3    H210342   4.791   5.407   1.772 -1.2623  0.2378 -1.1315
 3446TIP3   OH210343   2.306   0.012   1.990  0.4841 -0.0299 -0.1704
 3446TIP3    H110344   2.317   0.107   1.992 -0.2746  0.0471  0.5071
 3446TIP3    H210345   2.309  -0.011   1.896 -3.1078  1.1185 -0.7055
 3447TIP3   OH210346   1.537   3.672   1.593  0.3084  0.2136 -0.1409
 3447TIP3    H110347   1.553   3.707   1.505  0.0194 -0.5042 -0.4861
 3447TIP3    H210348   1.534   3.577   1.581  0.2275  0.1120  0.6422
 3448TIP3   OH210349   2.483   5.702   2.495  0.7709  0.2797 -0.4284
 3448TIP3    H110350   2.500   5.609   2.481  3.0243  0.7820 -1.4133
 3448TIP3    H210351   2.497   5.715   2.589  0.8352 -0.2830 -0.3578
 3449TIP3   OH210352   1.985   5.547   2.464  0.1038 -0.3155  0.1584
 3449TIP3    H110353   2.049   5.613   2.436 -0.2495  0.0018  0.0954
 3449TIP3    H210354   1.924   5.594   2.520  0.6394 -0.8844  1.2640
 3450TIP3   OH210355   1.310   4.265   4.745 -0.1004  0.1058  0.0457
 3450TIP3    H110356   1.252   4.194   4.771 -0.7331  0.3504 -0.6581
 3450TIP3    H210357   1.396   4.225   4.737 -0.3639 -0.4749  0.1305
 3451TIP3   OH210358   4.884   2.562   1.053  0.0807  0.3324  0.1195
 3451TIP3    H110359   4.935   2.599   1.125 -0.4239  0.4048  0.4446
 3451TIP3    H210360   4.886   2.630   0.985  0.2831  0.3985  0.1905
 3452TIP3   OH210361   3.135   5.695   4.577 -0.6758  0.2517  0.2337
 3452TIP3    H110362   3.224   5.673   4.549 -0.5433  0.9091  0.1204
 3452TIP3    H210363   3.092   5.610   4.588  0.2295 -0.1065  1.1816
 3453TIP3   OH210364   2.301   1.701   0.296  0.5889  0.0215 -0.1698
 3453TIP3    H110365   2.221   1.670   0.338  1.1244 -1.1029  0.0677
 3453TIP3    H210366   2.288   1.795   0.284 -0.6818 -0.1192  0.0327
 3454TIP3   OH210367   0.518   3.907   4.305 -0.4000 -0.5994 -0.2040
 3454TIP3    H110368   0.565   3.989   4.314 -0.9263 -0.4290  1.3215
 3454TIP3    H210369   0.554   3.850   4.373 -0.6182 -1.3374 -0.6921
 3455TIP3   OH210370   2.316   0.557   0.537  0.3297 -0.0812  0.4116
 3455TIP3    H110371   2.347   0.472   0.506  2.3446  0.0371  1.9365
 3455TIP3    H210372   2.231   0.539   0.577 -1.2079 -0.6377 -2.7249
 3456TIP3   OH210373   0.826   3.929   3.970 -0.3756  0.0405  0.9741
 3456TIP3    H110374   0.826   3.950   3.877  1.9984  0.2746  0.9539
 3456TIP3    H210375   0.734   3.912   3.991 -0.9399 -0.3282 -1.4583
 3457TIP3   OH210376   2.060   0.634   1.006  0.3075 -0.4355 -0.6704
 3457TIP3    H110377   1.995   0.664   0.942  0.0213 -3.9928 -2.3079
 3457TIP3    H210378   2.011   0.578   1.066  1.3002 -0.3964  0.2146
 3458TIP3   OH210379   3.787   1.984   0.080 -0.5913 -0.0973 -0.5199
 3458TIP3    H110380   3.734   2.036   0.019  0.0385  0.7611 -0.3511
 3458TIP3    H210381   3.874   1.983   0.042 -0.7023 -1.5097 -0.7916
 3459TIP3   OH210382   5.536   5.935   1.457 -0.3456  0.1882 -0.1431
 3459TIP3    H110383   5.515   5.865   1.395 -1.3501  0.0764  0.3055
 3459TIP3    H210384   5.555   5.890   1.539 -0.7450  0.4263  0.0811
 3460TIP3   OH210385   5.492   5.625   3.493 -0.2904 -0.4363  0.2068
 3460TIP3    H110386   5.477   5.574   3.413 -0.6760  0.0898 -0.0628
 3460TIP3    H210387   5.582   5.657   3.485 -0.4720 -0.0167 -0.2366
 3461TIP3   OH210388   3.086   1.788   4.555  0.0822 -0.1776 -0.1055
 3461TIP3    H110389   3.022   1.775   4.486 -0.5127 -0.6814  0.5296
 3461TIP3    H210390   3.035   1.786   4.636  0.7947  0.1858  0.3667
 3462TIP3   OH210391   5.784   2.880   1.479 -0.1720  0.1872 -0.4606
 3462TIP3    H110392   5.791   2.825   1.401 -0.6808  0.0727 -0.4253
 3462TIP3    H210393   5.810   2.822   1.551 -0.0259  0.1978 -0.5036
 3463TIP3   OH210394   2.543   4.145   0.391 -0.3481 -0.3442 -0.4487
 3463TIP3    H110395   2.578   4.235   0.396 -1.8923  0.2010  1.6364
 3463TIP3    H210396   2.459   4.155   0.348 -0.3278 -0.8739 -0.6091
 3464TIP3   OH210397   4.939   2.035   4.451  0.1289  0.2782 -0.0379
 3464TIP3    H110398   4.893   1.954   4.430  0.4372  0.3332 -1.0081
 3464TIP3    H210399   4.996   2.050   4.375  1.6510  0.2727  1.0664
 3465TIP3   OH210400   4.630   1.276   4.133 -0.5802 -0.0999 -0.1750
 3465TIP3    H110401   4.601   1.285   4.224 -0.4964 -0.1747 -0.1412
 3465TIP3    H210402   4.714   1.322   4.131  0.7925 -2.4107  0.4468
 3466TIP3   OH210403   1.974   1.242   2.966 -0.0642  0.5299 -0.3088
 3466TIP3    H110404   1.984   1.149   2.983  0.8151  0.2240 -2.2108
 3466TIP3    H210405   1.925   1.246   2.884 -0.4983  1.7636 -0.0075
 3467TIP3   OH210406   3.427   5.586   2.131  0.3430 -0.3218 -0.6389
 3467TIP3    H110407   3.495   5.646   2.161  0.7585 -1.4228  0.7445
 3467TIP3    H210408   3.466   5.537   2.059 -0.1678  1.3475 -2.1248
 3468TIP3   OH210409   2.330   5.475   2.870 -0.3494 -0.1636  0.7983
 3468TIP3    H110410   2.349   5.502   2.959 -0.2025 -0.0987  0.7470
 3468TIP3    H210411   2.296   5.554   2.828  0.5768  0.0877  0.4993
 3469TIP3   OH210412   3.370   4.657   0.132 -0.6321 -0.2882 -0.4544
 3469TIP3    H110413   3.384   4.590   0.065 -0.1423 -1.2157  0.5488
 3469TIP3    H210414   3.342   4.735   0.083 -0.0291 -0.8630 -1.7541
 3470TIP3   OH210415   0.058   3.034   4.813  0.0235 -0.2388 -0.4103
 3470TIP3    H110416   0.124   3.075   4.869  0.3403 -1.2603 -0.0068
 3470TIP3    H210417   0.052   3.091   4.737  0.3144  0.6447  0.2109
 3471TIP3   OH210418   1.739   2.924   3.196  0.7441  0.4263  0.5159
 3471TIP3    H110419   1.685   2.846   3.208 -0.5334  0.7941 -2.1206
 3471TIP3    H210420   1.768   2.947   3.284 -1.6033 -1.0857  1.7835
 3472TIP3   OH210421   0.670   2.093   4.257 -0.6726 -0.2739 -0.5293
 3472TIP3    H110422   0.755   2.066   4.290  0.3173  1.5140 -1.4430
 3472TIP3    H210423   0.635   2.153   4.323  0.9456  2.6602 -2.1280
 3473TIP3   OH210424   1.838   1.221   2.721  0.1156  0.4270 -0.2348
 3473TIP3    H110425   1.764   1.238   2.663  0.3672  1.9783 -0.1435
 3473TIP3    H210426   1.910   1.196   2.663 -0.1597  0.0472 -0.4166
 3474TIP3   OH210427   4.781   1.283   3.282 -0.1489 -0.1663  0.0300
 3474TIP3    H110428   4.690   1.263   3.258 -0.4356 -0.3265  1.1563
 3474TIP3    H210429   4.778   1.295   3.377  0.8732  0.6181 -0.0137
 3475TIP3   OH210430   2.565   3.804   4.388 -0.1383 -0.7600  0.4616
 3475TIP3    H110431   2.527   3.739   4.448  0.6794  0.6334  2.6047
 3475TIP3    H210432   2.635   3.845   4.438  2.6372 -1.5006 -2.4878
 3476TIP3   OH210433   5.100   3.680   4.679  0.0029  0.2026 -0.2040
 3476TIP3    H110434   5.141   3.766   4.676 -0.8764  0.6084 -1.5617
 3476TIP3    H210435   5.032   3.688   4.745  1.0214  0.0012  0.9115
 3477TIP3   OH210436   5.780   5.329   4.098  0.3316  0.1084  0.0219
 3477TIP3    H110437   5.733   5.312   4.016  0.6893  0.0651 -0.1756
 3477TIP3    H210438   5.711   5.352   4.160  0.1781  1.8801 -0.7186
 3478TIP3   OH210439   3.240   1.369   2.197 -0.1995 -0.1996  0.1935
 3478TIP3    H110440   3.220   1.289   2.246  1.4609 -0.3628  0.6638
 3478TIP3    H210441   3.242   1.438   2.264 -1.9481  0.3471 -0.2519
 3479TIP3   OH210442   1.355   4.698   1.786  0.1779  0.0523 -0.1394
 3479TIP3    H110443   1.299   4.680   1.710  2.4020 -1.2461 -1.5640
 3479TIP3    H210444   1.390   4.613   1.811  2.2157  0.9295  0.1350
 3480TIP3   OH210445   5.915   5.076   0.119 -0.0699 -0.1416  0.6644
 3480TIP3    H110446   5.961   5.102   0.198  1.6761  0.2560 -0.4258
 3480TIP3    H210447   5.886   5.159   0.080  1.3323 -0.1023 -0.3801
 3481TIP3   OH210448   0.208   1.051   3.319 -0.2721 -0.0653 -0.5264
 3481TIP3    H110449   0.199   1.147   3.319 -1.3365 -0.1420 -1.0678
 3481TIP3    H210450   0.185   1.025   3.408  0.6849  0.2234 -0.1834
 3482TIP3   OH210451   1.794   4.082   3.495 -0.0705  0.1535 -0.1051
 3482TIP3    H110452   1.864   4.031   3.455  1.2301  0.6698  1.4218
 3482TIP3    H210453   1.735   4.016   3.532  0.2158 -0.2750 -0.4018
 3483TIP3   OH210454   0.942   2.266   2.358 -0.2829  0.5016 -0.1260
 3483TIP3    H110455   0.883   2.340   2.365 -0.3361  0.6604 -1.7673
 3483TIP3    H210456   1.014   2.286   2.417 -1.4399  0.7012  1.2630
 3484TIP3   OH210457   0.490   5.427   2.751 -0.0964 -0.4626 -0.4466
 3484TIP3    H110458   0.517   5.517   2.765 -3.1239  0.0811  3.4726
 3484TIP3    H210459   0.556   5.375   2.798 -0.9507  0.1579  1.5232
 3485TIP3   OH210460   5.376   3.156   2.942  0.2996 -0.2399  0.8221
 3485TIP3    H110461   5.286   3.134   2.966  0.0187  0.6941  0.6651
 3485TIP3    H210462   5.381   3.251   2.950  0.3563  0.1233 -2.1034
 3486TIP3   OH210463   3.192   4.413   1.167  0.4951  0.6537  0.0913
 3486TIP3    H110464   3.147   4.351   1.111 -3.6524  0.0470  3.5582
 3486TIP3    H210465   3.159   4.499   1.140  0.3944  0.6056  0.0631
 3487TIP3   OH210466   4.540   0.269   0.501  0.3968 -0.3680 -0.2259
 3487TIP3    H110467   4.458   0.317   0.490  1.3949  2.1600  2.2117
 3487TIP3    H210468   4.584   0.276   0.416 -0.5092  1.0540 -0.6048
 3488TIP3   OH210469   3.901   4.189   3.238 -0.3534  0.7815 -0.6759
 3488TIP3    H110470   3.862   4.153   3.158  0.2837  1.9782 -1.5631
 3488TIP3    H210471   3.974   4.130   3.257 -1.4729 -0.4433 -0.0224
 3489TIP3   OH210472   0.897   1.148   3.417  0.2316 -0.3399 -0.4782
 3489TIP3    H110473   0.917   1.241   3.404 -1.4998 -0.2445 -3.2709
 3489TIP3    H210474   0.805   1.147   3.444  0.1465 -1.2276 -0.7806
 3490TIP3   OH210475   2.243   4.332   2.187 -0.1302 -0.2221  0.2197
 3490TIP3    H110476   2.307   4.321   2.117  1.3239 -1.0062  1.6103
 3490TIP3    H210477   2.203   4.417   2.170 -0.0351 -0.5188 -1.7074
 3491TIP3   OH210478   1.728   5.858   3.673  0.1101 -0.1411  0.3202
 3491TIP3    H110479   1.658   5.924   3.669  0.6719  0.4211 -3.6883
 3491TIP3    H210480   1.682   5.775   3.681 -0.8531  0.3843  0.3955
 3492TIP3   OH210481   1.346   5.658  -0.016 -0.3590 -0.3513  0.1899
 3492TIP3    H110482   1.409   5.590  -0.043 -1.9262 -1.7314 -0.1559
 3492TIP3    H210483   1.350   5.656   0.079  0.6237  0.0970  0.1776
 3493TIP3   OH210484   6.281   4.299   5.026  0.2834 -0.0768  0.7671
 3493TIP3    H110485   6.252   4.280   4.937 -0.9968 -0.6644  1.2806
 3493TIP3    H210486   6.346   4.369   5.016  0.4217 -0.3793 -0.6424
 3494TIP3   OH210487   5.407   3.252   2.114  0.3035 -0.3786  0.2237
 3494TIP3    H110488   5.444   3.338   2.091 -1.5498  0.7231  1.1398
 3494TIP3    H210489   5.373   3.264   2.202 -1.1660 -1.6666 -0.1375
 3495TIP3   OH210490   1.174   5.787   1.041 -0.1945 -0.0043 -0.1390
 3495TIP3    H110491   1.198   5.697   1.064  0.9686  0.9147  2.7294
 3495TIP3    H210492   1.078   5.788   1.048 -0.2060 -0.9559  0.0130
 3496TIP3   OH210493   3.983   5.704   3.434 -0.3284  0.3447 -0.2285
 3496TIP3    H110494   3.945   5.645   3.369  1.3802 -0.5732 -0.4356
 3496TIP3    H210495   4.005   5.783   3.386 -1.3548  0.6363 -0.2354
 3497TIP3   OH210496   1.741   3.209   4.837 -0.6439  0.1987 -0.1409
 3497TIP3    H110497   1.740   3.114   4.843  0.0697  0.0628 -1.7275
 3497TIP3    H210498   1.807   3.237   4.900  0.0737 -0.4511 -0.5974
 3498TIP3   OH210499   4.838   0.985   4.523  0.7055  0.3773  0.1215
 3498TIP3    H110500   4.929   1.013   4.518  0.6193  0.7021  0.3876
 3498TIP3    H210501   4.843   0.891   4.541  0.9985  0.0824 -1.3875
 3499TIP3   OH210502   0.105   2.737   4.792 -0.0914 -0.4801  0.0111
 3499TIP3    H110503   0.043   2.704   4.858 -0.3452  0.1712  0.1054
 3499TIP3    H210504   0.103   2.832   4.803  1.9494 -0.4885  0.9353
 3500TIP3   OH210505   6.101   4.354   3.097 -0.4644  0.9452  0.1797
 3500TIP3    H110506   6.118   4.375   3.188  0.7728 -1.0310  0.4617
 3500TIP3    H210507   6.181   4.379   3.050  0.1445 -0.8875  0.1765
 3501TIP3   OH210508   0.872   5.919   0.831  0.3427  0.0985 -0.1215
 3501TIP3    H110509   0.796   5.876   0.792  1.4639 -0.2218 -2.0757
 3501TIP3    H210510   0.940   5.912   0.764  1.3687  2.5257  0.5719
 3502TIP3   OH210511   4.191   0.936   3.714 -0.5583 -0.2149 -0.0285
 3502TIP3    H110512   4.144   0.999   3.659  0.8829  1.0256  0.1047
 3502TIP3    H210513   4.221   0.987   3.789  1.1793 -0.8759 -0.2186
 3503TIP3   OH210514   2.228   3.929   2.444  1.1893 -0.0998  0.1064
 3503TIP3    H110515   2.305   3.899   2.493  1.6683  0.0572 -0.5272
 3503TIP3    H210516   2.261   3.943   2.355  0.5986  0.6941 -0.0010
 3504TIP3   OH210517   1.959   4.352   4.024 -0.4062  0.4263  0.2396
 3504TIP3    H110518   1.890   4.371   4.088 -0.7850  0.2466 -0.1078
 3504TIP3    H210519   1.956   4.257   4.014 -2.2429  0.6184 -2.0718
 3505TIP3   OH210520   2.036   5.391   2.012  0.0704 -0.2585  0.3993
 3505TIP3    H110521   1.961   5.450   2.004 -0.6706 -0.9680  1.7365
 3505TIP3    H210522   2.000   5.304   1.994  0.8253 -0.4758 -0.0863
 3506TIP3   OH210523   3.713   4.940   3.441 -0.3223  0.3707 -0.3121
 3506TIP3    H110524   3.672   4.917   3.358 -1.6983  3.1844 -0.5125
 3506TIP3    H210525   3.663   4.891   3.506 -0.3707 -0.5074 -0.9913
 3507TIP3   OH210526  -0.008   3.246   1.627  0.4659 -0.0036 -0.6091
 3507TIP3    H110527   0.017   3.322   1.575  1.3497 -0.7128 -1.2608
 3507TIP3    H210528   0.075   3.204   1.650 -0.0194 -1.1064 -0.7952
 3508TIP3   OH210529   3.205   5.299   3.465 -0.2697  0.0525  0.2588
 3508TIP3    H110530   3.268   5.358   3.424 -0.4622 -0.2450 -0.4903
 3508TIP3    H210531   3.249   5.213   3.463 -1.3555 -0.5230 -1.8997
 3509TIP3   OH210532   2.071   1.939   4.926 -0.0336 -0.0791 -0.3519
 3509TIP3    H110533   2.008   1.879   4.968  1.1206 -1.0966 -0.0307
 3509TIP3    H210534   2.058   1.924   4.832 -0.2624 -0.3020 -0.2875
 3510TIP3   OH210535   4.053   5.695   1.882 -0.3286 -0.5505  0.4418
 3510TIP3    H110536   4.084   5.646   1.958 -1.5463 -1.2362  0.5154
 3510TIP3    H210537   3.977   5.647   1.851 -1.2221  0.9767  0.1519
 3511TIP3   OH210538   2.997   5.674   1.646 -0.6073 -0.0058 -0.3664
 3511TIP3    H110539   3.032   5.761   1.662  0.0285 -0.1777 -0.7766
 3511TIP3    H210540   3.003   5.629   1.730 -0.9747  0.3521 -0.1449
 3512TIP3   OH210541   3.669   5.431   3.600  0.3306 -0.2539 -0.4435
 3512TIP3    H110542   3.728   5.356   3.604  0.5896 -0.0513 -0.4455
 3512TIP3    H210543   3.721   5.505   3.632 -0.4734 -0.3950  1.3172
 3513TIP3   OH210544   1.481   3.594   3.613 -0.1843  0.2384  0.0605
 3513TIP3    H110545   1.539   3.670   3.620 -2.3135  1.8465  1.3909
 3513TIP3    H210546   1.393   3.631   3.613 -1.3068 -2.2421  0.6698
 3514TIP3   OH210547   2.413   2.980   4.250  0.0308  0.0135  0.6181
 3514TIP3    H110548   2.410   3.052   4.187 -0.7147 -0.5161  0.0420
 3514TIP3    H210549   2.506   2.958   4.256  1.1379  4.1023  4.3864
 3515TIP3   OH210550   0.093   2.899   0.835  0.4390  0.7585  0.1990
 3515TIP3    H110551   0.010   2.939   0.811 -0.3270 -0.9866 -0.2068
 3515TIP3    H210552   0.135   2.964   0.892 -0.1255  2.6777 -1.4340
 3516TIP3   OH210553   1.791   1.574   3.086  0.0603  0.0978 -0.0674
 3516TIP3    H110554   1.841   1.512   3.139 -0.7575 -0.4905  0.0329
 3516TIP3    H210555   1.848   1.595   3.012  0.3793 -0.7044 -0.0504
 3517TIP3   OH210556   2.339   3.141   3.447  0.4097  0.2177  0.1926
 3517TIP3    H110557   2.340   3.169   3.356 -0.2659 -0.9753 -0.2059
 3517TIP3    H210558   2.257   3.092   3.456  0.9481 -0.5388  1.1719
 3518TIP3   OH210559   2.681   0.593   5.039 -0.0936 -0.2967 -0.2932
 3518TIP3    H110560   2.735   0.671   5.024  0.9354 -1.3310 -2.5732
 3518TIP3    H210561   2.685   0.578   5.133  1.6680  1.0378 -0.1073
 3519TIP3   OH210562   0.723   2.076   2.805  0.1015  0.3844 -0.3520
 3519TIP3    H110563   0.713   1.994   2.854 -1.1225  0.5586 -0.2769
 3519TIP3    H210564   0.638   2.118   2.812  0.2049  0.8659 -1.8360
 3520TIP3   OH210565   0.088   3.078   2.882  0.8268  0.2286 -0.5890
 3520TIP3    H110566   0.063   2.986   2.880  1.3885  0.0855 -1.2409
 3520TIP3    H210567   0.062   3.112   2.796  1.4830  0.4395 -0.7095
 3521TIP3   OH210568   1.640   3.949   1.955 -0.2335  0.8078 -0.4153
 3521TIP3    H110569   1.614   3.861   1.930  0.1896  0.3847  0.5862
 3521TIP3    H210570   1.557   3.994   1.974 -0.3676  0.0704  0.8254
 3522TIP3   OH210571   2.324   5.765   0.743 -0.3168  0.4434 -0.1476
 3522TIP3    H110572   2.237   5.729   0.725 -0.6387  1.8824 -1.7397
 3522TIP3    H210573   2.325   5.849   0.697  1.9110  0.4795 -0.1380
 3523TIP3   OH210574   3.176   4.073   1.234  0.0192  0.2728 -0.1207
 3523TIP3    H110575   3.165   4.118   1.318 -3.1461  0.8470 -0.7211
 3523TIP3    H210576   3.216   4.139   1.178 -1.7191  1.3947 -0.1331
 3524TIP3   OH210577   0.038   0.302   3.523  0.1546  0.6154  0.5121
 3524TIP3    H110578   0.069   0.223   3.565  1.0973 -0.2698 -1.6975
 3524TIP3    H210579  -0.027   0.338   3.584 -0.7676 -2.1607  1.3231
 3525TIP3   OH210580   0.911   0.248   3.254 -0.0268 -0.1085 -0.0137
 3525TIP3    H110581   0.887   0.311   3.186 -3.0193 -0.0660  0.9354
 3525TIP3    H210582   0.896   0.162   3.215 -0.5357 -0.1088  0.1737
 3526TIP3   OH210583   2.395   4.895   2.627 -0.1820 -0.0965 -0.2615
 3526TIP3    H110584   2.431   4.807   2.636 -1.1391 -0.3315  1.9126
 3526TIP3    H210585   2.301   4.882   2.613 -0.8885  0.4734  3.0417
 3527TIP3   OH210586   3.651   1.998   1.093  0.0217  0.1447  0.0561
 3527TIP3    H110587   3.699   1.916   1.080  1.1096  0.2652  2.6315
 3527TIP3    H210588   3.717   2.066   1.082 -0.1306  0.4644  1.0191
 3528TIP3   OH210589   1.661   4.013   0.616 -0.4573 -0.1820  0.0538
 3528TIP3    H110590   1.685   4.086   0.558 -0.5837  0.7760  1.1595
 3528TIP3    H210591   1.576   3.983   0.582 -0.5825  0.4396 -0.2054
 3529TIP3   OH210592   5.524   1.804   1.776  0.0998 -0.0326 -0.5131
 3529TIP3    H110593   5.579   1.812   1.698 -0.1122 -0.3350 -0.6976
 3529TIP3    H210594   5.504   1.711   1.781 -0.7735  0.1331 -0.7134
 3530TIP3   OH210595   4.143   2.844   2.808  0.5538  0.5058  0.8476
 3530TIP3    H110596   4.198   2.895   2.869  1.9637  2.4992 -1.8845
 3530TIP3    H210597   4.058   2.887   2.811  0.6189  0.6130  1.3451
 3531TIP3   OH210598   2.583   5.745   5.075 -0.0748 -0.2290  0.1751
 3531TIP3    H110599   2.561   5.836   5.093  2.4520  0.4504  0.2991
 3531TIP3    H210600   2.619   5.712   5.158 -0.0221 -1.0295 -0.1524
 3532TIP3   OH210601   5.930   0.750   2.633 -0.3714  0.0347 -0.0846
 3532TIP3    H110602   6.003   0.809   2.618 -1.0720  1.5048  1.9451
 3532TIP3    H210603   5.966   0.662   2.618  1.1302  0.8453 -1.4610
 3533TIP3   OH210604   2.080   5.663   0.824  0.3870 -0.2699 -0.4535
 3533TIP3    H110605   2.132   5.596   0.870 -1.0052 -0.6932  0.5556
 3533TIP3    H210606   1.998   5.619   0.802 -0.2087  0.8595 -0.5435
 3534TIP3   OH210607   0.815   0.043   2.303  0.0695 -0.1076 -0.0292
 3534TIP3    H110608   0.830   0.133   2.272 -1.6179  0.3953  0.5384
 3534TIP3    H210609   0.738   0.013   2.255  0.5862 -1.2562 -0.1758
 3535TIP3   OH210610   1.869   1.420   0.113 -0.4931 -0.2272 -0.2438
 3535TIP3    H110611   1.876   1.426   0.018  2.5460 -2.9834 -0.3847
 3535TIP3    H210612   1.790   1.368   0.128 -0.9609  0.1760 -1.2532
 3536TIP3   OH210613   5.794   2.022   1.543 -0.4757 -0.0103 -0.0395
 3536TIP3    H110614   5.828   1.961   1.477  1.3556 -0.9975  1.6925
 3536TIP3    H210615   5.870   2.073   1.569  0.7844 -3.8436  5.6711
 3537TIP3   OH210616   3.443   3.947   3.665 -0.2491  0.1367 -0.1123
 3537TIP3    H110617   3.527   3.992   3.660 -1.2734  2.0012 -2.7943
 3537TIP3    H210618   3.444   3.887   3.591 -0.9165 -0.5078  0.3959
 3538TIP3   OH210619   4.952   1.335   1.176 -0.0702 -0.3281  0.0831
 3538TIP3    H110620   5.042   1.305   1.189 -0.6083 -1.6417  1.0418
 3538TIP3    H210621   4.960   1.428   1.154  1.5966 -0.7545 -1.3737
 3539TIP3   OH210622   4.886   4.024   4.713  0.8324  0.2779  0.0252
 3539TIP3    H110623   4.823   3.952   4.709  0.0522  0.9767 -0.9178
 3539TIP3    H210624   4.914   4.027   4.804 -2.3026  1.4122  1.0771
 3540TIP3   OH210625   1.505   1.652   0.344  0.3623 -0.4749  0.0247
 3540TIP3    H110626   1.447   1.728   0.333 -0.1038 -0.9210 -0.6408
 3540TIP3    H210627   1.563   1.655   0.268 -1.1927 -2.1001 -1.3266
 3541TIP3   OH210628   1.660   0.814   4.418  0.2498 -0.8939  0.7311
 3541TIP3    H110629   1.755   0.807   4.418  0.3598  0.0364  2.0503
 3541TIP3    H210630   1.639   0.846   4.506 -1.1517  0.5121 -0.0691
 3542TIP3   OH210631   5.536   5.301   4.234 -0.1645  0.2040  0.2859
 3542TIP3    H110632   5.485   5.246   4.294  0.0842 -1.6511 -1.1145
 3542TIP3    H210633   5.571   5.371   4.290  1.1881 -2.1629  2.6279
 3543TIP3   OH210634   2.114   3.547   2.976  0.0281 -0.0529 -0.0778
 3543TIP3    H110635   2.140   3.638   2.989 -1.9091  0.5535 -0.1387
 3543TIP3    H210636   2.034   3.552   2.924  0.1357 -1.8279 -0.4760
 3544TIP3   OH210637   0.176   1.245   1.300  0.1668  0.5791  0.3578
 3544TIP3    H110638   0.160   1.256   1.206  1.5643  2.2644  0.2652
 3544TIP3    H210639   0.089   1.227   1.337 -0.4346  0.0492 -1.2194
 3545TIP3   OH210640   5.734   4.753   1.987  0.6899  0.7994  0.6912
 3545TIP3    H110641   5.724   4.846   2.009 -0.8593  1.1128 -1.1139
 3545TIP3    H210642   5.824   4.745   1.956  0.1032  2.2982 -1.5931
 3546TIP3   OH210643   2.663   2.013   3.690  0.2385  0.9636 -0.7566
 3546TIP3    H110644   2.608   2.032   3.767 -1.5253  0.9881 -1.9562
 3546TIP3    H210645   2.703   1.929   3.710 -0.3850  0.8494  0.0954
 3547TIP3   OH210646   2.952   5.707   2.773  0.3985  0.5039  0.4867
 3547TIP3    H110647   2.952   5.778   2.709 -3.5652  0.7211  0.4841
 3547TIP3    H210648   3.008   5.740   2.844 -0.6060  3.3165  0.1149
 3548TIP3   OH210649   3.703   3.425   3.662 -0.1984  0.3221 -0.2188
 3548TIP3    H110650   3.618   3.470   3.662  0.5198  1.7874  1.1256
 3548TIP3    H210651   3.767   3.496   3.669  1.1039 -0.8187 -0.2915
 3549TIP3   OH210652   0.449   0.731   0.263 -0.0426 -0.1275  0.4283
 3549TIP3    H110653   0.367   0.749   0.217 -1.2008 -2.4684  1.4153
 3549TIP3    H210654   0.473   0.815   0.302 -1.3061  0.8976 -0.8749
 3550TIP3   OH210655   3.666   0.963   3.476 -0.3044  0.1936 -0.2786
 3550TIP3    H110656   3.747   0.997   3.515  0.1405  0.1919 -1.1711
 3550TIP3    H210657   3.682   0.967   3.382 -2.0287  1.9154 -0.5566
 3551TIP3   OH210658   1.898   1.338   3.217 -0.2290 -0.3359 -0.4391
 3551TIP3    H110659   1.921   1.316   3.127 -1.4922 -0.7197 -0.6902
 3551TIP3    H210660   1.936   1.267   3.269 -0.6652 -0.8578 -0.8189
 3552TIP3   OH210661   5.856   1.332   4.163  0.0800  0.6326  0.0998
 3552TIP3    H110662   5.940   1.345   4.119 -0.6484  1.2635 -1.1441
 3552TIP3    H210663   5.875   1.348   4.255  1.1625  1.5574 -0.2650
 3553TIP3   OH210664   6.132   3.561   3.467 -0.2214 -0.1584  0.1065
 3553TIP3    H110665   6.061   3.624   3.456 -0.8023 -0.3705  2.1980
 3553TIP3    H210666   6.177   3.561   3.383 -1.1273  1.9002 -0.4441
 3554TIP3   OH210667   3.733   5.333   1.906 -0.1834  0.0288  0.2057
 3554TIP3    H110668   3.809   5.292   1.947  0.9458  0.5389 -1.2866
 3554TIP3    H210669   3.745   5.427   1.921 -1.5336  0.0176  1.5863
 3555TIP3   OH210670   3.479   3.357   2.660 -0.5446 -0.1076  0.1296
 3555TIP3    H110671   3.385   3.373   2.647 -0.3319  1.8133  0.5730
 3555TIP3    H210672   3.497   3.393   2.747  0.4820 -1.0564  0.3222
 3556TIP3   OH210673   1.250   2.733   0.915 -0.0614 -0.1892  0.0897
 3556TIP3    H110674   1.254   2.822   0.951  1.2449  0.3253 -1.2674
 3556TIP3    H210675   1.341   2.704   0.910 -0.3867 -1.1643 -0.5699
 3557TIP3   OH210676   5.839   1.684   4.588  0.3901 -0.2203 -0.5253
 3557TIP3    H110677   5.831   1.774   4.619 -1.1440 -0.9890  1.5941
 3557TIP3    H210678   5.763   1.671   4.531 -0.5137 -0.6964  0.7435
 3558TIP3   OH210679   5.954   2.828   2.641 -0.3063  0.5338 -0.4862
 3558TIP3    H110680   5.905   2.901   2.605 -1.9356 -0.4543 -0.3847
 3558TIP3    H210681   5.912   2.750   2.604  1.3753 -0.3757 -0.6071
 3559TIP3   OH210682   5.203   5.170   0.947  0.0703 -0.4937  0.2540
 3559TIP3    H110683   5.130   5.203   0.895  0.3490 -0.3990 -0.0773
 3559TIP3    H210684   5.242   5.102   0.892  1.4709  0.8233 -0.4469
 3560TIP3   OH210685   4.364   1.394   0.242 -0.5246  0.2057  0.0219
 3560TIP3    H110686   4.335   1.415   0.330 -0.9110  0.3203 -0.1291
 3560TIP3    H210687   4.456   1.369   0.252 -0.5771  0.1788  0.4588
 3561TIP3   OH210688   6.042   0.479   3.322  0.2020 -0.5378 -0.0023
 3561TIP3    H110689   6.039   0.574   3.307  1.8314 -0.5511 -0.6144
 3561TIP3    H210690   6.076   0.470   3.411  0.7285 -0.5300 -0.1951
 3562TIP3   OH210691   2.773   3.225   2.030  0.2275  0.0582 -1.3379
 3562TIP3    H110692   2.734   3.146   1.994  1.0367 -1.0500  0.0875
 3562TIP3    H210693   2.841   3.193   2.090  0.0073  1.8002 -0.0713
 3563TIP3   OH210694   1.552   0.665   2.342 -0.4185 -0.4968 -0.4479
 3563TIP3    H110695   1.575   0.642   2.432 -0.9351  0.1914 -0.1333
 3563TIP3    H210696   1.550   0.761   2.341 -2.2901 -0.4940 -0.6917
 3564TIP3   OH210697   0.035   2.459   5.142 -0.0418 -0.1224 -0.1133
 3564TIP3    H110698   0.071   2.533   5.190  0.7449 -0.8418  0.4350
 3564TIP3    H210699   0.100   2.389   5.152 -0.1080 -0.4642 -1.7789
 3565TIP3   OH210700   2.537   3.080   3.619  0.2121 -0.2045  0.6792
 3565TIP3    H110701   2.466   3.101   3.559 -0.1424  1.2616  1.5651
 3565TIP3    H210702   2.569   2.995   3.590  0.6266  0.8087 -2.1221
 3566TIP3   OH210703   2.767   5.529   2.901  0.0586  0.2297  0.4462
 3566TIP3    H110704   2.842   5.567   2.855 -0.2608  0.0182 -0.2550
 3566TIP3    H210705   2.766   5.573   2.986 -0.5968  2.1853 -0.5135
 3567TIP3   OH210706   5.671   3.055   0.659 -0.4968  0.4127 -0.1227
 3567TIP3    H110707   5.620   2.976   0.675  1.2346 -0.3029  2.5118
 3567TIP3    H210708   5.631   3.121   0.717  0.9936  0.0533  1.3811
 3568TIP3   OH210709   5.921   4.213   2.252 -0.1119  0.3828 -0.0432
 3568TIP3    H110710   5.844   4.233   2.198 -0.7848 -3.0507 -0.5637
 3568TIP3    H210711   5.906   4.261   2.334 -1.3486  2.0231 -1.1441
 3569TIP3   OH210712   1.231   2.116   2.209 -0.0839 -0.0016  0.4219
 3569TIP3    H110713   1.192   2.051   2.266  1.2450 -0.9635  0.2972
 3569TIP3    H210714   1.228   2.076   2.122 -0.6861  0.7923  0.0640
 3570TIP3   OH210715   1.975   0.702   1.951 -0.5616 -0.0654  0.1417
 3570TIP3    H110716   1.961   0.774   1.889 -0.4222  1.2166  1.5420
 3570TIP3    H210717   1.928   0.628   1.913 -2.0025  1.1771 -0.5898
 3571TIP3   OH210718   1.959   0.477   0.110 -0.7054 -0.6545  0.1785
 3571TIP3    H110719   1.997   0.472   0.198 -1.2700 -1.8008  0.3698
 3571TIP3    H210720   1.913   0.394   0.099 -1.5836 -0.0597 -0.7736
 3572TIP3   OH210721   3.704   4.135   2.613  0.0669 -0.2436  0.0614
 3572TIP3    H110722   3.744   4.110   2.697  1.9978  0.1104 -0.7025
 3572TIP3    H210723   3.778   4.159   2.558 -1.3286  2.3219 -0.8496
 3573TIP3   OH210724   3.868   0.541   4.460 -0.2467 -0.2276 -0.3516
 3573TIP3    H110725   3.864   0.636   4.462  1.0504 -0.1474 -0.6456
 3573TIP3    H210726   3.824   0.513   4.541 -1.4437  0.5597 -0.7059
 3574TIP3   OH210727   4.268   4.853   1.322  0.4581  0.4767 -0.7544
 3574TIP3    H110728   4.221   4.864   1.240  1.2879 -1.0653 -1.4816
 3574TIP3    H210729   4.200   4.856   1.390 -0.2001  2.0350 -1.4562
 3575TIP3   OH210730   2.969   5.922   1.343  0.4903  0.2142  0.5853
 3575TIP3    H110731   2.900   5.902   1.281 -0.7315  2.7518  0.9729
 3575TIP3    H210732   2.953   6.013   1.368  3.5654  0.7084  1.2458
 3576TIP3   OH210733   6.144   4.839   3.341 -0.0019 -0.2049 -0.9557
 3576TIP3    H110734   6.206   4.838   3.267 -1.3139  0.8063 -2.1247
 3576TIP3    H210735   6.173   4.912   3.395  0.5361 -0.4923 -0.8446
 3577TIP3   OH210736   2.375   5.244   2.633 -0.0690  0.5074 -0.1636
 3577TIP3    H110737   2.319   5.322   2.632 -0.4137  0.2566 -0.7451
 3577TIP3    H210738   2.340   5.188   2.564 -0.3237 -0.5243  0.7692
 3578TIP3   OH210739   4.819   5.921   0.545  0.5971  0.6269  0.3537
 3578TIP3    H110740   4.780   5.835   0.529  1.1396  0.3671  0.4073
 3578TIP3    H210741   4.848   5.950   0.458  1.8403  0.0498  0.5575
 3579TIP3   OH210742   4.687   2.344   3.766  0.0445  0.7736 -0.3627
 3579TIP3    H110743   4.748   2.380   3.701 -0.7994  1.0145 -1.0356
 3579TIP3    H210744   4.604   2.337   3.719 -0.4177  0.3324  0.5114
 3580TIP3   OH210745   0.529   1.762   1.400 -0.3578  0.4410  0.2529
 3580TIP3    H110746   0.531   1.793   1.490  0.4929  0.1940  0.3318
 3580TIP3    H210747   0.583   1.683   1.400 -1.3346 -0.2380 -0.2409
 3581TIP3   OH210748   6.064   0.261   2.948  0.1077  0.2035  0.1659
 3581TIP3    H110749   6.112   0.341   2.929 -0.6369  0.5216 -0.4582
 3581TIP3    H210750   5.982   0.270   2.899  0.4693 -1.4357 -0.8179
 3582TIP3   OH210751   1.977   5.245   4.721 -0.1631 -0.7597  0.3827
 3582TIP3    H110752   1.961   5.291   4.804 -2.3958  1.9630 -1.3505
 3582TIP3    H210753   1.930   5.298   4.656  2.0788 -2.3649 -2.7552
 3583TIP3   OH210754   4.357   2.530   1.714  0.4011  0.2705  0.6422
 3583TIP3    H110755   4.275   2.485   1.694 -0.8647  1.9887  1.6993
 3583TIP3    H210756   4.335   2.623   1.711  2.3983  0.8009  0.6726
 3584TIP3   OH210757   2.729   4.956   1.820 -0.3114 -0.5013 -0.2166
 3584TIP3    H110758   2.728   4.865   1.789 -0.5169  0.2088 -2.4156
 3584TIP3    H210759   2.728   5.009   1.741  0.0139  1.4513  1.0160
 3585TIP3   OH210760   1.955   3.007   3.025  0.2599  0.1147  0.4195
 3585TIP3    H110761   1.976   2.956   2.947 -0.2586 -1.5693  1.3360
 3585TIP3    H210762   1.895   2.951   3.075 -2.5281  2.6730  0.2501
 3586TIP3   OH210763   3.285   2.227   0.005 -0.4460  0.3504  0.0522
 3586TIP3    H110764   3.262   2.292  -0.061 -0.4691 -1.0583 -1.4031
 3586TIP3    H210765   3.296   2.277   0.086 -0.4501  2.1327 -1.0001
 3587TIP3   OH210766   4.683   2.418   0.265  0.2080  0.1870  0.6244
 3587TIP3    H110767   4.656   2.329   0.243  0.1096  0.2953  0.3002
 3587TIP3    H210768   4.635   2.438   0.345 -1.5521  0.7689 -0.5227
 3588TIP3   OH210769   1.709   3.231   3.872  0.0662 -0.1455 -0.1792
 3588TIP3    H110770   1.764   3.175   3.817 -0.3587  0.3549 -1.1283
 3588TIP3    H210771   1.646   3.171   3.912 -0.4351 -0.3495 -1.2435
 3589TIP3   OH210772   3.093   3.973   2.421  0.1028  0.6295 -0.3039
 3589TIP3    H110773   3.151   3.916   2.471 -0.1832 -0.2019 -0.8893
 3589TIP3    H210774   3.128   4.061   2.435  1.9536  0.0977 -1.2069
 3590TIP3   OH210775   1.603   2.727   2.573 -0.2890 -0.6307 -0.0433
 3590TIP3    H110776   1.640   2.657   2.627  0.5606 -0.2022 -0.0507
 3590TIP3    H210777   1.517   2.744   2.611 -0.6272 -1.8561 -0.2105
 3591TIP3   OH210778   1.838   0.685   1.256 -0.3080 -0.4558 -0.1640
 3591TIP3    H110779   1.791   0.727   1.184 -1.7677 -0.6506  0.6396
 3591TIP3    H210780   1.896   0.753   1.289 -1.6205  0.5127  0.2165
 3592TIP3   OH210781   1.123   3.775   3.253  0.1442 -0.3149 -0.3074
 3592TIP3    H110782   1.099   3.836   3.323  0.9916 -1.0170  0.6392
 3592TIP3    H210783   1.124   3.828   3.174 -0.5997  0.5599  0.2429
 3593TIP3   OH210784   2.390   3.365   2.535  0.0337 -0.0744  0.9718
 3593TIP3    H110785   2.347   3.397   2.456  0.0888  0.1152  1.0178
 3593TIP3    H210786   2.361   3.425   2.604 -0.3782 -0.5136  1.1844
 3594TIP3   OH210787   6.256   1.448   3.310  0.5080 -0.1179 -0.7465
 3594TIP3    H110788   6.175   1.463   3.358  0.0071 -0.9228 -1.3146
 3594TIP3    H210789   6.321   1.432   3.378  0.0532 -0.0978 -0.2986
 3595TIP3   OH210790   2.926   0.734   3.833  0.2395 -0.2856  0.1544
 3595TIP3    H110791   2.886   0.694   3.910  0.3257 -1.4004 -0.3713
 3595TIP3    H210792   3.006   0.774   3.867  0.1391 -0.5249  0.6920
 3596TIP3   OH210793   1.512   5.525   1.511  0.5278 -0.3639 -0.7269
 3596TIP3    H110794   1.478   5.457   1.569  0.9452  0.5886  0.6757
 3596TIP3    H210795   1.434   5.570   1.478  0.3108 -0.3994 -0.2709
 3597TIP3   OH210796   3.131   3.317   1.226  0.6846 -0.0506 -0.3103
 3597TIP3    H110797   3.177   3.340   1.306  0.0519  0.9469 -0.2062
 3597TIP3    H210798   3.167   3.376   1.159  0.2354  0.1003 -0.4299
 3598TIP3   OH210799   2.766   4.176   4.509 -0.2222  0.1918  0.2763
 3598TIP3    H110800   2.791   4.262   4.542 -0.1273  0.0500  0.5842
 3598TIP3    H210801   2.786   4.178   4.416 -1.6228  1.0250 -0.0255
 3599TIP3   OH210802   1.220   1.553   3.247  0.0074  0.5936  0.0092
 3599TIP3    H110803   1.284   1.581   3.182  0.0365  0.2307 -0.1231
 3599TIP3    H210804   1.233   1.613   3.321  0.6552  0.3875  0.0704
 3600TIP3   OH210805   5.915   4.242   1.536 -0.0927  0.1786 -0.4774
 3600TIP3    H110806   5.985   4.253   1.473  0.2666  0.5478 -0.0220
 3600TIP3    H210807   5.956   4.255   1.621 -0.7626  0.6778 -0.2179
 3601TIP3   OH210808   2.411   3.640   1.099 -0.0011 -0.6118  0.4755
 3601TIP3    H110809   2.500   3.626   1.067 -0.1211 -0.3202 -0.0004
 3601TIP3    H210810   2.392   3.563   1.153  0.2497 -1.0672 -0.0690
 3602TIP3   OH210811   5.434   0.525   3.313 -0.1335  0.2564  0.1660
 3602TIP3    H110812   5.481   0.573   3.381  0.0670 -0.7776  0.7738
 3602TIP3    H210813   5.374   0.590   3.275  0.9198  1.2819  0.1867
 3603TIP3   OH210814   5.647   4.252   1.235 -0.6638 -0.4704 -0.1512
 3603TIP3    H110815   5.554   4.237   1.218 -0.6096  0.5007 -1.4538
 3603TIP3    H210816   5.673   4.318   1.170  0.8876 -0.5793  0.3207
 3604TIP3   OH210817   4.178   3.655   1.389  0.0553 -0.2596 -0.0934
 3604TIP3    H110818   4.256   3.602   1.407 -0.2946  0.1804  3.4411
 3604TIP3    H210819   4.106   3.591   1.387  0.0647 -0.3129  0.7031
 3605TIP3   OH210820   4.874   4.975   4.966 -0.2414  0.5073  0.0114
 3605TIP3    H110821   4.949   5.026   4.935  0.9031 -1.7380 -1.1813
 3605TIP3    H210822   4.907   4.927   5.042 -1.3262  1.5266  1.1766
 3606TIP3   OH210823   3.187   0.234   0.168 -0.2125 -0.2146  0.0319
 3606TIP3    H110824   3.183   0.190   0.084  0.1755  0.8285 -0.5502
 3606TIP3    H210825   3.167   0.166   0.232 -0.8561 -0.9399 -0.9223
 3607TIP3   OH210826   3.184   2.603   2.965 -0.0708  0.6604  0.2187
 3607TIP3    H110827   3.178   2.675   2.902 -0.9778  0.4609  0.0661
 3607TIP3    H210828   3.093   2.581   2.985  0.2096  0.2860  1.1018
 3608TIP3   OH210829   5.550   5.517   4.771 -0.6080 -0.0577 -0.1589
 3608TIP3    H110830   5.501   5.469   4.704 -0.0358  0.2592 -0.8097
 3608TIP3    H210831   5.567   5.603   4.732 -0.0277  0.0301  0.2754
 3609TIP3   OH210832   1.602   3.335   0.048  0.1688 -0.2243 -0.1568
 3609TIP3    H110833   1.565   3.400  -0.011 -0.4096 -0.0617  0.3657
 3609TIP3    H210834   1.542   3.334   0.123  2.5020  1.8941  1.9250
 3610TIP3   OH210835   2.796   2.732   3.964  0.9298  0.1005 -0.6556
 3610TIP3    H110836   2.870   2.675   3.985  2.0493  0.5860 -2.8921
 3610TIP3    H210837   2.837   2.815   3.937 -0.6025  1.7005  1.5767
 3611TIP3   OH210838   3.038   1.307   0.168  0.8366  0.7998  0.2977
 3611TIP3    H110839   3.055   1.215   0.192 -0.2075  0.8695  1.3754
 3611TIP3    H210840   3.123   1.350   0.181  1.4707 -0.0840 -0.6859
 3612TIP3   OH210841   0.915   5.681   2.597  0.3598 -0.1972 -0.4383
 3612TIP3    H110842   1.004   5.663   2.567  1.0998  1.3036  0.7028
 3612TIP3    H210843   0.888   5.600   2.642 -0.4622 -2.1833 -4.0836
 3613TIP3   OH210844   0.811   5.207   0.598 -0.9634 -0.2170 -0.8249
 3613TIP3    H110845   0.903   5.189   0.576 -0.7609 -0.1407 -0.0574
 3613TIP3    H210846   0.809   5.210   0.693 -2.0580 -1.6992 -0.7679
 3614TIP3   OH210847   0.695   1.373   3.975  0.1072  0.0242 -0.2185
 3614TIP3    H110848   0.757   1.310   3.937  0.2330 -0.1059  0.1871
 3614TIP3    H210849   0.710   1.454   3.926 -0.6024 -0.4631 -1.2706
 3615TIP3   OH210850   1.614   1.394   0.220  0.8770 -0.2854  0.2898
 3615TIP3    H110851   1.599   1.301   0.240  0.2973 -0.4450 -0.8076
 3615TIP3    H210852   1.545   1.439   0.269  0.9248 -0.4606  0.5246
 3616TIP3   OH210853   3.635   1.482   1.234 -0.3684  0.4727 -0.5978
 3616TIP3    H110854   3.608   1.499   1.144 -1.7440 -0.2147 -0.3420
 3616TIP3    H210855   3.672   1.393   1.231  0.5621  0.8532 -0.6707
 3617TIP3   OH210856   0.955   5.562   3.506  0.2546  0.2439 -0.1478
 3617TIP3    H110857   1.007   5.493   3.467  0.2995  0.3220 -0.2269
 3617TIP3    H210858   0.982   5.642   3.460 -0.2203  0.2245 -0.4647
 3618TIP3   OH210859   1.060   5.198   2.249 -0.3246 -0.2099 -0.2449
 3618TIP3    H110860   1.094   5.278   2.290  0.3292 -0.1500 -0.8811
 3618TIP3    H210861   1.025   5.228   2.165  0.4521 -0.6761 -0.7426
 3619TIP3   OH210862   5.214   0.842   1.853  0.5559 -0.7946 -0.5390
 3619TIP3    H110863   5.248   0.930   1.840 -0.2090 -0.3188  0.5624
 3619TIP3    H210864   5.129   0.841   1.808  0.8830 -1.2085 -1.1683
 3620TIP3   OH210865   5.773   4.556   5.087  0.1117  0.0237 -0.6824
 3620TIP3    H110866   5.834   4.618   5.048 -0.9400  1.3950 -0.2284
 3620TIP3    H210867   5.709   4.538   5.018 -1.3772  1.9455  0.1122
 3621TIP3   OH210868   0.557   5.686   2.740  0.0022 -0.2994  0.5450
 3621TIP3    H110869   0.618   5.677   2.666  0.7671 -2.2387  1.3485
 3621TIP3    H210870   0.587   5.765   2.785  0.6347 -0.0731 -0.2399
 3622TIP3   OH210871   2.736   4.720   1.686  0.5079  0.1130  0.0768
 3622TIP3    H110872   2.680   4.719   1.608 -2.6011  1.7140  2.0725
 3622TIP3    H210873   2.745   4.628   1.710  0.3682 -0.3063 -1.3913
 3623TIP3   OH210874  -0.004   2.023   1.556 -0.0926 -0.2341 -0.2336
 3623TIP3    H110875   0.065   1.980   1.506  0.5481 -0.7678  1.0625
 3623TIP3    H210876   0.039   2.053   1.636 -0.8322  1.5951 -0.4752
 3624TIP3   OH210877   0.314   5.748   2.565 -0.3636 -0.1804  0.1136
 3624TIP3    H110878   0.286   5.668   2.520  1.4569 -0.3614 -0.7771
 3624TIP3    H210879   0.399   5.726   2.603 -0.2913  1.0413  0.7054
 3625TIP3   OH210880   0.226   3.903   4.917  0.7679  0.0737  0.7048
 3625TIP3    H110881   0.214   3.832   4.980 -0.6837  0.4556  0.8777
 3625TIP3    H210882   0.246   3.858   4.834 -2.5112 -0.7437  0.2231
 3626TIP3   OH210883   4.691   5.689   0.291  0.0642  0.7396 -0.2542
 3626TIP3    H110884   4.697   5.616   0.229 -0.0709  1.0405 -0.6286
 3626TIP3    H210885   4.605   5.727   0.273 -0.7029 -0.1810  1.2592
 3627TIP3   OH210886   5.129   5.706   0.471 -0.2416  0.4639 -0.9651
 3627TIP3    H110887   5.073   5.632   0.496  0.1949  0.7392  1.0157
 3627TIP3    H210888   5.086   5.744   0.395 -2.0571 -0.1146 -0.2802
 3628TIP3   OH210889   3.669   1.733   4.517  0.2646  0.3019  0.1945
 3628TIP3    H110890   3.748   1.780   4.488 -0.3398 -0.5032 -3.3083
 3628TIP3    H210891   3.697   1.643   4.528  0.0148  0.1448 -0.3876
 3629TIP3   OH210892   4.936   0.407   0.804  0.0504  0.1593 -0.2852
 3629TIP3    H110893   4.871   0.366   0.747  0.2699 -0.5203 -0.0587
 3629TIP3    H210894   4.955   0.491   0.763 -1.8947  0.9212  0.3031
 3630TIP3   OH210895   4.449   5.832   3.000  0.6240 -0.3296  0.1351
 3630TIP3    H110896   4.474   5.921   3.026  2.0879 -0.8383  0.5425
 3630TIP3    H210897   4.370   5.814   3.051  1.2925  0.1067  1.3804
 3631TIP3   OH210898   6.094   5.157   4.448  0.2746 -0.0387 -0.4564
 3631TIP3    H110899   6.060   5.099   4.516  2.3809 -2.4545 -1.3141
 3631TIP3    H210900   6.062   5.120   4.366  1.5866  0.0147 -1.0224
 3632TIP3   OH210901   1.690   2.938   4.930  0.3178 -0.3082 -0.5627
 3632TIP3    H110902   1.781   2.929   4.959  0.1684  0.2042  0.1014
 3632TIP3    H210903   1.677   2.866   4.869  0.7413 -1.2763  0.4505
 3633TIP3   OH210904   0.002   0.432   0.386 -0.2424  0.2328 -0.2350
 3633TIP3    H110905   0.033   0.449   0.475 -1.5974  0.8732  0.1380
 3633TIP3    H210906  -0.015   0.338   0.384  0.0043  0.1779  0.1067
 3634TIP3   OH210907   0.028   0.383   4.704 -0.3355  0.0281  0.3112
 3634TIP3    H110908   0.091   0.406   4.772 -1.0646  0.7693  0.7487
 3634TIP3    H210909  -0.055   0.419   4.735 -1.1419 -1.5702  0.1005
 3635TIP3   OH210910   3.007   0.110   3.360  0.0141 -0.4205  0.3739
 3635TIP3    H110911   3.081   0.170   3.365  0.5988 -1.0190 -0.7090
 3635TIP3    H210912   2.959   0.124   3.442 -0.0718  1.7733  0.0181
 3636TIP3   OH210913   6.057   0.506   4.559 -0.0777  0.6796  0.0694
 3636TIP3    H110914   6.098   0.583   4.520 -0.1411 -0.0899 -1.6287
 3636TIP3    H210915   6.011   0.464   4.487 -0.0753 -0.9262  0.9421
 3637TIP3   OH210916   1.727   4.915   3.600  0.1056  0.1757 -0.3464
 3637TIP3    H110917   1.690   4.995   3.635  1.3912  0.4360  0.5253
 3637TIP3    H210918   1.671   4.845   3.634  0.3658  0.5539  0.9424
 3638TIP3   OH210919   1.676   4.756   0.813 -0.4254  0.1652  0.2518
 3638TIP3    H110920   1.637   4.745   0.900  0.1040  1.6603  0.7106
 3638TIP3    H210921   1.724   4.674   0.797 -1.4258 -0.5675  0.8738
 3639TIP3   OH210922   0.900   0.661   4.516 -0.8913 -0.4682  0.3578
 3639TIP3    H110923   0.948   0.658   4.432 -2.1446 -2.0216 -0.3501
 3639TIP3    H210924   0.951   0.604   4.574 -0.3833  0.0895  0.4740
 3640TIP3   OH210925   2.196   3.163   2.985 -0.1238  0.6832  0.0306
 3640TIP3    H110926   2.208   3.156   2.891 -2.4339  0.6597 -0.3200
 3640TIP3    H210927   2.110   3.123   3.002  0.4303  0.2742  2.2047
 3641TIP3   OH210928   0.356   3.641   2.597  0.9134 -0.3232 -0.0274
 3641TIP3    H110929   0.290   3.664   2.532  0.6724 -0.9490 -0.0097
 3641TIP3    H210930   0.342   3.704   2.668  0.7846 -0.0202 -0.3230
 3642TIP3   OH210931   3.323   1.912   0.823 -0.2901  0.7593 -0.2125
 3642TIP3    H110932   3.418   1.906   0.816 -0.3567 -1.2280 -0.0530
 3642TIP3    H210933   3.308   1.972   0.897  0.8833 -0.1924  0.8499
 3643TIP3   OH210934   1.860   3.845   2.778  0.0035 -0.5655  0.0882
 3643TIP3    H110935   1.826   3.898   2.706  0.5702  0.2377  0.3911
 3643TIP3    H210936   1.932   3.898   2.814 -0.5753 -0.7382  1.5335
 3644TIP3   OH210937   2.750   4.049   2.882 -0.1060  0.3174  0.1710
 3644TIP3    H110938   2.787   4.132   2.854  0.0660  0.6015  1.2030
 3644TIP3    H210939   2.681   4.072   2.944 -2.8125 -0.1467 -2.4350
 3645TIP3   OH210940   4.261   4.890   4.930 -0.2749 -0.7400 -0.0790
 3645TIP3    H110941   4.224   4.947   4.864  0.5561 -1.3182 -1.0828
 3645TIP3    H210942   4.318   4.947   4.982 -1.4590 -0.1444  0.5953
 3646TIP3   OH210943   3.349   1.172   0.716  0.1547  0.1130  0.1343
 3646TIP3    H110944   3.424   1.146   0.771  0.2110  0.2776  0.1357
 3646TIP3    H210945   3.353   1.267   0.715 -0.6430  0.1727  0.9635
 3647TIP3   OH210946   0.575   4.711   2.930  0.2335 -0.5799 -0.1696
 3647TIP3    H110947   0.646   4.722   2.994  0.8652  1.3414 -1.1476
 3647TIP3    H210948   0.534   4.797   2.925 -1.0177 -1.2049 -0.9848
 3648TIP3   OH210949   4.292   0.460   3.224  0.0488  0.8576 -0.0177
 3648TIP3    H110950   4.232   0.525   3.263 -0.1338  0.3412  0.5796
 3648TIP3    H210951   4.379   0.491   3.248 -0.0447  0.8013  0.4012
 3649TIP3   OH210952   1.769   3.642   3.416  0.5391  0.4227 -0.2055
 3649TIP3    H110953   1.716   3.682   3.347 -0.0907 -1.0404 -0.6185
 3649TIP3    H210954   1.827   3.582   3.370  2.8214  2.1805  0.2169
 3650TIP3   OH210955   3.842   4.186   3.878  0.1133  0.0875  0.4833
 3650TIP3    H110956   3.935   4.170   3.894 -0.0053 -0.4071  0.6922
 3650TIP3    H210957   3.836   4.281   3.864  0.9073 -0.1092 -1.3825
 3651TIP3   OH210958   5.278   1.152   2.727  0.7864 -0.3128 -0.2632
 3651TIP3    H110959   5.322   1.212   2.667  2.3274 -0.1084  1.0045
 3651TIP3    H210960   5.228   1.209   2.786 -0.0026 -0.4644 -0.7636
 3652TIP3   OH210961   0.254   5.458   4.725  0.2724 -0.1139 -0.2193
 3652TIP3    H110962   0.344   5.447   4.693  0.7232 -4.5364  1.7908
 3652TIP3    H210963   0.263   5.478   4.817 -0.8600  0.9814 -0.3245
 3653TIP3   OH210964   2.883   3.681   4.124 -0.2994  0.1647  0.3035
 3653TIP3    H110965   2.802   3.634   4.140 -0.0668  0.0761  1.3151
 3653TIP3    H210966   2.940   3.657   4.197  0.1746  1.2374  0.3161
 3654TIP3   OH210967   4.099   0.731   4.208 -0.3885 -0.7064 -0.3121
 3654TIP3    H110968   4.009   0.729   4.240 -0.5833  0.3166 -0.7746
 3654TIP3    H210969   4.107   0.815   4.163  1.8390  0.9692  2.8293
 3655TIP3   OH210970   0.370   4.128   5.011 -0.2505 -0.1588  0.0777
 3655TIP3    H110971   0.353   4.170   4.927  1.8560 -0.9093 -0.7829
 3655TIP3    H210972   0.310   4.053   5.013  0.3133 -0.6683 -1.2005
 3656TIP3   OH210973   1.915   4.903   2.513  0.2577 -0.1909  0.1127
 3656TIP3    H110974   1.866   4.980   2.485 -0.5805 -0.9736 -0.6234
 3656TIP3    H210975   1.868   4.829   2.475  1.3570 -1.0387  0.3504
 3657TIP3   OH210976   4.123   0.423   3.895  0.4598 -0.5046 -0.6718
 3657TIP3    H110977   4.202   0.416   3.949 -0.2882 -0.2140  0.4775
 3657TIP3    H210978   4.091   0.512   3.911 -1.0600 -1.1920  0.2370
 3658TIP3   OH210979   5.574   3.177   2.458 -0.0760  0.3750  0.3018
 3658TIP3    H110980   5.523   3.119   2.401  1.6902 -1.1056  0.1124
 3658TIP3    H210981   5.531   3.170   2.544 -0.6740 -0.1789 -0.0322
 3659TIP3   OH210982   5.717   1.480   3.999 -0.3652  0.0362  0.3551
 3659TIP3    H110983   5.772   1.426   4.056 -0.5604 -0.7662 -0.2012
 3659TIP3    H210984   5.762   1.478   3.914 -0.3940  0.7205  0.3203
 3660TIP3   OH210985   3.900   4.471   3.911 -0.1038 -0.2063  0.3038
 3660TIP3    H110986   3.936   4.424   3.835 -2.8364 -1.8899 -0.0518
 3660TIP3    H210987   3.841   4.536   3.873  0.1993  0.4623  0.9565
 3661TIP3   OH210988   5.311   4.404   1.487 -0.2011 -0.1162  0.3620
 3661TIP3    H110989   5.242   4.470   1.486 -0.8458 -0.6740  2.6542
 3661TIP3    H210990   5.337   4.395   1.395 -1.0689  2.2669 -0.1811
 3662TIP3   OH210991   0.921   1.136   3.873  0.2796  0.4471 -0.3540
 3662TIP3    H110992   0.992   1.194   3.845  0.6490 -0.0380 -0.4577
 3662TIP3    H210993   0.887   1.099   3.791  1.3243 -0.9360 -0.2102
 3663TIP3   OH210994   0.697   3.630   0.433  0.4320 -0.2450  0.1114
 3663TIP3    H110995   0.780   3.653   0.390 -0.3889 -0.8935 -1.9752
 3663TIP3    H210996   0.718   3.625   0.526  2.5300  0.4555 -0.2703
 3664TIP3   OH210997   5.230   5.788   0.170 -0.1575 -0.0644 -0.0398
 3664TIP3    H110998   5.176   5.734   0.113 -0.1911  0.1509 -0.2141
 3664TIP3    H210999   5.195   5.877   0.159 -0.3742 -0.0707  0.5572
 3665TIP3   OH211000   2.358   3.524   2.319 -0.4446  0.0947 -0.2005
 3665TIP3    H111001   2.453   3.522   2.306 -0.2714 -1.4044  0.9908
 3665TIP3    H211002   2.322   3.501   2.233  0.3371 -0.6719 -0.3391
 3666TIP3   OH211003   0.238   3.236   1.797  1.1438 -0.6324  0.1366
 3666TIP3    H111004   0.329   3.232   1.827  0.1011  0.4969  4.0843
 3666TIP3    H211005   0.210   3.325   1.816 -1.8199 -1.9622  3.0543
 3667TIP3   OH211006   5.544   1.340   2.316 -0.4356  0.6547  0.4727
 3667TIP3    H111007   5.571   1.356   2.407  1.4345  0.0639  0.0797
 3667TIP3    H211008   5.450   1.322   2.322 -0.2020 -0.2986  2.4314
 3668TIP3   OH211009   1.206   0.332   0.983  0.2646 -0.1420 -0.3538
 3668TIP3    H111010   1.152   0.315   1.061  1.0640  2.7187  0.9347
 3668TIP3    H211011   1.184   0.261   0.923 -1.8516 -1.3616  1.7102
 3669TIP3   OH211012   6.206   2.083   0.270 -0.0317  0.5753  0.2108
 3669TIP3    H111013   6.295   2.062   0.240  0.9477  0.9211  2.6254
 3669TIP3    H211014   6.215   2.166   0.316 -1.5963  0.5975  0.5249
 3670TIP3   OH211015   5.179   0.438   1.577  0.0721  0.1227 -0.4383
 3670TIP3    H111016   5.211   0.528   1.587 -2.1599  1.2543 -2.6687
 3670TIP3    H211017   5.084   0.447   1.568 -0.2816 -2.5456 -0.0975
 3671TIP3   OH211018   5.418   3.131   2.680 -0.2532 -0.2740  0.6123
 3671TIP3    H111019   5.355   3.084   2.625  0.7534 -0.3775 -0.4952
 3671TIP3    H211020   5.398   3.103   2.769 -1.8607 -0.1890  0.3111
 3672TIP3   OH211021   0.627   4.575   3.338  0.1390  0.0481 -0.0134
 3672TIP3    H111022   0.548   4.566   3.284  0.0913  0.0393  0.0572
 3672TIP3    H211023   0.673   4.492   3.328 -0.6789 -0.6029  1.2398
 3673TIP3   OH211024   2.706   2.594   4.304 -0.0688 -0.2367 -0.4794
 3673TIP3    H111025   2.727   2.595   4.397  1.1287  0.2227 -0.7339
 3673TIP3    H211026   2.644   2.666   4.292  1.5915  1.2691 -0.4032
 3674TIP3   OH211027   2.624   3.959   3.848  0.0975  0.1362  0.0325
 3674TIP3    H111028   2.605   3.910   3.928 -0.1103 -2.1639 -1.3342
 3674TIP3    H211029   2.719   3.953   3.838 -0.0437 -1.1063 -0.7628
 3675TIP3   OH211030   0.546   4.928   1.573  0.5327 -0.2043 -0.1173
 3675TIP3    H111031   0.495   5.009   1.570  1.5106  0.4630  0.3572
 3675TIP3    H211032   0.579   4.917   1.484  1.3486  0.5889  0.0622
 3676TIP3   OH211033   1.666   3.881   2.975  0.1611  0.5342  0.0033
 3676TIP3    H111034   1.706   3.843   2.897 -0.7496  0.5466 -0.4924
 3676TIP3    H211035   1.716   3.961   2.991  0.5472  0.3766 -0.3901
 3677TIP3   OH211036   2.953   2.811   2.112  0.1178  0.9060  0.3023
 3677TIP3    H111037   2.935   2.880   2.048  3.1212  2.6608  1.1576
 3677TIP3    H211038   2.985   2.737   2.060 -0.9717  0.9268 -0.4400
 3678TIP3   OH211039   5.886   0.687   2.903  0.2309 -0.2263  0.1787
 3678TIP3    H111040   5.879   0.714   2.812  0.6801  0.9666  0.4779
 3678TIP3    H211041   5.975   0.651   2.911  0.9381  1.4930  0.5682
 3679TIP3   OH211042   6.174   0.787   0.629 -0.3294  0.4507  0.4038
 3679TIP3    H111043   6.249   0.741   0.668  0.1526 -0.3124 -1.3025
 3679TIP3    H211044   6.098   0.749   0.673  0.2613  1.4198  2.3489
 3680TIP3   OH211045   4.459   3.855   4.137  0.2001 -0.7822  0.5698
 3680TIP3    H111046   4.532   3.868   4.077  0.2618 -0.1445  0.7796
 3680TIP3    H211047   4.382   3.848   4.080  0.2391 -0.0384  0.4111
 3681TIP3   OH211048   1.005   3.616   5.163 -0.2385 -0.0640  0.5789
 3681TIP3    H111049   1.008   3.591   5.255 -2.4250 -1.3501  0.3822
 3681TIP3    H211050   1.014   3.534   5.114  0.1081  0.4986 -0.3352
 3682TIP3   OH211051   1.280   2.826   1.355 -0.8448 -1.0379 -0.4142
 3682TIP3    H111052   1.275   2.857   1.265 -0.9834 -2.5119 -0.9452
 3682TIP3    H211053   1.371   2.799   1.367 -0.7927 -0.7162 -0.0564
 3683TIP3   OH211054   3.524   2.325   5.114  0.0923 -0.4457  0.2073
 3683TIP3    H111055   3.609   2.332   5.070 -0.6018 -0.3380 -1.1541
 3683TIP3    H211056   3.506   2.231   5.119  1.5818 -0.7082  3.1566
 3684TIP3   OH211057   6.245   3.503   2.797  0.4708 -0.1258 -0.0314
 3684TIP3    H111058   6.303   3.569   2.834  0.9551  0.3473 -1.5663
 3684TIP3    H211059   6.180   3.488   2.865  1.5655  0.3673  1.1801
 3685TIP3   OH211060   1.677   5.662   4.891  0.1063 -0.3994 -0.8926
 3685TIP3    H111061   1.718   5.728   4.946  0.8195 -1.3322 -0.2630
 3685TIP3    H211062   1.608   5.625   4.946 -2.3231  1.7870 -2.2552
 3686TIP3   OH211063   5.160   4.040   2.096  0.1709 -0.1979 -0.0876
 3686TIP3    H111064   5.239   4.059   2.044 -0.1458  0.4609 -0.3381
 3686TIP3    H211065   5.106   4.119   2.087 -1.1628 -1.1844 -1.0915
 3687TIP3   OH211066   3.279   1.840   0.561 -0.1855  0.4773  0.0419
 3687TIP3    H111067   3.307   1.865   0.649 -1.3272 -1.7351  1.1212
 3687TIP3    H211068   3.361   1.824   0.514  0.4500 -0.2957  1.3485
 3688TIP3   OH211069   1.607   4.484   2.300 -0.1828  0.0536 -0.2798
 3688TIP3    H111070   1.572   4.556   2.352  1.1040  0.3123  0.2681
 3688TIP3    H211071   1.576   4.501   2.211  0.2971  1.4317 -0.2031
 3689TIP3   OH211072   1.128   2.933   3.054  1.0023 -0.1035 -0.0413
 3689TIP3    H111073   1.168   2.962   3.135 -1.2452  1.3231  0.6464
 3689TIP3    H211074   1.141   2.838   3.053  0.4940 -0.2591  2.3752
 3690TIP3   OH211075   1.018   3.488   3.567  0.2850  0.2147 -0.2690
 3690TIP3    H111076   0.975   3.450   3.644  1.5632  0.6033  0.6712
 3690TIP3    H211077   1.111   3.470   3.580  0.3477 -2.6536 -3.3832
 3691TIP3   OH211078   1.612   4.912   4.654 -0.5488  0.1786 -0.4186
 3691TIP3    H111079   1.614   4.939   4.562 -0.0922 -0.4977 -0.6158
 3691TIP3    H211080   1.522   4.927   4.682 -0.6461  0.5632 -0.9238
 3692TIP3   OH211081   5.580   1.187   4.486  0.6971 -0.3241  0.4402
 3692TIP3    H111082   5.584   1.280   4.508  1.0118 -0.5503  1.3606
 3692TIP3    H211083   5.620   1.143   4.561 -0.1147 -1.2468  0.3448
 3693TIP3   OH211084   5.030   0.791   3.015 -0.4163  0.3591 -0.0408
 3693TIP3    H111085   4.937   0.795   3.037 -0.8714  1.3327 -1.8577
 3693TIP3    H211086   5.035   0.726   2.945  0.2015  0.5661 -0.1949
 3694TIP3   OH211087   4.768   1.631   3.516  0.0702  0.1283 -0.6100
 3694TIP3    H111088   4.777   1.640   3.611  1.0313  1.5517 -0.7971
 3694TIP3    H211089   4.679   1.661   3.498 -0.5789 -1.3612 -0.0602
 3695TIP3   OH211090   5.446   0.299   0.534  0.3592  0.1824  0.0920
 3695TIP3    H111091   5.412   0.388   0.531 -0.5897 -0.1456  0.6839
 3695TIP3    H211092   5.540   0.309   0.521  0.1708  1.1955 -0.6166
 3696TIP3   OH211093   4.163   1.556   0.966 -0.1645  0.3319 -0.9350
 3696TIP3    H111094   4.221   1.566   1.042  1.1932  0.3268 -1.9432
 3696TIP3    H211095   4.076   1.545   1.005  0.6762 -1.1686  0.6794
 3697TIP3   OH211096   5.538   3.863   0.150  0.2349 -0.2703  0.5207
 3697TIP3    H111097   5.628   3.892   0.164  0.1780 -1.0813  3.1121
 3697TIP3    H211098   5.545   3.768   0.139 -0.0351  0.0036 -2.9602
 3698TIP3   OH211099   5.970   5.511   3.612 -0.3137  0.3008  0.7045
 3698TIP3    H111100   6.043   5.499   3.550 -0.5186  0.0306  0.5109
 3698TIP3    H211101   5.973   5.434   3.668 -2.0420 -1.0702 -0.9649
 3699TIP3   OH211102   5.878   1.871   0.521  0.1765 -0.0010 -0.3403
 3699TIP3    H111103   5.928   1.799   0.482 -0.2198 -0.7493  0.4906
 3699TIP3    H211104   5.943   1.941   0.534  0.6971 -0.4261 -0.5983
 3700TIP3   OH211105   4.388   0.832   4.076 -0.5740 -0.0167 -0.2193
 3700TIP3    H111106   4.415   0.837   4.168 -2.1182  0.4289  0.2345
 3700TIP3    H211107   4.317   0.896   4.068 -1.8059 -1.4406 -1.2213
 3701TIP3   OH211108   2.922   5.849   3.288 -0.1271  0.3362  0.2698
 3701TIP3    H111109   2.900   5.930   3.242 -0.3573 -0.6295 -1.4070
 3701TIP3    H211110   3.017   5.852   3.299  0.0941  0.0809 -1.3604
 3702TIP3   OH211111   6.207   4.271   3.666 -0.3827 -0.1956  0.5585
 3702TIP3    H111112   6.120   4.241   3.638 -0.7310  1.6100 -0.4087
 3702TIP3    H211113   6.202   4.366   3.663  1.6811 -0.0506  0.3579
 3703TIP3   OH211114   4.116   4.787   4.174  0.5999 -0.0741 -0.1050
 3703TIP3    H111115   4.067   4.833   4.106  0.6638  1.0651  0.6045
 3703TIP3    H211116   4.096   4.694   4.158 -0.2486  0.2364 -0.9989
 3704TIP3   OH211117   0.851   2.201   3.708  0.5879  0.0334  0.1012
 3704TIP3    H111118   0.790   2.135   3.740  0.6175  0.0111  0.1123
 3704TIP3    H211119   0.797   2.277   3.688  0.2901 -0.5956 -1.6716
 3705TIP3   OH211120   5.503   1.536   1.833  0.4194 -0.8091  0.7322
 3705TIP3    H111121   5.501   1.515   1.926 -0.2581 -0.6579  0.7519
 3705TIP3    H211122   5.451   1.467   1.792  1.1434 -1.1720  0.4016
 3706TIP3   OH211123   3.137   1.931   4.286 -0.1282  0.0237  0.2869
 3706TIP3    H111124   3.218   1.978   4.307  1.8730 -2.9647 -0.1222
 3706TIP3    H211125   3.125   1.870   4.358 -2.5226  0.8881  0.7130
 3707TIP3   OH211126   1.513   5.365   4.362  0.3094  0.5396 -0.2604
 3707TIP3    H111127   1.567   5.444   4.359  0.4510  0.4580  0.1146
 3707TIP3    H211128   1.424   5.397   4.377  0.4759  0.5936  0.7143
 3708TIP3   OH211129   2.252   5.769   3.446 -0.3115 -0.4036 -0.0473
 3708TIP3    H111130   2.217   5.844   3.400  1.8685  0.1242 -0.9717
 3708TIP3    H211131   2.274   5.802   3.533  2.2437  0.6110 -0.9737
 3709TIP3   OH211132   5.874   1.480   2.363 -0.0173  0.7047  0.4405
 3709TIP3    H111133   5.847   1.528   2.284 -0.7922 -1.8772 -0.9706
 3709TIP3    H211134   5.797   1.484   2.420 -1.2488 -1.3152 -0.9535
 3710TIP3   OH211135   5.542   4.232   0.821  0.4004 -0.0654  0.2290
 3710TIP3    H111136   5.465   4.256   0.768  0.1577 -0.0785  0.5747
 3710TIP3    H211137   5.600   4.187   0.760  2.2151  3.8768 -1.2923
 3711TIP3   OH211138   3.473   4.943   4.234  0.2941  0.0772  0.0572
 3711TIP3    H111139   3.541   4.878   4.218 -0.3802 -0.3780 -1.0858
 3711TIP3    H211140   3.393   4.904   4.199 -0.1897  1.3733 -0.3564
 3712TIP3   OH211141   0.338   3.029   0.781  0.0959 -0.3033 -0.0162
 3712TIP3    H111142   0.259   2.980   0.757  0.9815 -1.6438 -0.2332
 3712TIP3    H211143   0.387   3.037   0.699 -1.1686  3.2288 -0.6297
 3713TIP3   OH211144   4.034   0.490   3.619  0.4375 -0.5586  0.6294
 3713TIP3    H111145   3.939   0.490   3.607  0.7039  1.0500 -2.3767
 3713TIP3    H211146   4.051   0.566   3.675  0.1582  2.0739 -2.6016
 3714TIP3   OH211147   1.675   2.431   1.320 -0.4069 -0.5884  0.2645
 3714TIP3    H111148   1.753   2.465   1.277 -1.1999  0.7445 -0.1751
 3714TIP3    H211149   1.671   2.477   1.403 -0.1910 -1.3978  0.7381
 3715TIP3   OH211150   5.195   5.857   4.596  0.3279  0.0010 -0.1967
 3715TIP3    H111151   5.152   5.772   4.595 -0.4315  0.3041  1.5867
 3715TIP3    H211152   5.257   5.854   4.524 -0.9780 -1.3667 -1.3328
 3716TIP3   OH211153   1.763   3.816   3.951  0.4232  0.4080 -0.2374
 3716TIP3    H111154   1.678   3.790   3.915 -0.0043  0.8860  0.4119
 3716TIP3    H211155   1.787   3.745   4.010  0.5062  0.2432 -0.4677
 3717TIP3   OH211156  -0.024   0.005   2.725  0.4068 -0.7892  0.2722
 3717TIP3    H111157  -0.009   0.097   2.703 -1.4587 -0.0375  1.8698
 3717TIP3    H211158   0.060  -0.037   2.708  1.1121  1.0443 -1.1940
 3718TIP3   OH211159   5.820   3.661   1.512 -0.3727  0.1062 -0.2397
 3718TIP3    H111160   5.849   3.576   1.478 -2.0114 -0.4616 -0.3002
 3718TIP3    H211161   5.766   3.697   1.443 -0.4363  0.7853  0.1582
 3719TIP3   OH211162   6.320   1.198   2.504 -0.2921 -0.1289  0.1362
 3719TIP3    H111163   6.268   1.182   2.583 -0.5400 -1.3592 -0.2531
 3719TIP3    H211164   6.308   1.291   2.485 -1.3424 -0.1240  0.7605
 3720TIP3   OH211165   2.426   4.305   3.176  0.6450 -0.5846 -0.3261
 3720TIP3    H111166   2.486   4.318   3.249  0.1101 -0.6798  0.1385
 3720TIP3    H211167   2.345   4.272   3.217 -0.1209  0.6439 -0.8088
 3721TIP3   OH211168   1.675   1.691   4.366 -0.3494  0.0759 -0.0253
 3721TIP3    H111169   1.728   1.684   4.446 -0.8239  2.4415  0.5614
 3721TIP3    H211170   1.623   1.769   4.379 -2.3096 -0.8895 -1.6208
 3722TIP3   OH211171   4.568   3.723   3.120  0.6269 -0.0169  0.1214
 3722TIP3    H111172   4.569   3.657   3.189  1.2240 -0.4545 -0.2950
 3722TIP3    H211173   4.571   3.673   3.039  0.4971  0.5089 -0.2119
 3723TIP3   OH211174   2.346   1.119   1.357 -0.0672 -0.6100 -0.7514
 3723TIP3    H111175   2.333   1.213   1.369  1.2231 -0.5671  0.5433
 3723TIP3    H211176   2.322   1.080   1.441  2.0695 -1.0983 -0.2868
 3724TIP3   OH211177   2.428   1.441   1.665  0.0891  0.1779 -0.5424
 3724TIP3    H111178   2.427   1.491   1.583  1.4286  0.3032 -0.5079
 3724TIP3    H211179   2.511   1.392   1.662  0.1328  0.1435  0.7113
 3725TIP3   OH211180   4.405   1.506   5.044 -0.0168  0.1527  0.4139
 3725TIP3    H111181   4.339   1.458   4.994 -2.2617  2.3522  1.0615
 3725TIP3    H211182   4.448   1.563   4.980 -0.5736  0.5853  0.4240
 3726TIP3   OH211183   3.035   5.062   1.843  1.1994  0.7181 -0.0994
 3726TIP3    H111184   2.951   5.052   1.888  2.3060  1.4264  2.2709
 3726TIP3    H211185   3.022   5.137   1.784  0.7874  2.3049  1.9056
 3727TIP3   OH211186   3.283   5.751   4.995  0.3564 -0.1144  0.7508
 3727TIP3    H111187   3.270   5.803   4.916 -1.5723  1.3702  1.9696
 3727TIP3    H211188   3.228   5.674   4.983  1.3448 -0.7327 -0.0121
 3728TIP3   OH211189   2.296   3.921   3.370  0.1072 -0.3031  0.5050
 3728TIP3    H111190   2.307   3.979   3.445 -0.4139 -1.2131  1.3220
 3728TIP3    H211191   2.247   3.846   3.405 -3.0678  0.6718 -1.4131
 3729TIP3   OH211192   1.364   5.611   0.248  0.6354  0.0228 -0.4998
 3729TIP3    H111193   1.390   5.678   0.311 -0.5593  1.7572 -1.7298
 3729TIP3    H211194   1.414   5.533   0.272 -0.2486  0.3527  2.9957
 3730TIP3   OH211195   4.248   1.539   3.434 -0.0117  0.5391  0.3083
 3730TIP3    H111196   4.335   1.558   3.469  0.4520 -0.7296 -0.0824
 3730TIP3    H211197   4.253   1.448   3.406 -1.1739  0.7251 -0.6130
 3731TIP3   OH211198   1.853   2.418   5.063 -0.4952 -0.1525  0.8056
 3731TIP3    H111199   1.948   2.414   5.056 -0.3802  0.6183  1.6848
 3731TIP3    H211200   1.835   2.506   5.096 -1.5406 -0.1336  0.2288
 3732TIP3   OH211201   5.584   2.041   4.882  0.0755 -0.1032  0.1851
 3732TIP3    H111202   5.541   2.065   4.964 -0.2927 -0.7907  0.1982
 3732TIP3    H211203   5.678   2.053   4.900 -0.0772  1.1532  0.2326
 3733TIP3   OH211204   6.287   4.393   2.577 -0.1203 -0.3819 -0.2789
 3733TIP3    H111205   6.201   4.368   2.610  0.3955 -0.3565  1.1175
 3733TIP3    H211206   6.292   4.488   2.591  0.0102 -0.3236 -0.6855
 3734TIP3   OH211207   3.790   2.443   4.726  0.1696 -0.1289 -0.5943
 3734TIP3    H111208   3.743   2.458   4.644  0.8082  0.4041 -0.8730
 3734TIP3    H211209   3.808   2.349   4.726  1.3147  0.0557 -1.7215
 3735TIP3   OH211210   3.102   4.724   5.036  0.1566  0.2638  0.2834
 3735TIP3    H111211   3.098   4.760   5.124  1.1185  1.8554 -0.2731
 3735TIP3    H211212   3.192   4.694   5.026  0.3661  1.0783 -0.4820
 3736TIP3   OH211213   1.480   1.617   0.787 -0.2837 -0.0258 -0.5726
 3736TIP3    H111214   1.502   1.563   0.863  0.4147 -1.4282 -1.7136
 3736TIP3    H211215   1.463   1.704   0.823 -0.0654 -0.6698  1.1846
 3737TIP3   OH211216   3.438   5.643   1.640  0.0177 -0.6003  0.5317
 3737TIP3    H111217   3.464   5.618   1.552 -0.4308 -3.5731  1.1204
 3737TIP3    H211218   3.345   5.621   1.645  0.0966 -0.7243  1.7860
 3738TIP3   OH211219   4.830   4.916   0.833  0.2629 -0.3488  0.0010
 3738TIP3    H111220   4.879   4.940   0.754 -0.6199  1.2361 -0.0977
 3738TIP3    H211221   4.851   4.985   0.896 -0.8656 -0.3320  0.3732
 3739TIP3   OH211222   4.651   5.790   2.702 -0.0180  0.2709 -0.2979
 3739TIP3    H111223   4.653   5.850   2.777 -1.2897 -1.1271  0.9258
 3739TIP3    H211224   4.740   5.755   2.698  0.1401  0.5647  0.3891
 3740TIP3   OH211225   4.062   1.025   0.194 -0.0917 -0.0537  0.3607
 3740TIP3    H111226   4.003   1.012   0.120 -0.1471  0.0159  0.3929
 3740TIP3    H211227   4.091   1.116   0.186 -1.2060  0.3954  1.2276
 3741TIP3   OH211228   2.409   0.460   3.744  0.0949  0.2954  0.0181
 3741TIP3    H111229   2.496   0.461   3.783 -0.1106 -1.1342  0.6037
 3741TIP3    H211230   2.371   0.377   3.775 -0.9522  0.2426 -1.3408
 3742TIP3   OH211231   0.900   5.981   2.089  0.0818 -0.7119 -0.4927
 3742TIP3    H111232   0.914   5.886   2.094  0.2520 -0.6511  0.3506
 3742TIP3    H211233   0.988   6.018   2.097 -0.1740 -0.4278  1.6312
 3743TIP3   OH211234   4.569   3.334   3.113 -0.0222  0.1035 -0.0194
 3743TIP3    H111235   4.521   3.386   3.178 -0.0653  0.4749 -0.3435
 3743TIP3    H211236   4.552   3.379   3.030  0.7916  0.1768 -0.1549
 3744TIP3   OH211237   5.531   2.215   2.666  0.4653  0.0036 -0.5921
 3744TIP3    H111238   5.577   2.215   2.582  1.3783  1.3114 -0.1290
 3744TIP3    H211239   5.593   2.177   2.728 -0.3651 -1.3710 -0.5518
 3745TIP3   OH211240   4.849   3.571   2.311 -0.1326 -0.6707 -0.0088
 3745TIP3    H111241   4.778   3.628   2.281 -0.4673 -1.6062 -1.0638
 3745TIP3    H211242   4.926   3.601   2.262  0.7394  1.5375  2.4194
 3746TIP3   OH211243   6.306   5.761   5.178 -0.8908 -0.1426 -0.5256
 3746TIP3    H111244   6.282   5.818   5.251 -0.1551 -1.8277  1.1055
 3746TIP3    H211245   6.363   5.816   5.124  1.2345  0.2488  1.9137
 3747TIP3   OH211246   2.630   3.057   0.777 -0.2023 -0.4051  0.1254
 3747TIP3    H111247   2.588   3.044   0.862 -0.4756 -1.1899 -0.1257
 3747TIP3    H211248   2.557   3.074   0.718  0.0285  0.7873  0.1511
 3748TIP3   OH211249   3.231   3.347   1.520  0.0730  0.0667 -0.4719
 3748TIP3    H111250   3.261   3.428   1.481 -1.5330  0.3210 -1.2674
 3748TIP3    H211251   3.163   3.374   1.582 -0.0983 -0.6255 -0.3501
 3749TIP3   OH211252   3.437   2.740   4.477  0.6695  0.1948 -0.1022
 3749TIP3    H111253   3.421   2.649   4.451 -1.7653 -0.2989  2.5811
 3749TIP3    H211254   3.375   2.791   4.426 -0.5884 -0.1617  1.0157
 3750TIP3   OH211255   2.777   0.262   1.216  1.0522  0.3224  0.6079
 3750TIP3    H111256   2.841   0.246   1.146 -0.0455 -3.6322  0.2577
 3750TIP3    H211257   2.804   0.205   1.287  0.0588  1.5061  1.9943
 3751TIP3   OH211258   0.600   0.729   1.520 -0.3011 -0.1608 -0.5922
 3751TIP3    H111259   0.681   0.727   1.570  0.3596 -0.9816 -1.6587
 3751TIP3    H211260   0.580   0.823   1.511  0.4075  0.0390 -0.1550
 3752TIP3   OH211261   4.431   5.115   3.363  0.2574  0.3911 -0.4076
 3752TIP3    H111262   4.362   5.149   3.421 -0.6335 -2.3205  0.2297
 3752TIP3    H211263   4.506   5.101   3.421 -0.1419 -0.8765 -0.1694
 3753TIP3   OH211264   2.561   4.609   5.139  0.4757  0.4037 -0.9771
 3753TIP3    H111265   2.558   4.684   5.197  1.7832  0.4502 -0.9366
 3753TIP3    H211266   2.550   4.646   5.051 -0.1612  0.4848 -0.8678
 3754TIP3   OH211267   3.711   3.407   5.036  0.7102  0.0750 -0.3500
 3754TIP3    H111268   3.672   3.340   5.092  2.7037  1.1079  2.4989
 3754TIP3    H211269   3.777   3.361   4.985  0.3599 -0.5534 -0.2358
 3755TIP3   OH211270   3.209   3.592   0.855  0.3144  0.2698 -0.0068
 3755TIP3    H111271   3.230   3.665   0.796 -0.4315 -0.9960 -1.9500
 3755TIP3    H211272   3.271   3.523   0.831  1.4367  0.4112  2.2540
 3756TIP3   OH211273   0.604   1.277   2.149 -0.3550  0.2145 -0.1403
 3756TIP3    H111274   0.676   1.321   2.105  0.1898  0.0424  0.5655
 3756TIP3    H211275   0.561   1.345   2.200  0.9572 -0.1830  1.5640
 3757TIP3   OH211276   1.096   1.161   2.903  0.6399 -0.2336 -0.0951
 3757TIP3    H111277   1.069   1.071   2.923  0.3440 -0.0129  0.5397
 3757TIP3    H211278   1.140   1.191   2.983  0.9260  0.1126 -0.3800
 3758TIP3   OH211279   5.737   4.197   0.313  0.6989  0.1905 -1.1631
 3758TIP3    H111280   5.754   4.116   0.264  1.2196 -0.3826 -0.0615
 3758TIP3    H211281   5.655   4.229   0.277 -1.5772 -2.8001  0.8580
 3759TIP3   OH211282   6.232   2.344   2.899  0.1875 -0.4098 -0.0631
 3759TIP3    H111283   6.236   2.266   2.954  0.6043  0.0143  0.5232
 3759TIP3    H211284   6.174   2.319   2.826 -2.9282 -0.0194  2.0911
 3760TIP3   OH211285   5.833   5.403   2.080 -0.5716 -0.0910  0.1836
 3760TIP3    H111286   5.870   5.363   2.158  1.3259  0.5668 -0.3268
 3760TIP3    H211287   5.771   5.339   2.046 -1.4456 -0.3775  2.2111
 3761TIP3   OH211288   1.733   0.152   1.615  0.2122  0.7983 -0.0737
 3761TIP3    H111289   1.725   0.124   1.524  2.6336  0.3483 -0.2192
 3761TIP3    H211290   1.700   0.078   1.666 -0.5603  0.7994 -0.5655
 3762TIP3   OH211291   2.638   2.511   0.612  0.0137  0.0052 -0.0659
 3762TIP3    H111292   2.621   2.573   0.683 -1.3768 -1.4091  0.8911
 3762TIP3    H211293   2.628   2.425   0.652 -0.0725 -0.8389 -1.8148
 3763TIP3   OH211294   2.589   3.841   4.106 -0.0047  0.3672  0.2970
 3763TIP3    H111295   2.595   3.755   4.064  2.1138  0.1617  0.9495
 3763TIP3    H211296   2.554   3.823   4.193  0.8076  0.1083  0.5728
 3764TIP3   OH211297   1.529   4.029   3.981  0.1690 -0.4442 -0.0444
 3764TIP3    H111298   1.530   3.934   3.996  0.4665 -0.5288 -0.5957
 3764TIP3    H211299   1.561   4.040   3.891  1.8826  0.2997  0.6237
 3765TIP3   OH211300   5.126   4.684   4.592 -0.1527  0.1894  0.2305
 3765TIP3    H111301   5.143   4.760   4.537  0.6646  0.1609  0.4260
 3765TIP3    H211302   5.076   4.719   4.666 -2.1051  0.0600 -0.9663
 3766TIP3   OH211303   1.946   0.709   2.238 -0.4869  0.0870  0.0499
 3766TIP3    H111304   1.973   0.796   2.266  1.4565 -0.9495  1.6751
 3766TIP3    H211305   1.970   0.705   2.145  1.1068  0.7038  0.3965
 3767TIP3   OH211306   4.570   1.129   1.780 -0.3065  0.2064  0.3512
 3767TIP3    H111307   4.513   1.199   1.748 -0.5561 -0.6912 -1.3079
 3767TIP3    H211308   4.634   1.173   1.836 -0.9310  1.6318 -0.0112
 3768TIP3   OH211309   3.804   4.984   1.143  0.1058 -0.0064  0.4614
 3768TIP3    H111310   3.850   4.925   1.084  1.5584 -0.0879  1.6055
 3768TIP3    H211311   3.822   5.071   1.109 -0.5532 -0.1276 -0.2128
 3769TIP3   OH211312   5.338   4.077   1.868  0.3235  0.0522  0.7415
 3769TIP3    H111313   5.370   4.140   1.803 -1.3232 -0.9238 -1.1036
 3769TIP3    H211314   5.303   4.005   1.816  1.9596 -2.3737  2.7678
 3770TIP3   OH211315   4.430   1.566   1.370  0.6445  0.8564 -0.2525
 3770TIP3    H111316   4.417   1.658   1.349 -0.8783  0.4595 -1.1821
 3770TIP3    H211317   4.416   1.520   1.287  0.8829 -0.2591  0.3049
 3771TIP3   OH211318   3.187   3.967   1.610  0.0188  0.1666  0.3021
 3771TIP3    H111319   3.220   4.014   1.688 -0.7833 -1.6128  1.7809
 3771TIP3    H211320   3.263   3.920   1.577  0.0626 -0.1386  0.8288
 3772TIP3   OH211321   6.046   1.648   4.774 -0.0431  0.5855 -0.8825
 3772TIP3    H111322   5.972   1.648   4.713 -1.4015  1.7980  0.6569
 3772TIP3    H211323   6.083   1.737   4.767  1.4337 -0.0533 -1.7583
 3773TIP3   OH211324   4.281   1.913   3.691 -0.1246  0.8229 -0.0909
 3773TIP3    H111325   4.274   1.868   3.607  1.0967 -2.9160  1.6055
 3773TIP3    H211326   4.367   1.955   3.689  0.1810  0.1852 -0.4713
 3774TIP3   OH211327   4.896   0.479   3.221  0.0726  0.2041  0.1349
 3774TIP3    H111328   4.816   0.455   3.175  0.0742  1.5514 -0.6375
 3774TIP3    H211329   4.955   0.508   3.152  1.4020 -1.1365  0.6424
 3775TIP3   OH211330   3.538   1.409   1.652  0.5484 -0.0326 -0.3283
 3775TIP3    H111331   3.546   1.340   1.586 -1.0770  0.2424 -0.8462
 3775TIP3    H211332   3.445   1.430   1.654  0.7919  1.0629  0.9482
 3776TIP3   OH211333   0.162   0.477   3.925  0.4265  0.3406  0.3221
 3776TIP3    H111334   0.066   0.479   3.924  0.3970 -0.6227  0.1649
 3776TIP3    H211335   0.184   0.452   4.015  0.4724 -0.9608 -0.0316
 3777TIP3   OH211336   3.648   2.971   3.202 -0.1990 -0.3361 -0.3900
 3777TIP3    H111337   3.733   2.946   3.237 -0.4007 -0.3240  0.1192
 3777TIP3    H211338   3.640   2.920   3.121 -0.0390 -0.9269 -0.0436
 3778TIP3   OH211339   0.218   3.416   2.243  0.3053 -0.2681  0.1983
 3778TIP3    H111340   0.229   3.324   2.267 -0.1515 -0.4896 -0.4176
 3778TIP3    H211341   0.126   3.423   2.219  0.9738 -0.3774 -2.7718
 3779TIP3   OH211342   1.257   3.380   3.652 -0.0091  0.2414  0.0379
 3779TIP3    H111343   1.299   3.304   3.611 -1.8467 -1.5792  1.3031
 3779TIP3    H211344   1.329   3.429   3.691  1.1015 -2.4125  1.6305
 3780TIP3   OH211345   5.260   2.044   1.321 -0.0724  0.1602 -0.2625
 3780TIP3    H111346   5.337   2.056   1.377 -0.4950 -1.0384  0.6010
 3780TIP3    H211347   5.247   2.130   1.280  3.1798 -0.1675 -2.3397
 3781TIP3   OH211348   4.716   2.910   0.254 -0.3332 -0.4339  0.2972
 3781TIP3    H111349   4.725   2.823   0.292 -1.9816 -0.5651  0.4622
 3781TIP3    H211350   4.628   2.911   0.216 -0.1776  1.0029 -0.1040
 3782TIP3   OH211351   4.239   1.867   0.137  0.1545 -0.3855  0.3369
 3782TIP3    H111352   4.313   1.808   0.124  1.2622  0.9880  0.1405
 3782TIP3    H211353   4.271   1.932   0.199 -1.0499 -0.0061  0.5935
 3783TIP3   OH211354   1.812   3.563   4.880 -0.6972 -0.8665 -0.1592
 3783TIP3    H111355   1.734   3.618   4.881 -0.9892 -1.2740 -0.1634
 3783TIP3    H211356   1.879   3.617   4.839  0.1510  0.9786  3.3226
 3784TIP3   OH211357   5.922   5.776   4.198  0.5272 -0.2123  0.4486
 3784TIP3    H111358   6.015   5.791   4.181  0.6349 -0.8158  0.4614
 3784TIP3    H211359   5.877   5.817   4.125  0.7597  0.6808  0.7897
 3785TIP3   OH211360   3.124   2.576   4.876 -0.5463 -0.0969 -0.7099
 3785TIP3    H111361   3.069   2.646   4.840 -0.4537  0.1110 -0.4561
 3785TIP3    H211362   3.214   2.605   4.857 -0.4370  0.6288  0.7459
 3786TIP3   OH211363   0.698   5.230   2.638  0.0731 -0.2247  0.0991
 3786TIP3    H111364   0.638   5.173   2.685  1.8882 -1.1852  1.3804
 3786TIP3    H211365   0.659   5.241   2.551 -2.8722  0.7596  1.4231
 3787TIP3   OH211366   5.129   5.161   1.188 -0.0376  0.0861 -0.5489
 3787TIP3    H111367   5.174   5.161   1.104 -0.8150  0.8433 -0.9742
 3787TIP3    H211368   5.040   5.189   1.168 -0.0876  0.8151  0.6053
 3788TIP3   OH211369   3.029   5.923   0.923  0.2459 -0.0787  0.2327
 3788TIP3    H111370   2.963   5.914   0.855  1.9064  1.2748 -1.7043
 3788TIP3    H211371   3.009   6.006   0.966 -0.4399 -0.6322  1.0031
 3789TIP3   OH211372   2.010   4.943   4.499  0.0355  0.2461 -0.4199
 3789TIP3    H111373   2.030   4.958   4.592 -3.8247 -0.9019  0.8060
 3789TIP3    H211374   1.961   5.021   4.472 -0.8093 -0.3983 -0.7798
 3790TIP3   OH211375   0.138   3.025   1.089 -0.4913 -0.4499 -0.0050
 3790TIP3    H111376   0.179   3.112   1.083  1.3862 -1.1495  1.5426
 3790TIP3    H211377   0.057   3.041   1.137 -0.1127  0.4576  0.3805
 3791TIP3   OH211378   0.680   2.539   2.558 -0.1146 -0.1946 -0.0781
 3791TIP3    H111379   0.612   2.575   2.615 -0.2326 -2.1718  1.1076
 3791TIP3    H211380   0.762   2.558   2.604 -0.2149 -1.8669  0.8953
 3792TIP3   OH211381   0.676   5.664   1.016  0.3216  0.0351  0.4737
 3792TIP3    H111382   0.608   5.605   1.048 -1.4455  1.2477 -0.8470
 3792TIP3    H211383   0.689   5.639   0.925  0.0243  1.2363  0.0848
 3793TIP3   OH211384   5.469   0.064   1.538 -0.0693  0.2781  0.2371
 3793TIP3    H111385   5.451   0.034   1.449 -0.2901  1.4884 -0.1446
 3793TIP3    H211386   5.553   0.025   1.560 -1.0542 -1.9568  0.4065
 3794TIP3   OH211387   1.637   4.253   4.089 -0.0737 -0.5238  0.4168
 3794TIP3    H111388   1.584   4.306   4.148  0.8016 -2.8626  3.5746
 3794TIP3    H211389   1.592   4.168   4.086  0.2705 -0.6960 -1.8645
 3795TIP3   OH211390   0.434   5.238   0.856  0.0381  0.3853  0.3788
 3795TIP3    H111391   0.528   5.249   0.864 -0.0457  0.1535  1.9465
 3795TIP3    H211392   0.402   5.324   0.828  0.5658  0.9069  1.3342
 3796TIP3   OH211393   4.478   0.480   1.505  0.0933  0.2702  0.7066
 3796TIP3    H111394   4.396   0.516   1.538  0.4957  1.6939  0.2590
 3796TIP3    H211395   4.508   0.545   1.441  0.5316 -1.2243 -0.6848
 3797TIP3   OH211396   3.182   1.720   3.250  0.3768  0.0113 -0.0722
 3797TIP3    H111397   3.191   1.815   3.239  1.4787 -0.3207 -2.8399
 3797TIP3    H211398   3.113   1.695   3.189  1.2825 -1.1592 -0.6584
 3798TIP3   OH211399   1.700   1.033   3.290  0.0129  0.3235 -0.2062
 3798TIP3    H111400   1.753   0.998   3.362 -1.0876  0.3017  0.6110
 3798TIP3    H211401   1.646   0.959   3.262  0.3267  0.3714 -0.9813
 3799TIP3   OH211402   5.253   4.868   3.470  0.0021 -0.4985 -0.1127
 3799TIP3    H111403   5.194   4.813   3.418 -0.8490  1.2382 -1.0884
 3799TIP3    H211404   5.276   4.941   3.411  0.0541  0.8664  1.5105
 3800TIP3   OH211405   0.136   2.640   2.480  0.8494 -0.9714 -0.1029
 3800TIP3    H111406   0.063   2.670   2.534 -1.0198 -1.8784 -1.9772
 3800TIP3    H211407   0.119   2.547   2.466  0.2847 -0.5065 -3.4579
 3801TIP3   OH211408   0.215   1.077   3.604 -0.2519 -0.0561  0.0571
 3801TIP3    H111409   0.129   1.060   3.643 -0.4575 -0.8131 -0.6860
 3801TIP3    H211410   0.223   1.172   3.602 -0.8260  0.0079  0.6590
 3802TIP3   OH211411   0.057   3.676   1.181  0.1532 -0.1650  0.2333
 3802TIP3    H111412   0.024   3.726   1.255  0.3160  0.5019 -0.1335
 3802TIP3    H211413   0.029   3.726   1.104  1.7214  0.2413 -0.0994
 3803TIP3   OH211414   5.364   1.035   4.503  0.4493  0.0078  0.0166
 3803TIP3    H111415   5.433   1.102   4.506 -1.1171  1.6845  0.8733
 3803TIP3    H211416   5.344   1.026   4.410  0.7963  0.6413 -0.1268
 3804TIP3   OH211417   5.792   5.310   4.412 -0.0574 -0.2116 -0.2965
 3804TIP3    H111418   5.714   5.365   4.425 -0.0175 -0.3366  0.5485
 3804TIP3    H211419   5.855   5.367   4.370 -0.8671 -0.3264 -1.7153
 3805TIP3   OH211420   0.263   5.695   1.422 -0.1647 -0.2849 -0.6465
 3805TIP3    H111421   0.276   5.600   1.411 -3.8867 -0.8790 -1.0381
 3805TIP3    H211422   0.233   5.725   1.336  1.3621  1.4190 -0.6508
 3806TIP3   OH211423   5.247   5.404   3.856 -0.1547 -0.0056  0.0802
 3806TIP3    H111424   5.315   5.453   3.810 -0.7728 -0.0230 -0.8586
 3806TIP3    H211425   5.179   5.468   3.875 -1.1429 -0.5390 -1.4953
 3807TIP3   OH211426   0.516   0.396   0.852  0.4414  0.0909 -0.9094
 3807TIP3    H111427   0.532   0.306   0.824  0.6517 -0.5862  1.2297
 3807TIP3    H211428   0.603   0.436   0.855  0.3928  0.2443 -1.4218
 3808TIP3   OH211429   0.615   0.449   1.399 -0.4624 -0.2534  0.2262
 3808TIP3    H111430   0.650   0.369   1.437  1.6770 -0.1888 -1.4089
 3808TIP3    H211431   0.673   0.518   1.432 -1.2587  0.4051  0.2815
 3809TIP3   OH211432   1.745   5.140   2.501  0.0119  0.6943 -0.2312
 3809TIP3    H111433   1.793   5.206   2.552  2.1904 -1.7357  1.0835
 3809TIP3    H211434   1.680   5.105   2.563  0.1764  0.2925 -0.2820
 3810TIP3   OH211435   5.137   2.104   3.996 -0.4420  0.9259  0.0346
 3810TIP3    H111436   5.224   2.102   4.035  0.2035  0.1593 -1.3340
 3810TIP3    H211437   5.091   2.029   4.035 -0.8315  1.8516  1.4243
 3811TIP3   OH211438   1.996   1.302   3.524  0.7740 -0.1431  0.0045
 3811TIP3    H111439   2.027   1.366   3.460  1.1431  0.0184  0.3424
 3811TIP3    H211440   1.911   1.337   3.552  0.0310 -0.8403 -1.2803
 3812TIP3   OH211441   1.486   4.507   3.892 -0.3254  0.5370 -0.3275
 3812TIP3    H111442   1.575   4.532   3.918 -0.4963 -0.3777  1.2542
 3812TIP3    H211443   1.497   4.424   3.845 -0.4155 -0.0546  0.6807
 3813TIP3   OH211444   4.504   2.057   3.660  0.3817  0.1547 -0.0475
 3813TIP3    H111445   4.589   2.074   3.620  0.2510  0.3509 -0.2455
 3813TIP3    H211446   4.446   2.124   3.623 -0.3635 -1.2285 -1.5055
 3814TIP3   OH211447   4.856   4.053   2.501  1.2383 -0.0133  0.0919
 3814TIP3    H111448   4.772   4.054   2.547  0.8300 -0.4975 -0.6127
 3814TIP3    H211449   4.920   4.033   2.568  0.6830 -0.4891  0.4972
 3815TIP3   OH211450   3.142   1.724   0.185 -0.3224  0.1464  0.5366
 3815TIP3    H111451   3.103   1.661   0.123 -0.0597  0.9219 -0.4482
 3815TIP3    H211452   3.234   1.729   0.160  0.1740 -0.7595  2.0744
 3816TIP3   OH211453   0.913   0.298   2.181  0.3023  0.0539 -0.1692
 3816TIP3    H111454   0.906   0.393   2.180 -1.3232 -0.0347  0.3164
 3816TIP3    H211455   0.837   0.267   2.132  0.5442 -1.0041  0.0879
 3817TIP3   OH211456   2.399   1.768   4.131 -0.4897 -0.4865 -0.0254
 3817TIP3    H111457   2.411   1.722   4.048  0.8868 -1.7367  0.8189
 3817TIP3    H211458   2.323   1.825   4.116  0.0648 -0.2487 -2.3014
 3818TIP3   OH211459   3.453   2.207   3.328 -0.2415 -0.2012 -0.1181
 3818TIP3    H111460   3.375   2.220   3.382  0.1411  2.0484 -0.0302
 3818TIP3    H211461   3.434   2.252   3.246  0.6617 -0.3051 -0.3989
 3819TIP3   OH211462   5.495   0.098   0.319  0.1110 -0.1354 -0.3713
 3819TIP3    H111463   5.471   0.149   0.396  0.4063 -0.1687 -0.2541
 3819TIP3    H211464   5.585   0.125   0.299  0.0544 -0.1635 -0.6728
 3820TIP3   OH211465   0.880   0.482   1.112  0.3148 -0.1790  0.0854
 3820TIP3    H111466   0.921   0.444   1.189  1.2994  1.8179  0.6031
 3820TIP3    H211467   0.794   0.512   1.143  0.2774 -0.3347  0.1324
 3821TIP3   OH211468   6.262   4.759   0.716 -0.1661  0.6981 -0.2075
 3821TIP3    H111469   6.238   4.668   0.696 -0.4472 -0.1278  3.2979
 3821TIP3    H211470   6.358   4.759   0.716 -0.0501  1.3379 -3.4608
 3822TIP3   OH211471   4.777   3.094   2.800  0.1369  0.3407 -0.4739
 3822TIP3    H111472   4.783   3.001   2.781 -0.7721 -0.0376  0.9203
 3822TIP3    H211473   4.684   3.109   2.820  0.2532  1.5542 -0.7573
 3823TIP3   OH211474   4.980   2.749   3.266 -0.4208 -0.1124 -0.4350
 3823TIP3    H111475   4.960   2.657   3.252 -0.6739 -0.1810  0.3036
 3823TIP3    H211476   4.950   2.767   3.356  0.7868  0.3551 -0.0961
 3824TIP3   OH211477   2.842   0.471   2.069 -0.2267 -0.0233  0.4957
 3824TIP3    H111478   2.748   0.454   2.075 -0.6175  0.8567 -1.8882
 3824TIP3    H211479   2.879   0.389   2.037 -0.4445  0.1145 -0.1283
 3825TIP3   OH211480   0.011   2.755   1.635  0.2809 -0.0403  0.5209
 3825TIP3    H111481   0.048   2.714   1.557 -0.4044 -0.2280  0.2895
 3825TIP3    H211482  -0.056   2.814   1.602  1.3684  1.4236  0.8373
 3826TIP3   OH211483   2.053   4.846   2.176 -0.0546 -0.2760 -0.4182
 3826TIP3    H111484   2.013   4.898   2.107 -2.0686 -0.3210  0.6510
 3826TIP3    H211485   2.090   4.911   2.236 -1.0368 -0.1056  0.0222
 3827TIP3   OH211486   3.964   5.598   2.496 -0.0476 -0.3484  0.1476
 3827TIP3    H111487   3.957   5.685   2.456 -0.3569  0.4137  1.7903
 3827TIP3    H211488   4.059   5.583   2.501  0.1044  0.9406  1.9497
 3828TIP3   OH211489   3.980   3.329   2.152 -0.0615  0.3860  0.1233
 3828TIP3    H111490   4.068   3.350   2.185 -0.4354  0.6987  0.9698
 3828TIP3    H211491   3.930   3.410   2.166  0.3992  1.5279 -3.7496
 3829TIP3   OH211492   3.859   5.243   1.071 -0.0070 -0.5949 -0.1567
 3829TIP3    H111493   3.777   5.282   1.101 -0.2356 -1.4234  0.3287
 3829TIP3    H211494   3.927   5.298   1.111 -0.2984  0.7557 -1.4381
 3830TIP3   OH211495   6.055   4.641   2.591 -0.4092  0.1737  0.3226
 3830TIP3    H111496   6.100   4.644   2.506 -1.1179  0.4232 -0.0537
 3830TIP3    H211497   6.023   4.730   2.604 -2.2178 -0.3555 -0.2110
 3831TIP3   OH211498   5.848   4.956   0.445 -0.7262  0.0926  0.3573
 3831TIP3    H111499   5.929   4.949   0.496 -0.3359  0.8123 -0.1522
 3831TIP3    H211500   5.847   4.877   0.392 -0.6917 -0.2368  0.8351
 3832TIP3   OH211501   2.213   0.780   3.477  0.0196  0.4001 -0.6069
 3832TIP3    H111502   2.210   0.864   3.432  0.8665  0.1157 -1.2044
 3832TIP3    H211503   2.157   0.723   3.425 -0.8596  0.6746  0.0072
 3833TIP3   OH211504   2.482   2.257   4.744 -0.1575  0.3735  0.2033
 3833TIP3    H111505   2.573   2.234   4.762  0.0650  1.3719  0.4438
 3833TIP3    H211506   2.433   2.177   4.760  0.5472  0.1217  1.1783
 3834TIP3   OH211507   4.517   4.499   1.595  0.0980 -0.3970 -0.4270
 3834TIP3    H111508   4.460   4.549   1.654  0.6738 -0.7882  0.4919
 3834TIP3    H211509   4.464   4.424   1.569 -0.7464  0.6073 -1.7606
 3835TIP3   OH211510   2.213   5.897   1.248  0.2236 -0.1670  0.7591
 3835TIP3    H111511   2.220   5.891   1.343 -1.2324  0.5798  0.9438
 3835TIP3    H211512   2.131   5.853   1.227 -0.1366  0.8346 -0.0061
 3836TIP3   OH211513   3.330   2.212   4.594  0.5989 -0.1153  0.1807
 3836TIP3    H111514   3.395   2.214   4.664  0.3124 -1.4996  0.5253
 3836TIP3    H211515   3.309   2.304   4.577 -1.6011  0.3099  4.0715
 3837TIP3   OH211516   0.851   1.706   2.837  0.4918  0.5015  0.0407
 3837TIP3    H111517   0.766   1.671   2.862  0.7569  0.5612  1.0811
 3837TIP3    H211518   0.873   1.662   2.755 -0.2622  0.0430  0.0845
 3838TIP3   OH211519   3.564   3.182   2.910  0.4251 -0.4836  0.5911
 3838TIP3    H111520   3.552   3.218   2.998 -1.6411  0.1295  0.1204
 3838TIP3    H211521   3.622   3.107   2.923 -0.8929 -1.2446  2.7396
 3839TIP3   OH211522   3.615   5.633   4.021 -0.3802  0.6245  0.3006
 3839TIP3    H111523   3.647   5.723   4.031 -0.1149  0.5664 -0.0084
 3839TIP3    H211524   3.520   5.641   4.021 -0.3576  1.0381 -0.8878
 3840TIP3   OH211525   2.758   4.203   3.119 -0.3978  0.5310 -0.4738
 3840TIP3    H111526   2.779   4.238   3.032 -0.4616  0.5814 -0.4690
 3840TIP3    H211527   2.765   4.278   3.178 -0.0260  0.4273 -0.3814
 3841TIP3   OH211528   4.612   3.446   4.926 -0.2053 -0.4273 -0.2655
 3841TIP3    H111529   4.642   3.497   4.851  0.9932 -0.6820  0.0179
 3841TIP3    H211530   4.525   3.482   4.946  0.3285  1.0410 -0.4782
 3842TIP3   OH211531   2.014   0.372   4.681  0.2818 -0.5724 -0.3708
 3842TIP3    H111532   2.012   0.319   4.602 -0.1916 -1.1812  0.0353
 3842TIP3    H211533   2.014   0.462   4.650 -0.7556 -0.7967 -1.0542
 3843TIP3   OH211534   5.440   5.911   0.961  0.2144 -0.3944  0.0264
 3843TIP3    H111535   5.373   5.852   0.926 -0.7620  0.5840  0.1848
 3843TIP3    H211536   5.431   5.990   0.908 -0.5993  0.7477  1.7792
 3844TIP3   OH211537   3.111   1.475   0.659 -0.1594 -0.5348  0.7623
 3844TIP3    H111538   3.067   1.515   0.584  0.8771  0.0332  0.4431
 3844TIP3    H211539   3.086   1.383   0.655  1.8779 -1.1036 -1.8228
 3845TIP3   OH211540   0.842   1.266   4.321  0.4350 -0.1029 -0.3248
 3845TIP3    H111541   0.910   1.220   4.272  1.8616  0.2951  1.2051
 3845TIP3    H211542   0.816   1.205   4.390  1.0167  0.6436  0.5803
 3846TIP3   OH211543   0.783   4.512   3.606  0.2186  0.2471  0.5182
 3846TIP3    H111544   0.766   4.504   3.512  0.0205  0.8409  0.5010
 3846TIP3    H211545   0.864   4.463   3.620 -1.0052 -1.9433  0.4619
 3847TIP3   OH211546   4.938   0.430   1.290  0.2252 -0.3988  0.2522
 3847TIP3    H111547   4.925   0.460   1.380  2.0143  1.0289  0.1049
 3847TIP3    H211548   4.858   0.454   1.244 -0.2386 -0.0772  1.2137
 3848TIP3   OH211549   5.333   0.842   3.446 -0.6996 -0.6710  0.5884
 3848TIP3    H111550   5.384   0.917   3.475 -2.3061  0.3300  0.9391
 3848TIP3    H211551   5.291   0.871   3.365  0.2360 -1.9074 -0.3759
 3849TIP3   OH211552   4.189   2.798   1.783  0.6260  0.0099  0.0755
 3849TIP3    H111553   4.244   2.868   1.749 -2.4448  2.9120  0.4438
 3849TIP3    H211554   4.109   2.843   1.812 -1.9310 -3.7693 -0.3405
 3850TIP3   OH211555   0.593   3.786   0.927  0.2008 -0.4295 -0.2971
 3850TIP3    H111556   0.529   3.716   0.937 -1.8242  1.3893  0.3958
 3850TIP3    H211557   0.585   3.814   0.835 -0.5748  0.2812 -0.0237
 3851TIP3   OH211558   2.985   5.091   4.316 -0.2110  0.6262 -0.3220
 3851TIP3    H111559   2.979   5.154   4.244  0.6771  0.9604 -0.1193
 3851TIP3    H211560   2.950   5.010   4.280 -1.3810  1.2337 -0.5854
 3852TIP3   OH211561   3.908   1.111   4.158 -0.0381  0.2717 -0.4140
 3852TIP3    H111562   3.837   1.174   4.170 -0.1057  0.0881  0.1872
 3852TIP3    H211563   3.919   1.071   4.244  1.2770  0.8089 -0.3050
 3853TIP3   OH211564   5.387   1.505   3.381  0.4483  0.2103  0.7102
 3853TIP3    H111565   5.291   1.503   3.371  0.6004  0.0680 -1.1766
 3853TIP3    H211566   5.406   1.437   3.445 -0.5983 -1.0447 -0.2536
 3854TIP3   OH211567   1.266   1.772   3.444  0.4097  0.1913 -0.4719
 3854TIP3    H111568   1.184   1.799   3.485  0.7192  1.5629 -0.7048
 3854TIP3    H211569   1.303   1.853   3.409  1.4342 -0.5449 -1.1473
 3855TIP3   OH211570   6.301   3.294   2.207  0.0430 -0.0907 -0.5651
 3855TIP3    H111571   6.252   3.222   2.166  0.6960 -0.4278 -0.7772
 3855TIP3    H211572   6.259   3.373   2.173  1.8887 -0.2863 -3.7435
 3856TIP3   OH211573   0.444   4.074   2.056 -0.5284  0.3505 -0.4665
 3856TIP3    H111574   0.364   4.051   2.009 -0.8495 -0.0369  0.2520
 3856TIP3    H211575   0.438   4.026   2.139  0.0586  0.9588 -0.0574
 3857TIP3   OH211576   0.326   1.989   2.896  0.2207 -0.4000  0.7094
 3857TIP3    H111577   0.289   1.942   2.821  1.1350  0.0877 -0.0661
 3857TIP3    H211578   0.362   1.920   2.952 -2.2725 -0.9560  1.7825
 3858TIP3   OH211579   5.955   4.028   2.926 -0.1029 -0.2868  0.2156
 3858TIP3    H111580   6.029   4.088   2.918  0.1053 -0.5874 -0.1697
 3858TIP3    H211581   5.979   3.954   2.870 -0.9722 -0.1152 -0.3992
 3859TIP3   OH211582   5.307   2.278   0.572  0.1405  0.2177 -0.1079
 3859TIP3    H111583   5.240   2.308   0.510 -1.3448 -2.3285  0.1031
 3859TIP3    H211584   5.390   2.304   0.532 -0.8561  0.6284 -2.0427
 3860TIP3   OH211585   6.130   3.135   2.070 -0.8543  0.1292  0.3543
 3860TIP3    H111586   6.135   3.079   1.992 -1.0625  0.4083  0.1387
 3860TIP3    H211587   6.037   3.155   2.079 -0.7330  0.7670  0.2001
 3861TIP3   OH211588   3.587   4.588   2.873  0.2981 -0.2238 -0.0818
 3861TIP3    H111589   3.609   4.499   2.900  1.0515  0.1954  0.7114
 3861TIP3    H211590   3.640   4.602   2.794  0.5471 -0.3099  0.0684
 3862TIP3   OH211591   0.312   5.686   0.828 -0.1038 -0.2121 -0.3498
 3862TIP3    H111592   0.373   5.647   0.765 -0.3222 -0.6244 -0.3150
 3862TIP3    H211593   0.261   5.611   0.860 -0.3309  0.0673 -0.0567
 3863TIP3   OH211594   2.168   0.035   4.702  0.1799 -0.1343  0.0123
 3863TIP3    H111595   2.196   0.106   4.645 -1.1679 -0.4893 -1.1772
 3863TIP3    H211596   2.080   0.061   4.732  0.3902 -0.4946  0.9958
 3864TIP3   OH211597   1.744   0.708   2.702 -0.2237  0.0065 -0.3563
 3864TIP3    H111598   1.657   0.680   2.674  0.3639  0.1053 -2.4166
 3864TIP3    H211599   1.770   0.774   2.638  1.2505  0.1852  0.3920
 3865TIP3   OH211600   3.841   0.119   0.563 -0.0475  0.2967  0.2048
 3865TIP3    H111601   3.838   0.033   0.522 -1.8137  0.9776 -1.1863
 3865TIP3    H211602   3.752   0.135   0.593  0.6564  0.8849  2.1672
 3866TIP3   OH211603   6.220   0.339   2.447  0.1872  0.7519  0.1144
 3866TIP3    H111604   6.300   0.390   2.453  0.9406 -0.5004  1.3346
 3866TIP3    H211605   6.160   0.378   2.511  1.2516 -0.6458  2.0695
 3867TIP3   OH211606   3.387   3.703   3.253 -0.0777 -0.6002  0.0583
 3867TIP3    H111607   3.302   3.704   3.209 -0.9323  1.2884  1.6105
 3867TIP3    H211608   3.445   3.754   3.196 -0.8093  0.6814  0.4403
 3868TIP3   OH211609   1.465   0.067   2.683  0.1959  0.0445  0.5975
 3868TIP3    H111610   1.479  -0.012   2.735  1.8886 -0.7820 -0.9924
 3868TIP3    H211611   1.394   0.113   2.727  0.6994 -1.2276  2.8734
 3869TIP3   OH211612   4.230   0.973   1.160  0.4949  0.0828 -0.2261
 3869TIP3    H111613   4.220   0.917   1.082  1.2544  0.5486 -0.6729
 3869TIP3    H211614   4.141   0.991   1.188  0.1123  1.4471 -2.1210
 3870TIP3   OH211615   0.989   4.466   2.616  0.2167  0.2266  0.4498
 3870TIP3    H111616   0.930   4.463   2.540  0.2141 -0.7066  0.4730
 3870TIP3    H211617   0.949   4.528   2.676  0.6507  1.6370 -0.6554
 3871TIP3   OH211618   5.837   4.174   2.720  0.1853  0.5321 -0.2552
 3871TIP3    H111619   5.927   4.197   2.696 -0.0892  1.2804 -0.5757
 3871TIP3    H211620   5.846   4.129   2.804  1.0185 -0.8926 -1.0625
 3872TIP3   OH211621   0.476   4.298   1.674 -0.4612  0.4816 -0.0984
 3872TIP3    H111622   0.515   4.291   1.761 -2.0086  0.3627  0.6218
 3872TIP3    H211623   0.402   4.238   1.676  0.2258 -0.5072 -1.9638
 3873TIP3   OH211624   5.655   0.651   0.010 -0.4160 -0.0570  0.8875
 3873TIP3    H111625   5.661   0.699   0.093  1.7148 -0.3739  0.9609
 3873TIP3    H211626   5.737   0.670  -0.035 -1.0331 -0.8436 -0.6509
 3874TIP3   OH211627   2.469   1.395   4.558 -0.2653 -0.4955  0.1174
 3874TIP3    H111628   2.452   1.462   4.492  0.9117  0.9675  1.2399
 3874TIP3    H211629   2.382   1.363   4.582 -0.8116  0.1650 -0.8789
 3875TIP3   OH211630   3.963   0.257   4.094 -0.6146 -0.1793  0.5620
 3875TIP3    H111631   4.036   0.304   4.053 -0.4555 -1.0941 -0.2473
 3875TIP3    H211632   3.886   0.312   4.077 -0.4857 -0.3469 -0.6647
 3876TIP3   OH211633   1.271   1.320   0.132 -0.2207 -0.2040  0.0050
 3876TIP3    H111634   1.305   1.332   0.221 -0.6147  0.4854  0.0690
 3876TIP3    H211635   1.332   1.367   0.076 -0.4202  0.0524  0.0000
 3877TIP3   OH211636   4.032   0.990   1.694  0.4198  0.3851  0.0038
 3877TIP3    H111637   4.117   1.004   1.652  0.8089  0.7127  0.8710
 3877TIP3    H211638   4.049   1.006   1.787 -0.2914 -0.8993  0.3711
 3878TIP3   OH211639   5.575   4.557   3.233 -0.2097  0.3142 -0.3241
 3878TIP3    H111640   5.664   4.523   3.231 -0.4901 -0.4361 -1.7911
 3878TIP3    H211641   5.541   4.530   3.318  0.5638 -0.4824 -0.2518
 3879TIP3   OH211642   2.629   0.950   4.677  0.3515  0.2916 -0.5375
 3879TIP3    H111643   2.709   0.964   4.625  0.8983 -1.6193 -0.2700
 3879TIP3    H211644   2.561   0.995   4.627  1.3806  1.0402 -1.3401
 3880TIP3   OH211645   3.630   0.036   0.979 -0.6821 -0.3668  0.3095
 3880TIP3    H111646   3.567  -0.002   0.918  1.2517 -0.6072 -1.6375
 3880TIP3    H211647   3.712  -0.010   0.961  1.0549  2.6856 -0.1119
 3881TIP3   OH211648   5.409   5.686   0.494 -0.3116 -0.1179 -0.0065
 3881TIP3    H111649   5.445   5.629   0.426 -0.4014  1.8574 -1.8088
 3881TIP3    H211650   5.314   5.680   0.483 -0.5842 -2.7220  2.5523
 3882TIP3   OH211651   5.546   2.062   0.641  0.5730 -0.5151 -0.7278
 3882TIP3    H111652   5.598   2.130   0.599 -0.0023  0.4247  0.0569
 3882TIP3    H211653   5.476   2.043   0.578 -1.1120  1.8799  0.2815
 3883TIP3   OH211654   3.139   1.091   1.270 -0.0786 -0.2036 -0.0769
 3883TIP3    H111655   3.061   1.145   1.281 -0.7569 -0.9885 -0.8644
 3883TIP3    H211656   3.152   1.048   1.355  0.6981  1.4522  0.6813
 3884TIP3   OH211657   4.016   5.772   2.765 -0.1016  0.4320 -0.4901
 3884TIP3    H111658   4.051   5.696   2.718  0.0004 -1.2002  2.0179
 3884TIP3    H211659   4.081   5.841   2.752  1.4722 -0.9261 -0.2525
 3885TIP3   OH211660   5.708   1.672   4.859 -0.0248  0.0246  0.8763
 3885TIP3    H111661   5.762   1.731   4.806 -0.4847  0.6645  1.1007
 3885TIP3    H211662   5.764   1.596   4.874  0.1312 -0.1606 -0.4833
 3886TIP3   OH211663   2.702   4.916   0.404 -0.1028  0.2087 -0.0960
 3886TIP3    H111664   2.727   4.897   0.313  1.2099  3.1406 -0.4445
 3886TIP3    H211665   2.774   4.882   0.456 -0.4687 -0.7369 -0.1789
 3887TIP3   OH211666   2.967   3.649   2.170 -0.2985 -0.4788  0.2011
 3887TIP3    H111667   2.960   3.666   2.264  2.2385 -0.9954  0.5729
 3887TIP3    H211668   3.049   3.693   2.144 -0.6790 -0.7752 -1.6623
 3888TIP3   OH211669   1.038   1.418   0.711 -0.1284 -0.7858 -0.2579
 3888TIP3    H111670   1.123   1.450   0.681 -1.0285 -0.6105 -2.9181
 3888TIP3    H211671   1.014   1.475   0.783  1.4475 -0.0324 -0.2934
 3889TIP3   OH211672   0.564   0.090   0.152  0.2009 -0.5683 -0.1668
 3889TIP3    H111673   0.616   0.157   0.198 -1.6473  1.1474 -0.4333
 3889TIP3    H211674   0.614   0.072   0.072  0.2752  1.3362 -0.6200
 3890TIP3   OH211675   1.245   3.018   0.558  0.4547 -0.1304 -1.0813
 3890TIP3    H111676   1.312   3.040   0.623 -0.5468  0.1844 -0.1087
 3890TIP3    H211677   1.195   3.099   0.547 -0.5256 -0.6780 -0.8399
 3891TIP3   OH211678   5.643   0.411   2.057 -0.4994 -0.3370  0.1429
 3891TIP3    H111679   5.670   0.502   2.072 -1.1688 -0.0620 -0.2517
 3891TIP3    H211680   5.553   0.418   2.024 -0.6538 -1.1610  0.3623
 3892TIP3   OH211681   2.519   1.158   4.253 -0.5893  0.3683 -0.6363
 3892TIP3    H111682   2.448   1.218   4.231  0.7005  1.8305 -0.9843
 3892TIP3    H211683   2.590   1.181   4.193  0.7744  0.1261  0.8040
 3893TIP3   OH211684   5.392   1.679   2.966 -0.1886 -0.8770 -0.4078
 3893TIP3    H111685   5.338   1.615   3.013 -1.5871 -0.8539 -1.9016
 3893TIP3    H211686   5.364   1.671   2.875 -1.8132  3.1335 -0.4404
 3894TIP3   OH211687   5.239   4.396   1.227  0.1242 -0.0725  0.4137
 3894TIP3    H111688   5.147   4.422   1.240  0.4364  1.2304  0.1709
 3894TIP3    H211689   5.235   4.301   1.215 -1.2584  0.0204 -0.1505
 3895TIP3   OH211690   5.919   4.889   1.107 -0.2674 -0.2219 -0.4336
 3895TIP3    H111691   5.990   4.864   1.048 -0.1848  0.4941 -0.6462
 3895TIP3    H211692   5.963   4.932   1.180 -0.4102 -0.6569 -0.0829
 3896TIP3   OH211693   0.153   5.934   2.696  0.2096 -0.0757 -0.5781
 3896TIP3    H111694   0.197   5.881   2.630  2.0191  3.1130 -2.1720
 3896TIP3    H211695   0.073   5.963   2.653  0.3342  0.2850 -0.5673
 3897TIP3   OH211696   5.465   3.877   0.845  0.3678 -0.6195 -0.4254
 3897TIP3    H111697   5.440   3.946   0.784 -2.9583 -1.8306 -0.6484
 3897TIP3    H211698   5.559   3.865   0.830  0.9211  3.1358 -1.0026
 3898TIP3   OH211699   3.306   3.625   4.091  0.5490 -0.6225  0.1079
 3898TIP3    H111700   3.401   3.613   4.086  1.0304  2.3055  0.3389
 3898TIP3    H211701   3.276   3.612   4.002  1.2637 -0.9506 -0.0960
 3899TIP3   OH211702   4.037   1.637   4.583 -0.2318  0.6905  0.3045
 3899TIP3    H111703   4.003   1.636   4.673  1.9416  2.3168  1.2441
 3899TIP3    H211704   4.128   1.610   4.592 -0.2386 -0.0963 -1.5871
 3900TIP3   OH211705   1.555   1.133   3.527  0.2588  0.0122  0.3134
 3900TIP3    H111706   1.523   1.124   3.438  1.6612  0.8153 -0.3024
 3900TIP3    H211707   1.628   1.072   3.534  1.2568  1.1558  0.3301
 3901TIP3   OH211708   6.144   3.620   0.291 -0.3468 -0.1368 -0.2903
 3901TIP3    H111709   6.132   3.528   0.269 -0.1193 -0.3953  0.6339
 3901TIP3    H211710   6.225   3.622   0.342 -0.2292  0.6082 -0.4928
 3902TIP3   OH211711   4.960   4.233   2.333 -0.5044  0.7180  0.3910
 3902TIP3    H111712   4.924   4.155   2.375  0.0039  0.0347 -0.4255
 3902TIP3    H211713   5.053   4.214   2.322 -0.4368  1.3107 -0.0969
 3903TIP3   OH211714   4.414   0.238   3.649  0.4581  0.5321  0.4351
 3903TIP3    H111715   4.320   0.252   3.633 -0.0298 -1.3124  1.3857
 3903TIP3    H211716   4.457   0.278   3.574 -1.2758 -1.3362 -1.7299
 3904TIP3   OH211717   6.273   0.987   5.015 -0.3709 -0.1610  0.6529
 3904TIP3    H111718   6.189   0.941   5.008 -0.6560  0.6127 -1.6227
 3904TIP3    H211719   6.331   0.923   5.056 -1.4313 -1.6277 -0.0368
 3905TIP3   OH211720   2.034   2.314   3.490  0.2465  0.8815  0.0936
 3905TIP3    H111721   2.067   2.395   3.528  2.5104  0.7928 -1.4977
 3905TIP3    H211722   2.087   2.245   3.531 -0.9728  0.2613  0.6819
 3906TIP3   OH211723   5.044   4.998   4.585 -0.0749 -0.3112  0.1126
 3906TIP3    H111724   5.114   5.012   4.649 -1.6510 -0.6807  2.0053
 3906TIP3    H211725   5.017   5.087   4.559  0.8810 -0.1654 -0.3991
 3907TIP3   OH211726   1.541   5.454   4.657 -0.0288  0.2181 -0.5429
 3907TIP3    H111727   1.462   5.403   4.641 -0.4317  0.9056 -0.8137
 3907TIP3    H211728   1.578   5.418   4.738 -0.4228 -0.3425 -0.6093
 3908TIP3   OH211729   0.649   1.587   3.003  0.3616 -0.9049  0.4500
 3908TIP3    H111730   0.645   1.655   3.070 -2.8215 -0.3893 -0.0780
 3908TIP3    H211731   0.646   1.504   3.051 -0.0593 -0.5826  0.9868
 3909TIP3   OH211732   0.704   4.495   0.304 -0.0765 -0.0879  0.0618
 3909TIP3    H111733   0.776   4.520   0.247  0.1086 -1.0893 -0.1726
 3909TIP3    H211734   0.649   4.573   0.311  1.2235  0.8098  0.5655
 3910TIP3   OH211735   1.851   0.548   2.445  0.0554  0.0595 -0.0006
 3910TIP3    H111736   1.890   0.611   2.384 -0.0125  0.0603 -0.0433
 3910TIP3    H211737   1.922   0.528   2.507 -0.3580  1.3205  0.9247
 3911TIP3   OH211738   5.881   4.758   3.280 -0.2555 -0.4228  0.4017
 3911TIP3    H111739   5.817   4.823   3.309 -0.7953 -1.0276  0.5965
 3911TIP3    H211740   5.961   4.780   3.328 -0.1319  0.7112 -0.3005
 3912TIP3   OH211741   3.833   1.836   0.738 -0.1261  0.0144  0.4208
 3912TIP3    H111742   3.822   1.762   0.678 -4.0499  1.7705 -1.3521
 3912TIP3    H211743   3.800   1.803   0.822 -0.2094 -0.7381  0.1056
 3913TIP3   OH211744   0.065   4.668   3.829 -0.3063 -0.5745  0.5315
 3913TIP3    H111745   0.089   4.577   3.809  2.5378 -0.0177  1.0243
 3913TIP3    H211746   0.125   4.720   3.776 -0.3281  0.9932  1.9851
 3914TIP3   OH211747   2.163   4.295   4.572 -0.4035 -0.7733  0.4270
 3914TIP3    H111748   2.196   4.383   4.558 -1.0176 -0.4790  0.7655
 3914TIP3    H211749   2.183   4.276   4.664  2.0507 -2.0168 -0.2715
 3915TIP3   OH211750   4.044   5.895   4.619  0.3802 -0.0611 -0.3837
 3915TIP3    H111751   4.043   5.976   4.670  0.3703  0.5724 -1.3658
 3915TIP3    H211752   4.055   5.826   4.684  1.7332  0.8101  0.3601
 3916TIP3   OH211753   4.927   4.658   2.612  0.9861 -0.1270 -0.8233
 3916TIP3    H111754   4.839   4.622   2.623  1.2213 -0.1503  1.4260
 3916TIP3    H211755   4.980   4.584   2.582  1.3485 -1.7498  3.2358
 3917TIP3   OH211756   0.922   3.627   1.415 -0.8619  0.7344 -0.0996
 3917TIP3    H111757   0.861   3.569   1.369 -0.6876  1.2849 -1.0621
 3917TIP3    H211758   0.997   3.573   1.436 -0.7424  0.5741 -0.9007
 3918TIP3   OH211759   3.818   3.366   2.471 -0.3691 -0.1324  0.0610
 3918TIP3    H111760   3.816   3.414   2.388 -1.2580 -1.3611 -0.6578
 3918TIP3    H211761   3.728   3.369   2.503 -0.3700 -1.0500  0.1548
 3919TIP3   OH211762   3.733   3.798   3.814  0.1254  0.4150  0.1203
 3919TIP3    H111763   3.725   3.847   3.733  1.9034 -1.3170 -1.2035
 3919TIP3    H211764   3.645   3.799   3.852 -1.6584 -1.4025 -3.4596
 3920TIP3   OH211765   4.141   2.265   3.362  0.0785  0.3750 -0.2160
 3920TIP3    H111766   4.109   2.352   3.337  1.9180  1.1941  0.1488
 3920TIP3    H211767   4.079   2.235   3.429 -0.1717  1.7241  0.1904
 3921TIP3   OH211768   2.024   5.861   0.991  0.0648 -0.1772 -0.4677
 3921TIP3    H111769   1.980   5.823   1.067  2.6578 -1.4311  0.5193
 3921TIP3    H211770   2.055   5.786   0.940  2.1523  0.5491 -0.3893
 3922TIP3   OH211771   0.912   2.979   4.647  0.1456  0.3023 -0.3638
 3922TIP3    H111772   0.981   2.985   4.714  0.6732  0.5216 -0.9169
 3922TIP3    H211773   0.836   3.022   4.687  0.4539  0.4288  0.0951
 3923TIP3   OH211774   0.686   0.395   4.626  0.5826 -0.7032  0.1056
 3923TIP3    H111775   0.661   0.311   4.664  1.5642 -1.5951 -1.1378
 3923TIP3    H211776   0.782   0.394   4.628  0.6027  0.8135  0.9459
 3924TIP3   OH211777   6.346   1.589   3.603 -0.0733 -0.0550 -0.1522
 3924TIP3    H111778   6.330   1.641   3.682 -0.2080 -0.1908 -0.0894
 3924TIP3    H211779   6.261   1.588   3.559 -0.3212 -1.0318  0.3297
 3925TIP3   OH211780   5.299   1.933   2.385 -0.1664 -0.1282 -0.8027
 3925TIP3    H111781   5.241   1.873   2.431 -0.5828 -0.0965 -1.2773
 3925TIP3    H211782   5.252   1.954   2.304 -0.1091  0.9974 -0.5485
 3926TIP3   OH211783   1.719   5.644   1.316  0.5530 -0.6474  0.1639
 3926TIP3    H111784   1.738   5.564   1.267  0.4986  0.0422 -1.0394
 3926TIP3    H211785   1.645   5.622   1.372 -0.9287 -0.8646 -1.7835
 3927TIP3   OH211786   1.483   1.647   2.393  0.2545  0.2277  0.0046
 3927TIP3    H111787   1.422   1.616   2.461 -1.0854  0.7431 -0.9356
 3927TIP3    H211788   1.519   1.727   2.429 -1.1304  0.9881 -0.2193
 3928TIP3   OH211789   4.334   3.397   1.947 -0.3824  0.3328  0.7505
 3928TIP3    H111790   4.299   3.364   2.030  1.4053 -1.3957  0.8989
 3928TIP3    H211791   4.359   3.487   1.966  0.3645 -0.1578  2.2310
 3929TIP3   OH211792   3.428   3.411   3.347 -0.0887 -0.2579 -0.2698
 3929TIP3    H111793   3.365   3.483   3.351  0.3786  0.1074  1.2780
 3929TIP3    H211794   3.395   3.346   3.409 -0.0135 -0.9621 -0.9595
 3930TIP3   OH211795   2.569   1.910   2.643 -0.1672 -0.3326 -0.1250
 3930TIP3    H111796   2.598   1.941   2.729  0.6070 -0.4131 -0.3510
 3930TIP3    H211797   2.495   1.966   2.621 -0.1971 -0.1337  0.4747
 3931TIP3   OH211798   2.988   3.544   0.011  0.7158  0.4173 -0.3536
 3931TIP3    H111799   3.023   3.630   0.035 -0.0470  0.8421 -0.7307
 3931TIP3    H211800   2.990   3.493   0.092  0.0026  1.1973  0.1730
 3932TIP3   OH211801   4.112   0.452   3.009  0.2436 -0.9665 -0.0628
 3932TIP3    H111802   4.173   0.462   3.082 -0.3905  0.1504  0.3294
 3932TIP3    H211803   4.027   0.435   3.050 -0.2975  0.5803 -0.4800
 3933TIP3   OH211804   0.188   3.341   3.649 -0.5490  0.5867  0.0677
 3933TIP3    H111805   0.108   3.392   3.641 -2.2222 -1.9126 -0.1206
 3933TIP3    H211806   0.217   3.355   3.739 -1.1798  1.4999  0.1354
 3934TIP3   OH211807   2.047   0.609   4.991  0.1695  0.0623 -0.3244
 3934TIP3    H111808   2.127   0.556   5.002  0.5219 -0.0732 -3.0118
 3934TIP3    H211809   1.979   0.545   4.970 -0.3447  0.3255  0.4923
 3935TIP3   OH211810   2.559   1.900   2.172 -0.4177  0.1859  0.2782
 3935TIP3    H111811   2.477   1.907   2.123 -0.7666 -0.2440  0.7866
 3935TIP3    H211812   2.544   1.953   2.250 -0.0004  0.5590  0.1126
 3936TIP3   OH211813   4.692   0.119   2.487 -0.1483 -0.2057  0.8285
 3936TIP3    H111814   4.679   0.058   2.415  1.4449 -0.8779  1.0511
 3936TIP3    H211815   4.787   0.130   2.492 -0.2414  0.1539  2.5364
 3937TIP3   OH211816   4.514   3.421   4.263 -0.1592 -0.0745 -0.0759
 3937TIP3    H111817   4.476   3.376   4.338 -0.0422 -0.3278 -0.1677
 3937TIP3    H211818   4.538   3.351   4.202 -0.0786  0.1173 -0.2679
 3938TIP3   OH211819   4.427   2.610   0.311 -0.1649  0.4904  0.0192
 3938TIP3    H111820   4.462   2.611   0.400  1.1973 -0.7968 -0.4740
 3938TIP3    H211821   4.346   2.661   0.317  0.2024  0.9307  1.8557
 3939TIP3   OH211822   1.360   2.722   4.967 -0.5229  0.4189  0.2165
 3939TIP3    H111823   1.292   2.712   5.034  0.5921 -0.1690  1.2959
 3939TIP3    H211824   1.400   2.635   4.961  0.6460  0.9448  0.1832
 3940TIP3   OH211825   2.220   4.531   3.124  0.7914 -0.6861  0.0860
 3940TIP3    H111826   2.256   4.585   3.195  0.5020 -0.6971  0.2410
 3940TIP3    H211827   2.203   4.447   3.166  1.5521 -1.0092 -0.2311
 3941TIP3   OH211828   0.083   5.482   3.667 -0.1437  0.5964  0.1907
 3941TIP3    H111829   0.127   5.438   3.740 -2.1216 -0.4959  0.7920
 3941TIP3    H211830   0.152   5.535   3.627  1.0209  1.2908  2.8591
 3942TIP3   OH211831   5.378   2.823   3.112  0.3679  0.1286 -0.0451
 3942TIP3    H111832   5.325   2.748   3.086  1.5186 -0.1406 -1.7415
 3942TIP3    H211833   5.379   2.881   3.036  2.1163  0.3236  0.0766
 3943TIP3   OH211834   5.624   4.413   1.002  0.0267  0.1509  0.0889
 3943TIP3    H111835   5.601   4.354   0.931 -0.6540  1.4166 -0.7894
 3943TIP3    H211836   5.552   4.476   1.006 -0.1768 -0.1245  2.1968
 3944TIP3   OH211837   0.216   5.814   3.183  0.1011 -0.6504 -0.1020
 3944TIP3    H111838   0.195   5.774   3.098  0.8370 -1.1776 -0.0414
 3944TIP3    H211839   0.183   5.903   3.175 -0.9591 -1.0495 -0.4892
 3945TIP3   OH211840   2.515   1.650   0.067 -0.2482  0.1324  0.6384
 3945TIP3    H111841   2.508   1.741   0.037 -1.7314 -0.2739 -0.3782
 3945TIP3    H211842   2.432   1.633   0.110  0.3382 -0.5193  1.5316
 3946TIP3   OH211843   0.705   5.747   0.673 -0.2975  0.2987  0.1475
 3946TIP3    H111844   0.772   5.705   0.620  1.0293  1.5249  0.7645
 3946TIP3    H211845   0.648   5.791   0.610 -1.2878 -1.7344 -0.4542
 3947TIP3   OH211846   5.900   3.511   1.975  0.0656 -0.5218  0.5320
 3947TIP3    H111847   5.804   3.522   1.978  0.0867 -0.0503 -0.3733
 3947TIP3    H211848   5.928   3.562   1.899  1.2753  1.0808  1.9516
 3948TIP3   OH211849   0.784   1.925   0.404  0.4276 -0.3320  0.4378
 3948TIP3    H111850   0.739   1.892   0.326 -0.7717 -0.8359  1.3047
 3948TIP3    H211851   0.854   1.862   0.419  1.5952  0.5534 -1.0317
 3949TIP3   OH211852   5.232   1.441   3.044 -0.9045 -1.0333 -0.1308
 3949TIP3    H111853   5.190   1.436   3.130  0.2009  1.2357  0.6003
 3949TIP3    H211854   5.169   1.400   2.984 -2.6426 -0.7514  1.4216
 3950TIP3   OH211855   2.197   5.959   0.206 -0.8665  0.6723 -0.1805
 3950TIP3    H111856   2.199   5.921   0.294 -0.5218 -0.7750 -0.7727
 3950TIP3    H211857   2.114   6.006   0.202 -1.0547  0.4455  0.7903
 3951TIP3   OH211858   6.155   3.833   4.382 -0.1241 -0.3556  0.3677
 3951TIP3    H111859   6.128   3.874   4.464 -0.4064  0.3763 -0.0846
 3951TIP3    H211860   6.227   3.886   4.350 -0.3994 -0.2839 -0.1535
 3952TIP3   OH211861   1.143   0.959   3.682  0.2599 -0.1435  0.2951
 3952TIP3    H111862   1.230   0.924   3.698  0.4693 -0.7379 -1.8231
 3952TIP3    H211863   1.150   1.052   3.705  1.6740 -0.0225 -0.4879
 3953TIP3   OH211864   5.428   0.469   5.186  0.2150  0.1315  0.1101
 3953TIP3    H111865   5.391   0.432   5.105  0.3534  0.1377  0.0431
 3953TIP3    H211866   5.517   0.494   5.162  0.5457 -0.6394  0.4893
 3954TIP3   OH211867   3.297   2.172   0.497 -0.5050  0.0956  0.2985
 3954TIP3    H111868   3.326   2.246   0.551  0.6680 -1.4628  1.9233
 3954TIP3    H211869   3.228   2.131   0.549  0.6229 -1.4140  0.6706
 3955TIP3   OH211870   3.389   0.093   3.219 -0.3107 -0.0152  0.7258
 3955TIP3    H111871   3.442   0.160   3.177 -1.4688  0.5181  0.0629
 3955TIP3    H211872   3.320   0.073   3.156 -1.3970 -0.0689  1.8784
 3956TIP3   OH211873   4.110   1.538   3.153 -0.5202  0.5936  0.2144
 3956TIP3    H111874   4.134   1.614   3.100  0.4303 -1.3441 -2.3649
 3956TIP3    H211875   4.019   1.519   3.129 -0.5594  0.5501  0.3931
 3957TIP3   OH211876   5.741   5.675   0.295 -0.0933  0.1240  0.0309
 3957TIP3    H111877   5.713   5.596   0.341 -0.5470  0.5177  0.4409
 3957TIP3    H211878   5.834   5.683   0.315 -0.6313  1.2737  2.4214
 3958TIP3   OH211879   2.763   3.726   1.190 -0.0984  0.1952 -0.1398
 3958TIP3    H111880   2.788   3.705   1.100 -0.1761 -0.9735  0.0985
 3958TIP3    H211881   2.836   3.778   1.223  0.3789 -0.1846 -0.5770
 3959TIP3   OH211882   4.080   4.212   2.922 -0.8721 -0.2069  0.0794
 3959TIP3    H111883   3.997   4.165   2.929 -0.2629 -1.0488  3.2806
 3959TIP3    H211884   4.058   4.303   2.940 -1.2761 -0.1290 -0.7299
 3960TIP3   OH211885   6.227   1.823   4.997  0.3311 -0.4639 -0.7284
 3960TIP3    H111886   6.283   1.754   4.963 -0.4195 -1.4726  0.0247
 3960TIP3    H211887   6.190   1.787   5.078  0.7099  1.2012  0.2390
 3961TIP3   OH211888   0.189   4.134   0.512 -0.0164 -0.3931 -0.0253
 3961TIP3    H111889   0.279   4.146   0.544 -0.8969 -2.6854  4.0448
 3961TIP3    H211890   0.161   4.222   0.487  2.8089  0.6908  0.1862
 3962TIP3   OH211891   5.667   5.175   2.071  0.8512 -0.1894  0.2742
 3962TIP3    H111892   5.724   5.099   2.080 -0.3051 -0.8891  2.2541
 3962TIP3    H211893   5.605   5.168   2.143 -0.6878  1.4536 -0.7838
 3963TIP3   OH211894   3.454   5.399   1.473  0.4656 -0.9389  0.4187
 3963TIP3    H111895   3.442   5.324   1.415 -2.9035  0.1477 -0.5000
 3963TIP3    H211896   3.402   5.378   1.551 -0.9168  0.5618 -0.0445
 3964TIP3   OH211897   2.662   0.605   4.564 -0.3059 -0.3246 -0.3900
 3964TIP3    H111898   2.591   0.655   4.605  0.1511 -1.4544  1.9471
 3964TIP3    H211899   2.741   0.636   4.608  0.2258 -1.5138 -0.4823
 3965TIP3   OH211900   1.298   5.534   3.849  0.3766  0.2254  0.3257
 3965TIP3    H111901   1.204   5.549   3.851  0.5270  1.2233  2.1500
 3965TIP3    H211902   1.308   5.444   3.818 -1.2400 -0.3062  1.2376
 3966TIP3   OH211903   5.216   4.714   2.437 -0.0184 -0.5472  0.2067
 3966TIP3    H111904   5.279   4.668   2.492  1.4911  1.1016 -0.0651
 3966TIP3    H211905   5.172   4.775   2.497  0.3776  0.0069 -0.0609
 3967TIP3   OH211906   2.091   2.082   0.976 -0.7387  0.2197 -0.6391
 3967TIP3    H111907   2.068   2.063   1.067  0.4611 -1.5562 -0.6668
 3967TIP3    H211908   2.119   1.998   0.940  2.1160  1.4882 -1.6419
 3968TIP3   OH211909   1.498   4.251   2.397 -0.4828  0.4888  0.5923
 3968TIP3    H111910   1.495   4.235   2.491 -1.3695 -2.0228  0.1960
 3968TIP3    H211911   1.561   4.323   2.387 -1.0736  1.4619  3.1462
 3969TIP3   OH211912   1.641   0.602   0.065  0.0937 -0.7024  0.4270
 3969TIP3    H111913   1.579   0.542   0.105 -0.5931 -0.6170 -0.4819
 3969TIP3    H211914   1.629   0.591  -0.029  1.8372 -1.0687  0.2152
 3970TIP3   OH211915   2.968   3.257   2.945  0.2094  0.5275  0.3652
 3970TIP3    H111916   2.995   3.200   2.873  1.7268  0.6534  0.7841
 3970TIP3    H211917   2.892   3.213   2.984  0.1501 -0.1889 -0.5283
 3971TIP3   OH211918   2.421   5.238   4.077  0.1053 -0.5038  0.2651
 3971TIP3    H111919   2.360   5.243   4.151  0.5759  2.2012  0.5793
 3971TIP3    H211920   2.370   5.271   4.002  0.5896 -0.0961  0.1090
 3972TIP3   OH211921   1.983   0.380   1.223 -0.2099 -0.1191  0.0613
 3972TIP3    H111922   1.983   0.284   1.227 -0.3221 -0.0949  2.8465
 3972TIP3    H211923   2.059   0.406   1.275  0.5115  1.3394 -1.6325
 3973TIP3   OH211924   1.318   3.925   2.213  0.5397  0.0059  0.1118
 3973TIP3    H111925   1.321   3.955   2.304  2.9541  1.5402 -0.3859
 3973TIP3    H211926   1.236   3.960   2.179  1.6013  3.3332  0.5574
 3974TIP3   OH211927   2.279   1.037   4.913  0.2426 -0.0707 -0.0547
 3974TIP3    H111928   2.188   1.048   4.884  0.2033  0.9362  0.3860
 3974TIP3    H211929   2.288   1.100   4.985  0.6316 -1.7433  1.4153
 3975TIP3   OH211930   2.577   5.239   2.244 -0.3252 -0.1737 -0.2718
 3975TIP3    H111931   2.585   5.235   2.149 -0.1699 -0.7302 -0.2392
 3975TIP3    H211932   2.513   5.170   2.266  0.2639 -0.6142  0.0928
 3976TIP3   OH211933   5.661   5.115   3.108 -0.9052  0.1406  0.1823
 3976TIP3    H111934   5.669   5.190   3.166 -0.1931  0.5964 -0.4894
 3976TIP3    H211935   5.672   5.039   3.166 -1.4614  0.5444  0.8352
 3977TIP3   OH211936   4.384   5.327   1.920  0.4271  0.4645 -0.2416
 3977TIP3    H111937   4.343   5.265   1.860  0.1947  0.1733  0.2108
 3977TIP3    H211938   4.393   5.278   2.002  0.0702  1.0919  0.1783
 3978TIP3   OH211939   4.538   3.955   1.522 -0.3253  0.0897  0.1341
 3978TIP3    H111940   4.605   4.019   1.547 -1.0612  1.2781 -0.8357
 3978TIP3    H211941   4.465   3.973   1.581 -0.4688  0.0163 -0.0222
 3979TIP3   OH211942   4.256   0.223   2.977 -0.4728  0.4286  0.2078
 3979TIP3    H111943   4.203   0.303   2.983 -1.0345  0.0869 -0.0387
 3979TIP3    H211944   4.346   0.254   2.967 -0.6497  1.0280  0.4312
 3980TIP3   OH211945   5.378   5.075   3.285 -0.5625 -0.3284  0.3787
 3980TIP3    H111946   5.287   5.101   3.273 -0.8150 -0.6487  1.4940
 3980TIP3    H211947   5.420   5.096   3.201 -1.1762  1.8457  0.5512
 3981TIP3   OH211948   5.398   4.682   2.740  0.0336 -0.2793 -0.2467
 3981TIP3    H111949   5.351   4.604   2.770 -0.1110 -1.0040 -2.2116
 3981TIP3    H211950   5.488   4.668   2.770 -0.3982 -0.1380  1.2438
 3982TIP3   OH211951   3.078   2.975   0.591  0.0091 -0.1335  0.0025
 3982TIP3    H111952   3.061   2.926   0.672 -0.1528 -0.3927 -0.1876
 3982TIP3    H211953   3.138   3.044   0.618  0.6312 -0.7291  0.1872
 3983TIP3   OH211954   1.595   0.521   2.569 -0.2843 -0.5232 -0.3168
 3983TIP3    H111955   1.684   0.540   2.540 -0.5323  1.0585 -0.1084
 3983TIP3    H211956   1.584   0.428   2.550  1.7273 -1.0001  0.5172
 3984TIP3   OH211957   5.210   4.241   4.664  0.6011  0.1159 -0.1928
 3984TIP3    H111958   5.260   4.273   4.589  1.7750 -0.1570  0.4343
 3984TIP3    H211959   5.275   4.236   4.735 -0.1260 -1.1150  0.4186
 3985TIP3   OH211960   5.183   3.522   2.184 -0.0503 -0.8298 -0.1933
 3985TIP3    H111961   5.227   3.483   2.109  0.5292  0.6442 -0.6506
 3985TIP3    H211962   5.217   3.474   2.259  0.7557 -1.1131 -0.7235
 3986TIP3   OH211963   1.821   5.482   0.719 -0.3443 -0.6869 -0.6949
 3986TIP3    H111964   1.765   5.497   0.642  0.1734  0.1374 -0.9147
 3986TIP3    H211965   1.781   5.406   0.762 -1.5011 -0.2586 -0.9689
 3987TIP3   OH211966   1.323   0.121   5.116  0.2268  0.2293 -0.1902
 3987TIP3    H111967   1.398   0.147   5.063  1.1644  1.9939  1.8277
 3987TIP3    H211968   1.247   0.161   5.073  0.7280  0.2182 -1.1003
 3988TIP3   OH211969   1.273   0.237   1.978 -0.0439 -0.0977  0.6745
 3988TIP3    H111970   1.252   0.230   2.071 -0.3681 -1.8283  0.5053
 3988TIP3    H211971   1.355   0.188   1.969  0.2235  0.4484  0.1213
 3989TIP3   OH211972   0.054   0.064   1.567 -0.0877 -0.0930  0.0033
 3989TIP3    H111973   0.034   0.020   1.484 -0.6349  1.2831 -0.6189
 3989TIP3    H211974   0.025   0.002   1.634  0.5844 -1.3362 -0.7976
 3990TIP3   OH211975   2.083   1.545   3.165 -1.0097  0.6802 -0.0852
 3990TIP3    H111976   2.102   1.505   3.249 -0.2107  1.3437  0.0598
 3990TIP3    H211977   2.124   1.487   3.101  1.4719  1.9966  0.2112
 3991TIP3   OH211978   5.598   5.918   1.789 -0.2707  0.1396 -0.2257
 3991TIP3    H111979   5.671   5.889   1.734 -1.0238 -1.8825 -0.2445
 3991TIP3    H211980   5.632   5.915   1.878 -0.2263 -0.5078 -0.2598
 3992TIP3   OH211981   2.182   1.969   4.111  0.1925 -0.7194 -0.3108
 3992TIP3    H111982   2.149   2.006   4.030 -0.9946 -0.3707  0.3204
 3992TIP3    H211983   2.238   2.037   4.149 -1.7852  0.3943  0.7254
 3993TIP3   OH211984   1.316   1.596   4.790 -0.1459  0.6303  0.7818
 3993TIP3    H111985   1.364   1.659   4.736 -1.0223  1.2280  0.6813
 3993TIP3    H211986   1.381   1.530   4.812  0.1229  0.0785 -1.4174
 3994TIP3   OH211987   5.342   5.440   4.561  0.5012  0.6769 -0.1828
 3994TIP3    H111988   5.295   5.399   4.488  1.8291  1.8642 -1.7710
 3994TIP3    H211989   5.274   5.476   4.617 -0.5256  1.6445 -1.9977
 3995TIP3   OH211990   2.379   0.327   4.767 -0.0227  0.3567  0.2086
 3995TIP3    H111991   2.446   0.395   4.772 -0.5442  0.9124 -0.1280
 3995TIP3    H211992   2.369   0.311   4.673 -1.3952  1.3569  0.1510
 3996TIP3   OH211993   3.057   2.555   2.037 -0.0086  0.0110 -0.0132
 3996TIP3    H111994   3.063   2.505   2.118  0.1677  0.7157  0.4104
 3996TIP3    H211995   3.147   2.576   2.015 -0.1208  0.6826  0.1516
 3997TIP3   OH211996   4.077   3.530   1.743 -0.0731  0.0853  0.0265
 3997TIP3    H111997   4.058   3.622   1.760 -0.7650  0.5770 -2.8378
 3997TIP3    H211998   4.017   3.482   1.801  0.9659  1.3304  2.2737
 3998TIP3   OH211999   4.865   5.746   1.914  0.1389  0.2110  0.1682
 3998TIP3    H112000   4.959   5.741   1.928 -0.2107 -1.4005  2.5231
 3998TIP3    H212001   4.836   5.655   1.910 -1.4355  0.6709  0.4381
 3999TIP3   OH212002   1.869   2.906   1.371 -0.1513 -0.0751 -0.0882
 3999TIP3    H112003   1.908   2.830   1.328 -0.4063 -0.7513  0.8406
 3999TIP3    H212004   1.939   2.941   1.426  0.8581  2.0396 -2.4849
 4000TIP3   OH212005   3.593   2.692   4.160 -0.4246  0.3136 -0.2017
 4000TIP3    H112006   3.610   2.773   4.208  1.1845 -0.4494  0.5914
 4000TIP3    H212007   3.647   2.699   4.082  1.0832 -0.7003  0.7070
 4001TIP3   OH212008   4.152   3.363   3.282 -0.3252  0.1717  0.5648
 4001TIP3    H112009   4.115   3.298   3.342  1.7067  0.7839  2.6056
 4001TIP3    H212010   4.221   3.316   3.235 -0.5852  0.2095  0.1391
 4002TIP3   OH212011   4.318   5.364   1.320 -0.3802  0.1247  0.4471
 4002TIP3    H112012   4.411   5.359   1.297 -0.7763  0.2921 -1.3338
 4002TIP3    H212013   4.307   5.452   1.356  0.2184 -0.0410  1.0570
 4003TIP3   OH212014   2.421   4.314   0.613 -0.3998  0.1592 -0.3012
 4003TIP3    H112015   2.415   4.383   0.547 -2.0427  0.9165  0.5859
 4003TIP3    H212016   2.436   4.361   0.695  0.2683 -0.6705  0.0583
 4004TIP3   OH212017   2.215   5.397   0.879 -0.3512 -0.3690  0.1430
 4004TIP3    H112018   2.286   5.367   0.822  1.0499 -0.9934  2.0872
 4004TIP3    H212019   2.161   5.320   0.893 -0.7891 -0.1751 -0.4299
 4005TIP3   OH212020   1.335   5.866   0.829 -0.8585  0.0789 -0.2963
 4005TIP3    H112021   1.381   5.783   0.814  1.4852  1.1790  0.3483
 4005TIP3    H212022   1.309   5.862   0.921 -0.6215  0.0996 -0.2270
 4006TIP3   OH212023   5.717   4.341   2.117 -0.0051  0.0771 -0.1774
 4006TIP3    H112024   5.660   4.279   2.070  0.1047  0.9245 -1.4881
 4006TIP3    H212025   5.669   4.424   2.113 -0.0137  0.1631  1.3027
 4007TIP3   OH212026   2.589   5.497   1.804  0.3330 -0.3699  0.1063
 4007TIP3    H112027   2.631   5.513   1.719 -1.5284  2.6626 -0.3952
 4007TIP3    H212028   2.507   5.454   1.782 -0.0084  0.1331  0.3770
 4008TIP3   OH212029   5.185   5.306   0.098  0.0165 -0.2596 -0.2019
 4008TIP3    H112030   5.151   5.267   0.017  1.3926  0.5326 -1.1995
 4008TIP3    H212031   5.251   5.368   0.068  0.0453  0.5734  1.5156
 4009TIP3   OH212032   2.214   3.564   4.951  0.0444 -0.5976  0.2275
 4009TIP3    H112033   2.305   3.593   4.944 -0.7634  1.9260 -1.2072
 4009TIP3    H212034   2.191   3.580   5.043  0.7396 -0.1611  0.3372
 4010TIP3   OH212035   0.261   2.460   1.815 -0.6934 -0.1557  0.3529
 4010TIP3    H112036   0.231   2.428   1.731 -1.7538 -0.2210  0.7417
 4010TIP3    H212037   0.278   2.381   1.867  0.2035 -0.1201  0.1253
 4011TIP3   OH212038   5.183   0.657   1.331  0.4301 -0.6899  0.0223
 4011TIP3    H112039   5.272   0.663   1.366  0.3145 -1.8017  0.5750
 4011TIP3    H212040   5.193   0.670   1.237  0.9419  0.8970  0.2601
 4012TIP3   OH212041   2.553   2.010   1.829  0.4668  0.1651  0.3125
 4012TIP3    H112042   2.459   2.028   1.824  0.2252 -1.0879  0.1433
 4012TIP3    H212043   2.588   2.079   1.886 -0.4448  1.0207 -0.1471
 4013TIP3   OH212044   1.296   5.057   0.480 -0.0840 -0.7691  0.3113
 4013TIP3    H112045   1.308   5.151   0.469  2.1717 -0.9386  0.9811
 4013TIP3    H212046   1.233   5.050   0.552  1.1484  0.2613  1.5521
 4014TIP3   OH212047   1.145   1.304   4.033  0.4547  1.0111  0.0862
 4014TIP3    H112048   1.212   1.368   4.008  0.7082  0.5631 -0.3951
 4014TIP3    H212049   1.063   1.342   4.002  0.1193  2.6853  2.6836
 4015TIP3   OH212050   1.783   2.808   0.682 -0.8903 -0.2970 -0.2560
 4015TIP3    H112051   1.825   2.755   0.750 -0.7323 -0.9538 -0.8441
 4015TIP3    H212052   1.703   2.760   0.662 -1.0566  0.0257 -0.3527
 4016TIP3   OH212053   2.870   4.313   4.784 -0.7125  0.2727 -0.7419
 4016TIP3    H112054   2.829   4.381   4.732  0.8530  3.0022  1.3096
 4016TIP3    H212055   2.858   4.341   4.875 -0.0347 -2.2505  0.2155
 4017TIP3   OH212056   4.885   4.172   1.856  0.0733  0.2418 -0.5223
 4017TIP3    H112057   4.837   4.241   1.810  1.6312  0.3572 -2.0812
 4017TIP3    H212058   4.953   4.218   1.905 -0.8141  0.0136  0.9789
 4018TIP3   OH212059   4.137   5.238   0.952  0.6183  0.7612 -0.1540
 4018TIP3    H112060   4.092   5.277   0.877  0.0541  0.1676 -0.1382
 4018TIP3    H212061   4.069   5.233   1.020  0.8801  0.4411  0.0831
 4019TIP3   OH212062   6.201   4.623   1.943 -0.4634  0.4157  0.2294
 4019TIP3    H112063   6.285   4.577   1.941 -0.4417  0.4663 -0.5069
 4019TIP3    H212064   6.148   4.574   2.005 -0.0764  0.0394  0.2680
 4020TIP3   OH212065   4.618   5.549   5.083 -0.2438 -0.0521  0.1349
 4020TIP3    H112066   4.675   5.569   5.158  2.7707 -0.4993 -1.8381
 4020TIP3    H212067   4.627   5.455   5.070 -1.2318 -0.0842 -0.4059
 4021TIP3   OH212068   3.290   1.931   3.850 -0.1955 -0.2025 -0.2550
 4021TIP3    H112069   3.383   1.922   3.832  0.2824  1.1901  1.3141
 4021TIP3    H212070   3.267   1.854   3.902 -0.3971 -1.4950 -2.1396
 4022TIP3   OH212071   3.668   0.854   4.688 -0.1187  0.3124  0.1227
 4022TIP3    H112072   3.714   0.811   4.760  0.2246  2.2738  1.1456
 4022TIP3    H212073   3.575   0.849   4.712 -0.3115 -1.7526 -0.8795
 4023TIP3   OH212074   5.270   0.708   3.153  0.1216  0.0733 -0.2295
 4023TIP3    H112075   5.176   0.698   3.140 -0.1593  0.6459  1.1880
 4023TIP3    H212076   5.295   0.782   3.097 -0.0379 -0.7772 -1.4613
 4024TIP3   OH212077   5.094   2.091   1.692  0.0235 -0.1769  0.4480
 4024TIP3    H112078   5.182   2.061   1.713  0.0056 -0.1273  0.6028
 4024TIP3    H212079   5.064   2.134   1.773 -0.1966 -0.3227  0.4445
 4025TIP3   OH212080   6.030   5.819   4.915 -0.3720 -0.3074  0.2539
 4025TIP3    H112081   6.113   5.800   4.871  0.1371 -0.3958  1.2250
 4025TIP3    H212082   5.964   5.772   4.863  0.3363 -1.1890  0.1313
 4026TIP3   OH212083   3.276   1.759   4.068 -0.6491 -0.2642 -0.4172
 4026TIP3    H112084   3.258   1.677   4.114 -1.9629  0.3454  0.2357
 4026TIP3    H212085   3.235   1.826   4.122  0.2207  0.8143 -1.0418
 4027TIP3   OH212086   1.988   4.892   2.810  0.3574 -0.5524  0.1772
 4027TIP3    H112087   1.926   4.906   2.738 -0.1138 -0.8912  0.5157
 4027TIP3    H212088   1.934   4.864   2.884  0.9695 -1.4822  0.2919
 4028TIP3   OH212089   2.364   2.838   1.489 -0.5550  0.7131  0.3869
 4028TIP3    H112090   2.391   2.883   1.569 -0.2437  0.8082  0.2275
 4028TIP3    H212091   2.383   2.900   1.419  0.2960  0.1620  0.1176
 4029TIP3   OH212092   1.940   1.953   4.469  0.7044  0.2026  0.4004
 4029TIP3    H112093   1.932   2.021   4.536 -0.1440  0.2050  0.2997
 4029TIP3    H212094   1.929   2.000   4.386 -1.3304 -0.2474  0.3730
 4030TIP3   OH212095   4.677   0.448   1.157 -0.3019 -0.4898 -0.2712
 4030TIP3    H112096   4.616   0.380   1.184  0.0948 -1.1973 -1.1077
 4030TIP3    H212097   4.646   0.475   1.070 -0.1773  0.0591 -0.1498
 4031TIP3   OH212098   4.987   2.204   1.931  0.4250  0.2175  0.0208
 4031TIP3    H112099   5.051   2.274   1.944 -0.0375  0.6579 -0.0661
 4031TIP3    H212100   4.905   2.240   1.963 -0.0250  0.0713 -0.9604
 4032TIP3   OH212101   1.051   3.858   0.934 -0.2224  0.6628 -0.2729
 4032TIP3    H112102   1.085   3.778   0.974  1.5750  1.2339 -0.5595
 4032TIP3    H212103   0.984   3.888   0.995 -1.7185 -1.5864 -0.6672
 4033TIP3   OH212104   0.603   5.528   0.283  0.0652  0.0379 -0.3642
 4033TIP3    H112105   0.549   5.598   0.321 -0.2998 -0.3841 -0.0903
 4033TIP3    H212106   0.687   5.570   0.265  0.1303  0.3439  0.5861
 4034TIP3   OH212107   0.634   3.403   1.457  0.0278  0.4985  0.4145
 4034TIP3    H112108   0.540   3.419   1.451  0.0382  0.6117  0.5579
 4034TIP3    H212109   0.653   3.409   1.550  0.1386  0.2632  0.4074
 4035TIP3   OH212110   2.232   1.181   0.076  0.3223 -0.4669 -0.0454
 4035TIP3    H112111   2.293   1.207   0.007  2.2454  1.3419  2.1563
 4035TIP3    H212112   2.211   1.263   0.121  1.0757 -1.7895  2.9786
 4036TIP3   OH212113   2.548   5.652   0.660 -0.1803 -0.4113  0.2111
 4036TIP3    H112114   2.593   5.717   0.607 -0.0251 -0.5962  0.1113
 4036TIP3    H212115   2.474   5.698   0.699  0.4592  0.0711  0.8910
 4037TIP3   OH212116   3.041   5.178   0.105 -0.0574  0.2663  0.0597
 4037TIP3    H112117   3.095   5.238   0.053 -1.1438  1.0237 -0.2365
 4037TIP3    H212118   3.064   5.091   0.073 -0.5775  0.7022 -1.6155
 4038TIP3   OH212119   0.333   3.470   4.942 -0.1901  0.1647  0.1813
 4038TIP3    H112120   0.377   3.535   4.888  0.1915 -0.4081 -0.2062
 4038TIP3    H212121   0.398   3.402   4.957 -0.7150 -0.3506  0.1951
 4039TIP3   OH212122   4.672   4.829   2.462 -0.0186 -0.3460 -0.0060
 4039TIP3    H112123   4.661   4.852   2.555 -0.3243  0.9234 -0.3280
 4039TIP3    H212124   4.605   4.763   2.446  1.8542 -2.7242  1.3272
 4040TIP3   OH212125   3.592   5.089   0.266 -0.4052 -0.1831 -0.8347
 4040TIP3    H112126   3.639   5.018   0.223  0.9925  0.8361 -1.0622
 4040TIP3    H212127   3.574   5.152   0.196 -0.0442  0.4841 -0.3415
 4041TIP3   OH212128   4.637   5.034   3.901  0.1971 -0.4347  0.0903
 4041TIP3    H112129   4.566   5.096   3.918  2.1463  2.0776 -0.4663
 4041TIP3    H212130   4.672   5.013   3.987  0.8753  0.9494  0.1671
 4042TIP3   OH212131   0.738   4.097   4.643  0.0019  0.1896 -0.2274
 4042TIP3    H112132   0.749   4.184   4.604 -1.9561  1.0379  0.9682
 4042TIP3    H212133   0.681   4.050   4.583  1.3925 -0.4837 -1.0881
 4043TIP3   OH212134   4.236   0.794   0.481  0.8457 -0.0452  0.4201
 4043TIP3    H112135   4.200   0.771   0.395 -0.6087  1.2081  0.6474
 4043TIP3    H212136   4.328   0.814   0.464  0.4167  0.8590 -1.0029
 4044TIP3   OH212137   0.057   1.554   0.687 -0.2177  0.0772  0.7769
 4044TIP3    H112138   0.093   1.641   0.671 -1.0551  0.2994  0.0134
 4044TIP3    H212139   0.030   1.556   0.779  0.3403  0.4108  0.9360
 4045TIP3   OH212140   2.319   0.283   1.901 -0.0842 -0.2508 -0.0701
 4045TIP3    H112141   2.309   0.205   1.846  1.1816 -0.9359  0.6139
 4045TIP3    H212142   2.382   0.338   1.854 -1.0840  0.4606 -0.6224
 4046TIP3   OH212143   5.833   2.502   3.176  0.2129  0.1313  0.3195
 4046TIP3    H112144   5.926   2.480   3.182 -0.2180 -1.5384  1.9210
 4046TIP3    H212145   5.810   2.534   3.263 -0.9863 -0.8122  0.3744
 4047TIP3   OH212146   3.325   3.079   2.827 -0.0750  0.1847 -0.0920
 4047TIP3    H112147   3.344   3.041   2.742  0.8289  0.9785 -0.2653
 4047TIP3    H212148   3.411   3.104   2.862 -0.5229  0.8065  0.5964
 4048TIP3   OH212149   0.859   5.894   3.606 -0.1217 -0.6442 -0.4379
 4048TIP3    H112150   0.895   5.883   3.694 -0.9401 -0.6891 -0.0996
 4048TIP3    H212151   0.767   5.919   3.621 -0.7410 -2.2909 -1.2799
 4049TIP3   OH212152   3.009   3.389   4.056  0.7562  0.0475 -0.4672
 4049TIP3    H112153   2.966   3.465   4.015 -1.9974 -0.4420  1.2665
 4049TIP3    H212154   3.024   3.328   3.984  1.5209  1.5420 -1.6293
 4050TIP3   OH212155   2.220   5.081   2.267 -0.3232 -0.0910 -0.0472
 4050TIP3    H112156   2.214   5.172   2.240 -0.0677 -0.5141 -1.5999
 4050TIP3    H212157   2.308   5.054   2.240  0.4222 -0.2355  2.2975
 4051TIP3   OH212158   5.147   1.988   0.008 -0.8526  0.0022  0.6974
 4051TIP3    H112159   5.154   1.896  -0.016 -0.0377  0.0975  0.5339
 4051TIP3    H212160   5.103   1.988   0.093  1.4171 -0.7249  1.9499
 4052TIP3   OH212161   1.301   3.882   4.306  0.6116  0.1390 -0.5248
 4052TIP3    H112162   1.260   3.936   4.374  2.3912  1.1079 -0.1592
 4052TIP3    H212163   1.312   3.942   4.232 -0.7002 -0.7335 -1.4983
 4053TIP3   OH212164   6.162   3.680   1.543  0.3466  0.0614 -0.0383
 4053TIP3    H112165   6.117   3.602   1.577 -0.6695  0.9946  0.8435
 4053TIP3    H212166   6.229   3.699   1.608  0.7147 -0.1632 -0.3452
 4054TIP3   OH212167   0.110   2.132   3.200 -0.1133  0.1336  0.5180
 4054TIP3    H112168   0.018   2.130   3.226  0.2026 -0.0422  1.6822
 4054TIP3    H212169   0.128   2.045   3.166  0.5251 -1.1020  3.7035
 4055TIP3   OH212170   3.215   4.232   3.112  0.1931 -0.1413  0.2426
 4055TIP3    H112171   3.144   4.168   3.113 -0.1896  0.2236 -1.0785
 4055TIP3    H212172   3.226   4.256   3.204 -0.7395 -0.9194  0.5827
 4056TIP3   OH212173   0.668   2.430   4.930 -0.5660  0.3227  0.1468
 4056TIP3    H112174   0.615   2.508   4.946 -0.4748  1.0775 -2.6464
 4056TIP3    H212175   0.756   2.454   4.960 -1.1115  0.1629  2.0048
 4057TIP3   OH212176   2.150   4.468   4.178 -0.1611  0.2807  0.1527
 4057TIP3    H112177   2.212   4.397   4.162  0.1996 -0.1176  2.8041
 4057TIP3    H212178   2.077   4.450   4.119  1.3903 -0.3155 -1.6870
 4058TIP3   OH212179   2.068   5.930   4.653 -0.6219 -0.2553  0.0924
 4058TIP3    H112180   2.006   5.935   4.580 -0.7468 -1.4086  0.1043
 4058TIP3    H212181   2.013   5.937   4.731 -0.3732  2.3098  0.1328
 4059TIP3   OH212182   5.230   0.895   3.731  0.0290 -0.5225 -0.2532
 4059TIP3    H112183   5.184   0.859   3.807  0.9845 -0.5159  0.3337
 4059TIP3    H212184   5.308   0.840   3.721  0.3595  0.0119 -0.7024
 4060TIP3   OH212185   5.583   4.988   0.570  0.0033  0.3785 -0.4461
 4060TIP3    H112186   5.656   4.944   0.526  0.8547  2.9483 -1.8446
 4060TIP3    H212187   5.506   4.964   0.519  0.1301 -0.9941 -0.0082
 4061TIP3   OH212188   6.274   3.267   2.649  0.0004  0.0869  0.1548
 4061TIP3    H112189   6.288   3.341   2.707  0.9083 -0.2912  0.4436
 4061TIP3    H212190   6.185   3.237   2.668 -0.4427  1.2146 -0.1072
 4062TIP3   OH212191   1.422   0.731   3.621 -0.4871 -0.2498 -0.2697
 4062TIP3    H112192   1.464   0.772   3.546 -0.5874 -2.1723 -1.4484
 4062TIP3    H212193   1.417   0.638   3.598 -0.7611 -0.8676  2.0059
 4063TIP3   OH212194   1.521   0.788   0.384  0.0989 -0.4247  1.3164
 4063TIP3    H112195   1.551   0.819   0.470  2.2895 -0.3226  0.5762
 4063TIP3    H212196   1.600   0.787   0.330 -1.4345  0.9148 -1.1371
 4064TIP3   OH212197   3.497   2.144   4.794  0.3069 -0.5538 -0.3514
 4064TIP3    H112198   3.585   2.151   4.832  0.1506 -1.8074  0.2999
 4064TIP3    H212199   3.500   2.066   4.739 -0.3928 -0.6090 -0.3277
 4065TIP3   OH212200   1.967   4.643   0.959  0.0587 -0.0321  0.0204
 4065TIP3    H112201   2.032   4.574   0.945 -1.4353 -1.3383 -0.8150
 4065TIP3    H212202   1.886   4.607   0.923 -0.7416  2.2674 -0.6567
 4066TIP3   OH212203   1.362   2.445   4.984 -0.2049  0.1866 -0.6751
 4066TIP3    H112204   1.288   2.450   4.922 -0.0999 -0.9153 -0.9218
 4066TIP3    H212205   1.414   2.371   4.952  0.1823 -0.0116  0.3826
 4067TIP3   OH212206   3.167   1.354   4.037  0.3929  0.1462  0.0204
 4067TIP3    H112207   3.123   1.300   4.103  0.1139 -0.7897 -0.9056
 4067TIP3    H212208   3.179   1.439   4.080 -1.5989  0.1910  0.6101
 4068TIP3   OH212209   5.643   4.296   2.415  0.1247 -0.3964 -0.2994
 4068TIP3    H112210   5.658   4.351   2.339 -0.5645 -0.7847 -0.7211
 4068TIP3    H212211   5.720   4.310   2.470 -0.0418  0.9820 -0.3893
 4069TIP3   OH212212   0.414   2.025   4.823  0.0324  0.7935 -0.1241
 4069TIP3    H112213   0.462   1.943   4.830 -1.0607  0.1907  0.8096
 4069TIP3    H212214   0.472   2.091   4.860  0.3144  0.1498  0.6172
 4070TIP3   OH212215   2.250   4.556   1.796  0.0377  0.1169  0.2933
 4070TIP3    H112216   2.238   4.633   1.741 -1.9033 -0.3515 -0.0142
 4070TIP3    H212217   2.305   4.586   1.868  2.1357  0.9099 -1.5200
 4071TIP3   OH212218   2.712   1.336   0.245  0.1322  0.4334 -0.2033
 4071TIP3    H112219   2.798   1.364   0.276  0.2181 -2.0468  2.1571
 4071TIP3    H212220   2.731   1.283   0.167  1.0211 -1.4573  1.2126
 4072TIP3   OH212221   1.635   4.444   1.042  0.2983 -0.5134 -0.3829
 4072TIP3    H112222   1.730   4.441   1.047  0.3720 -0.6431 -1.7409
 4072TIP3    H212223   1.606   4.367   1.091  0.8588 -0.2308  0.4229
 4073TIP3   OH212224   1.311   2.035   2.810 -0.3497  0.0931  0.5017
 4073TIP3    H112225   1.349   1.979   2.878 -0.4769  0.0714  0.5543
 4073TIP3    H212226   1.232   2.072   2.849 -0.8995 -0.5978  0.0739
 4074TIP3   OH212227   2.511   3.778   3.649  0.6167 -0.6026 -0.4110
 4074TIP3    H112228   2.541   3.854   3.700  2.9032 -1.2855 -0.6117
 4074TIP3    H212229   2.523   3.804   3.558 -2.2117  0.1265 -0.6499
 4075TIP3   OH212230   5.832   3.186   4.276 -0.0284 -0.2582  0.4467
 4075TIP3    H112231   5.817   3.280   4.275 -0.4247 -0.3109  0.8300
 4075TIP3    H212232   5.918   3.176   4.316 -0.3073 -0.0835  1.1188
 4076TIP3   OH212233   4.200   0.309   3.453 -0.4705 -0.1352 -0.0332
 4076TIP3    H112234   4.218   0.336   3.363  1.4424  0.4317  0.4816
 4076TIP3    H212235   4.146   0.379   3.489 -0.4121  0.1204 -0.4408
 4077TIP3   OH212236   0.096   2.140   4.083  0.0851  0.5014  0.0163
 4077TIP3    H112237   0.175   2.089   4.104 -0.0792 -0.9328 -2.4720
 4077TIP3    H212238   0.025   2.076   4.087 -0.2818  0.7116 -2.1626
 4078TIP3   OH212239   1.043   5.472   1.057  0.4720  0.2683  0.2196
 4078TIP3    H112240   1.058   5.382   1.030 -1.1575 -0.0583  0.2958
 4078TIP3    H212241   0.985   5.465   1.133  0.0276  1.3684  0.0097
 4079TIP3   OH212242   3.144   0.899   3.909 -0.3303  0.2916 -0.7479
 4079TIP3    H112243   3.205   0.854   3.967 -1.2225 -1.4861 -1.1289
 4079TIP3    H212244   3.199   0.957   3.856  0.7963  0.0338  0.1085
 4080TIP3   OH212245   0.191   3.260   5.075  0.2271 -0.2456 -0.0650
 4080TIP3    H112246   0.140   3.326   5.122  0.4564  0.2515 -0.5002
 4080TIP3    H212247   0.247   3.311   5.016 -0.0927 -0.8525 -0.9035
 4081TIP3   OH212248   2.641   3.101   2.597  0.0902 -0.2725  0.5539
 4081TIP3    H112249   2.550   3.079   2.582 -0.5160  1.5417  1.2207
 4081TIP3    H212250   2.674   3.128   2.511 -1.2662  3.0496  0.9087
 4082TIP3   OH212251   6.118   5.216   1.384  0.6472  0.2994 -0.2184
 4082TIP3    H112252   6.100   5.181   1.297  0.6660 -0.7473  0.1940
 4082TIP3    H212253   6.037   5.202   1.433  0.8257  0.3828  0.1015
 4083TIP3   OH212254   4.026   5.874   4.212  0.5214 -0.3271 -0.0967
 4083TIP3    H112255   4.000   5.783   4.201 -0.7850  0.2379 -2.2950
 4083TIP3    H212256   4.088   5.890   4.141 -1.2745  1.1294 -1.4478
 4084TIP3   OH212257   0.077   3.661   0.798 -0.0359  0.3861  0.1340
 4084TIP3    H112258   0.030   3.739   0.828  0.0857 -0.0946  1.6806
 4084TIP3    H212259   0.169   3.685   0.804  0.0482 -0.1941  1.6846
 4085TIP3   OH212260   1.205   0.381   2.802  0.6896 -0.3706 -0.8249
 4085TIP3    H112261   1.213   0.297   2.758 -1.5229 -0.9570 -0.2765
 4085TIP3    H212262   1.212   0.360   2.895 -0.4218 -0.0654 -0.6577
 4086TIP3   OH212263   5.081   5.029   3.622 -0.2684 -0.1193 -0.6620
 4086TIP3    H112264   5.018   4.969   3.661 -0.6180  0.5871 -0.1114
 4086TIP3    H212265   5.146   4.972   3.581  0.9863 -0.9871  2.2601
 4087TIP3   OH212266   1.982   3.517   0.807  0.6395 -0.2796 -0.7164
 4087TIP3    H112267   1.985   3.546   0.898  0.9136 -1.9468 -0.1447
 4087TIP3    H212268   1.925   3.580   0.763 -0.9333 -0.4213  1.0062
 4088TIP3   OH212269   5.106   0.583   2.858  0.6207  0.1691  0.2574
 4088TIP3    H112270   5.087   0.513   2.795  0.8395  1.5022 -1.3882
 4088TIP3    H212271   5.202   0.592   2.854  0.6171  0.3700  0.6540
 4089TIP3   OH212272   4.663   0.312   0.259 -0.4775 -0.2308 -0.2880
 4089TIP3    H112273   4.661   0.396   0.213  0.1923  0.0779  0.2300
 4089TIP3    H212274   4.616   0.252   0.201 -0.7554  0.4435 -0.7765
 4090TIP3   OH212275   1.511   0.331   2.938 -0.4574 -0.5366  0.3454
 4090TIP3    H112276   1.480   0.262   2.996 -1.5942 -2.5049 -2.3716
 4090TIP3    H212277   1.563   0.285   2.871  0.0501  1.4502 -0.7192
 4091TIP3   OH212278   0.788   5.805   1.406  0.1071 -0.2989  0.6688
 4091TIP3    H112279   0.699   5.814   1.440  0.5586 -2.2990  2.6140
 4091TIP3    H212280   0.840   5.778   1.481  2.0821 -0.6631 -0.7431
 4092TIP3   OH212281   3.600   4.737   2.133 -0.4463  0.1881 -0.3552
 4092TIP3    H112282   3.560   4.824   2.140  1.0488  0.9969 -1.3500
 4092TIP3    H212283   3.543   4.690   2.071 -2.5980 -0.4224  1.9085
 4093TIP3   OH212284   5.253   2.328   3.864 -0.4899 -0.3236 -0.4041
 4093TIP3    H112285   5.327   2.320   3.924  0.2016  0.6530 -1.0943
 4093TIP3    H212286   5.191   2.260   3.892 -1.0541  1.2719  2.6196
 4094TIP3   OH212287   6.309   3.842   1.383  0.2069 -0.2319  0.6291
 4094TIP3    H112288   6.281   3.931   1.403  1.4510  0.0844  1.0354
 4094TIP3    H212289   6.259   3.787   1.443 -1.0165  0.1064 -0.0324
 4095TIP3   OH212290   1.188   0.096   2.762  0.2061  0.3338  0.4443
 4095TIP3    H112291   1.099   0.109   2.730  0.1654 -0.2027  0.3367
 4095TIP3    H212292   1.192   0.003   2.785  0.9966  0.1657 -0.3399
 4096TIP3   OH212293   1.022   5.679   5.190  0.1822 -0.2361  0.6723
 4096TIP3    H112294   1.061   5.603   5.146 -0.2232 -0.8109  1.2886
 4096TIP3    H212295   0.951   5.706   5.133  1.9314  1.3497 -0.9097
 4097TIP3   OH212296   5.112   1.514   3.358 -0.9117 -0.5855  0.4530
 4097TIP3    H112297   5.058   1.468   3.423 -3.9912 -0.0372 -1.4954
 4097TIP3    H212298   5.049   1.555   3.299  1.7133  1.1542 -1.3818
 4098TIP3   OH212299   3.826   1.643   4.173 -0.1348  0.2183  0.6978
 4098TIP3    H112300   3.843   1.655   4.266  0.1727 -2.0695  0.9871
 4098TIP3    H212301   3.732   1.656   4.164 -0.7075 -2.3485  1.9234
 4099TIP3   OH212302   1.204   5.707   4.755 -0.2983  0.5853 -0.2872
 4099TIP3    H112303   1.292   5.674   4.734 -0.1719  1.8721 -1.9464
 4099TIP3    H212304   1.219   5.778   4.817  0.0469  1.9710 -1.8782
 4100TIP3   OH212305   4.279   3.120   5.121  0.3912  0.7784 -0.2837
 4100TIP3    H112306   4.374   3.118   5.127  0.4548  2.2147 -0.2821
 4100TIP3    H212307   4.259   3.091   5.032  0.8654  0.8291 -0.4053
 4101TIP3   OH212308   5.711   1.724   1.504 -0.3071  0.4324 -0.2091
 4101TIP3    H112309   5.769   1.758   1.437  0.7721  1.3839  1.1522
 4101TIP3    H212310   5.760   1.651   1.543  0.9228  2.4336  2.2410
 4102TIP3   OH212311   5.089   2.416   4.771  0.1926  0.0548  0.0396
 4102TIP3    H112312   5.074   2.388   4.681 -0.1734  0.2458  0.0417
 4102TIP3    H212313   5.184   2.432   4.776  0.4442 -1.3463  0.0871
 4103TIP3   OH212314   1.755   4.138   2.915  0.4969 -0.3129 -0.0498
 4103TIP3    H112315   1.745   4.180   2.830 -1.2281 -0.6684 -0.0613
 4103TIP3    H212316   1.808   4.199   2.966  0.8587  0.2873 -1.1191
 4104TIP3   OH212317   4.786   5.834   0.821 -0.8116  0.0586  0.6504
 4104TIP3    H112318   4.832   5.862   0.741 -0.6756 -1.9128 -0.0262
 4104TIP3    H212319   4.845   5.770   0.861 -2.1133 -1.1467  0.7508
 4105TIP3   OH212320   5.263   2.275   0.068  0.2207 -0.9482 -0.1940
 4105TIP3    H112321   5.170   2.290   0.057  0.0313 -0.7620  1.3793
 4105TIP3    H212322   5.280   2.191   0.026 -0.2522 -0.0833 -2.1944
 4106TIP3   OH212323   2.223   1.131   0.827 -0.3419 -0.0839  0.0713
 4106TIP3    H112324   2.256   1.131   0.738 -1.1688  1.6488 -0.2701
 4106TIP3    H212325   2.292   1.089   0.878  1.2597  1.1036 -1.0031
 4107TIP3   OH212326   2.673   2.526   0.126 -0.2549  0.0904  0.2051
 4107TIP3    H112327   2.745   2.465   0.141 -0.1524 -0.2497 -1.5032
 4107TIP3    H212328   2.661   2.570   0.211  0.1054 -1.8136  1.2947
 4108TIP3   OH212329   6.101   4.305   1.354  0.1375 -0.0408 -0.3760
 4108TIP3    H112330   6.056   4.359   1.289  0.2706 -0.5148 -0.8622
 4108TIP3    H212331   6.154   4.367   1.404 -1.9899  0.7638  1.0664
 4109TIP3   OH212332   3.343   4.434   4.783 -0.1877  1.0894 -0.1320
 4109TIP3    H112333   3.299   4.509   4.742  2.6717  2.4888 -0.8440
 4109TIP3    H212334   3.434   4.461   4.792  0.5787 -1.6342  1.3358
 4110TIP3   OH212335   4.900   1.128   4.230 -0.2738 -0.1810 -0.3260
 4110TIP3    H112336   4.873   1.220   4.233 -0.6555 -0.2335 -1.5473
 4110TIP3    H212337   4.957   1.117   4.306 -0.6744  0.9190  0.1507
 4111TIP3   OH212338   2.404   4.441   4.386  0.1453 -0.9911 -0.4359
 4111TIP3    H112339   2.312   4.465   4.376  0.3265 -0.9489 -2.5128
 4111TIP3    H212340   2.407   4.390   4.467 -0.9628  2.3396  1.8900
 4112TIP3   OH212341   4.170   2.161   0.131 -0.1885 -0.1763  0.1345
 4112TIP3    H112342   4.092   2.110   0.157 -0.8316  0.2132 -0.9741
 4112TIP3    H212343   4.158   2.245   0.175 -0.0158 -0.3729  0.5605
 4113TIP3   OH212344   3.923   1.360   0.149  0.8178 -0.1605 -0.0536
 4113TIP3    H112345   4.006   1.312   0.141 -0.3098 -1.9657 -2.6076
 4113TIP3    H212346   3.926   1.424   0.078  0.7115  1.0018  0.9636
 4114TIP3   OH212347   0.144   3.515   0.208 -0.3684 -0.4845 -0.0269
 4114TIP3    H112348   0.214   3.567   0.169  0.1229 -0.4889  0.8396
 4114TIP3    H212349   0.128   3.556   0.293 -0.9389 -0.9086  0.0764
 4115TIP3   OH212350   2.762   1.879   4.830  0.0338 -0.3704 -0.2490
 4115TIP3    H112351   2.827   1.949   4.836 -0.3819  0.1369 -1.4634
 4115TIP3    H212352   2.813   1.800   4.816  0.4718 -0.2166  0.4515
 4116TIP3   OH212353   2.324   0.890   0.576  0.2893 -0.1061 -0.3182
 4116TIP3    H112354   2.270   0.869   0.653 -1.1964 -1.3387 -1.6261
 4116TIP3    H212355   2.414   0.876   0.605 -0.3065 -1.7821  0.8679
 4117TIP3   OH212356   2.865   0.849   0.039  0.1156 -0.4246 -0.1406
 4117TIP3    H112357   2.784   0.847   0.089 -1.1742  0.5373 -2.0642
 4117TIP3    H212358   2.859   0.773  -0.019  1.0184 -0.8439  0.2918
 4118TIP3   OH212359   4.295   2.708   5.197 -0.4370 -0.1137  0.7063
 4118TIP3    H112360   4.298   2.675   5.108 -1.0595  0.4384  0.4756
 4118TIP3    H212361   4.380   2.751   5.210 -0.1913 -0.5407  0.5252
 4119TIP3   OH212362   3.478   3.806   1.749  0.3157 -0.1238 -0.2825
 4119TIP3    H112363   3.565   3.837   1.774  0.5998  0.4403 -1.8006
 4119TIP3    H212364   3.420   3.879   1.771  0.5365  0.2994 -1.0405
 4120TIP3   OH212365   3.853   4.593   4.657 -0.3187  0.4485 -0.9760
 4120TIP3    H112366   3.904   4.651   4.714 -0.9790 -1.2219  1.4363
 4120TIP3    H212367   3.907   4.585   4.578  2.4183  0.0306  0.8063
 4121TIP3   OH212368   1.320   2.773   2.654 -0.4025 -0.4575  0.5323
 4121TIP3    H112369   1.280   2.686   2.661 -0.3816 -0.5901 -0.7450
 4121TIP3    H212370   1.287   2.808   2.571 -0.4686  0.7947  1.0641
 4122TIP3   OH212371   1.130   3.800   2.967 -0.3038  0.0204 -0.3944
 4122TIP3    H112372   1.223   3.777   2.966 -0.1681  0.4896  0.3881
 4122TIP3    H212373   1.084   3.717   2.959  0.1765 -0.1264 -1.9485
 4123TIP3   OH212374   0.807   1.737   0.701  0.0341 -0.4477 -0.7077
 4123TIP3    H112375   0.893   1.779   0.698 -0.1174 -0.0713  0.0144
 4123TIP3    H212376   0.822   1.656   0.750  0.1389 -0.7978 -1.3056
 4124TIP3   OH212377   0.803   4.426   1.370 -0.3503 -0.4891 -0.5593
 4124TIP3    H112378   0.858   4.500   1.342 -1.9910  0.6880 -0.8183
 4124TIP3    H212379   0.757   4.459   1.448 -0.2255 -1.6715  0.0276
 4125TIP3   OH212380   3.920   0.112   2.302  0.2414 -0.0177 -0.1386
 4125TIP3    H112381   3.880   0.111   2.215  0.2143  1.0107 -0.1474
 4125TIP3    H212382   3.981   0.185   2.300  1.0001 -0.6200  0.3859
 4126TIP3   OH212383   6.146   1.969   0.613  0.0917 -0.3877 -0.2679
 4126TIP3    H112384   6.235   1.954   0.581  0.3605  1.0158 -0.2822
 4126TIP3    H212385   6.158   2.014   0.697 -0.6089 -1.1537  0.2489
 4127TIP3   OH212386   2.025   3.823   0.371 -0.4392  0.2507  0.3262
 4127TIP3    H112387   2.041   3.841   0.463 -0.1148 -1.2349  0.5876
 4127TIP3    H212388   2.105   3.782   0.340 -0.3930  1.0988 -0.7421
 4128TIP3   OH212389   5.517   2.136   3.024 -0.0205 -0.3566 -0.1789
 4128TIP3    H112390   5.508   2.184   3.106 -0.7725  1.0883 -1.0766
 4128TIP3    H212391   5.429   2.102   3.006 -0.0043 -0.1458 -0.6848
 4129TIP3   OH212392   4.166   2.492   0.083  0.0434 -0.4440  0.0977
 4129TIP3    H112393   4.115   2.507   0.003  1.3083 -1.2387 -0.8970
 4129TIP3    H212394   4.221   2.570   0.091  0.3213 -0.6134 -0.1356
 4130TIP3   OH212395   5.080   4.830   1.516 -0.4581  0.8318  0.1359
 4130TIP3    H112396   5.098   4.737   1.530 -1.8113  0.8431  2.4630
 4130TIP3    H212397   5.049   4.835   1.425  2.9784 -0.3435 -1.2897
 4131TIP3   OH212398   4.507   5.604   1.187  0.2580 -0.0640  0.3674
 4131TIP3    H112399   4.501   5.581   1.280 -0.4692 -1.4321  0.0160
 4131TIP3    H212400   4.428   5.655   1.170  0.5094  0.3910  0.5403
 4132TIP3   OH212401   2.900   0.089   1.401  0.3482  0.1201  0.0441
 4132TIP3    H112402   2.901  -0.007   1.401  0.8068  0.0735  2.1755
 4132TIP3    H212403   2.946   0.113   1.481 -1.4078  2.1065  0.5398
 4133TIP3   OH212404   3.556   1.200   1.480 -0.2130 -0.2095  0.7561
 4133TIP3    H112405   3.517   1.113   1.474 -0.8250  0.1127 -0.2192
 4133TIP3    H212406   3.611   1.207   1.402 -2.1631  1.2018 -0.5744
 4134TIP3   OH212407   4.965   5.497   0.124  0.6544  0.3472  0.1721
 4134TIP3    H112408   5.026   5.424   0.122  0.5523  0.2354 -2.2672
 4134TIP3    H212409   5.014   5.570   0.085  0.0094  0.9401  0.4429
 4135TIP3   OH212410   0.100   3.827   0.166 -0.0123  0.1774 -0.5848
 4135TIP3    H112411   0.046   3.749   0.151 -0.8528  0.7231 -0.4284
 4135TIP3    H212412   0.087   3.881   0.088 -1.8482  1.5434  0.6014
 4136TIP3   OH212413   4.928   1.989   4.729  0.4997 -0.3778  0.0427
 4136TIP3    H112414   5.022   1.996   4.749  0.8131 -2.3168 -0.5718
 4136TIP3    H212415   4.922   2.007   4.635  0.2825 -0.5364  0.0273
 4137TIP3   OH212416   1.603   5.682   3.845  0.2191  0.1457 -0.4490
 4137TIP3    H112417   1.572   5.625   3.915  2.6176 -0.3593  0.2940
 4137TIP3    H212418   1.526   5.698   3.791 -1.9521  1.2715  2.7322
 4138TIP3   OH212419   2.970   1.220   4.176 -0.0309 -0.5200 -0.0460
 4138TIP3    H112420   2.974   1.223   4.271 -0.2247  0.8068 -0.0604
 4138TIP3    H212421   2.895   1.275   4.153 -0.7134 -1.7835 -0.9269
 4139TIP3   OH212422   0.490   2.706   3.717 -0.3630 -0.3824 -0.3276
 4139TIP3    H112423   0.419   2.678   3.659 -0.4459  0.2205 -0.5257
 4139TIP3    H212424   0.498   2.800   3.701 -1.3483  0.0832  1.6783
 4140TIP3   OH212425   0.127   2.638   1.401  0.0672  0.1655 -0.5876
 4140TIP3    H112426   0.145   2.547   1.376 -1.5377  0.1350 -1.8392
 4140TIP3    H212427   0.148   2.688   1.323 -1.1299  0.5765 -0.6764
 4141TIP3   OH212428   1.088   1.863   4.197 -0.0499  0.4376 -0.4514
 4141TIP3    H112429   1.050   1.891   4.114 -0.1202 -0.1463 -0.6171
 4141TIP3    H212430   1.123   1.776   4.180  0.3116  0.4864  0.0193
 4142TIP3   OH212431   3.263   3.150   0.164 -0.4422 -0.3194  0.5337
 4142TIP3    H112432   3.306   3.159   0.249 -0.5038 -1.2768  0.6698
 4142TIP3    H212433   3.333   3.165   0.100 -0.0016 -1.3553  0.7577
 4143TIP3   OH212434   5.080   2.256   2.929 -0.0772 -0.1717  0.4471
 4143TIP3    H112435   5.151   2.193   2.941  1.4220  1.2910 -0.4586
 4143TIP3    H212436   5.067   2.294   3.016  1.6481  0.9539  0.2596
 4144TIP3   OH212437   2.597   5.569   4.652 -0.0625 -0.2252 -0.3416
 4144TIP3    H112438   2.661   5.626   4.609 -0.2483 -0.3048 -0.7360
 4144TIP3    H212439   2.540   5.541   4.581  0.3471 -1.3375 -0.2553
 4145TIP3   OH212440   4.009   4.266   1.605  0.1610 -0.6086 -0.0681
 4145TIP3    H112441   4.031   4.340   1.550  0.9761  0.8717  2.1072
 4145TIP3    H212442   3.942   4.218   1.556 -0.5610  1.6895 -1.4605
 4146TIP3   OH212443   2.936   5.298   3.381 -0.0181 -0.3836 -0.1262
 4146TIP3    H112444   2.907   5.383   3.413 -0.3267 -0.4124 -0.3310
 4146TIP3    H212445   3.031   5.297   3.398  0.1928  0.4699 -1.1840
 4147TIP3   OH212446   1.080   3.359   4.138 -0.1401  0.2420 -0.3322
 4147TIP3    H112447   1.114   3.409   4.212  0.0115  1.3149 -1.0911
 4147TIP3    H212448   1.053   3.275   4.175 -0.3493  0.8658  0.9809
 4148TIP3   OH212449   1.217   2.758   4.374  0.3225 -0.0942  0.2142
 4148TIP3    H112450   1.158   2.779   4.301  0.1682  0.2045  0.4220
 4148TIP3    H212451   1.160   2.757   4.451  0.8730  2.2044  0.7376
 4149TIP3   OH212452   5.987   5.608   0.225 -0.1047 -0.2299  0.2223
 4149TIP3    H112453   6.074   5.568   0.232  0.1684  0.2465 -0.4189
 4149TIP3    H212454   6.000   5.685   0.170 -0.4742  1.1876  2.0182
 4150TIP3   OH212455   3.739   5.119   0.833 -0.4145 -0.2372 -0.0530
 4150TIP3    H112456   3.815   5.132   0.889  0.2449  2.8278 -1.4692
 4150TIP3    H212457   3.773   5.073   0.756 -0.0709  0.7270 -0.4842
 4151TIP3   OH212458   3.989   3.015   4.574  0.0646 -0.4915 -0.3683
 4151TIP3    H112459   3.896   3.014   4.597  0.1481 -0.8930 -0.0374
 4151TIP3    H212460   4.033   2.973   4.648  0.4363 -0.9744 -0.8584
 4152TIP3   OH212461   2.660   1.201   4.482 -0.1919  0.3026 -0.2273
 4152TIP3    H112462   2.607   1.264   4.530 -0.5136 -0.2794  0.2023
 4152TIP3    H212463   2.603   1.170   4.412 -0.3449 -0.1568  0.0970
 4153TIP3   OH212464   5.570   2.103   3.596 -0.1560 -0.3214 -0.1527
 4153TIP3    H112465   5.527   2.077   3.515 -0.9184 -0.9318  0.4348
 4153TIP3    H212466   5.528   2.051   3.664  1.1305 -0.5253  0.5275
 4154TIP3   OH212467   0.163   4.324   0.847 -0.0090 -0.2278 -0.2996
 4154TIP3    H112468   0.154   4.360   0.759  1.7216  0.0203 -0.4000
 4154TIP3    H212469   0.207   4.392   0.898  0.3645 -0.9432  0.3610
 4155TIP3   OH212470   0.386   1.239   1.518  0.0370 -0.0662  0.3569
 4155TIP3    H112471   0.338   1.226   1.437  0.3892  0.1850  0.1073
 4155TIP3    H212472   0.321   1.274   1.579 -0.4194 -1.0194  0.4293
 4156TIP3   OH212473   4.601   0.404   2.520  0.3378  0.0455 -0.0423
 4156TIP3    H112474   4.601   0.451   2.604 -2.2006 -0.5482  0.3764
 4156TIP3    H212475   4.550   0.325   2.537 -1.4037  0.5412 -2.4610
 4157TIP3   OH212476   0.657   0.914   4.222  0.9807 -0.1517 -0.3962
 4157TIP3    H112477   0.646   1.007   4.240  2.2592  0.2028 -1.3355
 4157TIP3    H212478   0.648   0.906   4.127 -2.1747 -1.4752 -0.1040
 4158TIP3   OH212479   4.935   4.382   0.177 -0.1737 -0.1658 -0.1634
 4158TIP3    H112480   4.936   4.457   0.236 -1.0974 -1.1563  1.1912
 4158TIP3    H212481   4.885   4.411   0.101 -0.7412  0.5193  0.4566
 4159TIP3   OH212482   5.055   4.547   1.489  0.4693 -0.3948 -0.3223
 4159TIP3    H112483   4.994   4.525   1.418 -0.5234 -0.9544  0.6700
 4159TIP3    H212484   4.999   4.554   1.566  1.6537 -0.7282  0.5812
 4160TIP3   OH212485   1.879   2.389   2.457  0.3470  0.0443  0.3331
 4160TIP3    H112486   1.879   2.483   2.439 -1.6082 -0.3683 -2.4641
 4160TIP3    H212487   1.884   2.383   2.552  2.9686  2.8433  0.5264
 4161TIP3   OH212488   1.231   0.816   4.181  0.3393 -0.3572 -0.4071
 4161TIP3    H112489   1.225   0.870   4.102  1.3585 -1.0166 -0.9614
 4161TIP3    H212490   1.310   0.763   4.168  0.1554 -0.9542  0.7617
 4162TIP3   OH212491   0.183   0.775   3.412 -0.2038  0.0278  0.4502
 4162TIP3    H112492   0.236   0.846   3.450 -0.0591  0.6399 -0.8561
 4162TIP3    H212493   0.112   0.763   3.475  1.6745 -1.1361  2.4884
 4163TIP3   OH212494   0.269   0.043   4.590  0.3843  0.1936  0.2735
 4163TIP3    H112495   0.243   0.053   4.499 -0.2307  0.4473  0.4710
 4163TIP3    H212496   0.186   0.033   4.638  0.5448  2.0226  1.0343
 4164TIP3   OH212497   2.548   4.709   1.450  0.2053  0.2603 -0.2048
 4164TIP3    H112498   2.474   4.651   1.467  0.2782  0.4804  0.9134
 4164TIP3    H212499   2.528   4.749   1.365  1.1195 -2.8830 -2.0796
 4165TIP3   OH212500   4.975   5.269   4.519 -0.1617 -0.3296  0.4960
 4165TIP3    H112501   4.898   5.303   4.473  1.2466 -0.2800 -2.0129
 4165TIP3    H212502   5.048   5.319   4.483  1.3024 -1.8252  1.2606
 4166TIP3   OH212503   5.477   2.932   1.014  0.0104 -0.6616 -0.2574
 4166TIP3    H112504   5.506   2.843   0.996  0.4465 -0.3098 -1.4083
 4166TIP3    H212505   5.557   2.985   1.008 -0.2421 -0.1903  0.4123
 4167TIP3   OH212506   0.704   3.068   5.135  0.2680 -0.4007  0.5060
 4167TIP3    H112507   0.778   3.123   5.107 -0.1181  0.6048  1.4275
 4167TIP3    H212508   0.717   3.054   5.228 -0.3438 -0.8010  0.5417
 4168TIP3   OH212509   4.662   0.255   4.391  0.2795  0.0148  0.1500
 4168TIP3    H112510   4.696   0.212   4.313 -0.9629 -2.2729  0.7688
 4168TIP3    H212511   4.586   0.305   4.359  0.3377 -0.1408 -0.2419
 4169TIP3   OH212512   4.756   4.403   3.528  0.2185  0.0033  0.0695
 4169TIP3    H112513   4.758   4.307   3.534  0.9361  0.0458  0.6843
 4169TIP3    H212514   4.758   4.421   3.434  0.3593 -0.5863 -0.0460
 4170TIP3   OH212515   5.301   2.062   4.213  0.5669  0.1418 -0.5474
 4170TIP3    H112516   5.272   2.140   4.261  1.2483 -0.8357  1.6076
 4170TIP3    H212517   5.394   2.054   4.235  0.9581 -0.2737 -2.2402
 4171TIP3   OH212518   5.380   2.353   4.733 -0.3486  0.2645  0.0422
 4171TIP3    H112519   5.459   2.407   4.740  1.3330 -2.0622  0.2635
 4171TIP3    H212520   5.386   2.312   4.647 -0.2299 -1.4507  0.8226
 4172TIP3   OH212521   0.461   1.050   1.245 -0.1179 -0.3768 -0.1646
 4172TIP3    H112522   0.401   1.016   1.179  0.6161 -1.0055 -0.5261
 4172TIP3    H212523   0.413   1.044   1.327 -1.0581  0.4568 -0.6368
 4173TIP3   OH212524   5.536   1.448   4.556 -0.0100 -0.3731 -0.3512
 4173TIP3    H112525   5.493   1.499   4.487 -0.2365 -1.3233 -0.9263
 4173TIP3    H212526   5.533   1.505   4.633 -2.3905 -0.4312 -0.3330
 4174TIP3   OH212527   3.823   2.529   0.685  0.2286 -0.3421 -0.3334
 4174TIP3    H112528   3.744   2.519   0.738 -0.0805  0.2954 -0.6699
 4174TIP3    H212529   3.872   2.598   0.728  0.3174 -0.3172 -0.4737
 4175TIP3   OH212530   3.188   5.339   2.931 -0.0576  0.5512 -0.1914
 4175TIP3    H112531   3.106   5.363   2.975  0.0580 -0.0895  0.3935
 4175TIP3    H212532   3.185   5.386   2.848 -0.9635  0.6363 -0.1279
 4176TIP3   OH212533   6.196   1.450   4.328 -0.3783 -0.4134 -0.1680
 4176TIP3    H112534   6.199   1.539   4.362 -0.7521 -1.2195  2.1531
 4176TIP3    H212535   6.286   1.419   4.331 -0.4804 -0.6518  0.6278
 4177TIP3   OH212536   1.452   3.132   3.996 -0.1874  0.1744 -0.2617
 4177TIP3    H112537   1.375   3.156   3.944 -0.7770 -1.3723 -0.1509
 4177TIP3    H212538   1.439   3.178   4.079 -1.5569 -0.8573  0.1376
 4178TIP3   OH212539   0.731   5.322   5.216  0.5614  0.0809  0.5287
 4178TIP3    H112540   0.728   5.275   5.133  2.4047 -0.5837  0.8066
 4178TIP3    H212541   0.711   5.413   5.194  1.4247 -0.0134 -0.7093
 4179TIP3   OH212542   3.322   0.284   1.450 -0.0328  0.2699 -0.0070
 4179TIP3    H112543   3.273   0.228   1.389  0.0372 -1.5944  1.5637
 4179TIP3    H212544   3.343   0.362   1.399 -1.2289 -0.5814 -1.9133
 4180TIP3   OH212545   2.900   3.315   0.992 -0.6935  0.4255 -0.3550
 4180TIP3    H112546   2.897   3.281   1.081 -0.4500 -0.4610 -0.6792
 4180TIP3    H212547   2.894   3.238   0.936 -0.9485  0.9804 -1.1101
 4181TIP3   OH212548   5.508   4.871   1.257 -0.2254  0.1789  0.1620
 4181TIP3    H112549   5.584   4.813   1.260  0.7846  1.2253 -2.5009
 4181TIP3    H212550   5.480   4.869   1.165 -2.4028  1.1097  0.7469
 4182TIP3   OH212551   4.664   3.146   3.309  0.2489 -0.2679 -0.2155
 4182TIP3    H112552   4.731   3.092   3.266  1.1263  0.7280 -0.1558
 4182TIP3    H212553   4.650   3.218   3.249  0.2387  0.2483  0.3971
 4183TIP3   OH212554   1.449   1.318   3.301  0.1027  0.4966 -0.4387
 4183TIP3    H112555   1.534   1.323   3.257  1.7234  1.7084  2.5480
 4183TIP3    H212556   1.399   1.392   3.266  0.4952  0.1782 -1.7159
 4184TIP3   OH212557   1.362   2.084   3.348 -0.0262  0.1609  0.1518
 4184TIP3    H112558   1.328   2.122   3.428  0.8338  2.7321 -0.6079
 4184TIP3    H212559   1.457   2.082   3.360 -0.0230 -2.7856  0.5111
 4185TIP3   OH212560   1.239   1.601   3.752  0.0463  0.6633  0.3793
 4185TIP3    H112561   1.317   1.560   3.713 -0.8740 -1.6507  0.8222
 4185TIP3    H212562   1.273   1.678   3.799  1.8334  0.5862 -0.6805
 4186TIP3   OH212563   2.671   0.571   3.003 -0.1360  0.5337  0.3675
 4186TIP3    H112564   2.688   0.524   2.921  1.1164 -1.1186  1.4895
 4186TIP3    H212565   2.581   0.550   3.025 -0.0414 -0.1653  0.1063
 4187TIP3   OH212566   2.700   1.743   4.361 -0.4266 -0.7621  0.4403
 4187TIP3    H112567   2.677   1.769   4.272  0.2498 -1.1800  0.1358
 4187TIP3    H212568   2.624   1.769   4.414 -1.0640 -0.9936 -0.3362
 4188TIP3   OH212569   2.223   3.793   3.036 -0.1465 -0.7289 -0.0291
 4188TIP3    H112570   2.197   3.866   3.093  0.5978 -0.5725  0.1179
 4188TIP3    H212571   2.318   3.796   3.035 -0.0906 -1.9702  0.3164
 4189TIP3   OH212572   5.494   2.564   3.255  0.0213  0.3916  0.1025
 4189TIP3    H112573   5.524   2.474   3.263 -0.7385 -0.1250 -2.1259
 4189TIP3    H212574   5.405   2.563   3.291  0.9986  0.9789  2.7720
 4190TIP3   OH212575   0.385   6.002   2.433 -0.7097 -0.7927 -0.6119
 4190TIP3    H112576   0.309   5.980   2.380 -2.7962  0.5614  1.5711
 4190TIP3    H212577   0.375   5.950   2.513  0.6710 -0.6039 -0.2881
 4191TIP3   OH212578   3.378   0.396   2.590  0.2348 -0.2124 -0.3508
 4191TIP3    H112579   3.453   0.451   2.564 -0.3657  0.0904 -1.5596
 4191TIP3    H212580   3.313   0.459   2.621  0.7237 -0.5333  1.3779
 4192TIP3   OH212581   1.710   4.437   3.470  0.2276 -0.4619  0.5565
 4192TIP3    H112582   1.615   4.451   3.474  0.3825  1.1963 -0.6270
 4192TIP3    H212583   1.738   4.440   3.561 -1.0502 -2.9282  1.1292
 4193TIP3   OH212584   1.358   4.829   3.287  0.3658  0.2337 -0.1515
 4193TIP3    H112585   1.373   4.889   3.361  0.4438 -0.5148  0.4544
 4193TIP3    H212586   1.304   4.879   3.226 -0.2388  0.6468  0.7050
 4194TIP3   OH212587   3.073   5.110   3.651 -0.6376 -0.8492  0.4499
 4194TIP3    H112588   3.103   5.046   3.587 -1.1131 -0.0087 -0.6550
 4194TIP3    H212589   2.988   5.139   3.618  0.7978  2.5014 -0.7573
 4195TIP3   OH212590   4.956   3.559   0.988  0.5050 -0.2448  0.0144
 4195TIP3    H112591   4.969   3.520   1.075 -2.1909 -0.9309  0.1849
 4195TIP3    H212592   4.994   3.495   0.928  0.8245 -0.6140  0.5971
 4196TIP3   OH212593   4.747   4.390   2.250  0.3235 -0.4116  1.2570
 4196TIP3    H112594   4.787   4.428   2.171 -0.7929 -0.5090  0.6364
 4196TIP3    H212595   4.814   4.331   2.284  1.0473  0.0769  0.7211
 4197TIP3   OH212596   3.217   4.587   4.322  0.5319 -0.2862 -0.0546
 4197TIP3    H112597   3.283   4.522   4.294  1.3427  0.2841  0.4898
 4197TIP3    H212598   3.247   4.616   4.408  1.0004  1.8719 -0.8783
 4198TIP3   OH212599   1.324   5.332   1.202 -0.3282  0.1304  0.0774
 4198TIP3    H112600   1.399   5.297   1.251  0.7014 -0.2662 -1.6583
 4198TIP3    H212601   1.247   5.299   1.248  0.5868 -0.2811  1.3551
 4199TIP3   OH212602   3.221   0.728   3.622  0.0490 -0.6107 -0.1427
 4199TIP3    H112603   3.254   0.741   3.711 -0.1810  0.1930 -0.1602
 4199TIP3    H212604   3.231   0.634   3.606  1.7867 -0.5048  0.0586
 4200TIP3   OH212605   1.963   1.857   3.802 -0.6140  0.0424  0.1757
 4200TIP3    H112606   1.875   1.849   3.838 -0.5537 -0.6854  0.1725
 4200TIP3    H212607   1.950   1.870   3.708 -0.8451  3.6471  0.5594
 4201TIP3   OH212608   3.913   1.985   4.192 -0.1625  0.1382 -0.1282
 4201TIP3    H112609   3.931   1.927   4.266  0.7848 -0.5062 -0.8336
 4201TIP3    H212610   3.999   2.016   4.164 -0.6218  1.4761 -0.1066
 4202TIP3   OH212611   2.740   0.263   0.685  0.7430  0.4984 -0.4818
 4202TIP3    H112612   2.681   0.330   0.720  1.2431  0.9195 -0.4268
 4202TIP3    H212613   2.825   0.286   0.721  0.4543 -1.9632  2.1234
 4203TIP3   OH212614   1.844   0.001   2.872  0.7992  0.3051 -0.4079
 4203TIP3    H112615   1.933   0.031   2.893  0.8735  1.5737 -2.2770
 4203TIP3    H212616   1.795   0.081   2.854 -1.0680 -0.2904  1.5421
 4204TIP3   OH212617   6.267   0.847   1.320 -0.6811  0.0451  0.3244
 4204TIP3    H112618   6.249   0.769   1.372 -1.7036  0.7871  1.1401
 4204TIP3    H212619   6.267   0.816   1.229 -2.1200 -0.7360  0.5560
 4205TIP3   OH212620   2.641   1.833   3.306 -0.6187  0.1670  0.6013
 4205TIP3    H112621   2.725   1.814   3.348  1.2618 -0.5533 -3.0334
 4205TIP3    H212622   2.653   1.919   3.265 -0.7706 -0.7831 -1.6198
 4206TIP3   OH212623   1.529   1.604   3.203 -0.4921  0.2122 -0.2491
 4206TIP3    H112624   1.519   1.697   3.224  0.6471  0.8712 -2.2978
 4206TIP3    H212625   1.622   1.595   3.182 -0.5218 -1.4907  0.2107
 4207TIP3   OH212626   5.269   5.402   3.507  0.5448  0.1123 -0.3497
 4207TIP3    H112627   5.339   5.339   3.523  0.4484 -1.0673 -3.7344
 4207TIP3    H212628   5.188   5.353   3.525  0.5169 -0.3613 -1.6117
 4208TIP3   OH212629   2.205   5.468   2.608  0.1152 -0.3787 -0.3590
 4208TIP3    H112630   2.131   5.466   2.547 -0.4684  2.4299  0.1269
 4208TIP3    H212631   2.204   5.557   2.644  1.4418 -1.4289  2.5437
 4209TIP3   OH212632   1.373   4.640   0.725 -0.4237  0.2840 -0.1247
 4209TIP3    H112633   1.431   4.565   0.711  0.2071  0.8972 -0.8907
 4209TIP3    H212634   1.426   4.704   0.772 -0.9170  0.3148  0.4048
 4210TIP3   OH212635   4.595   4.791   4.016  0.4442  0.1233  0.2082
 4210TIP3    H112636   4.609   4.864   3.956  0.2462  1.1666  1.4078
 4210TIP3    H212637   4.635   4.818   4.098 -2.3704  0.2766  1.6416
 4211TIP3   OH212638   3.360   0.940   3.474  0.1572  0.3575  0.1268
 4211TIP3    H112639   3.455   0.942   3.475  0.4143 -2.3400 -2.8442
 4211TIP3    H212640   3.337   0.869   3.536  0.2213 -0.1696 -0.4444
 4212TIP3   OH212641   5.749   5.889   4.026  0.2170 -0.2951 -0.5405
 4212TIP3    H112642   5.706   5.959   4.076  1.6830  0.4980 -0.3301
 4212TIP3    H212643   5.761   5.926   3.939  1.3961 -0.1083 -0.3057
 4213TIP3   OH212644   2.041   2.110   3.926 -0.5184  0.1323  0.1590
 4213TIP3    H112645   1.951   2.141   3.940  0.0521  1.9293  0.1549
 4213TIP3    H212646   2.031   2.020   3.894 -2.1461 -1.4283  4.3875
 4214TIP3   OH212647   2.265   3.555   1.615 -0.2860  0.2557  0.6644
 4214TIP3    H112648   2.211   3.590   1.685  0.2434  0.0557  1.1891
 4214TIP3    H212649   2.312   3.631   1.580 -0.6954  0.3853  0.3930
 4215TIP3   OH212650   0.510   3.063   3.955  0.1737 -0.0361 -0.0098
 4215TIP3    H112651   0.481   3.100   4.038 -2.4221 -0.0958 -0.8132
 4215TIP3    H212652   0.460   2.982   3.946 -1.2800  1.0467 -2.5818
 4216TIP3   OH212653   2.767   4.458   0.949 -0.0823 -0.7262  0.0509
 4216TIP3    H112654   2.687   4.474   0.899 -0.3076  1.1259  0.9057
 4216TIP3    H212655   2.836   4.499   0.897 -0.1860  0.4145  0.7714
 4217TIP3   OH212656   1.020   2.533   2.916 -0.0348  0.3102  0.6087
 4217TIP3    H112657   1.085   2.531   2.987 -1.3699 -0.8079  1.8840
 4217TIP3    H212658   0.949   2.477   2.948  0.1448 -1.9490 -2.4632
 4218TIP3   OH212659   2.009   3.535   3.941  0.2210 -0.1033  0.2741
 4218TIP3    H112660   1.986   3.533   4.034  2.3122  0.7941  0.8846
 4218TIP3    H212661   2.030   3.444   3.919 -0.8578 -0.4175  0.4962
 4219TIP3   OH212662   1.935   1.289   2.108  0.2598 -0.6508  0.2546
 4219TIP3    H112663   1.869   1.310   2.042 -0.1525 -0.8624  0.5856
 4219TIP3    H212664   2.002   1.356   2.098 -0.4025  0.0673  0.4469
 4220TIP3   OH212665   4.629   4.748   0.020 -0.1591 -0.4403 -0.4979
 4220TIP3    H112666   4.542   4.759  -0.018 -1.4259  0.4618  2.3270
 4220TIP3    H212667   4.665   4.837   0.026 -0.2458 -0.4693  0.8008
 4221TIP3   OH212668   1.540   2.107   0.264 -0.4877  0.4847 -0.6689
 4221TIP3    H112669   1.559   2.129   0.172  0.6920  1.2671 -0.2566
 4221TIP3    H212670   1.501   2.186   0.300 -0.1924  0.4605 -0.2911
 4222TIP3   OH212671   2.774   1.612   3.696  0.5026  0.2331  0.1608
 4222TIP3    H112672   2.785   1.673   3.769  0.5891  3.0942 -2.0842
 4222TIP3    H212673   2.701   1.647   3.645  0.4616 -1.6334 -1.1952
 4223TIP3   OH212674   1.997   2.739   3.350 -0.0872  0.1180 -0.1407
 4223TIP3    H112675   2.061   2.754   3.281  0.9501  2.5717  1.2338
 4223TIP3    H212676   2.009   2.648   3.375  3.0042  0.4969  0.1267
 4224TIP3   OH212677   3.076   3.790   3.489  0.1061 -0.0164 -0.2133
 4224TIP3    H112678   3.019   3.783   3.412  0.1995  1.9298 -0.5090
 4224TIP3    H212679   3.165   3.782   3.454  0.1093 -1.4915  0.0471
 4225TIP3   OH212680   3.607   4.780   4.649  0.5478  0.7675 -0.0261
 4225TIP3    H112681   3.665   4.711   4.617  1.2427  1.0815  0.5200
 4225TIP3    H212682   3.631   4.857   4.598 -0.0035  0.6958 -0.4081
 4226TIP3   OH212683   0.333   2.225   3.708 -0.1882  0.2549 -0.2983
 4226TIP3    H112684   0.327   2.244   3.801  1.1821  1.0098 -0.3440
 4226TIP3    H212685   0.252   2.262   3.671  0.0259  1.4232  0.3576
 4227TIP3   OH212686   2.131   3.348   4.771 -0.0134 -0.1451 -0.8074
 4227TIP3    H112687   2.180   3.379   4.847  0.8420 -0.8272 -1.0686
 4227TIP3    H212688   2.197   3.327   4.706 -0.7721  1.3151 -2.1160
 4228TIP3   OH212689   2.436   4.900   1.634  0.3743  0.3997  0.1559
 4228TIP3    H112690   2.446   4.993   1.614  0.3759  0.4955  0.5911
 4228TIP3    H212691   2.477   4.855   1.561 -0.1827  0.7353 -0.3701
 4229TIP3   OH212692   0.251   4.518   0.191 -0.3162 -0.1571  0.0134
 4229TIP3    H112693   0.278   4.452   0.127 -1.1556  0.1663 -0.7068
 4229TIP3    H212694   0.300   4.597   0.167 -0.2478 -0.1769  0.0891
 4230TIP3   OH212695   4.006   4.385   5.017  0.6050  0.1120 -1.2086
 4230TIP3    H112696   3.918   4.351   5.000  1.0081 -1.3804 -0.5139
 4230TIP3    H212697   4.064   4.327   4.968  1.3549 -0.5347  0.3710
 4231TIP3   OH212698   6.335   1.595   2.705  0.2711 -0.4318 -0.6054
 4231TIP3    H112699   6.381   1.599   2.789  0.7799  1.1183 -0.9295
 4231TIP3    H212700   6.243   1.611   2.728  0.2808 -0.8088 -0.2730
 4232TIP3   OH212701   5.232   1.843   4.700  0.0597  0.3416  0.4995
 4232TIP3    H112702   5.208   1.927   4.739  1.3710  1.4664 -1.0253
 4232TIP3    H212703   5.216   1.854   4.606  2.0908 -0.4150  0.0151
 4233TIP3   OH212704   3.292   5.958   1.031  0.0236 -0.1820  0.0810
 4233TIP3    H112705   3.370   5.955   0.976  0.9357  0.0616  1.3385
 4233TIP3    H212706   3.219   5.959   0.968  1.0558  1.4054 -1.1847
 4234TIP3   OH212707   2.389   4.251   2.861  0.4862 -0.1769 -0.1534
 4234TIP3    H112708   2.310   4.259   2.915 -0.5457 -1.4105 -1.4177
 4234TIP3    H212709   2.452   4.207   2.918 -0.3944 -0.9610  0.2457
 4235TIP3   OH212710   0.126   5.262   0.317 -0.5036 -0.3829  0.0845
 4235TIP3    H112711   0.215   5.283   0.292  0.0203 -0.8969  1.4464
 4235TIP3    H212712   0.117   5.294   0.407 -1.9070  0.2633 -0.2501
 4236TIP3   OH212713   4.020   5.622   1.525 -0.5634 -0.4776  0.5965
 4236TIP3    H112714   3.947   5.682   1.536 -1.5112 -1.4286 -0.3462
 4236TIP3    H212715   4.037   5.620   1.431  1.2444  0.3602  0.8662
 4237TIP3   OH212716   4.034   5.732   0.778 -0.2414  0.4048  0.0843
 4237TIP3    H112717   4.124   5.766   0.781  0.3337 -0.7849 -1.8254
 4237TIP3    H212718   3.991   5.786   0.712 -0.6139  0.2743  0.2220
 4238TIP3   OH212719   6.024   1.984   2.504 -0.3528 -0.2201  0.4409
 4238TIP3    H112720   5.954   1.927   2.471  0.6683 -2.7022  2.3306
 4238TIP3    H212721   6.026   1.968   2.598  2.5714 -0.0419  0.4970
 4239TIP3   OH212722   2.558   5.088   4.696 -0.6509  0.3617  0.4434
 4239TIP3    H112723   2.471   5.057   4.721 -0.5754 -0.9247 -0.7602
 4239TIP3    H212724   2.565   5.174   4.737 -2.4979  0.5195  0.5266
 4240TIP3   OH212725   6.034   4.051   2.484 -0.0767 -0.4898  0.4733
 4240TIP3    H112726   6.075   3.980   2.435  0.6749  0.9216 -1.0601
 4240TIP3    H212727   5.956   4.074   2.434  0.9593  1.2987 -0.4241
 4241TIP3   OH212728   4.471   5.235   3.832  0.2627 -0.1601 -0.6163
 4241TIP3    H112729   4.516   5.290   3.768  0.0576  0.8735  0.0972
 4241TIP3    H212730   4.388   5.211   3.791  1.1896 -1.6283 -1.7271
 4242TIP3   OH212731   2.705   4.071   4.822 -0.5677 -0.3530  0.0796
 4242TIP3    H112732   2.765   4.132   4.779 -0.5480  0.1626  0.8286
 4242TIP3    H212733   2.757   3.992   4.837  0.4815  0.6896  2.2923
 4243TIP3   OH212734   2.377   1.995   0.234 -0.2316 -0.0020  0.0390
 4243TIP3    H112735   2.348   1.953   0.153  0.4207 -0.1505 -0.1268
 4243TIP3    H212736   2.343   2.085   0.229  2.5863  1.0982 -2.0274
 4244TIP3   OH212737   5.787   0.148   0.302 -0.1376  0.1724  0.2073
 4244TIP3    H112738   5.882   0.157   0.308 -0.1879  1.0121 -0.1227
 4244TIP3    H212739   5.772   0.079   0.237  0.2422  0.0347  0.2673
 4245TIP3   OH212740   2.213   0.730   2.338  0.4457  0.0699 -0.4851
 4245TIP3    H112741   2.159   0.663   2.298  0.2142 -0.9319  1.3736
 4245TIP3    H212742   2.153   0.802   2.357 -0.2159 -0.8423  1.1273
 4246TIP3   OH212743   3.354   0.936   2.038  0.6529  0.3348 -0.0189
 4246TIP3    H112744   3.413   1.002   2.003  0.1809  0.3537 -0.7950
 4246TIP3    H212745   3.328   0.970   2.124  0.2938  1.2415 -0.4757
 4247TIP3   OH212746   3.846   2.501   0.427  0.1065 -0.6684 -0.5473
 4247TIP3    H112747   3.752   2.489   0.413 -0.3196  0.5245  1.0470
 4247TIP3    H212748   3.856   2.510   0.522  1.4526  2.1080 -0.8482
 4248TIP3   OH212749   2.170   4.433   1.009 -0.0115 -0.1361 -0.4783
 4248TIP3    H112750   2.225   4.504   1.040 -0.1312  0.9035 -2.4793
 4248TIP3    H212751   2.222   4.353   1.023  0.5825  0.4499  0.7532
 4249TIP3   OH212752   0.159   5.957   4.365 -0.7800 -0.6327 -0.6165
 4249TIP3    H112753   0.180   5.914   4.448 -1.7073  0.0717  0.0070
 4249TIP3    H212754   0.065   5.945   4.355 -0.8032 -0.0309 -1.1685
 4250TIP3   OH212755   5.075   1.170   0.246 -0.2997  0.1427 -0.0843
 4250TIP3    H112756   5.159   1.159   0.290 -0.1317 -0.3167 -0.5030
 4250TIP3    H212757   5.096   1.218   0.166 -0.6688  1.3698  0.5358
 4251TIP3   OH212758   4.962   2.672   1.384  0.0952 -0.2174  0.5370
 4251TIP3    H112759   5.031   2.608   1.369 -1.7964 -1.9025 -1.7063
 4251TIP3    H212760   4.912   2.638   1.458  0.1737 -0.3549  0.5256
 4252TIP3   OH212761   4.629   0.558   0.567  0.2153  0.0151  0.0330
 4252TIP3    H112762   4.611   0.639   0.616  0.0679 -0.2621  0.4431
 4252TIP3    H212763   4.724   0.560   0.554  0.3710 -0.2825  1.0209
 4253TIP3   OH212764   0.208   1.459   2.516  0.1267  0.0708  0.1566
 4253TIP3    H112765   0.207   1.433   2.608  1.5967 -0.1309  0.1312
 4253TIP3    H212766   0.202   1.377   2.468 -0.2051  0.1472  0.0657
 4254TIP3   OH212767   4.563   3.916   3.401  0.1265  0.3421  0.5428
 4254TIP3    H112768   4.563   3.876   3.315 -1.3146  2.0380 -0.3134
 4254TIP3    H212769   4.507   3.993   3.392  0.5747  1.0185  2.7917
 4255TIP3   OH212770   4.702   5.950   3.797 -0.0563 -0.0172  0.4999
 4255TIP3    H112771   4.677   6.041   3.780  0.5383 -0.0178 -0.3790
 4255TIP3    H212772   4.660   5.900   3.728  3.2935  0.1067 -1.8598
 4256TIP3   OH212773   4.443   2.582   4.409 -0.5455  0.0258  0.0716
 4256TIP3    H112774   4.409   2.511   4.464 -1.4544 -0.9775 -1.6996
 4256TIP3    H212775   4.400   2.660   4.443 -0.8784 -0.5137  0.9416
 4257TIP3   OH212776   5.411   2.728   0.219  0.4169  0.1066 -0.3137
 4257TIP3    H112777   5.352   2.691   0.153  1.0824  0.4687 -1.1218
 4257TIP3    H212778   5.374   2.813   0.240 -0.5248 -0.5338  0.7688
 4258TIP3   OH212779   5.443   1.635   0.052 -0.4969 -0.1270 -0.3260
 4258TIP3    H112780   5.486   1.611   0.134  0.7925 -0.7197 -1.1603
 4258TIP3    H212781   5.474   1.571  -0.012  0.1485  1.5580 -1.7689
 4259TIP3   OH212782   4.873   0.792   2.428  0.5923  0.2731  0.7673
 4259TIP3    H112783   4.868   0.878   2.387  1.5955  0.0691  0.1748
 4259TIP3    H212784   4.861   0.808   2.521 -0.8869  0.8502  0.4919
 4260TIP3   OH212785   2.703   3.514   1.626 -0.4656 -0.1838  0.6962
 4260TIP3    H112786   2.628   3.464   1.658 -0.7261  0.9087  1.8522
 4260TIP3    H212787   2.757   3.449   1.581 -2.7389 -0.7634 -1.4086
 4261TIP3   OH212788   4.977   5.279   0.807  0.0361 -0.1514 -0.0467
 4261TIP3    H112789   5.004   5.246   0.721  0.9967  1.3865 -0.3761
 4261TIP3    H212790   4.934   5.362   0.788 -0.9899 -0.4418  0.8788
 4262TIP3   OH212791   4.634   4.103   1.143 -0.0330 -0.7232  0.1804
 4262TIP3    H112792   4.602   4.187   1.177  1.6119 -0.2482  0.6362
 4262TIP3    H212793   4.661   4.123   1.054  2.4399 -0.1624  0.9813
 4263TIP3   OH212794   2.611   5.260   0.049  0.1238  0.2056  0.0520
 4263TIP3    H112795   2.639   5.351   0.060 -1.0605  0.4620  1.2534
 4263TIP3    H212796   2.671   5.209   0.104  0.7482  0.2628 -0.5728
 4264TIP3   OH212797   0.152   4.619   4.202 -0.1954 -0.2333 -0.0517
 4264TIP3    H112798   0.066   4.577   4.199 -0.1115 -0.4032 -0.1122
 4264TIP3    H212799   0.210   4.560   4.153 -0.5773  1.1950 -2.3774
 4265TIP3   OH212800   0.572   1.852   2.004  0.3009 -0.2710  0.3401
 4265TIP3    H112801   0.550   1.930   2.056  1.4234  0.7743 -0.6797
 4265TIP3    H212802   0.666   1.842   2.016  0.3576 -0.7540 -0.4946
 4266TIP3   OH212803   3.453   4.839   2.854  0.7391 -0.3568 -0.7206
 4266TIP3    H112804   3.440   4.910   2.916 -0.6109 -0.9259 -0.3177
 4266TIP3    H212805   3.539   4.803   2.875  1.4189  1.1135 -0.9122
 4267TIP3   OH212806   4.860   5.429   4.699 -0.0099 -0.4232 -0.0266
 4267TIP3    H112807   4.907   5.353   4.664 -1.9421 -1.9123  0.4795
 4267TIP3    H212808   4.770   5.400   4.709 -0.2445  0.9354  3.0854
 4268TIP3   OH212809   1.322   5.515   4.147  0.0278  0.2638 -0.5148
 4268TIP3    H112810   1.395   5.475   4.099  0.1654 -0.4234  0.2344
 4268TIP3    H212811   1.326   5.608   4.124  1.7571  0.4243  0.2631
 4269TIP3   OH212812   5.073   5.690   3.193 -0.1505 -0.3028  0.5064
 4269TIP3    H112813   5.056   5.766   3.137  0.8672 -0.4565 -0.0457
 4269TIP3    H212814   5.110   5.727   3.273  1.9691 -0.2564 -0.4150
 4270TIP3   OH212815   5.561   0.151   3.695  0.2304  0.2344  0.4817
 4270TIP3    H112816   5.554   0.201   3.613  1.1397 -0.3741  0.0190
 4270TIP3    H212817   5.557   0.060   3.667  2.5087 -0.0322  0.8883
 4271TIP3   OH212818   3.574   4.568   0.791 -0.4792 -0.5194  0.5527
 4271TIP3    H112819   3.662   4.578   0.753 -0.3046  3.6759  1.5917
 4271TIP3    H212820   3.588   4.524   0.875  0.8937  1.3151  1.3356
 4272TIP3   OH212821   5.724   5.364   2.948  0.8116  0.3856  0.1617
 4272TIP3    H112822   5.687   5.288   2.993  1.2999  0.0962  0.0780
 4272TIP3    H212823   5.817   5.362   2.971  0.9495  0.5803 -0.3774
 4273TIP3   OH212824   4.805   5.533   2.836  0.0328  0.9276  0.2310
 4273TIP3    H112825   4.812   5.591   2.912  0.1443 -0.0809  1.0133
 4273TIP3    H212826   4.711   5.520   2.824  0.0412 -0.4858  1.4552
 4274TIP3   OH212827   1.679   2.682   5.115  0.1789 -0.6847 -0.1144
 4274TIP3    H112828   1.628   2.655   5.191  0.7124  2.7750  1.6605
 4274TIP3    H212829   1.618   2.731   5.061  0.2745 -1.5157 -1.0069
 4275TIP3   OH212830   3.300   2.929   2.580 -0.1634  0.6005  0.2687
 4275TIP3    H112831   3.273   2.840   2.558  1.4780 -0.7286  3.0574
 4275TIP3    H212832   3.342   2.962   2.501 -2.4010 -0.3284 -1.4302
 4276TIP3   OH212833   3.453   4.601   1.940 -0.1327 -0.0157  0.0360
 4276TIP3    H112834   3.419   4.625   1.854  0.6491  2.6054  0.3480
 4276TIP3    H212835   3.383   4.550   1.981 -2.1454  1.9404 -0.7478
 4277TIP3   OH212836   3.119   3.021   4.986  0.6028 -0.6518  0.4914
 4277TIP3    H112837   3.186   3.018   5.055  0.5045 -1.7986  0.5679
 4277TIP3    H212838   3.151   2.958   4.920  1.3405  1.3150 -1.1379
 4278TIP3   OH212839   6.262   2.361   0.303 -0.1749  0.1453  0.0905
 4278TIP3    H112840   6.355   2.363   0.326  0.3814  2.7463 -1.9129
 4278TIP3    H212841   6.221   2.417   0.369 -0.5778 -1.8272  1.6030
 4279TIP3   OH212842   0.624   4.064   1.841 -0.6211  0.1208  0.4105
 4279TIP3    H112843   0.554   4.060   1.906 -0.7681  0.5357  0.2791
 4279TIP3    H212844   0.671   4.145   1.862  0.0916 -0.3745  0.7783
 4280TIP3   OH212845   2.568   1.706   1.893  0.5178 -0.2716 -0.2651
 4280TIP3    H112846   2.519   1.787   1.907  1.0834 -0.0152  0.2652
 4280TIP3    H212847   2.503   1.645   1.857 -0.3302 -0.1163  0.9412
 4281TIP3   OH212848   1.067   0.092   1.460 -0.1975  0.6322 -0.1642
 4281TIP3    H112849   1.034   0.099   1.549  0.9395  2.6211  0.1422
 4281TIP3    H212850   1.141   0.030   1.467 -1.4391 -0.9163 -0.1802
 4282TIP3   OH212851   0.438   2.135   0.063 -0.2659 -0.1093  0.4539
 4282TIP3    H112852   0.387   2.198   0.012 -2.1991 -1.3099  0.7903
 4282TIP3    H212853   0.496   2.189   0.116 -1.0197  1.3373 -0.1262
 4283TIP3   OH212854   1.926   3.458   4.200 -0.1418  0.0671 -0.1252
 4283TIP3    H112855   1.917   3.365   4.222 -1.3852  0.1202 -0.3233
 4283TIP3    H212856   1.838   3.493   4.212  0.5437  1.4704  1.0548
 4284TIP3   OH212857   0.079   0.674   0.695  0.0868 -0.2694 -0.2767
 4284TIP3    H112858   0.160   0.716   0.668 -0.0209  1.2266  1.5055
 4284TIP3    H212859   0.096   0.580   0.687  2.1751 -0.0107  0.5064
 4285TIP3   OH212860   3.153   5.074   3.235  0.0671  0.1948  0.2501
 4285TIP3    H112861   3.084   5.135   3.208  1.1684  1.5569  0.4202
 4285TIP3    H212862   3.106   4.999   3.270 -1.3408  0.6901 -0.4925
 4286TIP3   OH212863   3.095   2.534   0.889  0.2704 -0.1734  0.0804
 4286TIP3    H112864   3.061   2.462   0.944 -0.5753 -1.6686 -2.2487
 4286TIP3    H212865   3.176   2.561   0.933  1.4878 -3.6466  0.2874
 4287TIP3   OH212866   1.591   3.983   2.342  0.7462 -0.1975 -0.2191
 4287TIP3    H112867   1.557   4.072   2.332  1.5116  0.1895  0.4887
 4287TIP3    H212868   1.517   3.933   2.376 -0.1307 -0.1984 -1.9890
 4288TIP3   OH212869   0.693   5.841   2.509 -0.0855 -0.8398  0.0551
 4288TIP3    H112870   0.766   5.780   2.518  0.5055 -0.1261  0.2237
 4288TIP3    H212871   0.733   5.927   2.523 -1.0856 -0.4934  0.8940
 4289TIP3   OH212872   0.950   1.416   3.296 -0.1944 -0.0012  0.0492
 4289TIP3    H112873   1.037   1.393   3.330 -0.4412  0.3632  0.9620
 4289TIP3    H212874   0.966   1.444   3.206  0.7721  0.8783  0.4648
 4290TIP3   OH212875   0.395   0.527   2.598  0.2742  0.0518  0.2087
 4290TIP3    H112876   0.435   0.599   2.647 -1.0580  0.9466  0.0541
 4290TIP3    H212877   0.301   0.544   2.605 -0.0373 -1.3283 -0.3899
 4291TIP3   OH212878   3.299   3.477   0.078  0.4106 -0.4287  0.1279
 4291TIP3    H112879   3.212   3.441   0.059 -0.2856  0.0702  2.0929
 4291TIP3    H212880   3.356   3.401   0.087 -0.7935 -1.0966  3.1298
 4292TIP3   OH212881   1.577   4.172   4.634 -0.0970  0.5248  0.3891
 4292TIP3    H112882   1.672   4.166   4.643 -0.0086 -0.3389 -0.8745
 4292TIP3    H212883   1.564   4.223   4.555 -0.6826  0.3063  0.3434
 4293TIP3   OH212884   1.468   4.838   0.012 -0.1139  0.0534  0.0376
 4293TIP3    H112885   1.434   4.844   0.101  1.2278 -1.8915  0.7479
 4293TIP3    H212886   1.392   4.813  -0.041 -1.1549  2.2271  0.3795
 4294TIP3   OH212887   4.914   3.213   0.073  0.2328 -0.0347 -0.2383
 4294TIP3    H112888   4.822   3.185   0.069  0.4958 -0.8405 -1.1303
 4294TIP3    H212889   4.951   3.162   0.145 -0.0548  0.3980  0.2161
 4295TIP3   OH212890   0.324   5.024   2.477 -0.2061 -0.2831 -0.4207
 4295TIP3    H112891   0.291   4.986   2.558  1.3492  0.7797  0.7858
 4295TIP3    H212892   0.412   4.988   2.467 -0.2328 -0.1110 -1.4602
 4296TIP3   OH212893   5.374   4.221   4.863  0.2795  0.1516 -0.3537
 4296TIP3    H112894   5.461   4.259   4.872  0.2028  0.1909  0.2679
 4296TIP3    H212895   5.353   4.186   4.950 -1.3500  2.3971  0.2770
 4297TIP3   OH212896   1.178   0.331   3.082 -0.2732  0.0460 -0.5577
 4297TIP3    H112897   1.143   0.415   3.113 -1.4390 -0.7276  0.3154
 4297TIP3    H212898   1.140   0.266   3.142  0.9808 -1.0613 -0.9278
 4298TIP3   OH212899   3.674   1.024   0.193  0.3242 -0.0093  0.2659
 4298TIP3    H112900   3.592   1.014   0.241 -0.0944  1.3037 -0.1263
 4298TIP3    H212901   3.727   1.082   0.248  0.5454  0.0492 -0.0052
 4299TIP3   OH212902   2.435   5.127   0.928 -0.2948 -0.2752 -0.0261
 4299TIP3    H112903   2.426   5.158   0.838 -1.5727  1.0971  0.5361
 4299TIP3    H212904   2.346   5.132   0.964  0.4653  0.8686  1.8283
 4300TIP3   OH212905   0.113   3.004   1.870 -0.7359 -0.4103  0.2101
 4300TIP3    H112906   0.187   2.950   1.842 -1.0090  0.2934 -2.0177
 4300TIP3    H212907   0.142   3.094   1.855 -1.1928 -0.0188  1.5602
 4301TIP3   OH212908   1.603   1.080   4.802 -0.8197 -0.1206 -0.0572
 4301TIP3    H112909   1.684   1.113   4.763 -1.2530  1.6061  0.4301
 4301TIP3    H212910   1.601   1.120   4.889 -1.7629 -0.8657  0.2763
 4302TIP3   OH212911   2.388   2.738   5.181 -0.3263 -0.0643 -0.3050
 4302TIP3    H112912   2.327   2.700   5.119  0.1364 -0.5005 -0.5000
 4302TIP3    H212913   2.446   2.665   5.206  0.8600  0.5945 -1.0233
 4303TIP3   OH212914   4.720   1.056   4.760  0.1497  0.0744  0.4024
 4303TIP3    H112915   4.746   0.998   4.832  0.0556  0.9157  1.1390
 4303TIP3    H212916   4.768   1.023   4.684  1.0113 -0.2462  1.0659
 4304TIP3   OH212917   5.965   3.112   1.482  0.0696  0.1745  0.2690
 4304TIP3    H112918   6.047   3.102   1.531 -0.3105 -0.7967  0.7401
 4304TIP3    H212919   5.918   3.030   1.497 -0.1542 -0.0706 -1.5664
 4305TIP3   OH212920   3.177   3.920   0.900 -0.3519  0.1420  0.1146
 4305TIP3    H112921   3.098   3.911   0.847 -0.2265 -1.2766  0.1324
 4305TIP3    H212922   3.160   3.995   0.957 -1.7877 -0.2863  0.2839
 4306TIP3   OH212923   2.805   0.626   3.218 -0.2087 -0.8828  0.2864
 4306TIP3    H112924   2.756   0.622   3.136  0.5824  0.2362 -0.2689
 4306TIP3    H212925   2.894   0.601   3.194  1.1092  3.4089 -0.1995
 4307TIP3   OH212926   0.768   3.766   4.718  0.1033 -0.2855  0.4237
 4307TIP3    H112927   0.683   3.788   4.756  0.9524  2.1451  1.1121
 4307TIP3    H212928   0.831   3.818   4.768  1.6290  0.4457 -2.0633
 4308TIP3   OH212929   5.114   0.568   5.063  0.8371 -0.1734 -0.9114
 4308TIP3    H112930   5.174   0.500   5.032  1.5262 -0.0375  0.0635
 4308TIP3    H212931   5.171   0.631   5.108 -0.1504 -0.6111  1.0508
 4309TIP3   OH212932   1.815   0.456   4.973  0.1899 -0.1706 -0.1022
 4309TIP3    H112933   1.847   0.387   5.032 -0.7020 -1.1186 -0.7037
 4309TIP3    H212934   1.723   0.434   4.958  0.0044  0.9307 -0.6263
 4310TIP3   OH212935   5.372   2.957   4.940 -0.1026  0.4322 -0.4446
 4310TIP3    H112936   5.332   2.890   4.884  2.1090 -2.2604  0.9199
 4310TIP3    H212937   5.428   3.007   4.881 -1.4395  0.8338 -1.4220
 4311TIP3   OH212938   5.306   5.347   3.196 -0.4525 -0.0486 -0.1187
 4311TIP3    H112939   5.235   5.358   3.259  0.8577  0.3486  1.3529
 4311TIP3    H212940   5.374   5.407   3.227 -0.2521  1.2102 -2.7096
 4312TIP3   OH212941   1.774   2.614   3.535 -0.0255  0.1319 -0.2504
 4312TIP3    H112942   1.869   2.622   3.537  0.0269 -0.2318 -1.0448
 4312TIP3    H212943   1.754   2.581   3.448 -0.9729  1.3598 -0.5261
 4313TIP3   OH212944   5.270   5.670   0.880 -0.1260  0.5012  0.3043
 4313TIP3    H112945   5.317   5.592   0.852 -1.5468  0.0366 -0.9124
 4313TIP3    H212946   5.225   5.643   0.961  1.8864  1.0623  1.6948
 4314TIP3   OH212947   3.187   1.503   4.493 -0.6485  0.0976  0.4423
 4314TIP3    H112948   3.113   1.450   4.521 -1.3138  0.4845 -0.5504
 4314TIP3    H212949   3.164   1.593   4.519 -0.3261  0.1627  0.5172
 4315TIP3   OH212950   4.197   5.135   2.890  0.5797 -0.8112 -0.0063
 4315TIP3    H112951   4.147   5.183   2.956 -1.3253 -0.7093 -1.4438
 4315TIP3    H212952   4.152   5.051   2.882  0.6733 -0.7574 -1.2780
 4316TIP3   OH212953   0.682   3.407   0.980  0.0404 -0.1727 -0.1279
 4316TIP3    H112954   0.665   3.315   0.960 -2.3322  0.0731  0.4213
 4316TIP3    H212955   0.643   3.455   0.907  0.3242  0.4200  0.1044
 4317TIP3   OH212956   0.477   4.453   1.967  0.3160  0.2689  0.1231
 4317TIP3    H112957   0.393   4.414   1.989  0.9560 -0.9880  0.4104
 4317TIP3    H212958   0.455   4.529   1.913 -0.9619 -0.4830 -0.4454
 4318TIP3   OH212959   5.591   5.490   4.445  0.5879  0.1367 -0.2091
 4318TIP3    H112960   5.604   5.584   4.458  1.4924 -0.0339  0.2278
 4318TIP3    H212961   5.500   5.475   4.468  0.0702  1.0986 -1.4881
 4319TIP3   OH212962   2.439   3.841   1.973 -0.3733 -1.0163 -0.2560
 4319TIP3    H112963   2.526   3.875   1.995 -0.8456 -0.6189  1.1104
 4319TIP3    H212964   2.452   3.747   1.961  0.4258 -0.8062 -1.1597
 4320TIP3   OH212965   1.825   3.216   0.163  0.0932 -0.2226  0.2350
 4320TIP3    H112966   1.792   3.127   0.154  0.4418 -0.3177 -0.1485
 4320TIP3    H212967   1.750   3.272   0.143  0.6373 -0.4182 -2.8545
 4321TIP3   OH212968   0.645   4.471   4.058  0.6149 -0.7684 -0.7692
 4321TIP3    H112969   0.590   4.548   4.077  1.3646  0.1852 -2.2559
 4321TIP3    H212970   0.700   4.462   4.136  0.5158  0.2152 -0.5667
 4322TIP3   OH212971   3.963   0.341   2.671 -0.2382  0.1564 -0.1417
 4322TIP3    H112972   3.909   0.269   2.639  0.1392  0.6551 -1.9884
 4322TIP3    H212973   4.052   0.306   2.672 -0.2244  0.1986  0.2112
 4323TIP3   OH212974   0.828   4.898   1.614  0.7858  0.7263 -0.1201
 4323TIP3    H112975   0.733   4.888   1.621  0.8216 -0.9133 -1.2297
 4323TIP3    H212976   0.842   4.992   1.605 -0.7340  0.9893 -0.0486
 4324TIP3   OH212977   2.530   0.091   0.633  0.2135 -0.5702 -0.7543
 4324TIP3    H112978   2.605   0.135   0.673  0.3491 -1.3127 -0.1458
 4324TIP3    H212979   2.569   0.022   0.578 -0.0079 -0.9069 -0.4977
 4325TIP3   OH212980   3.250   2.176   3.742 -0.5066 -0.0913 -0.0508
 4325TIP3    H112981   3.327   2.230   3.723 -0.1272 -0.0451  1.4886
 4325TIP3    H212982   3.284   2.088   3.754 -0.8716 -0.3175 -0.6341
 4326TIP3   OH212983   5.679   5.112   5.132 -0.0356  0.3947  0.3489
 4326TIP3    H112984   5.672   5.125   5.037  1.2331 -4.0462 -0.5506
 4326TIP3    H212985   5.588   5.101   5.161 -0.3241  0.0112 -0.6665
 4327TIP3   OH212986   5.079   4.621   2.207 -0.3164 -0.0100  0.0109
 4327TIP3    H112987   5.135   4.633   2.284  0.9266  1.1877 -1.0128
 4327TIP3    H212988   4.997   4.665   2.230  0.1943  0.7175  0.5020
 4328TIP3   OH212989   3.566   1.904   2.331 -0.7193  0.2825  0.1171
 4328TIP3    H112990   3.503   1.919   2.401 -1.1574 -3.3748  0.6980
 4328TIP3    H212991   3.641   1.861   2.374 -1.1186 -2.3228 -1.5571
 4329TIP3   OH212992   2.581   0.093   4.741  0.1981  0.1956 -0.2943
 4329TIP3    H112993   2.565   0.185   4.720 -0.6339  0.0242 -0.4355
 4329TIP3    H212994   2.675   0.088   4.757  0.8275  0.4394 -3.4215
 4330TIP3   OH212995   5.848   2.798   1.052  0.1227 -0.2285  0.4109
 4330TIP3    H112996   5.793   2.865   1.011  0.5880  0.6816  1.2096
 4330TIP3    H212997   5.937   2.821   1.026  0.1723 -1.5945 -0.7418
 4331TIP3   OH212998   2.054   3.262   3.839  0.4034 -0.4246  0.6010
 4331TIP3    H112999   1.996   3.229   3.770  0.0387 -0.2483  0.8256
 4331TIP3    H213000   2.131   3.295   3.792 -0.6240  1.4037  0.1217
 4332TIP3   OH213001   5.180   5.329   4.356  0.3154  0.2349  0.7838
 4332TIP3    H113002   5.163   5.347   4.264  0.7206  0.1438  0.6903
 4332TIP3    H213003   5.219   5.242   4.358  0.0672  0.1266  1.0670
 4333TIP3   OH213004   0.592   5.013   2.390 -0.1752 -0.0036  0.1594
 4333TIP3    H113005   0.627   5.097   2.361  0.1300  0.4643  1.7975
 4333TIP3    H213006   0.616   4.952   2.320 -2.0386  1.5567 -2.0082
 4334TIP3   OH213007   0.268   4.942   4.954  0.3786  0.8403 -0.4120
 4334TIP3    H113008   0.289   4.967   5.044  0.3177  3.0040 -0.9415
 4334TIP3    H213009   0.192   4.996   4.931 -0.3636 -0.5488 -1.3966
 4335TIP3   OH213010   1.424   1.809   2.155 -0.5295 -0.3472 -0.4146
 4335TIP3    H113011   1.518   1.814   2.137 -0.5974  0.1281 -0.6601
 4335TIP3    H213012   1.416   1.745   2.226  0.0401  0.0372  0.0084
 4336TIP3   OH213013   4.888   1.717   2.450  0.1168 -0.0063 -0.4754
 4336TIP3    H113014   4.853   1.678   2.531  0.6799  1.5766  0.5797
 4336TIP3    H213015   4.933   1.796   2.479  0.9630  0.2303 -2.2824
 4337TIP3   OH213016   3.110   0.561   3.244 -0.3334  0.2037 -0.1653
 4337TIP3    H113017   3.185   0.526   3.292 -0.9675 -0.8152  0.1119
 4337TIP3    H213018   3.081   0.637   3.295 -0.2050 -0.0976  0.3637
 4338TIP3   OH213019   0.842   1.540   4.422  0.5628 -0.0026  0.0899
 4338TIP3    H113020   0.834   1.469   4.358  0.9475  0.0805 -0.0574
 4338TIP3    H213021   0.808   1.617   4.376  0.4044 -0.0356  0.1512
 4339TIP3   OH213022   2.098   2.875   4.283 -0.2410 -0.0493 -0.5203
 4339TIP3    H113023   2.147   2.806   4.240 -1.8302 -1.6339  0.0975
 4339TIP3    H213024   2.023   2.892   4.226 -0.6055  0.1797  0.0120
 4340TIP3   OH213025   0.499   3.114   1.684  0.6152  0.8119 -0.0218
 4340TIP3    H113026   0.442   3.111   1.607  1.7668  0.6723 -0.8876
 4340TIP3    H213027   0.491   3.026   1.722 -0.7098  1.1706  0.6185
 4341TIP3   OH213028   3.426   1.749   1.690  0.0166 -0.0739 -0.2690
 4341TIP3    H113029   3.482   1.708   1.624 -0.2373  0.6868 -0.9726
 4341TIP3    H213030   3.463   1.836   1.702 -0.3445  0.0348  0.0933
 4342TIP3   OH213031   0.761   5.229   2.335  0.3976  0.0525 -0.3283
 4342TIP3    H113032   0.773   5.320   2.359 -0.1426 -0.1911  0.9615
 4342TIP3    H213033   0.849   5.199   2.311  0.6246  0.8281 -0.4941
 4343TIP3   OH213034   6.295   0.787   2.015  0.1040  0.6509 -0.0452
 4343TIP3    H113035   6.235   0.718   1.987  0.2710  0.3897  0.2281
 4343TIP3    H213036   6.380   0.743   2.019 -0.0243  0.4926  1.5415
 4344TIP3   OH213037   2.150   0.518   1.397  0.1248  0.3278  0.1590
 4344TIP3    H113038   2.237   0.490   1.425  0.4668 -0.3637 -1.5104
 4344TIP3    H213039   2.165   0.596   1.343 -0.4351  1.0211  0.9668
 4345TIP3   OH213040   1.014   2.944   4.411  0.3947 -0.8473 -0.3586
 4345TIP3    H113041   1.109   2.954   4.411  0.5014 -1.6462 -1.2865
 4345TIP3    H213042   0.988   2.956   4.502  1.3771 -0.5633 -0.1048
 4346TIP3   OH213043   4.299   4.540   0.302  0.1532 -0.1262 -0.2910
 4346TIP3    H113044   4.263   4.595   0.233  1.5150 -0.4505 -1.3071
 4346TIP3    H213045   4.393   4.534   0.282  0.5014 -0.6292  1.3152
 4347TIP3   OH213046   2.153   2.358   2.449  0.4333 -0.0359  0.4675
 4347TIP3    H113047   2.058   2.347   2.456  0.3110  1.0612  0.6441
 4347TIP3    H213048   2.165   2.451   2.432  1.3838 -0.4306 -1.3194
 4348TIP3   OH213049   2.738   4.715   0.755 -0.0904  0.2529  0.5278
 4348TIP3    H113050   2.817   4.711   0.700 -0.5964  0.3232 -0.2087
 4348TIP3    H213051   2.772   4.726   0.844  0.7504 -0.1807  0.2727
 4349TIP3   OH213052   3.001   4.046   3.167 -0.1586 -0.1912  0.1982
 4349TIP3    H113053   2.965   3.957   3.160  2.4119 -1.2389 -1.2557
 4349TIP3    H213054   2.925   4.103   3.162 -1.6759 -2.2157 -2.5777
 4350TIP3   OH213055   5.683   0.864   3.478 -0.8922  0.1843  0.1794
 4350TIP3    H113056   5.637   0.933   3.524 -0.5883 -0.4408  1.4590
 4350TIP3    H213057   5.627   0.787   3.487 -0.4244 -0.1536  0.2392
 4351TIP3   OH213058   3.579   1.862   0.855 -0.1077  0.1247  0.2614
 4351TIP3    H113059   3.600   1.776   0.818  0.7197 -0.4108  1.8634
 4351TIP3    H213060   3.610   1.857   0.946  3.9526  3.5160 -0.6274
 4352TIP3   OH213061   1.535   5.904   2.502 -0.1775 -0.1121  0.5136
 4352TIP3    H113062   1.456   5.883   2.453  0.0621 -0.9112  0.4548
 4352TIP3    H213063   1.507   5.905   2.594 -0.8819  2.5085  0.3693
 4353TIP3   OH213064   2.989   5.545   2.475  0.4970  0.1460  0.6187
 4353TIP3    H113065   2.999   5.451   2.490 -1.0239 -0.0111  0.8383
 4353TIP3    H213066   2.986   5.583   2.562  0.5686  0.3359  0.5394
 4354TIP3   OH213067   1.029   3.678   4.641 -0.4412 -0.6757  0.3102
 4354TIP3    H113068   0.985   3.762   4.626 -1.1668 -1.1032 -0.0176
 4354TIP3    H213069   1.036   3.673   4.737 -0.7314 -0.4080  0.3519
 4355TIP3   OH213070   4.416   5.827   4.145  0.0032 -0.7118  0.3022
 4355TIP3    H113071   4.379   5.911   4.172 -1.5463 -0.0974 -3.1966
 4355TIP3    H213072   4.340   5.771   4.131  0.6933 -1.2496 -1.6120
 4356TIP3   OH213073   3.542   1.464   4.471 -0.1839 -0.4633 -0.1204
 4356TIP3    H113074   3.493   1.512   4.404 -0.4818 -0.8392 -0.1750
 4356TIP3    H213075   3.475   1.422   4.525  0.0568 -2.1240 -1.0263
 4357TIP3   OH213076   0.544   3.094   1.190  0.8191  0.5251 -0.1060
 4357TIP3    H113077   0.558   3.011   1.236 -0.1241 -0.3119 -1.2729
 4357TIP3    H213078   0.596   3.087   1.110  0.7668  1.0667 -0.1935
 4358TIP3   OH213079   5.042   2.263   2.545 -0.8451 -0.3754 -0.8814
 4358TIP3    H113080   5.085   2.306   2.619 -1.2884 -1.4886  0.0472
 4358TIP3    H213081   5.083   2.302   2.468  0.9166 -0.4775 -0.0367
 4359TIP3   OH213082   2.029   4.690   3.993  0.4986  0.1311  0.1777
 4359TIP3    H113083   2.104   4.728   4.039  0.9715  0.1799 -0.6087
 4359TIP3    H213084   1.965   4.671   4.062  1.1693  0.2429  0.8403
 4360TIP3   OH213085   4.929   2.434   2.266  0.6679  0.4938  0.2461
 4360TIP3    H113086   4.875   2.356   2.252  1.0630 -0.0965  1.8926
 4360TIP3    H213087   5.014   2.400   2.293  0.7225  1.4931  1.4017
 4361TIP3   OH213088   3.171   0.735   1.696  0.5422  0.2529  0.0144
 4361TIP3    H113089   3.257   0.695   1.707  1.0100 -0.0221 -3.5125
 4361TIP3    H213090   3.111   0.662   1.687 -0.1454  0.4469  2.2953
 4362TIP3   OH213091   5.804   3.676   4.905  0.0500  0.0523  0.7033
 4362TIP3    H113092   5.825   3.682   4.812  0.6749 -1.1927  0.7413
 4362TIP3    H213093   5.799   3.767   4.935 -1.1539  0.5050 -0.7482
 4363TIP3   OH213094   3.666   0.988   0.578  0.5412 -0.3981 -0.2225
 4363TIP3    H113095   3.587   1.009   0.528 -0.4610 -1.2969  0.9379
 4363TIP3    H213096   3.724   0.947   0.514 -0.2788 -0.5316 -0.9029
 4364TIP3   OH213097   6.170   1.374   1.707 -0.1644  0.2522  0.2845
 4364TIP3    H113098   6.166   1.382   1.611  1.4432  1.7280  0.2906
 4364TIP3    H213099   6.121   1.450   1.739 -2.5770 -1.3962  0.7181
 4365TIP3   OH213100   3.373   2.956   3.770 -0.1623 -0.3764  0.3711
 4365TIP3    H113101   3.391   2.866   3.744  0.9575  0.6733 -3.0085
 4365TIP3    H213102   3.459   2.999   3.772 -0.8266  1.0649 -0.1121
 4366TIP3   OH213103   2.447   0.852   1.517 -0.0158 -0.2235  0.7311
 4366TIP3    H113104   2.389   0.920   1.550 -1.7148 -1.1573 -0.1964
 4366TIP3    H213105   2.422   0.773   1.564  2.1152 -0.2260  1.9886
 4367TIP3   OH213106   0.439   2.327   1.203 -0.1379 -0.1246  0.4310
 4367TIP3    H113107   0.527   2.349   1.172  0.1612 -0.2950  1.1472
 4367TIP3    H213108   0.421   2.242   1.163 -1.2654  1.2515 -2.2722
 4368TIP3   OH213109   4.370   0.569   2.625 -0.4218 -0.1551 -0.2381
 4368TIP3    H113110   4.399   0.584   2.535  2.0073 -0.1140  0.4973
 4368TIP3    H213111   4.332   0.653   2.652 -1.5252 -0.2830 -1.3218
 4369TIP3   OH213112   3.369   4.639   5.102  0.5665  0.3882  0.1537
 4369TIP3    H113113   3.407   4.725   5.123 -0.5464  1.0833 -0.5636
 4369TIP3    H213114   3.443   4.579   5.106  1.2715  1.2761  1.2420
 4370TIP3   OH213115   3.678   4.482   0.026  0.3090 -0.2886 -0.1218
 4370TIP3    H113116   3.608   4.522  -0.026 -0.9836 -1.9793  0.2157
 4370TIP3    H213117   3.648   4.393   0.042  0.7559  0.0278  3.2936
 4371TIP3   OH213118   2.765   2.588   2.372  0.3778 -0.1208 -0.3616
 4371TIP3    H113119   2.802   2.500   2.380  2.3371  0.7723  1.5589
 4371TIP3    H213120   2.688   2.587   2.428  1.8143  0.0054  1.7311
 4372TIP3   OH213121   0.051   1.572   4.894 -0.1804 -0.0430  0.0995
 4372TIP3    H113122   0.026   1.551   4.804 -1.1882 -0.7120  0.5099
 4372TIP3    H213123   0.017   1.499   4.946 -0.4725  0.8021  1.1413
 4373TIP3   OH213124   3.851   5.537   3.908  0.1310  0.2111 -0.0336
 4373TIP3    H113125   3.861   5.578   3.822  2.2736  1.2369  0.6394
 4373TIP3    H213126   3.773   5.578   3.945 -0.4857  0.1802 -1.2474
 4374TIP3   OH213127   4.527   1.742   0.089 -0.0612 -0.1901 -0.5767
 4374TIP3    H113128   4.548   1.671   0.149 -0.9036  0.3478  0.3961
 4374TIP3    H213129   4.611   1.781   0.066  0.3518 -1.0566 -0.5933
 4375TIP3   OH213130   0.590   1.485   0.940 -0.1056  0.1764 -0.3318
 4375TIP3    H113131   0.622   1.410   0.889 -3.5259 -1.7602  0.0236
 4375TIP3    H213132   0.547   1.445   1.016  0.1923  2.7023  1.2710
 4376TIP3   OH213133   4.125   1.662   2.852 -0.0185 -0.2856 -0.1822
 4376TIP3    H113134   4.035   1.662   2.883 -0.2722 -1.1322 -0.8506
 4376TIP3    H213135   4.132   1.739   2.796 -0.1135  0.1711  0.4307
 4377TIP3   OH213136   5.032   5.280   1.480  0.5696 -0.1469  0.4154
 4377TIP3    H113137   5.052   5.307   1.570 -0.9973 -0.1591  0.8101
 4377TIP3    H213138   5.027   5.362   1.431  0.6702 -0.0837  0.5099
 4378TIP3   OH213139   0.152   1.092   2.066  0.0272  0.2968  0.0609
 4378TIP3    H113140   0.225   1.047   2.025 -0.4533 -0.0633 -0.4021
 4378TIP3    H213141   0.186   1.180   2.084  0.2391  0.4711 -1.1261
 4379TIP3   OH213142   5.715   0.530   3.851  0.0836  0.1486  0.0767
 4379TIP3    H113143   5.715   0.464   3.920 -0.7889  1.3565  1.2972
 4379TIP3    H213144   5.622   0.550   3.837  0.1608 -0.8010 -2.2243
 4380TIP3   OH213145   1.018   2.249   3.177 -0.1045 -0.0914  0.2365
 4380TIP3    H113146   1.003   2.199   3.257 -1.3655  0.8561  0.6209
 4380TIP3    H213147   1.092   2.306   3.198 -0.5049  0.2381  0.7656
 4381TIP3   OH213148   4.251   1.152   3.875 -0.1233  0.3792  0.0264
 4381TIP3    H113149   4.343   1.159   3.898 -0.2589 -0.0906  0.7552
 4381TIP3    H213150   4.214   1.237   3.898 -0.0168  0.3145  0.4505
 4382TIP3   OH213151   3.643   0.635   0.485  0.3387  0.5566 -0.4211
 4382TIP3    H113152   3.590   0.566   0.443  0.8304 -1.4116  1.9534
 4382TIP3    H213153   3.595   0.716   0.468 -1.6765 -0.7137 -1.1419
 4383TIP3   OH213154   2.015   2.420   4.258 -0.0550  0.0681 -0.0713
 4383TIP3    H113155   1.951   2.394   4.192  0.1848 -1.6038  0.3038
 4383TIP3    H213156   2.089   2.453   4.207  0.0206 -0.9499 -0.6514
 4384TIP3   OH213157   1.907   5.016   5.147 -0.2208  0.3425 -0.0447
 4384TIP3    H113158   1.841   5.020   5.077 -1.6667 -0.7820  1.1896
 4384TIP3    H213159   1.859   4.986   5.224  1.5059  0.6990  1.2417
 4385TIP3   OH213160   4.261   2.877   3.106  0.8393 -0.1757 -0.4010
 4385TIP3    H113161   4.293   2.789   3.086 -1.7352 -1.6388  1.2497
 4385TIP3    H213162   4.309   2.903   3.185 -1.5667 -2.2699  1.9568
 4386TIP3   OH213163   3.179   4.258   1.450  0.4740  0.1524 -0.2194
 4386TIP3    H113164   3.165   4.345   1.414  1.4679  1.5176  2.4572
 4386TIP3    H213165   3.197   4.272   1.543 -0.2521 -2.9884  0.5332
 4387TIP3   OH213166   0.717   0.971   2.257  0.5381  0.5221  0.4571
 4387TIP3    H113167   0.730   0.959   2.163  1.6473 -0.6109  0.7298
 4387TIP3    H213168   0.633   1.016   2.264 -1.0173 -1.9387 -0.9614
 4388TIP3   OH213169   3.975   5.396   1.675  0.2386  0.5383 -0.2586
 4388TIP3    H113170   4.024   5.465   1.628 -1.1560  2.1637  0.5563
 4388TIP3    H213171   3.883   5.417   1.658 -0.2722 -2.1304 -1.3161
 4389TIP3   OH213172   4.740   3.784   3.541 -0.0262 -0.1423  0.4095
 4389TIP3    H113173   4.797   3.768   3.465  0.6916  0.4136  0.8161
 4389TIP3    H213174   4.671   3.841   3.507  1.4848  1.9416  0.6087
 4390TIP3   OH213175   4.927   0.196   2.754 -0.3247 -0.0067  0.4412
 4390TIP3    H113176   4.911   0.211   2.847  0.1178  1.3573  0.3182
 4390TIP3    H213177   4.920   0.101   2.743 -0.9222 -0.1318  1.7551
 4391TIP3   OH213178   4.468   5.220   2.160 -0.0123 -0.3286 -0.4204
 4391TIP3    H113179   4.530   5.256   2.224 -1.9651  0.8560  0.8789
 4391TIP3    H213180   4.512   5.141   2.127  1.6584 -0.2040  1.3194
 4392TIP3   OH213181   4.594   4.852   2.733  0.1701  0.7968  0.1940
 4392TIP3    H113182   4.559   4.765   2.715  0.1838  0.9901 -0.8538
 4392TIP3    H213183   4.596   4.858   2.829 -0.2808 -0.1649  0.2776
 4393TIP3   OH213184   1.336   5.128   2.040 -0.4717  0.3274  0.3864
 4393TIP3    H113185   1.375   5.054   2.086 -0.1660  1.4026  1.9459
 4393TIP3    H213186   1.409   5.172   1.996 -0.8837 -1.2388 -2.0744
 4394TIP3   OH213187   3.950   2.012   2.120 -0.1384 -0.1042  0.6509
 4394TIP3    H113188   3.978   2.013   2.028 -1.1108  0.5828  0.3467
 4394TIP3    H213189   3.857   1.991   2.116 -0.5876  1.5579  1.3417
 4395TIP3   OH213190   0.367   0.264   2.903 -0.2381 -0.0309  0.4533
 4395TIP3    H113191   0.364   0.359   2.890  0.4608 -0.0525  0.0913
 4395TIP3    H213192   0.460   0.241   2.891 -0.6955 -1.0577 -1.6337
 4396TIP3   OH213193   4.432   0.697   1.289 -0.2905  0.0864  0.0673
 4396TIP3    H113194   4.434   0.637   1.215  0.5406 -0.3924  0.4637
 4396TIP3    H213195   4.343   0.733   1.288 -0.5678 -0.5820 -0.6159
 4397TIP3   OH213196   3.739   0.098   0.237 -0.6407 -0.3855 -0.5610
 4397TIP3    H113197   3.693   0.028   0.190 -0.5642 -0.1109 -1.0526
 4397TIP3    H213198   3.772   0.056   0.316 -1.6985 -0.5975 -0.2101
 4398TIP3   OH213199   1.903   1.610   2.319  0.2033 -0.0214 -0.5971
 4398TIP3    H113200   1.869   1.633   2.406  1.2561 -1.3312  0.1926
 4398TIP3    H213201   1.831   1.564   2.276 -0.4321  0.9069 -0.5699
 4399TIP3   OH213202   0.370   3.001   5.018  0.5342  0.1480 -0.1329
 4399TIP3    H113203   0.328   2.932   5.070  0.9928  1.8582  2.7261
 4399TIP3    H213204   0.424   2.953   4.955 -1.1021 -2.0840  0.0448
 4400TIP3   OH213205   0.633   0.650   3.625 -0.2494 -0.0367  0.0329
 4400TIP3    H113206   0.640   0.728   3.679  1.2389  0.9364 -1.4731
 4400TIP3    H213207   0.543   0.650   3.593 -0.7238  0.1501  1.3272
 4401TIP3   OH213208   5.693   4.007   1.711 -0.1261 -0.0497  0.4955
 4401TIP3    H113209   5.686   4.070   1.639 -0.8685  0.0527  0.6486
 4401TIP3    H213210   5.781   3.973   1.704 -0.1561  0.0318 -0.4075
 4402TIP3   OH213211   2.325   1.921   2.024 -0.2060  0.0326 -0.0496
 4402TIP3    H113212   2.274   1.869   1.961  0.4129  1.7787 -2.0915
 4402TIP3    H213213   2.267   1.995   2.045 -0.2958 -0.3951  1.2590
 4403TIP3   OH213214   5.044   2.407   1.289 -0.2696 -0.3886 -0.4859
 4403TIP3    H113215   4.959   2.367   1.308 -0.8675  1.1860  0.3670
 4403TIP3    H213216   5.101   2.374   1.358 -0.1583 -1.5034 -1.0974
 4404TIP3   OH213217   4.191   3.403   0.065  0.0268 -0.3748 -0.4937
 4404TIP3    H113218   4.100   3.380   0.082  0.0832  0.8041  1.7938
 4404TIP3    H213219   4.229   3.324   0.026 -0.9443 -2.4548  2.4301
 4405TIP3   OH213220   0.402   5.328   3.426  0.3218  0.0421 -0.5255
 4405TIP3    H113221   0.402   5.285   3.340  1.1316  0.5574 -0.7933
 4405TIP3    H213222   0.333   5.394   3.420 -0.1857 -0.4737 -0.4854
 4406TIP3   OH213223   0.796   5.371   4.647 -0.2742  0.0769  0.2051
 4406TIP3    H113224   0.741   5.443   4.615  0.7154  0.7319 -0.0553
 4406TIP3    H213225   0.867   5.414   4.695 -0.1927 -0.7757  0.8755
 4407TIP3   OH213226   5.985   0.128   2.358  0.0032  0.2777  0.5479
 4407TIP3    H113227   6.022   0.205   2.401 -0.0025 -1.1516  3.3460
 4407TIP3    H213228   5.950   0.161   2.275  0.8998  3.0523  1.1693
 4408TIP3   OH213229   1.761   1.412   3.875  0.1995 -0.2771 -0.4427
 4408TIP3    H113230   1.812   1.456   3.943 -0.3298  1.6499 -1.1960
 4408TIP3    H213231   1.687   1.374   3.921 -0.3855  1.3777  0.0541
 4409TIP3   OH213232   2.185   3.784   2.055  0.1247 -0.4082  0.3623
 4409TIP3    H113233   2.221   3.855   2.108  0.4949 -0.4090  0.1120
 4409TIP3    H213234   2.106   3.756   2.103  0.9779 -1.0664  1.4436
 4410TIP3   OH213235   5.760   5.920   3.553 -0.1254  0.2360  0.0149
 4410TIP3    H113236   5.847   5.941   3.587 -0.6214  0.1095  1.4545
 4410TIP3    H213237   5.763   5.826   3.535  0.3048  0.4033 -0.8318
 4411TIP3   OH213238   2.504   2.435   3.485  0.9289  0.0915  0.5635
 4411TIP3    H113239   2.546   2.511   3.445 -1.9617  1.6447  0.1842
 4411TIP3    H213240   2.565   2.363   3.469  3.6916  2.2311  0.7335
 4412TIP3   OH213241   6.178   2.603   3.484 -0.0937 -0.6910  0.2345
 4412TIP3    H113242   6.241   2.587   3.414  0.0618  3.1681 -0.7456
 4412TIP3    H213243   6.231   2.612   3.563  0.1696 -1.0213  0.0982
 4413TIP3   OH213244   1.590   0.937   0.107 -0.0829  0.2639  0.2660
 4413TIP3    H113245   1.634   0.863   0.150  1.3539  0.6687 -0.4812
 4413TIP3    H213246   1.501   0.904   0.091  0.4659 -1.2483  0.1039
 4414TIP3   OH213247   5.709   1.891   3.336 -0.0916 -0.1708 -0.2077
 4414TIP3    H113248   5.750   1.836   3.403 -1.2888  0.1437  0.8037
 4414TIP3    H213249   5.781   1.945   3.303  0.8528 -1.4589 -0.3553
 4415TIP3   OH213250   2.220   2.413   2.927 -0.2827  0.0653  0.0734
 4415TIP3    H113251   2.205   2.397   3.020 -2.0738 -0.4609 -0.2794
 4415TIP3    H213252   2.283   2.485   2.925 -0.6371  0.4503  1.6923
 4416TIP3   OH213253   3.503   5.212   2.001  0.6491  0.0334  0.1537
 4416TIP3    H113254   3.414   5.219   1.969  1.4154  0.8855 -1.9823
 4416TIP3    H213255   3.556   5.256   1.935  2.6947 -0.7105  1.2012
 4417TIP3   OH213256   6.098   1.797   3.304 -0.0100  0.0266 -0.2169
 4417TIP3    H113257   6.178   1.760   3.341  0.5502  2.0399  0.7555
 4417TIP3    H213258   6.028   1.762   3.360  0.3460 -0.5272 -0.1064
 4418TIP3   OH213259   3.201   4.402   5.033 -0.4443  0.2176  0.2756
 4418TIP3    H113260   3.268   4.422   4.967 -1.1564 -0.7564 -0.7585
 4418TIP3    H213261   3.216   4.467   5.101  2.9732 -1.2662  1.1420
 4419TIP3   OH213262   2.075   2.684   5.055 -0.3519  0.3703  0.4312
 4419TIP3    H113263   2.110   2.595   5.047 -2.5165 -0.5195  0.1787
 4419TIP3    H213264   2.064   2.713   4.965  0.0632  0.7922  0.5144
 4420TIP3   OH213265   1.955   5.340   1.155 -0.0868  0.0139  0.7151
 4420TIP3    H113266   1.991   5.289   1.083 -0.4625  0.1546  0.4203
 4420TIP3    H213267   2.012   5.321   1.230 -1.3134 -2.3646  1.1465
 4421TIP3   OH213268   3.705   2.298   4.095  0.0224 -0.0554 -0.9901
 4421TIP3    H113269   3.736   2.209   4.110  0.7839 -0.0847 -2.4628
 4421TIP3    H213270   3.610   2.291   4.095  0.0631 -0.6674 -0.0344
 4422TIP3   OH213271   3.209   5.600   0.188 -0.1174 -0.0147  0.3321
 4422TIP3    H113272   3.118   5.610   0.216 -0.1775  0.0972  0.1044
 4422TIP3    H213273   3.238   5.690   0.168  0.2378  0.0235  0.9989
 4423TIP3   OH213274   6.131   1.513   0.101 -0.5650 -0.3185  0.8034
 4423TIP3    H113275   6.108   1.551   0.016 -0.3515  1.6029  1.5621
 4423TIP3    H213276   6.048   1.506   0.148 -0.3607  1.3245  1.4638
 4424TIP3   OH213277   2.529   4.747   0.130  0.5099  0.3833 -0.3536
 4424TIP3    H113278   2.594   4.798   0.081  0.1013  1.5618  0.2878
 4424TIP3    H213279   2.475   4.813   0.173  0.2505 -0.6163  0.9032
 4425TIP3   OH213280   6.226   2.376   1.592  0.0344  0.1987 -0.0498
 4425TIP3    H113281   6.307   2.333   1.564  0.5133 -0.2859  1.8983
 4425TIP3    H213282   6.203   2.434   1.520  1.3137 -0.7322 -1.2621
 4426TIP3   OH213283   5.668   4.087   0.572 -0.0196  0.2219  0.4484
 4426TIP3    H113284   5.712   4.143   0.509 -1.4527 -1.2626 -2.0024
 4426TIP3    H213285   5.576   4.089   0.548 -0.3957 -1.6646  1.4597
 4427TIP3   OH213286   1.668   1.835   3.798 -0.0067 -0.6959 -0.6401
 4427TIP3    H113287   1.707   1.797   3.720  0.6154 -0.7002 -0.3276
 4427TIP3    H213288   1.625   1.915   3.766 -0.4774 -1.1332 -1.1248
 4428TIP3   OH213289   4.825   5.007   2.692 -0.1055 -0.0876  0.3284
 4428TIP3    H113290   4.738   4.968   2.701 -0.6102  0.8962 -0.1022
 4428TIP3    H213291   4.831   5.068   2.766  0.6442 -0.8990  0.9546
 4429TIP3   OH213292   1.451   3.302   1.356 -0.7948 -0.0272 -0.7649
 4429TIP3    H113293   1.489   3.221   1.323  3.0983  1.9042 -1.6701
 4429TIP3    H213294   1.516   3.335   1.418 -1.9133  2.6808 -0.8821
 4430TIP3   OH213295   6.115   3.528   0.614  0.1495 -0.2752  0.2038
 4430TIP3    H113296   6.148   3.524   0.524 -0.5812  0.4376 -0.1000
 4430TIP3    H213297   6.191   3.555   0.665  0.7317 -1.2800 -0.0960
 4431TIP3   OH213298   1.802   0.476   4.467  0.5229 -0.3395 -0.0378
 4431TIP3    H113299   1.819   0.539   4.537  1.1702  0.0110 -0.5014
 4431TIP3    H213300   1.736   0.417   4.503 -0.1238  0.6179  0.4037
 4432TIP3   OH213301   5.744   2.135   0.467 -0.3424 -0.0704 -0.2079
 4432TIP3    H113302   5.795   2.171   0.394  1.2085  3.1178  2.1941
 4432TIP3    H213303   5.782   2.048   0.482  1.7585  0.6365 -1.0092
 4433TIP3   OH213304   1.201   2.845   0.094 -0.4330 -0.3115  0.5288
 4433TIP3    H113305   1.162   2.764   0.060  1.0468 -0.4708 -0.8937
 4433TIP3    H213306   1.188   2.909   0.024 -1.5932  0.7243  1.6441
 4434TIP3   OH213307   4.829   1.585   4.642  0.1923  0.2486  0.9669
 4434TIP3    H113308   4.918   1.599   4.609  0.7899  0.9859  2.7190
 4434TIP3    H213309   4.822   1.490   4.652  0.6276  0.1525  0.3824
 4435TIP3   OH213310   1.916   3.351   2.168  0.5320  0.0366  0.0409
 4435TIP3    H113311   1.822   3.358   2.182  0.6644  0.4475  0.7918
 4435TIP3    H213312   1.930   3.260   2.139  0.0374 -0.3708  1.0478
 4436TIP3   OH213313   3.281   5.016   4.738  0.3643 -0.0799 -0.5379
 4436TIP3    H113314   3.285   5.066   4.819  1.2273 -0.2305 -0.4771
 4436TIP3    H213315   3.296   4.925   4.765 -1.0926 -0.3885 -0.6570
 4437TIP3   OH213316   1.650   1.250   3.119 -0.0215  0.0201 -0.1739
 4437TIP3    H113317   1.690   1.334   3.139  0.3941 -0.2240  0.0267
 4437TIP3    H213318   1.706   1.185   3.162 -0.4024 -0.3521 -0.2279
 4438TIP3   OH213319   2.387   4.318   3.564 -0.2394  0.6060 -0.8370
 4438TIP3    H113320   2.459   4.344   3.507 -0.0017  0.5579 -0.5631
 4438TIP3    H213321   2.416   4.342   3.652  0.1320 -0.8461 -0.5284
 4439TIP3   OH213322   0.164   4.735   2.450 -0.2424  0.2156  0.5368
 4439TIP3    H113323   0.194   4.708   2.537 -0.4245  0.5001  0.6873
 4439TIP3    H213324   0.234   4.791   2.417 -1.4652  2.5410  1.7039
 4440TIP3   OH213325   5.490   0.701   4.997 -0.3188 -0.1868 -0.1284
 4440TIP3    H113326   5.418   0.696   5.059  0.7657 -2.8125  1.0302
 4440TIP3    H213327   5.521   0.792   5.004 -1.6768  0.2048  1.4393
 4441TIP3   OH213328   4.437   4.157   3.966  0.1739 -0.1320  0.5768
 4441TIP3    H113329   4.410   4.159   4.058 -1.4985  0.1832  0.1062
 4441TIP3    H213330   4.491   4.236   3.955 -1.2144  0.9048  0.8583
 4442TIP3   OH213331   1.174   0.315   4.994  0.2104  0.0406  0.2580
 4442TIP3    H113332   1.081   0.319   5.014 -0.1017 -2.8903 -0.2675
 4442TIP3    H213333   1.184   0.376   4.921 -1.3701  0.0958  0.0426
 4443TIP3   OH213334   3.807   3.258   1.605  0.5585 -0.7278 -0.0225
 4443TIP3    H113335   3.836   3.265   1.696 -1.4449  0.8482  0.5697
 4443TIP3    H213336   3.777   3.168   1.596  0.6620 -0.8663  0.9170
 4444TIP3   OH213337   1.446   5.309   0.928 -0.0754  0.8423  0.3515
 4444TIP3    H113338   1.394   5.306   1.008 -0.0165 -0.5439  0.3586
 4444TIP3    H213339   1.530   5.271   0.952 -0.5798 -1.1064 -0.7002
 4445TIP3   OH213340   2.173   0.611   3.027  0.4303  0.4891 -0.0684
 4445TIP3    H113341   2.252   0.557   3.034  0.9990  0.9681 -2.1935
 4445TIP3    H213342   2.205   0.696   2.997 -0.8379  0.8424 -0.4552
 4446TIP3   OH213343   0.927   5.927   2.725 -0.9674 -0.4533 -0.7124
 4446TIP3    H113344   0.941   5.893   2.813 -0.4003 -2.2308 -1.4426
 4446TIP3    H213345   0.933   5.850   2.668  1.4670  0.9903 -2.6079
 4447TIP3   OH213346   4.107   3.029   2.149  0.4786 -0.2590  0.1374
 4447TIP3    H113347   4.162   2.960   2.186  1.3607  1.0045  1.2931
 4447TIP3    H213348   4.167   3.102   2.132 -0.5172  0.4601 -0.4638
 4448TIP3   OH213349   4.002   3.890   4.266 -0.4311 -0.0873  0.0948
 4448TIP3    H113350   3.987   3.864   4.175 -0.4657 -0.9333  0.3341
 4448TIP3    H213351   4.090   3.928   4.266 -1.3262  2.1961 -0.7528
 4449TIP3   OH213352   2.964   4.669   3.815  0.2545  0.3217  0.0929
 4449TIP3    H113353   2.904   4.632   3.880 -0.8847  1.1966 -0.4393
 4449TIP3    H213354   2.926   4.753   3.791  1.9082  1.0930  0.0166
 4450TIP3   OH213355   3.109   2.075   4.594  0.1571 -0.3905 -0.8562
 4450TIP3    H113356   3.120   1.987   4.560 -1.5193 -0.7711 -0.5036
 4450TIP3    H213357   3.197   2.113   4.594  1.0099 -2.2892 -0.3560
 4451TIP3   OH213358   4.037   3.197   1.410  0.1208  0.0136 -0.8069
 4451TIP3    H113359   4.025   3.126   1.346  1.4570 -1.1776  0.2021
 4451TIP3    H213360   3.974   3.178   1.479  0.6500 -0.3624 -0.4168
 4452TIP3   OH213361   6.042   1.474   1.990 -0.8064 -0.6433  0.2469
 4452TIP3    H113362   5.989   1.395   2.001 -0.8184 -0.9035 -1.4822
 4452TIP3    H213363   5.986   1.534   1.940  0.4886 -0.9265 -1.6474
 4453TIP3   OH213364   2.481   2.755   0.767 -0.2647  0.7593 -0.1551
 4453TIP3    H113365   2.408   2.749   0.828 -0.3476  1.1106 -0.2168
 4453TIP3    H213366   2.558   2.731   0.820 -0.5454 -0.7239 -0.3747
 4454TIP3   OH213367   2.056   5.435   4.201 -0.4434 -0.5579 -0.5338
 4454TIP3    H113368   2.113   5.358   4.198  0.9564  0.4454 -2.1075
 4454TIP3    H213369   2.048   5.455   4.294  1.5923 -0.9137 -0.2269
 4455TIP3   OH213370   0.103   4.517   0.668 -0.3241  0.0223  0.2492
 4455TIP3    H113371   0.189   4.551   0.642  0.6429 -2.0383  0.5711
 4455TIP3    H213372   0.063   4.487   0.587 -0.3155  0.0474  0.2357
 4456TIP3   OH213373   0.629   4.235   3.908  0.0520  0.4529  0.6740
 4456TIP3    H113374   0.681   4.298   3.959  1.0675 -0.7255  1.1359
 4456TIP3    H213375   0.602   4.169   3.972 -0.3987  0.0336  0.0558
 4457TIP3   OH213376   3.176   4.518   3.436  0.3126 -0.0944 -0.5207
 4457TIP3    H113377   3.155   4.598   3.388  0.4936 -0.1110 -0.6270
 4457TIP3    H213378   3.133   4.530   3.521  1.1983  0.5847 -0.1430
 4458TIP3   OH213379   1.849   3.123   3.664 -0.0403 -0.1896  0.5491
 4458TIP3    H113380   1.892   3.040   3.686  2.0094  0.9176  0.8981
 4458TIP3    H213381   1.857   3.130   3.569 -0.4842 -0.5102  0.4833
 4459TIP3   OH213382   3.224   0.466   3.590 -0.0100  0.2243  0.1868
 4459TIP3    H113383   3.235   0.394   3.527  2.0965  0.1905  0.5461
 4459TIP3    H213384   3.278   0.441   3.665 -1.7943  0.6763  1.7225
 4460TIP3   OH213385   1.431   0.392   3.783 -0.1340  0.2087 -0.1039
 4460TIP3    H113386   1.506   0.360   3.734  0.4563  0.9605  0.2880
 4460TIP3    H213387   1.361   0.330   3.763  0.1130  0.4357 -1.8005
 4461TIP3   OH213388   4.128   3.327   2.478 -0.1608  0.3607 -0.4013
 4461TIP3    H113389   4.166   3.261   2.535 -0.1107  0.0142 -0.8300
 4461TIP3    H213390   4.033   3.319   2.492 -0.0901  1.5240  0.9981
 4462TIP3   OH213391   4.459   3.004   0.623  0.5084 -0.1893  0.1296
 4462TIP3    H113392   4.503   3.062   0.560 -0.1808 -0.3131 -0.4807
 4462TIP3    H213393   4.411   3.064   0.680 -0.0127 -0.1409 -0.3539
 4463TIP3   OH213394   3.948   2.535   1.206  0.3478 -0.1881  0.2354
 4463TIP3    H113395   3.908   2.468   1.261  0.5086  0.6988  1.4703
 4463TIP3    H213396   3.940   2.500   1.117 -0.1590 -1.5338  0.7739
 4464TIP3   OH213397   5.960   5.197   1.711 -0.4059  0.2937 -0.6503
 4464TIP3    H113398   5.867   5.209   1.731 -0.1581  0.2885  0.5390
 4464TIP3    H213399   6.000   5.281   1.731  0.1801 -0.3255  0.8870
 4465TIP3   OH213400   5.117   0.103   3.135 -0.3020  0.6129  0.5211
 4465TIP3    H113401   5.195   0.101   3.080 -0.2703  1.0744  0.5459
 4465TIP3    H213402   5.145   0.144   3.217 -0.3209 -0.1853  0.9358
 4466TIP3   OH213403   0.264   2.984   2.576 -0.2044  0.0881  0.0461
 4466TIP3    H113404   0.351   3.007   2.611  0.6500 -2.0150 -0.5137
 4466TIP3    H213405   0.221   2.939   2.649 -1.3236  2.0704  0.6874
 4467TIP3   OH213406   4.076   0.886   2.908 -0.0250 -0.1367  0.5616
 4467TIP3    H113407   3.983   0.903   2.898 -0.3894 -2.4398 -0.5482
 4467TIP3    H213408   4.119   0.968   2.883 -1.6349 -0.1495 -2.7157
 4468TIP3   OH213409   3.146   4.214   4.802 -0.2398 -0.4217 -0.1069
 4468TIP3    H113410   3.060   4.255   4.802 -0.0809  0.0820  2.4970
 4468TIP3    H213411   3.208   4.288   4.805  0.4009 -0.7459 -2.5592
 4469TIP3   OH213412   3.954   5.886   1.199  0.3607 -0.0880 -0.3982
 4469TIP3    H113413   3.886   5.948   1.228  2.1511  0.7943  2.2991
 4469TIP3    H213414   3.969   5.909   1.107 -1.9536  0.6429 -0.6622
 4470TIP3   OH213415   0.528   5.393   2.164  0.2667 -0.0638 -0.1062
 4470TIP3    H113416   0.521   5.405   2.259 -0.4130 -0.8353 -0.0484
 4470TIP3    H213417   0.465   5.324   2.144 -0.0932  0.5636 -1.2150
 4471TIP3   OH213418   3.383   1.798   2.138 -0.5590  0.0490 -0.4768
 4471TIP3    H113419   3.468   1.791   2.183  0.1505  0.4821 -1.7132
 4471TIP3    H213420   3.322   1.752   2.196  0.9226 -2.3195 -0.6169
 4472TIP3   OH213421   4.537   5.673   2.059  0.0936 -0.5250 -0.0917
 4472TIP3    H113422   4.606   5.624   2.103 -1.1372 -1.8745  0.4300
 4472TIP3    H213423   4.506   5.736   2.125 -0.8850 -1.6798  0.5933
 4473TIP3   OH213424   0.887   3.391   4.669 -0.4673  0.1606 -0.3918
 4473TIP3    H113425   0.850   3.434   4.746  0.8688 -1.1440  1.0482
 4473TIP3    H213426   0.974   3.364   4.696  0.0171 -0.4365 -2.3609
 4474TIP3   OH213427   2.263   3.479   0.515 -0.0913  0.1516 -0.0552
 4474TIP3    H113428   2.342   3.425   0.502  0.9173  0.9790  2.0453
 4474TIP3    H213429   2.262   3.539   0.441 -0.4507 -1.7606 -1.6912
 4475TIP3   OH213430   5.775   0.174   2.685  0.5504 -0.7248 -0.2459
 4475TIP3    H113431   5.781   0.220   2.768 -2.5284 -0.7148  0.0633
 4475TIP3    H213432   5.847   0.111   2.687  0.5390 -0.7381  2.4490
 4476TIP3   OH213433   4.109   2.925   0.578 -0.0745 -0.1432 -0.3166
 4476TIP3    H113434   4.071   2.855   0.525 -1.0299  0.2731 -0.2170
 4476TIP3    H213435   4.057   3.002   0.555 -0.7221 -0.0176  1.4465
 4477TIP3   OH213436   5.753   0.165   3.111  0.0658 -0.0958 -0.1526
 4477TIP3    H113437   5.763   0.070   3.119  0.9487  0.1113  2.0099
 4477TIP3    H213438   5.785   0.199   3.194  1.4171  2.2480 -1.5363
 4478TIP3   OH213439   3.994   1.639   0.276 -0.2870 -0.3877 -0.1787
 4478TIP3    H113440   3.910   1.642   0.231 -0.1754 -0.3394 -0.3853
 4478TIP3    H213441   4.058   1.627   0.206 -0.2391 -1.9573  0.0834
 4479TIP3   OH213442   3.543   0.720   3.622  0.0516  0.0203  0.3610
 4479TIP3    H113443   3.489   0.710   3.700  0.0004  0.9499  0.4512
 4479TIP3    H213444   3.599   0.795   3.640 -0.7309  0.9679 -0.9073
 4480TIP3   OH213445   3.060   2.604   3.912 -0.3526  0.0838 -0.0083
 4480TIP3    H113446   3.144   2.631   3.950 -1.1891  1.2219  1.0962
 4480TIP3    H213447   3.084   2.565   3.828  1.2958  0.2841  0.3302
 4481TIP3   OH213448   1.717   2.222   1.563  0.2266  0.1493 -0.3205
 4481TIP3    H113449   1.762   2.201   1.481  1.1568 -0.6146  0.3712
 4481TIP3    H213450   1.739   2.151   1.622 -0.3432  0.7483  0.6471
 4482TIP3   OH213451   0.750   5.492   4.058  0.7709 -0.0957  0.8783
 4482TIP3    H113452   0.715   5.571   4.017  1.2774  0.4867  1.5686
 4482TIP3    H213453   0.760   5.431   3.985  0.4220  0.4832  0.3334
 4483TIP3   OH213454   3.804   3.652   2.995  0.1146 -0.6174  0.7029
 4483TIP3    H113455   3.790   3.726   3.054 -2.6851  0.6936 -1.3970
 4483TIP3    H213456   3.852   3.689   2.921 -1.1271 -0.8762 -0.2730
 4484TIP3   OH213457   3.199   2.787   0.019 -0.2034 -0.6407  0.5824
 4484TIP3    H113458   3.105   2.796   0.007 -0.3038 -1.9201  0.1744
 4484TIP3    H213459   3.214   2.806   0.112 -0.7174  0.5190  0.4318
 4485TIP3   OH213460   4.678   3.959   4.457 -0.3470  0.2227  0.2723
 4485TIP3    H113461   4.680   4.047   4.420  0.5156  0.2087  0.2647
 4485TIP3    H213462   4.626   3.908   4.395  1.0256  0.2172 -0.9323
 4486TIP3   OH213463   4.204   5.947   1.326  0.0551 -0.2420 -0.0581
 4486TIP3    H113464   4.120   5.987   1.307  1.1853  1.1473 -2.8434
 4486TIP3    H213465   4.219   5.888   1.252  0.7742 -1.8715  1.3147
 4487TIP3   OH213466   4.323   2.386   4.759  0.2460  0.0838  0.3059
 4487TIP3    H113467   4.387   2.386   4.688  0.5879  0.7624  0.6031
 4487TIP3    H213468   4.368   2.344   4.832  0.6905  1.3543  0.7912
 4488TIP3   OH213469   2.862   3.821   0.867  0.2326 -0.2700  0.5041
 4488TIP3    H113470   2.840   3.814   0.774 -0.5526  1.4878  0.5093
 4488TIP3    H213471   2.900   3.737   0.889 -2.1442 -1.7629 -0.7011
 4489TIP3   OH213472   4.516   5.776   0.703  0.6121  0.3130 -0.1005
 4489TIP3    H113473   4.590   5.805   0.756  0.7044  0.5869 -0.3727
 4489TIP3    H213474   4.533   5.814   0.617  1.4263 -1.5980 -0.8491
 4490TIP3   OH213475   5.375   3.079   3.444 -1.0712  0.4275 -0.0259
 4490TIP3    H113476   5.294   3.030   3.442 -1.3086  0.8196 -1.4088
 4490TIP3    H213477   5.442   3.016   3.417 -0.8418  0.0281  1.3906
 4491TIP3   OH213478   2.817   3.243   5.011  0.5147  0.1305  0.0818
 4491TIP3    H113479   2.824   3.148   5.004 -0.6385  0.0243  0.1754
 4491TIP3    H213480   2.886   3.276   4.954  0.1503 -0.7663 -0.9236
 4492TIP3   OH213481   0.169   5.142   5.152 -0.6102  0.0429 -0.7311
 4492TIP3    H113482   0.102   5.138   5.220  0.0924 -1.2110 -0.0710
 4492TIP3    H213483   0.120   5.152   5.071 -1.4695  1.4393 -0.0722
 4493TIP3   OH213484   4.781   2.346   3.002  0.0213  0.2900 -0.6413
 4493TIP3    H113485   4.729   2.268   3.022  0.0850  0.0056 -1.5334
 4493TIP3    H213486   4.779   2.352   2.906  3.0446 -0.7221 -0.8847
 4494TIP3   OH213487   4.338   1.319   1.500  0.4957 -0.1226  0.4249
 4494TIP3    H113488   4.357   1.261   1.426 -0.1373  0.4226 -0.1881
 4494TIP3    H213489   4.378   1.402   1.476 -0.3564  0.2711  0.3357
 4495TIP3   OH213490   5.963   1.926   2.768  0.2526  0.3396  0.0621
 4495TIP3    H113491   5.875   1.964   2.773  1.1853  2.9521 -1.2249
 4495TIP3    H213492   5.978   1.889   2.855 -1.6973  0.8376  0.6666
 4496TIP3   OH213493   3.518   2.381   3.717 -0.2304  0.3331 -0.0262
 4496TIP3    H113494   3.530   2.433   3.637 -1.0899 -0.2631 -0.5657
 4496TIP3    H213495   3.564   2.299   3.698  2.5474  1.4452  1.4554
 4497TIP3   OH213496   3.112   3.530   0.425 -0.2806  0.2085 -0.2084
 4497TIP3    H113497   3.101   3.625   0.421 -1.9310  0.0346 -0.5358
 4497TIP3    H213498   3.205   3.516   0.408  0.2151  1.8134  0.9162
 4498TIP3   OH213499   4.966   5.760   2.632 -0.2067  0.3757  0.5961
 4498TIP3    H113500   4.973   5.667   2.613 -0.2946  0.1220  1.7672
 4498TIP3    H213501   5.032   5.801   2.576 -0.0360 -0.4007  0.2205
 4499TIP3   OH213502   4.452   3.674   4.884  0.2010 -0.3368  0.0561
 4499TIP3    H113503   4.521   3.738   4.903 -0.0375  0.7472 -2.3485
 4499TIP3    H213504   4.371   3.718   4.911  0.2250 -0.5902  0.5531
 4500TIP3   OH213505   1.708   1.836   3.288  0.3109  0.4594  0.3292
 4500TIP3    H113506   1.688   1.926   3.315 -0.0666  1.0984 -1.8246
 4500TIP3    H213507   1.745   1.846   3.200 -2.1685 -1.6398 -1.0860
 4501TIP3   OH213508   3.596   3.393   3.131  0.3870  0.2724 -0.2274
 4501TIP3    H113509   3.684   3.404   3.166 -0.0648  0.0313  1.0185
 4501TIP3    H213510   3.538   3.405   3.206 -0.6606  0.6096 -1.0634
 4502TIP3   OH213511   0.956   3.716   3.680 -0.0703  0.1408 -0.6440
 4502TIP3    H113512   0.949   3.686   3.770  3.4024 -0.3867 -0.3978
 4502TIP3    H213513   0.956   3.635   3.628  2.2941  0.0368 -0.6124
 4503TIP3   OH213514   2.064   5.632   1.409  0.1652 -0.3504  0.1535
 4503TIP3    H113515   2.060   5.651   1.315  1.1421  0.1228  0.1953
 4503TIP3    H213516   2.074   5.718   1.450 -0.1179 -0.5684  0.6804
 4504TIP3   OH213517   4.894   2.016   2.859  0.5661 -0.1713  0.2492
 4504TIP3    H113518   4.971   1.961   2.846  0.2004 -1.1778  2.0408
 4504TIP3    H213519   4.927   2.105   2.845  1.6162 -0.6816 -0.7854
 4505TIP3   OH213520   5.856   5.047   4.374 -0.2758 -0.0487 -0.2299
 4505TIP3    H113521   5.893   5.051   4.286  2.5785 -0.5528  0.8200
 4505TIP3    H213522   5.820   5.134   4.389 -3.0761 -0.6320 -2.6788
 4506TIP3   OH213523   4.083   1.993   4.676 -0.0831 -0.1891  0.8982
 4506TIP3    H113524   4.062   1.934   4.748  0.4862 -0.3612  0.9281
 4506TIP3    H213525   4.043   2.076   4.700 -0.8922 -0.5589  0.8560
 4507TIP3   OH213526   1.587   3.501   2.877  0.2957 -0.1782 -0.0490
 4507TIP3    H113527   1.553   3.518   2.789  0.5394 -2.0967 -0.5583
 4507TIP3    H213528   1.578   3.407   2.888  1.5204 -0.1534  1.4642
 4508TIP3   OH213529   4.004   3.795   1.730 -0.1877  0.1488 -0.2205
 4508TIP3    H113530   3.918   3.787   1.689 -0.6861 -0.7982  0.9234
 4508TIP3    H213531   4.010   3.888   1.754 -1.4885 -0.0116  0.8636
 4509TIP3   OH213532   5.465   4.224   1.661  0.1192  0.3665 -0.2005
 4509TIP3    H113533   5.511   4.158   1.608  2.9174  1.3697  0.7956
 4509TIP3    H213534   5.430   4.286   1.597  2.1078  0.7354 -0.9885
 4510TIP3   OH213535   2.734   4.969   4.993  1.4839  0.0618  0.2689
 4510TIP3    H113536   2.703   4.892   4.946  1.7399 -1.0832  1.8955
 4510TIP3    H213537   2.655   5.016   5.018  1.3428  0.6373 -1.1724
 4511TIP3   OH213538   3.532   1.432   4.977  0.2660 -0.0357  0.5282
 4511TIP3    H113539   3.438   1.433   4.994  0.1984  1.0277  0.2028
 4511TIP3    H213540   3.569   1.379   5.047 -0.5464 -0.2233  0.8227
 4512TIP3   OH213541   0.726   4.052   2.650 -0.7770  0.3803  0.5278
 4512TIP3    H113542   0.781   4.130   2.650 -1.1068  0.9681  5.5836
 4512TIP3    H213543   0.778   3.987   2.698 -0.9129 -2.3591 -2.7037
 4513TIP3   OH213544   1.214   1.699   1.996  0.2110 -0.0132 -0.3656
 4513TIP3    H113545   1.236   1.767   2.059 -1.9073 -0.5793  1.0960
 4513TIP3    H213546   1.229   1.617   2.043 -1.0946 -0.4594 -0.6842
 4514TIP3   OH213547   5.332   4.330   2.120  0.3914  0.2152 -0.5880
 4514TIP3    H113548   5.349   4.266   2.188 -0.7275 -2.1077 -2.3612
 4514TIP3    H213549   5.395   4.309   2.050 -0.8902  0.1057 -1.7599
 4515TIP3   OH213550   1.804   3.834   0.102  0.6417 -0.7468 -0.0100
 4515TIP3    H113551   1.788   3.778   0.178  0.4695 -0.7953 -0.0830
 4515TIP3    H213552   1.787   3.923   0.134  1.0834 -0.7165  0.1539
 4516TIP3   OH213553   0.581   2.835   3.350  0.3717 -0.1175  0.0563
 4516TIP3    H113554   0.583   2.846   3.445 -0.2308  1.2860 -0.0664
 4516TIP3    H213555   0.490   2.852   3.326  0.0978 -2.2474 -0.6100
 4517TIP3   OH213556   0.402   3.104   2.803 -0.5477  0.6603 -0.6570
 4517TIP3    H113557   0.489   3.068   2.790 -1.3495 -1.3543 -0.8125
 4517TIP3    H213558   0.384   3.090   2.896 -1.5490 -1.1251 -1.0562
 4518TIP3   OH213559   1.504   1.932   3.041 -0.3344 -0.0682  0.1354
 4518TIP3    H113560   1.495   2.007   3.100 -1.4172 -0.4873  0.5230
 4518TIP3    H213561   1.559   1.965   2.970 -0.5326  1.0026  0.4536
 4519TIP3   OH213562   1.542   0.358   4.035 -0.2874  0.4505 -0.1134
 4519TIP3    H113563   1.624   0.406   4.024  1.3583 -2.3918 -1.3261
 4519TIP3    H213564   1.503   0.356   3.947 -0.3250 -0.3836 -0.0907
 4520TIP3   OH213565   6.152   0.777   1.742  0.3338  0.1461  0.3758
 4520TIP3    H113566   6.119   0.866   1.743  0.1630  0.0816  0.6447
 4520TIP3    H213567   6.110   0.735   1.817  1.0643  0.0765  0.7602
 4521TIP3   OH213568   4.714   1.581   1.352  0.3130  0.2401 -0.1175
 4521TIP3    H113569   4.620   1.566   1.348  0.3890 -0.1046 -0.7102
 4521TIP3    H213570   4.749   1.504   1.396  0.3806  0.0820 -0.4453
 4522TIP3   OH213571   4.933   1.982   4.156  0.0692 -0.3705 -0.4402
 4522TIP3    H113572   4.857   2.037   4.177  0.3025  0.7801 -2.3504
 4522TIP3    H213573   4.906   1.894   4.181 -0.7466  0.4159  1.6798
 4523TIP3   OH213574   2.331   5.818  -0.020  0.1442 -0.1704  0.0450
 4523TIP3    H113575   2.295   5.738   0.017  0.0629  0.1958  0.7794
 4523TIP3    H213576   2.286   5.889   0.027  0.0207  0.3102 -0.7715
 4524TIP3   OH213577   1.324   4.064   5.065 -0.1397 -0.6135  0.0739
 4524TIP3    H113578   1.297   3.974   5.084  0.3398 -0.7691  0.0220
 4524TIP3    H213579   1.265   4.091   4.994  1.5058 -1.8620 -1.8955
 4525TIP3   OH213580   3.443   2.585   2.502 -0.0695 -0.1368 -0.4044
 4525TIP3    H113581   3.361   2.604   2.547  0.0341 -0.4852 -0.0587
 4525TIP3    H213582   3.417   2.536   2.423 -0.0357 -3.9107  1.6654
 4526TIP3   OH213583   4.739   3.130   0.457 -0.4489  0.5159 -0.2393
 4526TIP3    H113584   4.716   3.198   0.394  1.9060  0.8500 -0.8361
 4526TIP3    H213585   4.767   3.056   0.403 -1.6859 -0.4700  0.4232
 4527TIP3   OH213586   2.977   3.315   0.560  0.1722  0.2054  0.2928
 4527TIP3    H113587   3.068   3.304   0.588  0.0137  0.9854  1.1715
 4527TIP3    H213588   2.977   3.399   0.514 -0.4851  1.2736  2.1351
 4528TIP3   OH213589   4.403   0.684   2.351  0.6554 -0.0933 -0.8378
 4528TIP3    H113590   4.385   0.595   2.322 -1.1025  0.4007 -1.4140
 4528TIP3    H213591   4.406   0.735   2.269  0.0434  0.6177 -0.4307
 4529TIP3   OH213592   6.082   3.754   1.009  0.1922  0.0374  0.0432
 4529TIP3    H113593   6.038   3.690   0.953  0.9126  0.2102 -0.7367
 4529TIP3    H213594   6.122   3.701   1.078 -2.1051 -0.0521  1.4359
 4530TIP3   OH213595   6.205   5.412   2.195 -0.4371  0.0773 -0.1863
 4530TIP3    H113596   6.212   5.330   2.244 -0.6888  0.2369  0.1223
 4530TIP3    H213597   6.149   5.391   2.121  1.1667 -0.5577 -1.2669
 4531TIP3   OH213598   4.265   1.291   4.787 -0.5358 -0.5046  0.2829
 4531TIP3    H113599   4.203   1.251   4.726 -0.2849  0.0114 -0.3206
 4531TIP3    H213600   4.331   1.224   4.802  0.1607 -0.1668 -1.1276
 4532TIP3   OH213601   3.734   1.134   1.697 -0.1102 -0.5841 -0.1634
 4532TIP3    H113602   3.681   1.173   1.627 -1.2058 -1.2954  0.2429
 4532TIP3    H213603   3.723   1.039   1.686  1.0016 -0.7407 -0.0001
 4533TIP3   OH213604   3.971   5.768   4.855  0.2006 -0.3474 -0.0751
 4533TIP3    H113605   3.962   5.828   4.929 -3.2691 -1.0435  0.2664
 4533TIP3    H213606   3.897   5.708   4.865  1.5192 -2.5149 -2.3428
 4534TIP3   OH213607   4.675   2.124   4.126 -0.4777  0.1665 -0.3671
 4534TIP3    H113608   4.675   2.219   4.115 -1.1913  0.3435  0.9993
 4534TIP3    H213609   4.669   2.110   4.220  1.0464 -1.2469 -0.4228
 4535TIP3   OH213610   5.864   0.036   4.851  0.1801  0.2463 -0.5992
 4535TIP3    H113611   5.857   0.044   4.946  0.6833 -0.9638 -0.4310
 4535TIP3    H213612   5.927  -0.036   4.838  0.3313  0.5798 -1.8450
 4536TIP3   OH213613   0.473   2.690   4.990  0.0103 -0.1225  0.1402
 4536TIP3    H113614   0.427   2.626   4.935  0.5181 -0.9857  0.6957
 4536TIP3    H213615   0.477   2.769   4.936 -1.7346 -0.1470 -0.0773
 4537TIP3   OH213616   1.233   3.758   3.603 -0.0414 -0.5613  0.0397
 4537TIP3    H113617   1.274   3.843   3.588 -0.5383 -0.0836  1.3149
 4537TIP3    H213618   1.160   3.775   3.662 -0.5910 -1.7704 -0.2430
 4538TIP3   OH213619   0.674   3.419   0.163 -0.0817  0.1013 -0.0262
 4538TIP3    H113620   0.688   3.417   0.068  1.0257  0.6617  0.1120
 4538TIP3    H213621   0.761   3.434   0.200 -0.4312 -0.5547  1.1092
 4539TIP3   OH213622   3.377   1.533   3.184  0.3922 -0.0331  0.1492
 4539TIP3    H113623   3.315   1.602   3.208 -0.8650 -1.4791  1.2702
 4539TIP3    H213624   3.402   1.493   3.267  2.2568 -0.0138 -0.3500
 4540TIP3   OH213625   4.811   4.714   1.004  0.0277  0.1735 -0.1819
 4540TIP3    H113626   4.736   4.756   1.047  1.0300  1.0191  0.7986
 4540TIP3    H213627   4.823   4.764   0.923  0.5121  1.0997  0.4402
 4541TIP3   OH213628   4.474   1.717   4.854 -0.6652  0.1000  0.5322
 4541TIP3    H113629   4.421   1.792   4.827  1.4091  2.2868  2.1267
 4541TIP3    H213630   4.559   1.731   4.813 -1.1585 -3.5340 -2.3061
 4542TIP3   OH213631   5.863   0.097   1.199 -0.4898  0.6195  0.0169
 4542TIP3    H113632   5.873   0.140   1.285 -0.8270  2.1101 -0.6486
 4542TIP3    H213633   5.836   0.168   1.140 -3.3570 -0.9110 -0.7117
 4543TIP3   OH213634   6.203   3.145   2.412  0.3210  0.1223 -0.0416
 4543TIP3    H113635   6.258   3.189   2.347  0.4291  0.4040  0.2393
 4543TIP3    H213636   6.238   3.173   2.497  0.6335 -0.8052  0.1478
 4544TIP3   OH213637   2.370   5.202   3.100  0.2475 -0.2941 -0.0933
 4544TIP3    H113638   2.394   5.272   3.160 -0.4780 -0.0576 -0.0705
 4544TIP3    H213639   2.300   5.154   3.145  1.3452 -1.6202  0.2998
 4545TIP3   OH213640   2.029   3.430   1.817 -0.4284 -0.1295 -0.0947
 4545TIP3    H113641   1.981   3.499   1.862  0.2088  0.7802 -0.7844
 4545TIP3    H213642   1.964   3.387   1.761 -1.6175 -2.2446  2.6299
 4546TIP3   OH213643   2.514   2.123   1.517 -0.1345  0.3249 -0.4073
 4546TIP3    H113644   2.421   2.139   1.534 -0.8305 -1.4638 -2.1733
 4546TIP3    H213645   2.526   2.029   1.534  1.2234  0.4149 -0.7417
 4547TIP3   OH213646   1.395   3.740   2.995 -0.1088 -0.1972  0.8392
 4547TIP3    H113647   1.418   3.653   2.961  0.2811  0.8982 -1.9698
 4547TIP3    H213648   1.475   3.772   3.036 -0.3362 -1.2222  2.1557
 4548TIP3   OH213649   3.637   2.828   2.927  0.2425  0.1399 -0.5262
 4548TIP3    H113650   3.632   2.833   2.831  0.1961 -0.3291 -0.5509
 4548TIP3    H213651   3.552   2.793   2.954 -0.7336  2.5967 -0.1113
 4549TIP3   OH213652   3.869   4.832   2.048  0.5395  0.7178  0.0157
 4549TIP3    H113653   3.777   4.804   2.042  0.1839  1.9355 -0.4296
 4549TIP3    H213654   3.916   4.753   2.075 -0.5673 -0.0483 -0.2295
 4550TIP3   OH213655   1.077   4.012   2.042  0.1241  0.1739 -0.0630
 4550TIP3    H113656   1.094   4.105   2.057 -0.3573  0.2092  0.2605
 4550TIP3    H213657   1.072   4.004   1.947  0.6534  0.3928 -0.1128
 4551TIP3   OH213658   5.641   4.903   2.217 -0.0007 -0.0536 -0.2910
 4551TIP3    H113659   5.588   4.857   2.282  0.7209 -1.7358 -0.8401
 4551TIP3    H213660   5.602   4.879   2.133  2.0211 -2.0298 -0.7762
 4552TIP3   OH213661   5.005   4.909   2.536  0.0880 -0.0174 -0.5314
 4552TIP3    H113662   4.981   4.821   2.507 -2.1296  1.1413 -2.5765
 4552TIP3    H213663   4.932   4.936   2.593  1.0695  0.2821  0.6163
 4553TIP3   OH213664   3.400   2.647   3.963 -0.0343 -0.1809 -0.7790
 4553TIP3    H113665   3.470   2.654   4.027  0.5532 -2.0940 -1.1548
 4553TIP3    H213666   3.443   2.616   3.883 -1.4000 -2.3316 -0.7537
 4554TIP3   OH213667   3.036   4.862   4.542 -0.4197  0.1811  0.1434
 4554TIP3    H113668   2.944   4.850   4.563  0.0471 -0.4911  2.0256
 4554TIP3    H213669   3.067   4.774   4.519  0.4723 -0.3793  2.9801
 4555TIP3   OH213670   4.820   3.131   2.099 -0.1072 -0.3446  0.0546
 4555TIP3    H113671   4.755   3.078   2.053 -0.4211 -0.4817  0.6443
 4555TIP3    H213672   4.786   3.220   2.095 -0.0759 -0.3381 -0.0748
 4556TIP3   OH213673   3.001   1.406   3.026  0.3444 -0.2718 -0.2426
 4556TIP3    H113674   2.979   1.314   3.009  1.4514 -0.1572 -2.8416
 4556TIP3    H213675   3.054   1.404   3.105  1.0528 -2.0085 -0.7109
 4557TIP3   OH213676   1.290   3.824   4.851 -0.1505 -0.1076 -0.1505
 4557TIP3    H113677   1.278   3.793   4.941  0.6258  0.9628  0.3398
 4557TIP3    H213678   1.370   3.781   4.821  0.6439  0.9973  0.3504
 4558TIP3   OH213679   0.299   3.503   0.604 -0.0169  0.8226 -0.3690
 4558TIP3    H113680   0.303   3.496   0.699 -0.5371  0.0975 -0.3887
 4558TIP3    H213681   0.364   3.440   0.572 -1.5361 -0.7711 -0.5001
 4559TIP3   OH213682   5.960   4.007   0.952  0.4824 -0.5869 -0.3613
 4559TIP3    H113683   6.019   3.941   0.989 -0.1744 -0.7889  0.3602
 4559TIP3    H213684   5.935   4.061   1.027  0.4123  0.0210 -0.8132
 4560TIP3   OH213685   1.832   0.090   0.366  0.1224  0.4346 -0.2104
 4560TIP3    H113686   1.852   0.063   0.456  1.2625 -0.1248 -0.6149
 4560TIP3    H213687   1.908   0.142   0.339 -0.7465  1.6133 -0.4559
 4561TIP3   OH213688   0.660   1.280   3.561  0.9954 -0.3316  0.3144
 4561TIP3    H113689   0.591   1.257   3.500  0.9304  1.5453 -0.3757
 4561TIP3    H213690   0.637   1.233   3.642 -0.5505 -0.4854 -0.1833
 4562TIP3   OH213691   5.384   2.594   1.931 -0.3432  0.3232  0.0859
 4562TIP3    H113692   5.458   2.605   1.991 -0.2961 -0.1110  0.1087
 4562TIP3    H213693   5.347   2.682   1.922 -2.5558 -0.0784  3.5439
 4563TIP3   OH213694   0.173   1.551   0.444 -0.6796 -0.4217  0.3976
 4563TIP3    H113695   0.112   1.532   0.515 -1.9744  0.4808 -0.4092
 4563TIP3    H213696   0.118   1.550   0.365  0.2429  0.9275 -0.3129
 4564TIP3   OH213697   1.697   3.315   3.239 -0.8371  0.1739 -0.2774
 4564TIP3    H113698   1.624   3.349   3.291  0.3360 -1.4712  2.7120
 4564TIP3    H213699   1.772   3.368   3.265  0.1265 -1.7665  1.2108
 4565TIP3   OH213700   2.644   2.392   2.164 -0.3140 -0.2537 -0.4030
 4565TIP3    H113701   2.657   2.484   2.144 -1.6462 -0.3841 -2.0613
 4565TIP3    H213702   2.568   2.390   2.223 -1.1551 -0.3589 -1.4689
 4566TIP3   OH213703   4.368   0.032   1.004 -0.7389  0.1973  0.5519
 4566TIP3    H113704   4.284   0.026   0.958 -0.2685  0.2395 -0.3254
 4566TIP3    H213705   4.349   0.001   1.093 -1.6602  0.1288  0.3404
 4567TIP3   OH213706   1.497   5.826   1.273  0.2341 -0.0595 -0.1439
 4567TIP3    H113707   1.564   5.762   1.248 -0.3952 -0.6728 -0.3030
 4567TIP3    H213708   1.414   5.779   1.262 -0.2194  0.6652  0.1145
 4568TIP3   OH213709   4.549   0.565   4.603 -0.0172  0.7662 -0.0353
 4568TIP3    H113710   4.460   0.595   4.617 -0.5755 -0.8980  0.2495
 4568TIP3    H213711   4.562   0.496   4.669  0.7796 -0.3574 -1.2981
 4569TIP3   OH213712   6.053   2.507   1.414  0.0434  0.0833 -0.3039
 4569TIP3    H113713   6.103   2.475   1.339 -0.6028 -1.5857 -0.0804
 4569TIP3    H213714   6.028   2.596   1.391 -0.7450 -0.6274 -2.4197
 4570TIP3   OH213715   5.304   0.715   4.138 -0.1250 -0.1075 -0.1885
 4570TIP3    H113716   5.223   0.763   4.123 -1.5189 -2.1653  0.2624
 4570TIP3    H213717   5.329   0.681   4.052  2.0538  2.9852 -0.9408
 4571TIP3   OH213718   0.294   5.042   0.164 -0.3195 -0.4752  0.3202
 4571TIP3    H113719   0.214   5.073   0.205 -0.1124 -0.3911  0.6668
 4571TIP3    H213720   0.358   5.038   0.235 -0.3737 -1.8231  0.3206
 4572TIP3   OH213721   5.674   2.190   4.266 -0.4686 -0.0287 -0.0930
 4572TIP3    H113722   5.700   2.225   4.352 -0.3155 -0.2867 -0.0346
 4572TIP3    H213723   5.721   2.245   4.203  2.3269 -2.0580  0.0253
 4573TIP3   OH213724   0.061   0.796   2.895 -0.8162  0.2165 -0.2603
 4573TIP3    H113725   0.021   0.710   2.901 -0.9096  0.3152  0.5454
 4573TIP3    H213726   0.065   0.828   2.985  0.0006  0.6965 -0.4537
 4574TIP3   OH213727   2.434   1.809   1.403  0.2571  0.0953  0.8173
 4574TIP3    H113728   2.469   1.838   1.318  0.6296 -0.5903  0.7341
 4574TIP3    H213729   2.450   1.715   1.404 -0.4116 -0.0129  1.3414
 4575TIP3   OH213730   4.424   0.681   0.151 -0.1506 -0.4618 -0.3904
 4575TIP3    H113731   4.430   0.622   0.226  1.1937  1.1783  0.8653
 4575TIP3    H213732   4.504   0.733   0.155  0.0522 -0.4245 -3.1021
 4576TIP3   OH213733   0.226   4.684   1.319 -0.4097 -0.3852 -0.4974
 4576TIP3    H113734   0.260   4.763   1.278 -1.5296 -0.4687 -1.6229
 4576TIP3    H213735   0.279   4.613   1.283 -0.6149 -0.3348 -0.8997
 4577TIP3   OH213736   2.981   3.631   4.994 -0.2759  0.0847  0.4998
 4577TIP3    H113737   2.935   3.598   5.072 -2.4254  0.0277 -0.7198
 4577TIP3    H213738   3.049   3.688   5.029 -0.5024 -0.7641  2.4562
 4578TIP3   OH213739   4.403   4.266   2.600  0.1691 -0.6617  0.3719
 4578TIP3    H113740   4.334   4.200   2.594  1.2678 -1.8301  0.0981
 4578TIP3    H213741   4.370   4.330   2.663 -0.4561 -2.0919  1.5584
 4579TIP3   OH213742   5.758   4.702   1.256  0.2144 -0.6056 -0.1832
 4579TIP3    H113743   5.812   4.715   1.178  0.5321  1.6469  0.3466
 4579TIP3    H213744   5.796   4.626   1.300  2.0262  0.0245 -0.6029
 4580TIP3   OH213745   5.610   2.613   1.736  0.4550  0.1792  0.1265
 4580TIP3    H113746   5.575   2.577   1.818  0.5829 -0.7328 -0.2118
 4580TIP3    H213747   5.534   2.619   1.678 -0.1793  3.2281  1.0752
 4581TIP3   OH213748   4.351   0.237   4.096  0.3429 -0.2106  0.2898
 4581TIP3    H113749   4.430   0.261   4.047  0.3513 -1.4063 -0.3307
 4581TIP3    H213750   4.320   0.158   4.052 -0.4531 -0.5028  1.3615
 4582TIP3   OH213751   3.348   5.878   1.942  0.0808 -0.7728  0.4745
 4582TIP3    H113752   3.399   5.805   1.975 -0.6858  0.1901  4.2982
 4582TIP3    H213753   3.398   5.956   1.968 -0.6625  0.1065 -0.6470
 4583TIP3   OH213754   2.725   0.981   1.567 -0.0265  0.2524 -0.0386
 4583TIP3    H113755   2.764   0.972   1.654 -1.0478  1.0133  0.5151
 4583TIP3    H213756   2.666   0.906   1.560 -0.4203  0.5434  0.1791
 4584TIP3   OH213757   2.673   1.225   4.051  0.0380  0.4447  0.0867
 4584TIP3    H113758   2.658   1.286   3.979 -0.5176  0.1989 -0.0096
 4584TIP3    H213759   2.674   1.138   4.009 -0.5930  0.2748  0.4100
 4585TIP3   OH213760   4.154   3.761   0.072  0.1969  0.2636  0.2296
 4585TIP3    H113761   4.193   3.691   0.021 -0.2230  1.2310 -1.4870
 4585TIP3    H213762   4.064   3.733   0.086  0.6357 -0.5761  1.5812
 4586TIP3   OH213763   5.552   0.618   0.347  0.5236 -0.5620 -0.4522
 4586TIP3    H113764   5.541   0.643   0.438  0.6474  0.4941 -0.7184
 4586TIP3    H213765   5.645   0.628   0.330  0.3143  0.5048 -1.0426
 4587TIP3   OH213766   4.436   5.127   5.017 -0.4411 -0.1360 -0.1083
 4587TIP3    H113767   4.506   5.169   5.068 -0.4171 -1.1525  0.7296
 4587TIP3    H213768   4.413   5.192   4.950  0.7825  0.5124  0.0699
 4588TIP3   OH213769   3.768   4.222   1.481 -0.3173  0.8599 -0.0863
 4588TIP3    H113770   3.681   4.183   1.486  0.8431 -1.9235  0.2255
 4588TIP3    H213771   3.752   4.314   1.459 -3.3640  0.8000  1.3094
 4589TIP3   OH213772   2.105   5.593   3.963  0.0901  0.2592 -0.4971
 4589TIP3    H113773   2.036   5.638   3.914 -1.8694 -1.5582  0.3776
 4589TIP3    H213774   2.070   5.585   4.051  2.2153  0.7683  0.4435
 4590TIP3   OH213775   4.920   0.272   4.488  0.0639  0.0056  0.2119
 4590TIP3    H113776   4.844   0.242   4.437  0.0499 -1.4262  1.0394
 4590TIP3    H213777   4.982   0.302   4.422 -0.8927  0.4530 -0.5228
 4591TIP3   OH213778   4.788   5.242   3.732 -0.3204 -0.1564 -0.8690
 4591TIP3    H113779   4.782   5.318   3.790  2.1784 -0.6741  0.2070
 4591TIP3    H213780   4.776   5.166   3.789  2.7183 -0.6926 -0.7939
 4592TIP3   OH213781   2.388   2.894   1.759  0.3497  0.2117  0.1613
 4592TIP3    H113782   2.405   2.805   1.788 -0.5279  0.3224  1.0554
 4592TIP3    H213783   2.407   2.949   1.836 -0.2386  0.6816 -0.0206
 4593TIP3   OH213784   3.206   0.319   2.853  0.3790 -0.1787 -0.1422
 4593TIP3    H113785   3.136   0.324   2.918 -0.2066  0.3361 -0.8029
 4593TIP3    H213786   3.174   0.370   2.779  0.2776 -2.1499 -1.5422
 4594TIP3   OH213787   5.724   0.311   4.744  0.3103  0.1304 -0.0925
 4594TIP3    H113788   5.803   0.328   4.692  0.1021 -2.1656 -1.2589
 4594TIP3    H213789   5.657   0.289   4.680 -1.1426  1.3442  0.9315
 4595TIP3   OH213790   1.594   0.193   0.298  0.3961 -0.4231  0.6533
 4595TIP3    H113791   1.678   0.150   0.314 -0.6074 -2.8770 -0.0613
 4595TIP3    H213792   1.535   0.120   0.277 -0.8975  1.5113 -3.2611
 4596TIP3   OH213793   0.064   1.805   3.417  0.1717 -0.0054 -0.3614
 4596TIP3    H113794   0.083   1.781   3.508  3.1162 -0.8608 -1.1064
 4596TIP3    H213795   0.089   1.897   3.411 -0.3510  0.1485 -0.2473
 4597TIP3   OH213796   0.802   0.143   3.789  0.4438 -0.6026  0.6653
 4597TIP3    H113797   0.849   0.159   3.707  0.7825 -2.6731  0.4207
 4597TIP3    H213798   0.862   0.176   3.857  2.0677 -2.6532  0.3178
 4598TIP3   OH213799   3.474   5.441   3.397  0.4847 -0.2630 -0.0242
 4598TIP3    H113800   3.506   5.378   3.333 -0.4436 -1.4952  0.6817
 4598TIP3    H213801   3.544   5.444   3.463  0.6867 -0.2865 -0.2342
 4599TIP3   OH213802   0.259   5.977   0.840 -0.3507  0.0186  0.4906
 4599TIP3    H113803   0.340   6.008   0.800  0.0524 -1.3305  0.2053
 4599TIP3    H213804   0.270   5.882   0.845 -1.0751  0.0021  2.3172
 4600TIP3   OH213805   1.908   2.913   4.091 -0.2356  0.3483 -0.1088
 4600TIP3    H113806   1.935   2.838   4.038 -0.4178 -0.5097  0.9737
 4600TIP3    H213807   1.837   2.953   4.041 -0.3804 -0.4124 -0.5323
 4601TIP3   OH213808   1.245   4.748   4.921 -0.6230 -0.1663 -0.1993
 4601TIP3    H113809   1.266   4.675   4.864  0.0543 -0.9699  1.0351
 4601TIP3    H213810   1.153   4.734   4.946 -0.1543 -1.3175  1.0027
 4602TIP3   OH213811   4.247   2.263   1.240 -0.3260 -0.1329  0.0269
 4602TIP3    H113812   4.252   2.318   1.162 -1.6120 -0.0560 -0.0227
 4602TIP3    H213813   4.337   2.235   1.256  0.2574  1.4616 -0.3133
 4603TIP3   OH213814   5.438   4.145   2.290  0.3291  0.2990 -0.0708
 4603TIP3    H113815   5.451   4.050   2.291 -1.4071  0.0026  2.4430
 4603TIP3    H213816   5.522   4.181   2.317  0.8855 -0.5099 -0.6721
 4604TIP3   OH213817   1.318   0.775   4.968 -0.5804  0.0849 -0.0459
 4604TIP3    H113818   1.372   0.828   4.910  0.6362 -0.2237  0.7664
 4604TIP3    H213819   1.291   0.701   4.914 -2.0223  1.3050 -1.0922
 4605TIP3   OH213820   0.161   2.064   2.393 -0.5290 -0.2090  0.4259
 4605TIP3    H113821   0.070   2.091   2.404 -0.8340 -0.4430 -1.3059
 4605TIP3    H213822   0.160   1.969   2.406 -0.3743 -0.1038  1.2458
 4606TIP3   OH213823   4.637   4.215   4.317  0.4123 -0.6663  0.3766
 4606TIP3    H113824   4.558   4.185   4.272 -0.2186 -0.7223  1.4966
 4606TIP3    H213825   4.664   4.293   4.269  0.2853 -1.2288 -0.6524
 4607TIP3   OH213826   5.020   3.346   1.894  0.0958  0.0181 -0.0771
 4607TIP3    H113827   5.098   3.400   1.902 -0.1324  0.1321  1.6881
 4607TIP3    H213828   5.041   3.264   1.939 -0.8303  0.1110  0.5679
 4608TIP3   OH213829   4.470   1.822   4.111  0.6521  0.1934 -0.6169
 4608TIP3    H113830   4.383   1.802   4.078  0.7061 -1.2294 -0.0106
 4608TIP3    H213831   4.528   1.761   4.065  1.1012  0.0691  0.0903
 4609TIP3   OH213832   0.079   5.764   2.941 -0.4728 -0.2027 -0.4346
 4609TIP3    H113833   0.059   5.681   2.900 -0.2282 -0.2360 -0.4857
 4609TIP3    H213834   0.109   5.820   2.870  3.4425 -1.3138  0.1203
 4610TIP3   OH213835   4.331   0.951   4.457  0.1290  0.1407 -0.6375
 4610TIP3    H113836   4.415   0.973   4.497 -0.2755  0.1219  0.2281
 4610TIP3    H213837   4.313   1.025   4.398  0.2078  0.6902  0.0230
 4611TIP3   OH213838   5.712   3.381   2.636 -1.0545 -0.1707 -0.1162
 4611TIP3    H113839   5.678   3.360   2.723 -1.4477 -0.5686 -0.3598
 4611TIP3    H213840   5.676   3.313   2.580 -1.1269  0.3128 -0.6630
 4612TIP3   OH213841   6.011   1.237   2.415 -0.3225 -0.2395  0.6500
 4612TIP3    H113842   6.026   1.325   2.380  1.5134 -1.2839 -1.4301
 4612TIP3    H213843   6.040   1.241   2.506  3.4497  0.4399 -0.4306
 4613TIP3   OH213844   2.090   1.561   2.097 -0.0870 -0.3081 -0.0746
 4613TIP3    H113845   2.174   1.552   2.141  1.0978 -0.2707 -2.2199
 4613TIP3    H213846   2.032   1.598   2.164  1.3688 -1.0434  1.6680
 4614TIP3   OH213847   4.973   3.888   1.858 -0.5610  0.5863  0.0126
 4614TIP3    H113848   4.919   3.888   1.779 -2.1788  1.5513  1.0557
 4614TIP3    H213849   4.970   3.978   1.889  1.9145  0.7327  0.0007
 4615TIP3   OH213850   1.496   4.531   3.065  0.2993  0.1996  0.5216
 4615TIP3    H113851   1.438   4.529   3.141 -1.0076 -0.2470 -0.4499
 4615TIP3    H213852   1.510   4.439   3.043  0.9631  0.3168  0.4277
 4616TIP3   OH213853   0.765   1.616   3.837  0.2934 -0.1178  0.6102
 4616TIP3    H113854   0.785   1.697   3.885  0.4860 -0.1974  0.6646
 4616TIP3    H213855   0.728   1.647   3.754  0.8176  0.0377  0.4313
 4617TIP3   OH213856   4.875   2.063   3.141  0.2848  0.1599  0.0583
 4617TIP3    H113857   4.884   2.070   3.046  3.0531  2.4030  0.3823
 4617TIP3    H213858   4.932   1.990   3.165  0.8998  0.6626  0.1375
 4618TIP3   OH213859   2.084   3.176   1.445 -0.2510  0.0681  0.2448
 4618TIP3    H113860   2.086   3.262   1.403  2.1512 -0.9039 -1.8729
 4618TIP3    H213861   2.154   3.181   1.511  1.0411 -0.7221 -1.0184
 4619TIP3   OH213862   1.778   2.336   2.917 -0.1073  0.3929  0.1609
 4619TIP3    H113863   1.738   2.250   2.904 -1.2584  0.9786 -0.2584
 4619TIP3    H213864   1.794   2.340   3.011 -0.2687 -0.1835  0.2190
 4620TIP3   OH213865   2.866   1.502   4.478  0.0760 -0.1419  0.1815
 4620TIP3    H113866   2.800   1.484   4.411 -2.3888  0.7172  2.2192
 4620TIP3    H213867   2.921   1.570   4.440 -0.0276 -1.0386 -1.6839
 4621TIP3   OH213868   4.093   1.426   1.977 -0.1959  0.0813 -0.8034
 4621TIP3    H113869   4.029   1.494   1.959 -1.3098 -0.8728 -0.5497
 4621TIP3    H213870   4.138   1.413   1.893 -0.3405  0.7503 -0.9877
 4622TIP3   OH213871   1.127   3.558   0.994 -0.3148  0.0293  0.4198
 4622TIP3    H113872   1.050   3.501   0.991 -0.8826  0.5951  2.4627
 4622TIP3    H213873   1.182   3.520   1.062 -0.6122  1.7473  1.6748
 4623TIP3   OH213874   0.377   1.616   1.212  0.2028 -0.3639  0.4671
 4623TIP3    H113875   0.388   1.669   1.132  1.4870 -1.5354 -0.1721
 4623TIP3    H213876   0.422   1.666   1.280  0.2238  0.0219  0.1738
 4624TIP3   OH213877   0.224   2.009   5.041 -0.0226  0.0636 -0.0711
 4624TIP3    H113878   0.227   1.921   5.078 -0.9397  0.5309  1.1833
 4624TIP3    H213879   0.254   1.998   4.950  0.9414 -1.3425  0.3839
 4625TIP3   OH213880   5.529   0.044   2.304 -0.3443  0.1737  0.0739
 4625TIP3    H113881   5.559   0.120   2.353  0.2800  0.4554 -0.7137
 4625TIP3    H213882   5.555   0.062   2.214  1.8769 -1.9728  0.1849
 4626TIP3   OH213883   2.386   3.609   4.508 -0.4279  0.0642 -0.1550
 4626TIP3    H113884   2.349   3.563   4.433  3.2384 -0.8101 -1.6419
 4626TIP3    H213885   2.389   3.543   4.577 -0.2154 -0.3181 -0.5251
 4627TIP3   OH213886   5.928   4.967   2.042  0.1260  0.2888  0.1605
 4627TIP3    H113887   5.947   4.917   1.962 -0.5121 -2.7263  1.7227
 4627TIP3    H213888   6.013   4.979   2.084  0.2388  0.1094 -0.0180
 4628TIP3   OH213889   0.318   3.121   3.505 -0.5869  0.6054 -0.1727
 4628TIP3    H113890   0.261   3.100   3.432 -1.6204  1.6090  0.3219
 4628TIP3    H213891   0.288   3.206   3.536  0.1110  0.4021  1.1423
 4629TIP3   OH213892   1.098   2.569   1.818 -0.6231 -0.0142  0.2586
 4629TIP3    H113893   1.119   2.601   1.730 -1.9284  0.1238 -0.0321
 4629TIP3    H213894   1.108   2.645   1.875 -0.5468  0.0998  0.0918
 4630TIP3   OH213895   3.794   1.839   3.681 -0.0565  0.2169  0.1014
 4630TIP3    H113896   3.839   1.857   3.598 -2.9703  1.2043 -1.3979
 4630TIP3    H213897   3.841   1.894   3.745 -0.7164  3.4256 -1.9151
 4631TIP3   OH213898   3.528   3.785   3.480 -0.1465  1.0507  0.2162
 4631TIP3    H113899   3.494   3.740   3.403  0.4159  1.4825 -0.3004
 4631TIP3    H213900   3.577   3.718   3.528 -0.9841  0.6403  0.5150
 4632TIP3   OH213901   1.906   4.253   0.282 -0.2717 -0.2423  0.2603
 4632TIP3    H113902   1.957   4.183   0.240 -1.8256 -0.7652 -0.8216
 4632TIP3    H213903   1.930   4.332   0.234 -0.3839 -0.4625 -0.1610
 4633TIP3   OH213904   5.952   1.811   1.379 -0.4528 -0.2829  0.0530
 4633TIP3    H113905   6.013   1.853   1.440 -1.7544 -0.1864  1.3558
 4633TIP3    H213906   5.947   1.871   1.304  0.6062 -0.0166  0.1893
 4634TIP3   OH213907   0.771   3.297   0.635 -0.2548  0.0631  0.4927
 4634TIP3    H113908   0.817   3.222   0.673 -0.3859  0.0235  0.5729
 4634TIP3    H213909   0.828   3.326   0.563 -0.2679 -0.1908  0.3812
 4635TIP3   OH213910   2.490   5.723   1.912  0.1429 -0.6135  0.0662
 4635TIP3    H113911   2.408   5.705   1.957 -0.7462  1.5684 -0.5927
 4635TIP3    H213912   2.519   5.636   1.882 -0.8386 -1.6938  2.0324
 4636TIP3   OH213913   3.142   0.094   4.553 -0.3479 -0.3252 -0.4252
 4636TIP3    H113914   3.158   0.034   4.480 -2.0426 -0.5165 -0.6777
 4636TIP3    H213915   3.230   0.120   4.582  0.3700 -0.7382 -2.1044
 4637TIP3   OH213916   6.119   0.047   0.936 -0.0062  0.0717 -0.2113
 4637TIP3    H113917   6.163   0.065   0.853  0.5591 -0.0675  0.0509
 4637TIP3    H213918   6.040  -0.001   0.911  0.0069  0.2872 -0.6884
 4638TIP3   OH213919   0.592   1.558   2.029  0.0886 -0.0851 -0.4161
 4638TIP3    H113920   0.594   1.650   2.002  0.9663 -0.1151 -0.4968
 4638TIP3    H213921   0.514   1.522   1.987 -0.7074  0.8153  0.2758
 4639TIP3   OH213922   4.100   0.698   3.856 -0.2317 -0.7083  0.1338
 4639TIP3    H113923   4.156   0.763   3.815 -0.1895 -1.4370 -0.9907
 4639TIP3    H213924   4.020   0.746   3.879  0.5344  0.1642  1.0867
 4640TIP3   OH213925   0.586   0.905   2.624  0.3078  0.3337  0.1127
 4640TIP3    H113926   0.589   0.815   2.654  0.6587  0.2459 -0.1863
 4640TIP3    H213927   0.535   0.902   2.543 -0.3162  0.5157  0.4914
 4641TIP3   OH213928   3.978   4.861   2.389  0.0050 -0.2710 -0.0422
 4641TIP3    H113929   3.917   4.928   2.357  1.5836  0.6969 -1.2043
 4641TIP3    H213930   4.009   4.817   2.310 -1.4885 -2.9248  0.7285
 4642TIP3   OH213931   1.695   2.479   3.220 -0.3924  0.1880 -0.0824
 4642TIP3    H113932   1.642   2.403   3.244 -0.5487 -0.5402 -2.5295
 4642TIP3    H213933   1.782   2.442   3.201 -0.5273  0.5619 -1.4892
 4643TIP3   OH213934   3.985   2.965   3.773  0.3277  0.6758  0.2832
 4643TIP3    H113935   3.962   3.043   3.722 -0.2614  0.7780  0.7043
 4643TIP3    H213936   3.907   2.945   3.824  0.4194 -0.2953  0.0543
 4644TIP3   OH213937   6.150   3.181   4.721 -0.3177  1.1036 -0.2193
 4644TIP3    H113938   6.172   3.092   4.695  0.3029  1.4349 -0.8537
 4644TIP3    H213939   6.160   3.182   4.816 -2.0126  0.0411  0.0259
 4645TIP3   OH213940   5.517   5.513   3.241  0.4404  0.4172  0.3028
 4645TIP3    H113941   5.604   5.486   3.270  0.2247 -0.6326  0.0316
 4645TIP3    H213942   5.529   5.535   3.149  0.5419  0.8785  0.4264
 4646TIP3   OH213943   2.137   3.308   2.318  0.1566 -0.2588  0.3259
 4646TIP3    H113944   2.069   3.310   2.386 -1.5847  1.7016 -1.3323
 4646TIP3    H213945   2.093   3.341   2.240  2.2025 -2.0306 -1.6834
 4647TIP3   OH213946   4.172   5.897   3.987  0.4388  0.9559  0.5952
 4647TIP3    H113947   4.103   5.924   3.927  1.0810  3.5941  0.9305
 4647TIP3    H213948   4.242   5.865   3.930 -0.2521  0.1777  0.1586
 4648TIP3   OH213949   2.507   5.496   4.361 -0.7760 -0.2920  0.7701
 4648TIP3    H113950   2.494   5.401   4.358  1.3033 -0.6188 -1.7809
 4648TIP3    H213951   2.430   5.533   4.318 -0.8216 -0.9791  0.2383
 4649TIP3   OH213952   0.029   4.624   2.668 -0.0060 -0.4616 -0.1163
 4649TIP3    H113953  -0.030   4.692   2.701  0.5408 -1.5317  3.5868
 4649TIP3    H213954   0.116   4.657   2.688  0.4384 -0.9468 -1.1736
 4650TIP3   OH213955   3.452   3.216   3.564 -0.3829  0.1789  0.2031
 4650TIP3    H113956   3.452   3.140   3.506  0.8716 -1.3155  2.0275
 4650TIP3    H213957   3.364   3.217   3.602 -1.5247  1.6890 -2.1849
 4651TIP3   OH213958   3.311   5.065   4.442  0.0717 -0.3888  0.6362
 4651TIP3    H113959   3.331   4.989   4.388 -1.3629  0.0082 -0.5239
 4651TIP3    H213960   3.396   5.099   4.468  0.8342 -0.5369 -1.4776
 4652TIP3   OH213961   3.931   4.427   3.666 -0.1789 -0.2036  0.0458
 4652TIP3    H113962   3.868   4.497   3.649 -0.8843 -0.6787  0.6809
 4652TIP3    H213963   3.903   4.355   3.610 -1.1862 -0.9860  1.5146
 4653TIP3   OH213964   3.656   2.202   1.641 -0.1203  0.3080  0.3637
 4653TIP3    H113965   3.739   2.248   1.657  0.3848  0.0922 -1.4591
 4653TIP3    H213966   3.590   2.270   1.646  0.3672  0.8172 -0.0182
 4654TIP3   OH213967   4.161   2.409   3.776 -0.1974  0.2188 -0.0725
 4654TIP3    H113968   4.189   2.473   3.841  0.5958  0.7562 -0.9216
 4654TIP3    H213969   4.079   2.445   3.740  0.2561  0.7843 -0.5630
 4655TIP3   OH213970   3.690   2.024   3.169  0.0070 -0.2153  0.4894
 4655TIP3    H113971   3.640   2.046   3.090  0.5629 -0.3990  0.0722
 4655TIP3    H213972   3.638   1.957   3.213 -0.8765  0.7091  0.8898
 4656TIP3   OH213973   6.069   2.464   4.633 -0.0584  1.0667  0.6474
 4656TIP3    H113974   6.107   2.383   4.666  0.3031  1.7555  1.9947
 4656TIP3    H213975   6.024   2.503   4.708 -0.5258  1.9530 -0.0536
 4657TIP3   OH213976   5.283   0.377   4.931 -0.2520 -0.1100  0.4472
 4657TIP3    H113977   5.246   0.289   4.939 -0.4769 -0.0589 -0.0433
 4657TIP3    H213978   5.294   0.390   4.837  1.2908 -0.2448  0.5789
 4658TIP3   OH213979   1.407   0.711   4.595  0.1845 -0.2625  0.1409
 4658TIP3    H113980   1.486   0.754   4.627  0.7258 -1.4365  0.4634
 4658TIP3    H213981   1.436   0.662   4.518 -0.9768  2.0167 -1.8410
 4659TIP3   OH213982   5.722   2.414   4.549 -0.2527 -0.2126  0.6117
 4659TIP3    H113983   5.741   2.323   4.570 -1.4683 -0.3314  1.3014
 4659TIP3    H213984   5.796   2.443   4.496  1.7167 -0.6766  2.9278
 4660TIP3   OH213985   0.311   3.678   1.018  0.1505 -0.0321  0.1652
 4660TIP3    H113986   0.257   3.621   1.073 -1.5495 -0.1880 -1.5679
 4660TIP3    H213987   0.264   3.761   1.015 -0.1048 -0.1957 -1.4512
 4661TIP3   OH213988   5.072   3.086   1.978 -0.1382  0.0827 -0.2947
 4661TIP3    H113989   4.993   3.084   2.032  0.2455 -2.2260  0.2848
 4661TIP3    H213990   5.066   3.008   1.923  1.5547  0.0378 -0.4771
 4662TIP3   OH213991   0.676   3.298   2.383  0.0262 -0.0070  0.2503
 4662TIP3    H113992   0.754   3.278   2.330  0.0386  0.0827  0.2357
 4662TIP3    H213993   0.665   3.220   2.438 -1.3845 -1.1346 -1.5410
 4663TIP3   OH213994   4.609   2.632   3.239  0.2600 -0.0338  0.4498
 4663TIP3    H113995   4.566   2.708   3.278  0.5758  1.0693 -1.2583
 4663TIP3    H213996   4.703   2.651   3.247  0.4645 -1.4590  2.2669
 4664TIP3   OH213997   3.957   5.549   1.012  0.3939 -0.1746 -0.2989
 4664TIP3    H113998   3.885   5.535   1.073  0.4834 -0.1243 -0.1830
 4664TIP3    H213999   3.923   5.610   0.947  0.4181  0.0546 -0.0972
 4665TIP3   OH214000   2.640   2.254   0.727  0.2072  0.2193 -0.6802
 4665TIP3    H114001   2.662   2.161   0.726  2.5419  0.7016 -0.1866
 4665TIP3    H214002   2.646   2.279   0.819 -3.6841  0.2332 -0.2966
 4666TIP3   OH214003   1.441   3.464   2.650 -0.0799 -0.1354 -0.0766
 4666TIP3    H114004   1.429   3.372   2.625  0.8703 -0.4894  0.7381
 4666TIP3    H214005   1.352   3.501   2.650 -0.8921 -1.8251  2.5340
 4667TIP3   OH214006   4.421   2.769   4.678 -0.0236 -1.1239 -0.4275
 4667TIP3    H114007   4.454   2.837   4.619 -0.2143  1.2655  2.0306
 4667TIP3    H214008   4.495   2.746   4.733 -0.7565 -0.3904  0.9370
 4668TIP3   OH214009   0.247   0.324   0.941 -0.4908  0.6744 -0.6693
 4668TIP3    H114010   0.259   0.248   0.884 -1.7600 -0.2879  0.3018
 4668TIP3    H214011   0.336   0.355   0.958  0.0877 -0.8645 -0.7077
 4669TIP3   OH214012   3.163   3.893   4.087 -0.4551  0.4451  0.2175
 4669TIP3    H114013   3.257   3.878   4.101 -0.5064  2.7092  4.6737
 4669TIP3    H214014   3.125   3.805   4.082  1.5921 -0.5779  1.4135
 4670TIP3   OH214015   3.912   3.443   3.107  0.0534  0.2026  0.3046
 4670TIP3    H114016   3.887   3.519   3.054 -0.0789 -0.3583 -0.4552
 4670TIP3    H214017   4.006   3.451   3.118  0.3989 -0.6390 -1.6219
 4671TIP3   OH214018   1.547   1.361   2.681  0.1975  0.3340 -0.0582
 4671TIP3    H114019   1.608   1.356   2.607  0.0270  0.9288 -0.2484
 4671TIP3    H214020   1.460   1.348   2.642  0.0388  1.3937 -0.0874
 4672TIP3   OH214021   5.664   4.195   3.266 -0.6893  0.8812 -0.6009
 4672TIP3    H114022   5.758   4.182   3.258 -0.4368  0.8908  1.6154
 4672TIP3    H214023   5.653   4.236   3.352 -2.7304  0.6044 -0.6874
 4673TIP3   OH214024   0.178   1.294   2.749 -0.3539 -0.0856 -0.6035
 4673TIP3    H114025   0.174   1.322   2.840  2.1167  0.8449 -0.6912
 4673TIP3    H214026   0.094   1.252   2.732 -2.2766  2.7497  1.0818
 4674TIP3   OH214027   6.096   3.185   1.720  0.1426  0.0196 -0.5902
 4674TIP3    H114028   6.100   3.103   1.769  0.6027  0.5345  0.2755
 4674TIP3    H214029   6.184   3.196   1.683 -0.0606 -0.1206 -1.1200
 4675TIP3   OH214030   4.945   4.396   2.854  0.0026 -0.1499 -0.1507
 4675TIP3    H114031   4.956   4.311   2.897  1.1478 -0.9350 -1.8988
 4675TIP3    H214032   5.032   4.417   2.819 -0.1861  1.8976  0.4676
 4676TIP3   OH214033   5.350   2.924   4.493  0.3017  0.5161 -0.4548
 4676TIP3    H114034   5.297   2.874   4.554 -0.2057  2.5165  0.8470
 4676TIP3    H214035   5.288   2.957   4.428  0.1141  1.8813  0.3946
 4677TIP3   OH214036   1.301   4.076   1.559 -0.4889  0.8637  0.0205
 4677TIP3    H114037   1.322   4.106   1.471  0.0341  0.0629 -0.1414
 4677TIP3    H214038   1.384   4.080   1.607 -0.6446  0.7474  0.3074
 4678TIP3   OH214039   0.708   2.226   3.271 -0.4997  0.2541 -0.4790
 4678TIP3    H114040   0.659   2.275   3.337 -0.0798  1.9813 -1.3851
 4678TIP3    H214041   0.799   2.249   3.286 -0.3366  0.1240 -1.2079
 4679TIP3   OH214042   5.503   1.722   4.461 -0.0912  0.4238  0.8095
 4679TIP3    H114043   5.533   1.780   4.391 -1.1742 -0.3189 -0.3195
 4679TIP3    H214044   5.416   1.754   4.484  0.1820  0.5472  1.7026
 4680TIP3   OH214045   4.986   1.377   4.859 -0.5552  0.3526 -0.0177
 4680TIP3    H114046   5.069   1.401   4.817  0.4691  0.2576  1.8007
 4680TIP3    H214047   4.943   1.319   4.797  0.8190  0.2878 -0.9660
 4681TIP3   OH214048   3.889   5.838   2.102 -0.2908 -0.6328 -0.2124
 4681TIP3    H114049   3.953   5.804   2.039 -1.5932 -0.9350 -1.4255
 4681TIP3    H214050   3.937   5.843   2.185  1.2531 -0.9684 -1.0521
 4682TIP3   OH214051   1.733   5.862   0.923  0.0448  0.0844  0.2557
 4682TIP3    H114052   1.725   5.768   0.940  0.3055  0.3684  2.1891
 4682TIP3    H214053   1.825   5.882   0.939  0.4541  0.3643 -2.1079
 4683TIP3   OH214054   1.787   1.951   1.629  0.1028 -0.3767 -0.0734
 4683TIP3    H114055   1.727   1.955   1.555 -1.0346  0.0383  0.8357
 4683TIP3    H214056   1.781   1.861   1.660  0.1412 -0.4031 -0.1435
 4684TIP3   OH214057   1.951   2.863   3.704  0.4048  0.2611 -0.1084
 4684TIP3    H114058   1.866   2.826   3.728  0.7976 -0.2737  0.4930
 4684TIP3    H214059   1.992   2.795   3.651  1.1552 -0.2118  1.0470
 4685TIP3   OH214060   3.067   0.327   3.919 -0.1415  1.0798  0.5354
 4685TIP3    H114061   3.023   0.382   3.854 -1.1461  0.8257  0.9813
 4685TIP3    H214062   3.028   0.240   3.908  0.2266  0.8547  0.9663
 4686TIP3   OH214063   5.162   3.199   1.631  0.4244  0.0776  0.3241
 4686TIP3    H114064   5.165   3.257   1.707 -2.1623 -0.6208  1.0523
 4686TIP3    H214065   5.078   3.153   1.638  1.4473 -2.2940 -1.2959
 4687TIP3   OH214066   5.289   2.585   2.511 -0.0915 -0.0714 -0.1461
 4687TIP3    H114067   5.278   2.571   2.605  0.6320 -0.4119 -0.1067
 4687TIP3    H214068   5.299   2.680   2.503 -0.5139 -0.0044  0.0776
 4688TIP3   OH214069   1.015   0.849   3.941  0.5168  0.0423 -0.0688
 4688TIP3    H114070   0.962   0.915   3.897  1.4734  0.9402  0.0888
 4688TIP3    H214071   1.104   0.884   3.938  0.7138 -0.1789  1.9907
 4689TIP3   OH214072   5.384   2.779   3.529  0.2362  0.4318 -0.2175
 4689TIP3    H114073   5.399   2.685   3.525 -0.4255  0.3287 -0.3910
 4689TIP3    H214074   5.311   2.795   3.469 -0.4950  0.8666  0.7434
 4690TIP3   OH214075   4.237   5.612   4.189 -0.2104 -0.5786  0.5718
 4690TIP3    H114076   4.143   5.604   4.170 -0.0772  0.0479 -0.3956
 4690TIP3    H214077   4.278   5.542   4.137  0.0058  0.1790 -0.3006
 4691TIP3   OH214078   0.828   1.918   2.069 -0.2651  0.0418  0.2996
 4691TIP3    H114079   0.805   2.007   2.040 -0.1743 -0.0486 -0.0521
 4691TIP3    H214080   0.864   1.930   2.157 -0.4126  0.3354  0.3221
 4692TIP3   OH214081   3.776   2.265   3.227  0.1598 -0.1859 -0.5688
 4692TIP3    H114082   3.867   2.237   3.218  0.2068 -0.5593  0.7910
 4692TIP3    H214083   3.726   2.184   3.231 -0.0267 -0.0394  0.4383
 4693TIP3   OH214084   5.892   5.291   5.086 -0.3734 -0.0308  0.1955
 4693TIP3    H114085   5.851   5.370   5.051  0.2533  0.9966  1.6485
 4693TIP3    H214086   5.818   5.239   5.119 -0.7917 -0.0624 -0.7690
 4694TIP3   OH214087   0.872   0.651   4.097  0.1386  0.4480  1.1146
 4694TIP3    H114088   0.910   0.718   4.040  1.5230 -0.2403  1.1973
 4694TIP3    H214089   0.782   0.640   4.064  0.6192  0.7144 -0.3563
 4695TIP3   OH214090   0.402   0.355   2.390  0.3211  0.6983  0.0185
 4695TIP3    H114091   0.312   0.328   2.370 -0.2170  2.5743 -0.2941
 4695TIP3    H214092   0.397   0.397   2.476  1.1444 -0.2239  0.5403
 4696TIP3   OH214093   3.638   4.866   3.958  0.3981 -0.3403 -0.3910
 4696TIP3    H114094   3.652   4.832   4.046 -0.4152 -0.1949 -0.1998
 4696TIP3    H214095   3.676   4.954   3.960  2.0242 -1.0115 -0.7321
 4697TIP3   OH214096   4.061   4.468   0.699  0.9301 -0.6111 -0.3124
 4697TIP3    H114097   4.105   4.478   0.783  1.3400 -1.5199 -0.4102
 4697TIP3    H214098   4.019   4.381   0.704 -0.8469  0.2011 -0.2259
 4698TIP3   OH214099   0.914   4.388   3.373  0.1939  0.2700  0.0162
 4698TIP3    H114100   1.002   4.352   3.359  0.2914  0.9042 -1.0890
 4698TIP3    H214101   0.929   4.469   3.422  0.2201  0.3088 -0.0552
 4699TIP3   OH214102   4.486   0.183   1.511  0.4649  0.1666  0.0816
 4699TIP3    H114103   4.420   0.155   1.575  1.4611  0.0787  1.1169
 4699TIP3    H214104   4.471   0.276   1.500  1.5897  0.6462  2.1090
 4700TIP3   OH214105   4.825   4.417   0.681 -0.5022 -0.5353  0.6438
 4700TIP3    H114106   4.777   4.491   0.717 -1.4716 -0.6401 -0.4152
 4700TIP3    H214107   4.766   4.343   0.690 -0.7585 -0.5690 -1.1223
 4701TIP3   OH214108   0.480   3.839   0.665 -0.4180 -0.1273  0.0981
 4701TIP3    H114109   0.558   3.885   0.635 -0.5780  0.0663 -0.0222
 4701TIP3    H214110   0.469   3.767   0.603 -0.2761 -0.2169  0.1761
 4702TIP3   OH214111   2.305   2.414   0.303  0.0682  0.0401  0.2881
 4702TIP3    H114112   2.291   2.459   0.219  1.1261  2.2994  1.2211
 4702TIP3    H214113   2.235   2.350   0.308 -0.2814  0.1333 -2.1168
 4703TIP3   OH214114   3.493   3.692   2.748 -0.0025 -0.1853 -0.1063
 4703TIP3    H114115   3.478   3.617   2.805 -0.3892 -0.1395 -0.1493
 4703TIP3    H214116   3.483   3.769   2.805 -2.2517 -0.0520 -0.6027
 4704TIP3   OH214117   5.610   1.820   2.058  0.5777  0.3402  0.4355
 4704TIP3    H114118   5.516   1.812   2.074  0.5717 -0.7648 -0.0478
 4704TIP3    H214119   5.620   1.800   1.965  1.3069  0.3092  0.5161
 4705TIP3   OH214120   2.096   1.311   3.924  0.0254 -0.2391 -0.3013
 4705TIP3    H114121   2.068   1.337   3.837 -1.4860 -0.2322  0.1575
 4705TIP3    H214122   2.065   1.381   3.981 -1.6723 -1.6365  0.5989
 4706TIP3   OH214123   3.447   1.582   3.562 -0.6084  0.7710 -0.6332
 4706TIP3    H114124   3.443   1.507   3.502 -0.9470 -0.0621  0.3860
 4706TIP3    H214125   3.538   1.613   3.555  0.2819 -1.2672  0.6639
 4707TIP3   OH214126   3.172   5.051   2.840 -0.4031  0.4723 -0.1255
 4707TIP3    H114127   3.089   5.094   2.858  0.0427  1.7476 -0.9484
 4707TIP3    H214128   3.237   5.121   2.848  0.4422 -0.2203 -0.7341
 4708TIP3   OH214129   3.125   4.317   2.382  0.0477 -0.2600 -0.3919
 4708TIP3    H114130   3.068   4.342   2.455  0.2191  0.1826 -0.4107
 4708TIP3    H214131   3.167   4.398   2.354  1.8127 -0.8058  0.5535
 4709TIP3   OH214132   0.667   2.703   0.491  0.0255  0.1456 -0.4284
 4709TIP3    H114133   0.708   2.781   0.529 -0.3339  0.9096 -1.5629
 4709TIP3    H214134   0.679   2.636   0.558  0.6897  1.0612  0.4193
 4710TIP3   OH214135   4.315   5.693   3.517 -0.2149 -0.1824  0.6036
 4710TIP3    H114136   4.258   5.631   3.564 -0.8710 -0.1999 -0.1745
 4710TIP3    H214137   4.372   5.730   3.584  0.1172 -1.5482  1.1100
 4711TIP3   OH214138   2.484   3.583   0.195  0.5012 -0.4732 -0.3607
 4711TIP3    H114139   2.552   3.547   0.251  1.9748 -0.4650 -2.0635
 4711TIP3    H214140   2.531   3.619   0.119 -1.3405  0.1561 -1.2777
 4712TIP3   OH214141   3.141   2.992   4.513  0.5598 -0.2212  0.2029
 4712TIP3    H114142   3.209   3.056   4.536 -0.2755  0.5570  0.5539
 4712TIP3    H214143   3.168   2.959   4.427 -0.4852  2.8009 -1.4348
 4713TIP3   OH214144   2.231   4.750   4.743  0.1807 -0.6127  0.1942
 4713TIP3    H114145   2.174   4.689   4.789 -0.5508 -0.6478 -0.7190
 4713TIP3    H214146   2.176   4.827   4.726  1.0175  0.2154  1.1152
 4714TIP3   OH214147   1.370   0.079   4.740 -0.2406 -0.1672  0.1452
 4714TIP3    H114148   1.298   0.140   4.727 -0.9931 -1.2870 -1.1006
 4714TIP3    H214149   1.329  -0.007   4.747  0.8315 -0.6086  1.5016
 4715TIP3   OH214150   2.103   0.790   3.831  0.0886 -0.4194  0.0226
 4715TIP3    H114151   2.107   0.885   3.842  1.8541 -0.1705 -2.0613
 4715TIP3    H214152   2.165   0.755   3.896  0.2462 -0.0625  0.0646
 4716TIP3   OH214153   3.536   1.585   0.564 -0.2516 -0.6105  0.3645
 4716TIP3    H114154   3.529   1.677   0.538 -0.6950 -0.5889  0.5614
 4716TIP3    H214155   3.594   1.546   0.498  0.6831  0.0086  0.8143
 4717TIP3   OH214156   2.266   3.110   0.837 -0.4892 -0.4754 -0.0362
 4717TIP3    H114157   2.252   3.204   0.841 -1.3546 -0.6244  0.5822
 4717TIP3    H214158   2.322   3.098   0.760 -1.3470  0.4254 -0.8265
 4718TIP3   OH214159   5.319   0.950   2.914 -0.0256  0.2456  0.0023
 4718TIP3    H114160   5.328   1.012   2.842 -0.7571 -0.0894 -0.3877
 4718TIP3    H214161   5.255   0.990   2.973  0.9426  0.7553  0.7404
 4719TIP3   OH214162   3.781   3.819   0.318  0.4933 -0.0783 -0.0996
 4719TIP3    H114163   3.725   3.860   0.384  0.2427  0.4695 -0.6391
 4719TIP3    H214164   3.842   3.888   0.292  0.2334 -0.1099 -0.8292
 4720TIP3   OH214165   2.580   2.033   3.956  0.2714  0.3915  0.0371
 4720TIP3    H114166   2.493   2.073   3.948 -0.2231 -0.7184 -0.3145
 4720TIP3    H214167   2.594   2.026   4.051 -0.7006 -0.8175  0.1131
 4721TIP3   OH214168   0.920   2.837   2.494  0.8141 -0.3355  0.1958
 4721TIP3    H114169   0.910   2.777   2.568 -2.1852  0.4071  0.5052
 4721TIP3    H214170   0.987   2.900   2.523  0.7029 -0.8804  1.6971
 4722TIP3   OH214171   5.056   0.652   3.823 -0.5749  0.6701  0.7168
 4722TIP3    H114172   5.140   0.614   3.851 -1.1524  0.1272  1.7856
 4722TIP3    H214173   4.993   0.581   3.837 -1.3587  1.3906  0.8513
 4723TIP3   OH214174   5.494   4.759   4.766 -0.5443 -0.0622  0.4029
 4723TIP3    H114175   5.447   4.837   4.797  0.4353  0.6960  0.0373
 4723TIP3    H214176   5.425   4.696   4.745 -1.3642  0.7813  0.5004
 4724TIP3   OH214177   5.496   2.358   3.678 -0.0786 -0.4217  0.1305
 4724TIP3    H114178   5.448   2.331   3.757  2.2463  1.0308  2.1940
 4724TIP3    H214179   5.519   2.276   3.635  0.6577 -1.4660  2.3475
 4725TIP3   OH214180   3.355   0.299   4.058 -0.3758 -0.2572 -0.0866
 4725TIP3    H114181   3.428   0.244   4.086  1.9317  1.8419 -1.6294
 4725TIP3    H214182   3.347   0.364   4.128 -1.0255 -0.6673  0.2319
 4726TIP3   OH214183   0.260   5.257   2.374  0.2792  0.3166 -0.0072
 4726TIP3    H114184   0.265   5.167   2.405 -3.6517 -0.2683 -0.6158
 4726TIP3    H214185   0.276   5.252   2.280 -0.2653  0.1794 -0.0954
 4727TIP3   OH214186   3.595   5.473   0.552  0.3465  0.0698  0.3105
 4727TIP3    H114187   3.531   5.485   0.482 -1.3551 -1.9246  1.4382
 4727TIP3    H214188   3.595   5.557   0.599  1.3397  1.3536 -1.8408
 4728TIP3   OH214189   5.182   3.358   2.577 -0.0406 -0.0977 -0.3581
 4728TIP3    H114190   5.148   3.274   2.606 -0.4340 -0.0938 -0.7916
 4728TIP3    H214191   5.209   3.402   2.657  0.5541 -0.7997 -0.1659
 4729TIP3   OH214192   0.397   2.423   0.086  0.1408 -0.2277  0.4238
 4729TIP3    H114193   0.379   2.504   0.134  1.4098 -0.2598  1.0025
 4729TIP3    H214194   0.316   2.405   0.038 -0.3983  1.0062  0.8220
 4730TIP3   OH214195   0.610   3.778   1.278  0.4277 -0.2570 -0.3290
 4730TIP3    H114196   0.528   3.765   1.327  0.6359  0.3403  0.1973
 4730TIP3    H214197   0.646   3.690   1.267  0.0897 -0.4518  0.0878
 4731TIP3   OH214198   0.407   5.222   3.780 -0.6373  0.0256  0.1241
 4731TIP3    H114199   0.445   5.309   3.772 -0.1182 -0.0469  1.5235
 4731TIP3    H214200   0.434   5.177   3.700  2.4852 -0.0961  1.0928
 4732TIP3   OH214201   2.880   3.956   4.046 -0.3031  0.2811 -1.0110
 4732TIP3    H114202   2.943   3.946   4.117 -1.0104  0.0496 -0.4002
 4732TIP3    H214203   2.811   3.892   4.065 -1.0572  0.9826 -1.2942
 4733TIP3   OH214204   1.506   2.239   3.112 -0.0390 -0.0598  0.2644
 4733TIP3    H114205   1.485   2.280   3.028 -0.4242 -0.2247  0.2774
 4733TIP3    H214206   1.436   2.267   3.171 -0.3097 -0.7366  0.2697
 4734TIP3   OH214207   5.880   4.589   4.736 -0.2050 -0.5755 -0.2323
 4734TIP3    H114208   5.897   4.525   4.667 -0.6216  0.4542 -1.3123
 4734TIP3    H214209   5.809   4.643   4.702  0.1813  0.5186  0.6328
 4735TIP3   OH214210   2.756   5.432   1.229  0.1405  0.6648  0.0689
 4735TIP3    H114211   2.689   5.366   1.216  0.8708  0.3642 -2.7399
 4735TIP3    H214212   2.825   5.387   1.277  0.7468 -0.7730 -2.0449
 4736TIP3   OH214213   2.150   0.169   0.801 -0.1436  0.0503 -0.4723
 4736TIP3    H114214   2.196   0.230   0.858 -1.0518  0.7565 -0.4779
 4736TIP3    H214215   2.217   0.105   0.775  0.7400  0.8496 -0.2056
 4737TIP3   OH214216   3.264   3.908   2.944 -0.6508  0.2669  0.4251
 4737TIP3    H114217   3.328   3.885   3.012 -0.0693 -0.6887 -0.4087
 4737TIP3    H214218   3.290   3.996   2.916 -0.2162  0.2286  0.6916
 4738TIP3   OH214219   1.080   0.595   0.124  0.1602 -0.6435  0.0695
 4738TIP3    H114220   1.149   0.640   0.174 -3.0164  2.2517  2.2670
 4738TIP3    H214221   1.084   0.634   0.037  0.0440  1.0368  0.7860
 4739TIP3   OH214222   1.997   4.479   0.183  0.0533 -0.3116  0.3289
 4739TIP3    H114223   2.016   4.530   0.262  0.8398 -0.6052  0.3356
 4739TIP3    H214224   2.080   4.475   0.136 -0.0737 -1.3043  0.1682
 4740TIP3   OH214225   5.773   3.478   4.344 -0.1023  0.2376 -0.8268
 4740TIP3    H114226   5.828   3.444   4.415  2.1905  1.9085 -1.6574
 4740TIP3    H214227   5.696   3.513   4.387  0.5143 -0.1834  0.6756
 4741TIP3   OH214228   3.920   3.098   2.334  0.0241  0.3180 -0.4399
 4741TIP3    H114229   3.879   3.181   2.308 -1.7002 -0.6995 -1.1633
 4741TIP3    H214230   3.972   3.072   2.259 -1.0611 -0.2156 -1.0366
 4742TIP3   OH214231   5.586   5.038   4.100 -0.4431  0.1179 -0.0907
 4742TIP3    H114232   5.562   5.052   4.009 -2.7700 -2.2072  0.0301
 4742TIP3    H214233   5.541   5.108   4.148  0.8527  1.3930 -0.6585
 4743TIP3   OH214234   1.472   0.582   2.803 -0.2076  0.1595 -0.6041
 4743TIP3    H114235   1.449   0.504   2.853 -2.0081  0.5458 -0.7528
 4743TIP3    H214236   1.532   0.551   2.735  0.7181 -0.7079  0.5907
 4744TIP3   OH214237   2.581   3.857   3.356 -0.4954 -0.2298 -0.1703
 4744TIP3    H114238   2.487   3.871   3.346 -0.4011 -0.0927 -0.9047
 4744TIP3    H214239   2.608   3.815   3.275  0.1474  0.0927 -0.1281
 4745TIP3   OH214240   2.550   2.621   3.943 -0.9237 -0.2154 -0.6801
 4745TIP3    H114241   2.628   2.675   3.952  0.3655 -2.1804  0.9306
 4745TIP3    H214242   2.479   2.683   3.926  0.7997  1.7286 -1.0893
 4746TIP3   OH214243   2.443   0.496   1.337  0.3569 -0.0785 -0.0560
 4746TIP3    H114244   2.477   0.585   1.331 -0.2526  0.0613 -2.4883
 4746TIP3    H214245   2.508   0.449   1.390  1.0958  1.6036  0.5937
 4747TIP3   OH214246   3.257   0.907   0.896  0.3843 -0.0575 -0.4211
 4747TIP3    H114247   3.341   0.938   0.863  0.4165 -1.2979 -1.5967
 4747TIP3    H214248   3.279   0.833   0.953  0.0730 -0.8050 -1.2513
 4748TIP3   OH214249   0.300   1.732   0.617  0.1425 -0.8793  0.4208
 4748TIP3    H114250   0.394   1.720   0.629  0.7090  2.6309  0.3146
 4748TIP3    H214251   0.281   1.694   0.531  2.1088  0.9219 -0.8999
 4749TIP3   OH214252   4.617   3.716   5.097 -0.2977 -0.5414  0.0348
 4749TIP3    H114253   4.636   3.656   5.025 -1.5456 -0.7121 -0.1724
 4749TIP3    H214254   4.593   3.659   5.171  1.4741 -0.3927  0.7806
 4750TIP3   OH214255   4.182   5.790   0.143 -0.2210  0.1143 -0.1900
 4750TIP3    H114256   4.162   5.704   0.181  0.7684  0.0403  0.1922
 4750TIP3    H214257   4.161   5.781   0.050  2.8254 -1.6115 -0.8560
 4751TIP3   OH214258   3.585   1.134   4.376  0.2057 -0.2174  0.1767
 4751TIP3    H114259   3.546   1.184   4.448 -0.9665  0.8236 -1.1221
 4751TIP3    H214260   3.625   1.200   4.320 -2.3803 -0.4443 -2.2102
 4752TIP3   OH214261   2.621   2.811   2.846 -0.0549 -0.3847 -0.2474
 4752TIP3    H114262   2.623   2.903   2.873  0.4467 -0.7756  1.1184
 4752TIP3    H214263   2.673   2.808   2.767  1.0001  0.3086  0.3995
 4753TIP3   OH214264   6.172   0.877   4.233  0.2331 -0.1829  0.0897
 4753TIP3    H114265   6.193   0.867   4.140 -0.1372  1.0052 -0.1480
 4753TIP3    H214266   6.079   0.902   4.233  0.2573 -0.0946  0.7706
 4754TIP3   OH214267   6.208   3.017   0.799 -0.0919  0.1685 -0.4496
 4754TIP3    H114268   6.201   3.091   0.859  1.3965 -0.2216  0.2458
 4754TIP3    H214269   6.191   3.054   0.713 -0.2407  1.1342 -0.0225
 4755TIP3   OH214270   2.665   2.784   5.033  0.1261  0.5844 -0.7120
 4755TIP3    H114271   2.728   2.848   5.068  1.2368 -1.3454  1.0390
 4755TIP3    H214272   2.597   2.778   5.100  0.8334 -1.1435 -0.1017
 4756TIP3   OH214273   3.068   2.611   5.151  0.2284 -0.2143 -0.0175
 4756TIP3    H114274   3.156   2.578   5.173  0.4882  0.8353  0.5714
 4756TIP3    H214275   3.065   2.606   5.056  0.4346 -1.4670  0.0171
 4757TIP3   OH214276   1.228   2.985   1.030 -0.5355 -0.1027 -0.5151
 4757TIP3    H114277   1.315   3.024   1.042  0.1397 -1.2449 -1.4720
 4757TIP3    H214278   1.185   3.042   0.966 -0.7242  0.7994  0.3996
 4758TIP3   OH214279   0.950   3.225   0.398 -0.3020  0.2852 -0.1126
 4758TIP3    H114280   0.959   3.299   0.339 -3.0873  1.0963  0.3513
 4758TIP3    H214281   0.900   3.160   0.348 -0.1901 -0.1907  0.3831
 4759TIP3   OH214282   2.097   4.525   0.716 -0.5401 -0.1313 -0.6362
 4759TIP3    H114283   2.184   4.518   0.754 -0.6341  1.6314  0.0284
 4759TIP3    H214284   2.078   4.438   0.681  0.7575 -1.0084  0.7472
 4760TIP3   OH214285   1.795   3.961   2.175  0.5453  0.4290 -0.4247
 4760TIP3    H114286   1.741   3.962   2.095  0.1304 -2.0047 -0.2375
 4760TIP3    H214287   1.732   3.973   2.246  0.5352 -0.1243 -0.3347
 4761TIP3   OH214288   1.963   3.818   0.887 -0.2114 -0.3695 -0.1172
 4761TIP3    H114289   2.046   3.784   0.922 -0.8120 -1.3274  0.4244
 4761TIP3    H214290   1.971   3.807   0.793  1.2340  1.7939 -0.3130
 4762TIP3   OH214291   4.959   4.990   1.698  0.4070 -0.3503 -0.3117
 4762TIP3    H114292   4.911   5.043   1.633 -1.6558 -2.2411 -0.4669
 4762TIP3    H214293   4.996   4.918   1.647  0.7030 -0.6293  0.2903
 4763TIP3   OH214294   5.547   2.269   1.931  0.2119 -0.2337  0.1554
 4763TIP3    H114295   5.638   2.281   1.904  0.3655 -0.6677  0.4684
 4763TIP3    H214296   5.536   2.174   1.939  0.1488 -0.1344  1.5040
 4764TIP3   OH214297   0.919   0.672   3.640 -0.7209  0.4446  0.2383
 4764TIP3    H114298   0.833   0.634   3.622 -0.7003 -0.1364  1.2711
 4764TIP3    H214299   0.966   0.668   3.556 -1.3206 -0.2534 -0.0732
 4765TIP3   OH214300   1.550   4.630   4.689  0.0880  0.3373  0.1020
 4765TIP3    H114301   1.557   4.707   4.746  0.5811  0.1350  0.3273
 4765TIP3    H214302   1.457   4.610   4.686  0.0260  0.5436  0.5863
 4766TIP3   OH214303   0.151   2.527   4.545 -0.3511 -0.0675  0.1092
 4766TIP3    H114304   0.237   2.568   4.529  0.4787 -1.7567  0.0754
 4766TIP3    H214305   0.143   2.525   4.640 -0.9981  1.3056  0.1161
 4767TIP3   OH214306   5.840   1.783   3.567 -0.0049  0.1480  0.1743
 4767TIP3    H114307   5.772   1.730   3.607 -0.7942  1.2649  0.3680
 4767TIP3    H214308   5.899   1.805   3.639 -0.1693  0.2698  0.2717
 4768TIP3   OH214309   1.525   0.688   3.072  0.0622 -0.3658 -0.0912
 4768TIP3    H114310   1.528   0.784   3.068  0.8667 -0.1842  2.5347
 4768TIP3    H214311   1.493   0.661   2.986 -0.5949  2.2640 -0.7690
 4769TIP3   OH214312   4.573   1.433   1.698 -0.3012  0.0270  0.4066
 4769TIP3    H114313   4.562   1.528   1.696  0.9385  0.1766  0.3876
 4769TIP3    H214314   4.599   1.410   1.609 -3.1819 -0.6990 -0.3566
 4770TIP3   OH214315   3.714   2.932   3.522 -0.6283  0.4793 -0.0980
 4770TIP3    H114316   3.773   2.897   3.455 -0.8611  1.5122 -0.8795
 4770TIP3    H214317   3.632   2.949   3.476 -1.1952  0.0694  0.7337
 4771TIP3   OH214318   5.520   4.856   1.520 -1.1171 -0.2739 -0.3790
 4771TIP3    H114319   5.443   4.909   1.539  0.9251  2.0209  2.3711
 4771TIP3    H214320   5.531   4.863   1.425 -3.0307  1.1442 -0.5599
 4772TIP3   OH214321   3.928   1.468   4.371 -0.2858  0.0672  0.0588
 4772TIP3    H114322   3.908   1.419   4.451  0.4742 -0.8975 -0.3329
 4772TIP3    H214323   4.003   1.522   4.394  1.7345 -2.2254 -0.7154
 4773TIP3   OH214324   0.039   4.086   0.744  0.1058  0.1943 -0.7981
 4773TIP3    H114325   0.087   4.131   0.814 -0.6806 -1.8533  1.1869
 4773TIP3    H214326   0.107   4.063   0.679  1.3037  0.0507  0.4539
 4774TIP3   OH214327   3.945   4.338   1.882 -0.4105  0.0218 -0.8481
 4774TIP3    H114328   3.943   4.310   1.791 -0.9879  0.1321 -0.8730
 4774TIP3    H214329   3.855   4.362   1.902 -0.0013  1.5575 -0.7266
 4775TIP3   OH214330   5.935   5.509   4.293 -0.2770  0.0593  0.1765
 4775TIP3    H114331   5.922   5.602   4.275 -1.0199 -0.3423 -1.6737
 4775TIP3    H214332   5.901   5.465   4.214  0.9065 -1.7280  0.6069
 4776TIP3   OH214333   4.119   1.589   1.245 -0.1132 -0.9458 -0.7773
 4776TIP3    H114334   4.109   1.683   1.260 -0.7927 -1.1690  0.1928
 4776TIP3    H214335   4.067   1.548   1.313 -0.6461 -2.0277 -1.8096
 4777TIP3   OH214336   2.449   3.407   1.386  0.4932 -0.8625  0.1077
 4777TIP3    H114337   2.531   3.419   1.339 -0.8817  0.8014 -2.0471
 4777TIP3    H214338   2.455   3.467   1.461  0.6331  0.5536 -0.9851
 4778TIP3   OH214339   0.833   2.870   0.611  0.0014 -0.3850 -0.7113
 4778TIP3    H114340   0.917   2.829   0.634  0.0639 -0.1795 -0.5672
 4778TIP3    H214341   0.832   2.951   0.662 -0.1960 -0.2896 -0.8693
 4779TIP3   OH214342   2.419   3.853   0.446  0.1925 -0.4090  0.1844
 4779TIP3    H114343   2.400   3.899   0.363 -1.8859 -0.4380  0.5753
 4779TIP3    H214344   2.466   3.774   0.419  0.4769  0.0910 -0.8618
 4780TIP3   OH214345   0.649   2.737   2.898  0.0296 -0.0949 -0.7620
 4780TIP3    H114346   0.645   2.657   2.951  2.0739  0.2372 -0.0113
 4780TIP3    H214347   0.630   2.808   2.961  3.8583  0.4300  0.0388
 4781TIP3   OH214348   1.874   3.675   4.431 -0.0046 -0.0476 -0.2992
 4781TIP3    H114349   1.940   3.736   4.397  0.5436 -0.7006 -0.4294
 4781TIP3    H214350   1.808   3.669   4.361 -0.3349  0.7898 -0.0710
 4782TIP3   OH214351   1.415   2.250   4.271  0.2808  0.2551 -0.1424
 4782TIP3    H114352   1.510   2.252   4.285  0.6191 -0.4040 -2.0267
 4782TIP3    H214353   1.388   2.341   4.279  1.3351  0.6656 -0.9700
 4783TIP3   OH214354   0.429   2.576   2.417  0.5778 -0.1363  0.2158
 4783TIP3    H114355   0.344   2.587   2.461  0.2625 -2.1594  0.2155
 4783TIP3    H214356   0.415   2.611   2.330 -0.6380 -1.3558 -0.1260
 4784TIP3   OH214357   5.232   4.994   1.875 -0.0810 -0.0314 -0.1159
 4784TIP3    H114358   5.205   4.994   1.783  1.4918  0.2064 -0.6044
 4784TIP3    H214359   5.185   5.069   1.913  1.8816  2.1020 -1.5906
 4785TIP3   OH214360   5.052   0.201   1.374  0.2141 -0.2015 -0.5211
 4785TIP3    H114361   5.124   0.227   1.431 -0.5469 -0.8996  0.8137
 4785TIP3    H214362   5.006   0.283   1.355  1.6344  0.3387 -1.8567
 4786TIP3   OH214363   4.120   2.395   4.569  0.7299  0.4027 -0.3132
 4786TIP3    H114364   4.061   2.470   4.574 -0.1974 -0.2321 -1.2940
 4786TIP3    H214365   4.178   2.405   4.645 -1.3368  0.4540  1.3430
 4787TIP3   OH214366   0.990   0.463   2.591  0.2100 -0.2973  0.0060
 4787TIP3    H114367   1.065   0.411   2.619  0.6548 -0.8656 -2.0423
 4787TIP3    H214368   1.020   0.506   2.510 -1.1689  0.7014 -0.0089
 4788TIP3   OH214369   5.250   3.607   1.050 -0.1073  0.1206  0.0336
 4788TIP3    H114370   5.207   3.674   1.104  0.0199 -0.1775  0.5162
 4788TIP3    H214371   5.203   3.526   1.071 -1.5418  0.3513 -1.9863
 4789TIP3   OH214372   2.803   2.988   3.797 -0.4977  0.1449 -0.1461
 4789TIP3    H114373   2.799   2.927   3.724  0.0084 -3.2803  2.4381
 4789TIP3    H214374   2.712   2.997   3.826 -0.6684  1.3213 -0.9571
 4790TIP3   OH214375   1.572   1.238   2.169 -0.7584 -0.3670 -1.1199
 4790TIP3    H114376   1.615   1.166   2.216 -0.1132 -0.1109 -1.2984
 4790TIP3    H214377   1.481   1.235   2.198 -0.4159 -0.3254  0.0118
 4791TIP3   OH214378   1.851   5.650   0.241 -0.2502 -0.3137  0.0773
 4791TIP3    H114379   1.936   5.660   0.283  0.1470 -0.7164 -0.5990
 4791TIP3    H214380   1.863   5.574   0.183 -1.1966 -0.6342  0.2905
 4792TIP3   OH214381   2.728   4.990   1.327  0.0809 -0.0162 -0.4235
 4792TIP3    H114382   2.660   5.053   1.304  0.5108  0.4929 -0.3304
 4792TIP3    H214383   2.726   4.926   1.256 -2.3052 -1.5553  0.9044
 4793TIP3   OH214384   1.296   5.065   2.313  0.8184 -0.0269  0.1456
 4793TIP3    H114385   1.267   5.123   2.244  0.1659 -0.0043  0.4338
 4793TIP3    H214386   1.229   4.997   2.318  1.5201 -0.7598 -0.1189
 4794TIP3   OH214387   0.415   0.121   4.811  0.0779 -0.4461  0.0929
 4794TIP3    H114388   0.377   0.075   4.736 -0.8668 -0.2630  0.4486
 4794TIP3    H214389   0.395   0.213   4.796  0.0363 -0.3896  0.4786
 4795TIP3   OH214390   5.775   0.321   1.313 -0.1924  0.1291 -0.0348
 4795TIP3    H114391   5.748   0.384   1.246  0.9852 -1.1398 -1.7757
 4795TIP3    H214392   5.791   0.375   1.391 -1.0326  1.7255 -0.9156
 4796TIP3   OH214393   6.187   5.909   0.591  0.3542  0.1320 -0.1077
 4796TIP3    H114394   6.172   5.981   0.652  1.7807 -0.4970  1.0375
 4796TIP3    H214395   6.219   5.838   0.645  1.2101 -0.6096 -1.5309
 4797TIP3   OH214396   3.963   4.875   0.689 -0.0529  0.2387  0.0453
 4797TIP3    H114397   3.924   4.937   0.628 -1.2972  1.0439  1.5789
 4797TIP3    H214398   4.057   4.895   0.687 -0.2561  1.1911 -0.5499
 4798TIP3   OH214399   4.590   1.147   2.952 -0.0453 -0.5776  0.4460
 4798TIP3    H114400   4.567   1.229   2.909 -1.1724 -0.4021  1.3348
 4798TIP3    H214401   4.560   1.079   2.892 -1.8505 -0.3426  1.0188
 4799TIP3   OH214402   3.058   0.514   1.210  0.2062 -0.0472 -0.3469
 4799TIP3    H114403   2.964   0.524   1.198  0.2501  2.1894  0.7081
 4799TIP3    H214404   3.069   0.490   1.302  0.7163  1.2517 -0.0517
 4800TIP3   OH214405   4.258   1.286   1.202 -0.6153 -0.1899  0.1332
 4800TIP3    H114406   4.306   1.213   1.162  0.4741  0.0855  0.8858
 4800TIP3    H214407   4.309   1.364   1.178 -1.0061  0.1781  0.4801
 4801TIP3   OH214408   3.660   0.467   2.434 -0.4241  0.6163 -0.0018
 4801TIP3    H114409   3.647   0.498   2.523  0.3920  0.7170  0.0872
 4801TIP3    H214410   3.719   0.392   2.442 -2.1097 -0.8253 -0.2429
 4802TIP3   OH214411   1.977   5.592   4.467 -1.1162 -0.4202  0.0971
 4802TIP3    H114412   1.947   5.621   4.553  0.3798 -0.6801  0.7342
 4802TIP3    H214413   2.053   5.647   4.449 -1.2691 -0.5338 -0.9588
 4803TIP3   OH214414   2.195   2.719   3.169 -0.1438  0.2959 -0.1801
 4803TIP3    H114415   2.267   2.777   3.144 -0.6097  0.5224 -1.0451
 4803TIP3    H214416   2.238   2.641   3.203  0.5317  0.2854 -1.0080
 4804TIP3   OH214417   4.944   3.192   3.909  0.6171 -0.0020  0.7118
 4804TIP3    H114418   4.882   3.123   3.932 -0.8269  1.9686  3.2078
 4804TIP3    H214419   5.005   3.149   3.848 -1.5612 -2.7673  0.2391
 4805TIP3   OH214420   4.258   3.518   0.636 -0.1455  0.0313 -0.2795
 4805TIP3    H114421   4.260   3.579   0.709  2.4122  0.0295 -0.2578
 4805TIP3    H214422   4.199   3.558   0.572 -1.2678  0.7437  1.1521
 4806TIP3   OH214423   3.982   1.074   4.422 -0.1786  0.4481 -0.3944
 4806TIP3    H114424   3.900   1.034   4.450 -0.0824  1.1553  0.9763
 4806TIP3    H214425   4.050   1.016   4.458 -0.0487  1.5026  1.1421
 4807TIP3   OH214426   0.901   3.025   1.651 -0.2821  0.0521  0.0385
 4807TIP3    H114427   0.830   3.054   1.594 -0.9440 -1.9512 -0.2071
 4807TIP3    H214428   0.889   2.931   1.659  0.5308  0.0847  2.5010
 4808TIP3   OH214429   4.311   0.277   2.106  0.7661  0.5114 -0.1419
 4808TIP3    H114430   4.283   0.368   2.103  0.7307  0.6758  2.5552
 4808TIP3    H214431   4.400   0.280   2.142  1.2877 -0.4690 -1.2809
 4809TIP3   OH214432   6.325   4.034   4.912 -0.0982 -0.4634 -0.4037
 4809TIP3    H114433   6.265   3.994   4.975  1.2987 -0.8308  0.7736
 4809TIP3    H214434   6.409   3.991   4.930  0.3437 -0.6085 -2.5816
 4810TIP3   OH214435   2.558   4.760   4.884  0.3014  0.0562  0.4229
 4810TIP3    H114436   2.500   4.834   4.901  0.8339  0.5247  0.2709
 4810TIP3    H214437   2.541   4.736   4.793  0.7189  0.5488  0.2055
 4811TIP3   OH214438   1.709   1.837   2.162 -0.4847 -0.0683 -0.1783
 4811TIP3    H114439   1.736   1.902   2.098 -0.5122  0.5895  0.4715
 4811TIP3    H214440   1.752   1.756   2.133  1.1763  0.6613  0.0964
 4812TIP3   OH214441   4.065   4.934   0.340 -0.1101 -0.4376  0.0968
 4812TIP3    H114442   4.071   5.027   0.362 -0.4575  0.1918 -2.2056
 4812TIP3    H214443   4.147   4.915   0.294 -0.2210 -1.1656  0.1936
 4813TIP3   OH214444   5.741   2.769   0.192 -0.8504 -0.5827  0.5487
 4813TIP3    H114445   5.706   2.699   0.248 -2.6918  0.5148  0.8752
 4813TIP3    H214446   5.824   2.793   0.232 -0.1036 -2.6177  0.3633
 4814TIP3   OH214447   0.965   5.191   3.640 -0.0048  0.1445 -0.6121
 4814TIP3    H114448   0.949   5.123   3.705 -2.0000  1.0539 -0.0868
 4814TIP3    H214449   0.893   5.253   3.651  0.6988  1.3618 -2.3631
 4815TIP3   OH214450   0.372   1.354   3.760 -0.2462  0.3853 -0.6226
 4815TIP3    H114451   0.459   1.315   3.755 -0.3502  0.2700 -1.8435
 4815TIP3    H214452   0.346   1.344   3.851  0.5587 -0.5847 -0.4871
 4816TIP3   OH214453   5.489   2.610   4.190 -0.0912  0.6759 -0.4647
 4816TIP3    H114454   5.396   2.620   4.167 -0.4061  0.6809  0.7363
 4816TIP3    H214455   5.525   2.555   4.121 -1.0507  0.4475 -0.8027
 4817TIP3   OH214456   0.255   1.428   4.624 -0.0392 -0.1374  0.1683
 4817TIP3    H114457   0.162   1.434   4.643 -0.4106 -0.4888 -1.4100
 4817TIP3    H214458   0.297   1.429   4.710 -1.3944  1.3232  0.8647
 4818TIP3   OH214459   2.245   5.521   3.388  0.3132 -0.3372 -0.8830
 4818TIP3    H114460   2.236   5.615   3.375 -0.8212 -0.3731 -0.4402
 4818TIP3    H214461   2.210   5.505   3.475  0.4929 -1.1771 -0.9538
 4819TIP3   OH214462   0.085   3.225   0.636 -0.1300 -0.3748 -0.1455
 4819TIP3    H114463   0.168   3.202   0.594  0.0022 -2.3679  1.0852
 4819TIP3    H214464   0.018   3.195   0.574  0.0606 -0.1270 -0.4750
 4820TIP3   OH214465   5.065   4.767   0.530  0.1381  0.2202 -0.0145
 4820TIP3    H114466   5.116   4.805   0.601  0.5960 -0.3613 -0.0347
 4820TIP3    H214467   4.981   4.813   0.534 -0.1272 -0.3538  1.3993
 4821TIP3   OH214468   4.018   4.658   2.586 -0.3156  0.1504 -0.1406
 4821TIP3    H114469   4.061   4.703   2.659 -0.4109 -0.2952  0.1967
 4821TIP3    H214470   4.018   4.722   2.515  0.9033  0.1558 -0.1503
 4822TIP3   OH214471   0.087   2.202   1.094  0.0213  0.5511  0.0286
 4822TIP3    H114472   0.046   2.120   1.065 -0.1693 -0.0838  1.9714
 4822TIP3    H214473   0.140   2.229   1.019  0.3139 -1.4942 -0.5813
 4823TIP3   OH214474   5.215   2.386   2.332 -0.6029  0.3685  0.0804
 4823TIP3    H114475   5.241   2.436   2.409 -0.9107  1.0641 -0.2630
 4823TIP3    H214476   5.292   2.389   2.274 -0.5345  0.2303  0.1626
 4824TIP3   OH214477   6.304   4.260   3.911  0.1838  0.2126  0.3347
 4824TIP3    H114478   6.277   4.264   3.819 -0.3458 -0.3391  0.4608
 4824TIP3    H214479   6.284   4.170   3.938  0.4092  0.3488  0.9692
 4825TIP3   OH214480   4.899   0.902   3.894 -0.7846 -0.1381  0.2207
 4825TIP3    H114481   4.931   0.837   3.832 -0.1027 -2.9824  3.2841
 4825TIP3    H214482   4.820   0.863   3.933 -2.3096  2.3840 -0.1126
 4826TIP3   OH214483   6.335   5.837   2.071 -0.1889  0.1717 -0.3354
 4826TIP3    H114484   6.288   5.818   1.989 -0.7763 -2.4162  0.4806
 4826TIP3    H214485   6.411   5.887   2.045 -0.8287  0.1637 -2.3580
 4827TIP3   OH214486   0.573   4.892   1.295  0.3797  0.1560 -0.5030
 4827TIP3    H114487   0.635   4.845   1.239  1.6791  0.0576  0.9402
 4827TIP3    H214488   0.488   4.878   1.254  0.8063 -2.8175 -0.5987
 4828TIP3   OH214489   5.433   2.362   1.343 -0.1687  0.6300  0.1007
 4828TIP3    H114490   5.524   2.369   1.315 -0.2659  0.8947 -0.1541
 4828TIP3    H214491   5.385   2.418   1.283 -0.6205 -0.1720 -0.2965
 4829TIP3   OH214492   4.209   1.528   4.383  0.8925 -0.4215 -0.4241
 4829TIP3    H114493   4.230   1.620   4.365  1.8362 -0.4533  0.3780
 4829TIP3    H214494   4.256   1.509   4.465  0.4635 -1.5308 -0.4203
 4830TIP3   OH214495   5.114   4.143   3.363 -0.6285 -0.2578 -0.5931
 4830TIP3    H114496   5.024   4.144   3.333 -0.4435 -1.0836 -1.2066
 4830TIP3    H214497   5.110   4.179   3.452 -1.7104 -1.2429 -0.2143
 4831TIP3   OH214498   6.143   2.021   3.677  0.1591 -0.1230 -0.5477
 4831TIP3    H114499   6.237   2.038   3.670  0.0601 -0.0776 -2.1121
 4831TIP3    H214500   6.109   2.095   3.727  0.6785  0.9340 -1.7004
 4832TIP3   OH214501   4.622   5.729   3.962  0.1916  0.1871 -0.2210
 4832TIP3    H114502   4.542   5.766   4.001 -1.3007 -0.6225 -2.2882
 4832TIP3    H214503   4.657   5.800   3.908  0.1783  0.1596 -0.2657
 4833TIP3   OH214504   4.877   3.810   1.017  0.5306  0.0658  0.2287
 4833TIP3    H114505   4.795   3.798   0.970  1.2549 -1.5825 -0.7043
 4833TIP3    H214506   4.902   3.721   1.043  0.9785  0.7426  2.3662
 4834TIP3   OH214507   5.541   1.477   4.832  0.0377 -0.1364 -0.2683
 4834TIP3    H114508   5.603   1.406   4.813  0.6828  0.0268  1.1498
 4834TIP3    H214509   5.596   1.551   4.856 -0.6972 -0.0871  1.3607
 4835TIP3   OH214510   4.479   2.925   0.104 -0.4795  0.4542 -0.2979
 4835TIP3    H114511   4.423   2.876   0.164 -0.2866  0.8390  0.2109
 4835TIP3    H214512   4.420   2.988   0.063 -0.3288  1.2492  0.6672
 4836TIP3   OH214513   5.032   3.454   4.231  0.2213  0.0356 -0.0132
 4836TIP3    H114514   5.071   3.497   4.155  1.8172  0.4796  1.0048
 4836TIP3    H214515   5.048   3.361   4.216 -2.1020 -0.2062 -1.5947
 4837TIP3   OH214516   0.883   4.688   3.940  0.2963 -0.3777  0.1389
 4837TIP3    H114517   0.884   4.686   4.036 -1.6608  1.0231  0.2481
 4837TIP3    H214518   0.799   4.648   3.916  1.4880 -2.2748 -1.1157
 4838TIP3   OH214519   3.570   3.476   2.877  0.0402 -0.3100 -0.0423
 4838TIP3    H114520   3.556   3.407   2.941 -0.8155 -1.7981 -1.7484
 4838TIP3    H214521   3.638   3.532   2.916 -1.3573 -0.3723  2.7003
 4839TIP3   OH214522   1.963   4.591   3.051  0.3566  0.0956  0.0030
 4839TIP3    H114523   2.052   4.583   3.086  0.7203  0.8773 -0.7080
 4839TIP3    H214524   1.927   4.667   3.097  0.3464  0.2792 -0.3092
 4840TIP3   OH214525   3.553   1.995   3.830 -0.3241 -0.4562  0.6825
 4840TIP3    H114526   3.612   1.950   3.768  0.7774 -0.4262  1.6664
 4840TIP3    H214527   3.612   2.031   3.897 -1.3319  1.1045  0.7655
 4841TIP3   OH214528   1.524   0.566   4.406  0.9358 -0.5793  0.3718
 4841TIP3    H114529   1.473   0.580   4.326  0.5981 -0.5756  0.5857
 4841TIP3    H214530   1.606   0.613   4.391  0.2157  0.8600  0.6938
 4842TIP3   OH214531   2.864   2.598   1.199 -0.1847  0.7530 -0.5034
 4842TIP3    H114532   2.845   2.510   1.166 -0.3350  0.7716 -0.4633
 4842TIP3    H214533   2.779   2.642   1.202 -0.2629  0.5461  0.5195
 4843TIP3   OH214534   3.165   1.097   2.302 -0.0048 -0.3370 -0.7830
 4843TIP3    H114535   3.247   1.070   2.344 -0.4639 -1.3253 -0.4957
 4843TIP3    H214536   3.107   1.120   2.375  0.5198  2.0084 -1.0194
 4844TIP3   OH214537   4.100   2.862   3.550  1.1142 -0.1102 -0.1809
 4844TIP3    H114538   4.155   2.940   3.535 -0.6146  1.0429 -0.8325
 4844TIP3    H214539   4.061   2.877   3.636  1.9808 -1.0499  0.3913
 4845TIP3   OH214540   5.773   5.654   3.488 -0.5651 -0.2259  0.3204
 4845TIP3    H114541   5.787   5.644   3.394  1.7366  1.2633  0.4187
 4845TIP3    H214542   5.845   5.604   3.528  0.5099  1.8334  1.1328
 4846TIP3   OH214543   1.693   2.218   4.943 -0.5415  0.0847 -0.3983
 4846TIP3    H114544   1.736   2.288   4.991  1.3101 -0.4758 -1.1341
 4846TIP3    H214545   1.656   2.262   4.866 -1.3201  0.5740  0.2369
 4847TIP3   OH214546   4.253   4.246   1.224  0.4622 -0.7954  0.3823
 4847TIP3    H114547   4.210   4.284   1.301  2.1988 -1.6460  1.8610
 4847TIP3    H214548   4.250   4.152   1.239  2.4496 -0.8930  0.3723
 4848TIP3   OH214549   1.443   0.885   2.775  0.0900 -0.3120 -0.3061
 4848TIP3    H114550   1.487   0.901   2.858 -2.5680  0.2919  1.1022
 4848TIP3    H214551   1.450   0.790   2.762 -0.1036 -0.5272  1.0161
 4849TIP3   OH214552   3.262   5.228   4.932  0.0078  0.9294  0.3283
 4849TIP3    H114553   3.288   5.197   5.019  0.4707  1.1770  0.2836
 4849TIP3    H214554   3.167   5.238   4.937 -0.4640 -2.3807 -0.2596
 4850TIP3   OH214555   2.133   1.577   4.419  0.5161 -0.0234 -0.0520
 4850TIP3    H114556   2.147   1.599   4.326 -0.2697 -0.4410 -0.2794
 4850TIP3    H214557   2.040   1.593   4.433  0.2402 -1.6553  0.1841
 4851TIP3   OH214558   5.682   4.044   3.674  0.2858 -0.2258 -0.3325
 4851TIP3    H114559   5.664   4.004   3.589  0.5629  0.5091 -0.7512
 4851TIP3    H214560   5.766   4.006   3.701 -0.9864 -2.3575  0.8173
 4852TIP3   OH214561   0.684   1.766   0.175 -0.0670  0.0093 -0.3030
 4852TIP3    H114562   0.739   1.785   0.099  0.4559  0.7068  0.2396
 4852TIP3    H214563   0.599   1.803   0.153  0.5262  1.7091  0.1051
 4853TIP3   OH214564   1.064   2.290   4.629  0.1870  0.0408 -0.0316
 4853TIP3    H114565   1.010   2.350   4.577  0.9017  1.1916  0.4914
 4853TIP3    H214566   1.009   2.213   4.641 -1.6139  1.3942  0.9889
 4854TIP3   OH214567   1.802   4.163   1.562 -0.3781  0.3276  0.4254
 4854TIP3    H114568   1.755   4.236   1.521  0.0060  0.1495 -0.3471
 4854TIP3    H214569   1.817   4.102   1.490  2.5298  1.1265  0.2550
 4855TIP3   OH214570   3.756   0.448   4.702 -0.4211  0.5700  0.3393
 4855TIP3    H114571   3.671   0.427   4.740 -0.7252 -1.7821 -1.4286
 4855TIP3    H214572   3.815   0.381   4.736 -0.2469 -0.3419 -1.6531
 4856TIP3   OH214573   0.389   4.467   5.001  1.0546 -0.1335  0.3084
 4856TIP3    H114574   0.358   4.420   4.924  0.7067  0.5037  0.0582
 4856TIP3    H214575   0.420   4.551   4.967 -0.1851  0.6340  0.9992
 4857TIP3   OH214576   5.814   5.674   2.485  0.1898  0.5935  0.1473
 4857TIP3    H114577   5.779   5.659   2.398 -0.2198 -0.5393  0.4929
 4857TIP3    H214578   5.907   5.651   2.478 -0.7591 -4.8126  1.1620
 4858TIP3   OH214579   4.691   4.277   0.226  0.3359 -0.1314 -0.3683
 4858TIP3    H114580   4.778   4.286   0.264  0.4193  0.8057 -0.7462
 4858TIP3    H214581   4.702   4.217   0.153  0.2671 -1.5668  0.7558
 4859TIP3   OH214582   2.677   5.797   1.358 -0.0515 -0.3905 -0.2290
 4859TIP3    H114583   2.748   5.776   1.298  0.4065  0.7465 -0.1019
 4859TIP3    H214584   2.603   5.744   1.327  0.6611 -1.1129 -0.7357
 4860TIP3   OH214585   1.219   4.701   2.286  0.0837 -0.2373 -0.4198
 4860TIP3    H114586   1.209   4.633   2.352 -0.0678 -0.6887 -0.9033
 4860TIP3    H214587   1.149   4.764   2.306  0.4563 -0.0227  0.2522
 4861TIP3   OH214588   4.622   4.516   2.835  0.5901  1.0509 -0.1312
 4861TIP3    H114589   4.675   4.445   2.871 -0.4123 -1.0702 -2.5172
 4861TIP3    H214590   4.625   4.502   2.740 -1.9861  2.4770 -0.5220
 4862TIP3   OH214591   1.187   2.390   2.143  0.1941 -0.1447  0.1856
 4862TIP3    H114592   1.163   2.302   2.171 -1.5506 -0.0547 -0.8775
 4862TIP3    H214593   1.203   2.382   2.049  2.7570  0.1899  0.5077
 4863TIP3   OH214594   0.514   2.203   2.886 -0.0963 -0.1432 -0.6286
 4863TIP3    H114595   0.492   2.271   2.822  1.5452  1.3390  0.2837
 4863TIP3    H214596   0.430   2.170   2.915 -1.0998  2.8387  0.2246
 4864TIP3   OH214597   6.368   5.290   1.490 -0.2902 -0.5537 -0.1875
 4864TIP3    H114598   6.329   5.362   1.540 -0.3399  0.1332 -1.1886
 4864TIP3    H214599   6.293   5.249   1.446 -0.0245  0.1500 -1.3318
 4865TIP3   OH214600   2.438   5.322   0.715 -0.0110  0.4764 -0.4108
 4865TIP3    H114601   2.519   5.365   0.745 -0.4230  0.0883  1.4149
 4865TIP3    H214602   2.463   5.276   0.635  1.1104  1.8434 -0.8949
 4866TIP3   OH214603   3.731   1.315   4.210  0.3161 -0.4773  0.9460
 4866TIP3    H114604   3.679   1.379   4.161  0.8163 -0.0593  0.9489
 4866TIP3    H214605   3.789   1.369   4.265  1.5885 -0.9074  0.0823
 4867TIP3   OH214606   0.833   1.363   2.000 -0.7310 -0.3068  0.4642
 4867TIP3    H114607   0.769   1.346   1.930 -0.7103  0.6941  0.1824
 4867TIP3    H214608   0.911   1.314   1.975 -0.5572  0.4249 -0.4920
 4868TIP3   OH214609   0.088   1.296   3.084 -0.1207 -0.2653  0.5970
 4868TIP3    H114610   0.180   1.269   3.081  0.2084  0.3165  3.3313
 4868TIP3    H214611   0.092   1.388   3.110 -1.4792  0.1715 -0.6298
 4869TIP3   OH214612   4.254   1.250   2.624 -0.5580  0.0078 -0.4325
 4869TIP3    H114613   4.327   1.263   2.563  0.5091 -2.6014  0.1244
 4869TIP3    H214614   4.281   1.296   2.703 -0.4251  0.6604 -0.8468
 4870TIP3   OH214615   0.180   2.649   0.467  0.0321  0.0862  0.9767
 4870TIP3    H114616   0.176   2.621   0.375  0.9006  0.0342  0.9439
 4870TIP3    H214617   0.108   2.710   0.476  1.1645  1.7307 -0.3359
 4871TIP3   OH214618   4.542   4.878   4.683 -0.3353 -0.4197  0.2013
 4871TIP3    H114619   4.631   4.880   4.649  0.1161 -0.6647  1.3304
 4871TIP3    H214620   4.507   4.965   4.663 -0.5628 -0.9693 -2.0357
 4872TIP3   OH214621   1.092   4.441   4.326 -0.4739  0.4257  0.6748
 4872TIP3    H114622   1.166   4.383   4.347 -0.9349 -0.7588 -0.7883
 4872TIP3    H214623   1.115   4.524   4.367  0.8668 -0.3886  1.6919
 4873TIP3   OH214624   3.927   5.511   0.338 -0.3580  0.3020  0.0158
 4873TIP3    H114625   3.869   5.537   0.267 -1.3577  0.2190  0.7730
 4873TIP3    H214626   3.888   5.430   0.373  0.2797  0.1721  0.4636
 4874TIP3   OH214627   1.231   3.199   2.394 -0.3235 -0.0486  0.1699
 4874TIP3    H114628   1.208   3.270   2.334  1.7862  0.7471  0.1863
 4874TIP3    H214629   1.315   3.227   2.431 -0.9985 -1.0611  2.6329
 4875TIP3   OH214630   1.989   0.266   2.383  0.1587 -0.1042 -0.4914
 4875TIP3    H114631   1.978   0.312   2.466 -1.8280 -1.6377  0.1709
 4875TIP3    H214632   2.014   0.334   2.321  0.7246  1.2448  1.1354
 4876TIP3   OH214633   3.059   3.675   3.897 -0.4525 -0.0642 -0.0203
 4876TIP3    H114634   3.059   3.760   3.853  0.7006  1.3093  2.4325
 4876TIP3    H214635   2.982   3.678   3.954  0.1673 -0.2497  0.8305
 4877TIP3   OH214636   4.772   5.237   2.856 -0.4460  0.6120 -0.0330
 4877TIP3    H114637   4.692   5.250   2.906 -0.7686  0.4808 -0.5131
 4877TIP3    H214638   4.842   5.245   2.921 -0.8698  0.2363  0.4807
 4878TIP3   OH214639   6.290   3.213   1.284  0.3332 -0.2351  0.3692
 4878TIP3    H114640   6.280   3.268   1.361  2.2602 -0.0147  0.5132
 4878TIP3    H214641   6.340   3.266   1.222  0.3331 -1.0439 -0.3565
 4879TIP3   OH214642   4.061   3.610   5.029  0.2081  0.0989 -0.3633
 4879TIP3    H114643   4.028   3.568   5.108 -1.2813  0.4993 -0.7335
 4879TIP3    H214644   3.982   3.636   4.981  1.0291  2.6672 -0.4900
 4880TIP3   OH214645   2.705   0.962   1.998  0.8090 -0.0893  0.2729
 4880TIP3    H114646   2.765   0.888   2.001  0.1383 -0.6600  0.0364
 4880TIP3    H214647   2.729   1.009   1.918 -0.1265 -1.2661 -0.7471
 4881TIP3   OH214648   3.981   3.285   4.638  1.0563 -0.1047  0.0866
 4881TIP3    H114649   3.980   3.197   4.600  1.3021 -0.3025  0.5256
 4881TIP3    H214650   4.002   3.343   4.565  0.2098 -0.3356 -0.3513
 4882TIP3   OH214651   2.500   4.844   4.094 -0.6860  0.3978 -0.6723
 4882TIP3    H114652   2.504   4.750   4.074  1.2065  0.0910  0.7797
 4882TIP3    H214653   2.583   4.879   4.061 -0.5516  1.1793  0.4283
 4883TIP3   OH214654   5.992   4.367   0.477  0.1304 -0.1179  0.1214
 4883TIP3    H114655   6.070   4.407   0.515  0.0853  0.9873 -0.8973
 4883TIP3    H214656   5.992   4.278   0.511  1.1728  0.2285  1.0915
 4884TIP3   OH214657   2.711   3.766   2.802  0.3278 -0.6994 -0.0731
 4884TIP3    H114658   2.790   3.715   2.822  1.3844  0.7882 -0.3572
 4884TIP3    H214659   2.734   3.856   2.825 -1.7283 -0.3921  1.0738
 4885TIP3   OH214660   1.697   4.573   4.057 -0.2554 -0.2319 -0.0853
 4885TIP3    H114661   1.765   4.527   4.106 -0.5126  0.4932  0.9752
 4885TIP3    H214662   1.715   4.666   4.071 -0.2429 -0.0011 -1.5156
 4886TIP3   OH214663   2.938   1.690   4.784 -0.4790  0.2429  0.3297
 4886TIP3    H114664   2.938   1.607   4.737 -0.4254  0.7734 -0.6252
 4886TIP3    H214665   2.976   1.669   4.870 -0.8124 -0.7862  0.2345
 4887TIP3   OH214666   6.133   0.547   2.889 -0.0425 -0.3897 -0.1807
 4887TIP3    H114667   6.184   0.531   2.968 -1.2248 -0.2294  0.6357
 4887TIP3    H214668   6.197   0.545   2.818  1.1648  0.3358  0.8624
 4888TIP3   OH214669   5.554   3.209   1.277  0.0294 -0.4559  0.0229
 4888TIP3    H114670   5.528   3.277   1.340  1.1758 -0.6467  0.7191
 4888TIP3    H214671   5.494   3.137   1.294 -1.4322  0.4626 -0.9498
 4889TIP3   OH214672   6.203   0.677   4.400  0.6396  0.0388  0.5787
 4889TIP3    H114673   6.275   0.725   4.441  0.2892  0.2645  0.9338
 4889TIP3    H214674   6.160   0.741   4.344  0.2945  0.0891  0.8981
 4890TIP3   OH214675   5.201   5.864   2.112 -0.0307 -0.0460 -0.5289
 4890TIP3    H114676   5.269   5.818   2.163  1.8353 -0.0583 -2.8435
 4890TIP3    H214677   5.119   5.833   2.150  1.1725  0.2726  2.6958
 4891TIP3   OH214678   1.510   1.451   4.423  0.2377 -0.8760 -0.0434
 4891TIP3    H114679   1.516   1.519   4.356  0.9829 -0.4757  0.4198
 4891TIP3    H214680   1.569   1.480   4.493  2.5470 -3.1965 -0.8760
 4892TIP3   OH214681   0.024   1.062   0.498 -0.0328  0.8084  1.2761
 4892TIP3    H114682   0.037   0.992   0.434 -0.4716  0.2827  1.7407
 4892TIP3    H214683   0.104   1.114   0.496  0.3473  0.2107  1.0110
 4893TIP3   OH214684   5.400   5.248   2.935 -0.1238  0.1435 -0.0959
 4893TIP3    H114685   5.328   5.214   2.881  0.4250 -1.4861  0.1603
 4893TIP3    H214686   5.368   5.241   3.025  0.6197 -1.3427  0.0799
 4894TIP3   OH214687   5.702   0.753   1.434 -0.1532 -0.5936  0.5144
 4894TIP3    H114688   5.719   0.839   1.473  0.6642 -0.3031 -0.4472
 4894TIP3    H214689   5.788   0.721   1.409 -0.6906 -0.3934 -1.7958
 4895TIP3   OH214690   0.105   0.458   4.458 -0.1599  0.2343  0.0378
 4895TIP3    H114691   0.069   0.426   4.540 -0.6028  0.4033 -0.0842
 4895TIP3    H214692   0.114   0.552   4.471  2.1736 -0.0447  0.7844
 4896TIP3   OH214693   5.800   2.222   1.803  0.1517  0.7804  0.0164
 4896TIP3    H114694   5.813   2.203   1.710  0.6225  2.1385 -0.2274
 4896TIP3    H214695   5.870   2.174   1.847 -1.3448 -1.6240 -0.0626
 4897TIP3   OH214696   0.880   4.659   2.769 -0.0949 -0.1841 -0.0601
 4897TIP3    H114697   0.860   4.702   2.687 -1.3279 -0.3067  0.1530
 4897TIP3    H214698   0.803   4.673   2.823  1.4685  1.6812  1.8724
 4898TIP3   OH214699   2.100   1.328   0.992 -0.0676 -0.0205 -0.4762
 4898TIP3    H114700   2.115   1.357   1.082 -0.5651  1.0569 -0.7226
 4898TIP3    H214701   2.172   1.268   0.973  0.1898 -0.0426  0.5465
 4899TIP3   OH214702   4.582   0.492   0.887  0.6272 -0.1878  0.7443
 4899TIP3    H114703   4.625   0.537   0.814 -0.7793  0.2241  0.1316
 4899TIP3    H214704   4.531   0.423   0.845  2.4698 -2.2085  1.6468
 4900TIP3   OH214705   6.113   2.562   2.308 -0.1011  0.0794  0.2688
 4900TIP3    H114706   6.101   2.586   2.216 -0.3263 -0.5129  0.1405
 4900TIP3    H214707   6.133   2.645   2.352 -1.7519  0.6669 -0.0131
 4901TIP3   OH214708   5.589   1.211   2.632  0.4933  0.5576  0.2905
 4901TIP3    H114709   5.574   1.119   2.608  2.5835 -0.1556  1.4644
 4901TIP3    H214710   5.566   1.216   2.725  1.9781  0.7549  0.6798
 4902TIP3   OH214711   6.136   0.928   2.554  0.3718 -0.1166  0.0182
 4902TIP3    H114712   6.130   1.013   2.597  2.4429  0.4443 -0.7135
 4902TIP3    H214713   6.193   0.942   2.479 -2.9716 -1.0609 -3.0147
 4903TIP3   OH214714   0.204   4.876   3.690  0.3023  0.1459 -0.1829
 4903TIP3    H114715   0.275   4.910   3.637 -2.1174  0.2128 -3.7454
 4903TIP3    H214716   0.137   4.945   3.688 -0.3752 -0.3706  2.0313
 4904TIP3   OH214717   4.014   0.844   0.726  0.1379 -0.4678  0.2449
 4904TIP3    H114718   3.936   0.890   0.758  1.9497  2.4402  0.8582
 4904TIP3    H214719   4.010   0.855   0.631 -0.0113  0.0041  0.3047
 4905TIP3   OH214720   5.127   1.989   2.172  0.3944  0.0161  0.0570
 4905TIP3    H114721   5.067   2.063   2.183  0.8538  0.4159 -0.0575
 4905TIP3    H214722   5.096   1.944   2.094  0.5881  0.5652 -0.3424
 4906TIP3   OH214723   3.249   4.414   2.007 -0.0987 -0.0499  0.4191
 4906TIP3    H114724   3.244   4.330   2.054 -0.7072 -1.7971 -2.4850
 4906TIP3    H214725   3.158   4.444   2.003  0.1046  0.7058  1.3479
 4907TIP3   OH214726   2.805   5.416   1.977  0.0351  0.0260 -0.0192
 4907TIP3    H114727   2.795   5.443   2.069 -0.4478  1.1172 -0.3758
 4907TIP3    H214728   2.727   5.451   1.933  0.6949  0.2869 -1.0125
 4908TIP3   OH214729   3.666   0.876   3.224 -0.3087 -0.3529  0.2991
 4908TIP3    H114730   3.668   0.789   3.185  1.3900  0.2179 -1.0401
 4908TIP3    H214731   3.606   0.926   3.169  0.3339 -0.1491 -0.2324
 4909TIP3   OH214732   1.181   1.027   0.267  0.4889  0.4206  0.1003
 4909TIP3    H114733   1.189   1.121   0.283  0.9193  0.7747 -1.9607
 4909TIP3    H214734   1.117   0.997   0.331  0.2925  2.1287  0.7460
 4910TIP3   OH214735   0.475   3.250   5.022 -0.2473 -0.3349  0.4087
 4910TIP3    H114736   0.416   3.174   5.021 -1.3154  0.4575  0.3901
 4910TIP3    H214737   0.556   3.218   5.060 -0.6384 -1.5168  0.2748
 4911TIP3   OH214738   3.211   1.720   3.521  0.0624 -0.7321 -0.1811
 4911TIP3    H114739   3.297   1.686   3.548  0.4883  0.9279  0.6555
 4911TIP3    H214740   3.218   1.727   3.426  1.6949  1.3799  0.0103
 4912TIP3   OH214741   4.041   1.294   1.030 -0.2814 -0.2712 -0.1285
 4912TIP3    H114742   4.106   1.320   1.096 -0.7623 -2.5290  1.3359
 4912TIP3    H214743   4.086   1.227   0.978 -1.3508 -1.8270  0.8723
 4913TIP3   OH214744   0.863   3.387   4.396  0.8231  0.4655 -0.3152
 4913TIP3    H114745   0.831   3.379   4.486 -0.2221  0.1366 -0.6926
 4913TIP3    H214746   0.954   3.414   4.405  0.5818  0.9710  0.8348
 4914TIP3   OH214747   0.472   2.089   0.793 -0.2726  0.0405  0.1000
 4914TIP3    H114748   0.384   2.051   0.798 -0.5418  0.3213 -1.6602
 4914TIP3    H214749   0.520   2.029   0.735  0.7162 -0.1261  1.0725
 4915TIP3   OH214750   0.147   0.718   4.557  0.5755  0.5871  0.2739
 4915TIP3    H114751   0.125   0.762   4.475 -0.4243 -0.5274 -0.0988
 4915TIP3    H214752   0.236   0.746   4.577  0.3626  1.8872 -0.5048
 4916TIP3   OH214753   0.362   1.089   4.510 -0.1724  0.6491 -0.2235
 4916TIP3    H114754   0.272   1.072   4.538 -0.2664  0.8320 -0.4157
 4916TIP3    H214755   0.356   1.166   4.454  0.1774  0.9954  0.2061
 4917TIP3   OH214756   4.478   5.055   3.087  0.0332 -0.7998 -0.0214
 4917TIP3    H114757   4.534   5.132   3.076 -2.1656  0.6102 -2.2982
 4917TIP3    H214758   4.459   5.053   3.181  0.9958  0.7978  0.2503
 4918TIP3   OH214759   6.288   2.444   1.997  0.9253 -0.2162  0.2325
 4918TIP3    H114760   6.243   2.504   1.938 -0.1716  0.2148  1.4498
 4918TIP3    H214761   6.344   2.499   2.051 -0.0433 -0.2649  1.3178
 4919TIP3   OH214762   4.658   5.287   0.271  0.4576  0.3456 -0.0862
 4919TIP3    H114763   4.601   5.330   0.335  1.4596  1.3440  0.1902
 4919TIP3    H214764   4.664   5.350   0.199 -0.9754 -0.9313 -1.4010
 4920TIP3   OH214765   2.191   0.759   4.782 -0.0954 -0.5687 -0.4510
 4920TIP3    H114766   2.282   0.758   4.752  0.1812 -0.0318  0.3513
 4920TIP3    H214767   2.194   0.726   4.871 -0.7844 -1.2021 -0.6541
 4921TIP3   OH214768   2.509   1.252   1.927  0.2096 -0.5146 -0.3770
 4921TIP3    H114769   2.516   1.264   1.832  1.1965  2.0238 -0.0517
 4921TIP3    H214770   2.599   1.246   1.957  0.1058  2.1011  0.6944
 4922TIP3   OH214771   3.049   1.059   1.018  0.2474 -0.0194  0.4798
 4922TIP3    H114772   3.075   1.061   1.110  1.2930 -1.4256  0.2611
 4922TIP3    H214773   3.117   1.007   0.975  0.9195  2.3445 -1.4975
 4923TIP3   OH214774   5.289   5.011   1.565 -0.5600 -0.0778 -0.4365
 4923TIP3    H114775   5.211   4.958   1.551 -1.5996  1.1043  0.6511
 4923TIP3    H214776   5.291   5.072   1.491 -0.5646 -0.2242 -0.5567
 4924TIP3   OH214777   3.714   4.803   4.195 -0.0713  0.0806  0.3512
 4924TIP3    H114778   3.791   4.856   4.214  0.4419 -0.1044 -1.1237
 4924TIP3    H214779   3.735   4.716   4.230 -0.3011  0.4381  1.4169
 4925TIP3   OH214780   3.806   0.308   1.917 -0.0192  0.4942  0.0871
 4925TIP3    H114781   3.793   0.235   1.978  1.2432  0.1640 -0.0162
 4925TIP3    H214782   3.883   0.354   1.951  1.3869 -0.3264 -1.8146
 4926TIP3   OH214783   3.794   0.907   2.878  0.1712  0.9400 -0.0321
 4926TIP3    H114784   3.809   0.893   2.785  0.2258  1.8066 -0.1647
 4926TIP3    H214785   3.706   0.875   2.894  1.1466 -1.8781  0.2305
 4927TIP3   OH214786   3.447   1.094   1.142  0.2186 -0.6248  0.2861
 4927TIP3    H114787   3.357   1.127   1.146  0.2431 -0.4532 -0.5085
 4927TIP3    H214788   3.458   1.046   1.224 -0.6902 -0.8894  0.2680
 4928TIP3   OH214789   5.788   5.814   2.776  0.1795  0.3136 -0.5487
 4928TIP3    H114790   5.715   5.758   2.748  0.1504  0.2257 -0.2977
 4928TIP3    H214791   5.859   5.753   2.795 -0.0543  0.3055  0.3509
 4929TIP3   OH214792   6.106   5.196   0.299 -0.0141  0.1328  0.1474
 4929TIP3    H114793   6.033   5.257   0.303 -0.3798 -0.2881 -0.0454
 4929TIP3    H214794   6.162   5.221   0.373  0.3251  1.2969 -0.4657
 4930TIP3   OH214795   4.999   3.049   0.260 -0.4553 -0.6987 -0.1330
 4930TIP3    H114796   5.043   3.050   0.345  1.7442  2.0886 -1.1624
 4930TIP3    H214797   5.022   2.964   0.222 -1.0524 -1.7696  1.7895
 4931TIP3   OH214798   2.013   2.015   0.310 -0.2118 -0.4730 -0.7217
 4931TIP3    H114799   2.056   2.096   0.281  1.3171 -0.8526  0.4110
 4931TIP3    H214800   2.013   1.959   0.232  0.3760 -0.0537 -1.0311
 4932TIP3   OH214801   0.589   4.255   1.370 -0.0848 -0.3016 -0.5497
 4932TIP3    H114802   0.554   4.312   1.439  0.1336 -1.5137  0.6088
 4932TIP3    H214803   0.677   4.289   1.354  0.6299 -1.1723  1.2251
 4933TIP3   OH214804   6.234   5.901   0.032 -0.2775 -0.0689  0.2708
 4933TIP3    H114805   6.279   5.817   0.019 -0.1017  0.0136  0.3437
 4933TIP3    H214806   6.270   5.958  -0.037  0.8568  0.4540  1.2458
 4934TIP3   OH214807   4.068   0.154   3.712 -0.4176  0.2458 -0.2724
 4934TIP3    H114808   4.060   0.249   3.700 -1.0503  0.3852  1.0941
 4934TIP3    H214809   4.015   0.135   3.789 -0.3148 -1.2339 -0.5443
 4935TIP3   OH214810   4.113   1.855   2.653  0.5301 -0.1609  0.1015
 4935TIP3    H114811   4.039   1.916   2.660 -0.3842 -1.2035 -0.2254
 4935TIP3    H214812   4.190   1.908   2.676  0.0187  1.6227 -1.9444
 4936TIP3   OH214813   3.209   1.269   4.874 -0.1306 -0.2062 -0.4256
 4936TIP3    H114814   3.177   1.326   4.944  1.2382  1.7726 -1.3255
 4936TIP3    H214815   3.265   1.205   4.919  0.6580  0.9708  0.3255
 4937TIP3   OH214816   3.324   3.815   2.496  0.0900 -0.5807  0.2929
 4937TIP3    H114817   3.375   3.881   2.543 -0.8671 -0.8877  1.8228
 4937TIP3    H214818   3.364   3.732   2.520 -0.9491 -0.8077  1.3303
 4938TIP3   OH214819   3.536   4.461   4.383  0.5579 -0.3959 -0.5865
 4938TIP3    H114820   3.468   4.490   4.444  1.2050  2.0304 -0.9140
 4938TIP3    H214821   3.488   4.416   4.313 -0.6126  0.1858 -0.1857
 4939TIP3   OH214822   0.102   4.373   0.391  0.0989 -0.3721 -0.4271
 4939TIP3    H114823   0.137   4.462   0.381 -1.0844  0.3296  1.1940
 4939TIP3    H214824   0.067   4.352   0.304  2.5836 -0.3098 -1.5337
 4940TIP3   OH214825   3.810   5.146   3.248  0.0320  0.0189 -0.4545
 4940TIP3    H114826   3.873   5.181   3.185  0.8107 -2.5736 -1.2301
 4940TIP3    H214827   3.844   5.060   3.272 -0.8735  0.3945  2.6650
 4941TIP3   OH214828   1.050   0.926   2.589 -0.0827 -0.0261 -0.1046
 4941TIP3    H114829   1.063   0.837   2.622 -0.6140  0.1754  0.6919
 4941TIP3    H214830   0.968   0.955   2.631  0.7299  1.2793  0.6594
 4942TIP3   OH214831   0.212   0.741   0.071  0.0172  0.6169 -0.3230
 4942TIP3    H114832   0.194   0.649   0.093 -0.8997  0.6337 -0.9263
 4942TIP3    H214833   0.129   0.773   0.036  0.3804  1.6363 -0.2639
 4943TIP3   OH214834   1.499   4.688   1.043  0.0570  0.5047  0.2093
 4943TIP3    H114835   1.521   4.598   1.021 -0.5888  0.5723 -0.7825
 4943TIP3    H214836   1.405   4.686   1.060 -0.1169  1.1189 -0.5978
 4944TIP3   OH214837   2.421   1.363   3.179  0.1227 -0.3781  0.0814
 4944TIP3    H114838   2.442   1.424   3.249 -0.0058 -0.0473 -0.1643
 4944TIP3    H214839   2.420   1.417   3.100  0.2299 -0.7401 -0.1700
 4945TIP3   OH214840   5.378   4.010   0.569 -0.6407  0.0624 -0.3572
 4945TIP3    H114841   5.400   3.945   0.503  0.7975 -1.7831  1.8061
 4945TIP3    H214842   5.283   4.006   0.577 -0.6139 -1.4035 -0.6369
 4946TIP3   OH214843   1.383   1.021   1.479 -0.0266  0.7198 -0.1631
 4946TIP3    H114844   1.360   0.984   1.394  0.2017  2.3183 -0.9384
 4946TIP3    H214845   1.475   1.043   1.472  0.1256  0.4068  0.6919
 4947TIP3   OH214846   3.184   5.484   3.935 -0.3587  0.5847  0.1251
 4947TIP3    H114847   3.131   5.552   3.978  0.0936  0.4921  0.8441
 4947TIP3    H214848   3.135   5.403   3.949 -2.5069  1.0531 -3.3193
 4948TIP3   OH214849   3.192   0.572   2.708 -0.3859 -0.0089  0.1343
 4948TIP3    H114850   3.174   0.602   2.797 -0.7523 -1.6105  0.6195
 4948TIP3    H214851   3.110   0.589   2.660 -0.3255  0.4666  0.1882
 4949TIP3   OH214852   2.642   5.515   4.914 -0.0269  0.3482  0.1478
 4949TIP3    H114853   2.609   5.578   4.978 -2.0597  0.9236 -1.3556
 4949TIP3    H214854   2.611   5.549   4.830 -1.0819 -2.5575 -0.7429
 4950TIP3   OH214855   5.010   0.563   2.383  0.0179 -0.3028 -0.3038
 4950TIP3    H114856   4.983   0.499   2.449  0.5265  1.2602  1.5048
 4950TIP3    H214857   4.951   0.637   2.396  0.2916  0.1407 -1.4624
 4951TIP3   OH214858   5.581   0.360   4.353 -0.0590 -0.2439 -0.4025
 4951TIP3    H114859   5.638   0.397   4.286  1.4646  0.2702  1.1240
 4951TIP3    H214860   5.549   0.278   4.315  2.7490 -1.2419 -0.8395
 4952TIP3   OH214861   3.398   3.185   1.856 -0.0661 -0.4919  0.6361
 4952TIP3    H114862   3.341   3.121   1.813 -0.2710  0.3426 -0.3541
 4952TIP3    H214863   3.361   3.270   1.833  0.4487  0.0065  1.5924
 4953TIP3   OH214864   4.260   2.820   2.283  0.2265 -0.1175  0.0566
 4953TIP3    H114865   4.257   2.860   2.370 -1.6750 -0.5980  0.2616
 4953TIP3    H214866   4.242   2.727   2.298 -0.8937 -0.0860 -0.8756
 4954TIP3   OH214867   0.382   3.454   1.468 -0.2704 -0.6863  0.2916
 4954TIP3    H114868   0.343   3.367   1.471 -1.4104 -0.2594 -0.7686
 4954TIP3    H214869   0.319   3.510   1.515 -1.6104  0.2143 -2.3817
 4955TIP3   OH214870   1.851   1.064   4.610  0.1278  0.5813  0.0297
 4955TIP3    H114871   1.904   0.996   4.568 -0.8319 -1.2854  1.6752
 4955TIP3    H214872   1.838   1.130   4.542  3.6828  0.7114 -0.7543
 4956TIP3   OH214873   2.799   3.111   4.206  0.5106  0.2191  0.0376
 4956TIP3    H114874   2.892   3.086   4.211  0.1672 -0.9094  2.5199
 4956TIP3    H214875   2.797   3.186   4.146  2.7946 -0.6168 -1.2042
 4957TIP3   OH214876   0.770   0.431   0.855 -0.6601  0.1462  0.0759
 4957TIP3    H114877   0.815   0.446   0.938 -0.7139 -2.0789  0.5944
 4957TIP3    H214878   0.780   0.337   0.839 -1.5146  0.3373 -1.9423
 4958TIP3   OH214879   1.569   3.255   4.390 -0.2602  0.1980  0.4224
 4958TIP3    H114880   1.658   3.238   4.419 -0.0364  1.0697  0.2930
 4958TIP3    H214881   1.548   3.341   4.428 -1.8937 -0.9769  2.4064
 4959TIP3   OH214882   0.313   5.127   1.293 -0.2213  0.0409 -0.5800
 4959TIP3    H114883   0.270   5.126   1.207  0.1867  0.1382 -0.7906
 4959TIP3    H214884   0.250   5.087   1.352  0.2554 -1.8974 -1.3025
 4960TIP3   OH214885   5.534   0.786   1.156  0.1273 -0.1444  0.1022
 4960TIP3    H114886   5.478   0.742   1.092  1.5237 -0.1261 -1.1868
 4960TIP3    H214887   5.536   0.726   1.231 -1.8944  0.0388  0.3752
 4961TIP3   OH214888   3.004   2.245   0.537 -0.3957  0.0300  0.8116
 4961TIP3    H114889   3.043   2.174   0.588 -1.1407 -0.9414  0.0750
 4961TIP3    H214890   2.955   2.201   0.468  0.9067  1.2831 -1.0385
 4962TIP3   OH214891   3.007   2.865   1.702 -0.6906  0.0660  0.5904
 4962TIP3    H114892   2.954   2.791   1.730  0.2759 -1.3025 -0.9944
 4962TIP3    H214893   2.981   2.881   1.611 -0.6812  1.5155  0.8149
 4963TIP3   OH214894   3.081   5.340   2.127 -0.4573 -0.9508 -0.0333
 4963TIP3    H114895   3.127   5.266   2.086 -0.8048 -3.0642  3.0407
 4963TIP3    H214896   2.989   5.325   2.105 -0.6546 -2.1325  1.4420
 4964TIP3   OH214897   5.245   4.990   0.170  0.3486 -0.1985  0.1884
 4964TIP3    H114898   5.194   5.052   0.117  1.0344  1.0552  0.9421
 4964TIP3    H214899   5.202   4.905   0.156 -1.2346  0.6083 -0.1021
 4965TIP3   OH214900   4.594   3.732   2.313 -0.2901 -0.6311 -0.6694
 4965TIP3    H114901   4.517   3.754   2.260  0.6652 -1.9913 -2.8005
 4965TIP3    H214902   4.642   3.815   2.321 -0.7255 -0.2834 -1.5292
 4966TIP3   OH214903   3.679   2.955   2.373 -0.2962  0.2535  0.2389
 4966TIP3    H114904   3.749   2.998   2.324 -0.9657  1.3724  0.2293
 4966TIP3    H214905   3.627   3.027   2.408  0.7707 -0.4384  3.5859
 4967TIP3   OH214906   0.954   5.033   3.041 -0.5845  0.5861 -0.2043
 4967TIP3    H114907   0.958   5.051   3.135 -2.3086  0.6418 -0.1241
 4967TIP3    H214908   0.865   5.055   3.016 -0.4698 -0.4928 -1.6454
 4968TIP3   OH214909   2.136   2.588   0.777  0.3535 -0.0218 -0.2996
 4968TIP3    H114910   2.061   2.530   0.766  0.1370  0.2154 -0.0523
 4968TIP3    H214911   2.208   2.541   0.733  0.0747 -0.2631 -0.5024
 4969TIP3   OH214912   3.007   5.915   5.153  0.0412 -0.3274  0.2708
 4969TIP3    H114913   2.967   5.862   5.084 -0.9366  0.0480  0.5307
 4969TIP3    H214914   3.075   5.965   5.108  0.4327 -1.1961 -0.1250
 4970TIP3   OH214915   0.995   1.265   2.662 -0.1489 -0.6326  0.2040
 4970TIP3    H114916   1.035   1.244   2.747  1.5586 -2.1282 -0.8947
 4970TIP3    H214917   0.922   1.204   2.655  0.6432 -1.5860 -0.0237
 4971TIP3   OH214918   3.375   4.057   0.430 -0.0241  0.4382  0.8494
 4971TIP3    H114919   3.436   4.121   0.467  1.6477 -0.2725 -0.5062
 4971TIP3    H214920   3.299   4.109   0.404  1.2044  1.8910 -0.0351
 4972TIP3   OH214921   0.445   5.684   4.790 -0.2489 -0.2545 -0.2867
 4972TIP3    H114922   0.412   5.709   4.876 -0.0011 -2.3961  0.4988
 4972TIP3    H214923   0.367   5.652   4.744  0.1475 -2.8199  0.6286
 4973TIP3   OH214924   3.989   2.735   0.773 -0.2540  0.1327  0.4583
 4973TIP3    H114925   3.997   2.808   0.712 -0.5313  0.3616  0.6954
 4973TIP3    H214926   3.914   2.757   0.828 -1.3568 -1.0537 -0.4796
 4974TIP3   OH214927   0.769   4.230   0.219  0.0917 -0.0614 -0.2126
 4974TIP3    H114928   0.698   4.166   0.218  0.5832 -0.6170 -0.9358
 4974TIP3    H214929   0.725   4.315   0.216 -0.5504 -0.4006 -0.7829
 4975TIP3   OH214930   5.702   4.939   3.404  0.1450  0.3467  0.2405
 4975TIP3    H114931   5.631   4.917   3.464 -0.0844  2.5469  0.8801
 4975TIP3    H214932   5.760   4.995   3.456  1.1954  0.3679 -0.9088
 4976TIP3   OH214933   2.037   1.065   3.661  0.2637  0.1491 -0.1997
 4976TIP3    H114934   2.124   1.035   3.636  0.9581  1.8111  0.1009
 4976TIP3    H214935   2.031   1.154   3.627 -1.2940  0.1115 -0.1263
 4977TIP3   OH214936   6.016   4.510   2.155 -0.5982 -0.6456  0.3700
 4977TIP3    H114937   6.061   4.442   2.204 -0.2907  0.7258  2.0614
 4977TIP3    H214938   5.929   4.515   2.195 -1.6903 -1.9519 -1.6273
 4978TIP3   OH214939   6.122   2.527   0.452  0.0726  0.4517  0.3858
 4978TIP3    H114940   6.162   2.473   0.520  1.3024 -0.4842 -1.0233
 4978TIP3    H214941   6.037   2.553   0.489  0.3440 -0.7102  1.9316
 4979TIP3   OH214942   6.258   3.428   4.765 -0.0287  0.6527  0.0723
 4979TIP3    H114943   6.218   3.349   4.727  2.9273 -1.1261  0.3711
 4979TIP3    H214944   6.229   3.428   4.856  0.3621 -0.3969  0.2027
 4980TIP3   OH214945   3.114   0.765   0.693 -0.3823 -0.3840  0.0372
 4980TIP3    H114946   3.043   0.739   0.751  0.1312 -0.6358  0.5653
 4980TIP3    H214947   3.174   0.815   0.749  1.3287 -2.6282  0.3610
 4981TIP3   OH214948   0.032   0.562   3.332  0.0393  0.2110  0.5694
 4981TIP3    H114949  -0.004   0.536   3.416 -0.4125 -0.0944  0.2853
 4981TIP3    H214950   0.111   0.611   3.354 -0.5062  0.8264  1.1943
 4982TIP3   OH214951   1.184   1.382   3.471 -0.0437  0.4348  0.3217
 4982TIP3    H114952   1.257   1.320   3.462 -1.8146 -1.5084 -2.2795
 4982TIP3    H214953   1.188   1.435   3.392  0.8660  3.1862  2.0763
 4983TIP3   OH214954   6.234   4.424   1.571  0.7025  0.3028  0.0633
 4983TIP3    H114955   6.319   4.394   1.539 -0.0320 -0.2414 -1.4764
 4983TIP3    H214956   6.248   4.517   1.589  1.7021  0.1527  0.1610
 4984TIP3   OH214957   0.257   1.916   4.002 -0.3865 -0.0606  0.0221
 4984TIP3    H114958   0.247   1.849   4.070 -0.1824  0.2847  0.4013
 4984TIP3    H214959   0.350   1.940   4.006 -0.0725 -0.9692 -1.2796
 4985TIP3   OH214960   3.905   1.824   3.024 -0.1842  0.1307  0.3937
 4985TIP3    H114961   3.928   1.859   3.110 -0.6216  1.8597 -0.1659
 4985TIP3    H214962   3.938   1.889   2.962 -1.8480  0.0271 -0.6500
 4986TIP3   OH214963   2.511   4.780   0.600 -0.0225 -0.5921 -0.1837
 4986TIP3    H114964   2.563   4.762   0.679  1.8108 -2.4736 -1.7071
 4986TIP3    H214965   2.557   4.851   0.556  0.1718 -0.9597 -0.5808
 4987TIP3   OH214966   4.787   1.574   3.805  0.1242 -0.2554  0.4662
 4987TIP3    H114967   4.872   1.561   3.847  0.6350 -1.5908 -0.8907
 4987TIP3    H214968   4.745   1.488   3.810  0.0112 -0.3302 -1.2867
 4988TIP3   OH214969   4.849   0.907   4.938 -0.3360  0.3803  0.0575
 4988TIP3    H114970   4.900   0.965   4.995  0.6669 -1.8249  1.5501
 4988TIP3    H214971   4.858   0.821   4.978  0.4746 -1.3394 -3.4542
 4989TIP3   OH214972   3.973   1.975   3.528  0.0880  0.3162 -0.3833
 4989TIP3    H114973   3.986   2.046   3.590 -0.9211  0.5542 -0.4430
 4989TIP3    H214974   4.055   1.925   3.532 -0.1734 -0.0283  1.5723
 4990TIP3   OH214975   1.077   1.218   2.073  0.0649  0.2040 -0.3868
 4990TIP3    H114976   1.127   1.155   2.126 -1.0205  0.0099  0.4546
 4990TIP3    H214977   1.053   1.287   2.135  0.0952  0.7742 -0.9981
 4991TIP3   OH214978   1.309   0.152   3.697 -0.2124  0.0737 -0.0072
 4991TIP3    H114979   1.285   0.112   3.780 -0.5256  1.3485  0.5496
 4991TIP3    H214980   1.351   0.082   3.647  1.3446 -0.3816  1.7982
 4992TIP3   OH214981   2.728   1.425   1.173 -0.1129 -0.0238  0.5435
 4992TIP3    H114982   2.719   1.453   1.082  1.5982 -1.0972 -0.0059
 4992TIP3    H214983   2.800   1.479   1.208  1.3471 -1.7364  0.2887
 4993TIP3   OH214984   1.864   5.142   4.391 -0.1804 -0.3882 -0.7864
 4993TIP3    H114985   1.845   5.214   4.450 -2.5259 -1.7118  0.1967
 4993TIP3    H214986   1.885   5.184   4.307 -1.7511  1.4159 -0.3315
 4994TIP3   OH214987   4.627   0.882   1.447 -0.0966  0.1321  0.3506
 4994TIP3    H114988   4.615   0.881   1.542 -0.8348 -0.9993  0.2660
 4994TIP3    H214989   4.608   0.792   1.419 -0.2663  0.5334 -0.9073
 4995TIP3   OH214990   5.006   4.263   0.880 -0.2549  0.6479 -0.3033
 4995TIP3    H114991   4.926   4.269   0.933 -0.9569 -0.8434 -1.1439
 4995TIP3    H214992   4.994   4.184   0.828  1.8790  0.2987 -0.3181
 4996TIP3   OH214993   1.987   4.057   4.025 -0.1804 -0.2138  0.2634
 4996TIP3    H114994   1.990   3.996   3.951 -1.1026  0.5661 -0.4460
 4996TIP3    H214995   2.057   4.027   4.083  1.1219 -0.3707 -1.2984
 4997TIP3   OH214996   1.307   0.594   2.269 -0.1983  0.1163  0.0298
 4997TIP3    H114997   1.294   0.557   2.182 -0.5307 -0.0904  0.1641
 4997TIP3    H214998   1.402   0.602   2.278 -0.1851  0.6872 -0.5781
 4998TIP3   OH214999   1.390   3.140   3.277  0.0699  0.0112 -0.6957
 4998TIP3    H115000   1.429   3.106   3.196  0.1449  0.4583 -0.8552
 4998TIP3    H215001   1.441   3.219   3.296  0.9116 -0.7825  0.5115
 4999TIP3   OH215002   4.243   1.411   2.856  0.7250  0.0696 -0.2430
 4999TIP3    H115003   4.209   1.501   2.850  0.2127 -0.2101 -2.3975
 4999TIP3    H215004   4.337   1.421   2.847  0.7933  0.4768  0.8165
 5000TIP3   OH215005   5.417   5.154   3.557 -0.0825  0.1654 -0.2736
 5000TIP3    H115006   5.510   5.168   3.576  0.0680 -1.0534 -0.0672
 5000TIP3    H215007   5.416   5.124   3.466 -0.3106  0.4845 -0.3787
 5001TIP3   OH215008   3.337   2.407   2.873  0.1116  0.8163  0.1270
 5001TIP3    H115009   3.264   2.454   2.913  0.4530  1.2728  0.2337
 5001TIP3    H215010   3.398   2.477   2.847  1.3995  0.3721  1.7677
 5002TIP3   OH215011   5.551   3.912   3.911  0.3474  0.5501 -0.9847
 5002TIP3    H115012   5.589   3.917   3.823 -0.1756  0.8956 -1.2011
 5002TIP3    H215013   5.536   3.818   3.925 -1.4029  0.6072 -2.1037
 5003TIP3   OH215014   6.216   2.056   3.312 -0.4440  0.0354 -0.2803
 5003TIP3    H115015   6.182   1.967   3.313  0.3858 -0.2896 -0.1538
 5003TIP3    H215016   6.140   2.111   3.329 -1.3742 -0.4974 -2.4506
 5004TIP3   OH215017   0.724   2.103   1.807 -0.3679 -0.5102  0.2153
 5004TIP3    H115018   0.742   2.139   1.894 -1.3407  2.9072 -0.8345
 5004TIP3    H215019   0.810   2.099   1.765  0.0821 -1.9946  1.1627
 5005TIP3   OH215020   3.394   0.154   2.686 -0.0706  0.0675  0.3696
 5005TIP3    H115021   3.322   0.164   2.749  0.1935  1.2615  0.5117
 5005TIP3    H215022   3.411   0.243   2.656  1.2755 -0.2200  0.2440
 5006TIP3   OH215023   0.173   1.874   3.111 -0.3721  0.3538  0.1679
 5006TIP3    H115024   0.129   1.790   3.123 -0.3566  0.2140 -0.7202
 5006TIP3    H215025   0.264   1.858   3.135  0.1627 -0.5090 -2.1835
 5007TIP3   OH215026   5.646   2.640   2.042 -0.2225  0.1306  0.0677
 5007TIP3    H115027   5.706   2.567   2.025 -1.4629 -1.1354  0.9692
 5007TIP3    H215028   5.694   2.695   2.104 -0.2348 -1.2727  1.3968
 5008TIP3   OH215029   1.606   2.034   3.624 -0.2915  0.6141  0.1147
 5008TIP3    H115030   1.654   2.035   3.542 -0.2466  0.8207  0.1414
 5008TIP3    H215031   1.616   2.123   3.658 -3.6769  1.8427 -1.6034
 5009TIP3   OH215032   6.194   5.282   0.004  0.2279 -0.5119  0.4471
 5009TIP3    H115033   6.127   5.317  -0.055  0.1742  0.3828  1.0242
 5009TIP3    H215034   6.194   5.342   0.079  1.0460 -1.0199  0.8674
 5010TIP3   OH215035   0.036   0.952   0.807  0.1307  0.1411 -0.2065
 5010TIP3    H115036   0.068   0.978   0.720 -0.7819 -1.9029 -1.2146
 5010TIP3    H215037   0.053   0.858   0.811 -1.2056 -0.0647  1.2348
 5011TIP3   OH215038   5.590   5.734   2.622 -0.5049  0.2297 -0.1483
 5011TIP3    H115039   5.507   5.727   2.575 -0.7195 -0.6610  0.3562
 5011TIP3    H215040   5.657   5.714   2.557 -0.8003 -0.9778 -0.0951
 5012TIP3   OH215041   0.607   0.956   3.078 -0.3019  0.5185  0.3263
 5012TIP3    H115042   0.670   0.886   3.060 -0.2532  0.8346 -0.8030
 5012TIP3    H215043   0.530   0.910   3.113  0.3758  0.0860  1.3071
 5013TIP3   OH215044   1.449   2.441   0.676  0.2567 -0.3423  0.1271
 5013TIP3    H115045   1.506   2.379   0.630  0.1448  0.1178 -0.6409
 5013TIP3    H215046   1.376   2.388   0.706  0.5182 -0.7209  0.1094
 5014TIP3   OH215047   4.905   4.599   3.672 -0.0183 -0.1365  0.2778
 5014TIP3    H115048   4.998   4.582   3.661 -0.1806 -0.5200 -0.5904
 5014TIP3    H215049   4.863   4.556   3.597 -0.9437 -0.4486  0.9469
 5015TIP3   OH215050   4.334   1.930   4.774  0.4025  0.6246 -0.1122
 5015TIP3    H115051   4.296   1.967   4.853 -1.2853  0.1299 -0.6636
 5015TIP3    H215052   4.265   1.938   4.708  1.2128 -0.4257 -1.1181
 5016TIP3   OH215053   5.522   3.875   5.152  0.1341  0.0129  0.1299
 5016TIP3    H115054   5.483   3.961   5.134  0.6441  0.3392  0.5644
 5016TIP3    H215055   5.518   3.866   5.248  0.9015 -0.0544  0.1620
 5017TIP3   OH215056   2.370   0.882   5.155 -0.3628  0.1169  0.6846
 5017TIP3    H115057   2.397   0.794   5.130  0.0147  0.9266 -2.1292
 5017TIP3    H215058   2.340   0.922   5.073 -1.2559  2.3674  2.0116
 5018TIP3   OH215059   3.894   4.751   3.429  0.5046  0.1497 -0.1580
 5018TIP3    H115060   3.920   4.766   3.338 -1.7763 -0.7281 -1.0354
 5018TIP3    H215061   3.835   4.823   3.450  0.7919  0.1949  0.5453
 5019TIP3   OH215062   2.967   2.086   4.840 -0.0329  0.0328  0.4938
 5019TIP3    H115063   3.029   2.126   4.902 -0.1116  0.2914  0.4085
 5019TIP3    H215064   3.015   2.081   4.758  0.5155 -1.5021  0.8810
 5020TIP3   OH215065   1.174   4.054   4.846 -0.1045 -0.4107  0.1041
 5020TIP3    H115066   1.223   3.972   4.854 -0.7107 -0.9553 -1.3666
 5020TIP3    H215067   1.099   4.032   4.791 -1.6832  0.5486  1.7474
 5021TIP3   OH215068   0.233   4.071   4.564 -0.4469 -0.0862 -0.1890
 5021TIP3    H115069   0.220   4.124   4.485  0.7973  0.1654 -0.2438
 5021TIP3    H215070   0.198   4.126   4.634 -1.7526 -0.3982 -0.5639
 5022TIP3   OH215071   2.952   4.073   1.489  0.6487  0.6224 -0.2211
 5022TIP3    H115072   2.984   4.159   1.464  0.5632  0.3608 -1.3310
 5022TIP3    H215073   3.030   4.026   1.519  1.4150 -0.0224 -2.9277
 5023TIP3   OH215074   4.467   4.320   0.030 -0.1416 -0.3805  0.2031
 5023TIP3    H115075   4.510   4.254   0.085 -1.1996 -0.6306  0.7577
 5023TIP3    H215076   4.391   4.274  -0.007  0.1766 -0.0201 -0.9392
 5024TIP3   OH215077   3.278   2.856   4.302  0.4836 -0.0750 -0.2871
 5024TIP3    H115078   3.235   2.776   4.272  0.7732 -0.3893  0.1308
 5024TIP3    H215079   3.300   2.903   4.221  0.4832 -0.5070 -0.5386
 5025TIP3   OH215080   1.060   0.107   4.265  0.8389  0.2761  0.1005
 5025TIP3    H115081   1.092   0.195   4.249  2.2989 -0.5676 -2.0918
 5025TIP3    H215082   0.994   0.093   4.197  0.2816 -0.1699  0.7181
 5026TIP3   OH215083   4.266   0.412   0.109  0.0557 -0.4345  0.8217
 5026TIP3    H115084   4.337   0.439   0.167 -0.4106 -0.2184  1.3106
 5026TIP3    H215085   4.240   0.326   0.141 -0.0103 -0.4397  0.7549
 5027TIP3   OH215086   0.632   5.347   3.591 -0.7226  0.0568 -0.6000
 5027TIP3    H115087   0.564   5.348   3.524  0.1277 -0.6865 -1.4948
 5027TIP3    H215088   0.644   5.439   3.615 -0.0269  0.5065 -2.5236
 5028TIP3   OH215089   2.156   4.984   5.062  0.1721 -0.0673 -0.4728
 5028TIP3    H115090   2.167   4.898   5.102 -0.5008 -0.3884 -0.9607
 5028TIP3    H215091   2.061   5.001   5.067  0.1023 -0.0145 -1.6956
 5029TIP3   OH215092   5.384   2.779   2.782 -0.1485  0.4521 -0.1894
 5029TIP3    H115093   5.429   2.716   2.837 -1.2381  1.5880  2.1455
 5029TIP3    H215094   5.446   2.798   2.711  0.9946 -1.6401  0.1862
 5030TIP3   OH215095   4.634   5.476   0.978 -0.2567  0.2552  0.6395
 5030TIP3    H115096   4.573   5.418   0.933  0.1606 -0.5556  1.0902
 5030TIP3    H215097   4.581   5.519   1.045 -0.5451  0.3036  0.3823
 5031TIP3   OH215098   1.640   0.684   4.950 -0.1547  0.0472  0.0747
 5031TIP3    H115099   1.579   0.612   4.940 -0.3642  0.1922  0.3181
 5031TIP3    H215100   1.716   0.645   4.994 -0.3296  0.0083  0.3464
 5032TIP3   OH215101   2.458   2.963   0.989 -0.3119 -0.1644 -0.2380
 5032TIP3    H115102   2.452   2.891   1.052 -1.5784  0.9795  1.0006
 5032TIP3    H215103   2.378   2.956   0.936 -0.8209  0.7578  0.3864
 5033TIP3   OH215104   1.384   5.689   2.740 -0.6253  0.2251  0.1292
 5033TIP3    H115105   1.395   5.781   2.762 -1.7542  0.3818  0.0655
 5033TIP3    H215106   1.474   5.656   2.733 -0.1995  0.8741  1.9476
 5034TIP3   OH215107   1.193   2.467   3.098  0.2125  0.4291  0.4543
 5034TIP3    H115108   1.236   2.536   3.048 -3.4558  2.6788 -0.0188
 5034TIP3    H215109   1.233   2.386   3.066  2.4184  2.1165 -1.4473
 5035TIP3   OH215110   5.225   0.216   1.983  0.2028  0.2254  0.3623
 5035TIP3    H115111   5.252   0.124   1.983  0.0930  0.1728 -1.3196
 5035TIP3    H215112   5.139   0.216   1.940 -0.0200  1.0633  0.7871
 5036TIP3   OH215113   2.531   3.901   5.159  0.1015 -0.1933  0.0808
 5036TIP3    H115114   2.592   3.827   5.163  0.9337  0.5171  2.7213
 5036TIP3    H215115   2.454   3.869   5.207  0.1902  0.3694  0.6112
 5037TIP3   OH215116   4.964   5.283   3.059 -0.6854  0.1780 -0.2639
 5037TIP3    H115117   5.012   5.365   3.051 -1.1280  0.4105 -0.5680
 5037TIP3    H215118   4.947   5.274   3.153  1.0712 -0.5625  0.0227
 5038TIP3   OH215119   4.576   5.924   0.972 -0.3037  0.7292  0.6207
 5038TIP3    H115120   4.657   5.893   0.931  0.9733  1.8339  2.1890
 5038TIP3    H215121   4.538   5.984   0.908  1.0097  1.4838  0.5267
 5039TIP3   OH215122   3.738   0.135   4.849 -0.3526  0.5366  0.3315
 5039TIP3    H115123   3.697   0.051   4.828 -2.3316  1.5902 -0.2986
 5039TIP3    H215124   3.816   0.138   4.793 -1.1981 -0.1618 -0.9303
 5040TIP3   OH215125   6.117   3.004   1.200 -0.2632 -0.5904 -0.2001
 5040TIP3    H115126   6.048   3.037   1.142 -0.8988 -1.4635  0.0475
 5040TIP3    H215127   6.172   3.081   1.217 -1.1124  0.0978 -0.4824
 5041TIP3   OH215128   3.542   0.260   0.145 -0.2740  0.4867 -0.3848
 5041TIP3    H115129   3.608   0.198   0.176  0.0979  0.6596 -0.8279
 5041TIP3    H215130   3.528   0.236   0.053  0.4453  1.5395 -0.7930
 5042TIP3   OH215131   4.729   2.267   1.844  0.7582 -0.6014  0.1203
 5042TIP3    H115132   4.655   2.262   1.904  1.3789  0.3210  0.9906
 5042TIP3    H215133   4.733   2.180   1.805 -1.1274 -0.5228 -0.3843
 5043TIP3   OH215134   6.352   3.564   3.958  0.1179  0.1409 -1.1276
 5043TIP3    H115135   6.257   3.560   3.973  0.1411 -0.1169 -1.0500
 5043TIP3    H215136   6.365   3.518   3.875  0.3677 -1.3632 -0.2900
 5044TIP3   OH215137   2.939   5.339   4.190 -0.6152 -0.0476 -0.5406
 5044TIP3    H115138   2.873   5.408   4.205 -0.4098 -0.0482  0.3771
 5044TIP3    H215139   2.959   5.346   4.096  0.1821  1.8568 -0.2772
 5045TIP3   OH215140   0.697   5.794   4.712  0.3144  0.0501 -0.1790
 5045TIP3    H115141   0.744   5.845   4.778 -0.5194 -2.2598  2.4093
 5045TIP3    H215142   0.605   5.813   4.728  0.1028 -0.5036 -0.7072
 5046TIP3   OH215143   5.226   4.046   2.903 -0.4824  0.1051 -0.3514
 5046TIP3    H115144   5.295   3.981   2.922 -0.7151  0.0180  0.1920
 5046TIP3    H215145   5.272   4.117   2.858 -0.3077 -0.6623 -1.4343
 5047TIP3   OH215146   4.553   5.713   4.468  0.0422 -0.3509  0.6470
 5047TIP3    H115147   4.631   5.750   4.426 -0.0741  0.3337  1.0218
 5047TIP3    H215148   4.481   5.741   4.411  0.1139 -1.4465 -0.0021
 5048TIP3   OH215149   5.267   3.959   3.235  0.3304  0.6433  0.0143
 5048TIP3    H115150   5.347   3.972   3.286  0.9091 -1.2462 -0.3240
 5048TIP3    H215151   5.209   4.030   3.263  0.9039  0.1544  2.7240
 5049TIP3   OH215152   0.446   2.453   3.343  0.2830  0.4574  0.4871
 5049TIP3    H115153   0.401   2.536   3.360 -0.2428  0.1730  0.5224
 5049TIP3    H215154   0.539   2.474   3.351  0.1237  0.7955  1.6150
 5050TIP3   OH215155   5.393   3.039   1.730 -0.3780 -0.6553  0.1014
 5050TIP3    H115156   5.374   3.009   1.641  1.0486 -0.4720 -0.2994
 5050TIP3    H215157   5.327   3.106   1.748 -0.2798 -0.2144 -1.0868
 5051TIP3   OH215158   0.901   5.668   2.068 -0.3549  0.4529 -0.2996
 5051TIP3    H115159   0.921   5.645   1.977 -0.0011 -3.1624  0.5728
 5051TIP3    H215160   0.807   5.653   2.076 -0.0625 -1.1935  0.3732
 5052TIP3   OH215161   5.000   4.014   2.735 -0.4463  0.1156  0.1233
 5052TIP3    H115162   5.042   4.052   2.812 -1.7299 -0.0593  0.9373
 5052TIP3    H215163   5.029   3.923   2.733  0.9104  0.5353 -0.5869
 5053TIP3   OH215164   3.472   5.811   3.781  0.0724 -0.4698  0.4276
 5053TIP3    H115165   3.530   5.761   3.724 -0.1286 -0.5664  0.3046
 5053TIP3    H215166   3.530   5.854   3.844  0.5322  1.4172 -1.1738
 5054TIP3   OH215167   4.217   0.507   4.472  0.3648 -0.5429 -0.2914
 5054TIP3    H115168   4.294   0.482   4.421  0.7140  1.4447 -0.8088
 5054TIP3    H215169   4.144   0.461   4.430  1.1264 -1.8371 -0.2706
 5055TIP3   OH215170   4.513   0.171   1.235 -0.1485 -0.7625 -0.1639
 5055TIP3    H115171   4.514   0.164   1.331 -0.4511  0.5833 -0.0337
 5055TIP3    H215172   4.430   0.131   1.209 -0.6726  0.0072  0.2682
 5056TIP3   OH215173   1.055   4.967   2.776  0.1108 -0.1343  0.7428
 5056TIP3    H115174   1.025   4.999   2.861  0.6191  0.6414  0.6415
 5056TIP3    H215175   0.980   4.977   2.718  0.2848  0.9584  0.6963
 5057TIP3   OH215176   5.374   3.230   4.380  0.2067  0.0937 -0.2888
 5057TIP3    H115177   5.443   3.226   4.446 -1.9514 -1.6068  2.0354
 5057TIP3    H215178   5.353   3.139   4.361 -2.2784  0.4952  0.1246
 5058TIP3   OH215179   4.501   2.255   2.002  0.0598  0.1153  0.4439
 5058TIP3    H115180   4.429   2.283   1.945  0.0577 -1.1074 -0.1948
 5058TIP3    H215181   4.511   2.162   1.984  2.3465  0.3868 -0.1046
 5059TIP3   OH215182   4.965   5.612   1.628  0.4982 -0.4297  0.0402
 5059TIP3    H115183   5.025   5.647   1.693  0.5637 -0.8073  0.1838
 5059TIP3    H215184   4.922   5.689   1.591  1.2409 -0.1391 -0.2380
 5060TIP3   OH215185   5.423   0.886   1.550  0.3922  0.3077  0.5223
 5060TIP3    H115186   5.505   0.935   1.551 -0.3212  1.7699 -2.5947
 5060TIP3    H215187   5.360   0.943   1.594  0.3376  0.7036 -0.0539
 5061TIP3   OH215188   1.070   1.562   1.259 -0.3165  0.0928 -0.4551
 5061TIP3    H115189   1.106   1.650   1.267 -0.4875  0.0388  1.3630
 5061TIP3    H215190   1.138   1.505   1.295  0.0422 -0.6164 -2.1607
 5062TIP3   OH215191   5.249   3.095   5.136  0.6785  0.4145 -0.6096
 5062TIP3    H115192   5.174   3.045   5.168  1.3153  1.5686  3.2625
 5062TIP3    H215193   5.291   3.037   5.073 -1.3909 -1.7916 -0.1141
 5063TIP3   OH215194   4.279   1.635   1.656  0.1581 -0.2731  0.2242
 5063TIP3    H115195   4.335   1.638   1.578  1.5577  3.2251  1.1711
 5063TIP3    H215196   4.337   1.654   1.729 -1.3793 -2.0663  2.0509
 5064TIP3   OH215197   1.238   2.288   0.741 -0.6917 -0.3296  0.2477
 5064TIP3    H115198   1.176   2.361   0.741  2.0386  2.2450 -1.6637
 5064TIP3    H215199   1.270   2.284   0.831  0.3695  2.1750  0.0781
 5065TIP3   OH215200   5.511   0.670   0.671  0.3616 -0.0605 -0.2164
 5065TIP3    H115201   5.594   0.632   0.640  0.5020  0.1750 -0.1277
 5065TIP3    H215202   5.536   0.754   0.709  0.0183  0.2122 -0.5906
 5066TIP3   OH215203   4.840   4.084   0.478 -0.1208  0.7892  0.0931
 5066TIP3    H115204   4.824   3.990   0.468 -0.7579  0.9289 -0.3310
 5066TIP3    H215205   4.855   4.115   0.388 -1.3652  1.3219  0.0395
 5067TIP3   OH215206   2.479   5.264   1.588 -0.2460  0.0720  0.1929
 5067TIP3    H115207   2.461   5.339   1.532  0.6240  0.4280  0.3787
 5067TIP3    H215208   2.396   5.245   1.631 -0.4058  1.0977  0.3510
 5068TIP3   OH215209   2.757   0.360   0.337 -0.3501  0.1264 -0.2088
 5068TIP3    H115210   2.700   0.283   0.335 -0.0131 -0.2988  2.4269
 5068TIP3    H215211   2.845   0.324   0.346 -0.0885  0.8071  0.0173
 5069TIP3   OH215212   1.161   1.896   2.369 -0.2693 -0.3198  0.3832
 5069TIP3    H115213   1.176   1.802   2.366  0.1483 -0.3116  1.5585
 5069TIP3    H215214   1.150   1.915   2.462 -0.7459  0.7365  0.1246
 5070TIP3   OH215215   3.668   4.426   0.497 -0.0178  0.2812 -0.2965
 5070TIP3    H115216   3.640   4.365   0.566  0.2873 -0.0086 -0.4239
 5070TIP3    H215217   3.694   4.505   0.545 -1.3070  0.6692 -0.1952
 5071TIP3   OH215218   0.657   0.744   4.463 -0.7934  0.5275 -0.9122
 5071TIP3    H115219   0.675   0.790   4.382 -2.6295  0.2433 -1.5334
 5071TIP3    H215220   0.743   0.723   4.499  0.0845  2.8216 -1.5020
 5072TIP3   OH215221   1.295   3.411   1.155  0.0220  0.0984  0.6604
 5072TIP3    H115222   1.345   3.380   1.230  0.5808 -0.3865  0.0971
 5072TIP3    H215223   1.358   3.414   1.084 -0.9165 -1.2771 -0.2726
 5073TIP3   OH215224   0.139   0.498   0.154  0.3462  0.5534  0.0988
 5073TIP3    H115225   0.175   0.413   0.129  0.6723  0.4478  0.8903
 5073TIP3    H215226   0.091   0.480   0.235  1.9907  1.4551  1.3235
 5074TIP3   OH215227   4.040   5.059   3.513 -0.6541  0.3599  0.2488
 5074TIP3    H115228   4.072   5.005   3.441  0.0049 -0.8170  1.3844
 5074TIP3    H215229   4.102   5.132   3.517 -1.4082  1.1207 -1.1355
 5075TIP3   OH215230   2.714   0.044   4.466 -0.1441  0.1887  0.0066
 5075TIP3    H115231   2.683   0.129   4.497 -3.5386 -1.1980  0.8879
 5075TIP3    H215232   2.720  -0.009   4.545 -0.1846 -0.9803 -0.7558
 5076TIP3   OH215233   5.801   1.673   2.663  0.0927 -0.7438 -0.3718
 5076TIP3    H115234   5.732   1.610   2.639 -1.4138  0.8177 -0.3950
 5076TIP3    H215235   5.777   1.703   2.751 -0.4563  1.2736 -1.1416
 5077TIP3   OH215236   1.346   0.287   1.257  0.3580 -0.1466 -0.2586
 5077TIP3    H115237   1.397   0.213   1.290  2.2614  2.1626  2.4914
 5077TIP3    H215238   1.260   0.250   1.237  1.4210 -3.2017  0.3031
 5078TIP3   OH215239   5.690   0.044   3.391 -0.0945 -0.2750 -0.1486
 5078TIP3    H115240   5.746   0.121   3.405 -2.0636  0.9846  1.4624
 5078TIP3    H215241   5.601   0.081   3.383 -1.2091 -2.3773  1.4264
 5079TIP3   OH215242   1.358   0.625   1.792  0.4192 -0.0204 -0.1081
 5079TIP3    H115243   1.364   0.706   1.843  0.5830  0.4628 -0.8671
 5079TIP3    H215244   1.388   0.650   1.705  0.8435 -1.0036 -0.2549
 5080TIP3   OH215245   3.245   3.752   0.191 -0.2828 -0.0057  0.0257
 5080TIP3    H115246   3.289   3.685   0.138  1.0021  0.1451  0.8628
 5080TIP3    H215247   3.298   3.830   0.179 -1.5075  0.7585 -0.5667
 5081TIP3   OH215248   2.487   1.538   4.297 -0.1002  0.0051  0.3214
 5081TIP3    H115249   2.447   1.612   4.252  0.3671 -0.2757 -0.5818
 5081TIP3    H215250   2.580   1.562   4.304  0.2592 -0.9337 -0.9314
 5082TIP3   OH215251   3.512   3.621   5.049  0.1336 -0.6770  0.3047
 5082TIP3    H115252   3.571   3.547   5.039  2.0508  0.8622 -0.5495
 5082TIP3    H215253   3.546   3.687   4.989 -2.6484  0.2372 -0.4302
 5083TIP3   OH215254   3.195   3.184   3.670 -0.7538 -0.2133 -0.3586
 5083TIP3    H115255   3.247   3.119   3.717 -0.2533  1.0052  0.8295
 5083TIP3    H215256   3.116   3.195   3.724 -0.3642  0.8918  0.0161
 5084TIP3   OH215257   0.714   0.835   4.864  0.4224  0.0370  0.3943
 5084TIP3    H115258   0.722   0.841   4.959 -1.6084 -1.3700  0.7264
 5084TIP3    H215259   0.711   0.926   4.834 -2.5220  0.6471  2.1056
 5085TIP3   OH215260   3.023   4.374   4.094  0.2931  0.0605 -0.1324
 5085TIP3    H115261   3.062   4.452   4.054  0.6417 -0.7463 -1.4179
 5085TIP3    H215262   3.092   4.308   4.088 -0.2017 -0.5138  0.4079
 5086TIP3   OH215263   2.713   1.441   0.910  0.0211  0.0034  0.5199
 5086TIP3    H115264   2.684   1.472   0.824  0.4232  1.6721  0.9532
 5086TIP3    H215265   2.798   1.400   0.894  0.0992  0.3187  0.1124
 5087TIP3   OH215266   3.731   0.837   0.822  0.9934 -0.1016 -0.3900
 5087TIP3    H115267   3.704   0.879   0.739 -1.0903 -0.5099  0.0233
 5087TIP3    H215268   3.745   0.745   0.799  1.5636  0.0110 -0.5048
 5088TIP3   OH215269   4.411   3.541   1.448  0.2039  0.3948  0.3328
 5088TIP3    H115270   4.413   3.469   1.386  0.6251 -0.8071  1.7046
 5088TIP3    H215271   4.503   3.566   1.459  0.3683 -0.7358  1.9275
 5089TIP3   OH215272   4.326   2.317   0.342  0.2266  0.0541 -0.0918
 5089TIP3    H115273   4.377   2.392   0.310 -0.7156  1.0035  0.5849
 5089TIP3    H215274   4.236   2.340   0.321 -0.2755  0.0296  1.8831
 5090TIP3   OH215275   6.171   1.670   4.476 -0.2299  0.2005 -0.0922
 5090TIP3    H115276   6.230   1.605   4.515 -0.0769  0.4898  0.1601
 5090TIP3    H215277   6.092   1.665   4.530  0.2545  1.1194  0.7162
 5091TIP3   OH215278   0.615   0.703   0.030  0.1735  0.2289 -0.2200
 5091TIP3    H115279   0.617   0.611   0.006  0.2222  0.1699  0.0057
 5091TIP3    H215280   0.570   0.705   0.114 -1.1603  0.5680 -0.9109
 5092TIP3   OH215281   0.551   1.298   3.083 -0.3884  0.7353  0.1111
 5092TIP3    H115282   0.573   1.210   3.054 -1.9762  1.0893 -2.4638
 5092TIP3    H215283   0.459   1.309   3.060 -0.7174  2.4889  1.9669
 5093TIP3   OH215284   0.650   0.385   2.250  0.2782  0.1116  0.1785
 5093TIP3    H115285   0.624   0.307   2.202 -0.0351  1.3345 -1.7437
 5093TIP3    H215286   0.579   0.400   2.312 -1.0487  0.4271 -1.3649
 5094TIP3   OH215287   2.682   0.566   0.167 -0.0769  0.1500 -0.3328
 5094TIP3    H115288   2.591   0.577   0.195  0.3023  1.9562  0.3376
 5094TIP3    H215289   2.718   0.502   0.228 -0.8449 -0.4534 -0.4962
 5095TIP3   OH215290   1.564   1.301   1.389 -0.5878  0.1163 -0.2903
 5095TIP3    H115291   1.562   1.391   1.421 -0.7491  0.1887 -0.5021
 5095TIP3    H215292   1.557   1.247   1.468 -1.9234  0.2984 -0.2502
 5096TIP3   OH215293   2.913   5.255   1.688 -0.3778 -0.5316  0.3417
 5096TIP3    H115294   2.880   5.342   1.669  0.5607  0.3397  2.4353
 5096TIP3    H215295   2.854   5.196   1.640 -1.5792  1.1792 -0.3759
 5097TIP3   OH215296   2.623   4.401   0.409 -0.2616  0.3995  0.7285
 5097TIP3    H115297   2.677   4.389   0.487 -1.0440  1.9843  1.5614
 5097TIP3    H215298   2.681   4.442   0.345 -0.1406  0.9750  1.2002
 5098TIP3   OH215299   2.820   1.630   2.949 -0.0276 -0.3500 -0.2069
 5098TIP3    H115300   2.876   1.557   2.921 -0.3652 -0.9422  0.6222
 5098TIP3    H215301   2.732   1.593   2.947 -0.3068  0.3245 -0.6749
 5099TIP3   OH215302   2.167   1.240   3.171 -0.0883  0.7334 -0.5754
 5099TIP3    H115303   2.246   1.293   3.162  0.6186 -0.1190  0.3412
 5099TIP3    H215304   2.152   1.204   3.084  0.5629  0.8754 -0.7513
 5100TIP3   OH215305   6.225   2.802   2.536  0.5490  0.0107 -0.0517
 5100TIP3    H115306   6.292   2.840   2.593  0.5970  3.1297 -2.0095
 5100TIP3    H215307   6.142   2.837   2.570 -0.1016 -2.5932  1.3868
 5101TIP3   OH215308   4.644   1.206   2.548 -0.0916  0.2663  0.3080
 5101TIP3    H115309   4.619   1.276   2.608 -0.8981 -1.4398  2.0769
 5101TIP3    H215310   4.638   1.245   2.461  1.3014  2.8981  1.2905
 5102TIP3   OH215311   0.058   5.258   2.565 -0.2964 -0.1687  0.0665
 5102TIP3    H115312  -0.003   5.328   2.544  0.2487  0.8713  1.7164
 5102TIP3    H215313   0.134   5.274   2.509 -1.0031 -0.6966 -1.0582
 5103TIP3   OH215314   2.795   5.597   0.495  0.0472  0.1976 -0.5077
 5103TIP3    H115315   2.772   5.690   0.491 -0.3605  0.1549  0.4828
 5103TIP3    H215316   2.824   5.583   0.585 -1.4791 -0.9644 -0.1394
 5104TIP3   OH215317   4.812   3.512   3.076  0.2107 -0.4360  0.3520
 5104TIP3    H115318   4.897   3.483   3.044  0.6619 -0.4214  1.4910
 5104TIP3    H215319   4.756   3.435   3.070  0.6903 -0.8356  0.8762
 5105TIP3   OH215320   5.780   1.074   2.948 -0.0568 -0.2326  0.0382
 5105TIP3    H115321   5.728   1.009   2.902 -3.2229  1.6453  0.6516
 5105TIP3    H215322   5.772   1.050   3.041 -0.4026  0.4334  0.1887
 5106TIP3   OH215323   5.675   5.053   0.239  0.1024  0.2720  0.5247
 5106TIP3    H115324   5.761   5.055   0.196 -0.2549 -0.7503 -0.2752
 5106TIP3    H215325   5.694   5.040   0.332  0.7729 -3.0397  0.0232
 5107TIP3   OH215326   1.014   2.257   1.161  0.4839  0.1430 -0.0303
 5107TIP3    H115327   0.930   2.302   1.162  0.9230  0.9726  0.1473
 5107TIP3    H215328   1.027   2.227   1.251  0.7994  0.8181  0.1526
 5108TIP3   OH215329   0.633   2.472   1.949  0.1937  0.4141 -0.0137
 5108TIP3    H115330   0.631   2.480   1.854 -1.5747 -2.8755 -0.4226
 5108TIP3    H215331   0.723   2.447   1.969  0.3213  0.0177 -1.0068
 5109TIP3   OH215332   1.298   5.506   3.376  0.0005  0.3221  0.1455
 5109TIP3    H115333   1.242   5.428   3.376 -0.4293  0.6273  0.0835
 5109TIP3    H215334   1.302   5.532   3.284 -0.3079  0.6940  0.2376
 5110TIP3   OH215335   4.868   4.866   3.676 -0.3844  0.3131  0.0928
 5110TIP3    H115336   4.864   4.770   3.676  0.1299  0.2540  2.0000
 5110TIP3    H215337   4.855   4.890   3.584  0.9927 -1.6528 -0.7057
 5111TIP3   OH215338   5.534   2.597   4.628 -0.4250  0.0846  0.2310
 5111TIP3    H115339   5.583   2.527   4.585 -1.1634  0.5406 -1.4548
 5111TIP3    H215340   5.558   2.676   4.580 -0.9187  0.7015  0.9770
 5112TIP3   OH215341   1.846   0.048   3.355 -0.3657  0.3056  0.0908
 5112TIP3    H115342   1.786   0.051   3.280 -0.4391 -0.1184  0.1335
 5112TIP3    H215343   1.815  -0.025   3.408  0.0693  0.2126  0.2196
 5113TIP3   OH215344   4.206   3.153   4.425 -0.1492  0.9748  0.5741
 5113TIP3    H115345   4.118   3.122   4.445  0.5095 -0.8241  0.9586
 5113TIP3    H215346   4.203   3.179   4.332 -1.0541  0.8704  0.5709
 5114TIP3   OH215347   1.950   1.679   1.916  0.0650  0.0979  0.4471
 5114TIP3    H115348   1.983   1.767   1.897  0.3635  0.0490  0.7331
 5114TIP3    H215349   2.019   1.639   1.969  0.8029 -0.9704 -1.2339
 5115TIP3   OH215350   4.626   3.557   0.999  0.0293 -0.3663 -0.2187
 5115TIP3    H115351   4.715   3.570   0.964  0.1072 -0.5218 -0.0795
 5115TIP3    H215352   4.572   3.618   0.949  0.0348 -0.9939 -1.0228
 5116TIP3   OH215353   4.028   4.029   4.966  0.1787  0.0793  0.3759
 5116TIP3    H115354   4.099   4.087   4.938  0.4139 -1.2052 -2.0407
 5116TIP3    H215355   4.060   3.941   4.944 -1.8107 -0.6005 -0.0216
 5117TIP3   OH215356   2.099   2.748   0.994  0.0451 -0.2569  0.6644
 5117TIP3    H115357   2.184   2.754   1.037  0.9204  1.4225 -1.1494
 5117TIP3    H215358   2.117   2.701   0.913 -1.0562 -1.0718  0.8655
 5118TIP3   OH215359   1.218   1.632   0.258 -0.0143 -0.1576  0.7458
 5118TIP3    H115360   1.285   1.592   0.314 -0.2512  1.7462  2.5327
 5118TIP3    H215361   1.252   1.720   0.240 -0.9439 -0.0061 -0.3240
 5119TIP3   OH215362   0.057   5.309   4.414  0.9129  0.2692 -0.4347
 5119TIP3    H115363   0.051   5.319   4.319 -2.2127  0.9665 -0.2564
 5119TIP3    H215364  -0.026   5.342   4.447  0.7236 -2.5707  2.3440
 5120TIP3   OH215365   5.544   2.858   4.289  0.2250  0.4476  0.1415
 5120TIP3    H115366   5.535   2.774   4.244 -0.4183  0.6244 -0.0640
 5120TIP3    H215367   5.455   2.881   4.316 -0.0971  2.3959 -2.1905
 5121TIP3   OH215368   0.521   3.764   5.116 -0.7287  0.1443  0.4799
 5121TIP3    H115369   0.615   3.769   5.131 -0.3894  0.1700 -1.3910
 5121TIP3    H215370   0.483   3.834   5.169 -0.0096 -1.4247  3.2344
 5122TIP3   OH215371   1.391   0.636   0.583  0.3875 -0.1498  0.4808
 5122TIP3    H115372   1.420   0.557   0.537 -0.5495  0.6738 -1.6605
 5122TIP3    H215373   1.421   0.708   0.528  1.9549  1.1089  2.8139
 5123TIP3   OH215374   0.102   3.940   3.507  0.1053 -0.0261  0.0084
 5123TIP3    H115375   0.041   3.941   3.433  0.3581  2.4280 -0.2630
 5123TIP3    H215376   0.147   3.856   3.500 -0.5056 -0.2465 -2.1159
 5124TIP3   OH215377   1.941   5.728   2.228  0.4386  0.5241  0.0934
 5124TIP3    H115378   2.009   5.693   2.169  0.6654 -1.5585  1.4862
 5124TIP3    H215379   1.859   5.710   2.182  0.7072  0.9685 -0.5783
 5125TIP3   OH215380   0.348   3.354   4.354 -0.1606  0.2642  0.1996
 5125TIP3    H115381   0.286   3.369   4.425 -1.9467 -0.5700 -1.1085
 5125TIP3    H215382   0.312   3.402   4.280  1.3716  0.6550 -0.3378
 5126TIP3   OH215383   0.527   1.277   0.172 -0.4535 -0.0531  0.3761
 5126TIP3    H115384   0.582   1.348   0.138 -0.4667 -0.2172  0.0027
 5126TIP3    H215385   0.589   1.208   0.196 -0.5077 -0.3862 -0.3962
 5127TIP3   OH215386   5.031   1.381   2.371  0.2387 -0.1084  0.0922
 5127TIP3    H115387   4.993   1.430   2.298 -2.3266 -2.3809 -0.2483
 5127TIP3    H215388   5.008   1.432   2.448  1.5030  1.4427 -0.4953
 5128TIP3   OH215389   2.097   1.679   1.055 -0.2389 -0.2430  0.3462
 5128TIP3    H115390   2.004   1.682   1.035  0.0272 -0.5252 -1.0979
 5128TIP3    H215391   2.107   1.607   1.117 -0.7662 -1.4831 -0.9621
 5129TIP3   OH215392   3.943   0.725   1.012 -0.3655  0.4879 -0.3516
 5129TIP3    H115393   3.958   0.631   0.997  1.9146  0.8335 -0.4912
 5129TIP3    H215394   3.854   0.740   0.981 -0.5615 -1.5076 -0.8837
 5130TIP3   OH215395   4.170   5.791   5.170 -0.4981 -0.0298 -0.6992
 5130TIP3    H115396   4.215   5.839   5.240 -0.7740 -0.2571 -0.3604
 5130TIP3    H215397   4.235   5.783   5.101 -0.6974  1.5530 -1.1047
 5131TIP3   OH215398   1.500   5.370   0.304  1.2536 -0.3305  0.1315
 5131TIP3    H115399   1.502   5.281   0.267  1.8154 -0.6297  0.8481
 5131TIP3    H215400   1.443   5.362   0.381  0.3282  0.2192 -0.4707
 5132TIP3   OH215401   3.774   4.095   4.459  0.1149  0.4059 -0.6095
 5132TIP3    H115402   3.789   4.159   4.389  2.4000  0.3844 -0.2033
 5132TIP3    H215403   3.810   4.136   4.538  2.2322 -1.5249 -0.4436
 5133TIP3   OH215404   3.185   0.093   2.518 -0.3386 -0.3376  0.2434
 5133TIP3    H115405   3.274   0.120   2.539 -0.5582 -0.5827  1.6041
 5133TIP3    H215406   3.147   0.068   2.602 -1.8908  0.3308 -0.2115
 5134TIP3   OH215407   0.659   2.039   3.805  0.2177 -0.4075  0.3458
 5134TIP3    H115408   0.613   2.073   3.882 -0.5248  0.4595 -0.4599
 5134TIP3    H215409   0.595   1.984   3.761 -0.0040  0.6101 -0.6516
 5135TIP3   OH215410   4.881   2.139   2.262  0.2181  0.3586 -0.5900
 5135TIP3    H115411   4.917   2.117   2.348 -2.5956  1.5045  1.0140
 5135TIP3    H215412   4.807   2.079   2.251 -0.4274  1.2923 -1.4814
 5136TIP3   OH215413   3.098   2.295   5.001 -0.3414  0.1836 -0.0577
 5136TIP3    H115414   3.139   2.359   4.942  0.7065  0.8615  1.3428
 5136TIP3    H215415   3.166   2.230   5.018 -0.3947  0.3500  0.8836
 5137TIP3   OH215416   2.167   3.477   1.358 -0.2817 -0.8547 -0.2457
 5137TIP3    H115417   2.212   3.493   1.441  2.4143 -1.1851 -1.5701
 5137TIP3    H215418   2.119   3.558   1.341  0.0293 -0.3710  1.0493
 5138TIP3   OH215419   3.785   1.218   2.671  0.1280 -0.1491  0.3934
 5138TIP3    H115420   3.845   1.144   2.658 -0.5188 -0.5849 -0.1596
 5138TIP3    H215421   3.826   1.290   2.623  0.2357 -0.4344  0.0510
 5139TIP3   OH215422   3.249   0.982   2.971  0.1058 -0.4143  0.3105
 5139TIP3    H115423   3.248   0.978   2.875 -1.6328 -1.3705  0.3233
 5139TIP3    H215424   3.341   0.982   2.994  0.5691  0.1849 -1.3760
 5140TIP3   OH215425   4.043   4.655   2.199  0.3198 -0.4198 -0.1307
 5140TIP3    H115426   4.060   4.599   2.275  0.3155  1.3180  1.2507
 5140TIP3    H215427   4.130   4.679   2.167  0.3400 -0.4383 -0.0900
 5141TIP3   OH215428   5.210   5.178   2.735  0.3537  0.7370 -0.3752
 5141TIP3    H115429   5.165   5.148   2.813 -0.0192 -0.4678 -1.0264
 5141TIP3    H215430   5.153   5.246   2.698  0.0667  0.6401 -0.1100
 5142TIP3   OH215431   5.693   4.905   0.967  0.3898 -0.3636 -0.3262
 5142TIP3    H115432   5.681   5.000   0.981  1.9031  0.0225 -1.4673
 5142TIP3    H215433   5.757   4.879   1.034 -0.1660 -0.6407  0.1094
 5143TIP3   OH215434   3.700   4.053   3.654 -0.2818 -0.0628 -0.0521
 5143TIP3    H115435   3.726   4.094   3.571 -0.0231  0.8616  0.4757
 5143TIP3    H215436   3.768   4.078   3.716 -0.3260 -0.9894  0.3800
 5144TIP3   OH215437   4.669   1.107   0.298  0.0821 -0.0402  0.3628
 5144TIP3    H115438   4.758   1.082   0.323  0.4476  0.5027 -0.3781
 5144TIP3    H215439   4.654   1.190   0.342 -0.3765 -0.5221  1.1537
 5145TIP3   OH215440   0.558   0.487   1.146 -0.6055 -0.1038  0.3669
 5145TIP3    H115441   0.582   0.404   1.104 -0.4224  0.4163 -0.5928
 5145TIP3    H215442   0.570   0.471   1.239 -0.5993 -1.1664  0.1971
 5146TIP3   OH215443   0.399   4.817   3.317  0.1822 -0.4996  0.2198
 5146TIP3    H115444   0.486   4.783   3.341  0.7967  0.2204 -0.8730
 5146TIP3    H215445   0.394   4.801   3.222 -0.8341 -0.4250  0.2597
 5147TIP3   OH215446   2.865   0.560   4.373 -0.0040 -0.2929 -0.1218
 5147TIP3    H115447   2.924   0.612   4.318 -2.4547  1.4967 -1.2201
 5147TIP3    H215448   2.808   0.624   4.414 -1.9515 -1.9991 -0.0330
 5148TIP3   OH215449   5.493   4.296   0.248 -0.3649 -0.1995  0.5259
 5148TIP3    H115450   5.453   4.348   0.318  0.6203  2.2160 -0.5659
 5148TIP3    H215451   5.425   4.288   0.181 -0.1329  0.8988  0.1385
 5149TIP3   OH215452   2.217   3.306   4.069  0.2593  0.1523 -0.4621
 5149TIP3    H115453   2.168   3.261   4.000 -0.3403  0.0680  0.0131
 5149TIP3    H215454   2.178   3.275   4.151  2.8218 -2.0022  0.0907
 5150TIP3   OH215455   6.070   0.805   5.007  0.8960 -0.6902  0.0926
 5150TIP3    H115456   5.986   0.778   4.971  1.4415 -0.6925 -1.2174
 5150TIP3    H215457   6.053   0.817   5.101 -0.1917 -2.1353  0.1062
 5151TIP3   OH215458   0.736   3.534   1.232 -0.4483  0.8201  0.0676
 5151TIP3    H115459   0.688   3.484   1.297 -0.5648  0.8707  0.0230
 5151TIP3    H215460   0.712   3.493   1.148  1.3888 -0.6268  0.2042
 5152TIP3   OH215461   2.148   3.709   3.461  0.0054  0.2135  0.4807
 5152TIP3    H115462   2.186   3.677   3.543  0.9603  2.1115  0.8260
 5152TIP3    H215463   2.194   3.659   3.393 -0.7465 -1.3265  1.0466
 5153TIP3   OH215464   5.197   0.204   3.410 -0.3724  0.3066 -0.0531
 5153TIP3    H115465   5.225   0.287   3.448 -0.5548  0.6029 -0.5512
 5153TIP3    H215466   5.119   0.179   3.460 -2.5628  2.2927 -2.1671
 5154TIP3   OH215467   6.311   5.786   1.074  0.2546 -0.1024  0.0136
 5154TIP3    H115468   6.266   5.704   1.054  0.1500 -0.0488  0.0314
 5154TIP3    H215469   6.389   5.759   1.123  0.2797 -0.1993 -0.0792
 5155TIP3   OH215470   3.775   3.668   4.510 -0.3307 -0.3392  0.4584
 5155TIP3    H115471   3.818   3.739   4.557 -0.8871  0.3690 -0.0847
 5155TIP3    H215472   3.683   3.693   4.506 -0.2463 -0.2060 -1.3001
 5156TIP3   OH215473   0.457   0.969   0.356 -0.3021 -0.4719  0.8575
 5156TIP3    H115474   0.402   1.046   0.372 -1.5321 -0.9228 -0.8168
 5156TIP3    H215475   0.539   1.004   0.322 -0.0639  0.1620  2.0414
 5157TIP3   OH215476   3.361   0.482   0.070 -0.2342  0.3644  0.5936
 5157TIP3    H115477   3.441   0.533   0.082  0.8080 -0.5369 -1.8253
 5157TIP3    H215478   3.388   0.391   0.084 -0.9993  0.1047  0.4364
 5158TIP3   OH215479   4.552   0.219   3.287  0.2681 -0.2148  0.3387
 5158TIP3    H115480   4.598   0.287   3.337  2.1560 -1.0442 -0.1952
 5158TIP3    H215481   4.541   0.257   3.200 -0.4670  0.1302  0.5674
 5159TIP3   OH215482   5.990   3.357   3.668 -0.0940 -0.3225  0.0128
 5159TIP3    H115483   5.994   3.445   3.630 -0.9519 -0.9914 -1.7657
 5159TIP3    H215484   6.022   3.300   3.598 -0.8283 -1.5485  0.6390
 5160TIP3   OH215485   5.435   1.716   1.485 -0.3547  0.3190 -0.0290
 5160TIP3    H115486   5.416   1.810   1.485  0.6937  0.5427  0.2376
 5160TIP3    H215487   5.530   1.711   1.481 -0.3714 -0.7286  0.6805
 5161TIP3   OH215488   4.123   5.148   5.071  0.1191  0.0254 -0.5963
 5161TIP3    H115489   4.085   5.061   5.083  0.4913 -0.0556  0.0285
 5161TIP3    H215490   4.169   5.142   4.987  1.4886 -0.8947  0.1733
 5162TIP3   OH215491   6.326   5.614   4.320  0.2588  0.5898 -0.3103
 5162TIP3    H115492   6.254   5.586   4.378 -0.8794 -1.8611 -2.6370
 5162TIP3    H215493   6.405   5.599   4.371 -0.7482  0.0101  1.1611
 5163TIP3   OH215494   5.588   2.888   3.290  0.2874 -0.6842  0.4499
 5163TIP3    H115495   5.526   2.853   3.226  2.1845 -3.4317 -0.0167
 5163TIP3    H215496   5.643   2.814   3.314  3.6003  1.6372  0.6314
 5164TIP3   OH215497   4.793   1.865   0.051 -0.0903 -0.0420  0.4478
 5164TIP3    H115498   4.836   1.813  -0.018 -0.2183  0.7240 -0.2274
 5164TIP3    H215499   4.860   1.875   0.119  0.5132  0.3719 -0.1905
 5165TIP3   OH215500   3.597   2.454   0.791  0.2291 -0.3027 -0.3644
 5165TIP3    H115501   3.570   2.364   0.771  0.6554 -0.8539  1.3812
 5165TIP3    H215502   3.581   2.463   0.885 -1.0557  1.9088 -0.7275
 5166TIP3   OH215503   1.690   4.730   1.370  0.2290 -0.1266 -0.1054
 5166TIP3    H115504   1.721   4.641   1.356 -2.7311 -1.4852  1.1457
 5166TIP3    H215505   1.723   4.754   1.457  4.2651  1.6943 -1.8569
 5167TIP3   OH215506   4.906   3.489   0.096  0.1183 -0.1765  0.0648
 5167TIP3    H115507   4.929   3.398   0.076 -0.7922  0.1836 -3.1267
 5167TIP3    H215508   4.991   3.534   0.104  0.6040 -0.7201 -1.6443
 5168TIP3   OH215509   5.277   5.445   1.604 -0.3918 -0.6243  0.2659
 5168TIP3    H115510   5.217   5.472   1.673  0.5733 -0.7262  1.1707
 5168TIP3    H215511   5.363   5.474   1.635 -0.1233  0.8774 -1.6791
 5169TIP3   OH215512   1.627   0.251   0.667  0.4002 -0.5351  0.0464
 5169TIP3    H115513   1.700   0.224   0.722 -0.7615 -1.9943  0.9505
 5169TIP3    H215514   1.580   0.170   0.647 -1.6995  0.4826  0.5790
 5170TIP3   OH215515   2.946   1.288   3.766 -0.1254  0.3452 -0.2232
 5170TIP3    H115516   3.040   1.286   3.787 -0.6957 -0.2279  2.7985
 5170TIP3    H215517   2.923   1.196   3.751  0.0983  0.6649 -3.0659
 5171TIP3   OH215518   1.738   5.138   0.590 -0.1138 -0.3280  0.2709
 5171TIP3    H115519   1.655   5.185   0.599  0.2081  0.4705 -0.6905
 5171TIP3    H215520   1.716   5.046   0.603 -1.1737 -0.1379 -0.1365
 5172TIP3   OH215521   1.330   2.684   2.991  0.2697 -0.5725  0.3591
 5172TIP3    H115522   1.371   2.711   3.072  1.2807  2.3065 -0.9795
 5172TIP3    H215523   1.392   2.709   2.922 -1.6912 -0.3635 -1.4609
 5173TIP3   OH215524   3.332   3.015   4.085  0.4556 -0.1227 -0.5357
 5173TIP3    H115525   3.307   2.984   3.999  2.7735 -0.4622 -1.1590
 5173TIP3    H215526   3.370   3.102   4.069  1.1801 -0.3138  0.0679
 5174TIP3   OH215527   2.697   3.308   3.555  0.2378  0.1531 -0.1812
 5174TIP3    H115528   2.636   3.237   3.571 -0.2748  0.8912  1.3565
 5174TIP3    H215529   2.776   3.266   3.521 -0.9079 -0.8651 -1.6726
 5175TIP3   OH215530   4.433   5.710   2.327 -0.3590  0.1217  0.3503
 5175TIP3    H115531   4.421   5.621   2.361 -1.6449  0.0937 -0.1326
 5175TIP3    H215532   4.527   5.726   2.335 -0.3389 -0.6249  2.0549
 5176TIP3   OH215533   2.139   5.556   1.702 -0.3086  0.1535  0.1755
 5176TIP3    H115534   2.092   5.622   1.753  0.2839  0.1440  0.7520
 5176TIP3    H215535   2.083   5.540   1.626  0.0055  2.0461 -0.4952
 5177TIP3   OH215536   2.894   3.195   0.092 -0.5879  0.2427 -0.4400
 5177TIP3    H115537   2.888   3.216  -0.002  0.0619  2.0154 -0.1395
 5177TIP3    H215538   2.911   3.280   0.133  0.1819 -0.6713  1.1869
 5178TIP3   OH215539   0.308   2.499   4.268  0.4278 -0.4302  0.1469
 5178TIP3    H115540   0.338   2.586   4.295  2.3172 -1.2385  0.8264
 5178TIP3    H215541   0.212   2.505   4.272  0.5198  1.4518  0.6919
 5179TIP3   OH215542   2.965   3.890   1.275  0.3135 -0.1280  0.1315
 5179TIP3    H115543   3.044   3.943   1.265 -0.7188  1.4960  0.1034
 5179TIP3    H215544   2.918   3.932   1.347 -1.3451  0.0573 -0.9997
 5180TIP3   OH215545   2.393   0.942   2.077 -0.3718  0.0856 -0.2487
 5180TIP3    H115546   2.332   0.967   2.008 -0.2137 -1.7775 -1.1375
 5180TIP3    H215547   2.480   0.962   2.041 -0.0795 -3.4300 -1.9126
 5181TIP3   OH215548   5.879   4.572   0.972  0.1138 -0.0982  0.3053
 5181TIP3    H115549   5.841   4.644   0.922 -1.5736 -0.3731  1.1004
 5181TIP3    H215550   5.816   4.500   0.962  0.6186 -0.7176  1.3602
 5182TIP3   OH215551   0.378   4.801   1.116  0.0183 -0.1425  0.1459
 5182TIP3    H115552   0.333   4.877   1.079  1.6451  0.1265 -1.4019
 5182TIP3    H215553   0.466   4.803   1.078  1.3087 -0.8189  2.7875
 5183TIP3   OH215554   2.404   3.314   4.610  0.3519  0.1081 -0.1746
 5183TIP3    H115555   2.448   3.323   4.694  0.9798 -2.1232 -0.1943
 5183TIP3    H215556   2.466   3.267   4.555 -1.3651 -1.7529 -0.6814
 5184TIP3   OH215557   1.896   2.817   4.449 -0.1492 -0.1947 -0.0402
 5184TIP3    H115558   1.865   2.733   4.416 -1.0914 -0.2195  0.8583
 5184TIP3    H215559   1.981   2.829   4.408 -0.5568 -0.9939 -1.1632
 5185TIP3   OH215560   4.732   2.829   1.268  0.0811 -0.5102 -0.4226
 5185TIP3    H115561   4.739   2.907   1.323 -0.5273 -0.9415  0.2946
 5185TIP3    H215562   4.801   2.771   1.301 -1.2103 -1.3537  0.9033
 5186TIP3   OH215563   4.188   1.137   2.222 -0.2170 -0.0783 -0.2698
 5186TIP3    H115564   4.097   1.164   2.230 -0.1841 -0.1284  0.4055
 5186TIP3    H215565   4.231   1.178   2.297  0.3253 -0.0137 -0.6143
 5187TIP3   OH215566   5.590   3.842   1.905 -0.0090  0.4267  0.1089
 5187TIP3    H115567   5.638   3.818   1.984 -0.5876  0.8335  0.5843
 5187TIP3    H215568   5.653   3.892   1.853  0.1012  0.9297  0.7166
 5188TIP3   OH215569   2.917   1.055   4.950 -0.2166  0.0725  0.1352
 5188TIP3    H115570   2.937   1.105   4.871  0.2538  0.6732  0.6212
 5188TIP3    H215571   3.001   1.017   4.975 -0.5726 -0.9740 -0.2311
 5189TIP3   OH215572   4.257   5.914   4.425 -0.3895 -0.7144  0.4981
 5189TIP3    H115573   4.180   5.904   4.482 -1.0092 -0.1378 -0.2236
 5189TIP3    H215574   4.254   6.005   4.398  0.3391 -0.7927  0.1537
 5190TIP3   OH215575   2.178   4.026   1.228  0.5373 -0.2140 -0.0709
 5190TIP3    H115576   2.209   4.109   1.263  1.1393 -1.2040  1.9013
 5190TIP3    H215577   2.258   3.981   1.199  0.5072 -1.0598  1.1040
 5191TIP3   OH215578   1.580   1.908   1.415 -0.5383  0.1435  0.2771
 5191TIP3    H115579   1.516   1.932   1.483  0.5452  0.9895  1.0234
 5191TIP3    H215580   1.534   1.843   1.362 -1.1479 -1.2164  2.3260
 5192TIP3   OH215581   3.267   1.382   5.122  0.0931  0.3556 -0.3997
 5192TIP3    H115582   3.235   1.305   5.168 -1.8044 -0.1750 -2.4675
 5192TIP3    H215583   3.268   1.451   5.189 -0.8024 -0.7936  0.8345
 5193TIP3   OH215584   6.218   3.834   0.659  0.2856 -0.2157 -0.0921
 5193TIP3    H115585   6.225   3.921   0.698  0.1065 -0.8001  1.3374
 5193TIP3    H215586   6.246   3.845   0.568  0.1298  1.3461  0.0253
 5194TIP3   OH215587   4.507   0.867   0.443  0.0724  0.0970 -0.4321
 5194TIP3    H115588   4.572   0.823   0.388  1.8444 -1.5370  2.6468
 5194TIP3    H215589   4.537   0.958   0.447  0.4117  0.0450 -1.4139
 5195TIP3   OH215590   5.754   0.585   3.121 -0.2077 -0.1828 -0.3665
 5195TIP3    H115591   5.828   0.571   3.181  0.3264  0.9779 -0.7157
 5195TIP3    H215592   5.791   0.637   3.050 -1.1697 -0.3267 -0.9860
 5196TIP3   OH215593   5.731   1.732   3.096 -0.0573 -0.1171 -0.0799
 5196TIP3    H115594   5.708   1.642   3.115 -2.5768  0.3294 -0.6970
 5196TIP3    H215595   5.685   1.784   3.163 -0.1930  0.7985 -0.8586
 5197TIP3   OH215596   2.768   1.734   2.066  0.0189  0.0797 -0.0448
 5197TIP3    H115597   2.726   1.806   2.113 -0.1769 -0.8350  1.2324
 5197TIP3    H215598   2.704   1.706   2.001  0.3302  1.4289 -0.9724
 5198TIP3   OH215599   5.235   3.457   0.378 -0.3387  0.1354 -0.1577
 5198TIP3    H115600   5.181   3.386   0.413 -1.0114  1.0984  0.8374
 5198TIP3    H215601   5.302   3.413   0.326 -2.8992 -1.0838 -2.7075
 5199TIP3   OH215602   5.521   0.235   1.201 -0.1561 -0.0151  0.5821
 5199TIP3    H115603   5.450   0.175   1.224 -0.2495  0.6907  2.2125
 5199TIP3    H215604   5.576   0.238   1.279  1.3223 -0.0235 -0.4179
 5200TIP3   OH215605   2.440   2.446   1.833  0.2249 -0.0618 -0.1476
 5200TIP3    H115606   2.521   2.425   1.788 -0.0999 -0.8954 -0.3696
 5200TIP3    H215607   2.375   2.456   1.763 -0.0822 -0.4473  0.0740
 5201TIP3   OH215608   1.513   3.246   2.887  0.3736 -0.0586  0.2631
 5201TIP3    H115609   1.475   3.162   2.860  0.2904  0.2981 -0.7433
 5201TIP3    H215610   1.562   3.225   2.967  1.0188 -1.2194 -0.4101
 5202TIP3   OH215611   3.341   0.157   3.688  0.2829 -0.5640 -0.1744
 5202TIP3    H115612   3.357   0.228   3.749 -1.0023  1.9052 -2.4694
 5202TIP3    H215613   3.281   0.098   3.734  1.7715 -0.4873  1.9678
 5203TIP3   OH215614   1.336   0.691   3.867  0.0981  0.7881 -0.6038
 5203TIP3    H115615   1.378   0.700   3.781  0.3048  1.0310 -0.4790
 5203TIP3    H215616   1.328   0.597   3.880 -0.1659  0.7504 -1.0008
 5204TIP3   OH215617   4.698   0.633   1.627  0.4478  0.5061 -0.3262
 5204TIP3    H115618   4.649   0.707   1.664 -0.6994 -0.2385 -0.3115
 5204TIP3    H215619   4.636   0.560   1.627  1.7107 -0.6067  0.1232
 5205TIP3   OH215620   1.993   2.353   1.509 -0.2181 -0.1553  0.6169
 5205TIP3    H115621   1.907   2.342   1.550 -0.3169 -0.3659  0.3566
 5205TIP3    H215622   1.973   2.378   1.419 -0.0013  0.2776  0.6879
 5206TIP3   OH215623   4.303   3.174   1.299  0.8466 -0.0499  0.0189
 5206TIP3    H115624   4.317   3.088   1.341 -1.0516  0.3525  1.6141
 5206TIP3    H215625   4.223   3.207   1.339  0.4131  1.6018 -2.0602
 5207TIP3   OH215626   0.490   0.403   4.925 -0.1563  0.4203 -0.3691
 5207TIP3    H115627   0.396   0.418   4.934 -0.4609 -1.2518 -0.4241
 5207TIP3    H215628   0.519   0.474   4.867 -1.5921  0.3296 -1.2772
 5208TIP3   OH215629   3.002   0.360   0.741  0.5212 -0.1881 -0.3989
 5208TIP3    H115630   3.047   0.299   0.683  0.1372 -0.6026 -0.2684
 5208TIP3    H215631   3.072   0.407   0.786  0.8763 -1.8169  0.8710
 5209TIP3   OH215632   2.340   5.263   1.327  0.5555 -0.2474  0.5267
 5209TIP3    H115633   2.259   5.253   1.376  0.2594 -1.2417 -0.1336
 5209TIP3    H215634   2.324   5.338   1.270  0.7822  0.7011  1.6805
 5210TIP3   OH215635   0.081   2.323   3.619 -0.0652 -0.1256  0.6384
 5210TIP3    H115636  -0.013   2.306   3.620  0.0223 -0.9490 -0.8495
 5210TIP3    H215637   0.108   2.304   3.529  0.9554  3.4048  0.0346
 5211TIP3   OH215638   1.248   4.621   3.806 -0.1097 -0.0335  0.3785
 5211TIP3    H115639   1.207   4.636   3.892  1.4700 -0.7900  1.3120
 5211TIP3    H215640   1.338   4.598   3.827  0.5183  0.5219 -1.5542
 5212TIP3   OH215641   4.898   0.652   0.498 -0.5608 -0.4468  0.4152
 5212TIP3    H115642   4.963   0.630   0.430 -1.1077  2.1268 -1.0781
 5212TIP3    H215643   4.950   0.673   0.575  0.2886 -0.2534 -0.1957
 5213TIP3   OH215644   2.476   0.797   1.263 -0.1203  0.2672 -0.0698
 5213TIP3    H115645   2.446   0.825   1.350 -0.0777  3.8848 -1.0464
 5213TIP3    H215646   2.396   0.777   1.215 -0.2790  0.1354  0.2470
 5214TIP3   OH215647   0.314   1.802   2.229 -0.2556  0.3565 -0.1382
 5214TIP3    H115648   0.296   1.891   2.199 -0.9144  0.2131 -0.1882
 5214TIP3    H215649   0.315   1.750   2.148  0.4454  0.3668 -0.1401
 5215TIP3   OH215650   4.368   2.131   3.391 -0.0981 -0.1732  0.5758
 5215TIP3    H115651   4.332   2.074   3.323 -0.5478 -0.7320  1.2656
 5215TIP3    H215652   4.296   2.190   3.414 -0.2016 -0.5086  1.1218
 5216TIP3   OH215653   0.785   5.935   0.056 -0.2538 -0.0335  0.2487
 5216TIP3    H115654   0.793   5.937   0.152  1.0236 -0.2544  0.1695
 5216TIP3    H215655   0.795   5.842   0.033  0.3305  0.1252 -0.1541
 5217TIP3   OH215656   4.820   4.442   1.018  0.4007  0.0982  0.2873
 5217TIP3    H115657   4.741   4.403   0.982  0.7077  0.2998 -0.6132
 5217TIP3    H215658   4.808   4.537   1.008  0.6264  0.1448  0.4319
 5218TIP3   OH215659   5.906   0.615   0.333 -0.1256 -0.0979  0.0411
 5218TIP3    H115660   6.000   0.633   0.335 -0.1056 -0.1653 -0.2329
 5218TIP3    H215661   5.877   0.631   0.423  0.2865 -0.8124  0.3143
 5219TIP3   OH215662   1.879   3.167   3.396  0.1038  0.2902  0.4204
 5219TIP3    H115663   1.936   3.242   3.410 -0.3528  0.5592  0.8628
 5219TIP3    H215664   1.808   3.201   3.341  0.0948  0.0863  0.3038
 5220TIP3   OH215665   3.637   5.815   1.307 -0.4086  0.0896 -0.1510
 5220TIP3    H115666   3.625   5.896   1.258 -0.6314 -0.5746 -1.2521
 5220TIP3    H215667   3.549   5.782   1.322 -0.3228  0.0789  0.3454
 5221TIP3   OH215668   5.809   3.424   5.144  0.2742  0.1822  0.1625
 5221TIP3    H115669   5.762   3.492   5.192 -0.6903 -1.0854  1.0925
 5221TIP3    H215670   5.751   3.401   5.071  0.2664 -0.1261  0.2629
 5222TIP3   OH215671   5.223   0.415   0.760 -0.4783 -0.6931  0.0628
 5222TIP3    H115672   5.261   0.349   0.818  0.8120  0.4101  0.5244
 5222TIP3    H215673   5.140   0.439   0.802  0.4879  0.1756  1.5759
 5223TIP3   OH215674   2.092   3.010   0.207  0.1447 -0.2315  0.9164
 5223TIP3    H115675   2.059   2.958   0.281  1.1137 -1.1111  0.7624
 5223TIP3    H215676   2.014   3.031   0.156 -0.7201  1.5269  2.8521
 5224TIP3   OH215677   1.264   4.239   1.825 -0.2406 -0.4454  0.3017
 5224TIP3    H115678   1.232   4.328   1.815  1.4497  0.1981  0.3357
 5224TIP3    H215679   1.198   4.185   1.780 -0.0091  1.0441 -1.9946
 5225TIP3   OH215680   0.712   4.088   4.282  0.7830  0.1582 -0.5272
 5225TIP3    H115681   0.801   4.062   4.303  0.5092  0.3493  1.0140
 5225TIP3    H215682   0.710   4.183   4.298 -0.0990 -0.0988  1.1053
 5226TIP3   OH215683   1.681   0.946   5.152  0.0011  0.1852  0.4584
 5226TIP3    H115684   1.711   0.916   5.066  1.8814  0.3211  1.0307
 5226TIP3    H215685   1.611   0.886   5.175  0.5815 -0.8862 -0.4512
 5227TIP3   OH215686   3.022   1.684   2.013  0.3783  0.2233  0.1596
 5227TIP3    H115687   2.935   1.725   2.015  0.5832  0.7047 -0.5600
 5227TIP3    H215688   3.004   1.590   2.010 -0.1036  0.2820  0.8199
 5228TIP3   OH215689   0.060   1.992   0.502 -0.3544 -1.2102 -0.7743
 5228TIP3    H115690   0.121   2.060   0.527 -1.0838 -0.2629 -1.4696
 5228TIP3    H215691   0.115   1.916   0.481  0.7117  0.0049 -2.6627
 5229TIP3   OH215692   3.621   0.552   2.714 -0.3561  0.0052  0.0699
 5229TIP3    H115693   3.584   0.481   2.766 -1.1812  0.5036  0.1790
 5229TIP3    H215694   3.704   0.573   2.756 -1.8470  1.6883  2.3949
 5230TIP3   OH215695   5.767   3.100   3.253 -0.2259  0.1590 -0.2147
 5230TIP3    H115696   5.735   3.125   3.166  0.2054 -0.9057 -0.6957
 5230TIP3    H215697   5.702   3.036   3.284  0.3037 -0.4398 -0.3157
 5231TIP3   OH215698   2.749   4.638   0.234  0.2418 -0.0365 -0.1024
 5231TIP3    H115699   2.798   4.663   0.155  1.2911 -1.8379 -0.0693
 5231TIP3    H215700   2.658   4.634   0.204  0.7229 -1.6357 -1.5163
 5232TIP3   OH215701   4.617   4.893   0.659 -0.2106  0.4554  0.0117
 5232TIP3    H115702   4.633   4.812   0.612 -1.6280  0.9799 -1.4801
 5232TIP3    H215703   4.683   4.894   0.728 -1.3949 -2.9387  1.3970
 5233TIP3   OH215704   4.845   4.625   1.679  0.4646 -0.4021 -0.5111
 5233TIP3    H115705   4.791   4.693   1.639  1.2352 -0.1797 -1.2261
 5233TIP3    H215706   4.872   4.662   1.763 -2.3668 -1.4527  0.9962
 5234TIP3   OH215707   5.012   1.537   3.952  0.2189 -0.3551 -0.0357
 5234TIP3    H115708   4.978   1.509   4.037  0.0184 -1.7912 -0.5646
 5234TIP3    H215709   5.073   1.468   3.927 -0.8681 -0.7538 -1.7547
 5235TIP3   OH215710   2.009   0.644   3.323 -0.2341 -0.2529 -0.8193
 5235TIP3    H115711   1.984   0.581   3.255 -1.3811  0.4701 -1.1073
 5235TIP3    H215712   1.973   0.608   3.404  0.7486 -0.8904 -0.6422
 5236TIP3   OH215713   5.914   2.148   4.789  0.1259 -0.2775 -0.7810
 5236TIP3    H115714   5.869   2.224   4.751  0.1633 -0.2783 -0.8268
 5236TIP3    H215715   6.000   2.181   4.815 -0.4280  0.0940  0.6819
 5237TIP3   OH215716   4.941   4.756   4.266 -0.3755  0.2045 -0.0603
 5237TIP3    H115717   4.952   4.742   4.172  1.2442  2.5425 -0.2863
 5237TIP3    H215718   4.969   4.673   4.305  2.6011  0.3993 -1.5045
 5238TIP3   OH215719   4.261   1.855   1.823  0.7403  0.0803  0.6171
 5238TIP3    H115720   4.275   1.811   1.907  0.6922  2.1425  1.7775
 5238TIP3    H215721   4.295   1.943   1.836 -0.1650  0.7587 -1.2230
 5239TIP3   OH215722   1.887   0.252   3.841  0.1724 -0.0641  0.1782
 5239TIP3    H115723   1.971   0.253   3.887  0.7575  0.4605 -0.8695
 5239TIP3    H215724   1.857   0.161   3.849  0.9307 -0.3089  0.4096
 5240TIP3   OH215725   5.908   5.511   1.062 -0.1693 -0.4458 -0.1862
 5240TIP3    H115726   5.858   5.431   1.078 -0.9139 -0.0417 -0.4313
 5240TIP3    H215727   5.841   5.577   1.044  0.4967 -0.1929 -1.9064
 5241TIP3   OH215728   4.369   4.138   3.395  0.2414 -0.2461 -0.1420
 5241TIP3    H115729   4.412   4.188   3.325  2.5499 -2.7669 -0.6746
 5241TIP3    H215730   4.278   4.132   3.367  1.0795 -1.1912 -3.0244
 5242TIP3   OH215731   4.539   3.403   2.226  0.2476 -0.0824  0.0210
 5242TIP3    H115732   4.587   3.444   2.154  0.5960 -0.7097 -0.1101
 5242TIP3    H215733   4.606   3.358   2.278 -0.1196 -0.4422  0.1901
 5243TIP3   OH215734   1.748   5.886   0.407 -0.2686 -0.6224  0.4386
 5243TIP3    H115735   1.812   5.830   0.364  0.0422 -0.8986  1.2412
 5243TIP3    H215736   1.698   5.827   0.464  0.5335 -0.0214  1.8419
 5244TIP3   OH215737   1.721   4.406   1.972  0.3547  0.2925 -0.0070
 5244TIP3    H115738   1.807   4.447   1.971  0.2747  0.6363  2.3048
 5244TIP3    H215739   1.739   4.312   1.966  1.1032  0.2008  2.6438
 5245TIP3   OH215740   4.779   2.328   1.384  0.4182  0.5230  0.3232
 5245TIP3    H115741   4.742   2.396   1.327  0.5859  1.5827  1.4354
 5245TIP3    H215742   4.714   2.319   1.454  0.4500 -0.3996  0.2397
 5246TIP3   OH215743   5.670   5.591   4.146  0.3500 -0.0535 -0.7427
 5246TIP3    H115744   5.575   5.591   4.144  0.2008 -3.7532 -0.1307
 5246TIP3    H215745   5.694   5.678   4.179 -2.8059  0.7373 -0.2761
 5247TIP3   OH215746   4.786   1.796   1.544  0.1969 -0.3697  0.6474
 5247TIP3    H115747   4.805   1.741   1.468 -1.1124 -2.3954  1.6772
 5247TIP3    H215748   4.867   1.798   1.594  0.4203 -0.9140  0.3119
 5248TIP3   OH215749   3.794   3.510   2.232  0.0538  0.1753 -0.0471
 5248TIP3    H115750   3.746   3.543   2.157  0.6704  0.5542 -0.2824
 5248TIP3    H215751   3.820   3.588   2.281  1.8148  0.0997 -0.7951
 5249TIP3   OH215752   4.230   5.131   3.781  0.5939  0.0099 -0.2874
 5249TIP3    H115753   4.203   5.161   3.868 -0.2541  1.5448 -1.0340
 5249TIP3    H215754   4.220   5.036   3.785 -1.4604  0.2049  0.6653
 5250TIP3   OH215755   5.966   5.693   3.843  0.6865  0.2601  0.0421
 5250TIP3    H115756   5.934   5.639   3.771  0.1644 -3.0675  2.5535
 5250TIP3    H215757   5.887   5.718   3.891  1.2219 -0.4702  1.3325
 5251TIP3   OH215758   2.046   4.081   2.766  0.1547 -0.2582  0.2017
 5251TIP3    H115759   2.080   4.089   2.855 -0.0800 -0.3153  0.2983
 5251TIP3    H215760   2.109   4.128   2.712  1.4391 -1.9779  0.1133
 5252TIP3   OH215761   4.058   2.499   4.269 -0.3923  0.0395  0.5403
 5252TIP3    H115762   4.126   2.566   4.273  0.8668 -1.1826  0.5002
 5252TIP3    H215763   4.013   2.515   4.186 -0.4979  1.1651  0.8013
 5253TIP3   OH215764   2.152   1.914   1.263  0.0475  0.1310  0.3563
 5253TIP3    H115765   2.148   1.822   1.238  0.2415  0.6474 -1.7959
 5253TIP3    H215766   2.243   1.927   1.289  0.8901  0.3238 -2.3172
 5254TIP3   OH215767   1.949   4.783   1.196  0.2258  0.3484  0.0787
 5254TIP3    H115768   1.957   4.736   1.113 -0.8946 -0.0630  0.1829
 5254TIP3    H215769   1.906   4.865   1.174 -1.1962 -0.2775  0.3884
 5255TIP3   OH215770   6.164   0.484   0.050 -0.1801 -0.0871  0.0266
 5255TIP3    H115771   6.224   0.420   0.011  1.1780  1.1835 -0.0366
 5255TIP3    H215772   6.192   0.568   0.014 -0.1257  0.8954  2.2341
 5256TIP3   OH215773   4.318   1.773   4.344  0.0888  0.3893 -0.4530
 5256TIP3    H115774   4.364   1.799   4.264 -0.3620 -2.1051 -1.6127
 5256TIP3    H215775   4.242   1.832   4.348  1.2003  1.8930 -0.6953
 5257TIP3   OH215776   1.160   4.360   3.001  0.1304 -0.3812  0.3449
 5257TIP3    H115777   1.109   4.348   2.920 -1.0220  1.5045  0.7543
 5257TIP3    H215778   1.245   4.393   2.971 -0.7410  1.6156 -0.0851
 5258TIP3   OH215779   0.368   2.254   2.324 -0.2461 -0.1870  0.4469
 5258TIP3    H115780   0.312   2.186   2.361 -0.2534  0.6956  2.1347
 5258TIP3    H215781   0.308   2.309   2.273 -0.0378 -2.1260 -2.1204
 5259TIP3   OH215782   5.769   0.540   0.596 -0.3241 -0.4787  0.2762
 5259TIP3    H115783   5.810   0.454   0.589 -0.8356 -0.9507  2.3947
 5259TIP3    H215784   5.827   0.589   0.655  0.2556  0.8704 -1.3235
 5260TIP3   OH215785   6.216   2.123   2.328 -0.5192 -0.0840 -0.6101
 5260TIP3    H115786   6.199   2.062   2.400  0.8257  0.9697  0.6516
 5260TIP3    H215787   6.213   2.068   2.249  2.4301 -2.2487  0.5875
 5261TIP3   OH215788   2.739   5.955   3.461  0.6412  0.5190 -0.3250
 5261TIP3    H115789   2.780   6.009   3.529  0.3108  0.9450 -0.4581
 5261TIP3    H215790   2.813   5.916   3.414  0.8724 -0.2760  0.6551
 5262TIP3   OH215791   3.156   1.829   1.448  0.6658  0.3773 -0.4801
 5262TIP3    H115792   3.165   1.736   1.429  0.3872  0.2852 -0.1699
 5262TIP3    H215793   3.238   1.868   1.418  0.9864 -0.0381 -0.1467
 5263TIP3   OH215794   0.344   4.439   4.094 -0.3456 -0.0763 -0.2198
 5263TIP3    H115795   0.415   4.421   4.155  0.8733 -0.5914 -1.7279
 5263TIP3    H215796   0.318   4.352   4.062 -0.8051  0.2096 -0.6361
 5264TIP3   OH215797   0.254   1.820   1.576 -0.2358  0.2084  0.1430
 5264TIP3    H115798   0.315   1.840   1.646  1.7920  0.6368 -1.6351
 5264TIP3    H215799   0.255   1.725   1.569  1.1733  0.2499 -0.5987
 5265TIP3   OH215800   2.752   1.763   1.481 -0.3884 -0.1396 -0.4324
 5265TIP3    H115801   2.683   1.827   1.469  1.1987  1.4733 -1.4620
 5265TIP3    H215802   2.717   1.682   1.444 -2.4087  0.1139  0.8307
 5266TIP3   OH215803   0.945   2.743   0.236  0.6967  0.1807 -0.6003
 5266TIP3    H115804   1.021   2.785   0.276 -0.1050  2.9136 -1.6889
 5266TIP3    H215805   0.912   2.808   0.173 -0.8480 -2.0417 -2.2582
 5267TIP3   OH215806   2.780   4.409   2.265 -0.8394 -0.5448 -0.1795
 5267TIP3    H115807   2.811   4.478   2.206  0.6920 -0.1454  1.0103
 5267TIP3    H215808   2.775   4.452   2.350 -2.8728 -1.1461  0.0465
 5268TIP3   OH215809   3.238   3.568   4.399 -0.3276  0.2603  0.6808
 5268TIP3    H115810   3.253   3.575   4.304 -0.0997  0.7897  0.7559
 5268TIP3    H215811   3.146   3.541   4.406 -0.3930  0.3804  0.3156
 5269TIP3   OH215812   3.685   5.296   0.089 -0.0541  0.4112 -0.0218
 5269TIP3    H115813   3.682   5.225   0.024  0.2987  0.8793 -0.5519
 5269TIP3    H215814   3.773   5.291   0.126 -0.2147  0.2227  0.3405
 5270TIP3   OH215815   1.935   1.330   4.483  0.8754  0.4375  0.3112
 5270TIP3    H115816   1.952   1.297   4.394 -0.6654 -0.3403  0.2770
 5270TIP3    H215817   2.017   1.371   4.509  1.5378  0.1895 -1.2638
 5271TIP3   OH215818   5.919   5.341   2.592  0.1168 -0.1777 -0.3765
 5271TIP3    H115819   5.876   5.264   2.629  4.9766 -2.0378  2.2699
 5271TIP3    H215820   5.948   5.313   2.505  0.6247 -0.8552  0.0036
 5272TIP3   OH215821   2.664   0.634   1.419 -0.2371  0.3033 -0.2208
 5272TIP3    H115822   2.595   0.700   1.424 -0.0698  0.4284  0.4329
 5272TIP3    H215823   2.736   0.670   1.470 -0.5505 -0.8894  1.1091
 5273TIP3   OH215824   5.600   5.276   2.700 -0.3068 -0.0815 -0.0225
 5273TIP3    H115825   5.515   5.232   2.709 -0.5819  0.7137  1.6555
 5273TIP3    H215826   5.632   5.284   2.790  0.8969  0.8915 -0.5201
 5274TIP3   OH215827   5.052   5.797   5.170 -0.2992  0.5057 -0.4668
 5274TIP3    H115828   5.063   5.889   5.196 -0.1336  0.8023 -1.5276
 5274TIP3    H215829   4.959   5.779   5.183  0.0206  0.1473  1.7918
 5275TIP3   OH215830   5.653   5.265   0.854  0.2993 -0.0801  0.1147
 5275TIP3    H115831   5.606   5.343   0.883  0.2069 -0.1880  0.2567
 5275TIP3    H215832   5.722   5.254   0.919 -0.3051 -0.6964  0.6697
 5276TIP3   OH215833   0.326   0.296   4.079 -0.0758  0.4279  0.0720
 5276TIP3    H115834   0.290   0.343   4.154 -0.1624 -1.2453  1.1408
 5276TIP3    H215835   0.252   0.244   4.046  0.6304 -0.9544  0.5867
 5277TIP3   OH215836   0.666   4.963   0.532 -0.0186 -0.2381 -0.9462
 5277TIP3    H115837   0.731   4.912   0.581 -1.0303  1.6991  2.7685
 5277TIP3    H215838   0.702   5.051   0.528 -1.8889  0.6453  0.3265
 5278TIP3   OH215839   4.645   5.233   4.195  0.0602  0.0717 -0.6026
 5278TIP3    H115840   4.679   5.236   4.285  1.4897 -1.7910 -1.0154
 5278TIP3    H215841   4.559   5.192   4.203  0.5910 -0.9874 -0.1663
 5279TIP3   OH215842   1.098   5.530   0.184  0.4563 -0.3952  0.0492
 5279TIP3    H115843   1.060   5.443   0.195 -0.1044  0.0220  1.7040
 5279TIP3    H215844   1.188   5.521   0.216 -0.2580  0.0877  2.4423
 5280TIP3   OH215845   2.197   2.147   2.114 -0.5966  0.2933  0.5959
 5280TIP3    H115846   2.276   2.180   2.072 -0.1721 -1.8659 -0.4029
 5280TIP3    H215847   2.138   2.223   2.117  0.7750  1.4463 -0.4079
 5281TIP3   OH215848   3.206   5.597   3.313 -0.0604  0.1839 -0.2082
 5281TIP3    H115849   3.225   5.689   3.296 -1.0604  0.6551  1.0037
 5281TIP3    H215850   3.278   5.567   3.368  1.2771 -0.3392 -2.1384
 5282TIP3   OH215851   2.272   3.537   2.722  0.4315  0.2962  0.8673
 5282TIP3    H115852   2.237   3.622   2.697  1.4510  0.7640  0.9950
 5282TIP3    H215853   2.263   3.534   2.817  0.1615  0.1545  0.8374
 5283TIP3   OH215854   1.726   1.010   2.007 -0.3755  0.0363  1.0217
 5283TIP3    H115855   1.811   0.967   2.021 -0.9487 -0.7066  2.3249
 5283TIP3    H215856   1.695   1.031   2.094 -0.6948  2.0279  0.4649
 5284TIP3   OH215857   3.091   5.078   0.521  0.3249 -0.4708  0.2029
 5284TIP3    H115858   3.148   5.143   0.563  0.7144 -2.5820  3.2568
 5284TIP3    H215859   3.006   5.122   0.513  0.8836  0.8042  1.0526
 5285TIP3   OH215860   3.300   1.998   1.949 -0.5670  0.8869  0.3783
 5285TIP3    H115861   3.386   2.020   1.915 -0.8744  1.7299  0.1294
 5285TIP3    H215862   3.318   1.946   2.028  0.1547 -0.2238 -0.4729
 5286TIP3   OH215863   5.048   0.400   0.213  0.2146 -0.0117  0.5140
 5286TIP3    H115864   5.036   0.385   0.119 -0.4923  1.2439  0.3803
 5286TIP3    H215865   5.028   0.492   0.225  1.3848  0.1125  1.7373
 5287TIP3   OH215866   3.358   3.289   3.993 -0.0636  0.3958 -0.1499
 5287TIP3    H115867   3.382   3.358   4.054 -0.8571  0.0348  0.5859
 5287TIP3    H215868   3.293   3.329   3.935 -0.5529  0.2617  0.3019
 5288TIP3   OH215869   4.473   4.583   4.217  0.1167 -0.5240  0.6503
 5288TIP3    H115870   4.534   4.589   4.291 -0.7068  0.4400  1.2830
 5288TIP3    H215871   4.493   4.661   4.164  1.2567 -1.6269 -0.6214
 5289TIP3   OH215872   0.180   5.840   0.502  0.4504  0.2122 -0.5264
 5289TIP3    H115873   0.246   5.892   0.547  1.0840 -1.7909  0.9851
 5289TIP3    H215874   0.229   5.784   0.443 -0.1221  0.3416 -1.1477
 5290TIP3   OH215875   2.331   0.713   3.930 -0.8495 -0.2189  0.1348
 5290TIP3    H115876   2.378   0.796   3.933 -1.8422  0.4803 -2.0075
 5290TIP3    H215877   2.372   0.664   3.858 -1.0710 -1.0852  0.5777
 5291TIP3   OH215878   0.083   3.458   1.826  0.2091 -0.4151 -0.4540
 5291TIP3    H115879   0.042   3.500   1.902  0.1081 -2.2453  0.5770
 5291TIP3    H215880   0.019   3.393   1.797  1.4046 -1.7262 -0.2642
 5292TIP3   OH215881   1.954   1.584   2.841 -0.3021 -0.0090 -0.0897
 5292TIP3    H115882   1.937   1.507   2.788 -0.6428 -0.7609  1.0880
 5292TIP3    H215883   2.050   1.591   2.843 -0.2328 -0.9648  0.5725
 5293TIP3   OH215884   4.199   2.018   0.858  0.1896 -0.1715 -0.2823
 5293TIP3    H115885   4.198   1.937   0.806 -2.1579  0.6178 -1.5966
 5293TIP3    H215886   4.200   2.088   0.793 -3.4634  0.8676  0.5721
 5294TIP3   OH215887   5.395   1.705   0.681 -0.0090  0.2336  0.4341
 5294TIP3    H115888   5.321   1.760   0.704 -0.9438 -0.7758 -0.0375
 5294TIP3    H215889   5.450   1.704   0.759 -0.2002  1.4412  0.6005
 5295TIP3   OH215890   1.626   1.358   1.138  0.0737 -0.6515 -0.0345
 5295TIP3    H115891   1.688   1.287   1.120  0.2315 -0.6077  0.3306
 5295TIP3    H215892   1.599   1.344   1.228  1.8038  1.0339  0.8056
 5296TIP3   OH215893   3.569   4.232   4.751 -0.7171  0.1441 -0.6338
 5296TIP3    H115894   3.482   4.266   4.731 -1.0840  0.4465  1.2850
 5296TIP3    H215895   3.553   4.162   4.814  0.3444 -0.8695 -1.4413
 5297TIP3   OH215896   5.685   0.676   2.400  0.1522  0.4245 -0.2308
 5297TIP3    H115897   5.726   0.699   2.316  1.0775  0.4051  0.2046
 5297TIP3    H215898   5.693   0.756   2.452  2.0882 -0.3866  0.7937
 5298TIP3   OH215899   3.432   0.038   0.433  0.6800  0.3525  0.2827
 5298TIP3    H115900   3.437   0.071   0.343 -0.8070 -1.8185 -0.6812
 5298TIP3    H215901   3.451  -0.056   0.425 -2.4635 -0.5326  1.7225
 5299TIP3   OH215902   3.147   3.689   3.115 -0.5014 -0.0704 -0.5970
 5299TIP3    H115903   3.158   3.598   3.089 -1.5120 -0.0882 -0.9867
 5299TIP3    H215904   3.128   3.735   3.034  0.8774  0.6582 -0.5434
 5300TIP3   OH215905   5.303   1.350   2.477  0.1265 -0.4710  0.0368
 5300TIP3    H115906   5.210   1.327   2.471 -0.0046 -0.3459  1.3701
 5300TIP3    H215907   5.303   1.440   2.510  0.6960  0.4194 -2.2047
 5301TIP3   OH215908   0.029   1.283   3.980  0.1035 -0.2935  0.0957
 5301TIP3    H115909   0.114   1.254   4.011  0.3554 -0.5406 -0.7845
 5301TIP3    H215910   0.038   1.378   3.971 -0.8505  0.2282  3.3707
 5302TIP3   OH215911   5.337   1.056   4.236  0.2529  0.1087 -0.2780
 5302TIP3    H115912   5.260   1.025   4.188 -0.0335 -1.2407  0.9773
 5302TIP3    H215913   5.408   1.055   4.171 -0.7464  1.2727 -1.4200
 5303TIP3   OH215914   5.223   0.364   4.576 -0.1378  0.0178  0.2865
 5303TIP3    H115915   5.180   0.390   4.495  1.6992  1.1799 -0.3905
 5303TIP3    H215916   5.247   0.273   4.563  2.7620  0.9186 -1.8458
 5304TIP3   OH215917   0.170   4.790   0.800  0.2214 -0.3764  0.3018
 5304TIP3    H115918   0.220   4.870   0.815  0.4012 -0.3021 -0.5987
 5304TIP3    H215919   0.203   4.757   0.716 -2.5949  0.7395 -1.4070
 5305TIP3   OH215920   1.280   1.542   0.620  0.3381 -0.4511  0.6845
 5305TIP3    H115921   1.367   1.554   0.660  1.1698 -0.3944 -1.0478
 5305TIP3    H215922   1.258   1.628   0.584  0.3124 -0.8551 -0.2932
 5306TIP3   OH215923   6.011   0.127   1.489 -0.2052  0.0740 -0.5451
 5306TIP3    H115924   6.065   0.183   1.434  0.8795  0.2250  0.6331
 5306TIP3    H215925   5.982   0.184   1.560 -1.4321 -0.1635 -0.8386
 5307TIP3   OH215926   1.311   2.800   3.962  0.1786 -0.2750 -0.2346
 5307TIP3    H115927   1.300   2.863   3.891  0.9626 -0.2967 -0.3843
 5307TIP3    H215928   1.383   2.835   4.014 -0.2392 -0.3786  0.4225
 5308TIP3   OH215929   3.091   4.006   2.081 -0.5776  0.3188  0.0879
 5308TIP3    H115930   3.054   3.989   1.995  0.0083  0.7712 -0.2595
 5308TIP3    H215931   3.016   4.032   2.135 -0.5497  3.0297 -1.0633
 5309TIP3   OH215932   0.473   1.372   1.219 -0.0244  0.0011 -0.1202
 5309TIP3    H115933   0.405   1.315   1.256  0.8951 -0.4617  0.9458
 5309TIP3    H215934   0.433   1.459   1.218 -0.6390 -0.2584  0.5039
 5310TIP3   OH215935   3.931   4.851   0.962  0.1043 -0.0961 -0.0172
 5310TIP3    H115936   4.023   4.863   0.986  0.4337 -1.4552 -0.5203
 5310TIP3    H215937   3.931   4.844   0.867 -0.3255 -1.4528  0.0577
 5311TIP3   OH215938   2.429   5.006   4.954 -0.0071  0.1279 -0.0285
 5311TIP3    H115939   2.356   5.018   5.015 -0.4124  0.7454 -0.6198
 5311TIP3    H215940   2.460   5.095   4.937  1.3183 -0.1590  0.7191
 5312TIP3   OH215941   2.347   0.026   1.721 -0.2921 -0.6025  0.1526
 5312TIP3    H115942   2.291   0.049   1.647 -0.1866 -1.2630 -0.1372
 5312TIP3    H215943   2.436   0.035   1.688 -0.2455 -1.2902  0.0626
 5313TIP3   OH215944   2.949   2.158   1.029  0.2207 -0.2498 -0.5799
 5313TIP3    H115945   3.041   2.180   1.048 -0.0560 -0.6375  1.4253
 5313TIP3    H215946   2.935   2.075   1.073 -1.3129  0.1906 -0.1886
 5314TIP3   OH215947   1.302   4.298   4.448 -0.6464 -0.1894 -0.3788
 5314TIP3    H115948   1.313   4.256   4.533  0.3463 -0.4288 -0.6086
 5314TIP3    H215949   1.390   4.302   4.411 -0.9148  0.8480 -0.9617
 5315TIP3   OH215950   5.454   1.242   0.127  0.1920 -0.4093  0.4811
 5315TIP3    H115951   5.496   1.277   0.048  0.6692  1.0105  1.3283
 5315TIP3    H215952   5.381   1.301   0.143  1.4739  0.7519  2.3829
 5316TIP3   OH215953   4.229   4.290   0.955 -0.4933  0.0545 -0.3328
 5316TIP3    H115954   4.221   4.287   1.051 -0.8574 -1.3062 -0.3797
 5316TIP3    H215955   4.243   4.382   0.935  1.6272  0.1303  1.1785
 5317TIP3   OH215956   1.053   4.937   2.338 -0.1417 -0.2730  0.6790
 5317TIP3    H115957   1.047   5.031   2.323 -0.1681 -0.2081  1.0871
 5317TIP3    H215958   0.986   4.918   2.403 -0.0324 -0.5478  0.7145
 5318TIP3   OH215959   0.835   0.963   3.225  0.0217  0.5815 -0.2653
 5318TIP3    H115960   0.761   0.997   3.176 -0.1201  2.2479  1.0268
 5318TIP3    H215961   0.843   1.021   3.301  1.7466 -0.4246  0.3883
 5319TIP3   OH215962   2.596   5.252   0.511  0.4004  0.3312  0.3659
 5319TIP3    H115963   2.641   5.336   0.498  1.9719 -0.3657  1.0313
 5319TIP3    H215964   2.667   5.188   0.520 -0.7582 -0.9855  0.4645
 5320TIP3   OH215965   3.261   2.816   1.825 -0.1202  0.0333  0.4801
 5320TIP3    H115966   3.319   2.769   1.765  1.0989  0.9378  0.9076
 5320TIP3    H215967   3.191   2.848   1.770 -0.3921 -1.3129 -0.0080
 5321TIP3   OH215968   2.067   1.710   3.403  0.3796 -0.2701 -0.5886
 5321TIP3    H115969   2.079   1.669   3.317 -1.4161  0.0920 -1.0532
 5321TIP3    H215970   2.082   1.803   3.388  3.1115 -0.5152  0.1839
 5322TIP3   OH215971   2.254   0.038   2.283  0.8535 -0.0930 -0.0982
 5322TIP3    H115972   2.304   0.119   2.282  0.7932 -0.0448  0.5026
 5322TIP3    H215973   2.215   0.032   2.196 -0.0682  1.1066  0.2036
 5323TIP3   OH215974   2.146   3.224   5.175  0.0183  0.0688  0.5370
 5323TIP3    H115975   2.070   3.250   5.123  0.5385 -1.1134 -0.9141
 5323TIP3    H215976   2.110   3.187   5.255 -0.9120  0.2723  0.2189
 5324TIP3   OH215977   3.894   1.481   3.013 -0.1610  0.2405 -0.2001
 5324TIP3    H115978   3.872   1.525   2.931 -1.2839  0.2367  0.0855
 5324TIP3    H215979   3.904   1.389   2.988 -0.0671  0.3042 -0.4021
 5325TIP3   OH215980   4.368   0.664   5.111  0.0391  0.4326  0.1067
 5325TIP3    H115981   4.434   0.640   5.176  0.0341 -1.1879 -0.4503
 5325TIP3    H215982   4.408   0.735   5.061  0.4694  0.9661  1.1655
 5326TIP3   OH215983   3.717   3.581   1.248 -0.0168 -0.4399  0.0227
 5326TIP3    H115984   3.675   3.559   1.331  0.0740  0.6943  0.3776
 5326TIP3    H215985   3.811   3.575   1.266  0.0019 -0.4390 -0.0736
 5327TIP3   OH215986   5.378   3.503   4.736  0.3927 -0.0759 -0.0172
 5327TIP3    H115987   5.362   3.592   4.768  0.1366  0.9887 -2.7510
 5327TIP3    H215988   5.458   3.475   4.780  0.8034  1.7659  0.5082
 5328TIP3   OH215989   4.759   5.512   3.548  0.6102 -0.3758  0.6882
 5328TIP3    H115990   4.749   5.506   3.643  1.4162  0.2902  0.8265
 5328TIP3    H215991   4.822   5.582   3.535 -1.0205  0.9732 -0.4200
 5329TIP3   OH215992   6.260   3.555   2.027  0.2770  0.0459 -0.1743
 5329TIP3    H115993   6.174   3.526   1.996  0.6375  1.4850 -2.8935
 5329TIP3    H215994   6.241   3.627   2.088 -0.4626  0.0143 -0.3555
 5330TIP3   OH215995   5.333   5.279   4.890  0.2472 -0.7041 -0.1745
 5330TIP3    H115996   5.258   5.287   4.832  0.3708 -0.6003 -0.3197
 5330TIP3    H215997   5.323   5.350   4.953 -0.1482 -1.1136  0.2289
 5331TIP3   OH215998   5.897   2.975   2.159 -0.3896  0.1019 -0.1565
 5331TIP3    H115999   5.853   2.899   2.197  0.5622 -1.5540 -2.1857
 5331TIP3    H216000   5.987   2.969   2.189 -0.5445  1.1370  0.5998
 5332TIP3   OH216001   5.486   5.125   1.047  0.4606  0.2192  0.2085
 5332TIP3    H116002   5.557   5.157   0.992  0.2030 -1.3278 -1.0792
 5332TIP3    H216003   5.414   5.106   0.986 -0.9609  1.3818  1.4308
 5333TIP3   OH216004   1.482   2.028   0.662 -0.4808  0.2731 -0.1277
 5333TIP3    H116005   1.492   2.038   0.756 -1.1441 -0.6871  0.0609
 5333TIP3    H216006   1.550   1.966   0.636 -1.2111 -0.6064 -0.0198
 5334TIP3   OH216007   0.569   3.913   3.986 -0.2592  0.0753  0.6150
 5334TIP3    H116008   0.555   3.915   4.081 -0.6343  1.9740  0.5700
 5334TIP3    H216009   0.565   3.821   3.963  0.3002 -0.4762  2.5129
 5335TIP3   OH216010   2.523   1.955   4.720  0.3870  0.1866  0.2880
 5335TIP3    H116011   2.548   1.967   4.628  2.8618  1.0775  1.0122
 5335TIP3    H216012   2.603   1.925   4.763 -0.5151  0.5450  2.3247
 5336TIP3   OH216013   5.082   1.320   2.826  0.4251 -0.0556 -0.5010
 5336TIP3    H116014   5.048   1.375   2.755  0.7053  2.7423  1.3432
 5336TIP3    H216015   5.006   1.304   2.882  0.4448 -1.2025 -0.7928
 5337TIP3   OH216016   2.170   2.478   3.955 -0.3423 -0.4374  0.3548
 5337TIP3    H116017   2.222   2.487   4.035 -1.0911  0.0432  0.8009
 5337TIP3    H216018   2.233   2.485   3.884  0.0032  2.1339  0.8161
 5338TIP3   OH216019   1.704   4.302   5.212  0.1199 -0.3795  0.2059
 5338TIP3    H116020   1.786   4.297   5.162 -0.0612 -1.6416 -0.0046
 5338TIP3    H216021   1.649   4.234   5.173 -0.8138  0.0544  0.7422
 5339TIP3   OH216022   0.409   1.452   2.299  0.6100  0.3731 -0.1311
 5339TIP3    H116023   0.370   1.370   2.331  0.6776  0.0440 -0.8713
 5339TIP3    H216024   0.401   1.512   2.373 -2.3145  0.6813 -0.5960
 5340TIP3   OH216025   3.691   1.604   0.808  0.0717 -0.2923  0.3903
 5340TIP3    H116026   3.645   1.610   0.725 -0.3878 -0.0933  0.6566
 5340TIP3    H216027   3.771   1.555   0.788 -0.3837 -0.8821 -0.0224
 5341TIP3   OH216028   3.647   0.167   1.448 -0.2074 -0.3943  0.3204
 5341TIP3    H116029   3.690   0.204   1.525 -0.1438 -0.5343  0.3516
 5341TIP3    H216030   3.554   0.165   1.471 -0.5066  1.7720 -0.4845
 5342TIP3   OH216031   4.319   2.307   2.415  0.0319  0.5505  0.2641
 5342TIP3    H116032   4.242   2.268   2.373 -0.5223  0.5996  1.2064
 5342TIP3    H216033   4.393   2.267   2.370 -0.5340 -0.4512  0.1715
 5343TIP3   OH216034   3.530   3.170   2.477 -0.3475 -0.6794  0.0097
 5343TIP3    H116035   3.524   3.248   2.422 -0.1536 -0.9496 -0.4000
 5343TIP3    H216036   3.495   3.198   2.561  0.6730  0.1350  0.1806
 5344TIP3   OH216037   5.172   0.794   1.084  0.0908  0.1780  0.0962
 5344TIP3    H116038   5.095   0.818   1.033  0.1128 -0.3553 -0.1849
 5344TIP3    H216039   5.246   0.816   1.028  0.1911  1.4757  0.6840
 5345TIP3   OH216040   2.884   2.332   2.404 -0.2901  0.2701  0.3247
 5345TIP3    H116041   2.843   2.259   2.356 -0.9432  0.0733  1.1623
 5345TIP3    H216042   2.872   2.310   2.496  0.2377  1.0419  0.5865
 5346TIP3   OH216043   1.151   4.367   4.990 -0.1174 -0.6020 -0.1655
 5346TIP3    H116044   1.229   4.399   5.036  0.6409 -0.9412 -1.1603
 5346TIP3    H216045   1.186   4.330   4.908 -1.2087 -1.7581 -0.1379
 5347TIP3   OH216046   4.976   5.690   3.563  0.1963 -0.1629 -0.4059
 5347TIP3    H116047   5.070   5.685   3.546  0.4131  2.9804 -0.7294
 5347TIP3    H216048   4.969   5.740   3.644 -1.1964  0.3626 -0.8303
 5348TIP3   OH216049   4.568   2.431   0.532 -0.2092  0.3553 -0.9301
 5348TIP3    H116050   4.532   2.346   0.559 -0.6624  0.2259 -1.8937
 5348TIP3    H216051   4.578   2.479   0.613 -1.6473  0.0258 -0.5225
 5349TIP3   OH216052   1.889   3.087   2.380  0.5783 -0.1755  0.2331
 5349TIP3    H116053   1.954   3.026   2.414  0.5581 -0.1665  0.2876
 5349TIP3    H216054   1.805   3.044   2.397  0.6242 -0.8034 -1.0422
 5350TIP3   OH216055   2.792   5.672   4.495  0.2020  0.6172  0.3324
 5350TIP3    H116056   2.760   5.762   4.492  1.6006  1.1703 -3.2378
 5350TIP3    H216057   2.802   5.647   4.403  0.3453 -3.0613  1.1836
 5351TIP3   OH216058   2.673   4.072   0.608  0.0048  0.2042 -0.3208
 5351TIP3    H116059   2.613   4.086   0.535 -0.0437 -0.4416 -0.4053
 5351TIP3    H216060   2.690   3.978   0.608 -1.1909 -0.0602  1.4377
 5352TIP3   OH216061   2.521   5.430   2.453 -0.4837  0.0865 -0.2985
 5352TIP3    H116062   2.468   5.365   2.499  1.3996 -0.6008  1.0195
 5352TIP3    H216063   2.545   5.388   2.371 -2.6484  0.7587 -1.3527
 5353TIP3   OH216064   4.023   5.290   3.048  0.2372 -0.9994 -0.1571
 5353TIP3    H116065   4.098   5.296   3.108  0.5916 -1.2897 -0.5627
 5353TIP3    H216066   4.024   5.372   3.000  2.1482 -2.1337 -2.2884
 5354TIP3   OH216067   0.683   2.168   0.453 -0.5291 -0.0830  0.2655
 5354TIP3    H116068   0.681   2.077   0.422  0.3019  0.1435 -0.5150
 5354TIP3    H216069   0.747   2.168   0.524  1.8335  0.4187 -1.7182
 5355TIP3   OH216070   1.249   1.363   0.981  0.0838 -0.3336  0.1385
 5355TIP3    H116071   1.161   1.330   0.961  0.2942 -0.3278 -0.8719
 5355TIP3    H216072   1.260   1.347   1.074 -0.9238 -0.4946  0.2418
 5356TIP3   OH216073   1.285   1.319   1.274 -0.4772 -0.1845 -0.3999
 5356TIP3    H116074   1.236   1.260   1.332 -0.3938  0.2745  0.1414
 5356TIP3    H216075   1.375   1.315   1.307 -0.0446 -1.3227 -1.6278
 5357TIP3   OH216076   4.768   5.501   3.828  0.3015  0.1557  0.3382
 5357TIP3    H116077   4.803   5.460   3.907  1.3204 -0.8910 -0.6155
 5357TIP3    H216078   4.701   5.561   3.860 -0.5395 -1.5013  1.8803
 5358TIP3   OH216079   0.828   1.444   1.171 -0.1429 -0.5870  0.0965
 5358TIP3    H116080   0.913   1.480   1.197  0.4038 -1.1536 -0.8024
 5358TIP3    H216081   0.781   1.429   1.253  0.5535 -0.0827  0.5970
 5359TIP3   OH216082   6.211   4.019   4.064 -0.7024  0.2557  0.8067
 5359TIP3    H116083   6.128   3.976   4.046 -0.2573 -0.5227  0.5238
 5359TIP3    H216084   6.269   3.948   4.091  0.1675  0.6062 -0.0592
 5360TIP3   OH216085   0.981   1.305   0.984 -0.2800  0.5361 -0.0759
 5360TIP3    H116086   0.930   1.363   1.042 -2.0568  0.5521 -1.5671
 5360TIP3    H216087   0.945   1.321   0.897  1.6853 -0.1831 -1.0745
 5361TIP3   OH216088   0.087   4.557   2.231  0.0218 -0.4228  0.2447
 5361TIP3    H116089   0.111   4.642   2.194  0.5234 -0.7798 -0.2613
 5361TIP3    H216090   0.123   4.558   2.319  0.0985 -0.1434  0.2114
 5362TIP3   OH216091   1.034   1.943   1.319 -0.4411 -0.4022 -0.2519
 5362TIP3    H116092   0.947   1.945   1.359 -0.0321 -0.5899  0.6794
 5362TIP3    H216093   1.065   2.034   1.325 -0.5745 -0.3343 -0.5887
 5363TIP3   OH216094   5.220   1.337   0.784 -0.9262  0.1130  0.3926
 5363TIP3    H116095   5.206   1.265   0.845 -0.0931  0.1200  0.5987
 5363TIP3    H216096   5.164   1.407   0.816  0.4582  0.5799  1.9399
 5364TIP3   OH216097   0.280   0.708   3.971 -0.2147 -0.1735  0.0920
 5364TIP3    H116098   0.353   0.669   4.019  0.0635  0.3508  0.1028
 5364TIP3    H216099   0.224   0.634   3.948  0.5836 -0.6405 -0.3734
 5365TIP3   OH216100   0.362   2.471   2.903 -0.3286  0.2417  0.0277
 5365TIP3    H116101   0.315   2.399   2.947 -1.7975  0.5799 -0.9071
 5365TIP3    H216102   0.441   2.483   2.955 -2.1712  0.9313  2.9115
 5366TIP3   OH216103   1.644   1.373   0.574  0.3069 -0.2605 -0.1255
 5366TIP3    H116104   1.672   1.411   0.658  0.4925  0.2098 -0.3965
 5366TIP3    H216105   1.713   1.399   0.513 -0.9540  1.3675 -0.9212
 5367TIP3   OH216106   6.251   0.058   3.001 -0.5149  0.4477  0.0796
 5367TIP3    H116107   6.260   0.039   2.907 -0.7548  0.2895  0.0870
 5367TIP3    H216108   6.188   0.130   3.005 -2.1809 -0.9633  0.2263
 5368TIP3   OH216109   6.236   4.372   4.495 -0.7307  0.1453 -0.0696
 5368TIP3    H116110   6.229   4.328   4.410 -0.2711  0.5728 -0.3296
 5368TIP3    H216111   6.270   4.305   4.554  1.6120  0.5919 -0.8341
 5369TIP3   OH216112   6.277   2.365   0.579  0.7611  0.3484 -0.2623
 5369TIP3    H116113   6.361   2.390   0.617  0.8682  1.2597 -1.0684
 5369TIP3    H216114   6.258   2.279   0.618  2.9181 -0.7269 -1.3812
 5370TIP3   OH216115   0.889   2.662   2.701  0.2314 -0.0065 -0.1329
 5370TIP3    H116116   0.948   2.611   2.756 -1.0179 -1.0021  0.3220
 5370TIP3    H216117   0.829   2.704   2.762 -1.3291 -1.3205 -0.7027
 5371TIP3   OH216118   1.155   2.254   2.568  0.3016 -0.1454  0.5377
 5371TIP3    H116119   1.242   2.222   2.591 -0.0672 -2.6808 -1.1281
 5371TIP3    H216120   1.097   2.217   2.634  0.2806  0.2565  0.7517
 5372TIP3   OH216121   0.070   3.389   1.111 -0.0318  0.7088  0.2126
 5372TIP3    H116122   0.031   3.476   1.120 -0.4811  0.7370 -1.6945
 5372TIP3    H216123   0.049   3.362   1.022 -0.6144 -1.7256  1.0189
 5373TIP3   OH216124   0.995   4.702   3.413  0.2934  0.7367 -0.0065
 5373TIP3    H116125   1.026   4.685   3.324  1.1692  2.3053 -0.0432
 5373TIP3    H216126   1.049   4.775   3.444 -1.1434  1.3593  1.1761
 5374TIP3   OH216127   3.438   1.904   2.772 -0.1344 -0.1802 -0.3383
 5374TIP3    H116128   3.507   1.866   2.718 -0.6564  0.5474 -1.5679
 5374TIP3    H216129   3.391   1.829   2.808 -0.1483 -0.6880 -1.3921
 5375TIP3   OH216130   0.720   4.339   4.488 -0.5726  0.3260  0.0297
 5375TIP3    H116131   0.784   4.365   4.421  1.9233 -0.3513  2.0044
 5375TIP3    H216132   0.636   4.339   4.442  0.5628  2.7944 -2.3266
 5376TIP3   OH216133   1.422   2.690   3.493  0.4817  0.1231  0.8005
 5376TIP3    H116134   1.415   2.614   3.551 -0.1581  0.7869  1.6195
 5376TIP3    H216135   1.472   2.754   3.543 -0.7820  1.0074  0.9809
 5377TIP3   OH216136   3.817   2.395   5.054  0.0131  0.1980  0.1701
 5377TIP3    H116137   3.882   2.452   5.014  0.0185 -0.6942 -1.1380
 5377TIP3    H216138   3.813   2.425   5.145  2.0771  0.4175  0.2435
 5378TIP3   OH216139   3.601   1.670   1.484  0.1497 -0.3044 -1.1105
 5378TIP3    H116140   3.679   1.719   1.459 -0.3765  0.5775 -1.0455
 5378TIP3    H216141   3.626   1.578   1.471  1.5905 -0.1092  0.0151
 5379TIP3   OH216142   3.237   0.234   0.562  0.2242 -0.2916  0.3622
 5379TIP3    H116143   3.300   0.302   0.537 -0.4443  0.4095  0.5437
 5379TIP3    H216144   3.266   0.156   0.515  1.6611 -0.1848  1.0217
 5380TIP3   OH216145   0.891   5.818   1.158  0.2504  0.5588  0.0840
 5380TIP3    H116146   0.828   5.828   1.230 -0.6617  3.4602 -0.9999
 5380TIP3    H216147   0.837   5.812   1.079  1.2901  0.8730 -0.6733
 5381TIP3   OH216148   0.382   4.685   1.540  0.4342 -0.0817  0.0595
 5381TIP3    H116149   0.412   4.774   1.558 -1.2234  0.1525  1.9782
 5381TIP3    H216150   0.322   4.695   1.466 -0.4373  0.5826  0.8237
 5382TIP3   OH216151   4.094   0.056   4.412 -0.5302 -0.3862 -0.1584
 5382TIP3    H116152   4.007   0.019   4.422 -0.3428 -1.1671 -1.2211
 5382TIP3    H216153   4.079   0.146   4.382 -0.9714 -0.5107 -0.3116
 5383TIP3   OH216154   6.300   5.490   3.208  0.6402  0.0856  0.2026
 5383TIP3    H116155   6.321   5.462   3.119 -1.7777 -2.3205  0.2815
 5383TIP3    H216156   6.264   5.578   3.197  2.1435  0.6136 -0.9017
 5384TIP3   OH216157   5.325   3.133   1.421 -0.2003 -0.1076  0.0193
 5384TIP3    H116158   5.288   3.076   1.354 -1.2675  1.5844 -0.9090
 5384TIP3    H216159   5.257   3.136   1.489 -0.6712  0.9281 -0.4742
 5385TIP3   OH216160   5.199   2.974   2.184  0.3596  0.0540 -0.2792
 5385TIP3    H116161   5.150   3.024   2.119 -0.2881 -1.1402 -0.7372
 5385TIP3    H216162   5.180   2.883   2.164  0.7242 -0.3639  1.1358
 5386TIP3   OH216163   0.117   4.884   3.172 -0.1927  0.7138 -0.2227
 5386TIP3    H116164   0.200   4.847   3.141 -0.3543 -1.0791  1.3170
 5386TIP3    H216165   0.052   4.849   3.112 -0.3008 -1.4271  1.0162
 5387TIP3   OH216166   5.776   1.073   2.326 -0.2184 -0.3235  0.5142
 5387TIP3    H116167   5.818   1.147   2.370 -0.1414  0.0224 -0.1215
 5387TIP3    H216168   5.724   1.031   2.394 -1.6503  1.3360  0.5101
 5388TIP3   OH216169   0.636   3.694   3.115 -0.7470 -0.7483  0.2822
 5388TIP3    H116170   0.666   3.630   3.181  0.2540  0.1613  0.7537
 5388TIP3    H216171   0.579   3.644   3.057  2.0607 -2.8048 -0.9719
 5389TIP3   OH216172   4.802   0.160   3.838  0.0264 -0.3399  0.6087
 5389TIP3    H116173   4.822   0.204   3.921 -3.0242  2.4327  0.0915
 5389TIP3    H216174   4.737   0.094   3.861 -0.5502  0.1818  0.4841
 5390TIP3   OH216175   3.184   1.284   2.641 -0.7366 -0.0132  0.8167
 5390TIP3    H116176   3.271   1.258   2.671  0.3733  1.8254 -0.5733
 5390TIP3    H216177   3.149   1.207   2.597 -0.1763 -1.0319  2.1133
 5391TIP3   OH216178   5.378   1.544   1.280  0.3634  0.3495 -0.4363
 5391TIP3    H116179   5.286   1.517   1.287  0.0180  1.1548 -1.5603
 5391TIP3    H216180   5.387   1.615   1.343  0.0097  0.7382 -0.8113
 5392TIP3   OH216181   3.837   3.161   3.642  0.1749  0.5893 -0.2678
 5392TIP3    H116182   3.793   3.096   3.587  0.1339  0.1268  0.3040
 5392TIP3    H216183   3.780   3.238   3.637 -0.4923  0.1312  0.1355
 5393TIP3   OH216184   2.141   4.619   0.376 -0.2291 -0.2611 -0.3825
 5393TIP3    H116185   2.202   4.558   0.418 -0.0805  0.2679  0.1758
 5393TIP3    H216186   2.105   4.671   0.448 -0.4730  0.2101 -0.8360
 5394TIP3   OH216187   4.349   2.617   3.086 -0.2092 -0.0872  0.2233
 5394TIP3    H116188   4.351   2.543   3.025 -1.3860 -0.2207  0.3154
 5394TIP3    H216189   4.418   2.597   3.150 -0.8754 -1.4196  0.5805
 5395TIP3   OH216190   3.425   0.645   1.753 -0.0817 -0.8296 -0.3925
 5395TIP3    H116191   3.477   0.567   1.735 -1.0673 -1.8362  0.8385
 5395TIP3    H216192   3.437   0.660   1.847 -1.3220 -0.5883 -0.2559
 5396TIP3   OH216193   1.881   5.730   3.884 -0.1148  0.6569  0.7068
 5396TIP3    H116194   1.872   5.813   3.930  0.2310  0.7128  0.6748
 5396TIP3    H216195   1.792   5.697   3.877 -0.2651  1.0678  0.6410
 5397TIP3   OH216196   0.964   4.252   0.408  0.1411  0.0395 -0.0065
 5397TIP3    H116197   1.045   4.248   0.357  0.6197 -3.3062  0.7364
 5397TIP3    H216198   0.895   4.251   0.342  0.7464 -0.5649 -0.6683
 5398TIP3   OH216199   3.564   5.785   5.066 -0.0769 -0.2687  0.1791
 5398TIP3    H116200   3.585   5.874   5.092  1.2319 -0.0361 -1.4395
 5398TIP3    H216201   3.470   5.786   5.047 -0.1536  0.6456  0.5779
 5399TIP3   OH216202   5.849   5.361   0.148  0.9050  0.4845  0.2284
 5399TIP3    H116203   5.871   5.429   0.212  0.1174 -1.1695  2.3842
 5399TIP3    H216204   5.753   5.357   0.150  0.9390 -0.7151  0.2011
 5400TIP3   OH216205   3.751   3.756   1.650  0.6500  0.1624  0.7342
 5400TIP3    H116206   3.708   3.675   1.621  0.9528 -0.3996  1.7954
 5400TIP3    H216207   3.750   3.813   1.573 -0.8493 -0.3067  0.3746
 5401TIP3   OH216208   5.586   4.830   3.153  0.2563  0.2117  0.0960
 5401TIP3    H116209   5.625   4.833   3.240  0.5140  1.9879 -0.0383
 5401TIP3    H216210   5.596   4.739   3.124  3.0681  0.2849  0.6222
 5402TIP3   OH216211   2.258   2.076   1.749  0.2185  0.8370  0.6601
 5402TIP3    H116212   2.232   2.153   1.799 -0.7218  0.5279  0.6679
 5402TIP3    H216213   2.261   2.106   1.658 -1.2696  0.6248  0.5220
 5403TIP3   OH216214   5.413   3.867   3.030  0.3567 -0.4592 -0.3018
 5403TIP3    H116215   5.364   3.889   3.109  0.1336 -0.0082 -0.5599
 5403TIP3    H216216   5.436   3.775   3.041 -0.4555 -0.6514 -0.1332
 5404TIP3   OH216217   0.750   3.637   2.824 -0.1518 -1.0114  0.2192
 5404TIP3    H116218   0.682   3.634   2.891 -0.4800  1.0738  0.0666
 5404TIP3    H216219   0.702   3.630   2.741 -0.0510 -0.8160  0.1432
 5405TIP3   OH216220   1.679   4.410   4.796  0.8836  0.1477 -0.1003
 5405TIP3    H116221   1.602   4.357   4.818  1.4851 -0.3591  0.8644
 5405TIP3    H216222   1.643   4.496   4.775  0.0594 -0.0341  0.5147
 5406TIP3   OH216223   4.531   1.197   3.228 -0.3005  0.4234  0.2454
 5406TIP3    H116224   4.494   1.119   3.268 -1.0349  0.4138 -0.4136
 5406TIP3    H216225   4.558   1.169   3.140 -0.4715  0.8772  0.0410
 5407TIP3   OH216226   4.631   0.409   3.478 -0.1641 -0.1500 -0.2598
 5407TIP3    H116227   4.584   0.492   3.479  1.1542  0.6251  0.0424
 5407TIP3    H216228   4.723   0.434   3.476  0.2767 -1.6111 -3.2149
 5408TIP3   OH216229   3.575   3.586   4.115  0.5336  0.5398 -1.1817
 5408TIP3    H116230   3.588   3.523   4.186 -1.7506  2.8278  1.4763
 5408TIP3    H216231   3.649   3.646   4.123 -0.0723  1.1812 -0.2338
 5409TIP3   OH216232   3.150   1.136   3.576 -0.2511  0.0689 -0.2034
 5409TIP3    H116233   3.218   1.083   3.537 -0.8517  0.1822 -1.4343
 5409TIP3    H216234   3.187   1.164   3.660  1.0546 -0.1905 -0.6706
 5410TIP3   OH216235   0.831   4.847   4.737 -0.0454 -0.0693 -0.2911
 5410TIP3    H116236   0.816   4.814   4.825  0.7062 -0.5859 -0.3544
 5410TIP3    H216237   0.787   4.933   4.736 -1.1822 -0.6260  0.1633
 5411TIP3   OH216238   3.472   5.708   3.280 -0.7181 -0.1016 -0.4632
 5411TIP3    H116239   3.409   5.755   3.227 -1.6349  0.0992  0.7633
 5411TIP3    H216240   3.464   5.617   3.252  1.5362  0.4349 -3.3135
 5412TIP3   OH216241   2.143   1.943   3.270  0.1682  0.3359 -0.0857
 5412TIP3    H116242   2.147   1.950   3.175 -3.3920  0.6130 -0.3626
 5412TIP3    H216243   2.154   2.033   3.301  0.2436  0.4063 -0.3147
 5413TIP3   OH216244   5.036   5.291   3.561  0.5283  0.1369 -0.6678
 5413TIP3    H116245   5.064   5.203   3.584  0.7149  0.4717  0.4159
 5413TIP3    H216246   4.961   5.309   3.617  1.3714  1.1929  0.1854
 5414TIP3   OH216247   5.613   0.944   0.755  0.0291  0.1504 -0.5954
 5414TIP3    H116248   5.612   1.030   0.715  1.3162  0.3646 -0.2233
 5414TIP3    H216249   5.705   0.917   0.751  0.0541 -0.2245  1.3052
 5415TIP3   OH216250   5.974   4.744   1.885  0.4727 -0.0526 -0.2320
 5415TIP3    H116251   6.053   4.692   1.900  1.3204  0.9923 -0.9193
 5415TIP3    H216252   5.953   4.730   1.793  0.9490  1.1132 -0.5336
 5416TIP3   OH216253   2.148   2.832   3.867 -0.1578 -0.0648  0.0845
 5416TIP3    H116254   2.105   2.871   3.791  1.6430  0.5955 -0.6636
 5416TIP3    H216255   2.105   2.747   3.878 -1.0403  0.1959 -1.1314
 5417TIP3   OH216256   4.288   0.799   2.726 -0.3431 -0.7214  0.5800
 5417TIP3    H116257   4.201   0.810   2.764 -0.5992 -0.9655  0.0764
 5417TIP3    H216258   4.334   0.881   2.745 -0.7057 -0.5677  0.7851
 5418TIP3   OH216259   1.564   5.143   1.281  0.5419 -0.1583  0.0218
 5418TIP3    H116260   1.576   5.056   1.244  1.8693  0.1713 -0.3635
 5418TIP3    H216261   1.627   5.148   1.353 -1.8347 -0.7054  2.2789
 5419TIP3   OH216262   0.992   1.073   4.887 -0.3523  0.1859 -0.1659
 5419TIP3    H116263   0.922   1.134   4.863  1.7580  3.1715  0.6241
 5419TIP3    H216264   1.006   1.020   4.809 -1.6416  1.3999 -1.2652
 5420TIP3   OH216265   4.195   1.066   3.447 -0.4017  0.0385  0.0328
 5420TIP3    H116266   4.131   1.093   3.382  1.0613  0.4860 -1.2888
 5420TIP3    H216267   4.267   1.029   3.396  0.0230 -1.2927  1.5102
 5421TIP3   OH216268   5.276   1.394   4.782  0.2030 -0.4763 -0.0168
 5421TIP3    H116269   5.263   1.366   4.691  1.1021  2.9957 -1.3793
 5421TIP3    H216270   5.370   1.412   4.788  0.0062  0.2370  1.2780
 5422TIP3   OH216271   1.170   3.506   2.631 -0.9636 -0.4018 -0.2151
 5422TIP3    H116272   1.148   3.566   2.559  0.0769  0.3561  0.0783
 5422TIP3    H216273   1.140   3.551   2.710 -0.6042 -0.4721 -0.0344
 5423TIP3   OH216274   3.776   3.013   3.942 -0.2410  0.3438  0.0378
 5423TIP3    H116275   3.722   3.084   3.907 -0.9524  0.5860  1.5544
 5423TIP3    H216276   3.772   3.025   4.037  1.7171 -0.2153  0.2306
 5424TIP3   OH216277   4.121   4.821   1.916 -0.1019 -0.6531  0.2356
 5424TIP3    H116278   4.170   4.888   1.965 -1.5245 -0.5696  1.6319
 5424TIP3    H216279   4.029   4.838   1.937 -0.7565 -0.9972 -2.0679
 5425TIP3   OH216280   3.230   1.269   3.792  0.9856 -0.1918  0.4357
 5425TIP3    H116281   3.195   1.291   3.879  0.3026  0.1619  0.0836
 5425TIP3    H216282   3.314   1.314   3.788  0.9427 -0.0670  0.8537
 5426TIP3   OH216283   2.052   5.955   2.786  0.0122  0.5540 -0.0996
 5426TIP3    H116284   2.052   6.016   2.859  0.4980 -0.0416  0.4105
 5426TIP3    H216285   1.961   5.950   2.758 -0.3768 -0.0419  1.1860
 5427TIP3   OH216286   1.833   4.296   2.468 -0.3145 -0.1622  0.5540
 5427TIP3    H116287   1.902   4.230   2.465 -0.5785 -0.4204 -0.0821
 5427TIP3    H216288   1.807   4.301   2.560  0.9556  0.3673  0.9024
 5428TIP3   OH216289   6.004   4.296   0.181 -0.7168  0.6587  0.1741
 5428TIP3    H116290   6.021   4.339   0.265 -2.3946 -1.1551  1.5434
 5428TIP3    H216291   6.053   4.215   0.185 -0.0967  0.9606 -1.0159
 5429TIP3   OH216292   6.279   0.635   4.961 -0.0809  0.4144  0.1057
 5429TIP3    H116293   6.202   0.685   4.988 -0.5441 -0.4535  0.4639
 5429TIP3    H216294   6.242   0.560   4.913  0.6000  0.5486 -0.6397
 5430TIP3   OH216295   0.556   1.095   2.843  0.3361  0.3435 -0.1417
 5430TIP3    H116296   0.550   1.046   2.761 -0.2912 -0.2442  0.2376
 5430TIP3    H216297   0.583   1.029   2.908  0.6631  0.7651  0.1575
 5431TIP3   OH216298   3.432   3.940   4.106  0.7126 -0.3632  0.4233
 5431TIP3    H116299   3.477   3.922   4.189 -0.7943  1.9260  1.8776
 5431TIP3    H216300   3.486   4.007   4.064  0.4670 -0.1026  0.5176
 5432TIP3   OH216301   2.573   1.208   3.400  0.0279 -0.3967  0.1172
 5432TIP3    H116302   2.630   1.277   3.433 -0.3783 -0.3205  0.6758
 5432TIP3    H216303   2.507   1.254   3.348 -0.2087 -0.3681  0.4412
 5433TIP3   OH216304   0.914   1.833   1.798 -0.0815  0.5033 -0.6779
 5433TIP3    H116305   0.913   1.739   1.778  0.8598  0.5581 -1.0234
 5433TIP3    H216306   0.878   1.839   1.886 -0.8544 -0.1016 -0.9369
 5434TIP3   OH216307   2.018   0.637   4.607  0.0298 -0.3483 -0.0275
 5434TIP3    H116308   1.999   0.702   4.539  1.4589 -0.3541 -0.4591
 5434TIP3    H216309   2.067   0.685   4.673 -1.1355 -0.4034  0.8995
 5435TIP3   OH216310   1.594   2.670   2.866 -0.3672  0.1242  0.0149
 5435TIP3    H116311   1.641   2.671   2.950  0.9147  0.2249 -0.6893
 5435TIP3    H216312   1.643   2.609   2.812 -0.6314  0.7759 -0.9790
 5436TIP3   OH216313   2.418   1.023   4.518  0.1239 -0.3811  0.4371
 5436TIP3    H116314   2.328   1.016   4.549  0.0541 -2.5297 -0.0687
 5436TIP3    H216315   2.412   1.071   4.436 -0.1243  2.2046  1.8867
 5437TIP3   OH216316   3.049   3.020   4.141 -0.0987  0.7748 -0.4980
 5437TIP3    H116317   3.076   2.967   4.066 -0.5889 -2.1215  1.2140
 5437TIP3    H216318   3.075   3.109   4.118  2.4051 -0.4146 -2.8611
 5438TIP3   OH216319   5.868   0.355   3.997  0.6413  0.1822  0.2533
 5438TIP3    H116320   5.887   0.298   3.923  0.6363 -0.8925  1.0634
 5438TIP3    H216321   5.943   0.346   4.055  0.6272  0.9893  0.4173
 5439TIP3   OH216322   0.943   3.985   0.469  0.3761 -0.2159 -0.1859
 5439TIP3    H116323   1.034   3.960   0.457  0.8448  1.2903  0.0333
 5439TIP3    H216324   0.938   4.075   0.435 -1.8625 -1.4569 -3.7971
 5440TIP3   OH216325   1.123   4.086   4.415  0.2511 -0.4071 -0.0240
 5440TIP3    H116326   1.070   4.039   4.351 -0.9046 -0.8437  1.1866
 5440TIP3    H216327   1.151   4.166   4.370 -1.8650  0.0831 -0.5864
 5441TIP3   OH216328   3.191   0.066   3.023 -0.3353 -0.3784  0.1094
 5441TIP3    H116329   3.101   0.068   3.058 -0.2201  1.4601  0.3881
 5441TIP3    H216330   3.193   0.136   2.958  0.2838 -1.8904 -1.5787
 5442TIP3   OH216331   6.381   0.006   1.986 -0.5854  0.5349 -0.1459
 5442TIP3    H116332   6.349  -0.026   1.902  0.2591  0.1198 -0.3177
 5442TIP3    H216333   6.318   0.073   2.012 -0.8139  0.7120 -1.1403
 5443TIP3   OH216334   6.080   0.436   1.044 -0.4805 -0.0408  0.6410
 5443TIP3    H116335   5.998   0.486   1.039 -0.7372 -0.4662  0.5809
 5443TIP3    H216336   6.058   0.359   1.096 -0.0230  0.0189  0.9301
 5444TIP3   OH216337   1.532   0.133   1.415  0.2468  0.6852 -0.4748
 5444TIP3    H116338   1.532   0.200   1.484 -1.2429  1.1680 -0.9193
 5444TIP3    H216339   1.467   0.069   1.444 -0.4255  0.9192 -1.4412
 5445TIP3   OH216340   4.218   2.483   0.644  0.1617 -0.1222  0.4803
 5445TIP3    H116341   4.227   2.483   0.548 -1.0569  0.4363  0.3381
 5445TIP3    H216342   4.160   2.409   0.663  0.0789  0.0066  0.7384
 5446TIP3   OH216343   0.107   0.284   2.751 -0.2819 -0.1139 -0.0863
 5446TIP3    H116344   0.198   0.260   2.735 -0.4443 -0.0872 -1.0926
 5446TIP3    H216345   0.101   0.291   2.846  0.8405  0.2026 -0.0255
 5447TIP3   OH216346   2.987   3.188   3.835 -0.3263  0.3863  0.0076
 5447TIP3    H116347   2.934   3.263   3.807 -0.1596 -0.0722 -1.6803
 5447TIP3    H216348   2.932   3.112   3.814  0.0311 -0.0123  0.5030
 5448TIP3   OH216349   1.496   4.502   4.224 -0.0868  0.2036  0.1748
 5448TIP3    H116350   1.559   4.525   4.156  0.7631 -3.3801 -0.4636
 5448TIP3    H216351   1.423   4.461   4.178  0.1384 -1.5772  1.3107
 5449TIP3   OH216352   4.830   5.073   1.468  0.4302 -0.4698  0.0927
 5449TIP3    H116353   4.903   5.134   1.466  0.3672 -0.3999 -0.0963
 5449TIP3    H216354   4.840   5.021   1.388 -0.3547  0.2722 -0.4952
 5450TIP3   OH216355   0.991   1.270   1.725 -0.7171  0.4691 -0.5487
 5450TIP3    H116356   0.998   1.364   1.739 -1.1608  0.6290 -1.3660
 5450TIP3    H216357   1.072   1.247   1.680 -0.6097  0.4580 -0.3512
 5451TIP3   OH216358   3.790   2.720   1.281  0.1426 -0.3673  0.3146
 5451TIP3    H116359   3.861   2.660   1.256  1.0185  1.1083 -0.8878
 5451TIP3    H216360   3.828   2.808   1.271 -2.0625  0.5129 -1.0418
 5452TIP3   OH216361   0.699   3.910   0.543  0.2048  0.1150 -0.1060
 5452TIP3    H116362   0.677   3.864   0.462  2.2861  0.2125 -0.7733
 5452TIP3    H216363   0.791   3.935   0.533 -0.1056  2.0814  1.3765
 5453TIP3   OH216364   1.226   3.796   5.118  0.8328 -0.0384  0.1016
 5453TIP3    H116365   1.156   3.736   5.143  1.6662 -1.3980 -0.7347
 5453TIP3    H216366   1.306   3.757   5.152  1.6474 -0.5066 -2.1715
 5454TIP3   OH216367   4.304   4.050   2.890  0.0260  0.0898 -0.3943
 5454TIP3    H116368   4.231   4.112   2.896 -0.7062 -0.8115  0.3690
 5454TIP3    H216369   4.296   4.012   2.803  0.1472  0.6610 -0.6577
 5455TIP3   OH216370   5.132   2.846   0.679  0.4343 -0.7747 -0.2127
 5455TIP3    H116371   5.085   2.900   0.616 -1.9727 -0.6025  1.6085
 5455TIP3    H216372   5.174   2.909   0.737  0.3216 -0.9067  0.0116
 5456TIP3   OH216373   4.437   1.417   3.891  0.0849  0.2184 -0.5307
 5456TIP3    H116374   4.418   1.502   3.852 -0.0793  0.6260  0.4232
 5456TIP3    H216375   4.358   1.394   3.939  0.1156 -0.4993 -0.7971
 5457TIP3   OH216376   1.448   5.212   3.278 -0.3032  0.0946 -0.6033
 5457TIP3    H116377   1.438   5.126   3.319  1.2182  0.0796 -0.1939
 5457TIP3    H216378   1.385   5.212   3.206 -1.0934 -0.9332  0.0565
 5458TIP3   OH216379   0.942   0.733   1.366 -0.3333  0.0479  0.2860
 5458TIP3    H116380   0.902   0.664   1.419 -1.2688  0.0797 -0.3560
 5458TIP3    H216381   0.868   0.779   1.327  0.3261  0.1340 -0.8992
 5459TIP3   OH216382   1.586   4.055   5.134  0.2930  0.9077 -0.1806
 5459TIP3    H116383   1.622   3.979   5.088 -1.0006 -0.2959  0.7122
 5459TIP3    H216384   1.494   4.034   5.146  0.4915  1.2891  2.6785
 5460TIP3   OH216385   3.449   2.026   1.699 -0.2438 -0.1599  0.1509
 5460TIP3    H116386   3.535   2.067   1.703 -0.3554  0.0033  1.2295
 5460TIP3    H216387   3.393   2.092   1.658  0.3207 -0.6285 -1.4450
 5461TIP3   OH216388   3.910   3.939   0.760 -0.0906  0.5008  0.6988
 5461TIP3    H116389   3.972   3.927   0.688 -0.4475  2.5708 -0.0237
 5461TIP3    H216390   3.956   3.909   0.838  0.6728 -0.8444 -0.2276
 5462TIP3   OH216391   4.758   0.747   1.923  0.5208  0.6703 -0.1011
 5462TIP3    H116392   4.781   0.657   1.945 -4.0801 -0.4912  0.9309
 5462TIP3    H216393   4.786   0.798   1.999  1.9615 -0.0094 -0.1290
 5463TIP3   OH216394   2.028   1.915   0.620 -0.2610  0.0570 -0.2519
 5463TIP3    H116395   1.984   1.862   0.554 -0.3102 -1.2920  0.8141
 5463TIP3    H216396   2.117   1.880   0.625 -1.1479 -2.2167  2.6795
 5464TIP3   OH216397   5.174   2.376   1.978  0.1120 -0.4144 -0.2132
 5464TIP3    H116398   5.242   2.404   1.916 -0.5711  0.4479 -0.5913
 5464TIP3    H216399   5.199   2.417   2.061 -0.8571  1.3474 -0.7549
 5465TIP3   OH216400   4.838   3.325   4.981 -0.2399 -0.1597 -0.7809
 5465TIP3    H116401   4.748   3.347   4.955 -0.9147  0.9685  2.0899
 5465TIP3    H216402   4.827   3.264   5.054  1.3582 -0.1786 -0.5251
 5466TIP3   OH216403   3.368   5.476   3.113 -0.6837  0.2914  0.3486
 5466TIP3    H116404   3.308   5.486   3.187 -3.8570  2.3313 -2.1738
 5466TIP3    H216405   3.316   5.429   3.047  1.7134 -0.7370 -0.9324
 5467TIP3   OH216406   4.459   0.611   3.402 -0.6411  0.2403  0.1271
 5467TIP3    H116407   4.429   0.656   3.482 -3.1806  0.8376 -1.0618
 5467TIP3    H216408   4.536   0.660   3.375 -1.7556  2.2586  0.3741
 5468TIP3   OH216409   5.784   1.901   4.745  0.2672  0.1012  0.1862
 5468TIP3    H116410   5.717   1.894   4.813  0.6480  1.7401  0.7768
 5468TIP3    H216411   5.845   1.967   4.779  2.3910 -1.5936 -0.1667
 5469TIP3   OH216412   3.484   2.702   0.263 -0.2999 -0.0520  0.3663
 5469TIP3    H116413   3.521   2.747   0.188 -1.0688 -0.2488 -0.1409
 5469TIP3    H216414   3.397   2.741   0.274 -0.7588 -1.0345  0.2548
 5470TIP3   OH216415   1.835   5.844   3.191  0.1040 -0.4633  0.1583
 5470TIP3    H116416   1.888   5.919   3.164  0.8128 -0.8363  0.4875
 5470TIP3    H216417   1.756   5.850   3.137  0.6170 -0.0808 -0.5675
 5471TIP3   OH216418   2.176   3.943   4.678 -0.8155  0.6724  0.1033
 5471TIP3    H116419   2.267   3.928   4.706 -1.5199 -2.3763  1.1299
 5471TIP3    H216420   2.136   3.992   4.750 -0.4527  0.3898  0.5010
 5472TIP3   OH216421   1.618   4.428   0.357  0.0145 -0.0690  0.4980
 5472TIP3    H116422   1.567   4.492   0.308  0.9259 -0.3931 -0.9516
 5472TIP3    H216423   1.693   4.478   0.390  1.1595 -0.4912 -1.3279
 5473TIP3   OH216424   0.873   3.898   1.470 -0.2161 -0.3165 -0.7029
 5473TIP3    H116425   0.872   3.803   1.470 -1.5754 -0.3671 -3.0877
 5473TIP3    H216426   0.964   3.921   1.453  0.2226 -1.1466  0.4107
 5474TIP3   OH216427   5.987   2.992   3.415  0.6611 -0.2221 -0.1988
 5474TIP3    H116428   6.038   3.059   3.461 -0.5895 -0.3842  1.5627
 5474TIP3    H216429   5.941   3.039   3.346 -1.1649  1.0783  1.7853
 5475TIP3   OH216430   0.887   5.765   1.684 -0.1521  0.0474  0.0699
 5475TIP3    H116431   0.854   5.827   1.749 -1.1184 -0.3653 -0.0251
 5475TIP3    H216432   0.929   5.696   1.735 -0.8573 -0.2461  0.2567
 5476TIP3   OH216433   2.303   4.962   3.442 -0.1654 -0.2059 -0.0605
 5476TIP3    H116434   2.230   4.924   3.491  0.0539  0.0538  0.4767
 5476TIP3    H216435   2.263   4.998   3.363 -0.7248  0.5636  0.5597
 5477TIP3   OH216436   4.212   4.068   0.426 -0.0043  1.0035  0.2788
 5477TIP3    H116437   4.235   4.075   0.333  0.0066  2.6936  0.3691
 5477TIP3    H216438   4.170   4.152   0.446  0.9199  1.0803  2.0413
 5478TIP3   OH216439   0.022   2.006   4.593 -0.0378  0.2757  0.2245
 5478TIP3    H116440   0.106   1.965   4.575 -0.1690 -0.4463  1.1501
 5478TIP3    H216441   0.037   2.100   4.580  1.1442  0.2421  1.2024
 5479TIP3   OH216442   1.106   2.124   0.268 -0.2206 -0.1015 -0.1599
 5479TIP3    H116443   1.045   2.183   0.312 -0.9691 -2.1440  1.7175
 5479TIP3    H216444   1.176   2.111   0.331  0.4597 -0.4059 -0.9645
 5480TIP3   OH216445   2.848   2.994   4.735  0.8526  0.2871  0.4353
 5480TIP3    H116446   2.809   2.978   4.649  4.3606 -2.7073 -0.8701
 5480TIP3    H216447   2.905   3.069   4.722 -0.5947  1.5295  0.9840
 5481TIP3   OH216448   0.776   3.353   4.120 -0.3009 -0.3808  0.4617
 5481TIP3    H116449   0.797   3.377   4.210 -0.4505  1.5519  0.0386
 5481TIP3    H216450   0.827   3.274   4.103 -0.8342 -1.2087  2.4486
 5482TIP3   OH216451   3.327   4.103   5.119 -0.9881 -0.1485 -0.4336
 5482TIP3    H116452   3.336   4.025   5.173 -0.1788  0.4399  0.3149
 5482TIP3    H216453   3.324   4.176   5.181 -2.4455  0.3888 -1.0844
 5483TIP3   OH216454   1.560   0.959   3.009 -0.9876  0.3195 -0.6330
 5483TIP3    H116455   1.568   1.050   3.038 -0.3909 -0.0377  0.3506
 5483TIP3    H216456   1.642   0.941   2.964 -0.0816 -0.4294  1.2156
 5484TIP3   OH216457   5.630   1.089   0.324 -0.0434 -0.1111 -0.0683
 5484TIP3    H116458   5.708   1.040   0.299  0.2062  0.8441 -1.2453
 5484TIP3    H216459   5.610   1.143   0.247 -1.4127  0.2257  0.4959
 5485TIP3   OH216460   1.330   0.875   0.031  0.6104  0.1682 -0.2511
 5485TIP3    H116461   1.283   0.853   0.111 -0.3321  0.4709 -0.7057
 5485TIP3    H216462   1.355   0.790  -0.006 -0.4686 -0.0562 -0.5087
 5486TIP3   OH216463   2.859   5.224   0.415 -0.0299  0.1931 -0.3999
 5486TIP3    H116464   2.948   5.256   0.403 -0.1378  0.4678 -0.4668
 5486TIP3    H216465   2.805   5.282   0.361 -0.3448  0.5283  0.2587
 5487TIP3   OH216466   0.146   0.695   4.830 -0.4535  0.1589 -0.5433
 5487TIP3    H116467   0.112   0.702   4.741 -0.1923  0.4704 -0.6210
 5487TIP3    H216468   0.069   0.682   4.885 -0.9317  2.7815 -0.4814
 5488TIP3   OH216469   0.179   0.925   1.311 -0.1457 -0.5850  0.5315
 5488TIP3    H116470   0.087   0.908   1.333 -0.7758  1.4708 -0.2704
 5488TIP3    H216471   0.175   0.966   1.224  1.3340  1.5283  1.4022
 5489TIP3   OH216472   1.757   3.067   1.020 -0.1889  0.2355  0.3986
 5489TIP3    H116473   1.755   3.159   1.047 -0.3868 -0.0228  1.2644
 5489TIP3    H216474   1.845   3.055   0.985  0.7297  0.0867  2.6590
 5490TIP3   OH216475   1.649   3.406   1.509  0.1047 -0.5842 -0.5286
 5490TIP3    H116476   1.720   3.399   1.445 -0.1861 -3.7716 -0.6704
 5490TIP3    H216477   1.678   3.353   1.583 -1.9127 -1.6711 -0.4475
 5491TIP3   OH216478   4.252   5.251   3.555  0.3432 -0.1092 -0.0733
 5491TIP3    H116479   4.231   5.216   3.642 -0.8360  0.2184 -0.1987
 5491TIP3    H216480   4.257   5.346   3.568  0.0567 -0.0510 -0.3668
 5492TIP3   OH216481   1.901   0.853   5.004  0.6346 -0.4748  0.2044
 5492TIP3    H116482   1.917   0.847   5.098  0.7640  2.0341  0.4258
 5492TIP3    H216483   1.961   0.790   4.965  3.0303  0.7365  1.6694
 5493TIP3   OH216484   4.181   2.011   4.389 -0.2609 -0.1567 -0.5303
 5493TIP3    H116485   4.150   2.012   4.480  1.7803 -1.5185  0.2404
 5493TIP3    H216486   4.189   2.104   4.366  0.7564  0.2442  1.2728
 5494TIP3   OH216487   5.024   0.766   0.001  0.7815  0.0369 -0.1315
 5494TIP3    H116488   5.096   0.703   0.003  0.6112 -0.1559  0.7896
 5494TIP3    H216489   5.039   0.822   0.077 -1.3524 -1.5756  1.6189
 5495TIP3   OH216490   1.504   5.247   0.672  0.7326  0.4897  0.0960
 5495TIP3    H116491   1.453   5.302   0.613  0.9866  0.2505 -0.3536
 5495TIP3    H216492   1.470   5.267   0.759 -0.8902 -0.4477 -0.2793
 5496TIP3   OH216493   0.476   0.990   3.448  0.3788  0.2344  0.2941
 5496TIP3    H116494   0.499   1.079   3.424  0.2103  0.4134  0.7981
 5496TIP3    H216495   0.410   0.999   3.517  1.5837 -0.2683  1.5501
 5497TIP3   OH216496   6.154   0.883   0.173  0.0299  0.3464 -0.3596
 5497TIP3    H116497   6.085   0.838   0.222 -0.2127  0.6778 -0.3934
 5497TIP3    H216498   6.158   0.971   0.211  0.5504  0.2767 -0.2460
 5498TIP3   OH216499   4.512   1.556   2.014  0.7353 -0.0791 -0.3728
 5498TIP3    H116500   4.448   1.626   2.027  1.0927  0.0851  0.5835
 5498TIP3    H216501   4.574   1.591   1.951 -0.1728 -0.2880 -1.4142
 5499TIP3   OH216502   4.246   5.612   3.080 -0.1623  0.1128  0.0719
 5499TIP3    H116503   4.154   5.637   3.072 -0.4986 -0.5354  1.4774
 5499TIP3    H216504   4.282   5.673   3.144 -0.6665 -1.9865  2.5450
 5500TIP3   OH216505   0.995   0.496   3.394  0.6018  0.1505  0.2730
 5500TIP3    H116506   1.041   0.521   3.313 -1.2624 -1.2294 -1.3288
 5500TIP3    H216507   1.061   0.448   3.445  1.4946 -0.0679 -1.0302
 5501TIP3   OH216508   5.508   3.732   4.246  0.1456  0.6755 -0.4270
 5501TIP3    H116509   5.420   3.771   4.242  0.6160  2.0357  1.1353
 5501TIP3    H216510   5.492   3.638   4.240 -1.5821  0.7961  1.1803
 5502TIP3   OH216511   0.248   2.912   4.566  0.8760  0.2450  0.1191
 5502TIP3    H116512   0.180   2.972   4.597 -0.5170 -1.8925  1.4882
 5502TIP3    H216513   0.216   2.881   4.481  1.1578  0.7758 -0.1807
 5503TIP3   OH216514   1.156   5.785   0.327 -0.0352 -0.0601 -0.2081
 5503TIP3    H116515   1.161   5.711   0.266  1.6715 -0.1639  0.0154
 5503TIP3    H216516   1.210   5.759   0.401 -1.8181  0.1916  1.2665
 5504TIP3   OH216517   5.602   5.560   1.604  0.3909 -0.3599 -0.0068
 5504TIP3    H116518   5.654   5.598   1.533  1.4683 -0.1065  0.8909
 5504TIP3    H216519   5.652   5.579   1.683 -0.2644 -1.5473  0.7218
 5505TIP3   OH216520   0.704   0.445   3.404  0.5782  0.1419 -0.0900
 5505TIP3    H116521   0.790   0.409   3.385 -0.0358 -0.8105 -1.1383
 5505TIP3    H216522   0.715   0.540   3.394  1.4032 -0.0017 -0.6063
 5506TIP3   OH216523   1.524   1.107   0.993  0.5137 -0.4424 -0.1998
 5506TIP3    H116524   1.471   1.160   1.053  0.7545  0.5348 -0.8108
 5506TIP3    H216525   1.562   1.171   0.932 -1.1129 -1.5082 -2.5008
 5507TIP3   OH216526   3.827   4.704   1.601  0.1250  0.5800 -0.7491
 5507TIP3    H116527   3.829   4.733   1.510 -2.6534  0.8371 -0.8175
 5507TIP3    H216528   3.758   4.756   1.641 -1.6993 -2.4222  0.3632
 5508TIP3   OH216529   1.921   4.976   4.125 -0.5723  0.0993  0.3204
 5508TIP3    H116530   2.003   4.957   4.080  0.1461  0.3736  1.4751
 5508TIP3    H216531   1.926   5.070   4.146  0.4381 -0.5415  3.4398
 5509TIP3   OH216532   6.005   4.533   1.235  0.4974  0.4962  0.3078
 5509TIP3    H116533   6.027   4.615   1.280  0.9044  0.5641 -0.0138
 5509TIP3    H216534   5.960   4.561   1.156  1.9712  0.4727 -0.5611
 5510TIP3   OH216535   0.925   2.142   5.007  0.4140 -0.4646 -0.1211
 5510TIP3    H116536   0.885   2.085   5.073  0.3133  1.3334  1.4795
 5510TIP3    H216537   0.861   2.212   4.994  1.4369  0.4601 -0.3536
 5511TIP3   OH216538   6.181   1.162   1.896  0.1983 -0.6095 -0.1725
 5511TIP3    H116539   6.088   1.162   1.916  0.3361 -0.9687  0.5256
 5511TIP3    H216540   6.189   1.209   1.814 -0.5504 -0.1941 -0.0112
 5512TIP3   OH216541   2.336   4.094   4.465 -0.4324 -0.4736 -0.5322
 5512TIP3    H116542   2.277   4.154   4.511  0.1249  0.2011 -0.6783
 5512TIP3    H216543   2.313   4.007   4.498 -0.1242 -0.0242  0.9363
 5513TIP3   OH216544   5.257   3.303   0.706  0.2426 -0.2339  0.8413
 5513TIP3    H116545   5.316   3.377   0.714  0.4253 -0.3049  0.1773
 5513TIP3    H216546   5.170   3.340   0.719  0.4266 -0.1520  1.9547
 5514TIP3   OH216547   0.147   4.378   3.430 -0.4989 -0.0361  0.0101
 5514TIP3    H116548   0.084   4.450   3.423 -2.1662 -1.3927  0.3463
 5514TIP3    H216549   0.139   4.332   3.347 -0.0715 -0.3253  0.1296
 5515TIP3   OH216550   4.075   2.137   3.720  0.4977 -0.2235 -1.0438
 5515TIP3    H116551   4.100   2.221   3.758 -1.3991 -0.6886  1.4788
 5515TIP3    H216552   4.157   2.087   3.717  1.1081  0.6153  0.4288
 5516TIP3   OH216553   4.115   1.098   1.955 -0.2297 -0.6668 -0.2897
 5516TIP3    H116554   4.080   1.186   1.941  1.0655  0.0752  0.8286
 5516TIP3    H216555   4.165   1.105   2.037 -0.1245 -2.4586 -0.1590
 5517TIP3   OH216556   2.337   4.880   3.062 -0.2438 -0.5151 -0.2282
 5517TIP3    H116557   2.387   4.916   3.136 -1.9946  0.9918  0.2968
 5517TIP3    H216558   2.356   4.787   3.064  2.0922 -0.0927  0.2621
 5518TIP3   OH216559   3.135   5.888   2.128 -0.3979 -0.3306 -0.2090
 5518TIP3    H116560   3.122   5.795   2.145  2.8228 -0.8298  0.2957
 5518TIP3    H216561   3.211   5.891   2.069 -0.2557  1.9619  0.0113
 5519TIP3   OH216562   5.892   4.470   3.472 -0.5486  0.3534 -0.0230
 5519TIP3    H116563   5.935   4.555   3.477 -2.0904  1.1526  0.0928
 5519TIP3    H216564   5.915   4.436   3.386 -1.3199  1.6874 -0.7902
 5520TIP3   OH216565   4.010   2.997   1.810 -0.7662  0.6269 -0.0559
 5520TIP3    H116566   3.986   3.082   1.846 -2.0458  0.5415 -0.6581
 5520TIP3    H216567   3.953   2.986   1.735  1.0094  0.2650 -1.4138
 5521TIP3   OH216568   4.281   3.781   1.169  0.0376  0.3869 -0.3418
 5521TIP3    H116569   4.368   3.798   1.204  0.1892  0.8876 -0.9503
 5521TIP3    H216570   4.236   3.734   1.239  1.2414 -1.1492 -0.5569
 5522TIP3   OH216571   1.417   0.317   4.271 -0.1970 -0.3027 -0.0624
 5522TIP3    H116572   1.472   0.317   4.193 -0.5005  1.1333 -0.3017
 5522TIP3    H216573   1.459   0.255   4.330  2.4254  1.6278  0.2446
 5523TIP3   OH216574   5.582   2.555   2.371  0.5148  0.2164  0.5591
 5523TIP3    H116575   5.564   2.511   2.288  0.2017 -0.0450  0.7603
 5523TIP3    H216576   5.521   2.513   2.433 -1.0379  2.1166  0.4065
 5524TIP3   OH216577   4.805   5.844   4.344 -0.1080  0.1444 -0.0111
 5524TIP3    H116578   4.778   5.814   4.257  0.9091 -1.5355  0.2172
 5524TIP3    H216579   4.850   5.927   4.327 -0.5911  0.2193 -0.9949
 5525TIP3   OH216580   5.683   2.842   2.912  0.4844  0.7434 -0.4026
 5525TIP3    H116581   5.648   2.762   2.950  1.7308  0.1610 -0.4176
 5525TIP3    H216582   5.686   2.825   2.818  0.5304  0.8886 -0.4274
 5526TIP3   OH216583   4.615   0.858   1.056 -0.7189  0.1739  0.0192
 5526TIP3    H116584   4.676   0.810   1.112 -0.8773  0.2013  0.2179
 5526TIP3    H216585   4.529   0.842   1.095 -0.8096  0.3476 -0.1065
 5527TIP3   OH216586   2.199   4.254   3.376 -0.0138 -0.3884 -0.3806
 5527TIP3    H116587   2.250   4.293   3.447 -0.7591 -1.0022  0.5173
 5527TIP3    H216588   2.108   4.265   3.404 -0.3051 -0.8977 -1.1091
 5528TIP3   OH216589   1.985   3.617   2.214  0.0996  0.3229 -0.4611
 5528TIP3    H116590   2.027   3.632   2.299  0.2108  0.9176 -0.6177
 5528TIP3    H216591   1.993   3.522   2.200 -1.2942 -0.0301  0.9011
 5529TIP3   OH216592   1.528   5.835   3.063  0.2033  0.1765  0.5282
 5529TIP3    H116593   1.524   5.833   3.158 -0.2373 -0.5263  0.5076
 5529TIP3    H216594   1.436   5.837   3.036  0.2965 -0.8445  0.1078
 5530TIP3   OH216595   5.426   3.875   2.282 -0.6209  0.2475 -0.3414
 5530TIP3    H116596   5.370   3.815   2.233  0.8509 -0.8229 -0.8048
 5530TIP3    H216597   5.514   3.859   2.247  0.2913  0.4396  1.7135
 5531TIP3   OH216598   1.358   1.985   4.120  0.1712  0.1046  0.3347
 5531TIP3    H116599   1.277   1.935   4.129 -1.0578  1.7491 -0.8077
 5531TIP3    H216600   1.350   2.055   4.185 -0.0374  1.0970 -0.7154
 5532TIP3   OH216601   3.554   5.895   1.615  0.2195  0.3545  0.0867
 5532TIP3    H116602   3.634   5.869   1.569 -0.3896  0.1541 -0.8993
 5532TIP3    H216603   3.503   5.814   1.622 -0.6977  0.8133 -0.9731
 5533TIP3   OH216604   1.957   4.853   0.772 -0.6758 -0.4252 -0.3167
 5533TIP3    H116605   1.867   4.856   0.804 -0.1963  0.8964  1.0497
 5533TIP3    H216606   1.998   4.785   0.825 -0.6952 -0.5635 -0.4772
 5534TIP3   OH216607   1.002   4.975   4.337  0.2730  0.0876 -0.0638
 5534TIP3    H116608   0.910   4.997   4.323  0.1721 -0.2169  0.1030
 5534TIP3    H216609   0.999   4.896   4.392  0.6307 -0.1801 -0.4288
 5535TIP3   OH216610   6.112   4.568   2.856  0.2031  0.1500 -0.1751
 5535TIP3    H116611   6.095   4.592   2.765  0.2752  0.8132 -0.0155
 5535TIP3    H216612   6.032   4.591   2.902  0.5516  0.7867  0.1110
 5536TIP3   OH216613   3.589   4.214   1.815 -0.7105  0.1954  0.2912
 5536TIP3    H116614   3.637   4.279   1.867 -1.5616 -0.0908  1.4976
 5536TIP3    H216615   3.556   4.263   1.740 -0.7569  1.0143  0.8307
 5537TIP3   OH216616   5.683   0.844   2.787 -0.3174  0.0498 -0.2588
 5537TIP3    H116617   5.692   0.794   2.867  0.8439  0.6795  0.0241
 5537TIP3    H216618   5.764   0.828   2.739 -0.2390  1.0691 -0.4924
 5538TIP3   OH216619   5.102   5.064   2.960  0.1850  0.6544 -0.0116
 5538TIP3    H116620   5.042   5.124   3.004 -0.5920  0.7384 -1.1363
 5538TIP3    H216621   5.139   5.010   3.030 -3.3377 -1.3600  0.5178
 5539TIP3   OH216622   6.086   3.617   3.928  0.6781  0.2116  0.2268
 5539TIP3    H116623   6.106   3.675   3.855  2.6308 -2.7258 -1.7837
 5539TIP3    H216624   5.991   3.610   3.928  0.6535 -1.1016 -3.3320
 5540TIP3   OH216625   3.705   2.230   2.558 -0.1308 -0.1317  0.1278
 5540TIP3    H116626   3.784   2.177   2.548  0.2934  0.6633 -1.1359
 5540TIP3    H216627   3.738   2.318   2.576 -0.5138  0.8404 -3.1872
 5541TIP3   OH216628   5.645   4.689   2.863 -0.5576  0.3606  0.0926
 5541TIP3    H116629   5.629   4.784   2.861 -0.6836  0.3784  1.1281
 5541TIP3    H216630   5.715   4.678   2.927 -0.2191 -0.2064 -0.3708
 5542TIP3   OH216631   4.958   4.624   4.026 -0.2582  0.1128 -0.1900
 5542TIP3    H116632   4.879   4.571   4.017 -0.7727  0.5993  1.1818
 5542TIP3    H216633   5.029   4.561   4.026 -0.6844 -0.3830 -0.8305
 5543TIP3   OH216634   3.650   1.394   2.316  0.1453  0.1244  0.5699
 5543TIP3    H116635   3.605   1.477   2.298 -1.8418 -0.7381  1.2755
 5543TIP3    H216636   3.684   1.366   2.232 -0.0345  1.1742  0.1347
 5544TIP3   OH216637   1.775   2.235   2.218  0.1143  0.1450  0.4889
 5544TIP3    H116638   1.691   2.209   2.257  0.0708  0.9977  0.9959
 5544TIP3    H216639   1.822   2.277   2.290  0.4706  0.7831 -0.1114
 5545TIP3   OH216640   2.955   0.178   2.782  0.5782  0.0756  0.0999
 5545TIP3    H116641   2.970   0.086   2.760  0.4065 -0.0337  0.4199
 5545TIP3    H216642   2.942   0.221   2.698 -1.8950 -0.6537  0.0377
 5546TIP3   OH216643   0.263   5.558   3.332 -0.2409 -0.1711 -0.0409
 5546TIP3    H116644   0.248   5.528   3.243 -1.9495 -0.9842  0.4856
 5546TIP3    H216645   0.229   5.648   3.333 -0.7607 -0.3648 -0.0675
 5547TIP3   OH216646  -0.021   0.994   2.330 -0.4019  0.3694 -0.9644
 5547TIP3    H116647   0.066   0.960   2.351 -1.0478 -0.8597 -0.2301
 5547TIP3    H216648  -0.024   1.079   2.375  0.2075  0.1824 -0.5569
 5548TIP3   OH216649   6.042   1.953   1.160 -0.5997 -0.9513  0.3069
 5548TIP3    H116650   6.119   2.003   1.187 -2.4193  1.8410  0.7761
 5548TIP3    H216651   6.046   1.952   1.065 -1.2008  1.5288  0.1675
 5549TIP3   OH216652   0.836   0.575   2.162 -0.1765 -0.0934 -0.1929
 5549TIP3    H116653   0.818   0.636   2.233 -0.3578  0.1306 -0.4275
 5549TIP3    H216654   0.761   0.517   2.160 -0.3136  0.0884 -0.3934
 5550TIP3   OH216655   1.897   2.848   2.694 -0.3602 -0.0612  0.4878
 5550TIP3    H116656   1.894   2.803   2.778  0.3497 -0.6903  0.1882
 5550TIP3    H216657   1.805   2.861   2.669 -0.5883 -1.6217  0.4378
 5551TIP3   OH216658   3.159   0.042   0.363 -0.2195 -0.1949  0.2123
 5551TIP3    H116659   3.074   0.001   0.347 -0.3076  0.4283 -1.0590
 5551TIP3    H216660   3.222  -0.028   0.347 -0.3660  0.0984 -1.9709
 5552TIP3   OH216661   0.507   5.248   4.333 -0.0660 -0.0246 -0.4076
 5552TIP3    H116662   0.472   5.166   4.299 -0.0566  0.5693 -1.9829
 5552TIP3    H216663   0.505   5.307   4.257 -0.2234  1.4688  0.7079
 5553TIP3   OH216664   1.763   2.479   4.431  0.6411  0.1640 -0.6132
 5553TIP3    H116665   1.801   2.482   4.518  1.1558  0.5960 -0.8423
 5553TIP3    H216666   1.754   2.386   4.411  0.0245  0.0645  0.1079
 5554TIP3   OH216667   2.250   2.221   1.500 -0.1613 -0.0417  0.1320
 5554TIP3    H116668   2.286   2.267   1.424  0.0441  0.5639  0.5945
 5554TIP3    H216669   2.178   2.277   1.530 -0.5651 -0.5291  0.0863
 5555TIP3   OH216670   6.201   4.313   2.265 -0.8020  0.2785  0.2746
 5555TIP3    H116671   6.284   4.334   2.307  0.0285 -2.5759  0.2680
 5555TIP3    H216672   6.149   4.271   2.334 -0.8479 -1.1224 -0.5777
 5556TIP3   OH216673   1.230   0.820   1.304 -0.2160  0.1502 -0.3497
 5556TIP3    H116674   1.189   0.867   1.232  0.0500 -0.5549 -0.9732
 5556TIP3    H216675   1.157   0.783   1.353 -0.4241  1.0979  0.0839
 5557TIP3   OH216676   4.644   2.383   1.621 -0.2994  0.0416  0.4870
 5557TIP3    H116677   4.672   2.341   1.702 -2.2485 -2.5613 -0.0678
 5557TIP3    H216678   4.549   2.392   1.630 -0.4301  0.6223 -1.1090
 5558TIP3   OH216679   4.825   4.741   2.960  0.8816 -0.0674  0.0062
 5558TIP3    H116680   4.858   4.666   2.911  1.0336 -0.2862  0.4329
 5558TIP3    H216681   4.747   4.769   2.912 -0.2540 -1.6358  0.8367
 5559TIP3   OH216682   0.589   2.262   3.535 -0.3180  0.4159 -0.4594
 5559TIP3    H116683   0.624   2.311   3.609  0.2204 -1.4140  0.5486
 5559TIP3    H216684   0.503   2.301   3.518 -0.6876  0.5161  1.4731
 5560TIP3   OH216685   5.504   0.098   4.237  0.2114  0.3438  0.6583
 5560TIP3    H116686   5.588   0.063   4.265  0.5251  1.5844  1.3466
 5560TIP3    H216687   5.516   0.118   4.144  0.4811 -0.0460  0.6088
 5561TIP3   OH216688   4.564   3.870   4.685 -0.3334 -0.0570  0.2460
 5561TIP3    H116689   4.581   3.920   4.605  0.3348  0.2841  0.5843
 5561TIP3    H216690   4.479   3.902   4.716 -0.3770  0.1460 -0.0778
 5562TIP3   OH216691   2.992   5.249   0.746 -0.1592  0.4569 -0.0418
 5562TIP3    H116692   3.009   5.243   0.840  0.6931  0.6407 -0.1730
 5562TIP3    H216693   3.058   5.312   0.714 -1.5589  1.7456 -0.4880
 5563TIP3   OH216694   1.987   0.966   3.041  0.0512  0.2190  0.2381
 5563TIP3    H116695   1.924   0.896   3.025  0.7308 -1.0090  2.4971
 5563TIP3    H216696   2.072   0.926   3.021  0.3380  0.9448 -0.0347
 5564TIP3   OH216697   4.580   3.256   1.905  0.1086  0.2959  0.0186
 5564TIP3    H116698   4.646   3.320   1.930  0.6473  0.0926 -0.8629
 5564TIP3    H216699   4.496   3.300   1.920  0.4715  1.1276 -0.3685
 5565TIP3   OH216700   4.638   1.999   2.245 -0.1105 -0.0561 -0.6652
 5565TIP3    H116701   4.682   1.930   2.197 -0.1293 -0.2840 -0.3577
 5565TIP3    H216702   4.592   1.954   2.316  0.1713  0.2999 -0.2425
 5566TIP3   OH216703   2.035   1.001   0.078 -0.2080  0.1197  0.1449
 5566TIP3    H116704   1.963   1.063   0.088  0.6350  1.5624 -2.1357
 5566TIP3    H216705   2.113   1.056   0.071  0.7347 -1.2633 -0.5425
 5567TIP3   OH216706   1.166   4.003   0.724 -0.1733 -0.0972  0.0795
 5567TIP3    H116707   1.140   3.972   0.811 -0.7369  1.6066  0.5469
 5567TIP3    H216708   1.107   4.077   0.706 -0.6201 -0.9034 -2.1096
 5568TIP3   OH216709   0.288   5.250   2.751  0.2578  0.1166 -0.7493
 5568TIP3    H116710   0.205   5.291   2.727  0.1990 -0.3893 -1.4311
 5568TIP3    H216711   0.352   5.321   2.745  0.0038  0.3268 -0.9926
 5569TIP3   OH216712   1.718   5.876   5.110 -0.1600  0.0836  0.2008
 5569TIP3    H116713   1.674   5.961   5.114  1.2200  0.8941 -0.7816
 5569TIP3    H216714   1.790   5.882   5.173  0.5292  0.0282 -0.5572
 5570TIP3   OH216715   1.166   5.468   5.077  0.4114  0.3151 -0.1006
 5570TIP3    H116716   1.257   5.437   5.082  0.4301  0.2036 -1.0543
 5570TIP3    H216717   1.137   5.443   4.990 -0.9904 -0.8689  0.6550
 5571TIP3   OH216718   2.862   3.457   3.823  0.3096  0.4142 -0.3697
 5571TIP3    H116719   2.839   3.532   3.768 -1.6891 -0.7264 -1.1966
 5571TIP3    H216720   2.786   3.445   3.879 -0.8373 -2.8119 -2.3695
 5572TIP3   OH216721   3.633   3.422   4.344  0.5909 -0.1804  0.1624
 5572TIP3    H116722   3.552   3.371   4.351  0.0044  0.5432 -1.0518
 5572TIP3    H216723   3.609   3.509   4.377  0.8272  0.0616 -0.2876
 5573TIP3   OH216724   1.557   5.805   3.355 -0.7929  0.0200  0.2051
 5573TIP3    H116725   1.562   5.721   3.400  0.4890  0.3160  0.6616
 5573TIP3    H216726   1.465   5.831   3.363 -0.7218 -0.1715  2.2411
 5574TIP3   OH216727   2.555   4.631   2.614  0.5306  0.0909  0.2119
 5574TIP3    H116728   2.639   4.667   2.585 -1.0122  1.5591 -2.7568
 5574TIP3    H216729   2.579   4.547   2.656  3.4429  0.4527 -0.5037
 5575TIP3   OH216730   4.973   3.364   0.786  0.0264  0.1219 -0.1967
 5575TIP3    H116731   4.892   3.373   0.738 -0.4766  2.2464  0.9263
 5575TIP3    H216732   4.960   3.287   0.842 -0.8465 -0.0978 -0.6949
 5576TIP3   OH216733   4.250   4.512   3.890  0.3501 -0.2456  0.2828
 5576TIP3    H116734   4.250   4.599   3.850  1.0314 -0.5364 -0.3653
 5576TIP3    H216735   4.187   4.519   3.962 -0.6377  0.3970 -0.6119
 5577TIP3   OH216736   0.793   5.962   5.064  0.1657  0.0662  0.0651
 5577TIP3    H116737   0.815   5.876   5.027 -0.9208  1.1643 -3.6045
 5577TIP3    H216738   0.871   6.016   5.047 -0.0727  0.4057  0.0427
 5578TIP3   OH216739   4.813   2.852   0.008  0.0134  0.1123  0.3728
 5578TIP3    H116740   4.881   2.905  -0.033 -0.5666  1.4355  1.0538
 5578TIP3    H216741   4.799   2.892   0.094 -0.0207 -1.5431  1.1933
 5579TIP3   OH216742   3.384   0.357   4.993 -0.7263  0.3108  0.1200
 5579TIP3    H116743   3.297   0.395   4.987 -0.7032  0.3026 -0.2932
 5579TIP3    H216744   3.372   0.279   5.047 -1.7577 -1.8920 -2.9895
 5580TIP3   OH216745   0.037   2.703   3.625 -0.3641  0.0835 -0.4541
 5580TIP3    H116746  -0.005   2.781   3.590  2.2947  1.4818 -0.8234
 5580TIP3    H216747   0.091   2.735   3.698 -0.5055 -1.7106  0.5112
 5581TIP3   OH216748   0.366   5.020   4.236 -0.3829  0.3241  0.3802
 5581TIP3    H116749   0.293   4.972   4.274  0.2069 -0.9887 -0.1100
 5581TIP3    H216750   0.342   5.029   4.143  0.1854 -0.3327  0.1670
 5582TIP3   OH216751   1.237   1.031   3.975  0.0690 -0.3686  0.1207
 5582TIP3    H116752   1.210   1.121   3.991 -0.8843 -0.6326  0.1104
 5582TIP3    H216753   1.302   1.036   3.905 -2.2075  0.0948 -2.0875
 5583TIP3   OH216754   4.784   0.125   0.649  0.4373  0.6177  0.3992
 5583TIP3    H116755   4.774   0.181   0.573  3.3859 -0.7582 -1.1861
 5583TIP3    H216756   4.698   0.125   0.691 -0.8175  2.8230 -1.9017
 5584TIP3   OH216757   4.361   1.283   3.531  0.8005 -0.5884  0.3648
 5584TIP3    H116758   4.347   1.239   3.447 -0.2642  0.1835  0.1194
 5584TIP3    H216759   4.308   1.232   3.593 -1.0496  0.7316 -0.0591
 5585TIP3   OH216760   1.890   4.972   1.636 -0.2820 -0.5831 -0.0034
 5585TIP3    H116761   1.933   5.001   1.555  0.6702 -0.7623  0.4363
 5585TIP3    H216762   1.874   4.879   1.623 -0.7389 -0.4782 -0.2438
 5586TIP3   OH216763   1.035   4.262   2.207  0.0718 -0.2969  0.1011
 5586TIP3    H116764   1.056   4.211   2.286 -0.8083  0.1379  0.6383
 5586TIP3    H216765   1.106   4.326   2.201 -0.7695  0.8775  1.6412
 5587TIP3   OH216766   1.561   0.188   2.035 -0.7366 -0.1920 -0.0814
 5587TIP3    H116767   1.552   0.098   2.066 -1.4156  0.0623  0.5025
 5587TIP3    H216768   1.608   0.233   2.105 -0.5946 -0.0411 -0.2740
 5588TIP3   OH216769   4.539   1.977   1.962 -0.4764 -0.2108 -0.3950
 5588TIP3    H116770   4.629   1.949   1.943 -0.8762 -0.1690 -2.7237
 5588TIP3    H216771   4.522   1.947   2.051  2.4977  1.4785  0.9021
 5589TIP3   OH216772   4.464   0.316   4.927 -0.1197  0.0239 -0.2183
 5589TIP3    H116773   4.458   0.232   4.972 -1.0879  0.0798 -0.2260
 5589TIP3    H216774   4.535   0.304   4.863  0.2774 -0.5236  0.3177
 5590TIP3   OH216775   3.278   2.242   1.624 -0.1571 -0.2287  0.0570
 5590TIP3    H116776   3.317   2.265   1.708  0.5965  0.4164 -0.4596
 5590TIP3    H216777   3.206   2.304   1.613 -1.0797 -1.1189  0.7893
 5591TIP3   OH216778   5.018   4.253   4.122  0.6441 -0.0129 -0.5743
 5591TIP3    H116779   5.018   4.159   4.141  0.7772  0.3122  1.2114
 5591TIP3    H216780   5.099   4.267   4.072  1.2540 -0.6815  0.1864
 5592TIP3   OH216781   6.279   4.949   1.247 -0.3843  0.5386 -0.2349
 5592TIP3    H116782   6.311   4.865   1.214  0.9337  0.4350  1.1872
 5592TIP3    H216783   6.341   4.973   1.316 -1.7796  1.7828  0.6564
 5593TIP3   OH216784   3.930   1.852   4.451 -0.0300 -0.0215  0.4925
 5593TIP3    H116785   3.992   1.782   4.473 -0.2862 -0.3858  0.0650
 5593TIP3    H216786   3.937   1.913   4.524  0.6421 -0.1887  0.5777
 5594TIP3   OH216787   0.804   2.211   2.086 -0.1862 -0.6925  0.4860
 5594TIP3    H116788   0.834   2.192   2.175 -3.5372  0.3751  2.0056
 5594TIP3    H216789   0.835   2.300   2.069  0.4524 -0.8960  0.5549
 5595TIP3   OH216790   6.043   2.543   2.795 -0.1175  0.1373 -0.0493
 5595TIP3    H116791   5.992   2.588   2.728  0.2252 -0.1867 -0.5338
 5595TIP3    H216792   6.128   2.526   2.754  0.4027  0.6997  0.7537
 5596TIP3   OH216793   6.253   2.256   4.266  0.8524 -0.1599 -0.0445
 5596TIP3    H116794   6.327   2.201   4.293  0.4984  0.6088  2.8362
 5596TIP3    H216795   6.288   2.345   4.266  0.6589 -0.0463 -1.7779
 5597TIP3   OH216796   5.185   1.652   1.558 -0.0171  0.3803 -0.5146
 5597TIP3    H116797   5.274   1.684   1.543 -0.7569  2.5739 -0.6326
 5597TIP3    H216798   5.180   1.570   1.510  2.6833 -1.1535  1.5604
 5598TIP3   OH216799   1.189   3.935   0.335 -0.8451 -0.1415 -0.2356
 5598TIP3    H116800   1.232   4.002   0.283  0.4607 -1.5774 -1.1190
 5598TIP3    H216801   1.207   3.853   0.288 -0.3364 -1.4070  2.0086
 5599TIP3   OH216802   2.400   1.689   3.029  0.3835 -0.3882  0.4892
 5599TIP3    H116803   2.339   1.626   2.990  0.5012 -0.8597  1.0477
 5599TIP3    H216804   2.358   1.714   3.111  0.7385 -0.3985  0.6774
 5600TIP3   OH216805   3.337   2.873   0.555  0.0814  0.6281 -0.3979
 5600TIP3    H116806   3.403   2.929   0.595  2.0863 -0.2870 -2.2259
 5600TIP3    H216807   3.307   2.817   0.626 -0.1174  2.2650  0.8799
 5601TIP3   OH216808   5.178   3.375   3.800  0.2925 -0.0709 -0.0320
 5601TIP3    H116809   5.150   3.406   3.714  1.1345  1.4631  0.2071
 5601TIP3    H216810   5.227   3.294   3.782 -2.7201 -1.9083 -0.5904
 5602TIP3   OH216811   6.192   5.405   3.477 -0.5740  0.0075  0.3038
 5602TIP3    H116812   6.245   5.417   3.398 -0.8940  0.4260  0.1467
 5602TIP3    H216813   6.254   5.416   3.549 -0.4079  0.3055  0.1188
 5603TIP3   OH216814   3.124   5.860   0.550 -0.5538 -0.1904 -0.0878
 5603TIP3    H116815   3.095   5.786   0.604  1.0081 -0.8209 -0.0659
 5603TIP3    H216816   3.048   5.919   0.548 -1.4357 -1.2370  0.8633
 5604TIP3   OH216817   3.891   2.492   1.873 -0.5224 -0.2970  0.4117
 5604TIP3    H116818   3.924   2.520   1.787 -0.5349  0.9501  0.7900
 5604TIP3    H216819   3.948   2.419   1.898 -0.6154 -0.7817 -0.7176
 5605TIP3   OH216820   2.306   2.216   2.728 -0.1019 -0.1400 -0.8858
 5605TIP3    H116821   2.385   2.268   2.738  0.6270 -1.3451 -0.2838
 5605TIP3    H216822   2.243   2.256   2.788  0.9088 -0.8072  0.6824
 5606TIP3   OH216823   5.287   4.404   3.450 -0.7135  0.6053  0.0406
 5606TIP3    H116824   5.287   4.314   3.418  0.5652  0.6143 -0.0406
 5606TIP3    H216825   5.247   4.455   3.379  1.5271  0.5409 -1.3764
 5607TIP3   OH216826   0.895   4.578   1.033 -0.4785 -0.3220  0.2328
 5607TIP3    H116827   0.974   4.576   1.088  0.6545  0.1269 -1.2994
 5607TIP3    H216828   0.839   4.644   1.074 -0.1521 -0.7610  1.4453
 5608TIP3   OH216829   2.666   1.973   5.071  0.0320  0.0608 -0.3634
 5608TIP3    H116830   2.661   1.960   4.977  0.9188 -0.3252 -0.3684
 5608TIP3    H216831   2.601   2.041   5.090 -0.5649 -0.2761 -1.1577
 5609TIP3   OH216832   4.344   1.639   3.761 -0.0114  0.3561 -0.4646
 5609TIP3    H116833   4.304   1.725   3.774  1.1884  0.8864 -0.1896
 5609TIP3    H216834   4.401   1.650   3.684  1.3583  0.2655  0.5034
 5610TIP3   OH216835   0.859   0.493   1.526  0.0546  0.1718  0.0948
 5610TIP3    H116836   0.937   0.500   1.582  0.2434 -0.4152 -0.0897
 5610TIP3    H216837   0.854   0.400   1.503 -0.6341  0.2270  0.0035
 5611TIP3   OH216838   3.888   0.908   0.426  0.0122  0.1811 -0.0788
 5611TIP3    H116839   3.898   1.003   0.426 -0.4609  0.2375 -0.7877
 5611TIP3    H216840   3.929   0.879   0.344 -0.4069 -0.1508 -0.1807
 5612TIP3   OH216841   2.280   0.862   4.296  0.1384  0.5066 -0.0636
 5612TIP3    H116842   2.298   0.770   4.319 -0.7261  0.3127 -0.1330
 5612TIP3    H216843   2.187   0.873   4.315  0.2356  1.3705 -0.0790
 5613TIP3   OH216844   3.800   2.798   0.950  0.3155  0.0381 -0.5974
 5613TIP3    H116845   3.706   2.785   0.938  0.3473 -1.3768  0.4868
 5613TIP3    H216846   3.819   2.760   1.035  1.7203  1.1695 -0.3687
 5614TIP3   OH216847   3.345   5.252   0.227  0.6654  0.1016  0.2860
 5614TIP3    H116848   3.336   5.158   0.211 -0.7853  0.2163  0.2514
 5614TIP3    H216849   3.351   5.291   0.140 -0.2935  0.1549  0.2338
 5615TIP3   OH216850   1.334   1.981   3.657 -0.0532 -0.0391 -0.4717
 5615TIP3    H116851   1.424   2.008   3.643  0.4869  0.5476  3.1915
 5615TIP3    H216852   1.341   1.902   3.710 -1.6017  1.1247  1.6072
 5616TIP3   OH216853   3.977   1.569   3.939  0.1177 -0.0048 -0.7367
 5616TIP3    H116854   3.918   1.521   3.880  0.9573  0.3204 -1.8670
 5616TIP3    H216855   3.919   1.608   4.004 -0.6571 -2.0513 -0.1159
 5617TIP3   OH216856   2.264   0.305   2.581 -0.0600 -0.0340 -0.1401
 5617TIP3    H116857   2.299   0.307   2.492 -1.7315  1.1668 -0.8307
 5617TIP3    H216858   2.341   0.303   2.638  1.0552  0.1887 -1.6008
 5618TIP3   OH216859   0.471   0.219   3.700  0.4245 -0.5281 -0.0639
 5618TIP3    H116860   0.469   0.279   3.625 -0.8591 -2.1900 -1.4378
 5618TIP3    H216861   0.562   0.189   3.703  0.7130  0.2817 -0.3418
 5619TIP3   OH216862   4.934   3.895   4.414 -0.0734  0.4233  0.3830
 5619TIP3    H116863   4.842   3.909   4.438 -0.2888 -0.2151 -0.0590
 5619TIP3    H216864   4.933   3.884   4.319  0.0953 -2.1321  0.5957
 5620TIP3   OH216865   3.239   3.698   5.061 -0.1503 -0.2067 -0.1846
 5620TIP3    H116866   3.198   3.776   5.023 -0.3898  0.1019  0.6646
 5620TIP3    H216867   3.314   3.680   5.004 -0.1239  0.6233 -0.4348
 5621TIP3   OH216868   5.028   4.491   4.305 -0.5185 -0.0446  0.6993
 5621TIP3    H116869   5.111   4.490   4.353 -2.1754 -1.5209  3.9201
 5621TIP3    H216870   5.044   4.438   4.228  0.9922 -2.4475  2.5109
 5622TIP3   OH216871   4.399   1.959   1.075  0.1353  0.5596  0.4443
 5622TIP3    H116872   4.442   1.892   1.022  1.5902  1.4197  0.5146
 5622TIP3    H216873   4.327   1.990   1.020 -0.9273 -1.4044  0.6233
 5623TIP3   OH216874   5.235   3.746   4.405  0.6296 -0.0545 -0.3959
 5623TIP3    H116875   5.155   3.703   4.434 -0.1613  1.9096  0.4346
 5623TIP3    H216876   5.300   3.675   4.402 -0.9251 -1.5361 -0.3677
 5624TIP3   OH216877   2.898   2.718   0.846  0.1920 -0.1364 -0.0478
 5624TIP3    H116878   2.983   2.675   0.831  0.2310 -0.3121  0.6114
 5624TIP3    H216879   2.845   2.651   0.889 -0.6326 -0.3524 -1.3718
 5625TIP3   OH216880   1.639   4.281   3.825 -0.0109 -1.0658  0.1764
 5625TIP3    H116881   1.652   4.261   3.917 -2.3302  0.1167  0.8316
 5625TIP3    H216882   1.637   4.196   3.782 -0.4421 -1.7328  1.4664
 5626TIP3   OH216883   6.223   4.685   4.008  0.6991  0.1024 -0.5664
 5626TIP3    H116884   6.288   4.679   3.938  1.3078 -0.3474  0.0179
 5626TIP3    H216885   6.240   4.607   4.062 -1.4258 -0.9720 -1.3286
 5627TIP3   OH216886   5.177   3.231   3.293  0.1479 -0.4786 -0.5779
 5627TIP3    H116887   5.226   3.155   3.325 -0.3664 -0.3670  0.5147
 5627TIP3    H216888   5.125   3.196   3.220  0.4341 -1.0201 -0.5259
 5628TIP3   OH216889   1.301   0.361   2.433 -0.3913  0.3296  0.0953
 5628TIP3    H116890   1.267   0.340   2.347  1.4745  1.7731 -1.0681
 5628TIP3    H216891   1.308   0.457   2.434 -0.3833  0.3485  1.8575
 5629TIP3   OH216892   2.907   3.195   2.257 -0.3413  0.0972  1.1542
 5629TIP3    H116893   2.932   3.245   2.335  0.5307 -0.6993  1.4044
 5629TIP3    H216894   2.831   3.144   2.286 -1.2271  1.2479  0.8991
 5630TIP3   OH216895   0.098   3.044   3.357 -0.6041 -0.1737  0.0815
 5630TIP3    H116896   0.057   3.130   3.351  0.6874  0.4552 -0.2242
 5630TIP3    H216897   0.027   2.985   3.381 -2.0583  0.5303 -2.1578
 5631TIP3   OH216898   5.473   1.242   0.809  0.4574 -0.1440  0.3540
 5631TIP3    H116899   5.514   1.245   0.723 -0.2027 -1.2133 -0.0069
 5631TIP3    H216900   5.384   1.273   0.794  0.5746  0.4445  0.8121
 5632TIP3   OH216901   1.107   0.588   3.103  0.0262 -0.0614 -0.6605
 5632TIP3    H116902   1.038   0.631   3.052 -1.0807  1.1871  1.7245
 5632TIP3    H216903   1.164   0.659   3.130 -0.5090 -0.3744  1.4145
 5633TIP3   OH216904   4.550   2.555   0.054 -0.5545 -0.5702  0.0369
 5633TIP3    H116905   4.514   2.571   0.141 -0.5443 -1.9742  0.3185
 5633TIP3    H216906   4.633   2.510   0.070 -1.1422 -1.9640 -0.6972
 5634TIP3   OH216907   2.598   5.582   0.081  0.4229 -0.0865  0.2209
 5634TIP3    H116908   2.579   5.621  -0.004  2.2147  2.1379  0.7459
 5634TIP3    H216909   2.562   5.643   0.145  3.1137  0.7778  1.0626
 5635TIP3   OH216910   5.016   5.468   0.445  0.1928 -0.1448  0.6538
 5635TIP3    H116911   4.948   5.402   0.455 -1.2454  1.1617 -0.0922
 5635TIP3    H216912   5.047   5.457   0.356 -0.6246  0.6782  0.2518
 5636TIP3   OH216913   1.932   4.789   3.465  0.4368  0.6227 -0.1765
 5636TIP3    H116914   1.855   4.818   3.514 -0.4618 -0.6462 -0.7664
 5636TIP3    H216915   1.934   4.846   3.388 -0.1334  0.4411 -0.3322
 5637TIP3   OH216916   3.435   5.176   1.296  0.5982  0.5460 -0.4061
 5637TIP3    H116917   3.350   5.143   1.267  0.2959  0.2925  0.7243
 5637TIP3    H216918   3.491   5.098   1.300  0.9482  0.7382 -1.3227
 5638TIP3   OH216919   0.809   1.059   2.701  0.0879  0.5062  0.1624
 5638TIP3    H116920   0.799   1.078   2.794  0.6644 -1.6067  0.6974
 5638TIP3    H216921   0.730   1.009   2.678  1.0425 -1.0577  0.1463
 5639TIP3   OH216922   4.689   1.583   0.998  0.3565  0.4696 -0.0792
 5639TIP3    H116923   4.730   1.496   0.993  2.4478  1.1955  2.3333
 5639TIP3    H216924   4.705   1.621   0.911  0.7094 -0.9785 -0.6943
 5640TIP3   OH216925   3.108   5.496   0.611 -0.8107  0.2146 -0.7243
 5640TIP3    H116926   3.086   5.480   0.519  1.1752  2.0993 -1.6149
 5640TIP3    H216927   3.047   5.564   0.638 -0.3600  0.8200 -1.1868
 5641TIP3   OH216928   3.128   0.169   1.258  0.5162  0.4274 -0.1903
 5641TIP3    H116929   3.105   0.202   1.171 -2.4916 -0.6865  0.0509
 5641TIP3    H216930   3.043   0.146   1.298  1.9756 -2.2701  1.7114
 5642TIP3   OH216931   3.655   4.318   3.105 -0.3729 -0.9216 -0.3462
 5642TIP3    H116932   3.694   4.248   3.054 -2.4859 -3.2655  1.0117
 5642TIP3    H216933   3.620   4.274   3.183  0.0177  1.9961  1.6200
 5643TIP3   OH216934   0.953   2.190   4.048 -0.4056  0.1043  0.2690
 5643TIP3    H116935   0.888   2.243   4.093  0.2650  1.3739 -0.2170
 5643TIP3    H216936   1.027   2.185   4.108 -0.6308 -0.6491  0.4883
 5644TIP3   OH216937   5.300   1.157   5.038  0.1824 -0.0588 -0.0837
 5644TIP3    H116938   5.320   1.152   4.945 -1.1607 -0.4015 -0.3648
 5644TIP3    H216939   5.300   1.251   5.058 -0.8672  0.0993 -0.7466
 5645TIP3   OH216940   3.476   5.378   2.801  0.0275 -0.1209 -0.3997
 5645TIP3    H116941   3.442   5.415   2.719 -0.8969  1.4237  0.6384
 5645TIP3    H216942   3.515   5.452   2.846 -1.2483 -0.5136  1.4456
 5646TIP3   OH216943   1.918   4.286   5.059  0.2536  0.0674  0.5139
 5646TIP3    H116944   2.005   4.321   5.041  0.5985 -0.9846  0.0509
 5646TIP3    H216945   1.877   4.280   4.973  0.6873 -1.8511  0.3929
 5647TIP3   OH216946   5.304   0.549   0.531  0.2211  0.0822 -0.0463
 5647TIP3    H116947   5.263   0.489   0.593  0.5517 -0.3196 -0.2135
 5647TIP3    H216948   5.343   0.617   0.586 -0.1337  0.1341  0.1456
 5648TIP3   OH216949   1.721   2.499   2.700 -0.0504  0.4963 -0.5334
 5648TIP3    H116950   1.704   2.430   2.636  1.8152 -1.3255  0.7974
 5648TIP3    H216951   1.751   2.452   2.778  0.4361  2.7885  0.7408
 5649TIP3   OH216952   2.719   5.430   0.284 -0.1625  0.0079 -0.5853
 5649TIP3    H116953   2.670   5.476   0.216 -0.2752  1.6640  0.5743
 5649TIP3    H216954   2.736   5.496   0.351 -0.9717 -1.7778  1.5095
 5650TIP3   OH216955   1.617   4.802   2.683 -0.3982 -0.5154 -0.0869
 5650TIP3    H116956   1.613   4.897   2.693 -0.5328 -0.4833 -0.4235
 5650TIP3    H216957   1.572   4.768   2.761  0.8322 -0.3432  0.7155
 5651TIP3   OH216958   0.379   2.791   0.579 -0.3283 -0.2071 -0.2161
 5651TIP3    H116959   0.457   2.758   0.535 -0.1769  2.1080 -1.9032
 5651TIP3    H216960   0.308   2.733   0.551  0.5978 -1.7841  0.6161
 5652TIP3   OH216961   4.445   4.227   1.496  0.6310 -0.7012  0.4145
 5652TIP3    H116962   4.456   4.218   1.591 -0.3665  2.1122  0.8892
 5652TIP3    H216963   4.370   4.171   1.476 -0.9808  0.8016  1.8619
 5653TIP3   OH216964   2.521   4.888   4.388 -0.6352 -0.2236  0.1599
 5653TIP3    H116965   2.514   4.886   4.292 -1.9138 -0.2368  0.2407
 5653TIP3    H216966   2.566   4.970   4.407 -0.5677 -0.1184 -0.4370
 5654TIP3   OH216967   4.347   2.257   2.691 -0.3872 -0.2326  0.0036
 5654TIP3    H116968   4.254   2.278   2.698 -0.2592  0.4540 -0.2467
 5654TIP3    H216969   4.371   2.285   2.603  0.5475  1.6781  0.8067
 5655TIP3   OH216970   4.274   1.444   2.175  0.3135  0.0690 -0.2951
 5655TIP3    H116971   4.193   1.445   2.124  0.1008 -0.0460  0.0363
 5655TIP3    H216972   4.332   1.385   2.127 -0.1943 -0.7402  0.0638
 5656TIP3   OH216973   2.616   2.287   2.654  0.1631  0.2080  0.1283
 5656TIP3    H116974   2.708   2.267   2.637 -0.0229  1.5016 -3.0059
 5656TIP3    H216975   2.587   2.217   2.713  3.5029  0.6827  2.6404
 5657TIP3   OH216976   5.692   1.231   2.107  0.8068  0.0925 -0.1394
 5657TIP3    H116977   5.704   1.146   2.150 -0.5399 -0.2569 -0.4296
 5657TIP3    H216978   5.658   1.288   2.176 -1.4022 -0.4809 -0.6821
 5658TIP3   OH216979   0.790   2.158   4.713  0.6070  0.1761 -0.2919
 5658TIP3    H116980   0.828   2.228   4.765  1.8768  1.1098 -2.3568
 5658TIP3    H216981   0.730   2.113   4.773 -0.5090  3.1942  1.0262
 5659TIP3   OH216982   0.884   3.779   1.159 -0.2916 -0.2332 -0.2151
 5659TIP3    H116983   0.862   3.687   1.172  0.8289 -0.4784  0.0640
 5659TIP3    H216984   0.955   3.796   1.222 -1.7338  1.3306  1.1114
 5660TIP3   OH216985   4.888   1.844   0.481  0.1582  0.2246  0.4122
 5660TIP3    H116986   4.801   1.807   0.468  0.6853 -0.9018 -0.0518
 5660TIP3    H216987   4.880   1.899   0.559 -0.4865 -1.4561  1.5933
 5661TIP3   OH216988   1.548   1.443   1.907  0.0051 -0.1924 -0.3807
 5661TIP3    H116989   1.543   1.456   2.002  0.4015  0.4906 -0.4424
 5661TIP3    H216990   1.607   1.369   1.896 -1.6519 -1.6224 -0.0345
 5662TIP3   OH216991   1.444   0.418   0.169 -0.0210  0.0321  0.2910
 5662TIP3    H116992   1.490   0.351   0.219  0.9140  0.9472  0.6880
 5662TIP3    H216993   1.386   0.460   0.233 -3.4059 -2.7366 -0.6979
 5663TIP3   OH216994   5.218   3.066   0.831  0.3563 -0.0233 -0.3071
 5663TIP3    H116995   5.226   3.128   0.759 -1.8257  1.0524  0.3008
 5663TIP3    H216996   5.308   3.050   0.859  1.1069  1.1136 -1.9363
 5664TIP3   OH216997   5.437   5.949   2.385  0.5631  0.2592  0.0729
 5664TIP3    H116998   5.522   5.945   2.429 -0.0434 -0.8611  1.2284
 5664TIP3    H216999   5.442   5.882   2.317  1.1934  1.3924 -1.0312
 5665TIP3   OH217000   4.154   0.455   0.838  0.5911 -0.0920  0.3046
 5665TIP3    H117001   4.111   0.398   0.775  1.5103  0.5699 -0.9534
 5665TIP3    H217002   4.213   0.510   0.786 -0.4496  2.2204  1.3804
 5666TIP3   OH217003   0.298   4.152   1.092  0.0355 -0.5708 -0.3676
 5666TIP3    H117004   0.238   4.215   1.052  0.0698 -1.1589 -1.3868
 5666TIP3    H217005   0.242   4.095   1.144  0.0832  0.7003  1.1559
 5667TIP3   OH217006   5.601   0.230   2.484 -0.0433 -0.0233 -0.0060
 5667TIP3    H117007   5.653   0.204   2.560  1.9816 -0.2178 -1.3827
 5667TIP3    H217008   5.543   0.298   2.517  0.9359  0.0648  1.6635
 5668TIP3   OH217009   4.431   4.612   1.104  0.2056  0.1102 -0.5463
 5668TIP3    H117010   4.457   4.700   1.130  0.1961  0.6492 -2.2290
 5668TIP3    H217011   4.343   4.601   1.141  0.5431  0.4504  0.4011
 5669TIP3   OH217012   0.658   5.575   5.147  1.2576 -0.3238 -0.0622
 5669TIP3    H117013   0.624   5.656   5.186  0.1238 -0.6714 -0.2992
 5669TIP3    H217014   0.696   5.603   5.064  0.4907 -0.0752 -0.3431
 5670TIP3   OH217015   1.494   3.011   3.053 -0.1382 -0.0508 -0.3065
 5670TIP3    H117016   1.477   2.946   2.985 -2.0362  0.5708 -0.4934
 5670TIP3    H217017   1.565   2.973   3.105 -0.3895 -1.7167 -1.1089
 5671TIP3   OH217018   3.026   1.125   2.058  0.4166 -0.1984  0.1227
 5671TIP3    H117019   3.067   1.059   2.002  0.8987  0.7153 -0.6137
 5671TIP3    H217020   3.090   1.140   2.128  0.9278  0.5058 -0.4841
 5672TIP3   OH217021   3.161   5.681   1.377 -0.1680  0.0290 -0.2817
 5672TIP3    H117022   3.111   5.669   1.458 -0.9579  0.6271 -0.6668
 5672TIP3    H217023   3.129   5.764   1.342 -0.2892 -0.5396 -1.5408
 5673TIP3   OH217024   2.773   4.560   3.998  0.2905  0.1153 -0.5149
 5673TIP3    H117025   2.740   4.558   4.087  1.6955  1.3623  0.0782
 5673TIP3    H217026   2.768   4.470   3.968 -4.2299  0.2065 -0.7697
 5674TIP3   OH217027   4.237   1.992   3.179 -0.4796 -0.2279  0.2704
 5674TIP3    H117028   4.231   1.911   3.129 -0.6394  0.6023 -1.0811
 5674TIP3    H217029   4.149   2.005   3.214 -1.3441  0.9616 -2.1264
 5675TIP3   OH217030   4.676   3.960   4.023 -0.0745  0.6432 -0.4781
 5675TIP3    H117031   4.737   3.969   3.951 -1.3184  2.1827 -1.4039
 5675TIP3    H217032   4.624   4.040   4.021 -2.3899 -0.7387 -0.0091
 5676TIP3   OH217033   1.898   5.003   3.296  0.2376  0.1924 -0.7900
 5676TIP3    H117034   1.813   4.961   3.282  0.9478 -1.2832 -0.8891
 5676TIP3    H217035   1.877   5.084   3.343 -1.2686  0.1730 -1.3546
 5677TIP3   OH217036   4.771   1.320   0.887  0.2220  0.0000 -0.2073
 5677TIP3    H117037   4.845   1.333   0.827  1.4268  0.2987  1.2702
 5677TIP3    H217038   4.810   1.274   0.962 -1.2057 -0.2433  0.4053
 5678TIP3   OH217039  -0.006   3.137   3.690  0.3134  0.1374  0.0877
 5678TIP3    H117040  -0.023   3.214   3.744  0.3209 -0.3039  0.7284
 5678TIP3    H217041   0.040   3.171   3.613  1.0357  0.6721  0.7371
 5679TIP3   OH217042   5.954   2.269   3.931 -0.5665 -0.1259  0.3982
 5679TIP3    H117043   5.943   2.251   4.024 -0.7375 -0.5143  0.3034
 5679TIP3    H217044   6.048   2.287   3.921 -0.8132  1.7528  0.9571
 5680TIP3   OH217045   3.197   2.147   2.508 -0.3582  0.2869 -0.2979
 5680TIP3    H117046   3.291   2.164   2.500  0.0333  0.3579  3.1005
 5680TIP3    H217047   3.190   2.052   2.508 -0.6843  0.2223 -3.0530
 5681TIP3   OH217048   5.978   3.775   3.185 -0.4394 -0.0286 -0.3339
 5681TIP3    H117049   5.898   3.742   3.144 -0.4485 -0.3092 -0.0929
 5681TIP3    H217050   5.958   3.778   3.278 -0.0823 -0.3590 -0.2437
 5682TIP3   OH217051   3.144   4.060   0.100 -0.3170 -0.2494 -0.2740
 5682TIP3    H117052   3.167   3.988   0.040 -0.4621 -1.1194  0.6902
 5682TIP3    H217053   3.082   4.113   0.050  0.1517 -0.5169 -1.1730
 5683TIP3   OH217054   1.038   1.795   3.053 -0.0760 -0.4535 -0.5179
 5683TIP3    H117055   1.117   1.745   3.033  0.3730 -0.3567  0.9313
 5683TIP3    H217056   0.967   1.744   3.014  0.7002 -0.4325 -2.0260
 5684TIP3   OH217057   3.843   5.487   2.863 -0.1040  0.0077  0.1128
 5684TIP3    H117058   3.763   5.507   2.912 -1.3592 -1.4197 -1.2514
 5684TIP3    H217059   3.856   5.562   2.806 -0.7494  0.0245 -0.0102
 5685TIP3   OH217060   5.027   0.080   3.644  0.6423  0.1942 -0.1192
 5685TIP3    H117061   5.113   0.063   3.683  0.6682 -1.6678 -0.8586
 5685TIP3    H217062   4.974   0.114   3.717  1.9578  1.3108  0.3569
 5686TIP3   OH217063   5.831   3.163   1.246 -0.7638  0.3928 -0.0488
 5686TIP3    H117064   5.736   3.160   1.256 -0.7996  1.2676 -0.0348
 5686TIP3    H217065   5.864   3.156   1.336 -0.8679  1.5020  0.0860
 5687TIP3   OH217066   2.250   1.752   0.646  1.0246  0.1380  0.2850
 5687TIP3    H117067   2.234   1.658   0.640 -0.4368  0.4476 -1.3484
 5687TIP3    H217068   2.288   1.764   0.733  0.2544 -1.8099  0.9426
 5688TIP3   OH217069   2.206   5.847   0.452  0.0069 -0.0990 -0.2287
 5688TIP3    H117070   2.120   5.859   0.491  0.1224  1.0875 -0.2971
 5688TIP3    H217071   2.261   5.912   0.495  0.6464 -0.2141 -0.8570
 5689TIP3   OH217072   2.147   3.768   2.694  0.0520 -0.2455  0.6878
 5689TIP3    H117073   2.088   3.820   2.639  3.4779  0.4339 -2.8381
 5689TIP3    H217074   2.180   3.830   2.759  1.2278  1.1256 -1.1003
 5690TIP3   OH217075   5.917   0.766   3.354 -0.4435  0.0489  0.8062
 5690TIP3    H117076   5.853   0.750   3.424 -0.6702  2.4190  1.2176
 5690TIP3    H217077   5.974   0.835   3.389  1.0630 -0.5594 -0.3707
 5691TIP3   OH217078   1.304   3.624   3.389 -0.3683 -0.2387  0.3513
 5691TIP3    H117079   1.258   3.658   3.466 -0.2764  0.5758  0.0528
 5691TIP3    H217080   1.253   3.657   3.314  0.4936  0.3828  0.0271
 5692TIP3   OH217081   3.894   1.164   2.230 -0.0790 -0.3259  0.5374
 5692TIP3    H117082   3.852   1.191   2.149 -0.6814  3.1358  1.8456
 5692TIP3    H217083   3.833   1.101   2.269 -0.6734 -0.5992 -0.7802
 5693TIP3   OH217084   4.590   3.194   4.120  0.3257  0.2672  0.2014
 5693TIP3    H117085   4.683   3.208   4.135  0.3043 -0.8029  1.4180
 5693TIP3    H217086   4.579   3.099   4.119 -0.7399  0.3779  0.0198
 5694TIP3   OH217087   5.148   4.562   4.944 -0.2463 -0.0660  0.8114
 5694TIP3    H117088   5.105   4.491   4.896 -0.7912  0.4664  0.5003
 5694TIP3    H217089   5.225   4.584   4.891 -0.4047 -0.0251  0.5964
 5695TIP3   OH217090   3.328   4.143   3.827  0.1889  0.3377 -0.2161
 5695TIP3    H117091   3.386   4.218   3.816  1.7206 -0.6792  0.5171
 5695TIP3    H217092   3.370   4.072   3.778 -0.7683 -0.2669 -0.1902
 5696TIP3   OH217093   1.576   0.243   3.377  0.1310 -0.5355  0.0825
 5696TIP3    H117094   1.531   0.159   3.365 -1.3552  0.4070 -1.3981
 5696TIP3    H217095   1.600   0.270   3.288 -0.8688  1.3350  0.3381
 5697TIP3   OH217096   5.591   3.484   3.824  0.0962 -0.1874  0.3029
 5697TIP3    H117097   5.662   3.458   3.884  0.7514 -0.0783 -0.4082
 5697TIP3    H217098   5.582   3.409   3.765 -1.9464 -1.1741  1.7399
 5698TIP3   OH217099   5.408   0.601   0.959  0.0936 -0.3082 -0.4158
 5698TIP3    H117100   5.331   0.560   0.999  0.4827  0.4792  1.2661
 5698TIP3    H217101   5.406   0.573   0.868 -0.7084 -2.4640  0.1971
 5699TIP3   OH217102   2.315   0.086   1.092 -0.3797 -0.2979 -0.0654
 5699TIP3    H117103   2.372   0.157   1.121  0.3087 -1.3117  1.1897
 5699TIP3    H217104   2.347   0.065   1.004  1.5503 -1.1010  0.7488
 5700TIP3   OH217105   5.059   4.783   0.158 -0.4615 -0.5364 -0.2095
 5700TIP3    H117106   4.994   4.785   0.228  0.5375 -0.1440  0.7313
 5700TIP3    H217107   5.009   4.802   0.079 -1.3796  0.5490  0.5902
 5701TIP3   OH217108   2.443   3.395   3.941 -0.3619  0.2870  0.0302
 5701TIP3    H117109   2.357   3.352   3.933  0.0761 -0.5590 -0.2666
 5701TIP3    H217110   2.464   3.423   3.852  0.6919 -1.5737 -0.3573
 5702TIP3   OH217111   6.101   1.579   2.854 -0.2860  0.2793  0.3320
 5702TIP3    H117112   6.059   1.518   2.914  0.9980 -0.2213  0.7570
 5702TIP3    H217113   6.054   1.662   2.867 -0.5081 -0.0091  1.4900
 5703TIP3   OH217114   3.706   1.463   1.844  0.3251  0.2439 -0.5527
 5703TIP3    H117115   3.631   1.442   1.789  0.0259  0.9955 -0.4471
 5703TIP3    H217116   3.782   1.454   1.786  0.2624 -1.5008 -0.3974
 5704TIP3   OH217117   3.842   0.681   2.014  0.2599  0.1221  0.0044
 5704TIP3    H117118   3.849   0.769   2.050  0.3639 -0.1740  0.7314
 5704TIP3    H217119   3.750   0.658   2.025  0.6431 -0.7376  2.0175
 5705TIP3   OH217120   4.267   0.065   3.908  0.0918  0.8567  0.1125
 5705TIP3    H117121   4.227   0.065   3.821  0.8567  0.0596 -0.2558
 5705TIP3    H217122   4.359   0.042   3.892 -0.3980 -2.4924  1.3782
 5706TIP3   OH217123   3.574   5.795   4.762 -0.0411 -0.2582 -0.4342
 5706TIP3    H117124   3.616   5.881   4.761 -1.3453  0.4049 -1.4174
 5706TIP3    H217125   3.584   5.764   4.852  2.3564 -0.0741 -0.5713
 5707TIP3   OH217126   3.769   0.492   1.125 -0.4268  0.2318  0.5277
 5707TIP3    H117127   3.692   0.437   1.115 -0.7801  0.8942 -0.5700
 5707TIP3    H217128   3.831   0.459   1.060 -0.6460  1.0964 -0.1471
 5708TIP3   OH217129   1.618   5.807   0.670  0.7703  0.4001 -0.0802
 5708TIP3    H117130   1.638   5.841   0.757 -0.0150  0.3830  0.1194
 5708TIP3    H217131   1.652   5.717   0.671  1.2534  0.5820  0.0153
 5709TIP3   OH217132   0.090   2.538   3.028 -0.1482 -0.2804 -0.2732
 5709TIP3    H117133   0.165   2.541   2.967  1.5422 -0.3199  1.6822
 5709TIP3    H217134   0.041   2.460   3.003  1.2618 -1.0479 -0.7482
 5710TIP3   OH217135   1.590   3.717   0.364 -0.6420 -0.3433  0.5273
 5710TIP3    H117136   1.640   3.641   0.334 -1.9418 -1.9128  2.1161
 5710TIP3    H217137   1.540   3.685   0.439 -1.8226  1.9008  0.7882
 5711TIP3   OH217138   0.243   1.301   1.025  0.3489  0.0478  0.0937
 5711TIP3    H117139   0.257   1.206   1.020  3.0630  0.3450  0.6286
 5711TIP3    H217140   0.279   1.335   0.944  0.1458  0.7153  0.2805
 5712TIP3   OH217141   2.665   2.914   2.052  0.3128 -0.1490  0.2130
 5712TIP3    H117142   2.575   2.947   2.048  0.9881  1.9573  1.1918
 5712TIP3    H217143   2.708   2.953   1.976  0.5986 -0.5544  0.1636
 5713TIP3   OH217144   2.698   1.287   0.588  0.0089  0.2882  0.6618
 5713TIP3    H117145   2.676   1.279   0.496  0.2075 -0.2825  0.6628
 5713TIP3    H217146   2.692   1.381   0.606  1.4358  0.5968 -0.3030
 5714TIP3   OH217147   1.688   5.665   2.095  0.3046 -0.6109 -0.4234
 5714TIP3    H117148   1.611   5.710   2.061 -1.2255 -3.7518 -1.4044
 5714TIP3    H217149   1.746   5.657   2.019 -0.4063 -2.1434 -0.8440
 5715TIP3   OH217150   1.470   4.887   5.053 -0.0522  0.1576 -0.3262
 5715TIP3    H117151   1.452   4.937   5.132  0.2556 -0.4285  0.1256
 5715TIP3    H217152   1.384   4.862   5.019 -0.2105  1.1532 -0.6638
 5716TIP3   OH217153   2.261   1.467   2.937 -0.8925  0.0541  0.0467
 5716TIP3    H117154   2.253   1.505   2.849 -2.3693 -1.8135 -0.6913
 5716TIP3    H217155   2.276   1.374   2.922 -2.2707 -0.4977  1.7716
 5717TIP3   OH217156   2.936   2.071   1.496 -0.1006  0.0431  0.7204
 5717TIP3    H117157   2.891   2.142   1.451  0.9255 -1.1774 -2.5385
 5717TIP3    H217158   2.977   2.113   1.571  1.0028  3.1186 -1.3896
 5718TIP3   OH217159   1.108   0.099   1.192  0.3502 -0.3590 -0.8483
 5718TIP3    H117160   1.097   0.091   1.287 -1.3011 -0.1472 -0.9867
 5718TIP3    H217161   1.161   0.023   1.167 -0.1205 -1.0219  0.1079
 5719TIP3   OH217162   1.533   0.476   1.297  0.2128 -0.0800  0.1609
 5719TIP3    H117163   1.462   0.414   1.279  1.4972 -1.2395 -1.2805
 5719TIP3    H217164   1.504   0.558   1.257  0.1694 -0.8749 -1.5253
 5720TIP3   OH217165   4.229   0.433   5.025 -0.0149 -0.6735  0.6399
 5720TIP3    H117166   4.273   0.512   5.054 -0.6922 -0.3624  0.8479
 5720TIP3    H217167   4.295   0.364   5.031  0.6441 -0.0886  0.2487
 5721TIP3   OH217168   0.065   0.880   4.358  0.1843  0.0803  0.4112
 5721TIP3    H117169   0.074   0.969   4.392  1.6420 -0.1036  0.6037
 5721TIP3    H217170  -0.002   0.887   4.291 -1.5987  0.7859  2.1732
 5722TIP3   OH217171   0.766   5.325   3.823 -0.1014  0.0615  0.3347
 5722TIP3    H117172   0.712   5.344   3.747 -0.2307 -2.5947 -0.3249
 5722TIP3    H217173   0.728   5.245   3.860  1.0075  0.3356  2.1793
 5723TIP3   OH217174   2.411   2.357   2.357 -0.2428  0.0298  0.2157
 5723TIP3    H117175   2.317   2.349   2.374  0.0132  0.6943  2.1433
 5723TIP3    H217176   2.438   2.434   2.407  1.4597 -0.5207  0.1936
 5724TIP3   OH217177   5.202   5.403   2.508 -0.1038  0.1783 -0.4233
 5724TIP3    H117178   5.155   5.408   2.592  0.6475 -1.4031  0.1243
 5724TIP3    H217179   5.172   5.322   2.468  0.7711  0.0958 -0.9297
 5725TIP3   OH217180   1.120   0.419   0.461  0.0027 -0.6083 -0.3565
 5725TIP3    H117181   1.106   0.507   0.427  1.3779  0.0038  0.5725
 5725TIP3    H217182   1.054   0.408   0.529 -0.2503 -0.3451 -0.5586
 5726TIP3   OH217183   5.790   5.070   2.418  0.1384  0.3627  0.2068
 5726TIP3    H117184   5.774   4.985   2.378  1.0039 -0.2232  1.0371
 5726TIP3    H217185   5.721   5.079   2.484  0.6519 -0.2007  0.8430
 5727TIP3   OH217186   2.807   2.657   1.497 -0.1053  0.6868  0.0772
 5727TIP3    H117187   2.750   2.692   1.428 -0.9684  2.4137  1.5588
 5727TIP3    H217188   2.895   2.682   1.469 -0.6265  3.7648  0.7374
 5728TIP3   OH217189   2.399   4.704   3.283  0.0983  0.1049  0.8002
 5728TIP3    H117190   2.493   4.694   3.299 -0.0675  0.5792  2.2493
 5728TIP3    H217191   2.366   4.748   3.362 -1.1492  1.0036 -0.1809
 5729TIP3   OH217192   3.510   0.107   1.799 -0.8005  0.1685 -0.2193
 5729TIP3    H117193   3.594   0.100   1.844 -1.2654  0.0015  0.6701
 5729TIP3    H217194   3.506   0.028   1.744 -0.1939  0.4045 -0.6128
 5730TIP3   OH217195   0.621   1.152   3.806 -0.5037  0.2307  0.1839
 5730TIP3    H117196   0.678   1.087   3.764 -0.4928  0.0521  0.4749
 5730TIP3    H217197   0.602   1.115   3.892 -0.6903  0.5042  0.2601
 5731TIP3   OH217198   1.631   0.797   4.699 -0.1248 -0.1075 -0.3523
 5731TIP3    H117199   1.673   0.744   4.767  0.7118 -1.5130 -1.8759
 5731TIP3    H217200   1.635   0.887   4.732  1.1983 -0.6129  0.9757
 5732TIP3   OH217201   3.945   3.297   4.915  0.7503  0.1992  0.4011
 5732TIP3    H117202   3.932   3.259   4.829  0.3209  0.8196  0.1872
 5732TIP3    H217203   4.039   3.316   4.919  1.2085 -1.8836  0.9504
 5733TIP3   OH217204   5.863   5.402   4.690 -0.1514 -0.1932 -0.6946
 5733TIP3    H117205   5.934   5.356   4.735  0.1155  0.8677  0.0286
 5733TIP3    H217206   5.841   5.347   4.616  0.0761 -1.5270  0.1919
 5734TIP3   OH217207   1.599   3.044   1.315 -0.2050  0.1639 -0.9653
 5734TIP3    H117208   1.628   2.954   1.302 -1.5178 -0.1831 -1.6878
 5734TIP3    H217209   1.549   3.065   1.236  1.5696  2.1711 -1.6562
 5735TIP3   OH217210   3.103   3.014   3.500  0.2109 -0.5781 -0.5208
 5735TIP3    H117211   3.083   2.933   3.549 -1.5427 -0.1367 -0.4420
 5735TIP3    H217212   3.142   3.072   3.565  0.4061 -0.9634 -0.2927
 5736TIP3   OH217213   5.656   0.801   3.822 -0.0018  0.5442  0.0260
 5736TIP3    H117214   5.575   0.750   3.830 -0.4021  1.3276  1.2811
 5736TIP3    H217215   5.726   0.738   3.839 -0.4095  0.1401  0.2303
 5737TIP3   OH217216   5.250   1.420   0.174 -0.3526 -0.4197 -0.3700
 5737TIP3    H117217   5.193   1.444   0.102 -0.4588 -0.4256 -0.2887
 5737TIP3    H217218   5.243   1.492   0.236 -0.5410 -0.5794 -0.2031
 5738TIP3   OH217219   3.308   4.161   2.115 -0.0500  0.1313  0.1886
 5738TIP3    H117220   3.216   4.144   2.135  0.1082 -0.2818  0.5908
 5738TIP3    H217221   3.344   4.193   2.198 -0.2158  1.9373 -0.4056
 5739TIP3   OH217222   3.029   0.189   1.018  0.2138 -0.2665 -0.5817
 5739TIP3    H117223   3.020   0.273   0.973 -0.1572  0.0452  0.0586
 5739TIP3    H217224   3.086   0.137   0.961 -0.9906 -0.2163 -1.8716
 5740TIP3   OH217225   3.750   3.559   0.379  0.0236  0.1648  0.1874
 5740TIP3    H117226   3.716   3.519   0.299  0.3514 -0.7105  0.4762
 5740TIP3    H217227   3.760   3.652   0.357 -0.9069  0.1309 -0.4400
 5741TIP3   OH217228   4.658  -0.025   3.255  0.0680 -0.2689 -0.4748
 5741TIP3    H117229   4.702  -0.029   3.340  0.3454 -1.5270 -0.6501
 5741TIP3    H217230   4.617   0.061   3.253 -1.7139 -0.9491  1.8374
 5742TIP3   OH217231   3.505   5.200   3.649  0.0265 -0.2030  0.4182
 5742TIP3    H117232   3.513   5.293   3.628  1.3834 -0.2056  0.8359
 5742TIP3    H217233   3.520   5.155   3.566 -0.5727 -0.0688  0.2276
 5743TIP3   OH217234   3.598   4.860   3.204 -0.9862  0.0337  0.2523
 5743TIP3    H117235   3.662   4.866   3.134  1.0182  0.7956  2.0185
 5743TIP3    H217236   3.522   4.910   3.174 -0.0497  0.6101 -1.2024
 5744TIP3   OH217237   4.387   0.965   2.471  0.0021  0.7459 -0.6681
 5744TIP3    H117238   4.293   0.976   2.465 -0.2082  1.0646  2.0712
 5744TIP3    H217239   4.403   0.875   2.443 -1.1456  0.6072 -0.9116
 5745TIP3   OH217240   5.605   0.116   2.048 -0.1244 -0.1168  0.7083
 5745TIP3    H117241   5.589   0.211   2.049 -0.2502 -0.1381  0.7427
 5745TIP3    H217242   5.700   0.108   2.055 -0.1973 -0.0253  2.0122
 5746TIP3   OH217243   1.347   5.559   3.112 -0.0419  0.6543 -0.1608
 5746TIP3    H117244   1.285   5.505   3.063 -1.1285  0.6254  1.1707
 5746TIP3    H217245   1.311   5.647   3.107  0.3073  0.8007 -0.1342
 5747TIP3   OH217246   5.861   2.217   2.147  0.3760 -0.2629 -0.0869
 5747TIP3    H117247   5.873   2.230   2.242 -0.0730 -0.7994  0.0478
 5747TIP3    H217248   5.799   2.144   2.141 -0.5227  0.5298 -0.7797
 5748TIP3   OH217249   2.638   4.318   1.563  0.8992  0.4036 -0.2340
 5748TIP3    H117250   2.715   4.367   1.592 -0.1884  1.4462  1.0148
 5748TIP3    H217251   2.646   4.232   1.603  1.5790  0.3852 -0.4068
 5749TIP3   OH217252   3.258   4.875   0.473  0.4570 -0.0945 -0.0922
 5749TIP3    H117253   3.314   4.901   0.546 -0.4058  1.5237  0.0402
 5749TIP3    H217254   3.189   4.941   0.471  0.1211 -0.4498 -2.0058
 5750TIP3   OH217255   2.891   5.141   4.611  0.4526 -0.9080  0.0325
 5750TIP3    H117256   2.869   5.048   4.615 -1.1362 -0.5465  0.3374
 5750TIP3    H217257   2.806   5.186   4.616  1.0921  0.5335 -1.3506
 5751TIP3   OH217258   3.415   5.298   4.222 -0.2181 -0.5937  0.1042
 5751TIP3    H117259   3.416   5.339   4.135  0.0815  1.2893  0.9422
 5751TIP3    H217260   3.324   5.306   4.251 -0.1263 -0.3725  0.3348
 5752TIP3   OH217261   0.321   5.701   0.291  0.1556 -0.4010  0.3359
 5752TIP3    H117262   0.396   5.741   0.336 -1.2393  1.4480  1.1378
 5752TIP3    H217263   0.312   5.752   0.211 -2.0138  1.4391  1.6498
 5753TIP3   OH217264   3.009   4.255   1.876  0.0849 -0.2822  0.3087
 5753TIP3    H117265   3.008   4.163   1.852  1.3122 -0.5058  0.9971
 5753TIP3    H217266   3.018   4.254   1.972  0.0702  0.5448  0.3225
 5754TIP3   OH217267   3.390   2.016   4.381  0.2328 -0.0404  0.3634
 5754TIP3    H117268   3.485   2.027   4.381  0.1801  0.4808  0.0458
 5754TIP3    H217269   3.362   2.055   4.464  0.3452 -0.7128  0.7224
 5755TIP3   OH217270   3.441   5.861   2.630 -0.2875 -0.3286 -0.0517
 5755TIP3    H117271   3.461   5.884   2.539 -0.4286  1.0507  0.2424
 5755TIP3    H217272   3.400   5.940   2.666 -0.8295 -1.0842  1.0271
 5756TIP3   OH217273   4.088   0.661   3.310  0.2357 -0.2303  0.0065
 5756TIP3    H117274   4.143   0.721   3.359  0.9208 -0.4202 -0.5147
 5756TIP3    H217275   3.998   0.689   3.330  0.4752  2.8132 -2.3409
 5757TIP3   OH217276   3.117   5.715   2.992  0.5573 -0.2959 -0.3837
 5757TIP3    H117277   3.198   5.675   2.960 -0.3809 -2.3699 -0.3193
 5757TIP3    H217278   3.147   5.786   3.049  2.2897  0.0551 -1.6277
 5758TIP3   OH217279   2.822   3.007   1.859  0.0689 -0.0159  0.7532
 5758TIP3    H117280   2.864   3.085   1.822 -0.2529 -0.0591  0.2853
 5758TIP3    H217281   2.869   2.934   1.820  1.0541 -0.0758  1.9763
 5759TIP3   OH217282   3.142   3.591   4.768 -0.0971  1.0745  0.4992
 5759TIP3    H117283   3.070   3.583   4.831 -0.0578  3.0219  0.8383
 5759TIP3    H217284   3.177   3.679   4.781  1.6306  0.5855 -0.4496
 5760TIP3   OH217285   4.399   2.324   3.610  0.1502 -0.2703 -0.3859
 5760TIP3    H117286   4.458   2.394   3.582  1.6929 -1.1747  0.4510
 5760TIP3    H217287   4.328   2.369   3.655 -0.3468  0.9186 -2.2383
 5761TIP3   OH217288   0.121   4.479   5.128  0.0260 -0.2121  0.2999
 5761TIP3    H117289   0.158   4.488   5.216  1.5114 -0.8671 -0.2259
 5761TIP3    H217290   0.197   4.479   5.070 -0.9300  0.1565 -0.9892
 5762TIP3   OH217291   1.629   0.933   4.176  0.0937 -0.5177  0.4133
 5762TIP3    H117292   1.716   0.903   4.147 -0.6452 -3.9696  1.2965
 5762TIP3    H217293   1.630   0.921   4.271 -1.0605  0.3690  0.5611
 5763TIP3   OH217294   1.304   1.291   2.561  0.0585 -0.1118 -0.2474
 5763TIP3    H117295   1.214   1.293   2.591  0.5293 -1.9219  1.5452
 5763TIP3    H217296   1.334   1.202   2.580  2.1762  0.3737 -0.9418
 5764TIP3   OH217297   2.044   1.569   0.324 -0.2454 -0.2331  0.3083
 5764TIP3    H117298   2.076   1.481   0.344 -0.7220 -0.2630  0.9673
 5764TIP3    H217299   1.979   1.557   0.255 -0.0688 -0.3531  0.1610
 5765TIP3   OH217300   1.643   5.145   3.694  0.4005  0.4137  0.1161
 5765TIP3    H117301   1.719   5.185   3.736 -0.1502 -0.9654  2.6163
 5765TIP3    H217302   1.577   5.140   3.763 -0.8298 -1.3434 -1.0995
 5766TIP3   OH217303   2.592   3.593   1.972  0.1977  0.6621 -0.4623
 5766TIP3    H117304   2.669   3.577   1.917  0.1856  2.6590 -1.1757
 5766TIP3    H217305   2.610   3.547   2.053  1.3964 -0.2701 -1.2207
 5767TIP3   OH217306   2.597   5.324   2.926  0.1855  0.5737 -1.0905
 5767TIP3    H117307   2.629   5.294   3.011 -0.3911 -0.6090 -1.2701
 5767TIP3    H217308   2.646   5.404   2.909  0.7610  0.4892  0.0655
 5768TIP3   OH217309   1.792   4.260   3.274 -0.7694  0.7662 -0.2892
 5768TIP3    H117310   1.815   4.339   3.323 -0.0304  0.3233  0.0847
 5768TIP3    H217311   1.760   4.199   3.340  0.8551 -0.0685 -0.2361
 5769TIP3   OH217312   1.978   2.326   2.700 -0.3438 -0.1299 -0.3144
 5769TIP3    H117313   1.910   2.308   2.764 -0.6738  1.3022 -0.2256
 5769TIP3    H217314   2.046   2.371   2.749 -0.4393  0.6567 -0.8831
 5770TIP3   OH217315   2.994   5.279   3.936 -0.7389 -0.4914  0.3286
 5770TIP3    H117316   3.050   5.202   3.945 -1.4196 -1.4650 -2.6188
 5770TIP3    H217317   2.908   5.243   3.914 -0.9992  1.0652 -1.4458
 5771TIP3   OH217318   0.834   2.891   2.229  0.0345  0.4459 -0.3008
 5771TIP3    H117319   0.861   2.870   2.319 -0.7864 -0.6839 -0.3048
 5771TIP3    H217320   0.854   2.985   2.220  2.6110  0.0382  0.1654
 5772TIP3   OH217321   5.941   1.355   4.430 -0.0525  0.0239  0.6451
 5772TIP3    H117322   5.947   1.318   4.519  0.9166 -2.3716 -0.3209
 5772TIP3    H217323   6.031   1.380   4.409 -0.2985  0.6715  0.3571
 5773TIP3   OH217324   5.956   5.235   3.425  0.2595 -0.1560  0.3065
 5773TIP3    H117325   6.046   5.259   3.442 -0.1072  0.9274  0.7839
 5773TIP3    H217326   5.952   5.222   3.330  0.7875  0.3547  0.2100
 5774TIP3   OH217327   4.049   3.855   3.485 -0.1971  0.2078  0.0198
 5774TIP3    H117328   4.073   3.911   3.411  0.1235 -0.9977 -0.8347
 5774TIP3    H217329   3.980   3.798   3.451  0.7404 -1.1372  0.2539
 5775TIP3   OH217330   3.849   3.727   4.890 -0.3221  0.0002  0.1890
 5775TIP3    H117331   3.790   3.702   4.819 -0.1858  1.5156 -0.5139
 5775TIP3    H217332   3.798   3.789   4.942 -0.1395 -0.4744  0.9458
 5776TIP3   OH217333   4.555   0.328   3.880 -0.5168  0.4979 -0.1662
 5776TIP3    H117334   4.498   0.323   3.803 -3.4665  3.9664  1.4937
 5776TIP3    H217335   4.626   0.386   3.853  0.5827 -1.2752 -1.2802
 5777TIP3   OH217336   4.894   3.408   1.233  0.6646  0.1383  0.1889
 5777TIP3    H117337   4.910   3.320   1.200  1.8287  0.4913 -0.2442
 5777TIP3    H217338   4.933   3.408   1.321 -2.1258 -0.6976  1.5575
 5778TIP3   OH217339   2.067   0.471   0.653  0.2561  0.3483  0.3819
 5778TIP3    H117340   2.105   0.437   0.734  1.5626  2.7160  0.8693
 5778TIP3    H217341   1.979   0.500   0.678 -0.1104 -0.7674  0.4342
 5779TIP3   OH217342   1.956   5.412   1.549 -0.0039 -0.2177 -0.2302
 5779TIP3    H117343   1.976   5.331   1.502 -1.7222 -0.8699  0.1075
 5779TIP3    H217344   1.988   5.481   1.491  1.3075 -1.1040 -0.6152
 5780TIP3   OH217345   5.412   1.062   3.213  0.4433 -0.3666  0.3906
 5780TIP3    H117346   5.441   1.040   3.124 -1.8604 -0.5748 -0.3853
 5780TIP3    H217347   5.317   1.067   3.206  0.1958 -0.4156  2.8880
 5781TIP3   OH217348   5.184   5.190   0.333 -0.9953 -0.1761  0.2101
 5781TIP3    H117349   5.184   5.264   0.272 -1.2387  0.3149  0.8068
 5781TIP3    H217350   5.208   5.115   0.278 -0.9459  0.3038 -0.4397
 5782TIP3   OH217351   0.419   5.682   1.930  0.1459  0.1676 -0.3247
 5782TIP3    H117352   0.381   5.724   2.007 -0.0953 -0.0752 -0.3090
 5782TIP3    H217353   0.512   5.674   1.950 -0.2474 -2.0029  0.9337
 5783TIP3   OH217354   2.091   1.558   3.645  0.6564  0.8548 -0.4365
 5783TIP3    H117355   2.006   1.515   3.647  0.4981  0.9618 -2.4801
 5783TIP3    H217356   2.086   1.618   3.571  2.2473  1.4597 -0.1080
 5784TIP3   OH217357   0.926   3.536   3.963 -0.1332  0.5866 -0.0156
 5784TIP3    H117358   0.967   3.463   4.009  1.7711  1.0058 -0.9255
 5784TIP3    H217359   0.833   3.529   3.984  0.4484 -0.0162  2.7704
 5785TIP3   OH217360   6.288   4.456   4.125 -0.3991  0.0260 -0.2860
 5785TIP3    H117361   6.212   4.410   4.159 -1.7769  0.4473 -2.5920
 5785TIP3    H217362   6.314   4.406   4.048  0.9177  0.5961 -0.2481
 5786TIP3   OH217363   5.716   3.349   0.254  0.4946  0.4446 -0.1730
 5786TIP3    H117364   5.776   3.344   0.179  1.2762 -0.0819  0.4639
 5786TIP3    H217365   5.727   3.265   0.299 -2.5649 -0.7350 -1.3635
 5787TIP3   OH217366   6.256   5.769   3.164 -0.2681  0.2447 -0.5119
 5787TIP3    H117367   6.307   5.787   3.243  0.1602  0.6330 -0.8693
 5787TIP3    H217368   6.320   5.769   3.093 -0.4023 -1.7088 -0.6871
 5788TIP3   OH217369   1.603   5.465   3.155  0.4911 -0.0412  0.1590
 5788TIP3    H117370   1.614   5.441   3.247 -0.7719  0.9457  0.6019
 5788TIP3    H217371   1.514   5.502   3.150  0.4554 -0.2531 -1.4990
 5789TIP3   OH217372   5.995   1.803   2.001  0.4070  0.2328 -0.3974
 5789TIP3    H117373   5.940   1.821   1.925  1.1058  0.0369 -0.9646
 5789TIP3    H217374   6.000   1.886   2.048 -0.2191  0.2962 -0.4365
 5790TIP3   OH217375   2.078   3.894   0.628 -0.1220  0.4923 -0.0685
 5790TIP3    H117376   2.060   3.988   0.619  0.9244  0.6897 -0.2173
 5790TIP3    H217377   2.171   3.890   0.653 -0.1912 -0.5010  0.0575
 5791TIP3   OH217378   4.227   2.110   5.072  0.4496  0.0646 -0.3105
 5791TIP3    H117379   4.172   2.172   5.118  1.5373  1.3917 -0.7142
 5791TIP3    H217380   4.184   2.025   5.084 -0.2321  0.6366  1.5965
 5792TIP3   OH217381   1.973   3.420   2.523  0.7758 -0.0895 -0.3059
 5792TIP3    H117382   1.978   3.367   2.602  1.5336 -0.7023 -0.7490
 5792TIP3    H217383   2.042   3.486   2.534  0.0179  0.6568  0.1193
 5793TIP3   OH217384   2.236   5.005   4.000 -0.3553 -0.6475  0.2049
 5793TIP3    H117385   2.280   4.928   4.037 -0.0113 -0.0945  0.9824
 5793TIP3    H217386   2.282   5.022   3.918  2.2162  0.9988  1.8272
 5794TIP3   OH217387   0.202   2.315   3.376  0.1510 -0.1403 -0.5485
 5794TIP3    H117388   0.189   2.243   3.313  0.2157  0.7962 -1.6776
 5794TIP3    H217389   0.295   2.337   3.367  0.2543 -0.2631  0.1911
 5795TIP3   OH217390   3.689   0.630   3.129  0.7421  0.6132  0.1593
 5795TIP3    H117391   3.744   0.592   3.060  1.2995  2.7938 -0.6942
 5795TIP3    H217392   3.608   0.580   3.126  1.5631 -0.7279 -0.6044
 5796TIP3   OH217393   2.963   5.590   3.432  0.0343 -0.3372 -0.1539
 5796TIP3    H117394   3.047   5.594   3.386  0.1100  1.7843  0.0823
 5796TIP3    H217395   2.983   5.550   3.516  0.7333 -0.2353 -0.2667
 5797TIP3   OH217396   3.578   2.639   1.856  0.5400  0.0407  0.2399
 5797TIP3    H117397   3.559   2.635   1.762 -0.1588  0.6817  0.3494
 5797TIP3    H217398   3.663   2.596   1.864  0.5987 -0.0482 -0.6860
 5798TIP3   OH217399   2.184   5.738   4.428  0.0484 -0.1929 -0.0442
 5798TIP3    H117400   2.138   5.817   4.457  0.0335  0.8194 -2.6328
 5798TIP3    H217401   2.267   5.739   4.476 -1.1432 -0.2432  2.1556
 5799TIP3   OH217402   1.083   0.219   1.723  0.3190 -0.4084  0.1911
 5799TIP3    H117403   1.084   0.315   1.732 -0.0914 -0.4270  0.4530
 5799TIP3    H217404   1.118   0.187   1.807  1.8170 -0.4625 -0.4299
 5800TIP3   OH217405   5.503   1.360   3.150 -0.0645 -0.1762 -0.5012
 5800TIP3    H117406   5.473   1.366   3.241  1.4780  2.8026 -0.0478
 5800TIP3    H217407   5.424   1.377   3.098 -0.2895  2.4296  0.5047
 5801TIP3   OH217408   1.505   5.128   1.672  0.6508 -0.3662  0.1624
 5801TIP3    H117409   1.420   5.157   1.639  0.3161 -1.8554 -0.3639
 5801TIP3    H217410   1.566   5.150   1.601  0.5116 -0.3698  0.0400
 5802TIP3   OH217411   1.327   2.164   0.511 -0.0850  0.1391  0.0640
 5802TIP3    H117412   1.398   2.122   0.558  1.3741  2.5614  0.1795
 5802TIP3    H217413   1.263   2.185   0.578  0.9127  1.4617  0.6238
 5803TIP3   OH217414   0.842   5.653   0.225  0.4907  0.3032 -0.5107
 5803TIP3    H117415   0.838   5.672   0.132  1.9716  1.4563 -0.3712
 5803TIP3    H217416   0.927   5.610   0.237  0.7094  0.9702  0.4320
 5804TIP3   OH217417   2.946   2.295   4.486 -0.1800  0.5002  0.9192
 5804TIP3    H117418   2.974   2.285   4.395 -3.2176 -1.0507  0.0148
 5804TIP3    H217419   3.024   2.276   4.537  1.1482 -0.5374 -1.3454
 5805TIP3   OH217420   2.705   5.225   3.836 -0.1461  0.1885 -0.1884
 5805TIP3    H117421   2.665   5.310   3.818  0.7567  0.6977  0.1437
 5805TIP3    H217422   2.736   5.194   3.751 -0.3261  0.2753 -0.2842
 5806TIP3   OH217423   2.117   2.569   1.671 -0.2297  0.6985 -0.7268
 5806TIP3    H117424   2.110   2.473   1.672  0.0128  0.6191  1.8479
 5806TIP3    H217425   2.149   2.590   1.584 -1.4159 -1.4596 -1.7694
 5807TIP3   OH217426   4.497   2.217   1.357  0.1763  0.3167  0.1608
 5807TIP3    H117427   4.538   2.160   1.422 -0.1017 -1.5597 -1.2174
 5807TIP3    H217428   4.559   2.217   1.284  0.1880  1.8702  0.1503
 5808TIP3   OH217429   5.717   2.367   4.944  0.0421 -0.1374 -0.1182
 5808TIP3    H117430   5.794   2.349   4.998 -0.5643 -0.4402  0.6594
 5808TIP3    H217431   5.646   2.318   4.986 -0.8084  1.0076 -0.1781
 5809TIP3   OH217432   2.056   4.327   1.521 -0.0492 -0.1612  0.3904
 5809TIP3    H117433   2.000   4.392   1.477  0.0074  1.3444  2.3924
 5809TIP3    H217434   2.141   4.337   1.479 -0.2876  0.3765  0.0215
 5810TIP3   OH217435   1.646   2.272   3.742  0.2272 -0.1357 -0.5689
 5810TIP3    H117436   1.715   2.331   3.771  0.1632 -0.1093 -0.4691
 5810TIP3    H217437   1.619   2.226   3.822  1.1851 -1.2571 -0.8703
 5811TIP3   OH217438   2.398   4.113   3.848  0.2083 -0.0984  0.2911
 5811TIP3    H117439   2.342   4.060   3.790  1.8964  0.0743 -1.6214
 5811TIP3    H217440   2.481   4.064   3.852  0.8767  1.0374  0.7246
 5812TIP3   OH217441   5.978   2.865   4.196 -0.2821  0.3403 -0.5342
 5812TIP3    H117442   5.937   2.938   4.149  1.4708  1.6308 -0.1516
 5812TIP3    H217443   6.052   2.840   4.142  0.1025 -0.0586  0.1640
 5813TIP3   OH217444   5.004   5.056   0.016 -0.1790  0.3376  0.1114
 5813TIP3    H117445   4.928   4.998   0.007 -0.1594  0.0207  1.6832
 5813TIP3    H217446   4.973   5.140  -0.017 -1.6100  0.4905  1.6684
 5814TIP3   OH217447   1.221   0.491   1.978 -0.2140  0.3968 -0.3004
 5814TIP3    H117448   1.268   0.531   1.905  1.2908 -1.6635 -0.5472
 5814TIP3    H217449   1.235   0.397   1.967  1.3863  0.0153  3.4495
 5815TIP3   OH217450   3.175   5.881   1.681  0.8083 -0.2791  0.1477
 5815TIP3    H117451   3.246   5.858   1.741  1.1077  0.6915  0.1792
 5815TIP3    H217452   3.215   5.941   1.618  0.6009 -1.5952 -1.2936
 5816TIP3   OH217453   6.096   4.879   4.132  0.0816  0.1794  0.2611
 5816TIP3    H117454   6.147   4.811   4.088  0.0782  0.6080 -0.4269
 5816TIP3    H217455   6.053   4.834   4.205 -0.7981 -0.8233 -0.8275
 5817TIP3   OH217456   4.607   5.663   4.781 -0.3723 -0.1893  0.0556
 5817TIP3    H117457   4.616   5.596   4.848  1.6492  1.6191  1.7519
 5817TIP3    H217458   4.518   5.652   4.748 -0.2411 -3.3715  0.5186
 5818TIP3   OH217459   4.473   3.711   2.609 -0.3616  0.9001  0.0619
 5818TIP3    H117460   4.528   3.752   2.542  1.3027  2.5297  2.2575
 5818TIP3    H217461   4.397   3.770   2.616 -0.3091  0.9835 -0.0537
 5819TIP3   OH217462   3.672   5.264   2.217  0.8407  0.1306 -0.8190
 5819TIP3    H117463   3.606   5.257   2.148 -1.5432 -0.4350  1.3787
 5819TIP3    H217464   3.704   5.355   2.210 -0.9935  0.7873 -1.2780
 5820TIP3   OH217465   5.372   0.894   0.892 -0.0917 -0.2416  0.6015
 5820TIP3    H117466   5.461   0.904   0.858 -0.1554  0.6190  0.6700
 5820TIP3    H217467   5.323   0.855   0.819 -0.0302  0.8015 -0.0175
 5821TIP3   OH217468   1.734   3.799   5.086  0.1132 -0.3547 -0.0045
 5821TIP3    H117469   1.762   3.764   5.170 -0.6506  0.0547  0.4364
 5821TIP3    H217470   1.792   3.873   5.070 -0.3257  0.1345  0.6188
 5822TIP3   OH217471   2.392   5.291   3.608 -0.4468 -0.5241 -0.4455
 5822TIP3    H117472   2.460   5.356   3.629 -0.2324 -0.2051 -2.0194
 5822TIP3    H217473   2.310   5.340   3.615 -0.6925 -1.1536  2.4675
 5823TIP3   OH217474   4.859   3.401   3.739 -0.0638 -0.6404 -0.5406
 5823TIP3    H117475   4.921   3.341   3.782  0.5258  0.1476 -0.2604
 5823TIP3    H217476   4.816   3.447   3.812 -1.3093 -1.4724 -0.7154
 5824TIP3   OH217477   0.110   5.399   4.152  0.0752  0.3471 -0.8868
 5824TIP3    H117478   0.193   5.383   4.196 -0.7175 -2.0663 -0.0853
 5824TIP3    H217479   0.083   5.485   4.182  1.7242  0.6764 -0.2365
 5825TIP3   OH217480   0.803   5.889   0.346  0.8803  0.1078 -0.5819
 5825TIP3    H117481   0.711   5.902   0.368  1.0444  0.6996 -0.2462
 5825TIP3    H217482   0.814   5.794   0.345  0.3438  0.0423 -0.3139
 5826TIP3   OH217483   2.847   4.716   4.353 -0.1842  0.2543  0.3457
 5826TIP3    H117484   2.811   4.793   4.309 -1.1537 -0.3241  0.0994
 5826TIP3    H217485   2.806   4.642   4.308  1.4701 -0.4424 -0.0605
 5827TIP3   OH217486   4.878   0.358   2.532  1.1328  0.3405 -0.5557
 5827TIP3    H117487   4.789   0.391   2.546  0.3050 -1.6073 -0.8713
 5827TIP3    H217488   4.893   0.298   2.604  1.9077  0.0764 -0.9260
 5828TIP3   OH217489   0.871   5.340   3.291  0.3538 -0.0878 -0.4983
 5828TIP3    H117490   0.845   5.359   3.381  0.9957 -0.3499 -0.2525
 5828TIP3    H217491   0.929   5.264   3.298  0.7650  0.1650 -1.0782
 5829TIP3   OH217492   0.650   1.329   1.829 -0.0365 -0.6952  0.1609
 5829TIP3    H117493   0.568   1.353   1.872  1.0710  1.7439  1.0852
 5829TIP3    H217494   0.623   1.268   1.760 -2.5785 -0.2701  0.6564
 5830TIP3   OH217495   0.460   1.738   0.958 -0.2546 -0.2202 -0.5911
 5830TIP3    H117496   0.464   1.643   0.946  1.2691 -0.5348  1.7171
 5830TIP3    H217497   0.551   1.765   0.969 -0.7792  1.2069  0.5851
 5831TIP3   OH217498   4.749   4.096   0.890  0.0947  0.1884  0.2731
 5831TIP3    H117499   4.709   4.147   0.820  0.2134 -1.5596 -1.1309
 5831TIP3    H217500   4.829   4.060   0.851 -0.2742 -1.5278  1.0179
 5832TIP3   OH217501   2.310   1.212   0.556 -0.5356  0.0621  0.2538
 5832TIP3    H117502   2.329   1.118   0.561  2.6574  0.6423  1.2744
 5832TIP3    H217503   2.353   1.241   0.476 -0.8004  0.7929  0.3721
 5833TIP3   OH217504   2.840   4.965   2.708  0.3928 -0.4328  0.0370
 5833TIP3    H117505   2.753   4.995   2.684  0.3790 -0.2011  0.3659
 5833TIP3    H217506   2.893   5.044   2.709  0.5113 -0.5135  0.2423
 5834TIP3   OH217507   1.234   1.182   1.836 -0.0535 -0.4470 -0.4895
 5834TIP3    H117508   1.293   1.255   1.816  0.7524 -0.9746 -0.0359
 5834TIP3    H217509   1.196   1.205   1.921 -1.7202  0.6514 -1.4565
 5835TIP3   OH217510   4.016   1.723   1.651  0.0794  0.1930 -0.3745
 5835TIP3    H117511   3.970   1.708   1.733 -1.9745 -2.7906 -1.8772
 5835TIP3    H217512   4.109   1.719   1.674 -0.3875  1.7242  2.0693
 5836TIP3   OH217513   5.901   1.812   4.205  0.3031  0.0282 -0.1683
 5836TIP3    H117514   5.971   1.749   4.218 -2.0429 -2.4367  1.5242
 5836TIP3    H217515   5.841   1.770   4.143 -2.1081 -0.2435  2.1863
 5837TIP3   OH217516   0.647   3.927   0.040  0.5653 -0.5417 -0.7708
 5837TIP3    H117517   0.687   4.014   0.032 -0.6408  0.0272 -0.8787
 5837TIP3    H217518   0.575   3.940   0.102 -1.9350 -0.5628 -3.4336
 5838TIP3   OH217519   2.166   4.573   4.505  0.2922 -0.6364 -0.9204
 5838TIP3    H117520   2.074   4.573   4.531  0.4317 -0.4887 -0.4149
 5838TIP3    H217521   2.210   4.629   4.570  0.5179  0.4313 -1.9614
 5839TIP3   OH217522   6.039   2.771   0.646  0.4695 -0.1902  0.6472
 5839TIP3    H117523   5.977   2.699   0.657 -0.2238 -0.1248 -2.1108
 5839TIP3    H217524   6.006   2.841   0.701 -0.4348 -1.0264  1.1936
 5840TIP3   OH217525   2.185   3.336   1.131  0.1592  0.2223  0.2539
 5840TIP3    H117526   2.199   3.387   1.211  0.0134  1.3886 -0.4403
 5840TIP3    H217527   2.272   3.304   1.107  0.8085  2.6382 -0.8950
 5841TIP3   OH217528   2.916   3.765   3.265  0.0096 -0.2114  1.0170
 5841TIP3    H117529   2.999   3.744   3.222 -0.2149  1.3240 -0.3055
 5841TIP3    H217530   2.857   3.694   3.240  0.1064  0.2532 -0.6416
 5842TIP3   OH217531   2.467   2.413   5.021  0.1200 -0.1391  0.0991
 5842TIP3    H117532   2.534   2.431   4.955 -2.7378 -1.0282 -3.3161
 5842TIP3    H217533   2.479   2.321   5.043  0.5766 -0.0444  0.2655
 5843TIP3   OH217534   4.922   2.466   3.972 -0.1542  0.2211  0.0814
 5843TIP3    H117535   4.832   2.448   3.948 -0.5374  0.7918  1.0201
 5843TIP3    H217536   4.947   2.393   4.030 -0.8840  1.3161  1.8720
 5844TIP3   OH217537   2.936   4.490   0.727 -0.0866  0.0761 -0.3610
 5844TIP3    H117538   2.961   4.532   0.644  1.7540  0.4646  0.3415
 5844TIP3    H217539   2.879   4.418   0.701 -0.9030  1.2033 -1.8346
 5845TIP3   OH217540   1.772   1.804   2.900 -0.5604 -0.0113 -0.1204
 5845TIP3    H117541   1.856   1.760   2.912  0.6478  1.3280 -2.8327
 5845TIP3    H217542   1.711   1.733   2.881  0.6198 -0.8216 -1.0867
 5846TIP3   OH217543   4.087   0.904   2.383  0.4853  0.3827 -0.0084
 5846TIP3    H117544   4.123   0.817   2.395 -1.2354 -0.3659  0.0565
 5846TIP3    H217545   4.061   0.907   2.291 -0.2794  0.4878  0.2039
 5847TIP3   OH217546   2.885   2.680   4.750  0.4375 -0.1318  0.6054
 5847TIP3    H117547   2.933   2.762   4.740 -2.6744  1.8073 -0.0735
 5847TIP3    H217548   2.903   2.631   4.670  1.7122  0.2224  0.6580
 5848TIP3   OH217549   2.711   4.425   1.835  0.2553  0.1759 -0.1025
 5848TIP3    H117550   2.776   4.408   1.766 -0.4493  0.0879 -0.7595
 5848TIP3    H217551   2.668   4.340   1.847  2.0793 -0.5338  2.3058
 5849TIP3   OH217552   5.286   2.819   4.208 -0.2484 -0.5010  0.0526
 5849TIP3    H117553   5.264   2.911   4.225  3.3190  0.1648  2.1241
 5849TIP3    H217554   5.220   2.769   4.256 -2.3590  0.8704 -1.2340
 5850TIP3   OH217555   1.824   3.672   0.660 -0.0617  0.0830  0.1320
 5850TIP3    H117556   1.748   3.695   0.712  0.0741  1.4204 -0.2411
 5850TIP3    H217557   1.825   3.735   0.588  1.7960  0.5726  0.5303
 5851TIP3   OH217558   6.338   4.296   0.165  0.1391  0.8697  0.4052
 5851TIP3    H117559   6.362   4.290   0.073  0.9061  0.9542  0.5961
 5851TIP3    H217560   6.256   4.246   0.172  0.5669  0.0791 -0.1405
 5852TIP3   OH217561   0.974   2.063   1.672  0.0165  0.1813 -0.3815
 5852TIP3    H117562   1.069   2.065   1.683  0.0323  0.2924 -0.5369
 5852TIP3    H217563   0.947   1.979   1.709  0.2550 -0.1737 -1.0104
 5853TIP3   OH217564   1.247   2.809   2.383 -0.6070  0.1979  0.1761
 5853TIP3    H117565   1.172   2.869   2.387 -0.9066  0.0439 -2.0728
 5853TIP3    H217566   1.207   2.722   2.383 -0.4444  0.1157 -1.0028
 5854TIP3   OH217567   4.749   2.282   4.599 -0.4670 -0.5188 -0.1996
 5854TIP3    H117568   4.749   2.354   4.661 -1.7437  0.0995 -0.8683
 5854TIP3    H217569   4.696   2.214   4.642  0.0283 -0.7363  0.0728
 5855TIP3   OH217570   2.137   0.551   3.669  0.0863 -0.0359 -0.2774
 5855TIP3    H117571   2.180   0.486   3.725 -2.3685 -1.8821 -0.3705
 5855TIP3    H217572   2.117   0.624   3.728  0.1407 -0.6880  0.5724
 5856TIP3   OH217573   5.366   3.141   0.500 -0.1957 -0.1627 -0.3998
 5856TIP3    H117574   5.408   3.071   0.550 -3.5606 -0.8407  1.8901
 5856TIP3    H217575   5.347   3.208   0.565 -1.8105  0.4363 -1.4294
 5857TIP3   OH217576   5.969   4.394   4.519 -0.5503 -0.7439  0.0661
 5857TIP3    H117577   6.062   4.398   4.496  0.2885  2.9834  3.0144
 5857TIP3    H217578   5.925   4.431   4.443  0.2530 -2.5991 -1.3971
 5858TIP3   OH217579   5.410   3.417   2.743  1.3505 -0.1799 -0.1862
 5858TIP3    H117580   5.429   3.323   2.745  1.6609 -0.1108  1.4121
 5858TIP3    H217581   5.355   3.432   2.820 -1.2087  0.4789 -2.0429
 5859TIP3   OH217582   5.295   1.667   4.887 -0.3489 -0.0408 -1.0712
 5859TIP3    H117583   5.284   1.711   4.802  0.8972 -1.8218 -2.2290
 5859TIP3    H217584   5.277   1.575   4.868  1.9239 -0.7900  0.1367
 5860TIP3   OH217585   3.859   4.252   4.235  0.0879  0.0440 -0.3637
 5860TIP3    H117586   3.847   4.210   4.150  1.2737  1.8072 -1.4806
 5860TIP3    H217587   3.948   4.229   4.262  1.1531  2.4282 -1.4724
 5861TIP3   OH217588   1.198   5.664   2.078 -0.2388 -0.5276  0.6401
 5861TIP3    H117589   1.208   5.699   1.989  0.2548 -0.4837  0.7141
 5861TIP3    H217590   1.105   5.677   2.098 -0.2121  0.0755  0.3902
 5862TIP3   OH217591   1.154   4.289   3.290 -0.1394  0.2611 -0.1003
 5862TIP3    H117592   1.236   4.248   3.317  0.4513  1.9754  0.8182
 5862TIP3    H217593   1.166   4.308   3.197 -0.5266 -1.7903 -0.6208
 5863TIP3   OH217594   2.826   2.390   3.199  0.2690  0.7429  0.6996
 5863TIP3    H117595   2.796   2.466   3.249 -2.0628  0.8671 -0.7080
 5863TIP3    H217596   2.802   2.411   3.108  2.5710 -0.2977 -0.2275
 5864TIP3   OH217597   1.638   0.265   3.640  0.2314  0.4469  0.3088
 5864TIP3    H117598   1.722   0.308   3.659  1.0193  0.1861 -2.3093
 5864TIP3    H217599   1.633   0.262   3.545 -2.3567 -0.3987  0.3931
 5865TIP3   OH217600   2.960   0.295   4.707  0.0506 -0.3824 -0.1786
 5865TIP3    H117601   3.007   0.309   4.624  0.6114 -1.1035  0.0132
 5865TIP3    H217602   2.958   0.382   4.747  1.3680 -0.3520 -0.1171
 5866TIP3   OH217603   1.166   1.245   3.721 -0.0658  0.3890  0.9375
 5866TIP3    H117604   1.242   1.277   3.770 -0.0453  0.8999  0.5703
 5866TIP3    H217605   1.165   1.297   3.641 -0.2497 -0.2713  0.5044
 5867TIP3   OH217606   2.709   0.146   0.000 -0.4953 -0.1211 -0.5240
 5867TIP3    H117607   2.698   0.157   0.095 -1.1630  0.3419 -0.6433
 5867TIP3    H217608   2.781   0.085  -0.009  0.4061  0.7865  0.2655
 5868TIP3   OH217609   3.641   4.932   1.629  0.6148 -0.1281 -0.2893
 5868TIP3    H117610   3.708   4.980   1.677 -0.1749  0.3556  0.3440
 5868TIP3    H217611   3.559   4.951   1.675  0.1914 -1.6206 -0.3506
 5869TIP3   OH217612   3.542   4.953   4.897 -0.1787  0.2264  0.0102
 5869TIP3    H117613   3.536   5.031   4.842 -0.8587 -0.3390 -0.7444
 5869TIP3    H217614   3.553   4.881   4.835 -0.2730 -0.3606  0.6593
 5870TIP3   OH217615   2.046   0.257   3.330  0.2155  0.2352 -0.5673
 5870TIP3    H117616   2.029   0.313   3.255  1.8473 -0.0938 -1.2184
 5870TIP3    H217617   1.974   0.194   3.330 -0.9091  1.4831 -0.6103
 5871TIP3   OH217618   5.460   5.205   1.680 -0.0182  0.0358  0.3082
 5871TIP3    H117619   5.392   5.139   1.687  0.5522 -0.4260  1.9014
 5871TIP3    H217620   5.437   5.255   1.602 -0.1404 -2.3979 -1.3191
 5872TIP3   OH217621   1.702   5.223   2.234 -0.4172 -0.0927  0.0534
 5872TIP3    H117622   1.671   5.198   2.321 -2.4179  1.1745 -0.2294
 5872TIP3    H217623   1.658   5.306   2.215  1.5078  0.6915 -1.3737
 5873TIP3   OH217624   2.328   5.034   3.735 -0.6093  0.0462  0.2375
 5873TIP3    H117625   2.343   5.110   3.678 -0.2810  1.4865  2.1289
 5873TIP3    H217626   2.264   4.981   3.689 -3.7537  3.3289  0.3717
 5874TIP3   OH217627   1.461   3.046   5.054 -0.1576  0.4808 -0.2716
 5874TIP3    H117628   1.472   3.131   5.098 -0.2589  0.3518  0.0028
 5874TIP3    H217629   1.536   3.040   4.995 -1.9229  2.3617 -2.9161
 5875TIP3   OH217630   4.672   0.801   3.336 -0.8112 -0.0332 -0.1596
 5875TIP3    H117631   4.722   0.776   3.258 -1.1834 -1.1831 -0.0403
 5875TIP3    H217632   4.738   0.805   3.405 -0.4624  1.0855 -0.5262
 5876TIP3   OH217633   0.101   5.849   3.723 -0.1476  0.2593  0.0927
 5876TIP3    H117634   0.088   5.938   3.689 -0.2946  1.2266  2.4770
 5876TIP3    H217635   0.014   5.809   3.719 -0.0420  0.1352 -1.1769
 5877TIP3   OH217636   3.351   2.971   1.306  0.2940 -0.3126 -1.1657
 5877TIP3    H117637   3.429   2.916   1.307  1.1343  0.8414 -0.4494
 5877TIP3    H217638   3.359   3.026   1.384 -1.0640  0.0731 -1.2668
 5878TIP3   OH217639   6.161  -0.030   3.267 -0.1208 -0.1307 -0.2657
 5878TIP3    H117640   6.141  -0.025   3.174 -1.3872 -0.6393 -0.0547
 5878TIP3    H217641   6.173   0.060   3.295  0.0146  0.0409 -0.8800
 5879TIP3   OH217642   1.026   4.249   0.994  1.0355  0.4740  1.0304
 5879TIP3    H117643   1.119   4.225   0.993  0.8335 -0.3222 -0.0094
 5879TIP3    H217644   1.004   4.265   0.903 -0.2604 -1.0536  1.0347
 5880TIP3   OH217645   1.380   3.924   0.559  0.0474 -0.3968  0.5437
 5880TIP3    H117646   1.334   3.943   0.641 -0.6225 -1.4801  0.4390
 5880TIP3    H217647   1.311   3.927   0.492  0.5945  0.5280 -0.0102
 5881TIP3   OH217648   0.010   5.109   3.752 -0.0071 -0.9390 -0.1442
 5881TIP3    H117649  -0.063   5.091   3.811  0.3603  0.5865  0.8481
 5881TIP3    H217650   0.064   5.172   3.800  1.1753 -0.8964 -1.4630
 5882TIP3   OH217651   0.459   0.701   1.755  0.0178  0.2671 -0.3648
 5882TIP3    H117652   0.389   0.717   1.692  1.0952  1.0268 -1.4031
 5882TIP3    H217653   0.538   0.696   1.702  1.0771  1.7637  1.0030
 5883TIP3   OH217654   1.873   3.568   2.849  0.0929  0.0376  0.1675
 5883TIP3    H117655   1.886   3.655   2.813 -0.4570 -0.1912 -0.6207
 5883TIP3    H217656   1.779   3.552   2.840  0.2275 -0.7446  0.0317
 5884TIP3   OH217657   3.677   0.186   3.608 -0.4915  0.2264  0.5469
 5884TIP3    H117658   3.754   0.160   3.558 -1.8689 -0.2221 -1.4979
 5884TIP3    H217659   3.673   0.281   3.600 -0.7704  0.1459 -0.3589
 5885TIP3   OH217660   0.583   1.822   4.817 -0.2607  0.1637 -0.0679
 5885TIP3    H117661   0.623   1.825   4.730 -0.8852 -1.9455 -0.4853
 5885TIP3    H217662   0.590   1.730   4.844  0.3060  0.8410  2.3343
 5886TIP3   OH217663   5.938   4.735   3.592  0.2671 -0.0627 -0.2205
 5886TIP3    H117664   5.867   4.711   3.652  1.0553 -0.7594  0.4748
 5886TIP3    H217665   5.927   4.829   3.579 -1.0912 -0.2440 -0.5652
 5887TIP3   OH217666   3.595   1.787   3.268  0.4998 -0.2050 -0.2418
 5887TIP3    H117667   3.506   1.803   3.301  0.1661 -1.8476 -0.2740
 5887TIP3    H217668   3.641   1.748   3.343  0.5314 -1.4260 -0.8789
 5888TIP3   OH217669   4.552   5.116   2.509  0.1406 -0.0291  0.2125
 5888TIP3    H117670   4.518   5.030   2.482 -0.3105 -0.0241  0.7569
 5888TIP3    H217671   4.521   5.127   2.599  1.0578  0.2610  0.4950
 5889TIP3   OH217672   4.124   4.438   4.689  0.4700 -0.0344  0.6380
 5889TIP3    H117673   4.096   4.479   4.607  0.6870 -1.4654 -0.1750
 5889TIP3    H217674   4.139   4.512   4.748  2.5621  1.2124 -1.2906
 5890TIP3   OH217675   5.421   0.432   1.923  0.3156 -0.1353  0.0015
 5890TIP3    H117676   5.339   0.383   1.930  0.7914 -1.1097 -1.0509
 5890TIP3    H217677   5.404   0.496   1.854  1.5287 -2.7291 -2.9232
 5891TIP3   OH217678   5.624   1.725   2.853  0.3075  0.2010 -0.3025
 5891TIP3    H117679   5.679   1.716   2.931  2.4809 -0.6253 -1.8153
 5891TIP3    H217680   5.534   1.718   2.886  0.9379  3.1804  2.5231
 5892TIP3   OH217681   4.870   0.697   5.127  0.6698  0.1663 -0.4720
 5892TIP3    H117682   4.885   0.784   5.164 -0.5565  0.2041 -0.0022
 5892TIP3    H217683   4.957   0.667   5.100  1.6169  0.2835  2.1283
 5893TIP3   OH217684   3.559   0.818   5.011  0.0933  0.1440  0.5439
 5893TIP3    H117685   3.564   0.913   5.006 -0.7138  0.2346  1.3638
 5893TIP3    H217686   3.485   0.794   4.956 -0.4222  0.0837  1.2596
 5894TIP3   OH217687   0.306   3.807   4.672 -0.0197 -0.1181 -0.3025
 5894TIP3    H117688   0.216   3.781   4.656 -0.1163  0.5626 -0.9297
 5894TIP3    H217689   0.309   3.900   4.648  1.0105 -0.3089 -0.9633
 5895TIP3   OH217690   2.508   2.378   4.374 -0.4280  0.0919 -0.5028
 5895TIP3    H117691   2.467   2.432   4.442  0.4744  1.5211 -1.0281
 5895TIP3    H217692   2.572   2.437   4.333  1.2780 -1.6777 -0.4951
 5896TIP3   OH217693   3.679   3.401   1.855  0.1495 -0.1926 -0.4589
 5896TIP3    H117694   3.710   3.479   1.902  1.0475 -0.5271 -0.4828
 5896TIP3    H217695   3.601   3.431   1.809  0.6683  0.7819 -0.7291
 5897TIP3   OH217696   4.699   5.153   3.487  0.1566 -0.3870  0.3187
 5897TIP3    H117697   4.727   5.172   3.577  0.1788 -0.7137  0.3830
 5897TIP3    H217698   4.752   5.078   3.461 -1.1595 -1.4772  0.6975
 5898TIP3   OH217699   0.956   2.544   4.563  0.0339  0.5196 -0.4521
 5898TIP3    H117700   0.869   2.543   4.602 -0.1800  0.0495 -0.9326
 5898TIP3    H217701   1.003   2.613   4.610 -0.7670  1.1584 -0.5741
 5899TIP3   OH217702   3.412   1.341   0.385 -0.5129  0.1961 -0.5714
 5899TIP3    H117703   3.359   1.411   0.424 -0.2534  0.2981 -0.3927
 5899TIP3    H217704   3.495   1.384   0.364  0.0942 -0.3149  0.6475
 5900TIP3   OH217705   4.542   4.831   3.365  0.0286  0.4104  0.1675
 5900TIP3    H117706   4.515   4.892   3.434  0.1589  0.0452  0.5385
 5900TIP3    H217707   4.494   4.750   3.383 -0.0198  0.3426 -0.2351
 5901TIP3   OH217708   5.422   4.572   0.712  0.0975  0.0989  0.5529
 5901TIP3    H117709   5.359   4.641   0.732  0.3401  0.3702  0.3988
 5901TIP3    H217710   5.385   4.493   0.750 -1.3698 -0.1813 -1.3604
 5902TIP3   OH217711   4.507   4.028   3.753  0.1117 -0.3914  0.0884
 5902TIP3    H117712   4.455   3.948   3.750 -1.9401  0.8388  0.9831
 5902TIP3    H217713   4.501   4.056   3.845  2.0827  0.0100  0.1300
 5903TIP3   OH217714   0.138   1.676   4.232 -0.3601  0.0973 -0.2976
 5903TIP3    H117715   0.216   1.700   4.282 -0.5076  1.2645 -0.5864
 5903TIP3    H217716   0.072   1.740   4.259 -0.7787  0.0339 -1.1219
 5904TIP3   OH217717   0.192   0.825   2.490  0.5411  0.2092 -0.3056
 5904TIP3    H117718   0.264   0.861   2.440  0.8765  0.3440  0.2634
 5904TIP3    H217719   0.218   0.837   2.581 -0.5736  1.0405 -0.0723
 5905TIP3   OH217720   4.679   1.675   0.435 -0.3938  0.0693  0.0053
 5905TIP3    H117721   4.678   1.605   0.370 -0.1242 -0.5258  0.6295
 5905TIP3    H217722   4.618   1.740   0.401  0.6759  0.3497 -1.4591
 5906TIP3   OH217723   5.109   1.681   0.291  0.1863  0.1611 -0.5771
 5906TIP3    H117724   5.071   1.765   0.315  0.2253  0.0044  0.0462
 5906TIP3    H217725   5.193   1.678   0.338  0.6201  0.1788 -1.3407
 5907TIP3   OH217726   3.072   3.300   3.239  0.0032 -0.0538  0.3495
 5907TIP3    H117727   3.147   3.252   3.204  0.8474  0.9690  0.7117
 5907TIP3    H217728   3.060   3.373   3.179 -1.0073 -0.4490  0.0419
 5908TIP3   OH217729   2.601   2.376   4.115 -0.3537 -0.2174  0.2934
 5908TIP3    H117730   2.540   2.318   4.068 -0.2208  0.2026 -0.4081
 5908TIP3    H217731   2.615   2.449   4.056  0.0537  0.1837  0.8741
 5909TIP3   OH217732   5.711   2.861   2.378 -0.1577 -0.2594  0.2520
 5909TIP3    H117733   5.756   2.796   2.325 -0.3885  0.1318 -0.4325
 5909TIP3    H217734   5.619   2.853   2.354 -0.1755  0.4018  0.0548
 5910TIP3   OH217735   3.178   3.428   3.022  0.3575 -0.3716  0.5428
 5910TIP3    H117736   3.109   3.382   2.974  1.0929  0.9732 -2.0119
 5910TIP3    H217737   3.248   3.364   3.030 -0.0161 -0.8106  0.3381
 5911TIP3   OH217738   2.823   2.278   3.837 -0.1501  0.0809 -0.0489
 5911TIP3    H117739   2.771   2.355   3.814  0.2905  0.2478 -0.5052
 5911TIP3    H217740   2.758   2.212   3.860 -0.5293  0.6420  0.5222
 5912TIP3   OH217741   0.932   3.355   2.753 -0.0013 -0.0007 -0.2608
 5912TIP3    H117742   1.026   3.372   2.745  0.0005 -0.5480 -1.7426
 5912TIP3    H217743   0.915   3.356   2.848  1.3672  0.7091 -0.0018
 5913TIP3   OH217744   1.268   5.632   1.490  0.6976  0.1615 -0.5873
 5913TIP3    H117745   1.241   5.598   1.575  1.2784  2.8506  0.7917
 5913TIP3    H217746   1.203   5.700   1.469 -0.1262 -1.2439 -2.9319
 5914TIP3   OH217747   2.285   2.613   0.054  0.1675  0.1693 -0.2216
 5914TIP3    H117748   2.311   2.699   0.087 -0.5922  0.1638  0.4346
 5914TIP3    H217749   2.353   2.589  -0.009  0.0957  1.5043 -0.8331
 5915TIP3   OH217750   3.197   4.368   1.694 -0.0166 -0.2032 -0.1640
 5915TIP3    H117751   3.142   4.330   1.763 -1.0212  1.6283  0.1201
 5915TIP3    H217752   3.217   4.455   1.726 -1.7531  1.2883 -2.7658
 5916TIP3   OH217753   4.276   4.637   3.251 -0.0198  0.2114 -0.3353
 5916TIP3    H117754   4.216   4.563   3.258  0.3300 -0.3349 -2.4250
 5916TIP3    H217755   4.356   4.608   3.295  0.2073 -0.8043 -1.3637
 5917TIP3   OH217756   2.259   3.400   3.689  0.5281  0.0420 -0.3080
 5917TIP3    H117757   2.338   3.356   3.657  0.2430  0.2132 -1.2597
 5917TIP3    H217758   2.292   3.471   3.744  1.0061 -1.8856  2.0975
 5918TIP3   OH217759   0.850   1.941   3.206  0.0878 -1.0131  0.3082
 5918TIP3    H117760   0.905   1.886   3.150  1.8420  1.4030 -0.4830
 5918TIP3    H217761   0.813   2.006   3.147 -1.0869 -0.6653  1.3873
 5919TIP3   OH217762   0.693   1.707   3.236  0.1296  0.4876  0.1782
 5919TIP3    H117763   0.740   1.789   3.249 -0.5927  0.7357  1.3222
 5919TIP3    H217764   0.722   1.651   3.308  0.1018 -0.0186 -0.2022
 5920TIP3   OH217765   2.796   1.153   3.173 -0.0897  0.0902  0.1398
 5920TIP3    H117766   2.819   1.205   3.250  2.0072 -1.1492  0.4331
 5920TIP3    H217767   2.755   1.075   3.209 -1.8199  0.8039 -0.2115
 5921TIP3   OH217768   5.628   0.944   2.522 -0.4202  0.4331  0.6454
 5921TIP3    H117769   5.541   0.909   2.503 -0.2268 -0.7610  1.7494
 5921TIP3    H217770   5.647   0.911   2.610  1.3367  0.2770  0.2296
 5922TIP3   OH217771   4.179   3.556   2.656  0.1590 -0.1013  0.4226
 5922TIP3    H117772   4.189   3.493   2.584 -0.6354 -1.7967  1.7146
 5922TIP3    H217773   4.253   3.537   2.714 -0.1350  0.1020  0.8631
 5923TIP3   OH217774   6.137   4.537   3.702 -0.3246 -0.6092  0.0372
 5923TIP3    H117775   6.196   4.567   3.633  0.3006 -2.9232 -0.5339
 5923TIP3    H217776   6.062   4.596   3.697  1.5144  1.8614  0.1986
 5924TIP3   OH217777   2.633   4.491   3.107  0.5439 -0.1375  0.0077
 5924TIP3    H117778   2.571   4.418   3.105  0.2016  0.1526 -0.4846
 5924TIP3    H217779   2.596   4.555   3.045  0.6793  0.5732  0.6370
 5925TIP3   OH217780   4.980   4.171   3.006  0.3283  0.0769 -0.1408
 5925TIP3    H117781   4.935   4.087   3.017 -0.2909  0.4874  0.5691
 5925TIP3    H217782   5.059   4.164   3.059 -1.2209  0.9995  2.5101
 5926TIP3   OH217783   3.595   2.772   2.611 -0.3193 -0.4002  0.2199
 5926TIP3    H117784   3.638   2.828   2.546  0.1174 -2.9106 -1.8259
 5926TIP3    H217785   3.532   2.720   2.560 -2.5978  0.0006  2.4323
 5927TIP3   OH217786   2.849   2.189   2.950  0.0192  0.2479  0.2102
 5927TIP3    H117787   2.891   2.107   2.925 -0.3494 -0.2305  1.1172
 5927TIP3    H217788   2.905   2.258   2.913  0.3341 -0.4048 -0.5471
 5928TIP3   OH217789   3.839   0.512   2.912  0.3018  0.6833  0.0896
 5928TIP3    H117790   3.839   0.429   2.864  1.0692 -0.4589  1.9272
 5928TIP3    H217791   3.932   0.533   2.923  0.1314  1.2039  0.5698
 5929TIP3   OH217792   5.858   2.669   4.369  0.2321 -0.2776  0.0883
 5929TIP3    H117793   5.889   2.579   4.362 -1.0463 -0.6265 -2.1046
 5929TIP3    H217794   5.891   2.712   4.290 -1.0335  0.5368 -0.0341
 5930TIP3   OH217795   0.947   5.065   3.322 -0.6365 -0.2438 -0.0562
 5930TIP3    H117796   0.994   4.998   3.371 -0.0357  0.5030  0.4237
 5930TIP3    H217797   0.864   5.077   3.370  0.1315  0.7936  1.0831
 5931TIP3   OH217798   4.031   4.621   3.028 -0.3791  0.6904 -0.3492
 5931TIP3    H117799   3.977   4.551   2.992  2.3352 -2.1190  0.5582
 5931TIP3    H217800   4.000   4.631   3.118 -0.7127  0.5958 -0.4521
 5932TIP3   OH217801   0.993   0.885   0.412 -0.0405 -0.6535  0.4564
 5932TIP3    H117802   0.963   0.871   0.502  0.5218  0.7201  0.8804
 5932TIP3    H217803   0.932   0.833   0.359 -0.1573 -1.7792  1.6383
 5933TIP3   OH217804   5.395   2.781   3.962  0.1396 -0.1027  0.5314
 5933TIP3    H117805   5.378   2.817   4.049 -0.8964  0.3337  0.1740
 5933TIP3    H217806   5.313   2.739   3.937 -0.3349  1.5966 -1.0614
 5934TIP3   OH217807   3.222   2.315   4.256 -0.7397 -0.2893 -0.3007
 5934TIP3    H117808   3.158   2.283   4.193 -1.8547 -2.7735  1.9362
 5934TIP3    H217809   3.292   2.250   4.254  0.0860  0.5753 -0.2537
 5935TIP3   OH217810   5.776   5.763   1.643  0.1846 -0.3401  0.1281
 5935TIP3    H117811   5.867   5.774   1.671 -0.2925  2.7467  0.8536
 5935TIP3    H217812   5.780   5.760   1.548  1.1091 -1.4198  0.1878
 5936TIP3   OH217813   0.565   3.062   0.608 -0.4691 -0.1002  0.0240
 5936TIP3    H117814   0.602   3.003   0.541 -0.2752 -0.6595  0.6153
 5936TIP3    H217815   0.638   3.115   0.637 -0.7652  0.8692 -0.9361
 5937TIP3   OH217816   3.733   0.337   1.642  0.1346  0.2564  0.4914
 5937TIP3    H117817   3.770   0.343   1.730  0.5989  2.3152  0.2015
 5937TIP3    H217818   3.705   0.426   1.622 -0.9234 -0.3858 -1.0554
 5938TIP3   OH217819   3.604   5.788   3.516  0.0968 -0.1788 -0.4154
 5938TIP3    H117820   3.552   5.758   3.441  1.8054 -0.0889 -1.6858
 5938TIP3    H217821   3.632   5.876   3.493  1.1932 -0.3902  0.0153
 5939TIP3   OH217822   2.829   2.296   5.090  0.2387 -0.2151  0.0992
 5939TIP3    H117823   2.783   2.373   5.055  0.0922  1.1634  3.0181
 5939TIP3    H217824   2.893   2.274   5.023 -1.5172  0.7539 -2.0102
 5940TIP3   OH217825   1.314   1.513   5.077 -0.2451  0.0902 -0.2140
 5940TIP3    H117826   1.252   1.441   5.083 -1.0372  0.6934 -0.8654
 5940TIP3    H217827   1.308   1.543   4.986  3.0798 -1.6108 -1.1656
 5941TIP3   OH217828   4.680   5.265   5.157  0.0099  0.1648  0.4373
 5941TIP3    H117829   4.747   5.209   5.119 -0.1594 -0.2665  0.7752
 5941TIP3    H217830   4.711   5.284   5.245  0.8291  1.8767 -0.1775
 5942TIP3   OH217831   4.628   1.048   0.875  0.2363  0.0018  0.8273
 5942TIP3    H117832   4.711   1.094   0.884  0.1578  0.1650  0.7141
 5942TIP3    H217833   4.632   0.978   0.940 -0.2202  1.0085  1.9696
 5943TIP3   OH217834   0.665   1.753   3.628 -0.0170 -0.3072 -0.0880
 5943TIP3    H117835   0.668   1.836   3.583 -0.3630 -0.8595 -1.1602
 5943TIP3    H217836   0.699   1.689   3.565 -0.4576 -1.0827  0.4337
 5944TIP3   OH217837   4.499   1.094   3.965  0.0300 -0.1053  0.0883
 5944TIP3    H117838   4.503   1.007   4.005  1.5595 -0.3393 -0.5067
 5944TIP3    H217839   4.561   1.146   4.016 -1.3449  0.8308  0.8412
 5945TIP3   OH217840   2.838   1.113   1.794 -0.2751  0.0499 -0.4737
 5945TIP3    H117841   2.889   1.143   1.719  1.0250  0.4408  0.5326
 5945TIP3    H217842   2.890   1.139   1.870 -2.1381  0.7725  0.6101
 5946TIP3   OH217843   1.148   3.283   0.563 -0.0469 -0.2117 -0.3074
 5946TIP3    H117844   1.090   3.256   0.491  0.8830 -1.4422 -0.6306
 5946TIP3    H217845   1.126   3.375   0.578 -3.5768 -1.0816  1.0050
 5947TIP3   OH217846   5.711   0.087   5.104  0.0511  0.6827 -0.5879
 5947TIP3    H117847   5.646   0.154   5.083  0.2662  0.4040 -2.3820
 5947TIP3    H217848   5.791   0.136   5.123 -0.5778  1.0174  1.4076
 5948TIP3   OH217849   1.868   2.426   3.781 -0.2601  0.2499  0.0087
 5948TIP3    H117850   1.956   2.455   3.759 -0.7333  1.7563 -0.0148
 5948TIP3    H217851   1.810   2.491   3.740 -1.3068  0.5698  1.8969
 5949TIP3   OH217852   4.190   0.473   1.343  0.8018 -0.6341  0.4044
 5949TIP3    H117853   4.220   0.563   1.352  0.6097 -0.1551 -2.6502
 5949TIP3    H217854   4.098   0.475   1.371  0.6317  0.2476 -0.1942
 5950TIP3   OH217855   1.475   1.921   4.467 -0.4621 -0.0558  0.1978
 5950TIP3    H117856   1.382   1.922   4.445 -0.2488 -0.2439 -0.7713
 5950TIP3    H217857   1.488   1.999   4.520 -0.7788  1.1973 -1.4584
 5951TIP3   OH217858   1.837   1.233   0.964 -0.0449 -0.4181 -0.0421
 5951TIP3    H117859   1.923   1.272   0.949 -0.7866  0.5725 -2.1087
 5951TIP3    H217860   1.855   1.141   0.986  1.5047 -0.4840 -1.4339
 5952TIP3   OH217861   2.267   4.044   3.601 -0.3093  0.1639  0.0996
 5952TIP3    H117862   2.178   4.075   3.615 -0.2219 -0.5203  2.7332
 5952TIP3    H217863   2.319   4.123   3.587 -1.1105  0.6586 -0.0820
 5953TIP3   OH217864   5.463   3.480   0.684  0.1552 -0.7394 -0.0134
 5953TIP3    H117865   5.406   3.556   0.696  1.4924  0.1850  0.7170
 5953TIP3    H217866   5.539   3.515   0.637  0.9986 -1.5003  0.7519
 5954TIP3   OH217867   6.291   2.828   4.317 -0.3309 -0.1572  0.2259
 5954TIP3    H117868   6.275   2.766   4.388  1.1233 -0.7135  0.1122
 5954TIP3    H217869   6.205   2.864   4.296 -0.8485 -0.2956  1.9745
 5955TIP3   OH217870   0.733   3.120   1.464  0.7360 -0.0683  0.0783
 5955TIP3    H117871   0.673   3.193   1.478  2.1615  0.7117  3.0389
 5955TIP3    H217872   0.678   3.051   1.425 -1.2008  1.7345 -0.5868
 5956TIP3   OH217873   2.030   5.766   1.849  0.0355  0.3406 -0.1710
 5956TIP3    H117874   2.093   5.740   1.916  1.4818 -0.6533 -1.8407
 5956TIP3    H217875   2.028   5.861   1.854  0.8736  0.3314  0.6161
 5957TIP3   OH217876   5.130   2.798   0.224  0.1944 -0.5499  0.4144
 5957TIP3    H117877   5.172   2.762   0.146 -2.8815 -2.0130 -0.7799
 5957TIP3    H217878   5.078   2.725   0.258 -0.6490  0.8291  2.2637
 5958TIP3   OH217879   2.356   5.193   4.510 -0.3600  0.3678 -0.1464
 5958TIP3    H117880   2.311   5.118   4.471 -0.9849 -0.9524  2.8745
 5958TIP3    H217881   2.446   5.186   4.480 -0.3927 -1.6573  0.1330
 5959TIP3   OH217882   1.212   0.896   4.518  0.9471 -0.1355  0.1047
 5959TIP3    H117883   1.269   0.820   4.527  0.3442 -0.5072  0.8763
 5959TIP3    H217884   1.225   0.945   4.599  0.7626  0.1948 -0.0620
 5960TIP3   OH217885   2.949   3.192   1.700 -0.4606 -0.2310 -0.2895
 5960TIP3    H117886   2.964   3.174   1.607  2.3151 -1.9160  0.3669
 5960TIP3    H217887   2.983   3.280   1.713 -2.0244  0.5260 -1.0545
 5961TIP3   OH217888   4.839   0.716   4.592  0.4075 -0.0782 -0.0242
 5961TIP3    H117889   4.763   0.659   4.607 -1.1103  1.9903  0.6044
 5961TIP3    H217890   4.910   0.674   4.641 -0.1446 -2.3374 -1.0356
 5962TIP3   OH217891   1.628   3.345   3.598  0.1092  0.1308  0.3740
 5962TIP3    H117892   1.686   3.323   3.671 -0.7371 -2.1386  0.4518
 5962TIP3    H217893   1.594   3.431   3.620 -0.8829 -0.8669  3.2610
 5963TIP3   OH217894   3.845   1.609   2.773 -0.2285 -0.0907 -0.1759
 5963TIP3    H117895   3.900   1.576   2.703 -0.4250 -0.6701 -0.0675
 5963TIP3    H217896   3.779   1.663   2.729 -2.0389 -2.6257 -0.8062
 5964TIP3   OH217897   0.121   5.043   1.473 -0.7382 -0.0047  0.2540
 5964TIP3    H117898   0.125   4.980   1.545  0.9655  1.1238  1.2337
 5964TIP3    H217899   0.099   5.126   1.515  0.7932  0.7816 -0.4123
 5965TIP3   OH217900   2.365   0.211   4.479  0.4915 -0.2077  0.0630
 5965TIP3    H117901   2.408   0.263   4.411 -1.8977  1.2729 -0.4302
 5965TIP3    H217902   2.341   0.129   4.436  0.1177  0.2149 -0.5503
 5966TIP3   OH217903   3.073   4.096   3.486 -0.3127  0.2793 -0.4546
 5966TIP3    H117904   3.009   4.095   3.415 -0.2364  1.3027 -0.5515
 5966TIP3    H217905   3.088   4.003   3.506 -0.7482 -0.0079 -1.3941
 5967TIP3   OH217906   4.746   4.135   3.624  0.0165 -0.9745 -0.4240
 5967TIP3    H117907   4.669   4.112   3.676 -0.1051  1.2212  0.4387
 5967TIP3    H217908   4.820   4.107   3.678 -0.1332  0.3638  0.5216
 5968TIP3   OH217909   5.289   2.098   2.845 -0.0312  0.5026  0.3896
 5968TIP3    H117910   5.306   2.173   2.788 -0.3595 -1.4569 -2.5210
 5968TIP3    H217911   5.360   2.036   2.825 -1.7629 -1.4133 -0.1470
 5969TIP3   OH217912   4.661   3.250   1.365  0.1939 -0.8733 -0.1368
 5969TIP3    H117913   4.712   3.171   1.383  0.6405 -0.3079  1.2084
 5969TIP3    H217914   4.605   3.260   1.442  1.6142  1.2482  0.7270
 5970TIP3   OH217915   6.249   0.770   3.972  0.2345 -0.3178 -0.2529
 5970TIP3    H117916   6.160   0.764   3.938  0.5739 -0.3454 -1.1750
 5970TIP3    H217917   6.254   0.703   4.040 -0.3111 -0.6181 -0.5036
 5971TIP3   OH217918   1.858   3.259   1.649 -0.5445 -0.3358  0.7494
 5971TIP3    H117919   1.883   3.198   1.718  1.1692 -0.3883  0.1336
 5971TIP3    H217920   1.870   3.210   1.568 -2.1232 -0.1358  0.3631
 5972TIP3   OH217921   3.166   4.225   4.517 -0.0224 -0.2796  0.4641
 5972TIP3    H117922   3.178   4.213   4.611  0.3627 -0.5904  0.3823
 5972TIP3    H217923   3.117   4.306   4.508 -2.2486 -1.4889  1.0424
 5973TIP3   OH217924   2.811   0.252   3.149 -0.2097  0.0055 -0.5874
 5973TIP3    H117925   2.851   0.172   3.117 -0.5511 -0.7646  0.7964
 5973TIP3    H217926   2.800   0.237   3.243  0.3459  1.9473 -0.1628
 5974TIP3   OH217927   3.016   1.448   5.022  0.5156 -0.3149  0.5935
 5974TIP3    H117928   3.017   1.451   5.118 -0.0134  1.4032  0.5883
 5974TIP3    H217929   2.923   1.449   4.999  0.6461 -0.2868  0.0628
 5975TIP3   OH217930   1.510   3.642   2.457 -0.1680  0.1877  0.8670
 5975TIP3    H117931   1.600   3.666   2.435 -0.2098  0.0291  0.4973
 5975TIP3    H217932   1.519   3.573   2.523  0.0011 -0.2966  0.3460
 5976TIP3   OH217933   3.808   1.662   0.494 -0.4249  0.0147 -0.0237
 5976TIP3    H117934   3.783   1.744   0.450 -0.8295  1.0244  1.9407
 5976TIP3    H217935   3.893   1.640   0.457  0.6900  2.4957  0.8303
 5977TIP3   OH217936   4.072   0.809   4.825  0.4108 -0.3256  0.0508
 5977TIP3    H117937   4.125   0.764   4.759  1.6497 -1.0837  1.5048
 5977TIP3    H217938   3.985   0.771   4.816  0.3914  0.0159 -1.5323
 5978TIP3   OH217939   5.246   1.629   2.017 -0.2950  0.5978  0.2355
 5978TIP3    H117940   5.200   1.584   2.087  0.7488 -1.9646 -0.6064
 5978TIP3    H217941   5.338   1.628   2.044 -0.0560  0.8044 -0.5394
 5979TIP3   OH217942   4.289   4.785   4.623 -0.1948 -0.2300  0.1749
 5979TIP3    H117943   4.327   4.698   4.636  1.3039  0.0096 -2.0312
 5979TIP3    H217944   4.357   4.845   4.653 -0.2796  0.1887 -0.4637
 5980TIP3   OH217945   1.417   3.147   3.585  0.0691 -0.6115 -0.1965
 5980TIP3    H117946   1.502   3.190   3.593 -0.6004  0.7864 -0.1335
 5980TIP3    H217947   1.423   3.096   3.504  1.0300 -0.6923 -0.0784
 5981TIP3   OH217948   3.103   5.021   2.559 -0.0009 -0.7623  0.1337
 5981TIP3    H117949   3.071   4.932   2.545  0.4000 -1.0747  1.1087
 5981TIP3    H217950   3.137   5.020   2.649 -1.5441  0.8350  0.7749
 5982TIP3   OH217951   2.462   0.972   0.158  0.1455  0.5635  0.0589
 5982TIP3    H117952   2.394   0.905   0.167 -1.4015  2.0260 -0.1556
 5982TIP3    H217953   2.435   1.024   0.082  1.0393  1.7119  0.4895
 5983TIP3   OH217954   6.092   0.989   0.454  0.3787 -0.2407 -0.2739
 5983TIP3    H117955   6.171   1.043   0.461  1.3014 -1.7175  1.8799
 5983TIP3    H217956   6.102   0.923   0.523 -2.9946 -0.1863  0.4462
 5984TIP3   OH217957   2.141   4.311   1.809  0.0720 -0.5331  0.1447
 5984TIP3    H117958   2.153   4.406   1.812 -0.4248 -0.3908 -1.4088
 5984TIP3    H217959   2.211   4.276   1.864  1.1642  0.6851 -0.4197
 5985TIP3   OH217960   3.893   3.717   2.383 -0.2160 -0.4680 -0.0232
 5985TIP3    H117961   3.969   3.767   2.413 -0.2517 -0.3964 -0.0514
 5985TIP3    H217962   3.826   3.732   2.450  0.3200 -1.8532  0.8685
 5986TIP3   OH217963   1.569   0.137   4.957 -0.2541 -0.2803  0.0754
 5986TIP3    H117964   1.513   0.126   4.880 -1.8026 -2.7219  1.4235
 5986TIP3    H217965   1.615   0.053   4.965  0.2605  0.1115  1.5208
 5987TIP3   OH217966   0.780   4.084   4.954 -0.2413 -0.0119  0.3757
 5987TIP3    H117967   0.720   4.029   4.903 -0.6436 -0.3284  1.1816
 5987TIP3    H217968   0.822   4.140   4.888 -2.1121  0.8841 -0.1285
 5988TIP3   OH217969   2.685   2.654   2.107  0.1329 -0.0721  0.3541
 5988TIP3    H117970   2.729   2.650   2.192  1.2951  0.7841 -0.1890
 5988TIP3    H217971   2.674   2.747   2.090 -1.4971 -0.2606  0.2457
 5989TIP3   OH217972   2.676   2.275   1.680  0.0278 -0.4809  0.0638
 5989TIP3    H117973   2.616   2.214   1.638  0.5246 -0.7927 -0.1955
 5989TIP3    H217974   2.740   2.296   1.612  0.0980  0.0081  0.2780
 5990TIP3   OH217975   0.199   1.387   2.115  0.3425 -0.3071  0.3768
 5990TIP3    H117976   0.274   1.423   2.164  0.1139  1.7270 -0.6713
 5990TIP3    H217977   0.123   1.435   2.148  0.2108  1.3539 -2.0454
 5991TIP3   OH217978   1.120   0.114   0.782 -0.2930 -0.3105 -0.0190
 5991TIP3    H117979   1.062   0.042   0.760 -1.0681  0.2315  0.2121
 5991TIP3    H217980   1.148   0.150   0.698 -1.8056  0.6120 -0.1638
 5992TIP3   OH217981   4.723   4.353   1.398  0.0908 -0.2904  0.0590
 5992TIP3    H117982   4.636   4.335   1.364 -0.1966 -0.2019  0.7421
 5992TIP3    H217983   4.712   4.357   1.493  0.9608 -0.9911  0.2016
 5993TIP3   OH217984   1.830   1.931   1.100  0.2316  0.0360  0.1785
 5993TIP3    H117985   1.827   1.919   1.005  1.1549 -1.2757  0.2939
 5993TIP3    H217986   1.777   2.009   1.116 -0.7500 -0.2946 -1.3050
 5994TIP3   OH217987   3.397   0.551   1.310 -0.3005 -0.2550 -0.3690
 5994TIP3    H117988   3.465   0.604   1.268  0.4564  0.0147  1.1548
 5994TIP3    H217989   3.318   0.604   1.304  0.3192  0.7968  0.6015
 5995TIP3   OH217990   0.739   5.908   4.034  0.0386 -0.4489 -0.5410
 5995TIP3    H117991   0.834   5.906   4.051 -0.1109  0.5396  0.5356
 5995TIP3    H217992   0.728   5.979   3.972 -0.0594 -0.1356 -0.1690
 5996TIP3   OH217993   4.338   5.635   4.721  0.1696 -0.1809 -0.4122
 5996TIP3    H117994   4.281   5.577   4.773  0.5613  0.2788  0.5576
 5996TIP3    H217995   4.312   5.619   4.630 -1.4404 -0.0531  0.0038
 5997TIP3   OH217996   0.303   4.811   2.993 -0.4826  0.4630  0.0843
 5997TIP3    H117997   0.288   4.717   2.995 -1.3230  0.6037  1.5770
 5997TIP3    H217998   0.282   4.837   2.903 -5.1119 -0.0610  0.7693
 5998TIP3   OH217999   4.486   5.104   0.534  0.2457 -0.2867  0.2178
 5998TIP3    H118000   4.539   5.033   0.569  2.2784 -0.2005 -2.3972
 5998TIP3    H218001   4.458   5.074   0.448  1.0231  1.9390 -0.8949
 5999TIP3   OH218002   1.769   5.655   2.619 -0.4007 -0.0170 -0.3052
 5999TIP3    H118003   1.724   5.618   2.543 -2.4047  0.8152  0.3941
 5999TIP3    H218004   1.742   5.600   2.692  0.9782 -0.4108 -0.0634
 6000TIP3   OH218005   5.733   5.977   0.158 -0.3837  0.1715  0.1749
 6000TIP3    H118006   5.809   5.917   0.161 -0.9449 -0.6652 -1.3659
 6000TIP3    H218007   5.657   5.920   0.168 -0.9171  0.6569 -0.9290
 6001TIP3   OH218008   0.223   5.794   1.153 -0.4428  0.3598 -0.5105
 6001TIP3    H118009   0.306   5.751   1.133 -0.0392 -1.0215  3.3215
 6001TIP3    H218010   0.229   5.880   1.110  3.6182  0.8952  0.7357
 6002TIP3   OH218011   5.011   2.314   4.482 -0.0722 -0.3264  0.0979
 6002TIP3    H118012   4.951   2.379   4.519  0.7010 -0.2010  1.1830
 6002TIP3    H218013   4.970   2.230   4.500 -0.6300 -0.1909 -0.4936
 6003TIP3   OH218014   3.206   3.361   2.664  0.3513  0.6448 -0.0894
 6003TIP3    H118015   3.218   3.309   2.744  3.4116  0.6766 -0.4133
 6003TIP3    H218016   3.151   3.434   2.691 -0.4351 -0.4616  1.4509
 6004TIP3   OH218017   2.694   1.500   4.697  0.1020  0.0881  0.6562
 6004TIP3    H118018   2.748   1.507   4.619 -0.3295  2.8605  0.4915
 6004TIP3    H218019   2.607   1.477   4.665  0.2442 -0.2199  0.4869
 6005TIP3   OH218020   4.938   2.925   1.813  0.6523 -0.1847 -0.2056
 6005TIP3    H118021   4.916   3.014   1.786  0.9755  0.0210  0.1823
 6005TIP3    H218022   4.868   2.871   1.779 -1.4947  0.6483  2.4861
 6006TIP3   OH218023   1.645   1.784   0.645  0.2710  0.1343 -0.4722
 6006TIP3    H118024   1.582   1.712   0.652 -0.1432  0.4465 -0.9679
 6006TIP3    H218025   1.706   1.756   0.577  0.6815 -0.1718  0.0136
 6007TIP3   OH218026   5.387   3.195   0.022 -0.0627 -0.1485  0.1820
 6007TIP3    H118027   5.379   3.238   0.107 -0.2369  0.5590 -0.1826
 6007TIP3    H218028   5.443   3.119   0.039 -1.0109 -0.6663  1.1554
 6008TIP3   OH218029   2.897   4.474   3.163  0.2354  0.5762 -1.0319
 6008TIP3    H118030   2.914   4.533   3.237  2.4453 -2.1721  0.8929
 6008TIP3    H218031   2.802   4.474   3.153 -0.2017  0.8431  2.0918
 6009TIP3   OH218032   5.152   2.761   4.598  0.2945 -0.3026 -0.1136
 6009TIP3    H118033   5.160   2.706   4.519  1.3069  2.2750 -1.9505
 6009TIP3    H218034   5.071   2.733   4.639 -0.4999 -1.4796 -2.3176
 6010TIP3   OH218035   4.538   0.113   0.113 -0.5626 -0.2497 -0.0583
 6010TIP3    H118036   4.451   0.075   0.125 -0.0005 -1.7240 -0.3401
 6010TIP3    H218037   4.540   0.141   0.022 -1.2243  1.1629  0.3371
 6011TIP3   OH218038   4.240   0.338   4.709  0.0455  0.8803  0.0669
 6011TIP3    H118039   4.251   0.390   4.629 -0.3013 -0.2289 -0.7229
 6011TIP3    H218040   4.294   0.382   4.774  1.6188  0.9003 -1.2002
 6012TIP3   OH218041   4.539   2.638   1.913  0.5333 -0.6410 -0.4920
 6012TIP3    H118042   4.484   2.590   1.850 -0.3880 -0.2812  0.0179
 6012TIP3    H218043   4.486   2.715   1.936  1.9941  0.6801 -1.3392
 6013TIP3   OH218044   5.897   3.328   3.281 -0.0871  0.0043 -0.5321
 6013TIP3    H118045   5.929   3.329   3.191 -0.7690  1.3205 -0.7893
 6013TIP3    H218046   5.846   3.248   3.288 -2.2851  1.1458 -2.1864
 6014TIP3   OH218047   4.829   0.109   4.204 -0.1349 -0.0891 -0.0172
 6014TIP3    H118048   4.912   0.109   4.156 -0.8212  2.5129 -1.4122
 6014TIP3    H218049   4.767   0.067   4.144 -0.0432 -1.1843  0.6372
 6015TIP3   OH218050   3.744   1.217   1.960  0.2442  0.1131  0.1402
 6015TIP3    H118051   3.764   1.174   1.876 -1.8098 -0.0893 -0.3055
 6015TIP3    H218052   3.750   1.311   1.941 -0.2577  0.0683 -0.2649
 6016TIP3   OH218053   3.427   1.907   3.455  0.1036 -0.1284 -0.4528
 6016TIP3    H118054   3.445   1.994   3.489 -0.4502 -0.0712 -0.3035
 6016TIP3    H218055   3.346   1.917   3.405 -0.7365 -0.8408  0.7105
 6017TIP3   OH218056   5.974   5.738   0.480 -0.3152 -0.5192 -0.2055
 6017TIP3    H118057   6.013   5.680   0.415 -1.3591 -1.2267 -0.2164
 6017TIP3    H218058   6.048   5.790   0.512  0.9645 -2.8468  0.8863
 6018TIP3   OH218059   6.043   3.130   2.715 -0.3270  0.6059 -0.2181
 6018TIP3    H118060   5.985   3.174   2.777 -1.9541 -0.3528 -0.9782
 6018TIP3    H218061   5.983   3.089   2.652  1.1768 -0.8599 -0.7597
 6019TIP3   OH218062   3.516   0.394   3.176 -0.0358  0.4367  0.7320
 6019TIP3    H118063   3.595   0.365   3.221 -1.1011  0.2413  2.5866
 6019TIP3    H218064   3.469   0.445   3.242 -1.0055  1.3705 -0.6332
 6020TIP3   OH218065   1.001   4.153   4.135  0.1582 -0.0827  0.2584
 6020TIP3    H118066   1.083   4.103   4.130 -0.0763 -0.5524  0.9831
 6020TIP3    H218067   0.939   4.103   4.083  0.4836  0.6221 -0.8558
 6021TIP3   OH218068   0.615   3.137   0.899  0.1397  0.1458  0.0383
 6021TIP3    H118069   0.539   3.102   0.853  0.4905 -1.3523  0.5542
 6021TIP3    H218070   0.674   3.062   0.908  1.0927  0.9698  0.8299
 6022TIP3   OH218071   4.739   1.179   1.228 -0.1407  0.1757  0.1195
 6022TIP3    H118072   4.773   1.090   1.220 -0.5461  0.0513 -0.2549
 6022TIP3    H218073   4.816   1.235   1.227  0.1379 -0.1948  0.7153
 6023TIP3   OH218074   0.767   3.060   4.871 -0.2248 -0.3735 -0.4332
 6023TIP3    H118075   0.793   3.152   4.874 -0.6786 -0.1801 -1.8805
 6023TIP3    H218076   0.705   3.051   4.944 -1.3390  0.8657 -1.1690
 6024TIP3   OH218077   5.434   3.281   0.269 -0.1163 -0.2528 -0.1434
 6024TIP3    H118078   5.521   3.322   0.259  0.5455 -0.8813  2.3019
 6024TIP3    H218079   5.446   3.218   0.339 -2.6994 -0.0307  0.5732
 6025TIP3   OH218080   2.866   5.454   4.754 -0.1254 -0.2437  0.0111
 6025TIP3    H118081   2.786   5.471   4.704  0.2959 -0.7051 -0.8411
 6025TIP3    H218082   2.844   5.477   4.844 -2.0043 -2.6937  0.2576
 6026TIP3   OH218083   1.375   4.397   5.107  0.0306 -0.0971  0.0877
 6026TIP3    H118084   1.437   4.467   5.087  1.0323 -1.2174 -0.8335
 6026TIP3    H218085   1.429   4.320   5.120 -0.8584 -0.3221  3.2705
 6027TIP3   OH218086   3.520   0.340   1.157 -0.3557  0.5257 -0.2189
 6027TIP3    H118087   3.505   0.426   1.197 -1.0714 -0.1580  1.0617
 6027TIP3    H218088   3.460   0.338   1.082 -1.8180  0.4078  0.9140
 6028TIP3   OH218089   0.115   4.731   0.312  0.2228 -0.3991 -0.0137
 6028TIP3    H118090   0.146   4.755   0.400  0.0985  1.5501 -0.4627
 6028TIP3    H218091   0.178   4.665   0.282  1.9945  1.0299  0.4072
 6029TIP3   OH218092   4.387   5.699   0.363  0.5770 -0.0579  0.0278
 6029TIP3    H118093   4.369   5.772   0.422  1.1213 -1.4733  2.0485
 6029TIP3    H218094   4.324   5.710   0.291 -0.8014  1.1861  1.3554
 6030TIP3   OH218095   0.279   0.142   2.128 -0.1298  0.4038  0.3225
 6030TIP3    H118096   0.223   0.116   2.201 -0.0139 -1.2400 -0.1304
 6030TIP3    H218097   0.225   0.129   2.050  0.7774 -1.0158 -0.1013
 6031TIP3   OH218098   4.620   2.727   4.858  0.0652  0.4600 -0.1166
 6031TIP3    H118099   4.629   2.721   4.954  2.1471 -0.7977 -0.3211
 6031TIP3    H218100   4.705   2.762   4.829 -1.1039  2.4119 -1.4279
 6032TIP3   OH218101   5.331   1.223   1.457  0.3048 -0.2004 -0.2044
 6032TIP3    H118102   5.383   1.194   1.532  1.6798 -0.9128 -1.3611
 6032TIP3    H218103   5.349   1.157   1.389 -0.0287  0.9873 -1.4943
 6033TIP3   OH218104   2.405   4.324   1.967 -0.1890 -0.2868 -0.2555
 6033TIP3    H118105   2.428   4.415   1.946 -1.5545  0.1143 -0.1613
 6033TIP3    H218106   2.475   4.272   1.928 -0.4372  0.6823 -2.1430
 6034TIP3   OH218107   3.116   0.902   1.900  1.2451  0.0466 -0.0857
 6034TIP3    H118108   3.201   0.908   1.945  2.0218 -0.0585 -1.4957
 6034TIP3    H218109   3.136   0.857   1.818 -0.3684 -0.8680 -0.0081
 6035TIP3   OH218110   5.506   5.784   4.999  0.4848 -0.2224  0.3489
 6035TIP3    H118111   5.432   5.800   5.057  0.6784 -0.9917  0.8203
 6035TIP3    H218112   5.575   5.842   5.032  0.4284 -0.2770  0.5642
 6036TIP3   OH218113   3.700   1.642   3.523  0.1243  0.5687 -0.0049
 6036TIP3    H118114   3.726   1.706   3.589 -2.1516  0.7046  0.8316
 6036TIP3    H218115   3.783   1.612   3.485  1.4928  0.7823  2.6009
 6037TIP3   OH218116   3.311   4.982   0.181  0.1508 -0.1610 -0.6206
 6037TIP3    H118117   3.292   4.931   0.102  0.9828 -0.8369 -0.4007
 6037TIP3    H218118   3.308   4.917   0.252 -1.8391  0.6459  0.1108
 6038TIP3   OH218119   2.301   1.993   2.598  0.7615 -0.2376  0.6249
 6038TIP3    H118120   2.304   2.075   2.648  1.1304 -0.0471  0.2891
 6038TIP3    H218121   2.230   2.007   2.535  2.7190  0.9858 -1.4321
 6039TIP3   OH218122   0.424   1.633   3.616 -0.0315  0.1928 -0.2656
 6039TIP3    H118123   0.511   1.665   3.638  0.3845 -1.1482  0.1441
 6039TIP3    H218124   0.417   1.549   3.661 -0.4408 -1.0809 -2.5544
 6040TIP3   OH218125   3.115   4.474   3.704 -0.0174  0.5755  0.4666
 6040TIP3    H118126   3.075   4.386   3.707  1.8369 -0.3146  0.4333
 6040TIP3    H218127   3.060   4.527   3.761 -1.3712 -0.5251  0.2424
 6041TIP3   OH218128   3.999   2.006   1.848  0.5337 -0.3238 -0.4778
 6041TIP3    H118129   4.064   1.945   1.813  0.4635  0.0129 -1.2090
 6041TIP3    H218130   3.932   2.011   1.779  0.0557 -0.1725 -0.0068
 6042TIP3   OH218131   2.703   2.786   1.733  0.3926 -0.1801  0.1721
 6042TIP3    H118132   2.743   2.701   1.751 -0.2444 -0.3309  0.9484
 6042TIP3    H218133   2.684   2.784   1.639  0.0856 -1.0398  0.2398
 6043TIP3   OH218134   2.425   1.352   1.059 -0.3549  0.2274  0.6480
 6043TIP3    H118135   2.501   1.301   1.031 -2.1404 -2.0348 -0.4152
 6043TIP3    H218136   2.437   1.363   1.153  0.4776 -1.6451  0.8189
 6044TIP3   OH218137   3.807   3.025   0.736  0.5789 -0.3984 -0.1706
 6044TIP3    H118138   3.811   2.956   0.803  2.3171 -1.4590 -1.3140
 6044TIP3    H218139   3.763   2.984   0.662 -3.1170  1.3257  0.7850
 6045TIP3   OH218140   3.755   2.699   0.223  0.1125  0.5334  0.2282
 6045TIP3    H118141   3.672   2.662   0.253  0.3597  0.4749  0.8683
 6045TIP3    H218142   3.822   2.648   0.269  0.4665  3.0787  2.9141
 6046TIP3   OH218143   3.226   2.516   3.649  0.0611  0.1252 -0.6001
 6046TIP3    H118144   3.174   2.436   3.643  0.9101 -0.6255  1.4345
 6046TIP3    H218145   3.313   2.487   3.675  0.4115  1.7007  0.0794
 6047TIP3   OH218146   4.860   2.807   0.911 -0.0471 -0.4639  0.0715
 6047TIP3    H118147   4.790   2.822   0.847  0.5307 -2.5326 -1.1441
 6047TIP3    H218148   4.909   2.889   0.912 -0.0438 -0.3502 -2.2346
 6048TIP3   OH218149   1.313   1.141   0.545  0.0660  0.2999 -0.1164
 6048TIP3    H118150   1.280   1.199   0.613 -0.4253 -0.3826  0.2330
 6048TIP3    H218151   1.276   1.055   0.566 -0.6297  0.2087 -1.6129
 6049TIP3   OH218152   3.771   0.193   2.525 -0.8540 -0.9660 -0.0562
 6049TIP3    H118153   3.718   0.115   2.545 -1.8179 -0.3655 -0.2044
 6049TIP3    H218154   3.846   0.159   2.477 -0.4141 -1.9960  1.3077
 6050TIP3   OH218155   3.591   0.153   0.650 -0.1666  0.2532 -0.0265
 6050TIP3    H118156   3.532   0.089   0.611  0.6031  1.2958 -3.2533
 6050TIP3    H218157   3.549   0.237   0.635 -0.2501  0.7049  2.3914
 6051TIP3   OH218158   0.788   5.703   3.045 -0.0444  0.5463 -0.1293
 6051TIP3    H118159   0.730   5.633   3.074  0.0667  0.7606  0.6300
 6051TIP3    H218160   0.796   5.761   3.121  0.9453  0.6653 -0.3115
 6052TIP3   OH218161   3.859   0.163   1.169  0.6979 -0.3892  0.8224
 6052TIP3    H118162   3.951   0.138   1.172  0.8530  0.2655  2.0450
 6052TIP3    H218163   3.848   0.225   1.242 -0.7096 -0.4865  0.7242
 6053TIP3   OH218164   4.769   4.037   1.638 -0.3548  0.2487  0.2751
 6053TIP3    H118165   4.837   4.065   1.576  1.3475  0.3045  2.0578
 6053TIP3    H218166   4.759   4.111   1.698 -0.4580 -0.5359  1.2591
 6054TIP3   OH218167   5.465   2.770   2.240 -0.4867  0.6868 -0.3217
 6054TIP3    H118168   5.503   2.684   2.258  0.0546  0.9952  0.0284
 6054TIP3    H218169   5.375   2.751   2.212 -0.2246 -0.0248 -0.7186
 6055TIP3   OH218170   2.880   4.413   1.625 -0.0941 -0.0075  0.1005
 6055TIP3    H118171   2.897   4.460   1.544  0.8517  2.1232  1.4359
 6055TIP3    H218172   2.967   4.391   1.659 -0.4017  0.5514  1.3029
 6056TIP3   OH218173   3.607   4.101   1.150  0.1968  0.1318 -0.3738
 6056TIP3    H118174   3.597   4.006   1.162 -0.3621  0.2079 -0.2158
 6056TIP3    H218175   3.519   4.132   1.131  0.1969  0.7657  0.5897
 6057TIP3   OH218176   6.296   1.472   2.198  0.1421 -0.4584 -0.0649
 6057TIP3    H118177   6.220   1.437   2.151  0.8054 -0.2981 -1.3027
 6057TIP3    H218178   6.280   1.451   2.290 -0.5338 -2.0281 -0.5205
 6058TIP3   OH218179   0.324   3.027   0.437 -0.1222  0.3033  0.1646
 6058TIP3    H118180   0.340   2.956   0.499 -0.8221  0.8384  0.9637
 6058TIP3    H218181   0.406   3.034   0.388 -0.3180 -1.6663 -0.5763
 6059TIP3   OH218182   1.304   2.934   3.704 -0.0690  0.1236  0.4849
 6059TIP3    H118183   1.322   3.001   3.638 -0.1689 -0.0476  0.2856
 6059TIP3    H218184   1.232   2.882   3.667 -0.7842  0.6128  1.1366
 6060TIP3   OH218185   1.118   0.991   1.124  0.2920  0.3215 -0.1444
 6060TIP3    H118186   1.074   0.951   1.048 -1.7571  0.6614  0.7874
 6060TIP3    H218187   1.136   1.080   1.096 -1.9352  0.9571  0.2253
 6061TIP3   OH218188   4.752   4.914   4.500  0.5538 -0.4068 -0.3101
 6061TIP3    H118189   4.835   4.898   4.456  0.9664  1.3039 -0.2166
 6061TIP3    H218190   4.728   5.003   4.475  1.0859  0.9301  3.3072
 6062TIP3   OH218191   2.858   1.462   3.978 -0.2854 -0.4110  0.0873
 6062TIP3    H118192   2.869   1.369   3.956  3.4110 -0.1021  0.1016
 6062TIP3    H218193   2.878   1.509   3.897  0.4848  0.4098  0.7316
 6063TIP3   OH218194   4.560   2.253   2.285  0.8119 -0.3463 -0.0168
 6063TIP3    H118195   4.611   2.174   2.266  0.9748 -0.2278 -0.0658
 6063TIP3    H218196   4.518   2.275   2.202 -0.9736 -1.6291  0.4762
 6064TIP3   OH218197   3.979   2.151   2.515  0.2553 -0.1350 -0.2014
 6064TIP3    H118198   4.046   2.169   2.450 -1.0965 -0.9989 -1.9407
 6064TIP3    H218199   3.997   2.212   2.586  2.2683  0.3081 -1.0205
 6065TIP3   OH218200   1.675   4.633   3.257  0.2016  0.3868 -0.0008
 6065TIP3    H118201   1.635   4.577   3.190  0.8399  1.0912 -1.0111
 6065TIP3    H218202   1.714   4.572   3.319 -0.4677 -0.2869 -0.2312
 6066TIP3   OH218203   5.746   1.895   2.530 -0.3912  0.0801 -0.1517
 6066TIP3    H118204   5.697   1.941   2.597 -3.4434 -1.5430 -1.0956
 6066TIP3    H218205   5.763   1.808   2.568  1.9542  0.6110  0.1792
 6067TIP3   OH218206   3.942   3.894   4.539  0.0765 -0.1879  0.2730
 6067TIP3    H118207   3.875   3.963   4.538 -0.5255 -0.7126  1.5572
 6067TIP3    H218208   3.964   3.880   4.447  2.0570  3.4410  0.0153
 6068TIP3   OH218209   1.799   5.099   0.316  0.4530 -0.2692  0.1467
 6068TIP3    H118210   1.732   5.161   0.289 -1.1356 -2.4772 -1.4185
 6068TIP3    H218211   1.790   5.093   0.411  0.1772  1.2946  0.2428
 6069TIP3   OH218212   4.354   5.336   2.519 -0.1321 -0.4154 -0.1560
 6069TIP3    H118213   4.437   5.299   2.547 -0.0411 -0.8301 -0.9398
 6069TIP3    H218214   4.288   5.292   2.572 -0.1437 -2.6545 -1.8831
 6070TIP3   OH218215   1.689   0.888   1.182  0.1904  0.2021  0.4180
 6070TIP3    H118216   1.698   0.939   1.262 -2.5043  0.7789  0.4572
 6070TIP3    H218217   1.671   0.952   1.114 -2.1893 -0.5140  0.2720
 6071TIP3   OH218218   1.891   4.458   1.270 -0.0143 -0.4411  0.3065
 6071TIP3    H118219   1.921   4.544   1.240 -0.3265 -0.0134  1.1704
 6071TIP3    H218220   1.913   4.399   1.198  2.3454 -0.0677  0.6177
 6072TIP3   OH218221   0.286   5.216   1.832 -0.8357  0.2776  0.3361
 6072TIP3    H118222   0.356   5.245   1.774 -0.2587 -0.4635  0.6277
 6072TIP3    H218223   0.220   5.285   1.828 -0.1515  0.9235 -0.0615
 6073TIP3   OH218224   2.215   0.166   1.491  0.2805  0.5569 -0.0038
 6073TIP3    H118225   2.144   0.192   1.551 -0.8198  0.0907 -1.0567
 6073TIP3    H218226   2.169   0.128   1.416  1.7112 -0.9899 -0.1357
 6074TIP3   OH218227   3.339   0.819   4.230 -0.2845  0.5347 -0.5099
 6074TIP3    H118228   3.365   0.780   4.146 -1.6429  1.1698 -1.2607
 6074TIP3    H218229   3.370   0.909   4.225  2.8132 -0.2899  1.2039
 6075TIP3   OH218230   3.473   1.485   2.931 -0.0212 -0.5910  0.0332
 6075TIP3    H118231   3.510   1.572   2.942 -0.0628 -0.2070 -2.3959
 6075TIP3    H218232   3.440   1.462   3.018  0.5450  1.5398  0.8721
 6076TIP3   OH218233   5.744   1.481   3.199  0.4947  0.6093  0.7758
 6076TIP3    H118234   5.688   1.410   3.170 -1.2892  1.9028  0.8671
 6076TIP3    H218235   5.758   1.464   3.292 -0.2014  0.5439  0.8732
 6077TIP3   OH218236   6.002   2.976   5.129 -0.2538 -0.0532  0.3191
 6077TIP3    H118237   6.011   3.070   5.117 -1.3234 -0.0055 -0.2074
 6077TIP3    H218238   6.059   2.937   5.063  0.1384  0.2122  0.4942
 6078TIP3   OH218239   0.963   1.335   4.608 -0.2944  0.1848 -0.0195
 6078TIP3    H118240   0.940   1.243   4.619 -0.4987  0.2862  0.4388
 6078TIP3    H218241   0.915   1.363   4.530  0.1175 -0.2081 -0.4191
 6079TIP3   OH218242   0.153   0.354   1.304  0.4948  0.4058  0.0167
 6079TIP3    H118243   0.201   0.436   1.316  1.4935  0.2126 -2.1948
 6079TIP3    H218244   0.093   0.372   1.232  1.6088 -1.1012 -1.3742
 6080TIP3   OH218245   0.749   0.602   2.575 -0.1473  0.6045  0.6538
 6080TIP3    H118246   0.827   0.548   2.586 -0.7179 -0.0534  1.5834
 6080TIP3    H218247   0.676   0.541   2.587 -0.8252  1.0798 -0.8381
 6081TIP3   OH218248   4.763   2.827   3.462 -0.2373  0.3852 -0.2516
 6081TIP3    H118249   4.794   2.790   3.545 -1.8086 -0.0202  0.2034
 6081TIP3    H218250   4.712   2.904   3.488  0.7749  1.3273 -1.0000
 6082TIP3   OH218251   2.193   4.948   1.223 -0.3037 -0.1074  0.7239
 6082TIP3    H118252   2.134   5.019   1.249  0.3487  0.7463 -0.0624
 6082TIP3    H218253   2.140   4.869   1.231 -1.4002  0.5873  0.5514
 6083TIP3   OH218254   1.499   3.415   0.975 -0.4153 -0.1650  0.5252
 6083TIP3    H118255   1.506   3.438   0.883 -1.6071 -2.4406 -0.1790
 6083TIP3    H218256   1.590   3.418   1.007 -0.1694  2.3608 -0.2053
 6084TIP3   OH218257   0.296   0.835   0.565  0.0572 -0.2887 -0.1312
 6084TIP3    H118258   0.240   0.834   0.487 -0.4080  2.1796  0.0811
 6084TIP3    H218259   0.378   0.875   0.535 -0.3538  1.2824  0.7122
 6085TIP3   OH218260   0.619   1.930   0.657  0.6799 -0.5415  0.2763
 6085TIP3    H118261   0.675   1.874   0.711  0.8170 -0.4639  0.2126
 6085TIP3    H218262   0.655   1.922   0.569 -0.8118 -2.3741 -0.2307
 6086TIP3   OH218263   5.189   4.095   1.163  0.3193 -0.2727  0.2725
 6086TIP3    H118264   5.113   4.132   1.119  0.0601 -2.2465 -1.0252
 6086TIP3    H218265   5.260   4.101   1.099  1.4364  1.9216  1.6071
 6087TIP3   OH218266   5.370   0.317   2.179 -0.2938 -0.2810 -0.3636
 6087TIP3    H118267   5.391   0.411   2.176 -0.5728 -0.2053  0.0221
 6087TIP3    H218268   5.312   0.303   2.104  0.2738 -0.2777 -0.8075
 6088TIP3   OH218269   5.459   2.151   2.298 -0.4787  0.1620  0.1034
 6088TIP3    H118270   5.408   2.080   2.335  1.3172 -1.4081 -0.2814
 6088TIP3    H218271   5.533   2.162   2.358  0.4615  0.1355 -1.0060
 6089TIP3   OH218272   1.674   5.584   4.296  0.4286 -0.7675 -0.0515
 6089TIP3    H118273   1.627   5.657   4.336  0.4806 -0.8041  0.0740
 6089TIP3    H218274   1.767   5.605   4.310  0.4372 -1.0326  0.2874
 6090TIP3   OH218275   6.042   1.660   2.526 -0.0619  0.2744 -0.2404
 6090TIP3    H118276   5.979   1.606   2.478 -1.2791  0.5439  0.9949
 6090TIP3    H218277   5.995   1.687   2.605  2.4253 -1.7491  2.1531
 6091TIP3   OH218278   2.569   4.367   2.708  0.0214  0.1152  0.7558
 6091TIP3    H118279   2.568   4.324   2.622  0.2279  0.1798  0.7204
 6091TIP3    H218280   2.503   4.321   2.759  0.7334 -0.7173  0.9520
 6092TIP3   OH218281   3.080   1.711   0.775 -0.1830 -0.9980 -0.3159
 6092TIP3    H118282   3.148   1.753   0.722 -1.0720  1.9174  0.6695
 6092TIP3    H218283   3.085   1.618   0.750  3.3849 -0.7814 -1.0813
 6093TIP3   OH218284   5.050   4.449   2.494 -0.1317  0.2107  0.3183
 6093TIP3    H118285   5.109   4.392   2.543  0.7895  2.0324  1.4342
 6093TIP3    H218286   5.011   4.392   2.428  0.0327 -1.8997  1.9374
 6094TIP3   OH218287   4.478   1.518   3.108  0.3590  0.6775 -0.3706
 6094TIP3    H118288   4.442   1.509   3.019  0.2463 -2.3940 -0.1314
 6094TIP3    H218289   4.499   1.428   3.134  0.9246  1.5563  2.5243
 6095TIP3   OH218290   1.030   1.945   3.915 -0.3969 -0.3488  0.0897
 6095TIP3    H118291   1.046   1.972   3.824 -0.7173  1.3725  0.4959
 6095TIP3    H218292   1.009   2.027   3.960  0.4103 -1.0786  1.8652
 6096TIP3   OH218293   5.531   3.213   3.747 -0.0422  0.2774  0.2416
 6096TIP3    H118294   5.461   3.156   3.715  0.1643  0.2158 -0.1173
 6096TIP3    H218295   5.608   3.156   3.749  0.4108  0.7907 -1.1462
 6097TIP3   OH218296   2.317   0.775   0.288  0.6845 -0.5569  0.6269
 6097TIP3    H118297   2.367   0.760   0.368  2.3003  2.2064  0.2243
 6097TIP3    H218298   2.233   0.810   0.318  1.0447 -0.1260  1.1365
 6098TIP3   OH218299   4.924   1.525   1.843 -0.3824 -0.0594 -0.1514
 6098TIP3    H118300   5.019   1.515   1.852 -0.4863 -0.9564  0.0942
 6098TIP3    H218301   4.908   1.509   1.750 -0.2607  0.4323 -0.2599
 6099TIP3   OH218302   2.362   3.094   1.352  0.5133 -0.4101 -0.1635
 6099TIP3    H118303   2.267   3.090   1.339  0.7435 -1.7461 -1.7197
 6099TIP3    H218304   2.385   3.184   1.332 -0.1483 -0.6499 -2.2140
 6100TIP3   OH218305   0.451   0.378   3.462 -0.2800  0.2965  0.2796
 6100TIP3    H118306   0.544   0.391   3.443 -0.5969 -0.0955 -1.7766
 6100TIP3    H218307   0.421   0.462   3.496  0.8727  0.3340  1.2874
 6101TIP3   OH218308   5.642   3.202   5.057  0.3652 -0.3589 -0.1403
 6101TIP3    H118309   5.609   3.113   5.060 -0.8767 -0.1656 -3.7611
 6101TIP3    H218310   5.706   3.202   4.985 -0.6058  1.8882 -1.0904
 6102TIP3   OH218311   1.899   1.753   0.808 -0.3000  0.2534  0.3629
 6102TIP3    H118312   1.824   1.730   0.754  0.3536  0.1577 -0.5268
 6102TIP3    H218313   1.959   1.799   0.748 -0.0619  1.1884  1.2730
 6103TIP3   OH218314   4.247   3.929   3.944  0.7309 -0.3808 -0.3887
 6103TIP3    H118315   4.202   3.908   3.862 -2.3685  1.9945  0.5331
 6103TIP3    H218316   4.245   4.025   3.949  0.5031 -0.4521  2.6236
 6104TIP3   OH218317   5.837   5.077   3.914 -0.1725  0.4634  0.4474
 6104TIP3    H118318   5.855   5.167   3.939 -1.3440  0.7038  0.4743
 6104TIP3    H218319   5.790   5.040   3.989 -1.2233  0.3631 -0.2264
 6105TIP3   OH218320   4.567   0.918   0.123  0.3438  0.6120  0.1554
 6105TIP3    H118321   4.596   0.985   0.185  1.9872  0.9562 -0.9176
 6105TIP3    H218322   4.499   0.962   0.071 -1.2373  0.2366  1.8114
 6106TIP3   OH218323   5.083   5.901   2.844  0.1225  0.1302  0.4772
 6106TIP3    H118324   5.034   5.843   2.785  1.4332  0.2925 -0.8392
 6106TIP3    H218325   5.098   5.980   2.792  0.9237  0.4650  1.2058
 6107TIP3   OH218326   5.374   0.699   2.818 -0.4124 -0.0320  0.4620
 6107TIP3    H118327   5.361   0.792   2.839  0.1143 -0.2965  2.0956
 6107TIP3    H218328   5.451   0.673   2.869 -0.4121 -1.3139 -0.1560
 6108TIP3   OH218329   4.391   4.121   2.019 -0.1727  0.0672  0.1197
 6108TIP3    H118330   4.338   4.200   2.016  1.1177  0.9390 -0.9070
 6108TIP3    H218331   4.475   4.150   2.054  0.2013 -0.9317  0.0761
 6109TIP3   OH218332   5.808   4.222   4.671 -0.4961  0.2486  0.4568
 6109TIP3    H118333   5.856   4.274   4.607 -0.1649  1.2449  1.4683
 6109TIP3    H218334   5.875   4.182   4.725 -0.7552  1.1538  1.4985
 6110TIP3   OH218335   3.622   1.572   4.759  0.5480 -0.0186 -0.1463
 6110TIP3    H118336   3.576   1.533   4.684 -0.3156  1.2692 -0.2994
 6110TIP3    H218337   3.596   1.518   4.834 -3.3149  2.0794  0.2630
 6111TIP3   OH218338   3.367   4.824   3.944 -0.4853 -0.4327  0.0194
 6111TIP3    H118339   3.348   4.787   3.857 -0.3732 -0.2178 -0.0979
 6111TIP3    H218340   3.462   4.834   3.946 -0.6701  2.5079 -1.0712
 6112TIP3   OH218341   1.282   4.954   0.218  0.3710 -0.4552  0.2242
 6112TIP3    H118342   1.267   4.990   0.306 -1.1055 -1.8284  0.5857
 6112TIP3    H218343   1.200   4.970   0.172  0.8404 -0.5118 -0.6467
 6113TIP3   OH218344   2.785   5.580   4.235  0.0994  0.0890  0.2919
 6113TIP3    H118345   2.693   5.562   4.215  0.5102 -0.4101 -1.2451
 6113TIP3    H218346   2.820   5.620   4.155  0.6958  2.3929  1.6124
 6114TIP3   OH218347   2.704   0.445   3.537  0.6137  0.3225  0.7630
 6114TIP3    H118348   2.799   0.442   3.525  0.7462  1.6037  1.3763
 6114TIP3    H218349   2.682   0.538   3.537 -0.6602  0.0395  0.5477
 6115TIP3   OH218350   2.375   2.873   0.109 -0.2823 -0.3055 -0.4529
 6115TIP3    H118351   2.333   2.920   0.181  2.8203 -0.0305  1.3934
 6115TIP3    H218352   2.391   2.940   0.042 -2.3720 -0.3669 -1.0643
 6116TIP3   OH218353   0.918   2.477   5.052 -0.0120 -0.0912  0.2676
 6116TIP3    H118354   0.890   2.568   5.063 -0.2872  0.0874 -1.5847
 6116TIP3    H218355   0.976   2.461   5.126  2.3145  2.5159 -0.8134
 6117TIP3   OH218356   2.466   5.634   1.258  0.1894  0.3043  0.5819
 6117TIP3    H118357   2.442   5.582   1.335 -0.1992 -0.5652 -0.1023
 6117TIP3    H218358   2.398   5.615   1.195  1.1602  0.0236 -0.4111
 6118TIP3   OH218359   0.067   0.394   0.647  0.5224 -0.5182  0.5444
 6118TIP3    H118360   0.113   0.315   0.617 -1.0702 -1.2149 -0.1815
 6118TIP3    H218361   0.027   0.369   0.730  0.9688 -0.0929  0.8932
 6119TIP3   OH218362   5.200   4.119   2.432  0.4103 -0.0348  0.1452
 6119TIP3    H118363   5.215   4.180   2.504  0.3138  1.6296 -1.1788
 6119TIP3    H218364   5.283   4.117   2.385 -0.0684  0.3535 -0.7380
 6120TIP3   OH218365   1.684   4.385   1.413  0.5305 -0.4362 -0.0865
 6120TIP3    H118366   1.630   4.320   1.369  1.1633 -1.7076  0.9275
 6120TIP3    H218367   1.762   4.393   1.357  0.1016  0.0586 -0.6228
 6121TIP3   OH218368   2.824   5.965   4.716  0.7177  0.2472 -0.0358
 6121TIP3    H118369   2.736   5.996   4.732  0.0889 -1.7855  0.7803
 6121TIP3    H218370   2.823   5.937   4.624  1.1914  2.2074 -0.6711
 6122TIP3   OH218371   4.293   0.985   1.611 -0.8279 -0.2468  0.2120
 6122TIP3    H118372   4.361   0.943   1.664 -0.9852 -0.3433  0.3404
 6122TIP3    H218373   4.341   1.032   1.542 -0.4741  1.6465  1.6525
 6123TIP3   OH218374   1.069   2.075   2.960  0.2401  0.5387 -0.0056
 6123TIP3    H118375   1.053   1.989   2.998 -2.8703  0.8612 -0.3063
 6123TIP3    H218376   1.070   2.135   3.035  0.8584  0.4329  0.0757
 6124TIP3   OH218377   0.899   2.466   1.998  0.3012 -0.1243 -0.2009
 6124TIP3    H118378   0.901   2.534   2.065 -1.0002  2.4927 -2.6291
 6124TIP3    H218379   0.968   2.490   1.937 -0.9091 -0.2928 -1.6904
 6125TIP3   OH218380   4.962   3.132   2.448 -0.6733 -0.3266  0.5593
 6125TIP3    H118381   4.996   3.046   2.472 -0.3640 -0.2641  0.3528
 6125TIP3    H218382   4.978   3.187   2.525  0.6073 -0.0442  0.1116
 6126TIP3   OH218383   0.649   5.070   0.173  0.2733  0.1881  0.4596
 6126TIP3    H118384   0.648   5.113   0.258  0.3584 -0.3950  0.7588
 6126TIP3    H218385   0.606   4.986   0.188 -0.4620  0.4210 -0.2592
 6127TIP3   OH218386   3.210   3.083   1.647 -0.2315 -0.1508  0.0231
 6127TIP3    H118387   3.123   3.046   1.666 -0.3568  0.5952  0.9575
 6127TIP3    H218388   3.191   3.170   1.610  0.1003 -0.4356 -0.8447
 6128TIP3   OH218389   0.371   1.612   3.979  0.5943 -0.0150  1.0955
 6128TIP3    H118390   0.367   1.677   3.908  1.5415 -2.9727 -1.9469
 6128TIP3    H218391   0.287   1.567   3.974  0.9282 -0.6751  1.4428
 6129TIP3   OH218392   0.189   2.229   0.832  0.2778 -0.5403  0.2240
 6129TIP3    H118393   0.228   2.196   0.750  0.3233 -0.6775  0.3001
 6129TIP3    H218394   0.164   2.319   0.812  1.7756 -0.0235  0.5320
 6130TIP3   OH218395   6.076   1.569   3.493  0.0769 -0.6195 -0.4665
 6130TIP3    H118396   6.051   1.632   3.560  2.1654  0.1031 -0.2950
 6130TIP3    H218397   5.997   1.517   3.478 -1.3624  1.2742  0.2173
 6131TIP3   OH218398   1.181   1.185   4.292 -0.4527 -0.2524  0.3610
 6131TIP3    H118399   1.176   1.244   4.217 -1.4802 -1.0919 -0.2661
 6131TIP3    H218400   1.256   1.216   4.343 -0.5827  1.1849 -0.2789
 6132TIP3   OH218401   4.941   0.866   1.719  0.1443  0.6853 -0.0941
 6132TIP3    H118402   4.862   0.821   1.749  1.3034 -1.4585 -0.0653
 6132TIP3    H218403   4.909   0.930   1.655 -1.5292 -1.0492 -1.1073
 6133TIP3   OH218404   4.092   0.322   2.316  0.7042  0.0493  0.0145
 6133TIP3    H118405   4.089   0.395   2.254 -0.0634 -0.6832 -0.8398
 6133TIP3    H218406   4.117   0.363   2.399  0.0076  1.3404 -0.3716
 6134TIP3   OH218407   2.721   0.193   3.416 -0.3067 -0.1533  0.0535
 6134TIP3    H118408   2.702   0.273   3.465  1.5905 -0.3684  1.2607
 6134TIP3    H218409   2.719   0.123   3.482 -1.0052 -0.9688 -0.8069
 6135TIP3   OH218410   2.007   0.556   4.320  0.2257 -0.1464 -0.4532
 6135TIP3    H118411   1.992   0.650   4.328 -2.2249 -0.3528 -1.6570
 6135TIP3    H218412   1.950   0.517   4.385 -0.5682 -0.8505 -1.5351
 6136TIP3   OH218413   4.403   3.316   4.523 -0.1574  0.0680 -0.1529
 6136TIP3    H118414   4.326   3.285   4.474 -1.7276 -1.1284  2.7955
 6136TIP3    H218415   4.375   3.315   4.615  3.2373  0.1203  1.0292
 6137TIP3   OH218416   1.944   3.993   1.094  0.1245 -0.0737  0.7516
 6137TIP3    H118417   1.957   3.928   1.025 -1.1530 -0.3555  0.7432
 6137TIP3    H218418   2.032   4.014   1.124  0.6534 -0.6117 -0.3470
 6138TIP3   OH218419   4.722   1.362   1.927 -0.7870 -0.0141  0.3585
 6138TIP3    H118420   4.641   1.393   1.887 -1.0400 -0.8466  0.1966
 6138TIP3    H218421   4.791   1.416   1.889 -0.9078 -1.2766 -1.8605
 6139TIP3   OH218422   3.911   0.575   0.521 -0.8044  0.2176 -0.3609
 6139TIP3    H118423   3.946   0.660   0.494  0.4574 -1.1123 -3.4276
 6139TIP3    H218424   3.819   0.577   0.492 -0.1409 -0.2332 -2.7720
 6140TIP3   OH218425   4.263   2.955   3.839  0.1587  0.5540 -0.2062
 6140TIP3    H118426   4.172   2.932   3.818 -0.3806  2.1222  0.2913
 6140TIP3    H218427   4.260   3.047   3.862  1.6930  0.3432  1.0149
 6141TIP3   OH218428   1.020   0.401   4.735 -0.3498 -0.6124  0.0063
 6141TIP3    H118429   0.987   0.326   4.687 -1.4240 -0.3855  0.3607
 6141TIP3    H218430   0.991   0.387   4.825  1.3722 -0.8832  0.5567
 6142TIP3   OH218431   5.273   4.697   0.381 -0.1534 -0.9663 -0.1967
 6142TIP3    H118432   5.312   4.783   0.395 -0.4844 -0.6158 -1.3476
 6142TIP3    H218433   5.180   4.709   0.398 -0.2063 -1.0924 -0.3909
 6143TIP3   OH218434   1.282   4.396   4.090 -0.0475 -0.2298  0.0332
 6143TIP3    H118435   1.231   4.456   4.145  1.5682  1.2679 -0.0088
 6143TIP3    H218436   1.308   4.449   4.015  0.4585 -1.3316 -0.5935
 6144TIP3   OH218437   2.642   0.953   3.268 -0.0437 -0.0831 -0.1972
 6144TIP3    H118438   2.632   0.868   3.312  1.1595 -0.4493 -0.5742
 6144TIP3    H218439   2.626   1.018   3.336  1.1969 -0.6300  0.6584
 6145TIP3   OH218440   4.804   0.936   3.570  0.0618  0.0367  0.8273
 6145TIP3    H118441   4.719   0.968   3.601 -0.0997 -1.1166  1.6458
 6145TIP3    H218442   4.800   0.841   3.584  1.1664 -0.1377  0.0782
 6146TIP3   OH218443   3.791   0.856   2.600 -0.0598  0.3189 -0.1734
 6146TIP3    H118444   3.875   0.901   2.607  0.4185 -0.5199 -0.3874
 6146TIP3    H218445   3.811   0.777   2.551 -1.0141  0.1947 -0.3736
 6147TIP3   OH218446   2.839   5.926   2.043 -0.2674 -0.0417  0.2654
 6147TIP3    H118447   2.877   5.923   1.955  0.0613  0.4616  0.3842
 6147TIP3    H218448   2.914   5.925   2.102 -0.5120 -1.1691  0.5689
 6148TIP3   OH218449   0.737   0.095   4.305  0.1321  0.1868  0.0547
 6148TIP3    H118450   0.700   0.171   4.259 -0.3183 -0.0582  0.0087
 6148TIP3    H218451   0.818   0.128   4.344  0.6317  0.3553 -1.0734
 6149TIP3   OH218452   3.862   2.230   4.504  0.1151 -0.4401 -0.1037
 6149TIP3    H118453   3.948   2.256   4.538  0.1366 -0.1803 -0.3549
 6149TIP3    H218454   3.840   2.298   4.440 -2.2441  2.0172  2.9869
 6150TIP3   OH218455   1.748   3.349   1.079 -0.0617 -0.6103 -0.2179
 6150TIP3    H118456   1.820   3.410   1.062 -2.2275  2.1134 -0.2650
 6150TIP3    H218457   1.756   3.326   1.172  0.5977  0.0166 -0.1173
 6151TIP3   OH218458   5.163   2.073   4.819 -0.3383 -0.5541 -0.4291
 6151TIP3    H118459   5.126   2.070   4.908  1.5867 -1.5545  0.3777
 6151TIP3    H218460   5.183   2.165   4.805 -0.0971 -0.4669  0.4299
 6152TIP3   OH218461   1.626   2.391   4.754 -0.1232  0.4351 -0.9385
 6152TIP3    H118462   1.561   2.461   4.755 -1.1127 -0.4666  0.0179
 6152TIP3    H218463   1.691   2.419   4.688 -1.2183  1.5677 -1.5726
 6153TIP3   OH218464   2.408   4.583   2.357  0.1999 -0.3212  0.3194
 6153TIP3    H118465   2.464   4.616   2.287 -1.0391  0.8913 -0.1479
 6153TIP3    H218466   2.446   4.618   2.437  2.0173 -2.2560  0.3937
 6154TIP3   OH218467   4.009   4.895   5.119 -0.2856 -0.0416  0.0597
 6154TIP3    H118468   4.000   4.805   5.087  0.6939 -0.5162  1.0637
 6154TIP3    H218469   3.920   4.930   5.116 -0.8640 -1.3832  0.5967
 6155TIP3   OH218470   5.435   3.464   4.217 -0.2567 -0.3511 -0.5386
 6155TIP3    H118471   5.463   3.423   4.136  0.3246  0.4308 -0.7481
 6155TIP3    H218472   5.391   3.395   4.266  0.4327 -1.1279 -1.0074
 6156TIP3   OH218473   4.872   1.338   0.338  0.4378 -0.0374 -0.2149
 6156TIP3    H118474   4.927   1.415   0.355  0.0004  0.3927 -0.7192
 6156TIP3    H218475   4.930   1.278   0.291  0.4881  0.3991 -0.7151
 6157TIP3   OH218476   2.848   0.089   1.795  0.3406  1.0951  0.6883
 6157TIP3    H118477   2.935   0.112   1.762  1.0512 -0.0943  1.6278
 6157TIP3    H218478   2.838   0.143   1.874  0.5530  0.7127  0.9835
 6158TIP3   OH218479   4.946   1.147   3.632  0.1384  0.4770 -0.0450
 6158TIP3    H118480   4.898   1.066   3.613 -0.0668  0.7390 -0.6490
 6158TIP3    H218481   4.931   1.162   3.726 -0.0413 -0.0411  0.0131
 6159TIP3   OH218482   1.093   0.647   2.437  0.4466  0.5832  0.4784
 6159TIP3    H118483   1.162   0.648   2.370  0.4931 -0.8512  0.4844
 6159TIP3    H218484   1.032   0.716   2.410  1.5044  1.3967  0.0874
 6160TIP3   OH218485   3.068   0.375   4.455 -0.4897 -0.2890 -0.5901
 6160TIP3    H118486   3.053   0.307   4.389 -1.0235  0.0839 -0.8612
 6160TIP3    H218487   2.992   0.433   4.448  0.4190  0.9037 -1.0611
 6161TIP3   OH218488   6.292   5.441   2.937 -0.1366 -0.1999  0.4801
 6161TIP3    H118489   6.338   5.473   2.860 -0.1648 -0.6554  0.2755
 6161TIP3    H218490   6.200   5.441   2.912 -0.1592 -0.2120  0.5622
 6162TIP3   OH218491   2.453   2.059   2.369  0.0189  0.5411 -0.2367
 6162TIP3    H118492   2.446   2.153   2.388  0.3923  0.4694  0.2876
 6162TIP3    H218493   2.380   2.019   2.417 -1.6634  0.7949 -2.3998
 6163TIP3   OH218494   0.340   1.344  -0.009  0.0359 -0.7945  0.5548
 6163TIP3    H118495   0.382   1.420  -0.050  0.5160 -0.5069  1.5441
 6163TIP3    H218496   0.401   1.317   0.060 -0.9558 -0.9821  1.3847
 6164TIP3   OH218497   6.150   4.901   2.209 -0.0323 -0.4667 -0.2438
 6164TIP3    H118498   6.202   4.856   2.275  1.3599 -1.5433 -2.0049
 6164TIP3    H218499   6.059   4.885   2.236  0.4625 -2.5589  0.3307
 6165TIP3   OH218500   1.005   5.728   4.088 -0.1845  0.5485  0.3276
 6165TIP3    H118501   0.990   5.673   4.011 -0.7534  1.5486 -0.3025
 6165TIP3    H218502   1.088   5.697   4.123 -0.2169 -0.3406 -0.3252
 6166TIP3   OH218503   5.505   2.229   3.974 -0.0496 -0.0240  0.8655
 6166TIP3    H118504   5.549   2.204   4.055 -0.3763 -4.2210 -0.0456
 6166TIP3    H218505   5.566   2.202   3.905 -1.5810 -0.5654 -0.3224
 6167TIP3   OH218506   2.230   1.936   2.998 -0.2799 -0.1342  0.0256
 6167TIP3    H118507   2.283   1.865   2.962  0.9244  0.7929 -0.1049
 6167TIP3    H218508   2.169   1.958   2.928  0.2938 -0.0960 -0.4686
 6168TIP3   OH218509   2.099   2.198   5.068 -0.1073  0.0152  0.3374
 6168TIP3    H118510   2.070   2.125   5.012 -0.2428  0.9553 -0.8724
 6168TIP3    H218511   2.113   2.158   5.154 -1.7574 -1.1374  0.1314
 6169TIP3   OH218512   3.406   5.464   2.534 -0.7747 -0.0952  0.2418
 6169TIP3    H118513   3.425   5.392   2.474  0.1254 -0.5647  1.0650
 6169TIP3    H218514   3.467   5.533   2.508 -0.6790 -0.1391  0.3529
 6170TIP3   OH218515   2.310   4.028   0.635 -0.6837 -0.1785 -0.7756
 6170TIP3    H118516   2.341   4.112   0.600  0.9349 -0.2292  0.4383
 6170TIP3    H218517   2.361   3.963   0.587 -1.3993 -0.4496 -1.1819
 6171TIP3   OH218518   6.251   1.205   1.411  0.1092  0.4341 -0.1136
 6171TIP3    H118519   6.196   1.127   1.416  0.1429  0.4269  0.1520
 6171TIP3    H218520   6.205   1.263   1.350 -0.7308  0.8519  0.8770
 6172TIP3   OH218521   1.658   4.557   4.446  0.2149 -0.1500  0.4005
 6172TIP3    H118522   1.588   4.530   4.387 -0.4583  4.0425 -1.0155
 6172TIP3    H218523   1.614   4.575   4.529  0.5596 -2.2470  1.1207
 6173TIP3   OH218524   5.259   2.148   3.332 -0.4494 -0.1821  0.0972
 6173TIP3    H118525   5.213   2.121   3.411  0.7612  2.0721  1.6975
 6173TIP3    H218526   5.338   2.093   3.330 -0.5683 -0.3634  0.3711
 6174TIP3   OH218527   4.579   4.556   0.247 -0.5311 -0.0857 -0.0955
 6174TIP3    H118528   4.624   4.478   0.215  0.7233  0.5672  0.0210
 6174TIP3    H218529   4.593   4.622   0.180  0.2303  0.6468  0.7639
 6175TIP3   OH218530   5.880   0.291   0.656 -0.2000  0.1823  0.2363
 6175TIP3    H118531   5.843   0.283   0.744  0.0146 -1.2488  0.2136
 6175TIP3    H218532   5.866   0.205   0.616 -0.8455  0.9937 -1.3549
 6176TIP3   OH218533   3.881   4.780   1.342  0.1796 -0.4705 -0.2891
 6176TIP3    H118534   3.867   4.814   1.254 -0.7658 -0.8650 -0.3002
 6176TIP3    H218535   3.952   4.833   1.378 -2.1603  2.5575  0.2489
 6177TIP3   OH218536   6.078   0.819   3.638 -0.2778 -0.0463 -0.5827
 6177TIP3    H118537   6.096   0.725   3.643 -0.2148  0.0061  0.8293
 6177TIP3    H218538   6.144   0.854   3.579 -0.7117 -0.9739 -1.6553
 6178TIP3   OH218539   3.979   4.132   0.048 -0.1835  0.3723  0.2916
 6178TIP3    H118540   3.916   4.079  -0.000 -0.1382  0.1987  0.4211
 6178TIP3    H218541   3.985   4.090   0.134  0.5546  0.0228  0.0843
 6179TIP3   OH218542   2.011   2.506   0.423  0.0923  0.8398  0.1996
 6179TIP3    H118543   2.047   2.585   0.464  2.5954 -0.3223  0.3988
 6179TIP3    H218544   2.021   2.521   0.329 -0.7294  1.3001  0.1740
 6180TIP3   OH218545   4.072   3.785   2.577  0.3674  0.1442  0.3935
 6180TIP3    H118546   4.089   3.693   2.597  1.6736  0.4565  0.8476
 6180TIP3    H218547   4.003   3.812   2.638  2.1811  0.2767  2.5165
 6181TIP3   OH218548   4.490   4.698   4.912  0.0588 -0.3864  0.2283
 6181TIP3    H118549   4.511   4.610   4.882  0.0086 -0.2382 -0.2551
 6181TIP3    H218550   4.523   4.756   4.843 -0.7654 -0.0773  0.0728
 6182TIP3   OH218551   5.806   1.698   0.142 -0.1892  0.6398 -0.5432
 6182TIP3    H118552   5.717   1.694   0.179 -0.0957  1.9486 -0.1298
 6182TIP3    H218553   5.802   1.642   0.064 -0.9064 -0.6656  0.3797
 6183TIP3   OH218554   4.996   3.367   1.482  0.2029  0.1302 -0.3270
 6183TIP3    H118555   4.939   3.396   1.553  2.1023 -0.7706  1.6528
 6183TIP3    H218556   5.072   3.330   1.525  1.8920  0.3970 -2.8521
 6184TIP3   OH218557   2.548   0.696   0.462 -0.3669 -0.8800  0.3666
 6184TIP3    H118558   2.563   0.773   0.517 -1.0058 -0.1650 -0.4221
 6184TIP3    H218559   2.473   0.652   0.501 -0.5192 -0.6414  0.3404
 6185TIP3   OH218560   1.155   1.993   1.948 -0.4543  0.2923 -0.6851
 6185TIP3    H118561   1.224   1.953   1.895  0.0287  2.0649 -1.4749
 6185TIP3    H218562   1.074   1.952   1.917 -0.1835  1.2407 -2.8305
 6186TIP3   OH218563   5.511   5.499   3.743 -0.3034 -0.2863  0.3499
 6186TIP3    H118564   5.512   5.543   3.658  2.1563 -0.8692  0.0051
 6186TIP3    H218565   5.548   5.563   3.804 -0.7100 -0.3893  0.7155
 6187TIP3   OH218566   0.184   4.246   4.804  0.3425 -0.2762 -0.7283
 6187TIP3    H118567   0.114   4.200   4.849  1.1728 -1.4254 -0.5633
 6187TIP3    H218568   0.143   4.326   4.769 -1.0502 -0.9711 -0.7297
 6188TIP3   OH218569   0.910   0.823   0.682 -0.1028 -0.3898 -0.0679
 6188TIP3    H118570   0.935   0.742   0.727  1.2550 -0.5692 -1.0771
 6188TIP3    H218571   0.865   0.875   0.749  2.6737 -0.2308  1.8424
 6189TIP3   OH218572   1.410   3.738   2.033  0.3472 -0.0563 -0.1545
 6189TIP3    H118573   1.419   3.785   1.950 -1.5441  0.2434 -0.2345
 6189TIP3    H218574   1.396   3.807   2.098 -0.6900 -0.3906 -0.0032
 6190TIP3   OH218575   1.179   3.090   1.568  1.2593  0.4254  0.3617
 6190TIP3    H118576   1.215   3.015   1.521  0.2978  0.4230 -0.4136
 6190TIP3    H218577   1.093   3.061   1.598  0.8736  1.2026  0.0471
 6191TIP3   OH218578   1.811   0.008   2.332 -0.1080 -0.0167 -0.3303
 6191TIP3    H118579   1.856   0.091   2.319  0.4276 -0.0201  1.3025
 6191TIP3    H218580   1.800   0.001   2.427 -0.4062 -1.6731 -0.4568
 6192TIP3   OH218581   0.258   4.090   3.703 -0.2901 -0.4846  0.4231
 6192TIP3    H118582   0.306   4.011   3.727 -0.9031 -1.1926 -0.6145
 6192TIP3    H218583   0.221   4.071   3.617  0.4053  1.3354 -0.3276
 6193TIP3   OH218584   1.488   1.629   3.596 -0.3982  0.3145 -0.0586
 6193TIP3    H118585   1.566   1.682   3.576 -0.6259  1.0409  0.8875
 6193TIP3    H218586   1.415   1.679   3.558 -0.4044 -0.4683 -1.1265
 6194TIP3   OH218587   6.174   0.428   2.174 -0.0407  0.3294 -0.3632
 6194TIP3    H118588   6.175   0.407   2.268  0.1226 -2.1929 -0.8639
 6194TIP3    H218589   6.099   0.486   2.164 -0.0775  0.6305  1.3161
 6195TIP3   OH218590   3.005   4.285   2.141 -0.0853  0.5255 -0.1030
 6195TIP3    H118591   3.059   4.260   2.216 -0.0615  0.4023 -0.1607
 6195TIP3    H218592   2.917   4.295   2.178 -0.4941 -1.5153 -0.4025
 6196TIP3   OH218593   1.837   2.699   0.958 -0.4345 -0.1678  0.1893
 6196TIP3    H118594   1.929   2.695   0.983 -0.1538  1.1907 -0.5282
 6196TIP3    H218595   1.815   2.609   0.932  0.4179 -0.6907  1.2182
 6197TIP3   OH218596   4.490   1.154   2.243 -0.1425  0.3916  1.3820
 6197TIP3    H118597   4.505   1.062   2.263 -2.0880  0.2722  2.5377
 6197TIP3    H218598   4.567   1.180   2.192  0.1475 -2.0100  0.4731
 6198TIP3   OH218599   4.481   4.222   0.438  0.1319 -0.0043  0.5199
 6198TIP3    H118600   4.407   4.162   0.426  0.9749 -1.2160  1.2252
 6198TIP3    H218601   4.516   4.233   0.349 -0.3413 -0.1358  0.3102
 6199TIP3   OH218602   6.198   0.205   2.029 -0.3938  0.7196  0.5790
 6199TIP3    H118603   6.194   0.239   1.940 -1.6140 -1.5607 -0.3056
 6199TIP3    H218604   6.178   0.281   2.085  0.6217  2.2386 -1.0261
 6200TIP3   OH218605   3.747   1.885   1.344  0.2968  0.0091 -0.3559
 6200TIP3    H118606   3.781   1.974   1.339  1.3888 -0.4267 -0.9374
 6200TIP3    H218607   3.722   1.863   1.255 -2.4520  0.6297  0.1662
 6201TIP3   OH218608   6.019   5.332   3.815 -1.1829  0.2952  0.4307
 6201TIP3    H118609   6.111   5.305   3.813 -0.9900  0.9863 -1.0421
 6201TIP3    H218610   6.015   5.394   3.888 -0.0357  1.6495 -0.5811
 6202TIP3   OH218611   5.725   0.969   3.192  0.0191  0.6193  0.3433
 6202TIP3    H118612   5.766   0.883   3.194 -0.0718  0.5840  0.6106
 6202TIP3    H218613   5.653   0.964   3.255 -0.0328  0.8669  0.3062
 6203TIP3   OH218614   2.305   1.395   1.335  0.6210 -0.7752  0.2243
 6203TIP3    H118615   2.246   1.399   1.260  1.4282 -1.9369 -0.5146
 6203TIP3    H218616   2.259   1.442   1.404 -0.1793  0.2584 -0.9664
 6204TIP3   OH218617   2.527   4.468   4.668 -1.1069  0.4922 -0.4316
 6204TIP3    H118618   2.607   4.422   4.642 -1.1213  0.6378 -0.7450
 6204TIP3    H218619   2.539   4.557   4.634  0.9554  2.1681  3.9609
 6205TIP3   OH218620   4.979   5.530   2.380 -0.0109  0.1005 -0.3817
 6205TIP3    H118621   5.000   5.602   2.321 -0.9189 -0.0402 -0.8946
 6205TIP3    H218622   5.061   5.480   2.387 -0.0864 -0.3628 -2.2097
 6206TIP3   OH218623   4.675   1.931   0.870 -0.2727  0.0982 -0.1296
 6206TIP3    H118624   4.734   1.859   0.892  0.8264  1.3837  1.4287
 6206TIP3    H218625   4.588   1.891   0.863  0.5338 -1.6004 -0.9535
 6207TIP3   OH218626   4.614   3.825   0.886 -0.2951  0.2145 -0.4757
 6207TIP3    H118627   4.634   3.906   0.933 -0.8284 -0.1558  0.4444
 6207TIP3    H218628   4.660   3.832   0.803  0.7068  0.8998  0.1160
 6208TIP3   OH218629   4.075   5.519   0.600 -0.4435 -0.7263 -0.0611
 6208TIP3    H118630   4.063   5.576   0.676  2.7477  0.0950 -0.0320
 6208TIP3    H218631   4.031   5.565   0.529 -0.6297  0.1663  0.6068
 6209TIP3   OH218632   1.706   4.887   3.968  0.2972 -0.4401  0.5574
 6209TIP3    H118633   1.757   4.938   4.031 -0.4183  0.2213  0.6024
 6209TIP3    H218634   1.772   4.853   3.907  0.6621  1.8440 -0.4324
 6210TIP3   OH218635   0.816   6.010   3.057  0.5795 -0.0907 -0.0725
 6210TIP3    H118636   0.782   5.926   3.088  0.8432  0.4269  1.7700
 6210TIP3    H218637   0.780   6.020   2.969  0.6386 -2.1757 -0.3788
 6211TIP3   OH218638   4.226   1.281   3.262 -0.0620 -0.4537 -0.0544
 6211TIP3    H118639   4.306   1.258   3.216 -0.0115 -0.1784 -0.1063
 6211TIP3    H218640   4.197   1.362   3.220 -0.6981 -0.8744 -0.4474
 6212TIP3   OH218641   3.010   5.908   4.084  0.3480 -0.3132  0.5602
 6212TIP3    H118642   3.092   5.903   4.035 -0.1339  0.9157 -0.4308
 6212TIP3    H218643   3.016   5.991   4.132  0.8879 -1.5724  2.7917
 6213TIP3   OH218644   2.490   4.108   4.190  0.1222  0.3812 -0.0088
 6213TIP3    H118645   2.543   4.028   4.190 -0.8460 -0.2831 -0.4194
 6213TIP3    H218646   2.461   4.118   4.281  0.1420  0.2029  0.0168
 6214TIP3   OH218647   2.470   1.878   4.411  0.1039 -0.1321 -0.1376
 6214TIP3    H118648   2.435   1.883   4.322  1.0085  0.7111 -0.4618
 6214TIP3    H218649   2.496   1.968   4.431  0.8276 -0.4960  0.5932
 6215TIP3   OH218650   5.245   4.228   0.139  0.1811 -0.5191 -0.1959
 6215TIP3    H118651   5.196   4.258   0.216  2.3749 -1.9252  1.8708
 6215TIP3    H218652   5.193   4.155   0.104 -1.8051  1.3128 -1.3122
 6216TIP3   OH218653   2.080   0.904   0.325 -0.0266 -0.2816  0.5730
 6216TIP3    H118654   2.047   0.922   0.236 -0.3918 -1.7105  0.3779
 6216TIP3    H218655   2.015   0.943   0.383  0.2620  0.7470  0.2239
 6217TIP3   OH218656   4.514   4.646   2.331  0.4969  0.0639 -0.6838
 6217TIP3    H118657   4.538   4.567   2.284 -1.2525 -0.7852 -0.2418
 6217TIP3    H218658   4.430   4.672   2.293 -0.5591 -0.1720  1.3060
 6218TIP3   OH218659   4.849   0.154   3.007  0.6818 -0.0629 -0.3781
 6218TIP3    H118660   4.797   0.078   3.034  1.2378  0.3018  2.0357
 6218TIP3    H218661   4.927   0.150   3.063  0.8962  2.0881 -0.4348
 6219TIP3   OH218662   0.523   1.043   1.671  0.1044  0.2644 -0.0824
 6219TIP3    H118663   0.468   1.115   1.638  0.7213  1.0155  0.4812
 6219TIP3    H218664   0.612   1.068   1.646  0.3428 -0.2025  0.3028
 6220TIP3   OH218665   6.162   0.163   5.026 -0.2890  0.2187 -0.5669
 6220TIP3    H118666   6.151   0.234   5.090 -2.7539 -0.4781 -0.1121
 6220TIP3    H218667   6.182   0.207   4.944 -2.1994  1.5066 -0.3843
 6221TIP3   OH218668   3.933   5.344   0.784  0.0583 -0.1451 -0.2907
 6221TIP3    H118669   3.919   5.408   0.854 -0.3328 -0.3647 -0.1651
 6221TIP3    H218670   3.968   5.395   0.711 -0.5928  0.2826 -0.3160
 6222TIP3   OH218671   3.561   3.754   2.217 -0.1776  0.0512 -0.0837
 6222TIP3    H118672   3.466   3.753   2.231 -0.3456  1.0094 -1.0702
 6222TIP3    H218673   3.597   3.720   2.299 -1.3245  0.8961  0.8170
 6223TIP3   OH218674   4.119   4.201   3.884  0.2520 -0.1709  0.7374
 6223TIP3    H118675   4.202   4.209   3.837 -1.0452  1.0371 -1.5084
 6223TIP3    H218676   4.135   4.247   3.967  1.8867 -0.1815  0.4738
 6224TIP3   OH218677   6.169   2.603   1.779  0.0147  0.2223 -0.4567
 6224TIP3    H118678   6.238   2.655   1.737  2.5513 -1.9473  0.7278
 6224TIP3    H218679   6.175   2.517   1.736 -0.1882 -0.7582  1.3750
 6225TIP3   OH218680   5.817   3.236   4.831  0.0712 -0.6027 -0.2763
 6225TIP3    H118681   5.858   3.153   4.857  1.6435  0.6504  1.4712
 6225TIP3    H218682   5.824   3.238   4.736 -1.5695 -3.2169 -0.5661
 6226TIP3   OH218683   5.153   3.526   4.932 -0.0710 -0.1583  0.6517
 6226TIP3    H118684   5.211   3.538   5.008 -0.4790 -1.6621  1.2358
 6226TIP3    H218685   5.067   3.507   4.970 -0.8624  1.5626 -0.2143
 6227TIP3   OH218686   5.044   2.645   1.929 -0.0182  0.6719 -0.4208
 6227TIP3    H118687   5.019   2.735   1.905 -1.0822  0.0321 -1.8559
 6227TIP3    H218688   4.960   2.601   1.942  0.5112  0.1140  1.2546
 6228TIP3   OH218689   0.105   3.808   4.459  0.3080 -0.8460  0.0264
 6228TIP3    H118690   0.131   3.882   4.514 -0.0171 -2.1741  2.0850
 6228TIP3    H218691   0.020   3.780   4.495 -0.3616 -1.2494 -1.7443
 6229TIP3   OH218692   6.272   1.201   3.747  0.2293 -0.3393 -0.0494
 6229TIP3    H118693   6.314   1.228   3.829  0.2544  1.3058 -0.5667
 6229TIP3    H218694   6.323   1.245   3.679 -1.8719  1.2019 -0.7378
 6230TIP3   OH218695   4.227   3.621   3.338 -0.3892  0.3096  0.0184
 6230TIP3    H118696   4.187   3.537   3.318  1.5375 -0.9597  1.2156
 6230TIP3    H218697   4.167   3.662   3.400  0.0260 -1.4758  1.6588
 6231TIP3   OH218698   4.285   0.547   2.085  0.4184 -0.2131 -0.2093
 6231TIP3    H118699   4.266   0.602   2.010  1.4422 -0.1012 -0.3943
 6231TIP3    H218700   4.379   0.529   2.079  0.5351 -0.1259  1.0863
 6232TIP3   OH218701   1.153   0.191   4.521 -0.7069 -0.6225  0.0826
 6232TIP3    H118702   1.149   0.157   4.431  2.2633  0.3322 -0.5450
 6232TIP3    H218703   1.114   0.278   4.516  0.2860 -0.1943 -0.5492
 6233TIP3   OH218704   0.400   5.037   3.575  0.3589 -0.0411  0.6416
 6233TIP3    H118705   0.347   5.024   3.497  0.0269 -1.7467  1.1139
 6233TIP3    H218706   0.491   5.032   3.545  0.2694 -2.9787  0.6332
 6234TIP3   OH218707   3.951   0.777   1.319 -0.2862 -0.1607 -0.4441
 6234TIP3    H118708   3.968   0.742   1.232  0.5761  0.2844 -0.4697
 6234TIP3    H218709   3.918   0.866   1.303  0.5829  0.1955 -0.3098
 6235TIP3   OH218710   5.274   3.878   3.972 -0.1303 -0.0573  0.3814
 6235TIP3    H118711   5.283   3.789   3.938 -0.7717  0.4386 -1.2065
 6235TIP3    H218712   5.358   3.920   3.953  0.0871 -0.2405  0.9138
 6236TIP3   OH218713   0.078   4.511   4.826  0.0792 -0.3893  0.6784
 6236TIP3    H118714   0.075   4.575   4.896  1.9269 -0.9455  1.3293
 6236TIP3    H218715  -0.011   4.509   4.791 -0.2366  1.8627  1.2003
 6237TIP3   OH218716   3.909   2.973   2.809  0.1152  0.1350  0.2626
 6237TIP3    H118717   3.872   3.013   2.888 -0.5981 -1.2458  0.6718
 6237TIP3    H218718   3.898   3.040   2.741 -0.2157  0.9549  1.0936
 6238TIP3   OH218719   4.271   5.305   3.156  0.3396 -0.2248 -0.3378
 6238TIP3    H118720   4.338   5.265   3.099  0.6782  1.4870 -1.1928
 6238TIP3    H218721   4.303   5.393   3.172 -0.1287 -0.4265  1.9646
 6239TIP3   OH218722   3.465   4.990   2.142 -0.0921 -0.5214 -0.2914
 6239TIP3    H118723   3.430   5.027   2.223 -1.1652 -1.5078 -0.2915
 6239TIP3    H218724   3.488   5.067   2.089  0.0256  0.1348  0.6806
 6240TIP3   OH218725   6.170   1.157   4.851 -0.2626 -0.2549  0.4219
 6240TIP3    H118726   6.102   1.186   4.911  0.0204 -0.2967  0.7692
 6240TIP3    H218727   6.215   1.086   4.897  0.2827  0.0523  0.3784
 6241TIP3   OH218728   1.589   2.857   4.048  0.0258  0.1087 -0.4397
 6241TIP3    H118729   1.596   2.902   4.133 -0.8990 -0.3911 -0.0820
 6241TIP3    H218730   1.636   2.775   4.061  0.3071  0.2517 -0.5651
 6242TIP3   OH218731   4.108   5.477   3.542  0.4645 -0.0043 -0.1434
 6242TIP3    H118732   4.073   5.403   3.493 -0.9210  0.2314  0.4374
 6242TIP3    H218733   4.068   5.554   3.501  0.4521  0.2855  0.4062
 6243TIP3   OH218734   0.026   1.513   0.202  0.4960  0.3773 -0.5298
 6243TIP3    H118735   0.053   1.422   0.212  0.6879  0.3753 -1.0714
 6243TIP3    H218736  -0.058   1.508   0.158 -0.5094  0.3750  1.2675
 6244TIP3   OH218737   1.453   0.927   2.389 -0.0555  0.2250 -0.2295
 6244TIP3    H118738   1.410   0.980   2.456  0.5459  0.8270 -0.3114
 6244TIP3    H218739   1.381   0.884   2.344 -0.8620  3.1265 -2.0005
 6245TIP3   OH218740   5.169   2.906   3.412  0.0459 -0.0931  0.3003
 6245TIP3    H118741   5.129   2.865   3.335  0.0062  0.6946 -0.1067
 6245TIP3    H218742   5.129   2.862   3.486  1.2143 -1.9773 -0.1014
 6246TIP3   OH218743   3.365   4.530   1.382  0.1129  0.0259 -0.4953
 6246TIP3    H118744   3.331   4.500   1.297 -1.9229 -0.3711  0.3939
 6246TIP3    H218745   3.352   4.625   1.380 -0.0435  0.0033 -0.5793
 6247TIP3   OH218746   6.294   2.668   0.776 -0.1285 -0.0135  0.4551
 6247TIP3    H118747   6.354   2.742   0.782 -0.8105  0.4516  2.2041
 6247TIP3    H218748   6.216   2.704   0.732 -0.3335  0.2467  1.0153
 6248TIP3   OH218749   0.543   4.733   0.735 -0.3142  0.0461 -0.2445
 6248TIP3    H118750   0.626   4.689   0.718 -0.2882  0.3584 -0.9603
 6248TIP3    H218751   0.558   4.783   0.815  0.5906  1.0974 -1.0461
 6249TIP3   OH218752   3.517   3.312   0.130 -0.0416 -0.0521  0.3300
 6249TIP3    H118753   3.563   3.251   0.073 -0.0839 -0.1689  0.4187
 6249TIP3    H218754   3.518   3.269   0.216 -0.5507 -0.1832  0.2739
 6250TIP3   OH218755   0.089   4.128   2.161 -0.7825 -0.0263  0.2456
 6250TIP3    H118756   0.079   4.077   2.080 -1.9132 -1.7359  1.3756
 6250TIP3    H218757   0.030   4.085   2.223  0.2977  1.0230  2.0800
 6251TIP3   OH218758   3.317   5.475   4.801 -0.1447  0.5429 -0.4114
 6251TIP3    H118759   3.338   5.389   4.837 -1.8447  0.0154 -0.5888
 6251TIP3    H218760   3.248   5.509   4.858 -0.2721  1.3031 -1.0002
 6252TIP3   OH218761   3.431   0.671   2.043 -0.2212  0.6569 -0.2683
 6252TIP3    H118762   3.471   0.669   2.130 -1.2760  1.6216  0.2660
 6252TIP3    H218763   3.385   0.755   2.040 -1.0183  0.2063 -1.3894
 6253TIP3   OH218764   3.048   3.400   0.218  0.5483  0.3093 -0.4666
 6253TIP3    H118765   3.104   3.324   0.233 -1.7364 -1.9255 -2.2748
 6253TIP3    H218766   3.041   3.442   0.304  0.5012 -2.5839  1.0820
 6254TIP3   OH218767   2.932   3.162   4.478 -0.3758 -0.3838  0.6628
 6254TIP3    H118768   3.012   3.110   4.468  0.0621  0.2395  0.9244
 6254TIP3    H218769   2.861   3.099   4.464  0.1578 -0.5488 -1.6371
 6255TIP3   OH218770   4.948   5.828   1.448  0.1697 -0.5199 -0.1648
 6255TIP3    H118771   4.867   5.877   1.463  0.4413 -0.6645  2.0134
 6255TIP3    H218772   4.992   5.876   1.378  0.0404  1.9255  1.3061
 6256TIP3   OH218773   6.150   5.572   0.975 -0.0495  0.2423 -0.3784
 6256TIP3    H118774   6.200   5.494   0.950  0.6275  0.9108 -1.1747
 6256TIP3    H218775   6.066   5.538   1.004  0.1190 -0.7730 -1.0232
 6257TIP3   OH218776   2.359   5.329   1.863 -0.5074  0.1313  0.3424
 6257TIP3    H118777   2.300   5.279   1.807  2.3746 -2.0490 -1.0341
 6257TIP3    H218778   2.302   5.380   1.920 -3.6278 -0.5297 -1.9543
 6258TIP3   OH218779   5.349   3.798   2.019  0.0870 -0.1741  0.6108
 6258TIP3    H118780   5.298   3.876   1.997 -1.1031 -1.2475 -0.6743
 6258TIP3    H218781   5.438   3.819   1.992 -0.3409  0.5028 -0.3240
 6259TIP3   OH218782   2.957   1.714   4.342  0.5187 -0.0296 -0.0768
 6259TIP3    H118783   2.968   1.713   4.247 -0.1204 -1.7525 -0.1732
 6259TIP3    H218784   2.865   1.733   4.357  0.7785  1.0691  0.2567
 6260TIP3   OH218785   0.409   3.130   4.196  0.1336  0.3638  0.4620
 6260TIP3    H118786   0.393   3.055   4.253  3.0073 -0.5532  0.2594
 6260TIP3    H218787   0.395   3.207   4.252  0.3771 -0.4496  1.6652
 6261TIP3   OH218788   1.319   4.905   3.677 -0.2636  0.3780 -0.3616
 6261TIP3    H118789   1.252   4.836   3.673  0.1394 -0.0525  0.1356
 6261TIP3    H218790   1.358   4.895   3.763 -0.5358  1.5630 -0.0783
 6262TIP3   OH218791   2.613   3.406   2.208  0.2621  0.2093 -0.4260
 6262TIP3    H118792   2.661   3.407   2.291 -0.1863 -2.0653 -0.0955
 6262TIP3    H218793   2.664   3.348   2.152 -1.3470 -1.1772 -0.5065
 6263TIP3   OH218794   2.529   4.037   2.334 -0.5788 -0.1021 -0.0283
 6263TIP3    H118795   2.502   4.117   2.378  0.3123  1.6290 -2.4091
 6263TIP3    H218796   2.554   3.977   2.404 -0.5801  1.9607  1.8063
 6264TIP3   OH218797   2.151   5.106   3.239  0.0515 -0.3044  0.3581
 6264TIP3    H118798   2.133   5.199   3.253  0.6286  0.0750 -1.1757
 6264TIP3    H218799   2.067   5.069   3.211 -0.0829 -0.1638  0.5726
 6265TIP3   OH218800   6.175   2.284   4.834  0.0314 -0.0787 -0.3470
 6265TIP3    H118801   6.139   2.338   4.904 -1.0706  0.7149 -1.4706
 6265TIP3    H218802   6.232   2.221   4.878  3.2171  3.3546  0.8358
 6266TIP3   OH218803   4.180   4.440   3.584  0.4746  0.0144  0.5887
 6266TIP3    H118804   4.218   4.356   3.610 -0.7855 -0.0275  2.5573
 6266TIP3    H218805   4.092   4.438   3.620  0.5457  2.3367  1.0501
 6267TIP3   OH218806   0.587   0.425   3.151 -0.1384  0.3846 -0.2224
 6267TIP3    H118807   0.514   0.487   3.150 -0.9902 -0.5482  0.8370
 6267TIP3    H218808   0.620   0.428   3.240  0.0038 -0.4419 -0.2376
 6268TIP3   OH218809   1.097   5.914   4.317 -0.7012 -0.5305 -0.4357
 6268TIP3    H118810   1.069   5.824   4.336 -0.7412 -0.3983  0.1393
 6268TIP3    H218811   1.083   5.923   4.222  0.1986 -1.4430 -0.6774
 6269TIP3   OH218812   1.776   4.117   0.923 -0.2378  0.3493 -0.1160
 6269TIP3    H118813   1.793   4.054   0.993 -0.5408  0.4219  0.0275
 6269TIP3    H218814   1.703   4.170   0.957 -1.5470 -0.7085 -1.2043
 6270TIP3   OH218815   0.176   1.735   2.443 -0.2688 -0.2541  0.6237
 6270TIP3    H118816   0.233   1.756   2.369 -0.6485 -0.3391  0.3010
 6270TIP3    H218817   0.180   1.640   2.450  0.0460 -0.2156  0.9380
 6271TIP3   OH218818   0.185   4.720   3.460 -0.3919 -0.3453  0.2028
 6271TIP3    H118819   0.245   4.762   3.399  0.2462 -1.9404 -0.3167
 6271TIP3    H218820   0.191   4.772   3.540  1.3603 -0.1993  0.0119
 6272TIP3   OH218821   5.954   0.608   2.196  0.7316  0.4409 -0.4571
 6272TIP3    H118822   5.958   0.694   2.237  0.5860 -0.0604  0.6528
 6272TIP3    H218823   5.867   0.574   2.220  1.1258 -0.3651 -0.1396
 6273TIP3   OH218824   0.540   1.570   0.683  0.1216  0.3123 -0.4851
 6273TIP3    H118825   0.602   1.589   0.612  1.2914 -2.3793 -0.3124
 6273TIP3    H218826   0.594   1.570   0.762 -0.3610 -0.6805 -0.1424
 6274TIP3   OH218827   3.511   1.915   4.651 -0.2673  0.7359 -0.1758
 6274TIP3    H118828   3.562   1.838   4.627  1.1236  0.7485  2.4236
 6274TIP3    H218829   3.424   1.880   4.672  0.7782 -0.5119  2.6000
 6275TIP3   OH218830   4.281   3.984   2.596 -0.1809 -0.3802  0.0642
 6275TIP3    H118831   4.204   3.929   2.604 -1.0144  0.8612  1.0355
 6275TIP3    H218832   4.278   4.017   2.506 -1.3769  0.4497  0.3835
 6276TIP3   OH218833   5.156   1.650   2.302 -0.4173  0.3794 -0.4656
 6276TIP3    H118834   5.212   1.591   2.353 -0.1260  0.3362 -0.8236
 6276TIP3    H218835   5.081   1.667   2.358 -0.7263 -0.6882 -0.5230
 6277TIP3   OH218836   4.603   2.989   1.975  0.8380  0.1315  0.1520
 6277TIP3    H118837   4.518   2.954   2.002  0.7368  0.1121 -0.1897
 6277TIP3    H218838   4.587   3.082   1.958  1.4288  0.7443  2.5477
 6278TIP3   OH218839   2.647   2.829   0.009  0.5531 -0.5594  0.4884
 6278TIP3    H118840   2.605   2.870  -0.067 -1.4957  0.0981  1.9158
 6278TIP3    H218841   2.575   2.802   0.066  2.0050 -1.9217  1.7937
 6279TIP3   OH218842   4.112   2.198   1.504 -0.5230  0.2252 -0.0139
 6279TIP3    H118843   4.170   2.124   1.520  2.4550  2.7877  2.2554
 6279TIP3    H218844   4.139   2.231   1.418 -0.1315  0.1341  0.0731
 6280TIP3   OH218845   1.500   1.374   4.771  0.3172 -0.5005 -0.1728
 6280TIP3    H118846   1.538   1.359   4.857 -1.0069 -0.8812  0.3705
 6280TIP3    H218847   1.570   1.416   4.721  0.7770  0.7047  1.4082
 6281TIP3   OH218848   0.228   4.407   2.586 -0.0568 -0.0729  0.1954
 6281TIP3    H118849   0.132   4.405   2.586 -0.0678  0.3507  0.2814
 6281TIP3    H218850   0.250   4.497   2.610  0.3827 -0.5964  1.9051
 6282TIP3   OH218851   5.756   3.937   5.015  0.2230 -0.3329 -0.4266
 6282TIP3    H118852   5.720   4.010   4.963  1.2468 -0.5406 -1.4612
 6282TIP3    H218853   5.681   3.905   5.065 -0.9122 -0.3226 -2.0240
 6283TIP3   OH218854   2.481   5.814   3.021  0.5548  0.2590 -0.1623
 6283TIP3    H118855   2.504   5.847   3.108 -2.0919  0.0964  0.6734
 6283TIP3    H218856   2.437   5.731   3.038  2.3884 -1.1566 -1.8856
 6284TIP3   OH218857   4.396   3.108   2.841  0.3270 -0.5792  0.4140
 6284TIP3    H118858   4.327   3.127   2.905 -0.5133  1.1119 -0.9135
 6284TIP3    H218859   4.412   3.014   2.851  0.5431 -0.3224  3.3533
 6285TIP3   OH218860   3.774   0.277   0.847  0.0852  0.3284  0.1438
 6285TIP3    H118861   3.807   0.195   0.884  0.4554  0.4691  0.1334
 6285TIP3    H218862   3.696   0.251   0.798 -0.0255  0.0412  0.4661
 6286TIP3   OH218863   2.630   3.365   2.704  0.6729  0.3302  0.0755
 6286TIP3    H118864   2.574   3.332   2.634 -0.0697  0.4311  0.6131
 6286TIP3    H218865   2.708   3.309   2.700  0.9608  0.7960 -1.2788
 6287TIP3   OH218866   0.111   0.840   0.340  0.7817  0.0303  0.2666
 6287TIP3    H118867   0.138   0.829   0.249 -1.0240  1.4934 -0.4924
 6287TIP3    H218868   0.032   0.787   0.349 -0.4424  1.7712  0.2455
 6288TIP3   OH218869   5.104   5.125   3.304 -0.0187 -0.1328 -0.5703
 6288TIP3    H118870   5.071   5.193   3.362 -0.3192 -0.1284 -0.7463
 6288TIP3    H218871   5.037   5.057   3.305 -0.2046  0.0316 -1.2068
 6289TIP3   OH218872   6.256   1.800   0.316 -0.1347  0.1947  0.2560
 6289TIP3    H118873   6.189   1.731   0.318  0.0149  0.0589  0.8098
 6289TIP3    H218874   6.211   1.878   0.348 -0.0740  0.1380  0.4863
 6290TIP3   OH218875   1.655   3.169   2.203  0.0474 -0.2848 -0.1270
 6290TIP3    H118876   1.639   3.081   2.237 -1.1370 -0.3926 -0.8864
 6290TIP3    H218877   1.703   3.214   2.272  1.9559 -1.9580 -0.2969
 6291TIP3   OH218878   5.312   1.940   5.190 -0.1503  0.5540  0.2492
 6291TIP3    H118879   5.243   1.875   5.202  0.4112  0.2466  2.2913
 6291TIP3    H218880   5.383   1.893   5.148 -1.3229  1.0202 -2.4389
 6292TIP3   OH218881   2.967   2.714   0.357 -0.0632  0.9877  0.3571
 6292TIP3    H118882   2.992   2.658   0.283  1.0557 -0.8534  2.0446
 6292TIP3    H218883   2.945   2.653   0.427 -0.5496  2.6898  1.7569
 6293TIP3   OH218884   3.957   1.516   3.438  0.1631  0.6144  0.1227
 6293TIP3    H118885   4.004   1.504   3.520 -1.0170  1.2344  0.9115
 6293TIP3    H218886   4.025   1.543   3.376  1.6176 -2.7462  0.0649
 6294TIP3   OH218887   2.417   5.027   1.378 -0.3209  0.5299 -0.4097
 6294TIP3    H118888   2.393   5.120   1.374  0.8808  0.8655 -0.4874
 6294TIP3    H218889   2.370   4.987   1.305 -1.5710  0.8923  0.1733
 6295TIP3   OH218890   5.393   5.582   2.473 -0.1388 -0.3647  0.4072
 6295TIP3    H118891   5.462   5.522   2.498  0.0999  0.3337  1.4916
 6295TIP3    H218892   5.313   5.530   2.478  0.4014 -1.7301 -2.7124
 6296TIP3   OH218893   5.888   0.738   0.755 -0.0883  0.1793 -0.0370
 6296TIP3    H118894   5.870   0.823   0.797 -1.9227 -0.4014  0.4515
 6296TIP3    H218895   5.855   0.673   0.817  1.8010 -0.9669 -0.1474
 6297TIP3   OH218896   1.653   3.423   4.687 -0.4696  0.0292  0.1001
 6297TIP3    H118897   1.737   3.469   4.682 -0.4561  0.0005  0.0624
 6297TIP3    H218898   1.674   3.338   4.725 -0.2338 -0.5913 -1.3796
 6298TIP3   OH218899   0.346   5.039   3.961  0.2841  0.5871  0.0258
 6298TIP3    H118900   0.309   4.962   3.917 -0.3403  0.8906  0.0066
 6298TIP3    H218901   0.377   5.094   3.889 -0.4864  0.9573 -0.0338
 6299TIP3   OH218902   6.012   1.238   3.700 -0.1702  0.0208  0.6423
 6299TIP3    H118903   6.100   1.215   3.729 -1.1362 -1.5053  2.6968
 6299TIP3    H218904   5.981   1.159   3.655 -1.7761 -1.0728  3.3933
 6300TIP3   OH218905   0.839   0.728   0.213 -0.1970  0.1240 -0.0634
 6300TIP3    H118906   0.908   0.668   0.186  0.4810  0.8297  0.0784
 6300TIP3    H218907   0.835   0.793   0.143 -0.8898 -0.0452 -0.1894
 6301TIP3   OH218908   6.164   1.429   0.613 -0.1451  0.4440 -0.8337
 6301TIP3    H118909   6.249   1.463   0.585 -0.9282  2.4776 -0.9239
 6301TIP3    H218910   6.122   1.503   0.658 -2.3476 -0.0749 -1.8808
 6302TIP3   OH218911   0.193   2.332   0.298 -0.0989 -0.3537 -0.0893
 6302TIP3    H118912   0.190   2.238   0.280  3.1827 -0.8906  1.3690
 6302TIP3    H218913   0.208   2.373   0.213  0.0386 -1.3116 -0.5332
 6303TIP3   OH218914   4.465   2.104   1.730 -0.3307 -0.6564  0.5770
 6303TIP3    H118915   4.507   2.046   1.793  0.6253 -0.4066  0.1776
 6303TIP3    H218916   4.489   2.069   1.644 -1.8114 -1.1336  0.3229
 6304TIP3   OH218917   5.819   2.345   2.680 -0.2251  0.2660 -0.7490
 6304TIP3    H118918   5.880   2.279   2.713 -0.2893  0.1283 -0.9056
 6304TIP3    H218919   5.776   2.380   2.758  1.5004  1.8174 -0.4242
 6305TIP3   OH218920   5.026   5.130   4.000  0.1013 -0.0601  0.5050
 6305TIP3    H118921   4.991   5.042   3.985  1.4640 -0.5762  0.2832
 6305TIP3    H218922   5.088   5.143   3.929  0.1020  0.9917  0.6910
 6306TIP3   OH218923   1.522   0.694   3.346  0.0074 -0.0539  0.2077
 6306TIP3    H118924   1.550   0.678   3.256  0.1641 -1.5072  0.4884
 6306TIP3    H218925   1.597   0.667   3.399 -0.3641  0.0782  0.8026
 6307TIP3   OH218926   3.495   1.380   3.403  0.1603  0.0278  0.4632
 6307TIP3    H118927   3.500   1.306   3.464 -0.2817 -0.9454 -0.6396
 6307TIP3    H218928   3.585   1.394   3.374  0.5224  1.0950  1.9864
 6308TIP3   OH218929   3.205   2.883   3.189  0.1672  0.2091  0.6267
 6308TIP3    H118930   3.150   2.849   3.260 -0.8625  0.6966  0.0820
 6308TIP3    H218931   3.199   2.815   3.121 -0.9118  0.8795  0.0194
 6309TIP3   OH218932   0.983   2.807   1.989  0.5589  0.4804 -0.2628
 6309TIP3    H118933   1.029   2.890   1.974 -1.4455  1.2445 -2.9333
 6309TIP3    H218934   0.931   2.823   2.068  0.5702  1.6114 -0.4660
 6310TIP3   OH218935   4.958   3.093   0.932  0.6350 -0.2320  0.5822
 6310TIP3    H118936   5.040   3.068   0.891  0.6002 -0.6860  0.7811
 6310TIP3    H218937   4.978   3.100   1.025  0.0516 -2.1750  0.8944
 6311TIP3   OH218938   3.857   4.933   3.696 -0.3736 -0.0833 -0.4552
 6311TIP3    H118939   3.922   4.964   3.633  2.1332 -2.4768  0.7444
 6311TIP3    H218940   3.812   4.862   3.650  1.2440 -1.6214  0.2127
 6312TIP3   OH218941   0.702   1.074   0.230  0.1144 -0.2058 -0.4825
 6312TIP3    H118942   0.752   1.023   0.167 -0.6998  1.5848 -2.6985
 6312TIP3    H218943   0.768   1.123   0.279  0.8135 -2.2827  0.7807
 6313TIP3   OH218944   4.930   2.238   0.301 -0.2361  0.5404  0.1912
 6313TIP3    H118945   4.994   2.292   0.348  0.3708 -0.0964  0.1193
 6313TIP3    H218946   4.953   2.248   0.209  0.6338 -0.7252  0.2360
 6314TIP3   OH218947   6.145   4.914   5.149  0.7453  0.3122  0.1764
 6314TIP3    H118948   6.217   4.885   5.205  1.7223  1.8413 -0.2266
 6314TIP3    H218949   6.138   4.846   5.082 -0.0899 -1.2744  1.8022
 6315TIP3   OH218950   0.945   1.064   4.148 -0.3412 -0.4635  0.6068
 6315TIP3    H118951   0.883   0.992   4.135 -1.4878  0.5300  0.4069
 6315TIP3    H218952   0.971   1.090   4.060 -0.9928  0.2435  0.6112
 6316TIP3   OH218953   3.359   2.431   0.580 -0.3869 -0.8644  0.1745
 6316TIP3    H118954   3.414   2.481   0.641  1.2383 -0.7396 -1.2794
 6316TIP3    H218955   3.279   2.483   0.572 -0.3225 -0.5084  1.6019
 6317TIP3   OH218956   3.234   6.002   1.290  0.1791  0.0135 -0.4915
 6317TIP3    H118957   3.242   5.982   1.197 -2.9534  1.5704 -1.2250
 6317TIP3    H218958   3.146   5.972   1.314  1.0303 -0.6746  2.0982
 6318TIP3   OH218959   1.668   5.598   2.902  0.0643 -0.5301 -0.5667
 6318TIP3    H118960   1.627   5.512   2.903  0.0296 -0.5825 -2.4947
 6318TIP3    H218961   1.633   5.643   2.979 -1.5556 -1.5047 -0.7027
 6319TIP3   OH218962   1.708   5.295   2.866 -0.1539  0.1391 -0.4791
 6319TIP3    H118963   1.804   5.295   2.866 -0.1533  0.1362 -0.6357
 6319TIP3    H218964   1.684   5.315   2.957 -0.0046  0.4197 -0.4985
 6320TIP3   OH218965   3.552   1.450   4.036 -0.7828 -0.1963  0.5557
 6320TIP3    H118966   3.514   1.513   4.096  0.4989 -0.1568  1.3623
 6320TIP3    H218967   3.528   1.481   3.949 -0.2801  1.3320  0.9430
 6321TIP3   OH218968   2.592   5.168   4.348 -0.1848  0.0313 -0.4236
 6321TIP3    H118969   2.660   5.215   4.396 -0.1116 -1.4646  1.0411
 6321TIP3    H218970   2.628   5.157   4.260 -0.0671  2.3163 -0.7091
 6322TIP3   OH218971   4.821   2.965   3.983 -0.5310 -0.1002 -0.4606
 6322TIP3    H118972   4.735   2.963   4.025 -2.0170 -0.9057 -3.2642
 6322TIP3    H218973   4.880   2.922   4.045 -1.7179  1.8088  2.2129
 6323TIP3   OH218974   3.952   3.248   3.417  0.5911 -0.7985  0.5911
 6323TIP3    H118975   3.910   3.193   3.483  0.4966  0.3005  1.4622
 6323TIP3    H218976   3.884   3.310   3.391  0.7871 -0.8941 -0.1653
 6324TIP3   OH218977   2.900   0.901   4.367  0.0368 -0.0735 -0.5461
 6324TIP3    H118978   2.921   0.909   4.274 -0.1475  1.1908 -0.5037
 6324TIP3    H218979   2.930   0.984   4.405  1.0607 -0.9722  0.7217
 6325TIP3   OH218980   2.782   0.070   2.246  0.4983 -0.2859 -0.3386
 6325TIP3    H118981   2.831   0.004   2.196 -1.6477 -2.4193  0.1853
 6325TIP3    H218982   2.746   0.022   2.321  0.9382  2.1033  1.5420
 6326TIP3   OH218983   4.975   3.358   0.454  0.2261  0.3241  0.0412
 6326TIP3    H118984   4.925   3.351   0.535 -2.2785  0.3215 -1.4243
 6326TIP3    H218985   4.913   3.389   0.389  1.7119 -1.2083 -2.2860
 6327TIP3   OH218986   0.017   2.514   4.246 -0.0762  0.4614 -0.9045
 6327TIP3    H118987   0.009   2.528   4.151  0.1287  1.3137 -0.8048
 6327TIP3    H218988   0.006   2.602   4.284 -0.3425  0.0978 -0.1262
 6328TIP3   OH218989   1.503   2.608   0.919 -0.2075 -0.5910  0.2432
 6328TIP3    H118990   1.465   2.557   0.991 -1.6247 -2.0353 -1.4416
 6328TIP3    H218991   1.551   2.544   0.867 -0.5276  0.1186 -0.9511
 6329TIP3   OH218992   0.382   2.667   4.016 -0.4330 -0.4915  0.0197
 6329TIP3    H118993   0.372   2.644   3.923  1.1351  0.7531 -0.4976
 6329TIP3    H218994   0.388   2.583   4.061  1.5482 -1.1621 -1.3686
 6330TIP3   OH218995   6.275   1.862   2.490  0.3200 -0.0799 -0.7161
 6330TIP3    H118996   6.204   1.801   2.468 -0.9371  1.2582 -0.5223
 6330TIP3    H218997   6.350   1.806   2.508 -0.6564 -1.5438 -1.0491
 6331TIP3   OH218998   5.838   4.437   3.141 -0.3677 -0.0732 -0.1379
 6331TIP3    H118999   5.920   4.400   3.107  0.1752 -0.2981  1.3449
 6331TIP3    H219000   5.853   4.532   3.138  0.2320 -0.1239  0.7292
 6332TIP3   OH219001   1.425   4.446   3.546  0.4893 -0.0664  0.1245
 6332TIP3    H119002   1.444   4.353   3.537  1.2581  0.0223  0.7268
 6332TIP3    H219003   1.382   4.470   3.464  0.2018 -0.9705  0.0069
 6333TIP3   OH219004   3.808   2.484   2.613  0.8744  0.6380 -0.1850
 6333TIP3    H119005   3.818   2.565   2.662  2.5856 -0.4430  1.3398
 6333TIP3    H219006   3.814   2.511   2.521 -1.0503  2.5081  0.1427
 6334TIP3   OH219007   2.199   4.123   0.880 -0.3125 -0.4073  0.2759
 6334TIP3    H119008   2.254   4.116   0.801 -0.5067  0.7019  0.0238
 6334TIP3    H219009   2.260   4.110   0.953 -0.2922 -2.3912 -0.0509
 6335TIP3   OH219010   4.566   5.448   4.621  0.7850  0.2926 -0.1517
 6335TIP3    H119011   4.578   5.528   4.570  0.9006  0.5718  0.3070
 6335TIP3    H219012   4.517   5.390   4.563 -1.2627  1.4971  0.2750
 6336TIP3   OH219013   6.288   2.096   2.644 -0.6284  0.3488  0.7015
 6336TIP3    H119014   6.274   2.016   2.593  0.6140  0.6129 -0.1132
 6336TIP3    H219015   6.305   2.065   2.733  0.9448 -0.4190  0.1835
 6337TIP3   OH219016   2.923   5.149   3.032 -0.2210  0.2549 -0.0950
 6337TIP3    H119017   2.888   5.223   3.082 -0.6946  0.0096 -0.0642
 6337TIP3    H219018   2.883   5.158   2.945  0.9493  0.9513 -0.6042
 6338TIP3   OH219019   2.928   1.183   4.451 -0.7016 -0.1412  0.1974
 6338TIP3    H119020   2.833   1.190   4.450 -0.7096 -0.2399  0.4815
 6338TIP3    H219021   2.950   1.150   4.538 -0.3157  1.2803  0.6768
 6339TIP3   OH219022   5.942   4.219   3.598 -0.3896  0.8106  0.7642
 6339TIP3    H119023   5.874   4.172   3.646 -1.2690  1.3641  0.0818
 6339TIP3    H219024   5.898   4.297   3.564  0.3390  0.6963 -0.4930
 6340TIP3   OH219025   2.848   1.935   2.792 -0.6154  0.5094  0.5046
 6340TIP3    H119026   2.780   1.897   2.847  0.6145 -1.9653  0.4435
 6340TIP3    H219027   2.873   1.865   2.732  0.7787  1.8954 -0.6432
 6341TIP3   OH219028   4.586   3.084   2.368  0.2905  0.1731  0.0061
 6341TIP3    H119029   4.618   3.017   2.308  0.1655 -0.2117  0.3617
 6341TIP3    H219030   4.641   3.161   2.350  0.7305 -0.1605 -0.0933
 6342TIP3   OH219031   0.707   5.339   2.935 -0.1141 -0.1413 -0.0462
 6342TIP3    H119032   0.716   5.244   2.944 -0.1646 -0.2162 -0.7793
 6342TIP3    H219033   0.659   5.366   3.014  0.9275 -0.5592  0.7631
 6343TIP3   OH219034   4.037   0.328   4.355  0.3149  0.1503 -0.2593
 6343TIP3    H119035   3.965   0.392   4.362  1.6433  1.5810  1.3670
 6343TIP3    H219036   4.021   0.283   4.273 -0.4574  2.9355 -1.7743
 6344TIP3   OH219037   4.750   2.722   5.110  0.1664  0.0696  0.1474
 6344TIP3    H119038   4.737   2.628   5.097  0.9637 -0.2985  1.7688
 6344TIP3    H219039   4.844   2.731   5.125  0.0141  1.0590  0.5598
 6345TIP3   OH219040   3.742   5.031   1.874  1.1148 -0.3587  0.2998
 6345TIP3    H119041   3.708   5.117   1.898  2.9199  0.5048 -0.0699
 6345TIP3    H219042   3.785   4.999   1.953  0.3339 -1.0184  0.4777
 6346TIP3   OH219043   6.226   3.811   3.056  0.5018 -0.5031  0.1402
 6346TIP3    H119044   6.142   3.792   3.097  0.9192 -1.0167  0.7754
 6346TIP3    H219045   6.243   3.903   3.076  0.4862 -0.6279  0.7391
 6347TIP3   OH219046   0.264   1.221   2.387 -0.1946  0.0911 -0.6978
 6347TIP3    H119047   0.300   1.178   2.464  1.5237  2.5083 -0.0467
 6347TIP3    H219048   0.251   1.150   2.324 -0.3565 -1.7562  1.2890
 6348TIP3   OH219049   5.518   3.037   4.736  0.1021 -0.3083 -0.4507
 6348TIP3    H119050   5.497   2.948   4.708  1.2173  0.2027 -3.2483
 6348TIP3    H219051   5.553   3.079   4.657 -3.3559  3.6200 -0.2242
 6349TIP3   OH219052   5.500   2.837   0.671 -0.5435  0.0346  0.1971
 6349TIP3    H119053   5.482   2.784   0.593  1.3809 -1.4433  0.6911
 6349TIP3    H219054   5.491   2.777   0.744 -1.2122  1.1430  1.0537
 6350TIP3   OH219055   4.758   3.307   2.340  0.3712 -0.2436  0.1906
 6350TIP3    H119056   4.805   3.389   2.331 -0.4929  0.1267 -1.1290
 6350TIP3    H219057   4.826   3.240   2.339  0.9291  0.3213 -1.0756
 6351TIP3   OH219058   4.043   0.409   2.031  0.2457 -0.1194 -0.0346
 6351TIP3    H119059   4.108   0.340   2.023 -0.2107 -0.4709 -0.7850
 6351TIP3    H219060   4.094   0.487   2.054  0.7711 -0.6752  0.7143
 6352TIP3   OH219061   0.847   4.042   0.973 -1.2274 -0.3378 -0.1358
 6352TIP3    H119062   0.912   4.110   0.986 -1.2264 -0.3957  0.1642
 6352TIP3    H219063   0.789   4.077   0.906 -1.9627  0.5038  0.9039
 6353TIP3   OH219064   0.347   3.371   2.770  0.0972  0.3320  0.5247
 6353TIP3    H119065   0.299   3.348   2.690  0.0092  2.2857 -0.0334
 6353TIP3    H219066   0.419   3.308   2.774 -1.5868 -1.7148  0.5716
 6354TIP3   OH219067   5.741   3.886   3.362  0.7120 -0.1348 -0.9178
 6354TIP3    H119068   5.724   3.814   3.301  0.4122 -0.2412 -0.7124
 6354TIP3    H219069   5.725   3.965   3.310  1.2464 -0.2130 -1.2014
 6355TIP3   OH219070   3.942   4.035   0.314 -0.8282 -0.3577 -0.3156
 6355TIP3    H119071   3.981   3.975   0.377  0.9946  0.2341 -0.8139
 6355TIP3    H219072   3.935   4.118   0.361 -1.6168 -0.4755 -0.2057
 6356TIP3   OH219073   3.560   0.849   1.660 -0.2896  0.5144  0.2561
 6356TIP3    H119074   3.520   0.908   1.723 -1.1939  2.4506 -1.9934
 6356TIP3    H219075   3.522   0.763   1.680 -1.4420  1.2829  1.5502
 6357TIP3   OH219076   4.580   4.314   5.153  0.1508 -0.2329 -0.1254
 6357TIP3    H119077   4.545   4.381   5.211 -1.7594 -0.0665 -1.3699
 6357TIP3    H219078   4.671   4.341   5.137 -0.5194  2.0365 -0.4964
 6358TIP3   OH219079   0.758   4.812   3.496  0.4078 -0.1071  0.7859
 6358TIP3    H119080   0.833   4.768   3.457 -0.1003  0.2871 -0.7028
 6358TIP3    H219081   0.704   4.742   3.532 -0.3914 -0.7800 -1.5498
 6359TIP3   OH219082   2.952   1.682   1.028  0.4547 -0.3830  0.8143
 6359TIP3    H119083   2.866   1.720   1.041  1.0599  0.5022  2.5400
 6359TIP3    H219084   2.976   1.706   0.938 -0.9831 -0.4730  0.3878
 6360TIP3   OH219085   3.042   2.068   3.606  0.6981 -0.0436  0.8043
 6360TIP3    H119086   3.015   1.983   3.641  4.1097 -1.0758  1.3220
 6360TIP3    H219087   3.098   2.105   3.674  0.5123  1.9332 -0.0623
 6361TIP3   OH219088   3.861   2.070   0.899  0.3083 -0.1339 -0.2833
 6361TIP3    H119089   3.950   2.066   0.934  0.0540  0.3982  0.4503
 6361TIP3    H219090   3.862   2.009   0.826  0.7538 -1.6034  0.8922
 6362TIP3   OH219091   0.872   4.325   4.782  0.8353  0.2716 -0.0344
 6362TIP3    H119092   0.783   4.326   4.747  0.2888  1.1568  1.2863
 6362TIP3    H219093   0.923   4.274   4.719  0.0628  2.2736 -2.3893
 6363TIP3   OH219094   4.055   1.068   4.890 -0.5117 -0.0158 -0.0327
 6363TIP3    H119095   4.044   1.120   4.810 -0.2039  1.4174  0.8054
 6363TIP3    H219096   4.075   0.980   4.860  2.3766  1.0511 -1.6074
 6364TIP3   OH219097   1.248   0.998   2.151 -0.1273 -0.0924  0.4739
 6364TIP3    H119098   1.198   0.929   2.107 -0.1515  0.5795 -0.5809
 6364TIP3    H219099   1.339   0.979   2.131 -0.0579 -0.3771  1.0262
 6365TIP3   OH219100   1.824   1.985   2.365  0.0453  0.1570  0.2757
 6365TIP3    H119101   1.906   2.003   2.319 -0.1765 -1.2541 -0.7270
 6365TIP3    H219102   1.789   1.906   2.324 -1.0536 -0.1671  1.7243
 6366TIP3   OH219103   2.400   0.088   3.481  0.7702  0.2429  0.0502
 6366TIP3    H119104   2.452   0.024   3.529  0.6339  0.1085  0.0217
 6366TIP3    H219105   2.310   0.072   3.510  0.7225  0.3535 -0.0335
 6367TIP3   OH219106   4.994   3.396   2.923 -0.0610  0.0772  0.7751
 6367TIP3    H119107   5.058   3.457   2.890  1.0335 -0.6296  1.5151
 6367TIP3    H219108   4.977   3.336   2.850 -0.7548  0.9326  0.2175
 6368TIP3   OH219109   5.063   2.964   1.448 -0.4259  0.1442 -0.4902
 6368TIP3    H119110   5.037   2.934   1.535 -0.2775  0.4231 -0.3489
 6368TIP3    H219111   5.104   2.888   1.407 -1.8392 -0.4393 -0.8829
 6369TIP3   OH219112   3.391   1.603   2.655  0.0811 -0.2878  0.8705
 6369TIP3    H119113   3.394   1.551   2.735  1.7688 -0.7126  0.5750
 6369TIP3    H219114   3.476   1.646   2.651 -1.0513  2.1535  0.8314
 6370TIP3   OH219115   1.642   1.568   1.411 -0.2901 -0.2653 -0.0303
 6370TIP3    H119116   1.729   1.531   1.427  0.2340  0.1492 -1.6912
 6370TIP3    H219117   1.637   1.644   1.470  0.1162 -0.7955  0.7014
 6371TIP3   OH219118   0.067   3.429   1.464  0.1595  0.3060 -0.4458
 6371TIP3    H119119   0.052   3.473   1.381 -1.1403  1.7526  0.4815
 6371TIP3    H219120   0.097   3.498   1.523  0.3553 -0.5215  0.4642
 6372TIP3   OH219121   2.258   0.103   3.148  0.3237  0.2780 -0.2288
 6372TIP3    H119122   2.297   0.090   3.062  0.8486 -2.1022  0.3228
 6372TIP3    H219123   2.300   0.183   3.181 -0.8295  2.0174 -2.6205
 6373TIP3   OH219124   3.512   3.679   4.432  0.0912  0.0936 -0.2203
 6373TIP3    H119125   3.416   3.680   4.431  0.0935  0.4461 -0.4958
 6373TIP3    H219126   3.537   3.766   4.400  0.4972  0.5174  1.1371
 6374TIP3   OH219127   0.720   5.111   4.625  0.3092  0.0502  0.4836
 6374TIP3    H119128   0.762   5.194   4.646 -0.9682  1.1833 -1.1927
 6374TIP3    H219129   0.746   5.094   4.534  0.7261 -1.5245  0.8658
 6375TIP3   OH219130   3.846   1.117   0.953 -0.5659  0.0157 -0.3751
 6375TIP3    H119131   3.800   1.086   0.874  1.4152 -1.0498 -1.1761
 6375TIP3    H219132   3.872   1.207   0.932  0.4568 -0.4564 -1.2004
 6376TIP3   OH219133   0.713   4.335   1.871  0.1066 -0.7543 -0.1920
 6376TIP3    H119134   0.752   4.412   1.830  0.1075 -1.3700 -1.4043
 6376TIP3    H219135   0.643   4.370   1.927  0.0520  0.1246 -0.7863
 6377TIP3   OH219136   0.770   4.695   3.146 -0.0448  0.4766 -0.9790
 6377TIP3    H119137   0.860   4.673   3.169  0.6516 -0.1576 -3.8770
 6377TIP3    H219138   0.719   4.674   3.224  1.7735 -3.0456 -0.5459
 6378TIP3   OH219139   5.236   1.712   0.918  0.0353 -0.2722  0.3117
 6378TIP3    H119140   5.190   1.794   0.901 -0.5644 -0.0961  2.5189
 6378TIP3    H219141   5.328   1.737   0.924  0.0748 -0.0847 -0.8016
 6379TIP3   OH219142   2.966   1.202   1.588 -0.4460 -0.3492  0.3737
 6379TIP3    H119143   2.978   1.226   1.496  1.4899 -2.2074  0.0389
 6379TIP3    H219144   2.954   1.285   1.634 -0.0711  0.7209 -1.3836
 6380TIP3   OH219145   3.261   3.905   4.518 -0.2419  0.6193  0.7636
 6380TIP3    H119146   3.196   3.844   4.484  0.5595  0.2585 -0.1950
 6380TIP3    H219147   3.296   3.948   4.439  0.1779  1.3130  1.3156
 6381TIP3   OH219148   1.427   2.471   3.645  0.0946 -0.2043 -0.2372
 6381TIP3    H119149   1.461   2.383   3.660 -1.7922 -1.1285 -1.0554
 6381TIP3    H219150   1.399   2.501   3.731 -0.9425 -1.1887 -0.2019
 6382TIP3   OH219151   2.889   1.773   3.373  0.4457 -0.0205  0.1239
 6382TIP3    H119152   2.894   1.730   3.287 -0.1029  0.0402  0.0559
 6382TIP3    H219153   2.932   1.857   3.361  0.1070  0.1131 -0.1764
 6383TIP3   OH219154   1.084   2.503   4.024  0.5076 -1.0092 -0.0754
 6383TIP3    H119155   1.091   2.478   4.116  1.2000  0.3013  0.2620
 6383TIP3    H219156   0.993   2.530   4.013  0.4867 -0.9208  0.3061
 6384TIP3   OH219157   5.301   4.144   4.088 -0.1120  0.0669  0.4426
 6384TIP3    H119158   5.300   4.052   4.063 -0.2012  0.1054  0.3051
 6384TIP3    H219159   5.272   4.144   4.179  0.7645 -0.1271  0.7315
 6385TIP3   OH219160   3.207   3.098   1.094 -0.1729  0.1092  0.3192
 6385TIP3    H119161   3.139   3.163   1.114  0.2037  1.0968 -1.3805
 6385TIP3    H219162   3.237   3.068   1.179 -2.2361  0.1628  1.1422
 6386TIP3   OH219163   3.775   4.469   1.347 -0.0183  0.1445  0.4875
 6386TIP3    H119164   3.795   4.561   1.367  1.8936  0.0116 -0.5932
 6386TIP3    H219165   3.707   4.474   1.279 -0.4213  0.7196  0.9158
 6387TIP3   OH219166   0.665   2.360   0.098  0.0967  0.2075  0.2854
 6387TIP3    H119167   0.669   2.391   0.189 -1.5006 -1.5507  1.0122
 6387TIP3    H219168   0.577   2.384   0.069  0.3235  0.0549 -0.5506
 6388TIP3   OH219169   3.434   3.541   1.778 -0.3303 -0.0430  0.8033
 6388TIP3    H119170   3.350   3.547   1.824  0.0042  1.1174  1.3060
 6388TIP3    H219171   3.464   3.632   1.771  1.3989 -0.5114  1.5897
 6389TIP3   OH219172   2.867   0.290   1.587  0.3529 -0.1771 -0.5666
 6389TIP3    H119173   2.829   0.314   1.671  1.0190 -0.7144 -0.1041
 6389TIP3    H219174   2.796   0.244   1.541 -0.1204  0.4236 -0.4413
 6390TIP3   OH219175   1.211   4.237   0.283  0.0723 -0.3731  0.1658
 6390TIP3    H119176   1.280   4.294   0.316  0.5742 -1.6208  1.3506
 6390TIP3    H219177   1.246   4.200   0.203  0.5929 -0.6164  0.5000
 6391TIP3   OH219178   3.096   0.102   1.654  0.1681  0.9322 -0.3635
 6391TIP3    H119179   3.107   0.013   1.621 -1.1077 -0.4663  2.6105
 6391TIP3    H219180   3.185   0.135   1.663  0.6639  0.0069 -1.5491
 6392TIP3   OH219181   0.965   3.773   4.142  0.3258  0.2831 -0.5389
 6392TIP3    H119182   0.919   3.827   4.078  0.8781 -1.4045 -2.4678
 6392TIP3    H219183   0.952   3.683   4.111 -0.3278 -0.7226  2.3812
 6393TIP3   OH219184   3.290   5.183   3.811 -0.4934 -0.3511 -0.3087
 6393TIP3    H119185   3.220   5.194   3.747 -1.5389 -1.8520  0.4990
 6393TIP3    H219186   3.363   5.146   3.762 -0.4206  0.7859 -1.0767
 6394TIP3   OH219187   4.182   0.809   0.941  0.0047 -0.1182 -0.0923
 6394TIP3    H119188   4.109   0.757   0.977 -0.1351 -0.1597 -0.4330
 6394TIP3    H219189   4.157   0.826   0.850 -0.9971  2.4081  0.5589
 6395TIP3   OH219190   5.385   0.031   0.012 -0.0828  0.1298 -0.2849
 6395TIP3    H119191   5.317   0.036   0.079 -0.1105  0.6978 -0.3515
 6395TIP3    H219192   5.453   0.091   0.043 -0.3162  0.7838 -1.0148
 6396TIP3   OH219193   3.041   0.370   3.058  0.2107 -0.1868  0.0873
 6396TIP3    H119194   3.044   0.441   3.122  0.9409 -1.3997  1.4543
 6396TIP3    H219195   2.950   0.340   3.059  0.3541 -0.6051  1.0293
 6397TIP3   OH219196   4.926   3.562   5.108  0.4383  0.2941 -0.4918
 6397TIP3    H119197   4.899   3.558   5.200  0.6909  0.1500 -0.4245
 6397TIP3    H219198   4.887   3.484   5.069  0.1805  0.4488 -0.5491
 6398TIP3   OH219199   1.094   4.637   3.159  0.1743  0.1232 -0.2348
 6398TIP3    H119200   1.086   4.548   3.125 -0.6445  0.3120 -0.5468
 6398TIP3    H219201   1.119   4.690   3.084 -0.0612  0.2801 -0.2028
 6399TIP3   OH219202   4.533   0.330   1.819 -0.1300  0.5738  0.0145
 6399TIP3    H119203   4.611   0.299   1.773 -0.6122 -0.7300  0.0525
 6399TIP3    H219204   4.568   0.387   1.887  1.0993 -2.1427  1.8563
 6400TIP3   OH219205   2.393   4.471   1.552  0.1565 -0.2760  0.2370
 6400TIP3    H119206   2.451   4.395   1.561 -0.1997 -0.6360 -0.3902
 6400TIP3    H219207   2.359   4.486   1.640  1.4392  0.1448  0.6857
 6401TIP3   OH219208   2.234   5.589   0.183  0.2396 -0.0011 -0.1863
 6401TIP3    H119209   2.311   5.627   0.226 -0.2719  0.3032  0.4695
 6401TIP3    H219210   2.179   5.560   0.255 -1.7337  2.6270 -0.4914
 6402TIP3   OH219211   3.213   4.627   0.356  0.0910 -0.9475  0.2965
 6402TIP3    H119212   3.227   4.704   0.412 -0.3329 -1.3414  0.9598
 6402TIP3    H219213   3.254   4.651   0.273 -0.7532  0.3257  0.2147
 6403TIP3   OH219214   3.260   3.838   2.215  0.1230  0.4934 -0.4534
 6403TIP3    H119215   3.246   3.833   2.309 -1.3470  1.7412 -0.5624
 6403TIP3    H219216   3.200   3.906   2.185 -0.0281 -0.4161 -2.4101
 6404TIP3   OH219217   3.676   4.125   0.875  0.2030  0.1204  0.3558
 6404TIP3    H119218   3.710   4.037   0.854  0.3760 -0.1695  1.7506
 6404TIP3    H219219   3.643   4.117   0.964 -2.7657  0.6383 -0.6028
 6405TIP3   OH219220   0.016   3.335   3.351  0.4235  0.2596  0.0299
 6405TIP3    H119221   0.068   3.407   3.386  0.7809  0.1103 -0.1886
 6405TIP3    H219222   0.044   3.328   3.260 -0.9163  1.0400 -0.4739
 6406TIP3   OH219223   6.186   2.959   1.870  0.0474  0.2295  0.0381
 6406TIP3    H119224   6.282   2.962   1.869  0.0235  1.8124 -1.4370
 6406TIP3    H219225   6.163   2.914   1.789 -0.4622  0.5042  0.0273
 6407TIP3   OH219226   0.459   3.575   1.769  0.2557 -0.3270 -0.1008
 6407TIP3    H119227   0.400   3.556   1.696  0.6579 -0.8399 -0.3017
 6407TIP3    H219228   0.498   3.660   1.747 -0.1007 -0.1760 -0.1629
 6408TIP3   OH219229   6.021   1.211   4.625 -0.4326 -0.2719 -0.0922
 6408TIP3    H119230   5.957   1.140   4.628  0.6658 -1.2638  2.3935
 6408TIP3    H219231   6.082   1.192   4.697  1.7075  1.5253 -1.3018
 6409TIP3   OH219232   4.776   4.286   4.696 -0.5188 -0.0943  0.1082
 6409TIP3    H119233   4.863   4.327   4.702 -1.1005  1.2492 -0.2285
 6409TIP3    H219234   4.794   4.192   4.697  1.1409  0.0943 -2.1249
 6410TIP3   OH219235   0.222   3.235   0.146 -0.1361  0.5402 -0.4456
 6410TIP3    H119236   0.306   3.234   0.191 -0.5271 -0.8203  0.3035
 6410TIP3    H219237   0.202   3.328   0.134  1.3526  0.8827 -0.4371
 6411TIP3   OH219238   1.714   1.080   1.362  0.2437  0.5203  0.1847
 6411TIP3    H119239   1.696   1.173   1.351  0.4072  0.8354  2.3116
 6411TIP3    H219240   1.774   1.076   1.436  0.1107 -1.2972  0.2260
 6412TIP3   OH219241   4.254   5.952   0.436  0.0145  0.0122  0.6272
 6412TIP3    H119242   4.345   5.982   0.439  0.2516 -0.4954 -0.6780
 6412TIP3    H219243   4.205   6.026   0.402 -0.2367  0.6017  2.1860
 6413TIP3   OH219244   4.520   4.349   1.192  0.6544 -0.6166  1.0260
 6413TIP3    H119245   4.433   4.328   1.227  0.3663 -2.2755 -0.5424
 6413TIP3    H219246   4.515   4.441   1.169 -0.8674 -0.7889  0.5541
 6414TIP3   OH219247   2.558   0.768   2.811 -0.2845  0.5697  0.3834
 6414TIP3    H119248   2.589   0.759   2.902  0.3220 -0.4219  0.0913
 6414TIP3    H219249   2.616   0.834   2.773  0.1064  0.2687  0.4469
 6415TIP3   OH219250   1.882   0.091   4.716 -0.0645 -0.8600  0.5181
 6415TIP3    H119251   1.911   0.182   4.713 -0.7347 -0.6701 -2.1590
 6415TIP3    H219252   1.795   0.091   4.678 -0.3924 -2.5425  1.1599
 6416TIP3   OH219253   5.932   2.705   4.894 -0.4349  0.0888  0.2346
 6416TIP3    H119254   5.933   2.779   4.834 -1.4051 -0.4163 -0.4232
 6416TIP3    H219255   5.840   2.681   4.901 -0.0858 -1.4456 -0.0601
 6417TIP3   OH219256   2.980   1.747   2.656  0.0594  0.0588 -0.6076
 6417TIP3    H119257   3.024   1.687   2.716 -0.1215  0.3868 -0.1473
 6417TIP3    H219258   3.051   1.784   2.603  0.3395  0.5345  0.0862
 6418TIP3   OH219259   5.157   0.136   4.842 -0.0476 -0.0703 -0.2035
 6418TIP3    H119260   5.166   0.067   4.776 -0.8913  0.5815 -1.0370
 6418TIP3    H219261   5.072   0.175   4.824 -0.0841  0.4451  0.9894
 6419TIP3   OH219262   4.989   0.669   0.743  0.1500  0.0137  0.1733
 6419TIP3    H119263   5.080   0.698   0.749  0.0278  0.3025  0.6722
 6419TIP3    H219264   4.942   0.724   0.806 -0.1775 -0.8966  0.7491
 6420TIP3   OH219265   3.890   4.296   0.394  0.3049 -0.4079  0.3605
 6420TIP3    H119266   3.840   4.350   0.333 -0.2346 -1.2019  0.0806
 6420TIP3    H219267   3.873   4.335   0.480  0.1504  0.0333  0.1331
 6421TIP3   OH219268   2.978   1.568   0.021  0.2107 -0.0253 -0.2187
 6421TIP3    H119269   3.025   1.520  -0.047  0.6986  0.9078 -0.5445
 6421TIP3    H219270   2.895   1.521   0.029  0.0232  0.0079 -1.6487
 6422TIP3   OH219271   1.303   5.883   3.424 -0.4554 -0.3735 -0.3030
 6422TIP3    H119272   1.229   5.824   3.411 -0.3022 -0.6511  0.0782
 6422TIP3    H219273   1.280   5.961   3.373 -0.3789 -0.9899 -1.3169
 6423TIP3   OH219274   4.915   1.082   0.853 -0.2959 -0.3663  0.2591
 6423TIP3    H119275   4.923   1.124   0.768  1.0717  0.4288  0.7532
 6423TIP3    H219276   5.001   1.090   0.893 -0.7230 -1.3090  1.4655
 6424TIP3   OH219277   3.861   4.435   2.841  0.3899  0.4216  0.3533
 6424TIP3    H119278   3.805   4.359   2.858  1.4584 -0.9431 -1.9178
 6424TIP3    H219279   3.840   4.461   2.751  2.1496  0.9621  0.0640
 6425TIP3   OH219280   1.452   5.002   3.462  0.2569 -0.3844  0.0494
 6425TIP3    H119281   1.513   5.067   3.497 -0.0732  0.7844 -1.4211
 6425TIP3    H219282   1.402   4.973   3.538  0.4359  1.0677  0.7677
 6426TIP3   OH219283   1.569   3.737   4.874 -0.5565 -0.1593  0.0193
 6426TIP3    H119284   1.598   3.786   4.797  0.5763 -0.0402  0.5082
 6426TIP3    H219285   1.588   3.795   4.948 -1.6479 -0.2633  0.4134
 6427TIP3   OH219286   5.739   1.080   4.230  0.2450 -0.4562 -0.0957
 6427TIP3    H119287   5.680   1.107   4.300 -0.2264  0.0799 -0.6873
 6427TIP3    H219288   5.780   1.160   4.200 -0.1202 -0.5651 -0.9277
 6428TIP3   OH219289   3.083   5.361   0.361 -0.2716 -0.4656  0.4238
 6428TIP3    H119290   3.134   5.297   0.311  0.1266 -0.3970  0.7359
 6428TIP3    H219291   3.069   5.433   0.299 -2.2882 -1.6000 -0.5159
 6429TIP3   OH219292   0.635   1.870   1.647 -0.2740  0.1659  0.1142
 6429TIP3    H119293   0.642   1.783   1.687 -1.4518 -0.6128 -1.2816
 6429TIP3    H219294   0.646   1.931   1.720  0.6680 -1.1350  1.1132
 6430TIP3   OH219295   0.312   5.838   0.052 -0.4272  0.5669 -0.1532
 6430TIP3    H119296   0.306   5.931   0.029  0.1820  0.5059 -0.5984
 6430TIP3    H219297   0.383   5.805  -0.003 -0.0736  0.0268  0.6060
 6431TIP3   OH219298   4.295   4.017   4.466  0.1158 -0.2354  0.2720
 6431TIP3    H119299   4.205   4.003   4.493 -0.2266  1.0177 -0.1796
 6431TIP3    H219300   4.347   3.975   4.535 -0.7674  0.9295  1.7234
 6432TIP3   OH219301   4.051   4.912   1.509  0.3080  0.1624  0.5775
 6432TIP3    H119302   4.020   5.000   1.528 -1.2784 -0.0007 -1.0658
 6432TIP3    H219303   4.005   4.856   1.573  1.1646  0.4517  1.4855
 6433TIP3   OH219304   0.022   2.509   3.292 -0.3263  0.6430 -0.1237
 6433TIP3    H119305   0.076   2.445   3.337  0.0580  0.6892 -0.5096
 6433TIP3    H219306   0.061   2.516   3.204 -0.7794  0.8925 -0.3082
 6434TIP3   OH219307   1.195   3.056   2.810  0.2663 -0.0675 -0.1658
 6434TIP3    H119308   1.280   3.012   2.803 -0.1679 -1.1963  1.1819
 6434TIP3    H219309   1.149   3.009   2.880 -1.0632  1.2017 -0.1310
 6435TIP3   OH219310   3.400   5.090   1.692  0.0217  0.6580 -0.4818
 6435TIP3    H119311   3.386   5.119   1.602 -2.9542 -1.5935 -0.9267
 6435TIP3    H219312   3.317   5.108   1.736 -0.4371 -2.6678  0.3405
 6436TIP3   OH219313   5.594   1.917   4.284 -0.1952 -0.1938  0.2704
 6436TIP3    H119314   5.666   1.981   4.277 -0.0600 -0.4802 -1.7429
 6436TIP3    H219315   5.603   1.863   4.205 -1.0391 -1.9460  1.3301
 6437TIP3   OH219316   2.947   4.585   0.413  0.1991 -0.0062 -0.0320
 6437TIP3    H119317   2.886   4.602   0.341  0.3908 -0.3122 -0.2670
 6437TIP3    H219318   3.033   4.584   0.372  0.3489  0.2178  0.2677
 6438TIP3   OH219319   1.644   1.328   4.981  0.7089  0.0625 -0.0445
 6438TIP3    H119320   1.735   1.342   5.006  0.8216  0.3785 -0.6097
 6438TIP3    H219321   1.599   1.310   5.063  0.9705  1.5431  0.4383
 6439TIP3   OH219322   5.088   3.987   0.050 -0.3024 -0.0451 -0.7711
 6439TIP3    H119323   5.154   3.918   0.049 -0.7162 -0.5147  0.6616
 6439TIP3    H219324   5.051   3.988  -0.038 -0.4346 -1.8224 -0.7796
 6440TIP3   OH219325   3.387   5.927   0.595 -0.0329  0.7339 -0.7762
 6440TIP3    H119326   3.332   5.983   0.649 -0.1985  0.3109 -0.4993
 6440TIP3    H219327   3.325   5.870   0.549 -0.1149  2.6798 -3.3241
 6441TIP3   OH219328   4.169   1.256   0.111 -0.5634  0.3199 -0.5538
 6441TIP3    H119329   4.249   1.285   0.155 -0.9298  0.0977  0.2931
 6441TIP3    H219330   4.175   1.291   0.023 -0.0195  1.1905 -0.1829
 6442TIP3   OH219331   1.427   5.905   2.091 -0.1124 -0.1831 -0.3957
 6442TIP3    H119332   1.372   5.930   2.164  1.1101 -0.9558  0.8481
 6442TIP3    H219333   1.374   5.842   2.041  0.2368 -2.3891  1.8264
 6443TIP3   OH219334   1.411   0.473   3.480  0.3671  0.2595 -0.1641
 6443TIP3    H119335   1.433   0.549   3.425 -1.2313  0.7908 -0.1334
 6443TIP3    H219336   1.471   0.404   3.451  0.5635  0.9709 -1.5513
 6444TIP3   OH219337   1.768   0.771   0.220  0.3027 -0.1554 -0.0361
 6444TIP3    H119338   1.861   0.777   0.198  0.4664 -0.4296  0.5670
 6444TIP3    H219339   1.740   0.687   0.184  0.0356  0.3727 -1.1050
 6445TIP3   OH219340   1.749   0.402   1.477 -0.3462  0.2788 -0.5437
 6445TIP3    H119341   1.657   0.425   1.489 -0.3179  0.6815 -1.0565
 6445TIP3    H219342   1.762   0.324   1.532 -1.1736 -0.2074 -1.0120
 6446TIP3   OH219343   0.416   2.067   2.130 -0.4560 -0.0827  0.1328
 6446TIP3    H119344   0.429   2.125   2.205  2.4489  0.4367 -0.6550
 6446TIP3    H219345   0.401   2.127   2.056  0.1691 -0.4049 -0.2696
 6447TIP3   OH219346   5.573   1.582   0.305 -0.0958 -0.4746  0.0367
 6447TIP3    H119347   5.628   1.553   0.377  1.4145  0.0710 -0.8694
 6447TIP3    H219348   5.485   1.587   0.343  0.7985  0.7817  2.1392
 6448TIP3   OH219349   4.809   2.787   3.758 -0.3427 -0.2439 -0.0510
 6448TIP3    H119350   4.745   2.719   3.779 -0.3071 -0.3277 -0.2112
 6448TIP3    H219351   4.787   2.860   3.816 -0.9293 -0.0625 -0.4979
 6449TIP3   OH219352   4.486   4.325   3.177  0.1459 -0.3480 -0.1436
 6449TIP3    H119353   4.394   4.300   3.170  0.5156 -2.0441  0.7258
 6449TIP3    H219354   4.515   4.336   3.086 -0.9692  0.5414 -0.4177
 6450TIP3   OH219355   6.126   4.192   2.693 -0.0907  0.0235  0.2355
 6450TIP3    H119356   6.212   4.171   2.729  0.1145  1.6238  0.7124
 6450TIP3    H219357   6.130   4.158   2.603  2.0454  2.3674 -0.6789
 6451TIP3   OH219358   3.120   3.824   0.404 -0.0560  0.5476 -0.0488
 6451TIP3    H119359   3.165   3.796   0.325 -0.4666  0.5517 -0.2871
 6451TIP3    H219360   3.135   3.919   0.409 -0.4261  0.6228 -0.3757
 6452TIP3   OH219361   0.510   3.364   3.341 -0.0992  0.3581  0.0873
 6452TIP3    H119362   0.427   3.345   3.385  0.0327 -0.8608 -0.1481
 6452TIP3    H219363   0.488   3.369   3.248  0.2063 -0.8525 -0.0690
 6453TIP3   OH219364   5.849   3.826   2.395  0.1624 -0.4450  0.0170
 6453TIP3    H119365   5.813   3.892   2.454  0.2458  0.6830 -1.1430
 6453TIP3    H219366   5.842   3.743   2.443 -0.9992  0.2331  1.0608
 6454TIP3   OH219367   4.727   3.226   1.054  0.1057  0.3526  0.2932
 6454TIP3    H119368   4.780   3.196   0.981 -0.2220  1.0882 -0.2601
 6454TIP3    H219369   4.638   3.195   1.034  0.4415 -1.7250  1.6900
 6455TIP3   OH219370   2.893   4.105   0.810  0.2218 -0.4884 -0.0233
 6455TIP3    H119371   2.870   4.016   0.835  0.1014 -0.2368  0.7855
 6455TIP3    H219372   2.811   4.143   0.778 -0.3639  0.1470  2.0914
 6456TIP3   OH219373   0.591   4.855   4.262 -0.0424  0.0976  0.5403
 6456TIP3    H119374   0.541   4.936   4.257 -0.7466 -0.3684 -0.2030
 6456TIP3    H219375   0.678   4.879   4.228  0.4820  1.0579  2.4290
 6457TIP3   OH219376   3.027   3.021   2.553 -0.0482  0.1703  0.0958
 6457TIP3    H119377   3.116   3.012   2.588  0.3773  1.2716 -0.6450
 6457TIP3    H219378   3.018   2.946   2.494  1.3418  1.2964 -1.6920
 6458TIP3   OH219379   5.550   3.644   2.633 -0.0734 -0.0500 -0.0888
 6458TIP3    H119380   5.479   3.701   2.603 -1.3533 -0.6810  1.5129
 6458TIP3    H219381   5.505   3.562   2.657  1.3600 -0.8398 -0.0154
 6459TIP3   OH219382   3.300   3.568   2.231 -0.1767 -0.0702  0.2090
 6459TIP3    H119383   3.241   3.546   2.303 -2.0988  0.8462 -0.9922
 6459TIP3    H219384   3.279   3.659   2.209  1.8290  0.3576 -0.1854
 6460TIP3   OH219385   5.572   4.039   4.175 -0.0120  0.7470  0.3293
 6460TIP3    H119386   5.574   3.976   4.102  1.1207  1.4193 -0.2317
 6460TIP3    H219387   5.629   4.000   4.241  0.1587  0.8661  0.2515
 6461TIP3   OH219388   3.147   3.704   1.179 -0.4270  0.5049 -0.0429
 6461TIP3    H119389   3.092   3.670   1.109  0.8415  0.4975 -1.0683
 6461TIP3    H219390   3.095   3.776   1.217 -1.2858  0.2623 -0.7233
 6462TIP3   OH219391   5.843   3.058   2.545  0.0394 -0.0777 -0.4305
 6462TIP3    H119392   5.779   3.004   2.500  1.3397 -0.7893 -1.5171
 6462TIP3    H219393   5.870   3.123   2.479 -1.0046  1.4954  0.6431
 6463TIP3   OH219394   2.925   1.964   1.239  1.0703 -0.0383  0.0025
 6463TIP3    H119395   3.001   1.930   1.286  1.0338  2.0207  1.7262
 6463TIP3    H219396   2.887   2.029   1.299 -1.6551 -0.4887 -1.0812
 6464TIP3   OH219397   6.321   1.792   3.907  0.2951  0.3388  0.3909
 6464TIP3    H119398   6.275   1.858   3.959  0.6766  0.8730  0.0561
 6464TIP3    H219399   6.392   1.840   3.863 -0.6415  0.1075 -1.4613
 6465TIP3   OH219400   3.187   5.156   1.544  0.6425 -0.3478 -0.1425
 6465TIP3    H119401   3.219   5.151   1.455  0.6790 -0.1220 -0.1423
 6465TIP3    H219402   3.113   5.095   1.547  0.4248 -0.1005 -0.4198
 6466TIP3   OH219403   4.938   4.730   4.794 -0.1913 -0.0929  0.2091
 6466TIP3    H119404   4.917   4.819   4.825 -1.3446  0.1638 -1.2000
 6466TIP3    H219405   5.016   4.705   4.844  0.2356  1.7665  0.5609
 6467TIP3   OH219406   2.784   3.943   2.555 -0.6132 -0.6217 -0.0304
 6467TIP3    H119407   2.823   3.946   2.642  0.3579 -1.0351 -0.4401
 6467TIP3    H219408   2.795   4.032   2.521 -3.3841  0.3508  1.2319
 6468TIP3   OH219409   0.904   3.890   4.402 -0.2352  0.1361 -0.5631
 6468TIP3    H119410   0.839   3.842   4.453 -1.5523  0.5559 -1.7826
 6468TIP3    H219411   0.938   3.827   4.339  0.6279 -0.1047  0.1249
 6469TIP3   OH219412   5.664   4.670   0.804 -0.3587  0.3709  0.5692
 6469TIP3    H119413   5.573   4.643   0.793 -0.7702 -0.3404  4.4203
 6469TIP3    H219414   5.659   4.754   0.850  1.0049  1.4952 -1.1841
 6470TIP3   OH219415   1.793   3.243   1.316 -0.2927  0.6924  0.0565
 6470TIP3    H119416   1.723   3.179   1.327 -0.4973  0.3974 -2.4737
 6470TIP3    H219417   1.873   3.194   1.334 -0.4679 -0.2671 -1.5498
 6471TIP3   OH219418   1.919   5.392   4.959 -0.1934  0.7860 -0.1007
 6471TIP3    H119419   1.987   5.457   4.939 -0.0425  0.9801  0.9817
 6471TIP3    H219420   1.943   5.359   5.046 -1.3022  0.6217  0.1568
 6472TIP3   OH219421   4.250   3.320   1.698  0.5588 -0.4128  0.6045
 6472TIP3    H119422   4.278   3.308   1.788 -0.7363  0.1575  1.1070
 6472TIP3    H219423   4.189   3.393   1.701  0.4449 -0.4250 -0.7241
 6473TIP3   OH219424   1.328   1.038   4.751 -0.1491 -0.1481 -0.2156
 6473TIP3    H119425   1.305   1.126   4.722 -0.7576 -0.6544 -1.2988
 6473TIP3    H219426   1.421   1.044   4.773 -0.2445  0.8228 -0.0412
 6474TIP3   OH219427   3.938   4.880   0.052 -0.5944 -0.0338  0.1194
 6474TIP3    H119428   3.884   4.803   0.074  0.0541 -1.3085 -2.3769
 6474TIP3    H219429   3.977   4.907   0.135 -0.3758 -2.8010  1.0112
 6475TIP3   OH219430   3.919   2.517   4.024  0.9008 -0.1181 -0.0406
 6475TIP3    H119431   3.859   2.444   4.005  2.0105 -0.4379 -2.8482
 6475TIP3    H219432   3.862   2.594   4.028 -0.0135 -0.7953  0.4444
 6476TIP3   OH219433   3.816   5.663   3.652 -0.6839  0.5086  0.1427
 6476TIP3    H119434   3.880   5.661   3.581 -0.0676 -1.7052  0.7058
 6476TIP3    H219435   3.748   5.723   3.621 -0.1214  0.0852 -2.0247
 6477TIP3   OH219436   4.255   3.212   0.635  0.2171  0.3088  0.9335
 6477TIP3    H119437   4.252   3.307   0.646  1.0619  0.2771  1.5274
 6477TIP3    H219438   4.164   3.187   0.621  0.0161  1.2317  0.5264
 6478TIP3   OH219439   3.234   2.969   2.329  0.4589  0.1189 -0.3585
 6478TIP3    H119440   3.242   3.065   2.326  0.3820  0.1760  0.9272
 6478TIP3    H219441   3.273   2.940   2.247  0.9524  1.2221 -0.5422
 6479TIP3   OH219442   0.253   5.394   1.159  0.0392 -0.6343 -0.0934
 6479TIP3    H119443   0.198   5.460   1.200 -1.4257 -0.6115 -1.9490
 6479TIP3    H219444   0.265   5.327   1.226 -1.9215 -0.4190  0.5311
 6480TIP3   OH219445   3.012   3.959   4.714  0.0289 -0.1467 -0.5973
 6480TIP3    H119446   2.990   3.916   4.631 -1.1701 -0.3342 -0.1965
 6480TIP3    H219447   3.061   4.037   4.688 -0.6504 -0.0105 -1.5031
 6481TIP3   OH219448   2.628   0.373   4.845  0.0268  0.1957 -0.1070
 6481TIP3    H119449   2.680   0.295   4.865 -0.3653 -0.6009 -1.9836
 6481TIP3    H219450   2.645   0.432   4.918 -0.1588 -1.8684  1.7135
 6482TIP3   OH219451   2.950   2.095   4.175 -0.6351 -0.4592 -0.6914
 6482TIP3    H119452   3.025   2.045   4.204  0.9030  2.0226 -0.1141
 6482TIP3    H219453   2.973   2.124   4.086 -0.6897  0.6353 -0.3677
 6483TIP3   OH219454   0.669   3.026   2.794  0.4479  0.3314 -0.4336
 6483TIP3    H119455   0.643   2.934   2.787 -3.2542  0.9562  2.2114
 6483TIP3    H219456   0.723   3.030   2.873 -2.1738  0.7437  1.4644
 6484TIP3   OH219457   1.573   0.382   1.831  0.6509  0.4683  0.4090
 6484TIP3    H119458   1.554   0.308   1.889 -1.0085  0.3303 -0.2348
 6484TIP3    H219459   1.574   0.458   1.888  0.7288  0.1445  0.8480
 6485TIP3   OH219460   1.137   5.195   4.740 -0.0795  0.4581 -0.4750
 6485TIP3    H119461   1.140   5.162   4.650  1.3604 -1.6278  0.2675
 6485TIP3    H219462   1.074   5.138   4.785  0.4346  0.4169  0.2126
 6486TIP3   OH219463   6.013   5.810   2.140  0.0879 -0.2653  1.1874
 6486TIP3    H119464   5.932   5.834   2.095  0.5876 -0.3372  0.2157
 6486TIP3    H219465   6.038   5.889   2.189  0.1874  0.2452  0.3308
 6487TIP3   OH219466   2.305   2.057   4.835 -0.0826  0.2070  0.9338
 6487TIP3    H119467   2.356   1.981   4.805  1.5853  1.6718 -0.1529
 6487TIP3    H219468   2.225   2.019   4.871 -1.5665 -1.9399 -3.8018
 6488TIP3   OH219469   0.413   5.622   4.231  0.0369 -0.4632 -0.1935
 6488TIP3    H119470   0.347   5.676   4.275 -0.4439 -0.5242 -0.8250
 6488TIP3    H219471   0.467   5.685   4.183  0.7257 -0.3726  0.6795
 6489TIP3   OH219472   4.511   4.298   4.658 -0.3402 -0.0251 -0.5214
 6489TIP3    H119473   4.606   4.293   4.645 -0.3887  0.5864 -1.1863
 6489TIP3    H219474   4.498   4.276   4.750  0.4742  0.1751 -0.3486
 6490TIP3   OH219475   2.474   5.687   0.306  0.0079  0.2458  0.2873
 6490TIP3    H119476   2.466   5.781   0.324 -0.9509  0.2208  0.0496
 6490TIP3    H219477   2.415   5.646   0.369 -0.6484 -0.0931 -0.5363
 6491TIP3   OH219478   5.092   3.149   3.051  0.7265  0.5384 -0.6530
 6491TIP3    H119479   5.045   3.227   3.022  1.3414  1.5826  1.0065
 6491TIP3    H219480   5.023   3.086   3.074  0.2029  0.9414 -1.1245
 6492TIP3   OH219481   5.917   2.967   0.779  0.0552 -0.4866  0.0014
 6492TIP3    H119482   5.839   2.984   0.725  0.1819 -0.8396 -0.2999
 6492TIP3    H219483   5.925   3.044   0.834  1.1908  0.9029 -2.0012
 6493TIP3   OH219484   5.959   3.216   2.329  0.1802 -0.4831 -0.2819
 6493TIP3    H119485   6.035   3.163   2.353 -0.6057 -0.7360  1.9587
 6493TIP3    H219486   5.993   3.305   2.324  0.8288 -0.7306 -0.4068
 6494TIP3   OH219487   5.397   4.210   1.053  0.2083 -0.1649  0.4077
 6494TIP3    H119488   5.443   4.206   0.969 -2.8615  0.0076 -1.4508
 6494TIP3    H219489   5.361   4.299   1.056 -1.8772 -0.9537  0.5860
 6495TIP3   OH219490   5.836   1.887   1.801  0.0748 -0.7427 -0.8762
 6495TIP3    H119491   5.875   1.970   1.830  2.9896 -1.5850 -2.0032
 6495TIP3    H219492   5.799   1.907   1.715  1.1618 -0.6782 -1.3441
 6496TIP3   OH219493   1.576   2.868   3.777 -0.0697  0.3940  0.5946
 6496TIP3    H119494   1.489   2.877   3.738  0.1645 -0.5871 -0.1926
 6496TIP3    H219495   1.561   2.871   3.871 -1.2862 -2.1829  0.5544
 6497TIP3   OH219496   3.974   2.755   0.425  0.2110  0.1378  0.4243
 6497TIP3    H119497   3.939   2.666   0.422  2.9855 -1.2689  3.2549
 6497TIP3    H219498   3.897   2.811   0.428 -1.7912 -2.4365  2.2677
 6498TIP3   OH219499   3.448   5.169   0.496  0.4677  0.4299 -0.0924
 6498TIP3    H119500   3.485   5.103   0.436  0.0203  0.9137 -0.9115
 6498TIP3    H219501   3.393   5.224   0.440 -3.3591 -1.5532  1.3707
 6499TIP3   OH219502   1.384   2.855   4.729 -0.5456  0.6050 -0.1753
 6499TIP3    H119503   1.368   2.822   4.818 -0.7864  0.5976 -0.2212
 6499TIP3    H219504   1.436   2.935   4.742 -0.7801  0.7321 -0.0151
 6500TIP3   OH219505   5.980   3.729   0.743 -0.0052 -0.0155 -0.3743
 6500TIP3    H119506   5.993   3.637   0.719  0.4742  0.1788 -0.8911
 6500TIP3    H219507   6.064   3.771   0.724 -0.3815  0.6346 -0.6621
 6501TIP3   OH219508   4.485   4.987   1.428  0.4080  0.2278  0.1964
 6501TIP3    H119509   4.532   5.030   1.356  1.5551  0.5373  1.0997
 6501TIP3    H219510   4.415   4.938   1.385  0.7835  0.7803 -1.0874
 6502TIP3   OH219511   4.844   3.795   1.470  0.2155  0.2087  0.3106
 6502TIP3    H119512   4.796   3.826   1.546 -0.3124  2.2027 -0.7806
 6502TIP3    H219513   4.821   3.856   1.400  2.2870 -0.3364 -0.9295
 6503TIP3   OH219514   3.367   3.157   4.554  0.4116 -0.3108  0.1177
 6503TIP3    H119515   3.325   3.238   4.582 -0.7585 -1.1560  0.8810
 6503TIP3    H219516   3.405   3.121   4.634 -0.1934 -1.1606  0.0257
 6504TIP3   OH219517   5.894   1.317   0.560  0.2001 -0.1277  0.2317
 6504TIP3    H119518   5.984   1.297   0.586 -0.0784 -2.3038 -0.3072
 6504TIP3    H219519   5.902   1.361   0.476  0.7716  0.3913  0.5478
 6505TIP3   OH219520   6.075   3.227   0.609  0.0778  0.4198 -0.7850
 6505TIP3    H119521   6.009   3.241   0.677  0.4415 -1.6301  0.0408
 6505TIP3    H219522   6.072   3.308   0.557  0.9863  2.8749  2.6144
 6506TIP3   OH219523   5.284   1.477   3.893 -0.4234  0.0453  0.4237
 6506TIP3    H119524   5.320   1.544   3.951 -0.1470  0.3845 -0.1386
 6506TIP3    H219525   5.228   1.525   3.832  1.7172  0.1343 -1.5829
 6507TIP3   OH219526   4.694   5.520   0.057  0.0658  0.5980 -0.4656
 6507TIP3    H119527   4.788   5.523   0.040  0.2402  0.2268  0.4090
 6507TIP3    H219528   4.658   5.467  -0.015  0.5695  0.4462 -0.6057
 6508TIP3   OH219529   5.930   2.309   0.711 -0.3913  0.6477 -0.1474
 6508TIP3    H119530   6.010   2.302   0.659  0.3392  0.4983  0.9705
 6508TIP3    H219531   5.947   2.379   0.773 -0.8543  0.1483  0.5626
 6509TIP3   OH219532   5.411   3.805   0.387 -0.2019  0.0077  0.1399
 6509TIP3    H119533   5.457   3.827   0.305  2.1746 -0.3411  1.2908
 6509TIP3    H219534   5.358   3.729   0.364  1.2822 -0.7989 -0.8796
 6510TIP3   OH219535   0.761   1.645   5.170 -0.4325  0.2431  0.0612
 6510TIP3    H119536   0.807   1.562   5.184 -0.8789 -0.1853 -0.9105
 6510TIP3    H219537   0.747   1.649   5.076 -1.5282  0.8304  0.2285
 6511TIP3   OH219538   6.159   1.171   3.269  0.1092 -0.1048  0.5435
 6511TIP3    H119539   6.193   1.257   3.244  1.6410 -0.6624  0.5544
 6511TIP3    H219540   6.065   1.183   3.279 -0.1565  0.8798 -2.3238
 6512TIP3   OH219541   4.271   5.562   2.003 -0.5221 -0.1384 -0.3479
 6512TIP3    H119542   4.355   5.609   2.000 -0.5894  0.0179  0.0852
 6512TIP3    H219543   4.295   5.470   1.993 -0.1920 -0.1961  0.7819
 6513TIP3   OH219544   1.106   5.011   3.979  0.4013 -0.6542 -0.7394
 6513TIP3    H119545   1.127   5.096   4.017  0.1235  0.0245 -2.0188
 6513TIP3    H219546   1.146   4.947   4.037 -2.6762  0.0665  2.5343
 6514TIP3   OH219547   3.671   2.668   4.831 -0.3017 -0.0242 -0.4404
 6514TIP3    H119548   3.660   2.701   4.741 -2.1484 -1.5362 -0.8288
 6514TIP3    H219549   3.703   2.579   4.820 -0.8091 -0.3172  0.3840
 6515TIP3   OH219550   3.907   0.457   1.397 -0.0526 -0.2717 -0.3056
 6515TIP3    H119551   3.887   0.507   1.317  0.4606  0.4796  0.0260
 6515TIP3    H219552   3.851   0.496   1.464  1.5018  0.9746  0.3273
 6516TIP3   OH219553   0.396   1.440   1.896 -0.1841  0.2500 -0.0681
 6516TIP3    H119554   0.352   1.474   1.818  0.2510  2.4189  0.5541
 6516TIP3    H219555   0.328   1.393   1.943 -1.0901  0.9987 -0.5823
 6517TIP3   OH219556   3.252   0.416   1.918  0.3777  0.8926 -0.0333
 6517TIP3    H119557   3.304   0.426   1.838 -0.2125  2.7057 -0.2463
 6517TIP3    H219558   3.286   0.484   1.977 -0.8258  1.2054  0.3211
 6518TIP3   OH219559   4.955   4.121   0.239  0.5441  0.2747  0.3377
 6518TIP3    H119560   5.006   4.076   0.171  0.2553 -0.0183  0.3093
 6518TIP3    H219561   4.928   4.203   0.198 -0.6942 -0.4442 -0.3717
 6519TIP3   OH219562   3.377   1.587   1.230  0.0276 -0.2758 -0.2601
 6519TIP3    H119563   3.459   1.581   1.279  0.0755  0.6482 -0.2145
 6519TIP3    H219564   3.390   1.527   1.156  1.1642  0.6228 -0.8339
 6520TIP3   OH219565   4.081   3.051   1.039  0.3622 -0.1232 -0.2512
 6520TIP3    H119566   4.111   3.019   0.953 -1.8368 -0.0966 -1.1003
 6520TIP3    H219567   4.131   3.132   1.053 -0.6223  0.9778 -2.5157
 6521TIP3   OH219568   0.845   4.087   1.650  0.0093 -0.1496  0.0368
 6521TIP3    H119569   0.767   4.068   1.703 -0.6119 -0.4159 -0.9438
 6521TIP3    H219570   0.853   4.011   1.593 -0.3932  0.9207 -1.4889
 6522TIP3   OH219571   0.870   5.719   4.955 -0.1153 -1.0140 -0.1964
 6522TIP3    H119572   0.816   5.653   4.911  0.3576  0.0753 -2.5070
 6522TIP3    H219573   0.954   5.717   4.909  0.2025  0.5894  0.2521
 6523TIP3   OH219574   5.290   1.787   3.489 -0.6094  0.0066 -0.9678
 6523TIP3    H119575   5.308   1.696   3.464 -0.7298  0.1709 -1.6419
 6523TIP3    H219576   5.195   1.796   3.483 -1.0091 -0.7124  2.1132
 6524TIP3   OH219577   0.672   5.069   3.014  0.4802  0.0390  0.8361
 6524TIP3    H119578   0.642   5.072   3.105  0.0388 -0.4091  0.7066
 6524TIP3    H219579   0.596   5.042   2.964  0.8871 -0.3371  0.4076
 6525TIP3   OH219580   1.128   2.537   0.754 -0.4124 -0.4926 -0.3756
 6525TIP3    H119581   1.151   2.568   0.666 -0.6613  0.2163 -0.1944
 6525TIP3    H219582   1.155   2.608   0.813  2.4633 -2.1103  0.4617
 6526TIP3   OH219583   2.139   3.649   2.429 -0.1012  0.4402 -0.7177
 6526TIP3    H119584   2.176   3.723   2.477  1.5687 -1.2227  0.7326
 6526TIP3    H219585   2.211   3.618   2.374 -0.1741 -1.1692  0.0450
 6527TIP3   OH219586   5.982   5.252   3.149 -0.2707 -0.0219  0.4399
 6527TIP3    H119587   6.051   5.315   3.129 -1.1432  0.3779 -1.5031
 6527TIP3    H219588   6.013   5.169   3.111  0.4543 -0.5953  2.1830
 6528TIP3   OH219589   3.740   1.829   1.866 -0.8853 -0.4833 -0.8593
 6528TIP3    H119590   3.710   1.901   1.920 -1.1847 -0.5835 -0.8864
 6528TIP3    H219591   3.762   1.869   1.782  1.3261 -0.0349 -0.1318
 6529TIP3   OH219592   1.364   0.963   1.751  0.1011  0.1257 -0.3810
 6529TIP3    H119593   1.385   0.971   1.658 -0.3813 -0.2222 -0.5212
 6529TIP3    H219594   1.316   1.043   1.772  0.3457  0.2782 -0.3864
 6530TIP3   OH219595   3.156   5.976   2.386  0.0215 -0.2038 -0.2400
 6530TIP3    H119596   3.243   6.016   2.394  0.7989 -1.8760  0.1168
 6530TIP3    H219597   3.143   5.965   2.292  0.0965  0.2526 -0.3056
 6531TIP3   OH219598   3.225   1.862   2.507 -0.7131  0.4476  0.6712
 6531TIP3    H119599   3.185   1.833   2.425 -1.1779 -0.2533  1.1365
 6531TIP3    H219600   3.268   1.784   2.542  2.2767  1.4419 -0.4613
 6532TIP3   OH219601   2.949   2.784   2.390  0.2679  0.3275 -0.1246
 6532TIP3    H119602   2.898   2.706   2.370  0.8375 -0.5647  1.6402
 6532TIP3    H219603   2.978   2.817   2.305  0.0062 -1.3844 -0.9211
 6533TIP3   OH219604   5.527   3.640   1.693 -0.9331 -0.5651 -0.7207
 6533TIP3    H119605   5.587   3.694   1.641  0.5288 -0.1751  1.2216
 6533TIP3    H219606   5.474   3.704   1.742 -1.1058 -0.8969 -0.4742
 6534TIP3   OH219607   2.553   1.104   4.918 -0.2538  0.4781  0.5892
 6534TIP3    H119608   2.466   1.077   4.889  0.4352 -3.1662  1.4234
 6534TIP3    H219609   2.609   1.091   4.842 -0.0613  0.7589  0.6795
 6535TIP3   OH219610   1.487   3.788   0.024 -0.5641 -0.7441  0.4144
 6535TIP3    H119611   1.527   3.826   0.102 -0.1421  0.9865 -0.6051
 6535TIP3    H219612   1.494   3.856  -0.042 -0.8241 -2.2055 -1.1823
 6536TIP3   OH219613   4.612   1.572   4.064 -0.0606  0.2166  0.5729
 6536TIP3    H119614   4.697   1.535   4.041  0.0151 -0.7290  2.2008
 6536TIP3    H219615   4.548   1.512   4.026  0.0228  0.2217  0.4260
 6537TIP3   OH219616   5.955   0.192   4.391 -0.5460 -0.1462 -0.2405
 6537TIP3    H119617   5.907   0.273   4.376  2.2495  1.2856 -2.2555
 6537TIP3    H219618   5.962   0.186   4.487 -2.7336  0.7193  0.0303
 6538TIP3   OH219619   3.108   1.962   0.331  0.5405 -0.0605 -0.3522
 6538TIP3    H119620   3.127   1.896   0.265 -0.0821 -1.0869  0.4651
 6538TIP3    H219621   3.169   1.943   0.403  0.2274  0.1157 -0.0317
 6539TIP3   OH219622   0.209   3.539   3.414 -0.0525  0.6415 -0.3385
 6539TIP3    H119623   0.238   3.572   3.500 -1.2831  0.8941 -0.0075
 6539TIP3    H219624   0.156   3.609   3.378 -2.5842 -0.8201  0.3072
 6540TIP3   OH219625   4.148   5.893   1.751 -0.1900  0.4001 -0.2819
 6540TIP3    H119626   4.065   5.937   1.769 -0.4649 -0.0760 -0.3619
 6540TIP3    H219627   4.134   5.803   1.779  0.6410  0.5469  0.6654
 6541TIP3   OH219628   2.618   1.845   0.670 -0.7991 -0.6836 -0.0344
 6541TIP3    H119629   2.559   1.880   0.603 -0.4075 -1.1986 -0.6620
 6541TIP3    H219630   2.665   1.922   0.703 -3.2492  0.0822  1.9774
 6542TIP3   OH219631   4.552   4.467   3.698  0.3878 -0.3769 -0.0459
 6542TIP3    H119632   4.479   4.406   3.710  0.7741 -0.6768  0.9220
 6542TIP3    H219633   4.600   4.431   3.623 -2.3045  1.7413 -3.0449
 6543TIP3   OH219634   2.189   5.372   2.230 -0.0602 -0.2939 -0.4460
 6543TIP3    H119635   2.126   5.361   2.301 -0.6056  2.1835 -0.4888
 6543TIP3    H219636   2.136   5.389   2.153  0.6127  1.0068 -0.6425
 6544TIP3   OH219637   2.910   0.602   2.691  0.3214  0.1841  0.4096
 6544TIP3    H119638   2.827   0.580   2.733 -0.3033  0.5343 -0.6048
 6544TIP3    H219639   2.931   0.689   2.724 -0.0877  0.3954  0.1158
 6545TIP3   OH219640   6.184   0.245   3.332 -0.2431 -0.3138 -0.0152
 6545TIP3    H119641   6.266   0.268   3.377  0.2385 -1.8965 -0.0008
 6545TIP3    H219642   6.144   0.329   3.310  0.9720  0.4978  0.7282
 6546TIP3   OH219643   3.978   2.632   4.545  0.1674  0.4243  0.1754
 6546TIP3    H119644   3.993   2.654   4.453  2.6434 -0.5601  0.2740
 6546TIP3    H219645   3.883   2.639   4.556 -0.1619  0.8784 -2.3506
 6547TIP3   OH219646   2.508   3.848   2.583  0.8390 -0.0315 -0.0051
 6547TIP3    H119647   2.603   3.862   2.583  0.4804  3.5177  0.4510
 6547TIP3    H219648   2.481   3.870   2.673 -0.4775 -0.2138 -0.3405
 6548TIP3   OH219649   1.570   2.134   1.978 -0.2682 -0.0581  0.1828
 6548TIP3    H119650   1.665   2.131   1.964 -0.1777  0.4669  0.6329
 6548TIP3    H219651   1.538   2.050   1.946  0.1661  0.2895 -1.2430
 6549TIP3   OH219652   3.325   1.356   1.923  0.2001  0.6442 -0.2508
 6549TIP3    H119653   3.271   1.357   2.001  3.0604 -2.6462  2.1064
 6549TIP3    H219654   3.379   1.435   1.929 -0.4190  1.0133  0.4437
 6550TIP3   OH219655   3.225   4.173   4.094  0.2008  0.3728 -0.6384
 6550TIP3    H119656   3.200   4.081   4.088  2.5046 -0.2467 -1.6586
 6550TIP3    H219657   3.257   4.196   4.007  1.5092  1.5522  0.0996
 6551TIP3   OH219658   1.071   2.764   4.129 -0.1776  0.0459  0.1685
 6551TIP3    H119659   1.145   2.727   4.081 -0.2255 -0.2432  0.3226
 6551TIP3    H219660   1.068   2.856   4.100 -0.9990 -0.4386 -1.3712
 6552TIP3   OH219661   5.877   0.486   4.320  0.1659  0.1306 -0.3047
 6552TIP3    H119662   5.835   0.550   4.378 -1.0673 -0.0354 -0.9753
 6552TIP3    H219663   5.887   0.531   4.237  1.1760  0.1012 -0.2066
 6553TIP3   OH219664   1.655   2.039   2.820  0.1472 -0.1178 -0.4696
 6553TIP3    H119665   1.640   2.053   2.726 -0.9114  0.5191 -0.2277
 6553TIP3    H219666   1.711   1.962   2.824  1.7737  0.9286 -1.6843
 6554TIP3   OH219667   2.804   3.127   0.470 -0.2249 -0.2765 -0.7932
 6554TIP3    H119668   2.724   3.166   0.435 -1.3963 -0.4200  1.5377
 6554TIP3    H219669   2.862   3.201   0.488 -1.9354  0.4587  2.3911
 6555TIP3   OH219670   3.918   5.080   2.563  0.2308  0.2760  0.3632
 6555TIP3    H119671   3.960   4.994   2.555 -0.3879  0.0171 -0.2115
 6555TIP3    H219672   3.842   5.075   2.505  0.6172  1.4803 -0.2751
 6556TIP3   OH219673   2.611   3.055   1.652  0.6905 -0.0241 -0.8833
 6556TIP3    H119674   2.580   2.965   1.662  1.9055 -0.4975 -1.1880
 6556TIP3    H219675   2.673   3.067   1.724 -0.0939  0.8526 -0.3525
 6557TIP3   OH219676   5.547   0.945   4.814  0.0478 -0.0374 -0.2726
 6557TIP3    H119677   5.469   0.997   4.831  1.0301  0.5284  3.3060
 6557TIP3    H219678   5.515   0.866   4.771 -2.2620  0.8683 -0.3196
 6558TIP3   OH219679   1.116   1.083   2.374 -0.2253 -0.1372 -0.6826
 6558TIP3    H119680   1.131   1.008   2.316  3.3735 -0.0766 -0.0330
 6558TIP3    H219681   1.122   1.046   2.463  0.6362  0.7233 -0.3623
 6559TIP3   OH219682   6.017   2.152   4.198 -0.4074 -0.7093  0.0710
 6559TIP3    H119683   6.005   2.103   4.279  0.3103 -0.3188  0.4171
 6559TIP3    H219684   6.109   2.175   4.197 -0.7839  0.9455  0.1011
 6560TIP3   OH219685   5.858   4.754   0.285 -0.5115 -0.5542 -0.2612
 6560TIP3    H119686   5.835   4.778   0.195 -0.2979  0.4711 -0.0577
 6560TIP3    H219687   5.787   4.696   0.314 -2.0461  1.2787 -0.1673
 6561TIP3   OH219688   0.359   5.408   0.321 -0.2038  0.2742 -0.2171
 6561TIP3    H119689   0.436   5.405   0.265 -0.6192  0.9130 -0.8347
 6561TIP3    H219690   0.335   5.500   0.325 -1.7045 -0.0527 -1.1053
 6562TIP3   OH219691   3.946   5.281   3.890 -0.8768  0.0387  0.0880
 6562TIP3    H119692   3.910   5.369   3.901 -0.6589  0.2236 -0.6400
 6562TIP3    H219693   3.869   5.227   3.868 -0.7435  0.4361 -1.4787
 6563TIP3   OH219694   5.540   4.416   2.779 -0.2109  0.0536  0.1417
 6563TIP3    H119695   5.623   4.460   2.760 -0.2055 -0.4800 -1.2033
 6563TIP3    H219696   5.554   4.325   2.751 -1.2569 -0.0330 -0.1416
 6564TIP3   OH219697   2.691   5.594   0.925 -0.4210  0.2720 -0.5234
 6564TIP3    H119698   2.655   5.652   0.858  0.8288  0.5253 -1.0121
 6564TIP3    H219699   2.680   5.642   1.007 -0.6535  0.5870 -0.7355
 6565TIP3   OH219700   2.742   2.245   1.938 -0.0727  0.8250 -0.4700
 6565TIP3    H119701   2.707   2.287   1.859 -1.3708 -0.3756 -0.5671
 6565TIP3    H219702   2.724   2.308   2.008 -2.7864  0.1422 -0.4671
 6566TIP3   OH219703   1.686   5.044   4.958 -0.6467 -0.5354  0.0892
 6566TIP3    H119704   1.612   5.005   5.006 -0.1685  0.3241  1.5834
 6566TIP3    H219705   1.692   4.992   4.878 -2.8117 -0.6978 -0.0357
 6567TIP3   OH219706   4.246   5.638   0.980  0.2791  0.5718 -0.0024
 6567TIP3    H119707   4.154   5.612   0.979  0.4956 -0.3886  1.4225
 6567TIP3    H219708   4.288   5.584   0.914  0.3879 -1.4855  1.6649
 6568TIP3   OH219709   5.596   2.992   0.037  0.0098 -0.0877 -0.0963
 6568TIP3    H119710   5.667   3.056   0.027  0.5253 -0.7889 -1.1039
 6568TIP3    H219711   5.634   2.923   0.092 -0.4028  0.2500  0.6270
 6569TIP3   OH219712   5.997   2.295   2.415 -0.1436  0.1030 -0.3304
 6569TIP3    H119713   6.048   2.216   2.398 -2.2707 -1.2257 -0.9593
 6569TIP3    H219714   6.044   2.365   2.369  2.4499 -0.4810  1.2248
 6570TIP3   OH219715   3.135   3.924   4.975 -0.6207 -0.6846 -0.1577
 6570TIP3    H119716   3.089   3.932   4.891 -0.6637 -0.6829 -0.1344
 6570TIP3    H219717   3.192   4.001   4.979 -2.2274  0.5155  0.7958
 6571TIP3   OH219718   4.613   4.668   4.449 -0.5908 -0.1657  0.1843
 6571TIP3    H119719   4.682   4.603   4.459 -1.2454 -0.6470  1.9756
 6571TIP3    H219720   4.645   4.744   4.498 -1.2474 -0.3396  0.8980
 6572TIP3   OH219721   5.730   2.460   4.170 -0.1747  0.2905  0.1848
 6572TIP3    H119722   5.789   2.525   4.133  1.5001 -0.8029  0.7921
 6572TIP3    H219723   5.685   2.505   4.242  1.2210  0.7033  0.8270
 6573TIP3   OH219724   1.541   3.274   0.326 -0.6006 -0.3602 -1.1480
 6573TIP3    H119725   1.505   3.185   0.322  0.0320 -0.6520 -0.5499
 6573TIP3    H219726   1.622   3.265   0.376 -0.9687  0.6981 -0.3256
 6574TIP3   OH219727   3.060   5.523   1.878  0.3366  0.4489  0.2130
 6574TIP3    H119728   3.100   5.550   1.961  0.8114 -0.0682  0.1652
 6574TIP3    H219729   2.972   5.494   1.902  0.7659 -0.5095  0.6797
 6575TIP3   OH219730   3.721   5.544   1.235  0.4367  0.0146 -0.3812
 6575TIP3    H119731   3.709   5.638   1.221 -0.3602  0.0427  0.3900
 6575TIP3    H219732   3.654   5.503   1.179  0.1783 -0.0469 -0.0327
 6576TIP3   OH219733   2.273   0.627   1.860  0.0379  0.3136  0.6820
 6576TIP3    H119734   2.327   0.629   1.940  0.7745  1.3474  0.1885
 6576TIP3    H219735   2.183   0.619   1.892  0.3139  0.8125  1.6305
 6577TIP3   OH219736   6.294   4.533   0.917 -0.2760  0.7742  0.2282
 6577TIP3    H119737   6.208   4.535   0.875 -0.6165 -0.9470  0.7589
 6577TIP3    H219738   6.355   4.515   0.846 -0.4185  1.3680 -0.0517
 6578TIP3   OH219739   4.423   1.612   2.471 -0.6476 -0.3013  0.6460
 6578TIP3    H119740   4.512   1.614   2.505 -0.6406 -0.2926  0.6273
 6578TIP3    H219741   4.403   1.519   2.461 -0.4911 -0.2951  0.2555
 6579TIP3   OH219742   4.855   5.366   4.033 -0.1526 -0.0229  0.7251
 6579TIP3    H119743   4.935   5.316   4.053  0.2138  1.0040  1.9332
 6579TIP3    H219744   4.788   5.328   4.091 -0.6956 -1.1785 -0.5963
 6580TIP3   OH219745   1.842   4.723   2.277  0.1490  0.3133 -0.2313
 6580TIP3    H119746   1.930   4.759   2.273  1.1233 -2.0113 -1.5111
 6580TIP3    H219747   1.791   4.777   2.216  1.5326 -0.3720 -2.0671
 6581TIP3   OH219748   4.234   1.772   2.384 -0.1317  0.4342 -1.0044
 6581TIP3    H119749   4.177   1.770   2.461  0.3867  1.2456 -0.5822
 6581TIP3    H219750   4.309   1.718   2.408 -0.7852 -0.7722 -1.6244
 6582TIP3   OH219751   6.178   2.100   3.015 -0.1952  0.4674 -0.4881
 6582TIP3    H119752   6.231   2.023   2.996 -2.5221 -0.9948 -1.5800
 6582TIP3    H219753   6.147   2.086   3.104 -2.7388 -1.3819 -1.5209
 6583TIP3   OH219754   4.362   4.219   3.652  0.2915 -1.1653  0.3506
 6583TIP3    H119755   4.428   4.165   3.696  0.8494 -0.4452  0.4122
 6583TIP3    H219756   4.374   4.200   3.559 -0.6525 -2.4184  0.4492
 6584TIP3   OH219757   2.723   0.385   2.803  0.1712  0.2450 -0.0744
 6584TIP3    H119758   2.659   0.339   2.748  0.6719  1.3631 -1.6763
 6584TIP3    H219759   2.795   0.323   2.812  0.5688  0.4208 -1.6858
 6585TIP3   OH219760   0.228   2.086   1.691  0.2512 -0.3523 -0.3749
 6585TIP3    H119761   0.255   1.998   1.667  0.4467 -0.3658 -0.1166
 6585TIP3    H219762   0.309   2.127   1.724 -0.0591 -0.4295  0.5144
 6586TIP3   OH219763   6.228   5.042   2.540 -0.4140 -0.4343 -0.1955
 6586TIP3    H119764   6.248   4.971   2.602 -0.2119 -1.5608 -1.4978
 6586TIP3    H219765   6.295   5.108   2.557 -1.3222  0.0460  1.8694
 6587TIP3   OH219766   6.036   1.055   1.464 -0.0073 -0.0004  0.4776
 6587TIP3    H119767   6.047   1.055   1.559 -1.1524  0.3086  0.6261
 6587TIP3    H219768   5.941   1.057   1.451  0.1367 -0.0962 -0.6726
 6588TIP3   OH219769   3.354   2.167   0.953 -0.0626 -0.0022 -0.3874
 6588TIP3    H119770   3.428   2.171   0.892 -0.4015 -0.2362 -0.8216
 6588TIP3    H219771   3.394   2.149   1.038  0.3027 -1.3793 -0.8244
 6589TIP3   OH219772   2.515   3.213   0.041  0.7018 -0.1531  0.2315
 6589TIP3    H119773   2.527   3.182   0.131  2.0562 -0.6481 -0.0875
 6589TIP3    H219774   2.588   3.273   0.026  0.0867  0.4705 -0.3136
 6590TIP3   OH219775   2.000   2.184   0.549 -0.0894  0.0163  0.7084
 6590TIP3    H119776   1.960   2.194   0.462 -2.4019 -0.4201  1.6677
 6590TIP3    H219777   1.983   2.094   0.573  0.8847  0.0253  1.4802
 6591TIP3   OH219778   4.946   1.092   2.449 -0.3835  0.1954  1.0075
 6591TIP3    H119779   4.857   1.117   2.474 -0.6192  0.3578  0.0468
 6591TIP3    H219780   4.962   1.141   2.369 -0.0195 -1.0669  0.2950
 6592TIP3   OH219781   2.186   0.339   2.145 -0.2890  0.0842  0.2754
 6592TIP3    H119782   2.241   0.339   2.066 -1.6750 -1.7903 -0.7399
 6592TIP3    H219783   2.105   0.382   2.118 -0.8465 -0.7402  0.6289
 6593TIP3   OH219784   3.236   5.907   4.751  0.1176 -0.4101 -0.4547
 6593TIP3    H119785   3.298   5.958   4.699 -1.4974  0.5045 -1.6033
 6593TIP3    H219786   3.205   5.839   4.692  0.5868 -1.3365  0.3479
 6594TIP3   OH219787   4.588   0.856   1.735  0.4986 -0.3477  0.2402
 6594TIP3    H119788   4.565   0.943   1.767  1.2590 -0.8567  2.3122
 6594TIP3    H219789   4.629   0.813   1.810  0.6364 -2.3070 -0.9000
 6595TIP3   OH219790   1.737   5.564   1.655  0.3397  0.0370  0.1943
 6595TIP3    H119791   1.648   5.578   1.621 -0.5256  0.8026  2.5407
 6595TIP3    H219792   1.781   5.513   1.588 -1.4895  0.6930 -1.6011
 6596TIP3   OH219793   6.274   2.427   0.905  0.3097  0.1168  0.1602
 6596TIP3    H119794   6.296   2.481   0.829  0.1135  0.7992  0.5831
 6596TIP3    H219795   6.321   2.468   0.977 -0.4819  0.2014  0.6374
 6597TIP3   OH219796   0.904   2.613   2.240  0.0396 -0.1491  0.0732
 6597TIP3    H119797   0.991   2.607   2.279  0.4646  0.0866 -0.7939
 6597TIP3    H219798   0.877   2.704   2.255 -0.1346 -0.2739  0.5062
 6598TIP3   OH219799   1.281   5.276   3.766 -0.3318 -0.2421  0.0283
 6598TIP3    H119800   1.329   5.202   3.804 -0.2729  0.3265  1.0748
 6598TIP3    H219801   1.190   5.246   3.760 -0.3224 -0.3671  0.5208
 6599TIP3   OH219802   6.236   4.699   2.381 -0.0593 -0.1631 -0.7242
 6599TIP3    H119803   6.269   4.636   2.316 -0.0327 -2.1777  1.1137
 6599TIP3    H219804   6.309   4.710   2.442 -0.8314 -0.1374  0.2151
 6600TIP3   OH219805   2.757   2.218   4.697  0.2865  0.1624  0.8028
 6600TIP3    H119806   2.819   2.197   4.767  0.4553 -2.3573 -0.0160
 6600TIP3    H219807   2.812   2.241   4.622  0.2346 -0.7159  0.4801
 6601TIP3   OH219808   1.569   3.811   1.360  0.0282 -0.4443  0.4805
 6601TIP3    H119809   1.639   3.871   1.334 -1.6614  0.9854 -1.1391
 6601TIP3    H219810   1.490   3.848   1.320 -1.2569 -3.3534  0.0405
 6602TIP3   OH219811   1.489   3.125   1.976  0.0083 -0.0090 -0.0544
 6602TIP3    H119812   1.424   3.088   2.036  0.4447 -1.7787 -0.6174
 6602TIP3    H219813   1.564   3.145   2.032  0.0155 -0.6405  0.1741
 6603TIP3   OH219814   5.775   0.046   0.573  0.1787  0.2386  0.0745
 6603TIP3    H119815   5.822  -0.027   0.532 -0.8084 -0.5224  0.2462
 6603TIP3    H219816   5.685   0.036   0.543 -0.3876  0.1793  1.7173
 6604TIP3   OH219817   3.913   2.601   2.385 -0.2105 -0.0014  0.0918
 6604TIP3    H119818   3.933   2.618   2.293 -1.6872 -1.5971 -0.5808
 6604TIP3    H219819   3.912   2.688   2.426  2.6928  0.5843 -0.8586
 6605TIP3   OH219820   1.457   5.609   3.604  0.1809  0.4125  0.2686
 6605TIP3    H119821   1.401   5.576   3.675  1.5824  0.1690  1.3156
 6605TIP3    H219822   1.409   5.591   3.524 -0.4486 -1.4186  1.0214
 6606TIP3   OH219823   0.521   1.919   4.079 -0.0934 -0.4224  0.1226
 6606TIP3    H119824   0.463   1.972   4.134  0.4796 -0.4052  0.7164
 6606TIP3    H219825   0.609   1.940   4.110  0.4738  1.6208 -2.5378
 6607TIP3   OH219826   4.458   0.173   2.657  0.8220 -0.1810  0.5847
 6607TIP3    H119827   4.474   0.154   2.750  1.4093  0.9015  0.7192
 6607TIP3    H219828   4.526   0.122   2.611 -1.8096 -3.9227  0.3864
 6608TIP3   OH219829   5.943   1.147   4.992 -0.2486  0.8651 -0.0614
 6608TIP3    H119830   5.864   1.093   4.994  1.1518 -1.3234  1.5320
 6608TIP3    H219831   5.942   1.195   5.075 -1.3110  3.1989 -1.3180
 6609TIP3   OH219832   0.691   0.186   4.974 -0.0448 -0.0588 -0.8177
 6609TIP3    H119833   0.701   0.106   4.924 -1.0737 -0.2682 -0.7035
 6609TIP3    H219834   0.599   0.209   4.965  0.3323  1.3873 -1.2664
 6610TIP3   OH219835   0.567   0.733   0.628  0.4688  0.1490 -0.1117
 6610TIP3    H119836   0.600   0.801   0.687  0.4099  0.3584 -0.3192
 6610TIP3    H219837   0.609   0.653   0.658  0.5872  0.2877  0.0961
 6611TIP3   OH219838   0.205   0.445   4.900  0.2364 -0.2383 -0.2589
 6611TIP3    H119839   0.157   0.426   4.980  0.3516 -2.3852 -0.6437
 6611TIP3    H219840   0.199   0.540   4.890 -3.0078 -0.2876  0.2901
 6612TIP3   OH219841   1.608   2.496   3.979  0.0746  0.1878  0.3566
 6612TIP3    H119842   1.535   2.498   3.916 -0.8210  0.8789  1.3908
 6612TIP3    H219843   1.588   2.566   4.041 -0.1355 -1.7245  2.5776
 6613TIP3   OH219844   3.076   4.190   1.014  0.1889  0.1231  0.1116
 6613TIP3    H119845   3.025   4.160   1.089  0.6929  0.0705  0.4383
 6613TIP3    H219846   3.013   4.192   0.942 -0.4085  0.6337  0.6387
 6614TIP3   OH219847   5.855   2.554   0.554 -0.5181 -0.1561 -0.1462
 6614TIP3    H119848   5.801   2.495   0.606  0.0877 -0.3432  0.2844
 6614TIP3    H219849   5.812   2.557   0.468 -0.6459 -1.0940 -0.1235
 6615TIP3   OH219850   1.036   0.078   1.953  0.5492  0.2820  0.0856
 6615TIP3    H119851   0.998   0.018   2.019 -0.8064  0.6087 -0.3612
 6615TIP3    H219852   1.081   0.145   2.005  1.3351 -0.6242  0.6149
 6616TIP3   OH219853   4.981   2.751   2.922  0.0407 -0.1397  0.1864
 6616TIP3    H119854   5.015   2.751   3.011 -0.7760 -1.2756  0.5113
 6616TIP3    H219855   5.029   2.681   2.878  0.6376  0.5910 -0.3766
 6617TIP3   OH219856   2.657   0.233   4.004  0.0099 -0.1033 -0.0861
 6617TIP3    H119857   2.666   0.306   3.943  2.0907 -0.7971 -0.7167
 6617TIP3    H219858   2.679   0.270   4.089 -3.3325  0.9701  0.4161
 6618TIP3   OH219859   0.502   3.577   4.727  0.0050 -0.1291 -0.3687
 6618TIP3    H119860   0.465   3.655   4.685  2.5090  1.2816 -0.1774
 6618TIP3    H219861   0.522   3.518   4.655  0.8551  0.7145 -0.8455
 6619TIP3   OH219862   3.444   0.379   1.708  0.5094 -0.4361  0.1053
 6619TIP3    H119863   3.511   0.313   1.726  1.3190  0.2765 -0.2277
 6619TIP3    H219864   3.389   0.339   1.640  0.1934 -1.2793  0.8301
 6620TIP3   OH219865   5.230   4.928   1.257  0.2143 -0.4503 -0.4589
 6620TIP3    H119866   5.224   5.023   1.242 -0.1254 -0.6880 -2.0136
 6620TIP3    H219867   5.324   4.912   1.266  0.1885  0.2242  1.3651
 6621TIP3   OH219868   0.109   2.253   4.514  0.4443  0.2196 -0.2361
 6621TIP3    H119869   0.091   2.345   4.496  0.9753  0.5008  0.6166
 6621TIP3    H219870   0.202   2.251   4.537  0.1487 -0.3396  0.9598
 6622TIP3   OH219871   2.392   5.892   4.237 -0.2450 -0.0568 -0.3969
 6622TIP3    H119872   2.451   5.925   4.169 -0.2343  0.3641 -0.1847
 6622TIP3    H219873   2.307   5.888   4.194  0.1680 -1.9910 -1.1338
 6623TIP3   OH219874   5.196   2.392   0.868 -0.1642 -0.1745  0.1615
 6623TIP3    H119875   5.108   2.357   0.863 -0.0442 -0.3500 -1.2194
 6623TIP3    H219876   5.224   2.400   0.776  0.3187  2.2068  0.4314
 6624TIP3   OH219877   0.479   2.189   1.788  0.0098  0.7731 -0.3983
 6624TIP3    H119878   0.498   2.274   1.827 -0.1306 -0.1210  1.7312
 6624TIP3    H219879   0.563   2.142   1.792 -0.8109 -0.6802  2.5258
 6625TIP3   OH219880   1.712   1.616   4.120  0.0200 -0.0562  0.7934
 6625TIP3    H119881   1.745   1.670   4.191 -1.8086  1.8952  0.2508
 6625TIP3    H219882   1.638   1.568   4.159  1.2629 -1.8007  1.1133
 6626TIP3   OH219883   5.287   1.052   4.783 -0.2541  0.8356  0.3371
 6626TIP3    H119884   5.196   1.024   4.785  0.0047 -0.0418  2.7536
 6626TIP3    H219885   5.317   1.032   4.694 -2.1468  0.3043 -0.2164
 6627TIP3   OH219886   3.557   2.565   2.829  0.0246 -0.0705 -0.2485
 6627TIP3    H119887   3.633   2.596   2.879 -0.5734 -1.3681  1.5914
 6627TIP3    H219888   3.558   2.617   2.749  2.4881  0.3784 -0.0112
 6628TIP3   OH219889   5.242   0.890   0.162 -0.4261  0.2453 -0.2911
 6628TIP3    H119890   5.255   0.934   0.079 -0.0660 -0.3932 -0.5818
 6628TIP3    H219891   5.280   0.949   0.227  0.3755  0.1937 -0.7099
 6629TIP3   OH219892   2.562   3.122   0.304 -0.1721 -0.1297 -0.0770
 6629TIP3    H119893   2.599   3.037   0.329  0.6530  0.4027  0.5871
 6629TIP3    H219894   2.468   3.113   0.322 -0.1548 -1.0140 -0.3540
 6630TIP3   OH219895   3.700   3.416   3.395  0.5350  0.1225 -0.0437
 6630TIP3    H119896   3.606   3.410   3.377  0.7167 -1.0695 -0.6531
 6630TIP3    H219897   3.706   3.411   3.491 -0.0765  1.2583  0.0714
 6631TIP3   OH219898   1.276   0.230   0.578  0.0221  0.7320  0.0238
 6631TIP3    H119899   1.227   0.173   0.519  0.4680 -0.0517  0.3866
 6631TIP3    H219900   1.234   0.315   0.570 -2.5342 -0.2603  1.5943
 6632TIP3   OH219901   4.823   4.454   5.112 -0.2862  0.3430 -0.5114
 6632TIP3    H119902   4.807   4.485   5.023  0.9766  0.4353 -0.7215
 6632TIP3    H219903   4.762   4.504   5.166 -0.2995  1.0765 -1.1908
 6633TIP3   OH219904   3.023   1.113   4.710 -1.1579  0.0982  0.7404
 6633TIP3    H119905   3.085   1.185   4.719 -1.9951  0.9662 -0.1821
 6633TIP3    H219906   3.067   1.038   4.749  0.3296  0.7684  0.4095
 6634TIP3   OH219907   1.563   3.920   4.384  0.5207  0.0912 -0.8213
 6634TIP3    H119908   1.482   3.899   4.337  0.2502  0.2184 -0.4157
 6634TIP3    H219909   1.631   3.913   4.318  0.6922 -3.6033 -0.4687
 6635TIP3   OH219910   3.865   2.903   2.082 -0.4660 -0.4253  0.2817
 6635TIP3    H119911   3.954   2.937   2.088 -0.6305  0.0024  0.3195
 6635TIP3    H219912   3.874   2.808   2.092  0.1926 -0.6099 -1.5741
 6636TIP3   OH219913   3.404   4.900   5.121  0.1130 -0.6651  0.0189
 6636TIP3    H119914   3.354   4.978   5.145 -1.0317 -1.8790  1.8327
 6636TIP3    H219915   3.471   4.932   5.059 -0.4142  1.6851  0.5738
 6637TIP3   OH219916   1.434   3.831   1.781 -0.2561 -0.2338 -0.3043
 6637TIP3    H119917   1.388   3.907   1.747 -2.2320 -1.6561 -0.9673
 6637TIP3    H219918   1.444   3.773   1.706  0.3917 -1.0320  0.3763
 6638TIP3   OH219919   5.855   1.463   3.756 -0.2952 -0.0625  0.0570
 6638TIP3    H119920   5.824   1.491   3.670 -0.1446  1.0391  0.3553
 6638TIP3    H219921   5.917   1.392   3.737  1.4665  1.6447 -0.9119
 6639TIP3   OH219922   4.926   2.710   2.298  0.2065  0.3330 -0.0150
 6639TIP3    H119923   4.876   2.755   2.230  1.6661 -0.0899 -1.4342
 6639TIP3    H219924   4.921   2.617   2.275  0.7320  0.1830  0.4443
 6640TIP3   OH219925   4.377   0.887   2.144 -0.2046 -0.8381 -0.3221
 6640TIP3    H119926   4.327   0.964   2.169  0.1810 -0.5176 -0.5197
 6640TIP3    H219927   4.374   0.887   2.048  1.1533 -0.1370 -0.3934
   6.35000   5.98684   5.18475   0.00000   0.00000  -2.11666   0.00000  -2.11666  -2.99342
