Title t= 419.00000 step= 209500
29212
    1ASP      N    1   1.828   3.505   5.194
    1ASP    HT1    2   1.792   3.424   5.141
    1ASP    HT2    3   1.815   3.584   5.128
    1ASP    HT3    4   1.755   3.519   5.267
    1ASP     CA    5   1.960   3.490   5.254
    1ASP     HA    6   1.972   3.577   5.315
    1ASP     CB    7   1.959   3.363   5.346
    1ASP    HB1    8   2.060   3.352   5.391
    1ASP    HB2    9   1.942   3.279   5.275
    1ASP     CG   10   1.855   3.370   5.457
    1ASP    OD1   11   1.812   3.485   5.491
    1ASP    OD2   12   1.831   3.267   5.521
    1ASP      C   13   2.062   3.488   5.146
    1ASP      O   14   2.086   3.588   5.077
    2GLY      N   15   2.119   3.370   5.115
    2GLY     HN   16   2.107   3.286   5.168
    2GLY     CA   17   2.210   3.329   5.005
    2GLY    HA1   18   2.215   3.222   5.015
    2GLY    HA2   19   2.304   3.380   5.016
    2GLY      C   20   2.170   3.355   4.867
    2GLY      O   21   2.062   3.403   4.835
    3ASP      N   22   2.258   3.324   4.767
    3ASP     HN   23   2.343   3.277   4.789
    3ASP     CA   24   2.233   3.346   4.625
    3ASP     HA   25   2.170   3.433   4.614
    3ASP     CB   26   2.365   3.381   4.548
    3ASP    HB1   27   2.346   3.398   4.440
    3ASP    HB2   28   2.441   3.301   4.555
    3ASP     CG   29   2.421   3.518   4.597
    3ASP    OD1   30   2.351   3.598   4.662
    3ASP    OD2   31   2.534   3.547   4.549
    3ASP      C   32   2.168   3.226   4.552
    3ASP      O   33   2.195   3.118   4.592
    4GLY      N   34   2.085   3.248   4.444
    4GLY     HN   35   2.070   3.338   4.405
    4GLY     CA   36   2.021   3.136   4.364
    4GLY    HA1   37   1.952   3.192   4.304
    4GLY    HA2   38   1.971   3.061   4.423
    4GLY      C   39   2.113   3.065   4.273
    4GLY      O   40   2.229   3.048   4.306
    5PRO      N   41   2.075   3.010   4.162
    5PRO     CD   42   1.933   2.982   4.127
    5PRO    HD1   43   1.869   3.062   4.169
    5PRO    HD2   44   1.908   2.882   4.168
    5PRO     CA   45   2.163   2.961   4.063
    5PRO     HA   46   2.220   2.877   4.098
    5PRO     CB   47   2.066   2.902   3.951
    5PRO    HB1   48   2.049   2.792   3.958
    5PRO    HB2   49   2.107   2.920   3.849
    5PRO     CG   50   1.935   2.979   3.975
    5PRO    HG1   51   1.937   3.081   3.930
    5PRO    HG2   52   1.851   2.916   3.940
    5PRO      C   53   2.253   3.072   4.012
    5PRO      O   54   2.217   3.188   4.040
    6GLY      N   55   2.357   3.051   3.937
    6GLY     HN   56   2.386   2.957   3.920
    6GLY     CA   57   2.448   3.145   3.884
    6GLY    HA1   58   2.512   3.101   3.809
    6GLY    HA2   59   2.509   3.189   3.962
    6GLY      C   60   2.391   3.270   3.812
    6GLY      O   61   2.275   3.276   3.772
    7ASP      N   62   2.471   3.374   3.787
    7ASP     HN   63   2.559   3.382   3.834
    7ASP     CA   64   2.434   3.490   3.700
    7ASP     HA   65   2.350   3.541   3.745
    7ASP     CB   66   2.564   3.574   3.690
    7ASP    HB1   67   2.558   3.656   3.616
    7ASP    HB2   68   2.653   3.517   3.655
    7ASP     CG   69   2.612   3.626   3.829
    7ASP    OD1   70   2.733   3.617   3.860
    7ASP    OD2   71   2.528   3.691   3.898
    7ASP      C   72   2.404   3.444   3.555
    7ASP      O   73   2.458   3.351   3.496
    8PRO      N   74   2.304   3.510   3.484
    8PRO     CD   75   2.219   3.623   3.536
    8PRO    HD1   76   2.274   3.687   3.609
    8PRO    HD2   77   2.124   3.582   3.577
    8PRO     CA   78   2.291   3.495   3.337
    8PRO     HA   79   2.268   3.392   3.315
    8PRO     CB   80   2.180   3.603   3.298
    8PRO    HB1   81   2.080   3.557   3.318
    8PRO    HB2   82   2.186   3.637   3.193
    8PRO     CG   83   2.193   3.710   3.406
    8PRO    HG1   84   2.280   3.773   3.378
    8PRO    HG2   85   2.104   3.774   3.426
    8PRO      C   86   2.424   3.522   3.256
    8PRO      O   87   2.508   3.597   3.301
    9GLY      N   88   2.448   3.460   3.140
    9GLY     HN   89   2.380   3.394   3.109
    9GLY     CA   90   2.558   3.490   3.047
    9GLY    HA1   91   2.548   3.425   2.961
    9GLY    HA2   92   2.650   3.488   3.103
    9GLY      C   93   2.547   3.627   2.988
    9GLY      O   94   2.461   3.706   3.016
   10ASP      N   95   2.645   3.649   2.898
   10ASP     HN   96   2.696   3.566   2.877
   10ASP     CA   97   2.667   3.774   2.833
   10ASP     HA   98   2.687   3.851   2.906
   10ASP     CB   99   2.792   3.756   2.735
   10ASP    HB1  100   2.790   3.849   2.674
   10ASP    HB2  101   2.785   3.668   2.668
   10ASP     CG  102   2.925   3.759   2.803
   10ASP    OD1  103   2.923   3.767   2.927
   10ASP    OD2  104   3.032   3.745   2.737
   10ASP      C  105   2.547   3.828   2.744
   10ASP      O  106   2.480   3.757   2.668
   11GLY      N  107   2.516   3.957   2.751
   11GLY     HN  108   2.569   4.024   2.802
   11GLY     CA  109   2.410   4.012   2.676
   11GLY    HA1  110   2.325   4.021   2.743
   11GLY    HA2  111   2.391   3.965   2.581
   11GLY      C  112   2.455   4.157   2.634
   11GLY    OT1  113   2.407   4.255   2.693
   11GLY    OT2  114   2.534   4.173   2.534
   12SOD    SOD  115   4.935   2.156   1.250
   13SOD    SOD  116   5.662   6.485   0.806
   14SOD    SOD  117   2.413   0.715   2.316
   15SOD    SOD  118   0.220   0.329   3.207
   16SOD    SOD  119   1.239   6.261   4.689
   17SOD    SOD  120   1.380   3.785   4.342
   18SOD    SOD  121   5.449   0.201   0.288
   19SOD    SOD  122   6.505   0.164   5.055
   20SOD    SOD  123   5.853   1.123   5.615
   21SOD    SOD  124   6.124   1.183   0.231
   22SOD    SOD  125   5.765   0.607   4.594
   23SOD    SOD  126   3.252   0.834   2.383
   24SOD    SOD  127   2.555   2.507   5.443
   25SOD    SOD  128   2.347   2.641   1.448
   26SOD    SOD  129   4.536   5.872   3.896
   27SOD    SOD  130   3.619   3.233   2.847
   28SOD    SOD  131   5.411   2.906   3.739
   29SOD    SOD  132   1.185   1.285   1.649
   30SOD    SOD  133   1.902   5.954   5.666
   31SOD    SOD  134   6.879   6.598   3.187
   32SOD    SOD  135   3.343   4.451   0.232
   33SOD    SOD  136   0.810   2.548   1.775
   34SOD    SOD  137   5.080   6.000   2.951
   35SOD    SOD  138   3.432   4.869   1.634
   36SOD    SOD  139   4.990   2.507   4.874
   37SOD    SOD  140   3.443   3.663   0.387
   38SOD    SOD  141   1.856   4.561   3.457
   39SOD    SOD  142   0.900   4.602   2.702
   40SOD    SOD  143   5.373   3.038   1.474
   41SOD    SOD  144   5.995   2.015   1.952
   42SOD    SOD  145   5.601   5.691   4.623
   43CLA    CLA  146   1.791   5.639   2.627
   44CLA    CLA  147   6.306   5.033   0.848
   45CLA    CLA  148   2.298   5.598   0.410
   46CLA    CLA  149   6.328   4.994   4.052
   47CLA    CLA  150   3.461   0.312   2.065
   48CLA    CLA  151   2.858   1.175   2.383
   49CLA    CLA  152   0.656   1.645   3.165
   50CLA    CLA  153   5.164   0.594   4.206
   51CLA    CLA  154   6.185   3.997   4.608
   52CLA    CLA  155   1.707   3.132   3.043
   53CLA    CLA  156   0.235   3.961   0.261
   54CLA    CLA  157   3.383   3.141   2.237
   55CLA    CLA  158   0.906   0.525   2.072
   56CLA    CLA  159   6.587   5.277   5.174
   57CLA    CLA  160   2.322   4.301   0.280
   58CLA    CLA  161   3.271   2.692   3.262
   59CLA    CLA  162   0.534   4.626   2.494
   60CLA    CLA  163   2.557   0.306   4.275
   61CLA    CLA  164   5.792   3.614   0.388
   62CLA    CLA  165   6.153   2.180   2.393
   63CLA    CLA  166   6.759   2.422   2.985
   64CLA    CLA  167   3.233   6.361   0.579
   65CLA    CLA  168   5.505   0.164   4.668
   66CLA    CLA  169   1.844   0.263   3.049
   67CLA    CLA  170   6.856   1.201   0.306
   68CLA    CLA  171   6.386   0.647   2.570
   69CLA    CLA  172   5.388   1.424   1.624
   70TIP3   OH2  173   0.224   3.131   1.365
   70TIP3    H1  174   0.302   3.077   1.350
   70TIP3    H2  175   0.211   3.179   1.283
   71TIP3   OH2  176   1.489   3.953   0.366
   71TIP3    H1  177   1.521   4.042   0.350
   71TIP3    H2  178   1.530   3.900   0.298
   72TIP3   OH2  179   2.221   2.211   0.658
   72TIP3    H1  180   2.225   2.307   0.665
   72TIP3    H2  181   2.200   2.194   0.566
   73TIP3   OH2  182   6.147   2.976   4.222
   73TIP3    H1  183   6.091   3.041   4.180
   73TIP3    H2  184   6.234   2.991   4.184
   74TIP3   OH2  185   2.211   4.243   3.959
   74TIP3    H1  186   2.293   4.270   4.002
   74TIP3    H2  187   2.153   4.318   3.969
   75TIP3   OH2  188   5.942   6.184   5.727
   75TIP3    H1  189   6.025   6.223   5.699
   75TIP3    H2  190   5.877   6.222   5.669
   76TIP3   OH2  191   0.408   4.949   0.975
   76TIP3    H1  192   0.470   4.904   1.032
   76TIP3    H2  193   0.368   5.016   1.031
   77TIP3   OH2  194   4.379   2.382   4.462
   77TIP3    H1  195   4.439   2.401   4.390
   77TIP3    H2  196   4.293   2.410   4.430
   78TIP3   OH2  197   3.445   1.661   0.321
   78TIP3    H1  198   3.431   1.658   0.416
   78TIP3    H2  199   3.362   1.633   0.284
   79TIP3   OH2  200   0.019   2.963   0.072
   79TIP3    H1  201   0.005   2.874   0.103
   79TIP3    H2  202   0.062   3.008   0.145
   80TIP3   OH2  203   2.749   2.071   2.396
   80TIP3    H1  204   2.810   2.087   2.467
   80TIP3    H2  205   2.663   2.093   2.432
   81TIP3   OH2  206   5.614   2.814   2.673
   81TIP3    H1  207   5.607   2.770   2.588
   81TIP3    H2  208   5.523   2.830   2.699
   82TIP3   OH2  209   2.754   1.800   5.362
   82TIP3    H1  210   2.750   1.880   5.309
   82TIP3    H2  211   2.847   1.779   5.366
   83TIP3   OH2  212   1.380   4.412   1.077
   83TIP3    H1  213   1.315   4.440   1.012
   83TIP3    H2  214   1.329   4.387   1.154
   84TIP3   OH2  215   0.110   3.983   2.850
   84TIP3    H1  216   0.151   4.040   2.785
   84TIP3    H2  217   0.119   3.895   2.814
   85TIP3   OH2  218   2.046   0.052   4.443
   85TIP3    H1  219   2.029   0.108   4.519
   85TIP3    H2  220   2.140   0.064   4.425
   86TIP3   OH2  221   1.140   2.779   4.798
   86TIP3    H1  222   1.073   2.762   4.732
   86TIP3    H2  223   1.093   2.783   4.881
   87TIP3   OH2  224   2.284   0.602   5.558
   87TIP3    H1  225   2.248   0.618   5.645
   87TIP3    H2  226   2.260   0.679   5.507
   88TIP3   OH2  227   2.102   3.663   4.758
   88TIP3    H1  228   2.088   3.582   4.807
   88TIP3    H2  229   2.187   3.650   4.715
   89TIP3   OH2  230   7.107   3.959   3.630
   89TIP3    H1  231   7.048   3.941   3.556
   89TIP3    H2  232   7.099   4.053   3.645
   90TIP3   OH2  233   2.329   1.364   0.565
   90TIP3    H1  234   2.423   1.354   0.583
   90TIP3    H2  235   2.325   1.385   0.471
   91TIP3   OH2  236   1.922   1.145   2.551
   91TIP3    H1  237   1.842   1.188   2.579
   91TIP3    H2  238   1.964   1.207   2.492
   92TIP3   OH2  239   2.875   0.721   0.168
   92TIP3    H1  240   2.889   0.736   0.262
   92TIP3    H2  241   2.808   0.653   0.164
   93TIP3   OH2  242   0.334   6.011   4.925
   93TIP3    H1  243   0.349   6.069   4.851
   93TIP3    H2  244   0.396   5.939   4.912
   94TIP3   OH2  245   3.778   1.013   2.637
   94TIP3    H1  246   3.843   1.078   2.661
   94TIP3    H2  247   3.722   1.005   2.714
   95TIP3   OH2  248   3.841   1.605   2.797
   95TIP3    H1  249   3.916   1.551   2.772
   95TIP3    H2  250   3.811   1.645   2.716
   96TIP3   OH2  251   2.400   3.119   2.451
   96TIP3    H1  252   2.324   3.173   2.429
   96TIP3    H2  253   2.363   3.031   2.464
   97TIP3   OH2  254   1.258   1.885   0.879
   97TIP3    H1  255   1.276   1.839   0.960
   97TIP3    H2  256   1.269   1.819   0.810
   98TIP3   OH2  257   3.707   3.975   2.643
   98TIP3    H1  258   3.649   4.047   2.666
   98TIP3    H2  259   3.793   4.015   2.633
   99TIP3   OH2  260   1.969   5.517   1.955
   99TIP3    H1  261   1.889   5.555   1.919
   99TIP3    H2  262   2.039   5.570   1.918
  100TIP3   OH2  263   4.727   1.615   4.777
  100TIP3    H1  264   4.789   1.546   4.801
  100TIP3    H2  265   4.710   1.599   4.684
  101TIP3   OH2  266   1.725   0.774   0.091
  101TIP3    H1  267   1.656   0.708   0.084
  101TIP3    H2  268   1.728   0.815   0.005
  102TIP3   OH2  269   0.243   6.383   1.642
  102TIP3    H1  270   0.172   6.413   1.586
  102TIP3    H2  271   0.252   6.452   1.708
  103TIP3   OH2  272   2.991   5.168   0.734
  103TIP3    H1  273   3.057   5.212   0.680
  103TIP3    H2  274   2.929   5.132   0.670
  104TIP3   OH2  275   6.602   2.201   1.390
  104TIP3    H1  276   6.574   2.184   1.480
  104TIP3    H2  277   6.677   2.143   1.377
  105TIP3   OH2  278   1.695   6.682   1.203
  105TIP3    H1  279   1.624   6.628   1.238
  105TIP3    H2  280   1.683   6.679   1.108
  106TIP3   OH2  281   3.461   4.489   2.614
  106TIP3    H1  282   3.368   4.470   2.600
  106TIP3    H2  283   3.468   4.503   2.709
  107TIP3   OH2  284   2.935   5.508   3.427
  107TIP3    H1  285   2.978   5.422   3.423
  107TIP3    H2  286   2.872   5.506   3.355
  108TIP3   OH2  287   1.906   4.789   4.505
  108TIP3    H1  288   1.899   4.862   4.443
  108TIP3    H2  289   1.817   4.753   4.508
  109TIP3   OH2  290   5.491   1.455   1.335
  109TIP3    H1  291   5.451   1.458   1.422
  109TIP3    H2  292   5.422   1.423   1.278
  110TIP3   OH2  293   0.585   5.468   5.742
  110TIP3    H1  294   0.502   5.439   5.704
  110TIP3    H2  295   0.561   5.540   5.800
  111TIP3   OH2  296   0.462   6.529   3.318
  111TIP3    H1  297   0.527   6.595   3.340
  111TIP3    H2  298   0.445   6.544   3.225
  112TIP3   OH2  299   6.027   1.301   1.590
  112TIP3    H1  300   6.041   1.342   1.505
  112TIP3    H2  301   5.932   1.302   1.602
  113TIP3   OH2  302   2.368   0.863   3.364
  113TIP3    H1  303   2.412   0.809   3.429
  113TIP3    H2  304   2.339   0.940   3.413
  114TIP3   OH2  305   4.202   4.889   4.671
  114TIP3    H1  306   4.164   4.805   4.694
  114TIP3    H2  307   4.127   4.947   4.655
  115TIP3   OH2  308   2.402   1.615   3.240
  115TIP3    H1  309   2.379   1.557   3.168
  115TIP3    H2  310   2.498   1.618   3.238
  116TIP3   OH2  311   7.103   1.905   4.546
  116TIP3    H1  312   7.032   1.955   4.586
  116TIP3    H2  313   7.091   1.918   4.452
  117TIP3   OH2  314   1.125   4.334   1.706
  117TIP3    H1  315   1.105   4.350   1.614
  117TIP3    H2  316   1.044   4.298   1.742
  118TIP3   OH2  317   2.894   5.743   5.730
  118TIP3    H1  318   2.956   5.816   5.736
  118TIP3    H2  319   2.827   5.764   5.795
  119TIP3   OH2  320   4.162   1.544   4.303
  119TIP3    H1  321   4.121   1.468   4.261
  119TIP3    H2  322   4.256   1.529   4.292
  120TIP3   OH2  323   6.648   3.226   0.956
  120TIP3    H1  324   6.648   3.320   0.972
  120TIP3    H2  325   6.724   3.193   1.003
  121TIP3   OH2  326   3.554   4.151   1.733
  121TIP3    H1  327   3.595   4.066   1.749
  121TIP3    H2  328   3.597   4.184   1.654
  122TIP3   OH2  329   0.018   4.060   0.076
  122TIP3    H1  330   0.045   4.022   0.160
  122TIP3    H2  331   0.088   4.037   0.016
  123TIP3   OH2  332   6.900   5.890   0.146
  123TIP3    H1  333   6.818   5.938   0.138
  123TIP3    H2  334   6.944   5.903   0.062
  124TIP3   OH2  335   4.773   3.024   2.605
  124TIP3    H1  336   4.755   3.033   2.511
  124TIP3    H2  337   4.861   3.061   2.616
  125TIP3   OH2  338   3.973   5.529   5.300
  125TIP3    H1  339   3.995   5.494   5.213
  125TIP3    H2  340   3.918   5.605   5.281
  126TIP3   OH2  341   6.403   2.973   4.082
  126TIP3    H1  342   6.495   2.975   4.107
  126TIP3    H2  343   6.404   2.981   3.986
  127TIP3   OH2  344   3.183   2.165   1.593
  127TIP3    H1  345   3.270   2.190   1.624
  127TIP3    H2  346   3.126   2.178   1.669
  128TIP3   OH2  347   2.530   0.738   2.538
  128TIP3    H1  348   2.479   0.808   2.579
  128TIP3    H2  349   2.607   0.783   2.501
  129TIP3   OH2  350   6.922   0.873   5.227
  129TIP3    H1  351   6.886   0.904   5.144
  129TIP3    H2  352   6.994   0.816   5.202
  130TIP3   OH2  353   3.328   4.313   5.721
  130TIP3    H1  354   3.259   4.308   5.787
  130TIP3    H2  355   3.327   4.403   5.691
  131TIP3   OH2  356   3.442   0.220   1.264
  131TIP3    H1  357   3.399   0.211   1.179
  131TIP3    H2  358   3.458   0.314   1.274
  132TIP3   OH2  359   0.145   1.007   5.764
  132TIP3    H1  360   0.144   0.917   5.797
  132TIP3    H2  361   0.077   1.051   5.815
  133TIP3   OH2  362   0.102   4.324   1.050
  133TIP3    H1  363   0.191   4.309   1.082
  133TIP3    H2  364   0.101   4.284   0.963
  134TIP3   OH2  365   3.943   3.643   3.563
  134TIP3    H1  366   3.874   3.673   3.503
  134TIP3    H2  367   3.908   3.563   3.601
  135TIP3   OH2  368   1.968   4.489   4.778
  135TIP3    H1  369   2.031   4.436   4.826
  135TIP3    H2  370   1.908   4.425   4.740
  136TIP3   OH2  371   1.421   1.852   2.119
  136TIP3    H1  372   1.497   1.858   2.061
  136TIP3    H2  373   1.455   1.875   2.205
  137TIP3   OH2  374   4.497   5.870   3.475
  137TIP3    H1  375   4.453   5.918   3.405
  137TIP3    H2  376   4.555   5.809   3.428
  138TIP3   OH2  377   6.776   2.823   2.547
  138TIP3    H1  378   6.864   2.808   2.512
  138TIP3    H2  379   6.721   2.836   2.469
  139TIP3   OH2  380   4.280   1.185   5.837
  139TIP3    H1  381   4.194   1.147   5.819
  139TIP3    H2  382   4.342   1.123   5.799
  140TIP3   OH2  383   4.223   3.811   2.484
  140TIP3    H1  384   4.240   3.718   2.466
  140TIP3    H2  385   4.136   3.811   2.526
  141TIP3   OH2  386   3.900   3.400   4.521
  141TIP3    H1  387   3.902   3.310   4.553
  141TIP3    H2  388   3.816   3.435   4.549
  142TIP3   OH2  389   0.084   1.759   3.580
  142TIP3    H1  390   0.162   1.792   3.536
  142TIP3    H2  391   0.022   1.832   3.576
  143TIP3   OH2  392   3.214   6.214   2.849
  143TIP3    H1  393   3.122   6.200   2.873
  143TIP3    H2  394   3.215   6.211   2.754
  144TIP3   OH2  395   4.650   2.673   5.385
  144TIP3    H1  396   4.710   2.719   5.444
  144TIP3    H2  397   4.563   2.688   5.422
  145TIP3   OH2  398   5.339   4.036   1.048
  145TIP3    H1  399   5.262   3.996   1.088
  145TIP3    H2  400   5.413   3.989   1.086
  146TIP3   OH2  401   1.547   1.593   1.597
  146TIP3    H1  402   1.579   1.565   1.683
  146TIP3    H2  403   1.581   1.682   1.587
  147TIP3   OH2  404   5.892   6.512   2.071
  147TIP3    H1  405   5.930   6.484   1.987
  147TIP3    H2  406   5.968   6.544   2.120
  148TIP3   OH2  407   3.894   2.964   5.194
  148TIP3    H1  408   3.858   3.027   5.132
  148TIP3    H2  409   3.847   2.883   5.177
  149TIP3   OH2  410   6.485   4.458   3.047
  149TIP3    H1  411   6.454   4.523   3.111
  149TIP3    H2  412   6.462   4.496   2.962
  150TIP3   OH2  413   0.996   3.188   5.192
  150TIP3    H1  414   0.940   3.193   5.114
  150TIP3    H2  415   0.975   3.103   5.231
  151TIP3   OH2  416   1.501   2.077   0.155
  151TIP3    H1  417   1.569   2.070   0.089
  151TIP3    H2  418   1.475   1.987   0.173
  152TIP3   OH2  419   4.469   0.175   0.300
  152TIP3    H1  420   4.555   0.208   0.274
  152TIP3    H2  421   4.488   0.103   0.360
  153TIP3   OH2  422   6.880   4.883   5.171
  153TIP3    H1  423   6.785   4.894   5.176
  153TIP3    H2  424   6.898   4.803   5.221
  154TIP3   OH2  425   4.368   2.780   5.360
  154TIP3    H1  426   4.407   2.759   5.276
  154TIP3    H2  427   4.294   2.837   5.339
  155TIP3   OH2  428   0.652   0.782   1.318
  155TIP3    H1  429   0.708   0.781   1.240
  155TIP3    H2  430   0.659   0.694   1.355
  156TIP3   OH2  431   2.844   4.708   2.411
  156TIP3    H1  432   2.925   4.758   2.421
  156TIP3    H2  433   2.776   4.774   2.399
  157TIP3   OH2  434   2.954   3.642   5.667
  157TIP3    H1  435   2.883   3.590   5.629
  157TIP3    H2  436   2.925   3.732   5.660
  158TIP3   OH2  437   0.003   2.549   1.101
  158TIP3    H1  438  -0.052   2.475   1.077
  158TIP3    H2  439  -0.032   2.580   1.184
  159TIP3   OH2  440   7.264   4.182   1.417
  159TIP3    H1  441   7.294   4.091   1.409
  159TIP3    H2  442   7.276   4.202   1.510
  160TIP3   OH2  443   6.901   0.173   4.109
  160TIP3    H1  444   6.916   0.177   4.015
  160TIP3    H2  445   6.848   0.250   4.128
  161TIP3   OH2  446   1.516   0.368   5.708
  161TIP3    H1  447   1.472   0.451   5.724
  161TIP3    H2  448   1.573   0.385   5.632
  162TIP3   OH2  449   0.836   5.599   0.761
  162TIP3    H1  450   0.875   5.575   0.845
  162TIP3    H2  451   0.822   5.515   0.717
  163TIP3   OH2  452   5.545   4.740   2.548
  163TIP3    H1  453   5.549   4.685   2.627
  163TIP3    H2  454   5.628   4.788   2.548
  164TIP3   OH2  455   2.156   4.902   2.574
  164TIP3    H1  456   2.118   4.940   2.654
  164TIP3    H2  457   2.082   4.898   2.513
  165TIP3   OH2  458   6.756   0.855   0.984
  165TIP3    H1  459   6.813   0.790   0.943
  165TIP3    H2  460   6.813   0.931   0.998
  166TIP3   OH2  461   5.107   2.219   4.622
  166TIP3    H1  462   5.045   2.147   4.609
  166TIP3    H2  463   5.180   2.198   4.563
  167TIP3   OH2  464   5.421   6.494   2.344
  167TIP3    H1  465   5.475   6.565   2.311
  167TIP3    H2  466   5.334   6.511   2.308
  168TIP3   OH2  467   4.278   6.643   1.352
  168TIP3    H1  468   4.290   6.577   1.285
  168TIP3    H2  469   4.208   6.608   1.408
  169TIP3   OH2  470   0.689   4.270   3.884
  169TIP3    H1  471   0.767   4.269   3.940
  169TIP3    H2  472   0.716   4.317   3.806
  170TIP3   OH2  473   1.828   6.188   5.720
  170TIP3    H1  474   1.852   6.216   5.809
  170TIP3    H2  475   1.780   6.263   5.684
  171TIP3   OH2  476   6.388   2.972   5.621
  171TIP3    H1  477   6.370   2.904   5.556
  171TIP3    H2  478   6.478   2.998   5.604
  172TIP3   OH2  479   5.598   1.595   2.885
  172TIP3    H1  480   5.676   1.584   2.940
  172TIP3    H2  481   5.537   1.644   2.939
  173TIP3   OH2  482   5.018   4.138   4.450
  173TIP3    H1  483   5.107   4.106   4.466
  173TIP3    H2  484   4.966   4.097   4.519
  174TIP3   OH2  485   5.543   3.124   2.827
  174TIP3    H1  486   5.484   3.058   2.790
  174TIP3    H2  487   5.628   3.104   2.787
  175TIP3   OH2  488   5.529   4.113   4.690
  175TIP3    H1  489   5.568   4.198   4.708
  175TIP3    H2  490   5.494   4.083   4.774
  176TIP3   OH2  491   0.582   0.538   2.073
  176TIP3    H1  492   0.677   0.540   2.087
  176TIP3    H2  493   0.567   0.599   2.001
  177TIP3   OH2  494   0.057   4.787   4.364
  177TIP3    H1  495   0.116   4.847   4.319
  177TIP3    H2  496   0.090   4.785   4.454
  178TIP3   OH2  497   6.091   4.888   4.374
  178TIP3    H1  498   6.089   4.857   4.283
  178TIP3    H2  499   6.056   4.815   4.425
  179TIP3   OH2  500   3.328   5.325   4.642
  179TIP3    H1  501   3.289   5.390   4.702
  179TIP3    H2  502   3.422   5.333   4.657
  180TIP3   OH2  503   5.218   4.811   5.514
  180TIP3    H1  504   5.283   4.873   5.480
  180TIP3    H2  505   5.140   4.865   5.531
  181TIP3   OH2  506   3.157   2.763   4.563
  181TIP3    H1  507   3.066   2.735   4.554
  181TIP3    H2  508   3.187   2.719   4.643
  182TIP3   OH2  509   6.255   4.667   4.619
  182TIP3    H1  510   6.184   4.656   4.556
  182TIP3    H2  511   6.315   4.729   4.578
  183TIP3   OH2  512   6.339   0.671   4.966
  183TIP3    H1  513   6.370   0.691   5.055
  183TIP3    H2  514   6.406   0.707   4.908
  184TIP3   OH2  515   3.583   4.230   5.105
  184TIP3    H1  516   3.665   4.182   5.094
  184TIP3    H2  517   3.556   4.252   5.016
  185TIP3   OH2  518   0.574   3.568   4.351
  185TIP3    H1  519   0.568   3.505   4.280
  185TIP3    H2  520   0.540   3.522   4.428
  186TIP3   OH2  521   2.844   5.511   4.327
  186TIP3    H1  522   2.783   5.493   4.399
  186TIP3    H2  523   2.873   5.600   4.343
  187TIP3   OH2  524   5.363   1.721   2.413
  187TIP3    H1  525   5.336   1.647   2.466
  187TIP3    H2  526   5.338   1.698   2.324
  188TIP3   OH2  527   5.054   6.543   3.396
  188TIP3    H1  528   5.029   6.490   3.320
  188TIP3    H2  529   5.129   6.496   3.433
  189TIP3   OH2  530   1.036   2.255   2.997
  189TIP3    H1  531   1.081   2.224   3.076
  189TIP3    H2  532   0.948   2.277   3.028
  190TIP3   OH2  533   7.043   2.710   1.589
  190TIP3    H1  534   6.954   2.745   1.595
  190TIP3    H2  535   7.099   2.781   1.619
  191TIP3   OH2  536   4.297   2.148   4.719
  191TIP3    H1  537   4.302   2.243   4.730
  191TIP3    H2  538   4.368   2.115   4.774
  192TIP3   OH2  539   0.824   1.984   5.374
  192TIP3    H1  540   0.883   1.959   5.303
  192TIP3    H2  541   0.872   2.052   5.422
  193TIP3   OH2  542   2.357   2.723   4.638
  193TIP3    H1  543   2.420   2.792   4.653
  193TIP3    H2  544   2.409   2.642   4.638
  194TIP3   OH2  545   2.757   5.468   4.688
  194TIP3    H1  546   2.821   5.538   4.694
  194TIP3    H2  547   2.801   5.399   4.638
  195TIP3   OH2  548   4.039   4.462   4.696
  195TIP3    H1  549   3.952   4.485   4.664
  195TIP3    H2  550   4.065   4.537   4.749
  196TIP3   OH2  551   6.507   5.081   1.108
  196TIP3    H1  552   6.427   5.076   1.057
  196TIP3    H2  553   6.556   5.154   1.070
  197TIP3   OH2  554   2.473   0.113   1.671
  197TIP3    H1  555   2.477   0.046   1.739
  197TIP3    H2  556   2.439   0.191   1.716
  198TIP3   OH2  557   1.537   5.547   0.432
  198TIP3    H1  558   1.620   5.506   0.406
  198TIP3    H2  559   1.480   5.474   0.455
  199TIP3   OH2  560   2.660   0.387   1.749
  199TIP3    H1  561   2.713   0.330   1.693
  199TIP3    H2  562   2.662   0.345   1.835
  200TIP3   OH2  563   6.742   5.098   3.256
  200TIP3    H1  564   6.792   5.156   3.199
  200TIP3    H2  565   6.805   5.070   3.323
  201TIP3   OH2  566   6.346   3.112   3.569
  201TIP3    H1  567   6.302   3.146   3.491
  201TIP3    H2  568   6.434   3.150   3.565
  202TIP3   OH2  569   1.627   4.332   1.137
  202TIP3    H1  570   1.681   4.346   1.060
  202TIP3    H2  571   1.553   4.391   1.126
  203TIP3   OH2  572   3.273   1.033   5.066
  203TIP3    H1  573   3.233   1.116   5.094
  203TIP3    H2  574   3.314   1.053   4.982
  204TIP3   OH2  575   1.245   4.631   2.540
  204TIP3    H1  576   1.310   4.668   2.481
  204TIP3    H2  577   1.272   4.540   2.552
  205TIP3   OH2  578   6.051   3.993   5.793
  205TIP3    H1  579   5.956   4.004   5.805
  205TIP3    H2  580   6.059   3.917   5.735
  206TIP3   OH2  581   2.771   4.336   3.853
  206TIP3    H1  582   2.755   4.331   3.759
  206TIP3    H2  583   2.704   4.396   3.886
  207TIP3   OH2  584   6.426   3.594   4.345
  207TIP3    H1  585   6.387   3.584   4.432
  207TIP3    H2  586   6.508   3.640   4.360
  208TIP3   OH2  587   2.479   1.529   1.110
  208TIP3    H1  588   2.452   1.523   1.019
  208TIP3    H2  589   2.420   1.469   1.156
  209TIP3   OH2  590   5.466   2.091   1.454
  209TIP3    H1  591   5.522   2.019   1.423
  209TIP3    H2  592   5.514   2.170   1.431
  210TIP3   OH2  593   0.513   6.160   0.250
  210TIP3    H1  594   0.594   6.137   0.204
  210TIP3    H2  595   0.512   6.101   0.326
  211TIP3   OH2  596   6.042   4.223   1.331
  211TIP3    H1  597   6.053   4.316   1.351
  211TIP3    H2  598   5.949   4.213   1.310
  212TIP3   OH2  599   5.772   4.516   5.470
  212TIP3    H1  600   5.744   4.426   5.454
  212TIP3    H2  601   5.693   4.569   5.455
  213TIP3   OH2  602   5.143   0.750   1.996
  213TIP3    H1  603   5.235   0.774   1.980
  213TIP3    H2  604   5.148   0.661   2.030
  214TIP3   OH2  605   5.417   5.614   5.700
  214TIP3    H1  606   5.411   5.548   5.769
  214TIP3    H2  607   5.509   5.642   5.702
  215TIP3   OH2  608   7.139   2.689   0.871
  215TIP3    H1  609   7.114   2.637   0.795
  215TIP3    H2  610   7.178   2.625   0.931
  216TIP3   OH2  611   5.783   0.078   3.342
  216TIP3    H1  612   5.855   0.087   3.280
  216TIP3    H2  613   5.726   0.011   3.304
  217TIP3   OH2  614   6.251   5.491   0.792
  217TIP3    H1  615   6.162   5.509   0.761
  217TIP3    H2  616   6.242   5.415   0.849
  218TIP3   OH2  617   5.445   1.276   0.362
  218TIP3    H1  618   5.403   1.189   0.367
  218TIP3    H2  619   5.375   1.334   0.333
  219TIP3   OH2  620   1.304   5.883   0.467
  219TIP3    H1  621   1.249   5.821   0.418
  219TIP3    H2  622   1.341   5.830   0.539
  220TIP3   OH2  623   6.616   3.515   1.855
  220TIP3    H1  624   6.653   3.559   1.931
  220TIP3    H2  625   6.590   3.587   1.797
  221TIP3   OH2  626   0.685   6.147   1.407
  221TIP3    H1  627   0.681   6.137   1.312
  221TIP3    H2  628   0.709   6.239   1.421
  222TIP3   OH2  629   1.383   6.683   2.872
  222TIP3    H1  630   1.429   6.710   2.793
  222TIP3    H2  631   1.292   6.675   2.845
  223TIP3   OH2  632   4.958   5.865   5.841
  223TIP3    H1  633   4.918   5.781   5.866
  223TIP3    H2  634   4.962   5.914   5.923
  224TIP3   OH2  635   7.113   3.948   3.294
  224TIP3    H1  636   7.050   3.882   3.263
  224TIP3    H2  637   7.068   4.031   3.282
  225TIP3   OH2  638   1.944   0.067   2.250
  225TIP3    H1  639   2.031   0.106   2.254
  225TIP3    H2  640   1.906   0.084   2.336
  226TIP3   OH2  641   2.769   4.980   1.438
  226TIP3    H1  642   2.698   4.947   1.383
  226TIP3    H2  643   2.773   5.074   1.418
  227TIP3   OH2  644   2.022   0.829   4.694
  227TIP3    H1  645   1.950   0.783   4.737
  227TIP3    H2  646   2.012   0.920   4.721
  228TIP3   OH2  647   3.389   0.596   0.033
  228TIP3    H1  648   3.338   0.676   0.027
  228TIP3    H2  649   3.323   0.526   0.033
  229TIP3   OH2  650   1.185   1.605   5.541
  229TIP3    H1  651   1.128   1.663   5.591
  229TIP3    H2  652   1.151   1.608   5.452
  230TIP3   OH2  653   5.036   2.636   3.974
  230TIP3    H1  654   5.064   2.613   4.062
  230TIP3    H2  655   4.979   2.563   3.947
  231TIP3   OH2  656   5.785   3.028   5.430
  231TIP3    H1  657   5.823   3.115   5.441
  231TIP3    H2  658   5.857   2.974   5.397
  232TIP3   OH2  659   4.911   5.712   0.383
  232TIP3    H1  660   4.883   5.714   0.292
  232TIP3    H2  661   4.835   5.741   0.433
  233TIP3   OH2  662   1.534   0.184   4.387
  233TIP3    H1  663   1.527   0.147   4.300
  233TIP3    H2  664   1.562   0.111   4.443
  234TIP3   OH2  665   3.193   0.113   4.920
  234TIP3    H1  666   3.220   0.161   4.999
  234TIP3    H2  667   3.137   0.173   4.872
  235TIP3   OH2  668   3.404   6.151   0.766
  235TIP3    H1  669   3.480   6.177   0.817
  235TIP3    H2  670   3.386   6.226   0.710
  236TIP3   OH2  671   4.163   4.648   3.187
  236TIP3    H1  672   4.141   4.624   3.097
  236TIP3    H2  673   4.239   4.593   3.207
  237TIP3   OH2  674   6.152   3.424   1.044
  237TIP3    H1  675   6.242   3.412   1.076
  237TIP3    H2  676   6.163   3.460   0.956
  238TIP3   OH2  677   2.618   1.596   5.196
  238TIP3    H1  678   2.614   1.658   5.123
  238TIP3    H2  679   2.685   1.631   5.254
  239TIP3   OH2  680   2.561   3.767   1.040
  239TIP3    H1  681   2.568   3.791   1.132
  239TIP3    H2  682   2.492   3.701   1.037
  240TIP3   OH2  683   2.394   3.100   4.857
  240TIP3    H1  684   2.380   3.049   4.937
  240TIP3    H2  685   2.398   3.034   4.787
  241TIP3   OH2  686   3.519  -0.019   1.641
  241TIP3    H1  687   3.565  -0.016   1.725
  241TIP3    H2  688   3.557   0.053   1.591
  242TIP3   OH2  689   5.761   1.880   2.498
  242TIP3    H1  690   5.706   1.818   2.450
  242TIP3    H2  691   5.765   1.844   2.587
  243TIP3   OH2  692   0.810   2.996   5.368
  243TIP3    H1  693   0.838   2.965   5.454
  243TIP3    H2  694   0.803   2.916   5.315
  244TIP3   OH2  695   0.046   3.330   1.800
  244TIP3    H1  696   0.037   3.354   1.708
  244TIP3    H2  697   0.115   3.387   1.833
  245TIP3   OH2  698   3.513   6.002   3.682
  245TIP3    H1  699   3.418   6.008   3.670
  245TIP3    H2  700   3.541   6.091   3.704
  246TIP3   OH2  701   0.892   6.024   2.747
  246TIP3    H1  702   0.847   6.090   2.694
  246TIP3    H2  703   0.898   5.948   2.689
  247TIP3   OH2  704   1.957   5.933   4.697
  247TIP3    H1  705   1.906   6.008   4.726
  247TIP3    H2  706   2.006   5.906   4.775
  248TIP3   OH2  707   1.851   1.057   3.611
  248TIP3    H1  708   1.898   1.126   3.565
  248TIP3    H2  709   1.852   1.083   3.703
  249TIP3   OH2  710   0.513   3.765   5.240
  249TIP3    H1  711   0.531   3.820   5.163
  249TIP3    H2  712   0.458   3.694   5.207
  250TIP3   OH2  713   1.536   6.386   2.294
  250TIP3    H1  714   1.610   6.326   2.302
  250TIP3    H2  715   1.459   6.333   2.316
  251TIP3   OH2  716   0.521   5.884   0.002
  251TIP3    H1  717   0.566   5.861   0.084
  251TIP3    H2  718   0.439   5.836   0.006
  252TIP3   OH2  719   6.842   2.133   1.899
  252TIP3    H1  720   6.839   2.163   1.808
  252TIP3    H2  721   6.767   2.074   1.907
  253TIP3   OH2  722   3.201   5.443   5.690
  253TIP3    H1  723   3.213   5.535   5.716
  253TIP3    H2  724   3.184   5.397   5.772
  254TIP3   OH2  725   5.480   1.389   2.118
  254TIP3    H1  726   5.406   1.329   2.130
  254TIP3    H2  727   5.515   1.401   2.206
  255TIP3   OH2  728   0.840   0.097   0.945
  255TIP3    H1  729   0.852   0.178   0.994
  255TIP3    H2  730   0.919   0.046   0.964
  256TIP3   OH2  731   4.004   0.216   5.128
  256TIP3    H1  732   3.939   0.224   5.197
  256TIP3    H2  733   4.085   0.250   5.166
  257TIP3   OH2  734   3.392   6.672   1.798
  257TIP3    H1  735   3.466   6.692   1.741
  257TIP3    H2  736   3.341   6.607   1.750
  258TIP3   OH2  737   2.922   6.055   4.056
  258TIP3    H1  738   2.857   6.025   3.993
  258TIP3    H2  739   2.928   5.984   4.120
  259TIP3   OH2  740   3.189   1.614   3.793
  259TIP3    H1  741   3.119   1.552   3.771
  259TIP3    H2  742   3.264   1.586   3.741
  260TIP3   OH2  743   5.635   4.725   4.317
  260TIP3    H1  744   5.724   4.739   4.350
  260TIP3    H2  745   5.630   4.631   4.299
  261TIP3   OH2  746   4.091   5.722   5.735
  261TIP3    H1  747   4.150   5.655   5.701
  261TIP3    H2  748   4.021   5.728   5.669
  262TIP3   OH2  749   6.499   2.452   1.264
  262TIP3    H1  750   6.591   2.470   1.245
  262TIP3    H2  751   6.499   2.364   1.303
  263TIP3   OH2  752   5.056   4.944   4.980
  263TIP3    H1  753   5.140   4.932   4.936
  263TIP3    H2  754   5.070   4.907   5.067
  264TIP3   OH2  755   4.825   2.220   0.841
  264TIP3    H1  756   4.917   2.232   0.818
  264TIP3    H2  757   4.795   2.308   0.865
  265TIP3   OH2  758   0.399   2.081   5.157
  265TIP3    H1  759   0.367   2.145   5.093
  265TIP3    H2  760   0.338   2.007   5.150
  266TIP3   OH2  761   5.438   2.544   4.784
  266TIP3    H1  762   5.468   2.459   4.751
  266TIP3    H2  763   5.348   2.552   4.753
  267TIP3   OH2  764   2.455   6.141   3.374
  267TIP3    H1  765   2.444   6.139   3.279
  267TIP3    H2  766   2.407   6.219   3.402
  268TIP3   OH2  767   4.668   0.015   2.550
  268TIP3    H1  768   4.686   0.104   2.580
  268TIP3    H2  769   4.652  -0.034   2.630
  269TIP3   OH2  770   2.104   3.114   2.610
  269TIP3    H1  771   2.170   3.086   2.673
  269TIP3    H2  772   2.062   3.034   2.581
  270TIP3   OH2  773   5.340   3.344   1.992
  270TIP3    H1  774   5.301   3.288   2.058
  270TIP3    H2  775   5.405   3.288   1.948
  271TIP3   OH2  776   2.890   1.907   3.236
  271TIP3    H1  777   2.925   1.990   3.202
  271TIP3    H2  778   2.957   1.876   3.297
  272TIP3   OH2  779   3.145   4.317   0.758
  272TIP3    H1  780   3.150   4.247   0.693
  272TIP3    H2  781   3.066   4.297   0.809
  273TIP3   OH2  782   4.301   0.250   0.112
  273TIP3    H1  783   4.228   0.286   0.163
  273TIP3    H2  784   4.365   0.223   0.178
  274TIP3   OH2  785   3.062   5.381   2.746
  274TIP3    H1  786   3.146   5.426   2.749
  274TIP3    H2  787   3.021   5.399   2.830
  275TIP3   OH2  788   7.211   6.085   4.026
  275TIP3    H1  789   7.305   6.100   4.021
  275TIP3    H2  790   7.203   5.996   4.058
  276TIP3   OH2  791   1.231   2.486   1.624
  276TIP3    H1  792   1.185   2.402   1.629
  276TIP3    H2  793   1.196   2.538   1.696
  277TIP3   OH2  794   0.624   6.774   4.636
  277TIP3    H1  795   0.687   6.751   4.704
  277TIP3    H2  796   0.675   6.777   4.555
  278TIP3   OH2  797   2.225   1.887   1.547
  278TIP3    H1  798   2.300   1.830   1.532
  278TIP3    H2  799   2.179   1.889   1.463
  279TIP3   OH2  800   0.687   2.507   2.244
  279TIP3    H1  801   0.726   2.431   2.202
  279TIP3    H2  802   0.733   2.515   2.328
  280TIP3   OH2  803   2.658   2.994   2.004
  280TIP3    H1  804   2.574   3.002   2.049
  280TIP3    H2  805   2.664   3.072   1.949
  281TIP3   OH2  806   2.576   5.676   2.854
  281TIP3    H1  807   2.612   5.591   2.830
  281TIP3    H2  808   2.489   5.678   2.815
  282TIP3   OH2  809   6.051   2.859   2.840
  282TIP3    H1  810   6.065   2.767   2.861
  282TIP3    H2  811   5.978   2.885   2.895
  283TIP3   OH2  812   4.750   4.267   0.199
  283TIP3    H1  813   4.773   4.178   0.170
  283TIP3    H2  814   4.824   4.321   0.172
  284TIP3   OH2  815   4.557   3.933   3.044
  284TIP3    H1  816   4.533   3.878   2.970
  284TIP3    H2  817   4.577   3.871   3.114
  285TIP3   OH2  818   7.110   2.188   4.382
  285TIP3    H1  819   7.060   2.227   4.310
  285TIP3    H2  820   7.157   2.115   4.343
  286TIP3   OH2  821   6.673   1.736   3.525
  286TIP3    H1  822   6.621   1.754   3.603
  286TIP3    H2  823   6.753   1.694   3.557
  287TIP3   OH2  824   4.557   2.815   2.126
  287TIP3    H1  825   4.542   2.881   2.058
  287TIP3    H2  826   4.599   2.864   2.198
  288TIP3   OH2  827   6.561   2.764   2.070
  288TIP3    H1  828   6.656   2.753   2.067
  288TIP3    H2  829   6.545   2.844   2.019
  289TIP3   OH2  830   2.986   6.538   3.504
  289TIP3    H1  831   2.931   6.525   3.427
  289TIP3    H2  832   3.002   6.449   3.537
  290TIP3   OH2  833   6.409   5.174   3.189
  290TIP3    H1  834   6.462   5.248   3.158
  290TIP3    H2  835   6.473   5.107   3.212
  291TIP3   OH2  836   0.699   2.859   5.125
  291TIP3    H1  837   0.726   2.772   5.156
  291TIP3    H2  838   0.608   2.868   5.155
  292TIP3   OH2  839   5.837   5.760   3.631
  292TIP3    H1  840   5.834   5.813   3.551
  292TIP3    H2  841   5.907   5.697   3.616
  293TIP3   OH2  842   0.318   3.716   3.061
  293TIP3    H1  843   0.330   3.635   3.011
  293TIP3    H2  844   0.224   3.725   3.071
  294TIP3   OH2  845   4.612   1.925   2.687
  294TIP3    H1  846   4.633   1.846   2.737
  294TIP3    H2  847   4.641   1.904   2.598
  295TIP3   OH2  848   4.596   4.572   3.008
  295TIP3    H1  849   4.507   4.560   3.041
  295TIP3    H2  850   4.590   4.551   2.915
  296TIP3   OH2  851   4.896   1.262   3.175
  296TIP3    H1  852   4.814   1.234   3.216
  296TIP3    H2  853   4.902   1.210   3.095
  297TIP3   OH2  854   4.925   5.187   1.614
  297TIP3    H1  855   4.857   5.224   1.670
  297TIP3    H2  856   4.912   5.092   1.619
  298TIP3   OH2  857   0.367   3.198   2.788
  298TIP3    H1  858   0.271   3.195   2.789
  298TIP3    H2  859   0.393   3.118   2.743
  299TIP3   OH2  860   4.292   5.781   3.820
  299TIP3    H1  861   4.224   5.714   3.816
  299TIP3    H2  862   4.308   5.805   3.729
  300TIP3   OH2  863   0.344   5.057   0.730
  300TIP3    H1  864   0.300   5.140   0.747
  300TIP3    H2  865   0.362   5.020   0.817
  301TIP3   OH2  866   4.110   5.606   3.187
  301TIP3    H1  867   4.095   5.675   3.252
  301TIP3    H2  868   4.090   5.648   3.103
  302TIP3   OH2  869   5.324   3.956   5.645
  302TIP3    H1  870   5.309   3.967   5.551
  302TIP3    H2  871   5.236   3.954   5.683
  303TIP3   OH2  872   7.017   3.585   2.973
  303TIP3    H1  873   6.997   3.539   3.054
  303TIP3    H2  874   6.985   3.674   2.987
  304TIP3   OH2  875   1.726   6.219   2.430
  304TIP3    H1  876   1.797   6.156   2.447
  304TIP3    H2  877   1.648   6.177   2.466
  305TIP3   OH2  878   4.403   1.441   4.281
  305TIP3    H1  879   4.478   1.477   4.329
  305TIP3    H2  880   4.403   1.348   4.304
  306TIP3   OH2  881   4.693   1.550   3.209
  306TIP3    H1  882   4.776   1.598   3.213
  306TIP3    H2  883   4.674   1.542   3.116
  307TIP3   OH2  884   6.892   4.558   1.420
  307TIP3    H1  885   6.870   4.480   1.471
  307TIP3    H2  886   6.974   4.535   1.375
  308TIP3   OH2  887   0.370   1.894   1.006
  308TIP3    H1  888   0.386   1.978   1.049
  308TIP3    H2  889   0.414   1.903   0.921
  309TIP3   OH2  890   4.656   0.559   4.097
  309TIP3    H1  891   4.743   0.526   4.076
  309TIP3    H2  892   4.672   0.638   4.149
  310TIP3   OH2  893   0.938   5.031   2.137
  310TIP3    H1  894   0.927   4.938   2.116
  310TIP3    H2  895   0.879   5.075   2.076
  311TIP3   OH2  896   6.233   1.988   0.329
  311TIP3    H1  897   6.138   1.993   0.319
  311TIP3    H2  898   6.247   1.982   0.423
  312TIP3   OH2  899   1.741   0.843   1.920
  312TIP3    H1  900   1.775   0.790   1.991
  312TIP3    H2  901   1.647   0.850   1.938
  313TIP3   OH2  902   6.343   2.323   2.185
  313TIP3    H1  903   6.300   2.296   2.266
  313TIP3    H2  904   6.272   2.357   2.130
  314TIP3   OH2  905   4.653   4.680   5.041
  314TIP3    H1  906   4.716   4.649   5.106
  314TIP3    H2  907   4.686   4.765   5.013
  315TIP3   OH2  908   5.002   1.997   3.382
  315TIP3    H1  909   5.033   1.907   3.373
  315TIP3    H2  910   5.069   2.050   3.338
  316TIP3   OH2  911   4.755   1.557   2.443
  316TIP3    H1  912   4.816   1.628   2.421
  316TIP3    H2  913   4.753   1.503   2.364
  317TIP3   OH2  914   1.022   0.898   1.490
  317TIP3    H1  915   0.940   0.903   1.538
  317TIP3    H2  916   1.033   0.805   1.470
  318TIP3   OH2  917   0.070   4.437   4.185
  318TIP3    H1  918   0.154   4.391   4.191
  318TIP3    H2  919   0.039   4.442   4.275
  319TIP3   OH2  920   4.786   0.194   1.734
  319TIP3    H1  921   4.715   0.257   1.718
  319TIP3    H2  922   4.757   0.114   1.692
  320TIP3   OH2  923   1.940   0.543   2.948
  320TIP3    H1  924   1.892   0.466   2.980
  320TIP3    H2  925   1.991   0.572   3.023
  321TIP3   OH2  926   4.435   0.391   3.133
  321TIP3    H1  927   4.341   0.409   3.140
  321TIP3    H2  928   4.477   0.472   3.161
  322TIP3   OH2  929   3.825   2.046   5.299
  322TIP3    H1  930   3.827   2.122   5.356
  322TIP3    H2  931   3.736   2.012   5.307
  323TIP3   OH2  932   7.062   1.014   0.421
  323TIP3    H1  933   7.005   0.939   0.403
  323TIP3    H2  934   7.034   1.080   0.358
  324TIP3   OH2  935   5.908   2.284   4.802
  324TIP3    H1  936   5.941   2.364   4.843
  324TIP3    H2  937   5.844   2.314   4.737
  325TIP3   OH2  938   1.896   1.592   0.610
  325TIP3    H1  939   1.920   1.500   0.610
  325TIP3    H2  940   1.980   1.638   0.615
  326TIP3   OH2  941   2.569   0.931   4.772
  326TIP3    H1  942   2.549   0.838   4.763
  326TIP3    H2  943   2.483   0.974   4.771
  327TIP3   OH2  944   5.774   4.895   5.638
  327TIP3    H1  945   5.792   4.988   5.653
  327TIP3    H2  946   5.852   4.863   5.593
  328TIP3   OH2  947   3.033   5.245   3.407
  328TIP3    H1  948   3.064   5.182   3.342
  328TIP3    H2  949   3.113   5.280   3.446
  329TIP3   OH2  950   0.417   1.266   0.669
  329TIP3    H1  951   0.416   1.333   0.601
  329TIP3    H2  952   0.327   1.261   0.700
  330TIP3   OH2  953   3.898   4.738   1.067
  330TIP3    H1  954   3.923   4.809   1.009
  330TIP3    H2  955   3.820   4.700   1.027
  331TIP3   OH2  956   0.548   4.322   1.750
  331TIP3    H1  957   0.566   4.387   1.682
  331TIP3    H2  958   0.557   4.238   1.705
  332TIP3   OH2  959   3.875   0.920   4.610
  332TIP3    H1  960   3.971   0.923   4.614
  332TIP3    H2  961   3.852   0.834   4.644
  333TIP3   OH2  962   6.792   3.610   2.101
  333TIP3    H1  963   6.771   3.517   2.109
  333TIP3    H2  964   6.850   3.628   2.176
  334TIP3   OH2  965   2.271   4.273   1.306
  334TIP3    H1  966   2.314   4.337   1.362
  334TIP3    H2  967   2.190   4.316   1.278
  335TIP3   OH2  968   2.986   4.067   4.658
  335TIP3    H1  969   2.958   4.109   4.739
  335TIP3    H2  970   3.074   4.035   4.678
  336TIP3   OH2  971   6.777   0.697   3.698
  336TIP3    H1  972   6.691   0.706   3.656
  336TIP3    H2  973   6.771   0.614   3.746
  337TIP3   OH2  974   0.327   0.817   3.267
  337TIP3    H1  975   0.329   0.757   3.342
  337TIP3    H2  976   0.273   0.890   3.297
  338TIP3   OH2  977   4.780   3.154   0.586
  338TIP3    H1  978   4.715   3.103   0.538
  338TIP3    H2  979   4.863   3.112   0.564
  339TIP3   OH2  980   3.336   1.937   4.729
  339TIP3    H1  981   3.316   2.030   4.721
  339TIP3    H2  982   3.382   1.930   4.813
  340TIP3   OH2  983   2.333   4.463   3.541
  340TIP3    H1  984   2.421   4.497   3.552
  340TIP3    H2  985   2.341   4.398   3.471
  341TIP3   OH2  986   5.547   5.852   1.648
  341TIP3    H1  987   5.525   5.868   1.740
  341TIP3    H2  988   5.542   5.757   1.638
  342TIP3   OH2  989   1.950   5.149   0.560
  342TIP3    H1  990   2.008   5.209   0.513
  342TIP3    H2  991   1.977   5.157   0.651
  343TIP3   OH2  992   5.111   5.162   3.031
  343TIP3    H1  993   5.134   5.082   3.077
  343TIP3    H2  994   5.181   5.175   2.967
  344TIP3   OH2  995   2.866   5.980   2.430
  344TIP3    H1  996   2.817   5.950   2.507
  344TIP3    H2  997   2.809   6.045   2.389
  345TIP3   OH2  998   6.242   4.847   2.271
  345TIP3    H1  999   6.206   4.830   2.357
  345TIP3    H2 1000   6.326   4.801   2.270
  346TIP3   OH2 1001   3.661   3.028   2.714
  346TIP3    H1 1002   3.601   2.977   2.660
  346TIP3    H2 1003   3.742   2.977   2.714
  347TIP3   OH2 1004   1.824   1.141   1.527
  347TIP3    H1 1005   1.875   1.075   1.574
  347TIP3    H2 1006   1.744   1.095   1.500
  348TIP3   OH2 1007   0.445   3.477   0.540
  348TIP3    H1 1008   0.451   3.394   0.494
  348TIP3    H2 1009   0.495   3.539   0.486
  349TIP3   OH2 1010   3.768   1.529   3.400
  349TIP3    H1 1011   3.792   1.564   3.315
  349TIP3    H2 1012   3.759   1.606   3.457
  350TIP3   OH2 1013   5.187   2.551   0.190
  350TIP3    H1 1014   5.115   2.570   0.131
  350TIP3    H2 1015   5.257   2.611   0.162
  351TIP3   OH2 1016   6.142   6.271   3.271
  351TIP3    H1 1017   6.100   6.272   3.185
  351TIP3    H2 1018   6.232   6.243   3.253
  352TIP3   OH2 1019   3.793   3.117   1.312
  352TIP3    H1 1020   3.850   3.191   1.294
  352TIP3    H2 1021   3.704   3.152   1.305
  353TIP3   OH2 1022   7.195   3.643   1.072
  353TIP3    H1 1023   7.203   3.737   1.087
  353TIP3    H2 1024   7.129   3.615   1.135
  354TIP3   OH2 1025   1.627   3.907   2.570
  354TIP3    H1 1026   1.709   3.940   2.534
  354TIP3    H2 1027   1.563   3.922   2.501
  355TIP3   OH2 1028   4.411   1.346   3.145
  355TIP3    H1 1029   4.349   1.410   3.111
  355TIP3    H2 1030   4.452   1.391   3.220
  356TIP3   OH2 1031   4.837   0.993   4.613
  356TIP3    H1 1032   4.929   1.020   4.610
  356TIP3    H2 1033   4.840   0.898   4.596
  357TIP3   OH2 1034   1.576   5.349   5.723
  357TIP3    H1 1035   1.490   5.382   5.746
  357TIP3    H2 1036   1.604   5.299   5.799
  358TIP3   OH2 1037   2.459   1.609   2.841
  358TIP3    H1 1038   2.448   1.574   2.929
  358TIP3    H2 1039   2.374   1.646   2.819
  359TIP3   OH2 1040   3.484   0.374   3.410
  359TIP3    H1 1041   3.417   0.431   3.448
  359TIP3    H2 1042   3.567   0.407   3.447
  360TIP3   OH2 1043   6.454   0.055   3.270
  360TIP3    H1 1044   6.507   0.135   3.269
  360TIP3    H2 1045   6.487   0.004   3.343
  361TIP3   OH2 1046   6.851   6.649   3.425
  361TIP3    H1 1047   6.926   6.687   3.471
  361TIP3    H2 1048   6.785   6.718   3.425
  362TIP3   OH2 1049   3.734   0.941   5.163
  362TIP3    H1 1050   3.748   0.971   5.253
  362TIP3    H2 1051   3.666   0.998   5.129
  363TIP3   OH2 1052   5.815   1.357   4.872
  363TIP3    H1 1053   5.794   1.264   4.869
  363TIP3    H2 1054   5.839   1.374   4.963
  364TIP3   OH2 1055   0.912   4.632   0.242
  364TIP3    H1 1056   0.853   4.707   0.249
  364TIP3    H2 1057   0.853   4.558   0.226
  365TIP3   OH2 1058   7.148   4.484   2.765
  365TIP3    H1 1059   7.162   4.562   2.817
  365TIP3    H2 1060   7.227   4.476   2.711
  366TIP3   OH2 1061   6.564   2.921   3.175
  366TIP3    H1 1062   6.634   2.868   3.136
  366TIP3    H2 1063   6.483   2.886   3.138
  367TIP3   OH2 1064   6.275   0.268   2.112
  367TIP3    H1 1065   6.256   0.200   2.047
  367TIP3    H2 1066   6.202   0.329   2.105
  368TIP3   OH2 1067   6.500   3.199   3.225
  368TIP3    H1 1068   6.484   3.233   3.137
  368TIP3    H2 1069   6.521   3.106   3.212
  369TIP3   OH2 1070   4.098   6.763   1.845
  369TIP3    H1 1071   4.191   6.756   1.827
  369TIP3    H2 1072   4.058   6.785   1.761
  370TIP3   OH2 1073   6.080   0.525   4.932
  370TIP3    H1 1074   6.151   0.587   4.949
  370TIP3    H2 1075   6.110   0.443   4.973
  371TIP3   OH2 1076   0.206   6.115   0.837
  371TIP3    H1 1077   0.298   6.140   0.828
  371TIP3    H2 1078   0.181   6.082   0.750
  372TIP3   OH2 1079   4.751   4.745   0.571
  372TIP3    H1 1080   4.694   4.679   0.609
  372TIP3    H2 1081   4.778   4.799   0.645
  373TIP3   OH2 1082   4.106   6.137   4.093
  373TIP3    H1 1083   4.183   6.172   4.137
  373TIP3    H2 1084   4.122   6.043   4.088
  374TIP3   OH2 1085   1.592   0.936   1.482
  374TIP3    H1 1086   1.625   0.867   1.539
  374TIP3    H2 1087   1.497   0.926   1.485
  375TIP3   OH2 1088   1.817   4.664   3.067
  375TIP3    H1 1089   1.773   4.624   2.992
  375TIP3    H2 1090   1.768   4.633   3.143
  376TIP3   OH2 1091   4.204   6.627   4.872
  376TIP3    H1 1092   4.174   6.537   4.882
  376TIP3    H2 1093   4.293   6.627   4.906
  377TIP3   OH2 1094   3.457   0.367   4.674
  377TIP3    H1 1095   3.432   0.459   4.687
  377TIP3    H2 1096   3.472   0.359   4.580
  378TIP3   OH2 1097   6.970   0.469   4.981
  378TIP3    H1 1098   6.976   0.476   5.076
  378TIP3    H2 1099   6.973   0.375   4.963
  379TIP3   OH2 1100   2.917   0.933   3.495
  379TIP3    H1 1101   2.952   1.002   3.551
  379TIP3    H2 1102   2.854   0.978   3.438
  380TIP3   OH2 1103   5.408   2.397   1.016
  380TIP3    H1 1104   5.476   2.364   1.074
  380TIP3    H2 1105   5.353   2.321   0.998
  381TIP3   OH2 1106   5.867   3.351   0.223
  381TIP3    H1 1107   5.782   3.309   0.209
  381TIP3    H2 1108   5.845   3.432   0.269
  382TIP3   OH2 1109   2.454   2.250   2.880
  382TIP3    H1 1110   2.448   2.345   2.887
  382TIP3    H2 1111   2.538   2.228   2.920
  383TIP3   OH2 1112   2.107   6.344   1.759
  383TIP3    H1 1113   2.189   6.296   1.772
  383TIP3    H2 1114   2.051   6.314   1.831
  384TIP3   OH2 1115   3.953   6.237   3.883
  384TIP3    H1 1116   3.943   6.326   3.916
  384TIP3    H2 1117   3.999   6.190   3.953
  385TIP3   OH2 1118   6.208   5.698   0.463
  385TIP3    H1 1119   6.285   5.755   0.459
  385TIP3    H2 1120   6.244   5.610   0.468
  386TIP3   OH2 1121   0.765   3.809   4.303
  386TIP3    H1 1122   0.673   3.796   4.324
  386TIP3    H2 1123   0.806   3.830   4.387
  387TIP3   OH2 1124   2.640   6.717   3.106
  387TIP3    H1 1125   2.573   6.736   3.173
  387TIP3    H2 1126   2.619   6.776   3.034
  388TIP3   OH2 1127   3.559   1.199   3.127
  388TIP3    H1 1128   3.554   1.282   3.174
  388TIP3    H2 1129   3.543   1.222   3.035
  389TIP3   OH2 1130   2.184   2.817   5.133
  389TIP3    H1 1131   2.182   2.783   5.043
  389TIP3    H2 1132   2.210   2.742   5.186
  390TIP3   OH2 1133   4.978   2.218   0.461
  390TIP3    H1 1134   5.013   2.165   0.533
  390TIP3    H2 1135   4.917   2.160   0.415
  391TIP3   OH2 1136   2.517   5.846   5.572
  391TIP3    H1 1137   2.454   5.883   5.633
  391TIP3    H2 1138   2.593   5.904   5.577
  392TIP3   OH2 1139   4.138   5.582   1.637
  392TIP3    H1 1140   4.201   5.513   1.656
  392TIP3    H2 1141   4.066   5.538   1.593
  393TIP3   OH2 1142   0.220   5.118   2.939
  393TIP3    H1 1143   0.134   5.090   2.910
  393TIP3    H2 1144   0.235   5.071   3.021
  394TIP3   OH2 1145   2.191   2.610   3.966
  394TIP3    H1 1146   2.234   2.663   3.899
  394TIP3    H2 1147   2.100   2.604   3.937
  395TIP3   OH2 1148   0.029   2.504   1.525
  395TIP3    H1 1149   0.110   2.539   1.560
  395TIP3    H2 1150  -0.016   2.580   1.487
  396TIP3   OH2 1151   2.519   2.968   5.509
  396TIP3    H1 1152   2.433   2.941   5.476
  396TIP3    H2 1153   2.499   3.033   5.576
  397TIP3   OH2 1154   1.035   1.144   2.841
  397TIP3    H1 1155   1.068   1.200   2.912
  397TIP3    H2 1156   1.089   1.065   2.847
  398TIP3   OH2 1157   3.119   0.659   5.672
  398TIP3    H1 1158   3.177   0.584   5.680
  398TIP3    H2 1159   3.173   0.734   5.696
  399TIP3   OH2 1160   6.170   0.824   4.783
  399TIP3    H1 1161   6.166   0.750   4.723
  399TIP3    H2 1162   6.223   0.793   4.856
  400TIP3   OH2 1163   3.524   6.236   0.055
  400TIP3    H1 1164   3.468   6.159   0.054
  400TIP3    H2 1165   3.547   6.247   0.148
  401TIP3   OH2 1166   6.104   0.853   1.005
  401TIP3    H1 1167   6.082   0.785   0.941
  401TIP3    H2 1168   6.028   0.912   1.004
  402TIP3   OH2 1169   3.714   0.525   4.415
  402TIP3    H1 1170   3.731   0.552   4.505
  402TIP3    H2 1171   3.794   0.547   4.368
  403TIP3   OH2 1172   3.845   0.947   0.621
  403TIP3    H1 1173   3.923   0.895   0.638
  403TIP3    H2 1174   3.840   0.953   0.525
  404TIP3   OH2 1175   6.361   2.642   1.761
  404TIP3    H1 1176   6.406   2.560   1.740
  404TIP3    H2 1177   6.432   2.707   1.765
  405TIP3   OH2 1178   1.091   2.651   1.148
  405TIP3    H1 1179   1.136   2.595   1.211
  405TIP3    H2 1180   1.151   2.659   1.074
  406TIP3   OH2 1181   3.741   1.167   4.144
  406TIP3    H1 1182   3.664   1.128   4.185
  406TIP3    H2 1183   3.789   1.208   4.216
  407TIP3   OH2 1184   6.963   5.524   2.956
  407TIP3    H1 1185   7.005   5.561   2.879
  407TIP3    H2 1186   6.898   5.462   2.920
  408TIP3   OH2 1187   0.878   4.079   2.783
  408TIP3    H1 1188   0.942   4.020   2.823
  408TIP3    H2 1189   0.819   4.102   2.855
  409TIP3   OH2 1190   3.969   2.971   0.860
  409TIP3    H1 1191   3.931   3.057   0.840
  409TIP3    H2 1192   4.044   2.991   0.916
  410TIP3   OH2 1193   1.987   3.971   1.943
  410TIP3    H1 1194   2.017   4.058   1.968
  410TIP3    H2 1195   2.023   3.958   1.855
  411TIP3   OH2 1196   2.293   1.239   5.794
  411TIP3    H1 1197   2.277   1.266   5.885
  411TIP3    H2 1198   2.350   1.306   5.758
  412TIP3   OH2 1199   2.240   6.124   4.958
  412TIP3    H1 1200   2.290   6.061   4.907
  412TIP3    H2 1201   2.261   6.209   4.919
  413TIP3   OH2 1202   4.461   6.040   0.960
  413TIP3    H1 1203   4.435   6.023   1.050
  413TIP3    H2 1204   4.466   6.135   0.953
  414TIP3   OH2 1205   5.076   5.014   1.198
  414TIP3    H1 1206   5.085   5.005   1.293
  414TIP3    H2 1207   5.100   4.929   1.163
  415TIP3   OH2 1208   1.650   5.517   2.145
  415TIP3    H1 1209   1.714   5.476   2.203
  415TIP3    H2 1210   1.696   5.592   2.107
  416TIP3   OH2 1211   2.278   4.182   1.564
  416TIP3    H1 1212   2.302   4.163   1.473
  416TIP3    H2 1213   2.242   4.270   1.561
  417TIP3   OH2 1214   6.329   2.834   2.356
  417TIP3    H1 1215   6.247   2.847   2.403
  417TIP3    H2 1216   6.319   2.883   2.275
  418TIP3   OH2 1217   2.936   5.003   1.166
  418TIP3    H1 1218   2.904   4.980   1.254
  418TIP3    H2 1219   3.028   4.976   1.167
  419TIP3   OH2 1220   6.502   3.823   3.015
  419TIP3    H1 1221   6.515   3.773   2.935
  419TIP3    H2 1222   6.525   3.913   2.991
  420TIP3   OH2 1223   4.720   5.135   3.555
  420TIP3    H1 1224   4.706   5.086   3.637
  420TIP3    H2 1225   4.812   5.160   3.558
  421TIP3   OH2 1226   2.280   5.912   0.356
  421TIP3    H1 1227   2.354   5.904   0.416
  421TIP3    H2 1228   2.253   5.821   0.340
  422TIP3   OH2 1229   1.062   0.568   1.164
  422TIP3    H1 1230   1.057   0.630   1.091
  422TIP3    H2 1231   1.156   0.559   1.181
  423TIP3   OH2 1232   6.253   4.657   0.096
  423TIP3    H1 1233   6.241   4.732   0.154
  423TIP3    H2 1234   6.232   4.581   0.151
  424TIP3   OH2 1235   7.078   4.437   4.026
  424TIP3    H1 1236   7.101   4.405   3.939
  424TIP3    H2 1237   7.159   4.431   4.076
  425TIP3   OH2 1238   6.995   3.896   4.519
  425TIP3    H1 1239   7.090   3.891   4.530
  425TIP3    H2 1240   6.960   3.838   4.587
  426TIP3   OH2 1241   5.039   3.910   5.353
  426TIP3    H1 1242   5.007   3.843   5.413
  426TIP3    H2 1243   4.968   3.974   5.349
  427TIP3   OH2 1244   3.470   1.268   0.300
  427TIP3    H1 1245   3.448   1.324   0.226
  427TIP3    H2 1246   3.469   1.179   0.265
  428TIP3   OH2 1247   6.582   1.054   4.797
  428TIP3    H1 1248   6.523   1.122   4.768
  428TIP3    H2 1249   6.648   1.047   4.727
  429TIP3   OH2 1250   1.699   2.053   4.500
  429TIP3    H1 1251   1.752   1.974   4.492
  429TIP3    H2 1252   1.650   2.041   4.581
  430TIP3   OH2 1253   0.278   2.297   5.019
  430TIP3    H1 1254   0.306   2.375   4.971
  430TIP3    H2 1255   0.222   2.331   5.089
  431TIP3   OH2 1256   5.162   5.709   3.883
  431TIP3    H1 1257   5.116   5.683   3.803
  431TIP3    H2 1258   5.247   5.741   3.853
  432TIP3   OH2 1259   1.204   3.817   0.916
  432TIP3    H1 1260   1.291   3.777   0.911
  432TIP3    H2 1261   1.176   3.799   1.006
  433TIP3   OH2 1262   6.171   2.702   4.222
  433TIP3    H1 1263   6.164   2.795   4.204
  433TIP3    H2 1264   6.097   2.663   4.175
  434TIP3   OH2 1265   1.857   1.476   1.707
  434TIP3    H1 1266   1.891   1.517   1.628
  434TIP3    H2 1267   1.842   1.550   1.767
  435TIP3   OH2 1268   1.407   6.714   0.038
  435TIP3    H1 1269   1.374   6.770   0.107
  435TIP3    H2 1270   1.348   6.729  -0.036
  436TIP3   OH2 1271   6.832   6.214   3.985
  436TIP3    H1 1272   6.863   6.259   3.906
  436TIP3    H2 1273   6.911   6.178   4.024
  437TIP3   OH2 1274   2.741   6.378   5.636
  437TIP3    H1 1275   2.702   6.317   5.699
  437TIP3    H2 1276   2.816   6.330   5.600
  438TIP3   OH2 1277   1.463   4.005   2.394
  438TIP3    H1 1278   1.381   3.961   2.418
  438TIP3    H2 1279   1.502   3.949   2.327
  439TIP3   OH2 1280   1.476   3.394   5.370
  439TIP3    H1 1281   1.399   3.374   5.316
  439TIP3    H2 1282   1.547   3.346   5.328
  440TIP3   OH2 1283   4.088   3.853   5.472
  440TIP3    H1 1284   4.043   3.778   5.510
  440TIP3    H2 1285   4.055   3.858   5.383
  441TIP3   OH2 1286   6.803   6.817   3.188
  441TIP3    H1 1287   6.732   6.854   3.136
  441TIP3    H2 1288   6.792   6.855   3.275
  442TIP3   OH2 1289   5.517   2.449   2.781
  442TIP3    H1 1290   5.560   2.432   2.697
  442TIP3    H2 1291   5.470   2.532   2.767
  443TIP3   OH2 1292   5.586   1.108   3.843
  443TIP3    H1 1293   5.656   1.144   3.897
  443TIP3    H2 1294   5.530   1.183   3.823
  444TIP3   OH2 1295   3.290   5.027   2.959
  444TIP3    H1 1296   3.355   5.096   2.946
  444TIP3    H2 1297   3.214   5.056   2.908
  445TIP3   OH2 1298   3.086   1.373   1.640
  445TIP3    H1 1299   3.167   1.340   1.599
  445TIP3    H2 1300   3.044   1.424   1.572
  446TIP3   OH2 1301   0.605   2.236   2.401
  446TIP3    H1 1302   0.697   2.216   2.381
  446TIP3    H2 1303   0.607   2.326   2.434
  447TIP3   OH2 1304   4.771   6.496   3.350
  447TIP3    H1 1305   4.861   6.528   3.354
  447TIP3    H2 1306   4.736   6.511   3.437
  448TIP3   OH2 1307   0.782   1.148   3.881
  448TIP3    H1 1308   0.755   1.113   3.796
  448TIP3    H2 1309   0.874   1.124   3.889
  449TIP3   OH2 1310   3.896   6.482   4.037
  449TIP3    H1 1311   3.850   6.414   4.085
  449TIP3    H2 1312   3.939   6.535   4.104
  450TIP3   OH2 1313   4.712   6.174   4.820
  450TIP3    H1 1314   4.649   6.233   4.779
  450TIP3    H2 1315   4.704   6.192   4.914
  451TIP3   OH2 1316   1.410   5.167   1.970
  451TIP3    H1 1317   1.380   5.148   1.881
  451TIP3    H2 1318   1.330   5.171   2.022
  452TIP3   OH2 1319   4.006   6.636   5.563
  452TIP3    H1 1320   4.028   6.558   5.613
  452TIP3    H2 1321   4.090   6.664   5.525
  453TIP3   OH2 1322   1.739   1.768   3.281
  453TIP3    H1 1323   1.692   1.749   3.362
  453TIP3    H2 1324   1.807   1.701   3.277
  454TIP3   OH2 1325   0.912   0.307   5.238
  454TIP3    H1 1326   0.832   0.349   5.206
  454TIP3    H2 1327   0.963   0.289   5.159
  455TIP3   OH2 1328   0.353   5.375   3.585
  455TIP3    H1 1329   0.422   5.434   3.554
  455TIP3    H2 1330   0.285   5.381   3.518
  456TIP3   OH2 1331   3.758   4.487   5.115
  456TIP3    H1 1332   3.721   4.429   5.182
  456TIP3    H2 1333   3.845   4.510   5.147
  457TIP3   OH2 1334   3.831   3.549   2.559
  457TIP3    H1 1335   3.753   3.588   2.599
  457TIP3    H2 1336   3.904   3.577   2.614
  458TIP3   OH2 1337   6.880   0.288   5.582
  458TIP3    H1 1338   6.828   0.259   5.657
  458TIP3    H2 1339   6.971   0.285   5.612
  459TIP3   OH2 1340   0.696   1.893   1.440
  459TIP3    H1 1341   0.783   1.927   1.464
  459TIP3    H2 1342   0.707   1.798   1.440
  460TIP3   OH2 1343   5.937   1.807   4.175
  460TIP3    H1 1344   5.860   1.751   4.163
  460TIP3    H2 1345   5.982   1.805   4.091
  461TIP3   OH2 1346   2.030   0.735   2.305
  461TIP3    H1 1347   2.011   0.792   2.380
  461TIP3    H2 1348   2.118   0.703   2.321
  462TIP3   OH2 1349   1.249   2.001   1.432
  462TIP3    H1 1350   1.343   1.989   1.446
  462TIP3    H2 1351   1.242   2.079   1.377
  463TIP3   OH2 1352   1.775   3.157   3.391
  463TIP3    H1 1353   1.695   3.205   3.416
  463TIP3    H2 1354   1.831   3.223   3.351
  464TIP3   OH2 1355   2.633   3.600   1.446
  464TIP3    H1 1356   2.697   3.537   1.415
  464TIP3    H2 1357   2.565   3.547   1.487
  465TIP3   OH2 1358   4.743   1.067   5.737
  465TIP3    H1 1359   4.765   1.160   5.739
  465TIP3    H2 1360   4.773   1.033   5.822
  466TIP3   OH2 1361   0.822   1.510   2.018
  466TIP3    H1 1362   0.903   1.472   1.984
  466TIP3    H2 1363   0.753   1.472   1.965
  467TIP3   OH2 1364   1.205   1.195   5.223
  467TIP3    H1 1365   1.254   1.121   5.257
  467TIP3    H2 1366   1.201   1.257   5.296
  468TIP3   OH2 1367   3.120   2.490   5.154
  468TIP3    H1 1368   3.207   2.529   5.148
  468TIP3    H2 1369   3.133   2.399   5.126
  469TIP3   OH2 1370   1.468   1.739   4.313
  469TIP3    H1 1371   1.508   1.705   4.392
  469TIP3    H2 1372   1.378   1.760   4.338
  470TIP3   OH2 1373   0.066   4.775   5.146
  470TIP3    H1 1374   0.040   4.846   5.205
  470TIP3    H2 1375   0.120   4.818   5.079
  471TIP3   OH2 1376   4.081   4.222   4.980
  471TIP3    H1 1377   4.138   4.194   4.908
  471TIP3    H2 1378   4.054   4.310   4.956
  472TIP3   OH2 1379   5.947   5.599   3.245
  472TIP3    H1 1380   5.993   5.682   3.261
  472TIP3    H2 1381   5.949   5.554   3.329
  473TIP3   OH2 1382   1.617   4.379   4.058
  473TIP3    H1 1383   1.535   4.339   4.029
  473TIP3    H2 1384   1.684   4.333   4.008
  474TIP3   OH2 1385   4.381   2.945  -0.020
  474TIP3    H1 1386   4.365   2.900   0.063
  474TIP3    H2 1387   4.456   2.898  -0.059
  475TIP3   OH2 1388   6.985   1.149   4.083
  475TIP3    H1 1389   6.955   1.089   4.015
  475TIP3    H2 1390   6.936   1.123   4.161
  476TIP3   OH2 1391   3.688   6.174   5.085
  476TIP3    H1 1392   3.692   6.092   5.037
  476TIP3    H2 1393   3.616   6.223   5.044
  477TIP3   OH2 1394   2.735   3.711   5.473
  477TIP3    H1 1395   2.743   3.805   5.461
  477TIP3    H2 1396   2.643   3.698   5.499
  478TIP3   OH2 1397   7.027   1.594   0.675
  478TIP3    H1 1398   7.004   1.503   0.657
  478TIP3    H2 1399   6.956   1.645   0.635
  479TIP3   OH2 1400   2.844   1.162   4.983
  479TIP3    H1 1401   2.851   1.084   5.038
  479TIP3    H2 1402   2.752   1.186   4.987
  480TIP3   OH2 1403   1.573   6.739   1.582
  480TIP3    H1 1404   1.655   6.703   1.548
  480TIP3    H2 1405   1.532   6.781   1.506
  481TIP3   OH2 1406   4.905   1.583   5.284
  481TIP3    H1 1407   4.934   1.530   5.358
  481TIP3    H2 1408   4.951   1.667   5.295
  482TIP3   OH2 1409   1.279   0.101   4.828
  482TIP3    H1 1410   1.261   0.013   4.859
  482TIP3    H2 1411   1.366   0.095   4.787
  483TIP3   OH2 1412   6.808   4.181   0.422
  483TIP3    H1 1413   6.763   4.141   0.496
  483TIP3    H2 1414   6.776   4.271   0.421
  484TIP3   OH2 1415   2.626   6.031   1.496
  484TIP3    H1 1416   2.617   6.089   1.572
  484TIP3    H2 1417   2.571   6.071   1.429
  485TIP3   OH2 1418   2.219   4.228   2.315
  485TIP3    H1 1419   2.153   4.251   2.251
  485TIP3    H2 1420   2.233   4.308   2.365
  486TIP3   OH2 1421   6.970   2.723   2.351
  486TIP3    H1 1422   6.960   2.773   2.269
  486TIP3    H2 1423   6.901   2.657   2.346
  487TIP3   OH2 1424   5.001   2.604   0.554
  487TIP3    H1 1425   5.021   2.518   0.518
  487TIP3    H2 1426   5.085   2.636   0.587
  488TIP3   OH2 1427   5.029   4.982   5.565
  488TIP3    H1 1428   5.005   5.039   5.637
  488TIP3    H2 1429   5.011   5.033   5.486
  489TIP3   OH2 1430   1.982   5.545   5.874
  489TIP3    H1 1431   1.961   5.461   5.832
  489TIP3    H2 1432   1.947   5.611   5.815
  490TIP3   OH2 1433   3.746   6.408   3.156
  490TIP3    H1 1434   3.693   6.347   3.208
  490TIP3    H2 1435   3.756   6.366   3.071
  491TIP3   OH2 1436   6.652   1.210   0.846
  491TIP3    H1 1437   6.738   1.217   0.886
  491TIP3    H2 1438   6.670   1.198   0.752
  492TIP3   OH2 1439   1.124   5.991   5.199
  492TIP3    H1 1440   1.216   6.000   5.223
  492TIP3    H2 1441   1.099   5.904   5.228
  493TIP3   OH2 1442   1.441   3.074   3.713
  493TIP3    H1 1443   1.471   3.137   3.779
  493TIP3    H2 1444   1.521   3.044   3.671
  494TIP3   OH2 1445   2.686   3.131   4.588
  494TIP3    H1 1446   2.681   3.149   4.682
  494TIP3    H2 1447   2.599   3.099   4.565
  495TIP3   OH2 1448   6.476   5.927   2.568
  495TIP3    H1 1449   6.459   5.902   2.477
  495TIP3    H2 1450   6.501   6.019   2.564
  496TIP3   OH2 1451   6.035   2.066   4.718
  496TIP3    H1 1452   6.122   2.088   4.686
  496TIP3    H2 1453   5.991   2.151   4.728
  497TIP3   OH2 1454   6.266   6.479   1.756
  497TIP3    H1 1455   6.307   6.425   1.823
  497TIP3    H2 1456   6.184   6.509   1.796
  498TIP3   OH2 1457   2.788   4.105   2.505
  498TIP3    H1 1458   2.695   4.125   2.515
  498TIP3    H2 1459   2.790   4.027   2.450
  499TIP3   OH2 1460   6.037   5.736   1.774
  499TIP3    H1 1461   6.110   5.696   1.726
  499TIP3    H2 1462   5.958   5.703   1.730
  500TIP3   OH2 1463   3.165   4.537   3.920
  500TIP3    H1 1464   3.155   4.453   3.876
  500TIP3    H2 1465   3.223   4.519   3.994
  501TIP3   OH2 1466   5.884   3.108   5.027
  501TIP3    H1 1467   5.901   3.014   5.032
  501TIP3    H2 1468   5.933   3.145   5.101
  502TIP3   OH2 1469   2.924   2.289   1.174
  502TIP3    H1 1470   2.969   2.373   1.163
  502TIP3    H2 1471   2.838   2.311   1.209
  503TIP3   OH2 1472   6.272   6.153   1.468
  503TIP3    H1 1473   6.331   6.093   1.423
  503TIP3    H2 1474   6.239   6.103   1.543
  504TIP3   OH2 1475   4.964   4.848   3.412
  504TIP3    H1 1476   4.959   4.891   3.497
  504TIP3    H2 1477   4.941   4.757   3.430
  505TIP3   OH2 1478   3.149   3.276   0.557
  505TIP3    H1 1479   3.212   3.302   0.624
  505TIP3    H2 1480   3.188   3.198   0.516
  506TIP3   OH2 1481   3.847   6.087   1.136
  506TIP3    H1 1482   3.853   5.993   1.117
  506TIP3    H2 1483   3.772   6.095   1.195
  507TIP3   OH2 1484   1.565   0.639   0.660
  507TIP3    H1 1485   1.532   0.702   0.725
  507TIP3    H2 1486   1.660   0.648   0.665
  508TIP3   OH2 1487   4.653   5.210   4.060
  508TIP3    H1 1488   4.728   5.151   4.068
  508TIP3    H2 1489   4.693   5.296   4.048
  509TIP3   OH2 1490   4.570   1.917   2.215
  509TIP3    H1 1491   4.580   1.986   2.149
  509TIP3    H2 1492   4.568   1.836   2.164
  510TIP3   OH2 1493   6.160   3.048   3.091
  510TIP3    H1 1494   6.084   3.070   3.037
  510TIP3    H2 1495   6.190   3.131   3.126
  511TIP3   OH2 1496   4.323   1.467   4.588
  511TIP3    H1 1497   4.247   1.524   4.577
  511TIP3    H2 1498   4.286   1.380   4.604
  512TIP3   OH2 1499   2.722   1.861   5.036
  512TIP3    H1 1500   2.806   1.822   5.010
  512TIP3    H2 1501   2.676   1.877   4.953
  513TIP3   OH2 1502   2.037   2.854   5.570
  513TIP3    H1 1503   1.943   2.848   5.556
  513TIP3    H2 1504   2.065   2.925   5.512
  514TIP3   OH2 1505   4.147   3.353   3.297
  514TIP3    H1 1506   4.213   3.400   3.349
  514TIP3    H2 1507   4.083   3.420   3.273
  515TIP3   OH2 1508   4.678   6.640   0.402
  515TIP3    H1 1509   4.632   6.663   0.483
  515TIP3    H2 1510   4.771   6.645   0.424
  516TIP3   OH2 1511   0.172   4.351   3.927
  516TIP3    H1 1512   0.165   4.442   3.957
  516TIP3    H2 1513   0.266   4.335   3.921
  517TIP3   OH2 1514   6.723   5.950   1.687
  517TIP3    H1 1515   6.700   6.036   1.650
  517TIP3    H2 1516   6.802   5.924   1.641
  518TIP3   OH2 1517   6.953   0.660   5.605
  518TIP3    H1 1518   6.875   0.658   5.660
  518TIP3    H2 1519   6.921   0.691   5.520
  519TIP3   OH2 1520   0.598   0.490   4.230
  519TIP3    H1 1521   0.620   0.414   4.175
  519TIP3    H2 1522   0.652   0.561   4.195
  520TIP3   OH2 1523   2.226   2.860   1.125
  520TIP3    H1 1524   2.278   2.802   1.180
  520TIP3    H2 1525   2.268   2.946   1.135
  521TIP3   OH2 1526   0.675   2.504   0.914
  521TIP3    H1 1527   0.770   2.520   0.913
  521TIP3    H2 1528   0.667   2.409   0.912
  522TIP3   OH2 1529   3.986   5.600   1.860
  522TIP3    H1 1530   3.901   5.575   1.823
  522TIP3    H2 1531   4.047   5.595   1.787
  523TIP3   OH2 1532   2.522   0.543   2.733
  523TIP3    H1 1533   2.445   0.573   2.780
  523TIP3    H2 1534   2.524   0.597   2.653
  524TIP3   OH2 1535   5.686   5.551   5.176
  524TIP3    H1 1536   5.726   5.624   5.129
  524TIP3    H2 1537   5.693   5.575   5.269
  525TIP3   OH2 1538   5.892   4.988   2.242
  525TIP3    H1 1539   5.955   5.038   2.191
  525TIP3    H2 1540   5.897   4.899   2.207
  526TIP3   OH2 1541   1.902   0.114   5.326
  526TIP3    H1 1542   1.846   0.051   5.281
  526TIP3    H2 1543   1.890   0.196   5.277
  527TIP3   OH2 1544   3.581   3.427   3.544
  527TIP3    H1 1545   3.572   3.517   3.514
  527TIP3    H2 1546   3.676   3.413   3.549
  528TIP3   OH2 1547   0.843   2.541   1.273
  528TIP3    H1 1548   0.902   2.597   1.223
  528TIP3    H2 1549   0.828   2.465   1.217
  529TIP3   OH2 1550   4.134   1.656   2.106
  529TIP3    H1 1551   4.195   1.633   2.176
  529TIP3    H2 1552   4.110   1.571   2.068
  530TIP3   OH2 1553   5.215   2.289   0.327
  530TIP3    H1 1554   5.185   2.356   0.266
  530TIP3    H2 1555   5.135   2.245   0.355
  531TIP3   OH2 1556   0.454   5.709   5.820
  531TIP3    H1 1557   0.359   5.707   5.821
  531TIP3    H2 1558   0.476   5.800   5.804
  532TIP3   OH2 1559   4.285   0.148   0.970
  532TIP3    H1 1560   4.327   0.219   0.922
  532TIP3    H2 1561   4.293   0.072   0.912
  533TIP3   OH2 1562   5.317   1.223   4.627
  533TIP3    H1 1563   5.378   1.193   4.695
  533TIP3    H2 1564   5.355   1.306   4.597
  534TIP3   OH2 1565   1.239   3.197   1.823
  534TIP3    H1 1566   1.149   3.180   1.850
  534TIP3    H2 1567   1.264   3.275   1.872
  535TIP3   OH2 1568   1.590   1.516   5.102
  535TIP3    H1 1569   1.588   1.438   5.158
  535TIP3    H2 1570   1.655   1.496   5.035
  536TIP3   OH2 1571   4.064   3.927   3.045
  536TIP3    H1 1572   4.094   3.874   2.971
  536TIP3    H2 1573   3.974   3.899   3.060
  537TIP3   OH2 1574   1.608   5.940   2.543
  537TIP3    H1 1575   1.530   5.918   2.491
  537TIP3    H2 1576   1.629   5.858   2.588
  538TIP3   OH2 1577   7.060   2.657   3.486
  538TIP3    H1 1578   6.967   2.634   3.482
  538TIP3    H2 1579   7.100   2.607   3.414
  539TIP3   OH2 1580   5.606   4.660   5.900
  539TIP3    H1 1581   5.586   4.753   5.896
  539TIP3    H2 1582   5.675   4.647   5.834
  540TIP3   OH2 1583   2.902   4.484   0.968
  540TIP3    H1 1584   2.815   4.455   0.942
  540TIP3    H2 1585   2.901   4.479   1.064
  541TIP3   OH2 1586   2.384   0.280   0.250
  541TIP3    H1 1587   2.442   0.346   0.288
  541TIP3    H2 1588   2.329   0.329   0.189
  542TIP3   OH2 1589   5.474   6.085   5.180
  542TIP3    H1 1590   5.444   6.148   5.115
  542TIP3    H2 1591   5.528   6.137   5.240
  543TIP3   OH2 1592   4.616   3.588   1.856
  543TIP3    H1 1593   4.527   3.593   1.892
  543TIP3    H2 1594   4.669   3.640   1.915
  544TIP3   OH2 1595   5.112   6.225   4.477
  544TIP3    H1 1596   5.167   6.301   4.459
  544TIP3    H2 1597   5.071   6.244   4.561
  545TIP3   OH2 1598   1.784   2.969   4.782
  545TIP3    H1 1599   1.874   2.979   4.752
  545TIP3    H2 1600   1.783   3.010   4.869
  546TIP3   OH2 1601   3.321   0.969   0.549
  546TIP3    H1 1602   3.334   0.914   0.625
  546TIP3    H2 1603   3.348   1.056   0.577
  547TIP3   OH2 1604   5.340   0.546   1.687
  547TIP3    H1 1605   5.355   0.539   1.593
  547TIP3    H2 1606   5.251   0.513   1.700
  548TIP3   OH2 1607   3.055   0.896   4.959
  548TIP3    H1 1608   3.021   0.824   5.012
  548TIP3    H2 1609   3.124   0.935   5.013
  549TIP3   OH2 1610   0.769   5.903   5.939
  549TIP3    H1 1611   0.737   5.845   5.870
  549TIP3    H2 1612   0.699   5.968   5.948
  550TIP3   OH2 1613   4.639   4.994   2.143
  550TIP3    H1 1614   4.727   4.998   2.107
  550TIP3    H2 1615   4.637   4.913   2.193
  551TIP3   OH2 1616   0.267   3.893   1.258
  551TIP3    H1 1617   0.269   3.798   1.251
  551TIP3    H2 1618   0.258   3.923   1.167
  552TIP3   OH2 1619   1.627   4.623   2.035
  552TIP3    H1 1620   1.577   4.702   2.056
  552TIP3    H2 1621   1.696   4.654   1.976
  553TIP3   OH2 1622   6.433   2.587   2.511
  553TIP3    H1 1623   6.420   2.678   2.535
  553TIP3    H2 1624   6.473   2.590   2.424
  554TIP3   OH2 1625   1.560   3.287   4.878
  554TIP3    H1 1626   1.648   3.319   4.896
  554TIP3    H2 1627   1.558   3.199   4.916
  555TIP3   OH2 1628   5.485   2.321   0.413
  555TIP3    H1 1629   5.406   2.291   0.369
  555TIP3    H2 1630   5.557   2.289   0.359
  556TIP3   OH2 1631   5.970   1.480   2.460
  556TIP3    H1 1632   5.995   1.557   2.511
  556TIP3    H2 1633   5.891   1.507   2.414
  557TIP3   OH2 1634   3.852   1.287   2.376
  557TIP3    H1 1635   3.930   1.343   2.374
  557TIP3    H2 1636   3.877   1.209   2.327
  558TIP3   OH2 1637   0.361   2.984   0.082
  558TIP3    H1 1638   0.437   3.005   0.137
  558TIP3    H2 1639   0.303   3.059   0.090
  559TIP3   OH2 1640   3.482   0.321   4.388
  559TIP3    H1 1641   3.491   0.251   4.323
  559TIP3    H2 1642   3.441   0.393   4.340
  560TIP3   OH2 1643   6.583   5.030   4.312
  560TIP3    H1 1644   6.660   5.048   4.366
  560TIP3    H2 1645   6.617   5.011   4.225
  561TIP3   OH2 1646   5.929   5.667   2.983
  561TIP3    H1 1647   5.934   5.653   3.078
  561TIP3    H2 1648   5.988   5.601   2.946
  562TIP3   OH2 1649   1.966   3.738   2.748
  562TIP3    H1 1650   1.999   3.725   2.837
  562TIP3    H2 1651   1.976   3.832   2.733
  563TIP3   OH2 1652   2.529   3.244   0.906
  563TIP3    H1 1653   2.572   3.291   0.834
  563TIP3    H2 1654   2.561   3.287   0.985
  564TIP3   OH2 1655   0.118   3.002   3.341
  564TIP3    H1 1656   0.070   3.027   3.262
  564TIP3    H2 1657   0.202   3.046   3.332
  565TIP3   OH2 1658   5.238   3.379   1.275
  565TIP3    H1 1659   5.174   3.355   1.207
  565TIP3    H2 1660   5.185   3.391   1.354
  566TIP3   OH2 1661   6.890   0.565   3.317
  566TIP3    H1 1662   6.903   0.658   3.335
  566TIP3    H2 1663   6.905   0.522   3.401
  567TIP3   OH2 1664   3.697   1.211   5.457
  567TIP3    H1 1665   3.767   1.260   5.500
  567TIP3    H2 1666   3.743   1.142   5.409
  568TIP3   OH2 1667   2.701   3.478   4.102
  568TIP3    H1 1668   2.713   3.521   4.017
  568TIP3    H2 1669   2.740   3.540   4.165
  569TIP3   OH2 1670   1.470   2.905   1.178
  569TIP3    H1 1671   1.499   2.991   1.208
  569TIP3    H2 1672   1.541   2.874   1.122
  570TIP3   OH2 1673   2.417   4.962   0.695
  570TIP3    H1 1674   2.495   5.011   0.721
  570TIP3    H2 1675   2.419   4.962   0.599
  571TIP3   OH2 1676   1.549   2.009   1.881
  571TIP3    H1 1677   1.511   2.074   1.822
  571TIP3    H2 1678   1.643   2.016   1.869
  572TIP3   OH2 1679   6.973   5.361   2.207
  572TIP3    H1 1680   6.898   5.305   2.186
  572TIP3    H2 1681   7.048   5.302   2.199
  573TIP3   OH2 1682   6.042   5.414   2.875
  573TIP3    H1 1683   5.972   5.349   2.887
  573TIP3    H2 1684   6.123   5.366   2.893
  574TIP3   OH2 1685   3.890   2.111   0.751
  574TIP3    H1 1686   3.937   2.172   0.807
  574TIP3    H2 1687   3.829   2.166   0.701
  575TIP3   OH2 1688   2.194   0.618   5.814
  575TIP3    H1 1689   2.138   0.601   5.891
  575TIP3    H2 1690   2.281   0.633   5.850
  576TIP3   OH2 1691   2.668   6.152   0.644
  576TIP3    H1 1692   2.600   6.100   0.600
  576TIP3    H2 1693   2.679   6.109   0.729
  577TIP3   OH2 1694   0.874   2.084   5.769
  577TIP3    H1 1695   0.805   2.134   5.726
  577TIP3    H2 1696   0.953   2.137   5.760
  578TIP3   OH2 1697   3.013   2.784   3.142
  578TIP3    H1 1698   3.000   2.876   3.164
  578TIP3    H2 1699   3.095   2.760   3.185
  579TIP3   OH2 1700   4.412   6.047   5.053
  579TIP3    H1 1701   4.348   6.000   5.106
  579TIP3    H2 1702   4.466   5.979   5.013
  580TIP3   OH2 1703   3.639   2.982   5.769
  580TIP3    H1 1704   3.716   2.999   5.716
  580TIP3    H2 1705   3.627   2.887   5.766
  581TIP3   OH2 1706   5.803   5.995   1.625
  581TIP3    H1 1707   5.732   5.930   1.625
  581TIP3    H2 1708   5.858   5.971   1.551
  582TIP3   OH2 1709   4.008   4.902   3.948
  582TIP3    H1 1710   3.961   4.841   3.891
  582TIP3    H2 1711   3.938   4.954   3.989
  583TIP3   OH2 1712   0.531   5.284   1.768
  583TIP3    H1 1713   0.497   5.218   1.708
  583TIP3    H2 1714   0.583   5.343   1.712
  584TIP3   OH2 1715   2.422   4.166   0.885
  584TIP3    H1 1716   2.343   4.215   0.860
  584TIP3    H2 1717   2.408   4.143   0.976
  585TIP3   OH2 1718   3.280   4.995   2.108
  585TIP3    H1 1719   3.186   4.980   2.121
  585TIP3    H2 1720   3.317   4.991   2.196
  586TIP3   OH2 1721   3.781   3.690   5.237
  586TIP3    H1 1722   3.761   3.652   5.152
  586TIP3    H2 1723   3.857   3.746   5.221
  587TIP3   OH2 1724   6.553   1.213   3.334
  587TIP3    H1 1725   6.545   1.308   3.327
  587TIP3    H2 1726   6.635   1.200   3.383
  588TIP3   OH2 1727   6.005   2.024   1.195
  588TIP3    H1 1728   5.966   2.110   1.212
  588TIP3    H2 1729   6.008   1.982   1.281
  589TIP3   OH2 1730   0.384   1.759   3.120
  589TIP3    H1 1731   0.472   1.725   3.131
  589TIP3    H2 1732   0.396   1.844   3.078
  590TIP3   OH2 1733   6.400   6.409   4.320
  590TIP3    H1 1734   6.393   6.426   4.226
  590TIP3    H2 1735   6.444   6.324   4.326
  591TIP3   OH2 1736   6.066   0.413   1.209
  591TIP3    H1 1737   6.017   0.385   1.131
  591TIP3    H2 1738   5.999   0.442   1.271
  592TIP3   OH2 1739   3.862   5.450   4.439
  592TIP3    H1 1740   3.770   5.461   4.417
  592TIP3    H2 1741   3.908   5.453   4.355
  593TIP3   OH2 1742   3.918   2.469   2.565
  593TIP3    H1 1743   3.857   2.543   2.555
  593TIP3    H2 1744   3.994   2.494   2.513
  594TIP3   OH2 1745   0.991   3.824   5.625
  594TIP3    H1 1746   1.063   3.886   5.636
  594TIP3    H2 1747   0.913   3.871   5.655
  595TIP3   OH2 1748   2.655   6.321   3.496
  595TIP3    H1 1749   2.615   6.257   3.437
  595TIP3    H2 1750   2.606   6.402   3.481
  596TIP3   OH2 1751   5.704   4.668   5.037
  596TIP3    H1 1752   5.705   4.724   4.959
  596TIP3    H2 1753   5.614   4.639   5.045
  597TIP3   OH2 1754   2.574   0.523   2.325
  597TIP3    H1 1755   2.657   0.513   2.277
  597TIP3    H2 1756   2.588   0.477   2.407
  598TIP3   OH2 1757   1.699   1.306   3.108
  598TIP3    H1 1758   1.658   1.252   3.175
  598TIP3    H2 1759   1.649   1.388   3.109
  599TIP3   OH2 1760   0.774   2.011   0.929
  599TIP3    H1 1761   0.869   2.017   0.922
  599TIP3    H2 1762   0.742   2.097   0.899
  600TIP3   OH2 1763   3.235   2.625   2.483
  600TIP3    H1 1764   3.265   2.704   2.438
  600TIP3    H2 1765   3.306   2.561   2.469
  601TIP3   OH2 1766   3.474   4.869   5.905
  601TIP3    H1 1767   3.387   4.883   5.866
  601TIP3    H2 1768   3.477   4.775   5.921
  602TIP3   OH2 1769   4.860   6.555   1.782
  602TIP3    H1 1770   4.819   6.475   1.749
  602TIP3    H2 1771   4.796   6.591   1.843
  603TIP3   OH2 1772   1.972   0.878   2.508
  603TIP3    H1 1773   1.979   0.841   2.595
  603TIP3    H2 1774   1.942   0.968   2.522
  604TIP3   OH2 1775   1.272   6.665   5.137
  604TIP3    H1 1776   1.349   6.655   5.081
  604TIP3    H2 1777   1.227   6.581   5.130
  605TIP3   OH2 1778   0.321   3.656   3.738
  605TIP3    H1 1779   0.405   3.690   3.706
  605TIP3    H2 1780   0.279   3.732   3.779
  606TIP3   OH2 1781   2.838   1.821   2.739
  606TIP3    H1 1782   2.800   1.904   2.709
  606TIP3    H2 1783   2.764   1.773   2.775
  607TIP3   OH2 1784   1.991   3.434   2.282
  607TIP3    H1 1785   1.944   3.498   2.336
  607TIP3    H2 1786   1.950   3.442   2.195
  608TIP3   OH2 1787   0.198   1.148   0.117
  608TIP3    H1 1788   0.244   1.210   0.173
  608TIP3    H2 1789   0.194   1.191   0.031
  609TIP3   OH2 1790   6.688   1.890   1.874
  609TIP3    H1 1791   6.629   1.853   1.940
  609TIP3    H2 1792   6.640   1.882   1.791
  610TIP3   OH2 1793   0.567   1.050   3.250
  610TIP3    H1 1794   0.509   1.061   3.325
  610TIP3    H2 1795   0.550   0.961   3.220
  611TIP3   OH2 1796   2.020   6.324   0.730
  611TIP3    H1 1797   1.968   6.246   0.715
  611TIP3    H2 1798   1.988   6.387   0.665
  612TIP3   OH2 1799   2.652   2.189   0.944
  612TIP3    H1 1800   2.588   2.245   0.899
  612TIP3    H2 1801   2.604   2.150   1.016
  613TIP3   OH2 1802   3.445   0.541   1.254
  613TIP3    H1 1803   3.366   0.516   1.303
  613TIP3    H2 1804   3.506   0.573   1.321
  614TIP3   OH2 1805   6.994   3.727   4.743
  614TIP3    H1 1806   7.002   3.813   4.785
  614TIP3    H2 1807   7.049   3.669   4.795
  615TIP3   OH2 1808   2.874   2.366   4.495
  615TIP3    H1 1809   2.969   2.369   4.502
  615TIP3    H2 1810   2.849   2.451   4.459
  616TIP3   OH2 1811   2.862   4.880   0.240
  616TIP3    H1 1812   2.882   4.787   0.226
  616TIP3    H2 1813   2.825   4.884   0.328
  617TIP3   OH2 1814   4.713   1.943   2.438
  617TIP3    H1 1815   4.635   1.953   2.383
  617TIP3    H2 1816   4.774   1.891   2.385
  618TIP3   OH2 1817   3.642   2.472   2.224
  618TIP3    H1 1818   3.635   2.447   2.316
  618TIP3    H2 1819   3.680   2.395   2.181
  619TIP3   OH2 1820   3.748   3.389   2.369
  619TIP3    H1 1821   3.792   3.419   2.290
  619TIP3    H2 1822   3.784   3.443   2.439
  620TIP3   OH2 1823   5.571   2.327   5.799
  620TIP3    H1 1824   5.530   2.262   5.742
  620TIP3    H2 1825   5.509   2.338   5.871
  621TIP3   OH2 1826   5.057   1.901   2.130
  621TIP3    H1 1827   5.130   1.915   2.069
  621TIP3    H2 1828   4.980   1.932   2.082
  622TIP3   OH2 1829   1.694   6.528   5.207
  622TIP3    H1 1830   1.650   6.520   5.292
  622TIP3    H2 1831   1.782   6.493   5.223
  623TIP3   OH2 1832   4.195   6.393   2.500
  623TIP3    H1 1833   4.237   6.398   2.414
  623TIP3    H2 1834   4.126   6.327   2.490
  624TIP3   OH2 1835   2.316   6.337   5.674
  624TIP3    H1 1836   2.338   6.349   5.766
  624TIP3    H2 1837   2.378   6.270   5.644
  625TIP3   OH2 1838   0.038   2.541   4.134
  625TIP3    H1 1839   0.042   2.620   4.080
  625TIP3    H2 1840  -0.014   2.479   4.081
  626TIP3   OH2 1841   2.612   1.253   4.622
  626TIP3    H1 1842   2.669   1.181   4.649
  626TIP3    H2 1843   2.591   1.234   4.531
  627TIP3   OH2 1844   2.609   5.623   5.854
  627TIP3    H1 1845   2.666   5.547   5.869
  627TIP3    H2 1846   2.575   5.611   5.766
  628TIP3   OH2 1847   6.872   0.301   1.808
  628TIP3    H1 1848   6.917   0.371   1.855
  628TIP3    H2 1849   6.942   0.239   1.786
  629TIP3   OH2 1850   2.917   6.773   3.194
  629TIP3    H1 1851   2.982   6.818   3.141
  629TIP3    H2 1852   2.835   6.784   3.146
  630TIP3   OH2 1853   3.146   2.350   4.715
  630TIP3    H1 1854   3.180   2.426   4.669
  630TIP3    H2 1855   3.204   2.340   4.791
  631TIP3   OH2 1856   1.783   2.251   3.985
  631TIP3    H1 1857   1.855   2.233   3.924
  631TIP3    H2 1858   1.825   2.256   4.071
  632TIP3   OH2 1859   3.128   2.536   0.552
  632TIP3    H1 1860   3.076   2.607   0.515
  632TIP3    H2 1861   3.212   2.576   0.574
  633TIP3   OH2 1862   4.937   4.522   4.961
  633TIP3    H1 1863   4.908   4.606   4.997
  633TIP3    H2 1864   4.956   4.541   4.869
  634TIP3   OH2 1865   6.270   4.010   2.824
  634TIP3    H1 1866   6.333   4.002   2.896
  634TIP3    H2 1867   6.214   4.083   2.849
  635TIP3   OH2 1868   2.671   3.948   5.712
  635TIP3    H1 1869   2.613   4.013   5.673
  635TIP3    H2 1870   2.739   3.934   5.646
  636TIP3   OH2 1871   5.607   1.382   4.223
  636TIP3    H1 1872   5.650   1.308   4.179
  636TIP3    H2 1873   5.542   1.341   4.279
  637TIP3   OH2 1874   6.539   3.888   0.308
  637TIP3    H1 1875   6.570   3.801   0.281
  637TIP3    H2 1876   6.601   3.949   0.269
  638TIP3   OH2 1877   1.719   6.178   3.544
  638TIP3    H1 1878   1.740   6.143   3.457
  638TIP3    H2 1879   1.632   6.142   3.563
  639TIP3   OH2 1880   6.142   0.979   3.242
  639TIP3    H1 1881   6.170   1.051   3.299
  639TIP3    H2 1882   6.169   1.006   3.154
  640TIP3   OH2 1883   0.754   3.503   0.048
  640TIP3    H1 1884   0.676   3.537   0.004
  640TIP3    H2 1885   0.726   3.487   0.138
  641TIP3   OH2 1886   6.927   1.944   2.082
  641TIP3    H1 1887   6.964   1.862   2.049
  641TIP3    H2 1888   6.882   1.982   2.006
  642TIP3   OH2 1889   0.324   6.294   2.225
  642TIP3    H1 1890   0.245   6.309   2.277
  642TIP3    H2 1891   0.362   6.381   2.213
  643TIP3   OH2 1892   1.747   4.301   5.430
  643TIP3    H1 1893   1.769   4.369   5.494
  643TIP3    H2 1894   1.815   4.234   5.442
  644TIP3   OH2 1895   5.391   0.799   2.439
  644TIP3    H1 1896   5.426   0.776   2.352
  644TIP3    H2 1897   5.451   0.756   2.500
  645TIP3   OH2 1898   5.747   2.793   4.158
  645TIP3    H1 1899   5.800   2.791   4.078
  645TIP3    H2 1900   5.806   2.829   4.225
  646TIP3   OH2 1901   1.009   2.382   0.749
  646TIP3    H1 1902   0.978   2.295   0.723
  646TIP3    H2 1903   1.064   2.366   0.826
  647TIP3   OH2 1904   0.332   4.677   2.217
  647TIP3    H1 1905   0.388   4.705   2.290
  647TIP3    H2 1906   0.384   4.610   2.172
  648TIP3   OH2 1907   6.168   6.042   2.237
  648TIP3    H1 1908   6.124   6.089   2.166
  648TIP3    H2 1909   6.158   5.949   2.215
  649TIP3   OH2 1910   6.718   5.991   1.285
  649TIP3    H1 1911   6.757   6.063   1.334
  649TIP3    H2 1912   6.793   5.942   1.250
  650TIP3   OH2 1913   0.880   4.630   1.693
  650TIP3    H1 1914   0.786   4.626   1.679
  650TIP3    H2 1915   0.914   4.676   1.616
  651TIP3   OH2 1916   1.962   0.447   2.688
  651TIP3    H1 1917   2.056   0.434   2.675
  651TIP3    H2 1918   1.955   0.486   2.776
  652TIP3   OH2 1919   4.282   1.599   3.415
  652TIP3    H1 1920   4.230   1.571   3.491
  652TIP3    H2 1921   4.366   1.626   3.452
  653TIP3   OH2 1922   4.064   3.572   2.728
  653TIP3    H1 1923   4.125   3.556   2.657
  653TIP3    H2 1924   4.099   3.648   2.774
  654TIP3   OH2 1925   3.759   2.796   3.190
  654TIP3    H1 1926   3.839   2.747   3.170
  654TIP3    H2 1927   3.697   2.730   3.221
  655TIP3   OH2 1928   5.495   1.801   1.075
  655TIP3    H1 1929   5.413   1.802   1.125
  655TIP3    H2 1930   5.543   1.878   1.106
  656TIP3   OH2 1931   7.194   6.293   3.464
  656TIP3    H1 1932   7.251   6.218   3.480
  656TIP3    H2 1933   7.122   6.284   3.527
  657TIP3   OH2 1934   1.521   5.753   0.254
  657TIP3    H1 1935   1.570   5.822   0.297
  657TIP3    H2 1936   1.522   5.680   0.316
  658TIP3   OH2 1937   5.622   6.331   2.390
  658TIP3    H1 1938   5.656   6.347   2.302
  658TIP3    H2 1939   5.540   6.380   2.392
  659TIP3   OH2 1940   3.183   0.738   5.375
  659TIP3    H1 1941   3.201   0.649   5.406
  659TIP3    H2 1942   3.089   0.741   5.361
  660TIP3   OH2 1943   4.744   5.316   5.875
  660TIP3    H1 1944   4.751   5.287   5.966
  660TIP3    H2 1945   4.655   5.292   5.848
  661TIP3   OH2 1946   1.163   2.659   3.971
  661TIP3    H1 1947   1.210   2.626   4.047
  661TIP3    H2 1948   1.231   2.690   3.911
  662TIP3   OH2 1949   2.849   6.746   1.854
  662TIP3    H1 1950   2.899   6.759   1.773
  662TIP3    H2 1951   2.823   6.835   1.880
  663TIP3   OH2 1952   0.944   2.838   4.117
  663TIP3    H1 1953   0.868   2.814   4.065
  663TIP3    H2 1954   1.019   2.810   4.065
  664TIP3   OH2 1955   1.917   3.075   5.066
  664TIP3    H1 1956   1.967   3.041   4.992
  664TIP3    H2 1957   1.911   3.001   5.127
  665TIP3   OH2 1958   2.693   3.992   0.159
  665TIP3    H1 1959   2.766   4.014   0.100
  665TIP3    H2 1960   2.680   4.072   0.210
  666TIP3   OH2 1961   4.070   0.952   3.423
  666TIP3    H1 1962   4.144   1.011   3.437
  666TIP3    H2 1963   4.022   0.955   3.506
  667TIP3   OH2 1964   6.886   6.553   0.031
  667TIP3    H1 1965   6.937   6.619   0.078
  667TIP3    H2 1966   6.796   6.584   0.037
  668TIP3   OH2 1967   3.790   5.730   5.268
  668TIP3    H1 1968   3.720   5.738   5.332
  668TIP3    H2 1969   3.754   5.673   5.200
  669TIP3   OH2 1970   6.780   2.891   2.799
  669TIP3    H1 1971   6.782   2.859   2.709
  669TIP3    H2 1972   6.870   2.878   2.830
  670TIP3   OH2 1973   2.573   0.651   5.491
  670TIP3    H1 1974   2.631   0.575   5.493
  670TIP3    H2 1975   2.486   0.616   5.508
  671TIP3   OH2 1976   4.971   2.258   4.935
  671TIP3    H1 1977   4.891   2.273   4.984
  671TIP3    H2 1978   5.009   2.179   4.974
  672TIP3   OH2 1979   0.072   3.458   3.822
  672TIP3    H1 1980   0.056   3.422   3.735
  672TIP3    H2 1981   0.051   3.551   3.814
  673TIP3   OH2 1982   4.541   4.103   5.828
  673TIP3    H1 1983   4.564   4.073   5.740
  673TIP3    H2 1984   4.478   4.038   5.860
  674TIP3   OH2 1985   1.782   6.540   0.293
  674TIP3    H1 1986   1.758   6.538   0.200
  674TIP3    H2 1987   1.714   6.593   0.335
  675TIP3   OH2 1988   6.678   1.474   0.695
  675TIP3    H1 1989   6.710   1.541   0.756
  675TIP3    H2 1990   6.757   1.440   0.653
  676TIP3   OH2 1991   6.967   5.956   5.231
  676TIP3    H1 1992   6.924   5.991   5.153
  676TIP3    H2 1993   6.937   5.865   5.236
  677TIP3   OH2 1994   6.695   1.161   0.556
  677TIP3    H1 1995   6.696   1.067   0.538
  677TIP3    H2 1996   6.730   1.200   0.476
  678TIP3   OH2 1997   2.071   3.222   0.210
  678TIP3    H1 1998   2.029   3.256   0.289
  678TIP3    H2 1999   2.162   3.251   0.217
  679TIP3   OH2 2000   4.794   1.316   1.451
  679TIP3    H1 2001   4.865   1.316   1.387
  679TIP3    H2 2002   4.715   1.298   1.400
  680TIP3   OH2 2003   0.345   4.321   5.712
  680TIP3    H1 2004   0.397   4.292   5.637
  680TIP3    H2 2005   0.394   4.395   5.748
  681TIP3   OH2 2006   7.073   5.347   1.335
  681TIP3    H1 2007   7.020   5.427   1.331
  681TIP3    H2 2008   7.011   5.277   1.318
  682TIP3   OH2 2009   2.025   0.829   2.763
  682TIP3    H1 2010   2.057   0.915   2.793
  682TIP3    H2 2011   1.942   0.818   2.808
  683TIP3   OH2 2012   5.686   3.701   3.000
  683TIP3    H1 2013   5.676   3.623   2.946
  683TIP3    H2 2014   5.773   3.735   2.977
  684TIP3   OH2 2015   5.383   2.683   5.074
  684TIP3    H1 2016   5.371   2.612   5.011
  684TIP3    H2 2017   5.435   2.748   5.027
  685TIP3   OH2 2018   1.122   6.035   2.505
  685TIP3    H1 2019   1.034   6.014   2.471
  685TIP3    H2 2020   1.106   6.063   2.595
  686TIP3   OH2 2021   1.687   2.876   0.769
  686TIP3    H1 2022   1.648   2.788   0.765
  686TIP3    H2 2023   1.646   2.924   0.697
  687TIP3   OH2 2024   2.111   0.190   2.911
  687TIP3    H1 2025   2.154   0.272   2.937
  687TIP3    H2 2026   2.047   0.174   2.980
  688TIP3   OH2 2027   6.562   5.792   1.134
  688TIP3    H1 2028   6.477   5.832   1.150
  688TIP3    H2 2029   6.623   5.844   1.186
  689TIP3   OH2 2030   0.627   0.139   3.208
  689TIP3    H1 2031   0.650   0.190   3.131
  689TIP3    H2 2032   0.553   0.085   3.180
  690TIP3   OH2 2033   2.860   5.057   5.255
  690TIP3    H1 2034   2.854   5.029   5.164
  690TIP3    H2 2035   2.937   5.011   5.289
  691TIP3   OH2 2036   4.078   1.413   2.288
  691TIP3    H1 2037   4.075   1.375   2.200
  691TIP3    H2 2038   4.151   1.474   2.285
  692TIP3   OH2 2039   2.929   2.830   3.880
  692TIP3    H1 2040   2.972   2.866   3.803
  692TIP3    H2 2041   2.856   2.890   3.898
  693TIP3   OH2 2042   0.519   6.005   2.863
  693TIP3    H1 2043   0.592   5.991   2.923
  693TIP3    H2 2044   0.558   6.049   2.788
  694TIP3   OH2 2045   4.603   3.538   3.991
  694TIP3    H1 2046   4.557   3.482   4.054
  694TIP3    H2 2047   4.688   3.496   3.980
  695TIP3   OH2 2048   6.525   0.755   1.086
  695TIP3    H1 2049   6.449   0.813   1.079
  695TIP3    H2 2050   6.596   0.802   1.041
  696TIP3   OH2 2051   3.563   4.641   4.972
  696TIP3    H1 2052   3.594   4.730   4.988
  696TIP3    H2 2053   3.641   4.586   4.986
  697TIP3   OH2 2054   5.526   4.470   0.324
  697TIP3    H1 2055   5.578   4.390   0.326
  697TIP3    H2 2056   5.577   4.532   0.272
  698TIP3   OH2 2057   3.806   2.600   4.977
  698TIP3    H1 2058   3.874   2.553   4.929
  698TIP3    H2 2059   3.850   2.630   5.057
  699TIP3   OH2 2060   4.817   0.909   1.568
  699TIP3    H1 2061   4.725   0.884   1.574
  699TIP3    H2 2062   4.820   0.998   1.602
  700TIP3   OH2 2063   6.622   0.046   1.200
  700TIP3    H1 2064   6.680   0.107   1.246
  700TIP3    H2 2065   6.631  -0.036   1.248
  701TIP3   OH2 2066   3.311   1.004   3.976
  701TIP3    H1 2067   3.307   1.093   4.011
  701TIP3    H2 2068   3.387   1.004   3.919
  702TIP3   OH2 2069   4.747   3.880   5.222
  702TIP3    H1 2070   4.755   3.960   5.274
  702TIP3    H2 2071   4.833   3.870   5.181
  703TIP3   OH2 2072   2.493   5.379   4.033
  703TIP3    H1 2073   2.581   5.365   4.068
  703TIP3    H2 2074   2.470   5.468   4.060
  704TIP3   OH2 2075   4.985   3.947   0.306
  704TIP3    H1 2076   5.027   3.998   0.375
  704TIP3    H2 2077   5.033   3.971   0.226
  705TIP3   OH2 2078   6.094   6.471   5.454
  705TIP3    H1 2079   6.140   6.430   5.380
  705TIP3    H2 2080   6.158   6.533   5.490
  706TIP3   OH2 2081   3.345   3.230   5.635
  706TIP3    H1 2082   3.266   3.283   5.628
  706TIP3    H2 2083   3.406   3.284   5.686
  707TIP3   OH2 2084   3.629   6.188   1.504
  707TIP3    H1 2085   3.553   6.245   1.508
  707TIP3    H2 2086   3.592   6.099   1.507
  708TIP3   OH2 2087   6.504   0.694   3.791
  708TIP3    H1 2088   6.502   0.662   3.701
  708TIP3    H2 2089   6.423   0.663   3.831
  709TIP3   OH2 2090   5.895   5.261   4.782
  709TIP3    H1 2091   5.903   5.347   4.825
  709TIP3    H2 2092   5.978   5.217   4.800
  710TIP3   OH2 2093   5.217   4.875   4.181
  710TIP3    H1 2094   5.129   4.871   4.142
  710TIP3    H2 2095   5.259   4.949   4.137
  711TIP3   OH2 2096   6.906   2.173   1.143
  711TIP3    H1 2097   6.820   2.135   1.124
  711TIP3    H2 2098   6.964   2.098   1.153
  712TIP3   OH2 2099   3.145   5.282   3.789
  712TIP3    H1 2100   3.059   5.323   3.781
  712TIP3    H2 2101   3.192   5.307   3.710
  713TIP3   OH2 2102   1.491   4.957   1.309
  713TIP3    H1 2103   1.576   4.924   1.339
  713TIP3    H2 2104   1.440   4.878   1.288
  714TIP3   OH2 2105   2.860   4.451   5.029
  714TIP3    H1 2106   2.903   4.461   4.944
  714TIP3    H2 2107   2.917   4.392   5.078
  715TIP3   OH2 2108   6.895   4.340   4.645
  715TIP3    H1 2109   6.821   4.353   4.705
  715TIP3    H2 2110   6.881   4.254   4.607
  716TIP3   OH2 2111   7.035   5.257   4.264
  716TIP3    H1 2112   7.066   5.184   4.210
  716TIP3    H2 2113   7.058   5.232   4.354
  717TIP3   OH2 2114   2.161   6.378   5.443
  717TIP3    H1 2115   2.202   6.384   5.529
  717TIP3    H2 2116   2.202   6.302   5.402
  718TIP3   OH2 2117   0.751   5.584   4.260
  718TIP3    H1 2118   0.807   5.507   4.267
  718TIP3    H2 2119   0.804   5.648   4.212
  719TIP3   OH2 2120   5.885   1.751   3.515
  719TIP3    H1 2121   5.902   1.839   3.483
  719TIP3    H2 2122   5.906   1.755   3.609
  720TIP3   OH2 2123   3.997   3.861   0.892
  720TIP3    H1 2124   4.068   3.922   0.873
  720TIP3    H2 2125   4.007   3.841   0.985
  721TIP3   OH2 2126   7.155   3.174   4.894
  721TIP3    H1 2127   7.130   3.164   4.802
  721TIP3    H2 2128   7.209   3.253   4.895
  722TIP3   OH2 2129   6.365   2.067   1.342
  722TIP3    H1 2130   6.459   2.083   1.349
  722TIP3    H2 2131   6.355   2.027   1.255
  723TIP3   OH2 2132   6.324   6.401   4.911
  723TIP3    H1 2133   6.386   6.418   4.982
  723TIP3    H2 2134   6.376   6.357   4.844
  724TIP3   OH2 2135   4.911   2.679   1.625
  724TIP3    H1 2136   4.914   2.656   1.532
  724TIP3    H2 2137   4.836   2.629   1.659
  725TIP3   OH2 2138   6.826   5.026   3.674
  725TIP3    H1 2139   6.771   5.085   3.622
  725TIP3    H2 2140   6.764   4.963   3.711
  726TIP3   OH2 2141   7.139   0.769   1.902
  726TIP3    H1 2142   7.227   0.765   1.865
  726TIP3    H2 2143   7.105   0.853   1.874
  727TIP3   OH2 2144   3.647   5.306   0.225
  727TIP3    H1 2145   3.640   5.396   0.194
  727TIP3    H2 2146   3.579   5.258   0.178
  728TIP3   OH2 2147   1.147   0.916   2.894
  728TIP3    H1 2148   1.093   0.871   2.828
  728TIP3    H2 2149   1.160   0.851   2.963
  729TIP3   OH2 2150   1.406   2.498   2.355
  729TIP3    H1 2151   1.355   2.575   2.378
  729TIP3    H2 2152   1.362   2.426   2.400
  730TIP3   OH2 2153   4.572   2.973   1.893
  730TIP3    H1 2154   4.593   2.941   1.806
  730TIP3    H2 2155   4.518   3.050   1.879
  731TIP3   OH2 2156   4.238   3.659   5.760
  731TIP3    H1 2157   4.237   3.664   5.665
  731TIP3    H2 2158   4.195   3.577   5.781
  732TIP3   OH2 2159   0.525   3.999   0.374
  732TIP3    H1 2160   0.563   3.913   0.391
  732TIP3    H2 2161   0.451   3.981   0.316
  733TIP3   OH2 2162   4.427   2.868   2.987
  733TIP3    H1 2163   4.480   2.922   2.929
  733TIP3    H2 2164   4.358   2.927   3.018
  734TIP3   OH2 2165   0.193   2.473   0.513
  734TIP3    H1 2166   0.225   2.404   0.455
  734TIP3    H2 2167   0.209   2.439   0.601
  735TIP3   OH2 2168   1.628   0.692   4.559
  735TIP3    H1 2169   1.682   0.615   4.575
  735TIP3    H2 2170   1.540   0.666   4.586
  736TIP3   OH2 2171   2.074   0.384   0.861
  736TIP3    H1 2172   2.109   0.302   0.828
  736TIP3    H2 2173   2.069   0.372   0.956
  737TIP3   OH2 2174   3.778   6.082   2.424
  737TIP3    H1 2175   3.861   6.126   2.404
  737TIP3    H2 2176   3.729   6.085   2.342
  738TIP3   OH2 2177   6.803   6.251   3.006
  738TIP3    H1 2178   6.764   6.313   3.067
  738TIP3    H2 2179   6.786   6.290   2.919
  739TIP3   OH2 2180   1.906   5.829   3.855
  739TIP3    H1 2181   1.876   5.910   3.895
  739TIP3    H2 2182   1.837   5.807   3.791
  740TIP3   OH2 2183   4.363   3.927   2.676
  740TIP3    H1 2184   4.326   3.889   2.596
  740TIP3    H2 2185   4.390   3.851   2.728
  741TIP3   OH2 2186   4.929   0.539   4.022
  741TIP3    H1 2187   4.994   0.515   3.957
  741TIP3    H2 2188   4.980   0.573   4.096
  742TIP3   OH2 2189   5.268   5.511   1.755
  742TIP3    H1 2190   5.246   5.479   1.668
  742TIP3    H2 2191   5.317   5.439   1.795
  743TIP3   OH2 2192   4.738   3.041   3.047
  743TIP3    H1 2193   4.665   3.065   3.103
  743TIP3    H2 2194   4.702   3.045   2.958
  744TIP3   OH2 2195   0.537   0.167   1.135
  744TIP3    H1 2196   0.575   0.216   1.061
  744TIP3    H2 2197   0.587   0.197   1.211
  745TIP3   OH2 2198   1.881   5.183   4.128
  745TIP3    H1 2199   1.962   5.224   4.096
  745TIP3    H2 2200   1.907   5.136   4.207
  746TIP3   OH2 2201   3.325   2.059   3.700
  746TIP3    H1 2202   3.361   2.134   3.654
  746TIP3    H2 2203   3.294   2.094   3.783
  747TIP3   OH2 2204   2.957   5.057   2.473
  747TIP3    H1 2205   2.910   5.096   2.399
  747TIP3    H2 2206   3.039   5.107   2.477
  748TIP3   OH2 2207   2.116   0.531   5.036
  748TIP3    H1 2208   2.150   0.445   5.012
  748TIP3    H2 2209   2.167   0.557   5.113
  749TIP3   OH2 2210   3.462   1.082   0.090
  749TIP3    H1 2211   3.442   1.109   0.000
  749TIP3    H2 2212   3.377   1.068   0.131
  750TIP3   OH2 2213   6.037   6.655   2.462
  750TIP3    H1 2214   6.050   6.738   2.507
  750TIP3    H2 2215   6.084   6.591   2.515
  751TIP3   OH2 2216   5.543   0.905   1.557
  751TIP3    H1 2217   5.453   0.890   1.583
  751TIP3    H2 2218   5.558   0.998   1.575
  752TIP3   OH2 2219   1.768   2.276   2.825
  752TIP3    H1 2220   1.797   2.259   2.914
  752TIP3    H2 2221   1.819   2.352   2.798
  753TIP3   OH2 2222   1.807   6.076   5.435
  753TIP3    H1 2223   1.865   6.081   5.359
  753TIP3    H2 2224   1.825   6.157   5.484
  754TIP3   OH2 2225   2.835   1.491   5.572
  754TIP3    H1 2226   2.848   1.397   5.562
  754TIP3    H2 2227   2.919   1.524   5.602
  755TIP3   OH2 2228   0.343   1.512   1.895
  755TIP3    H1 2229   0.260   1.476   1.864
  755TIP3    H2 2230   0.319   1.565   1.972
  756TIP3   OH2 2231   2.044   6.581   5.124
  756TIP3    H1 2232   1.980   6.644   5.092
  756TIP3    H2 2233   2.094   6.555   5.047
  757TIP3   OH2 2234   5.440   4.331   1.784
  757TIP3    H1 2235   5.496   4.321   1.861
  757TIP3    H2 2236   5.500   4.322   1.710
  758TIP3   OH2 2237   2.805   2.081   5.246
  758TIP3    H1 2238   2.887   2.034   5.232
  758TIP3    H2 2239   2.789   2.126   5.163
  759TIP3   OH2 2240   5.941   2.670   2.409
  759TIP3    H1 2241   5.999   2.594   2.414
  759TIP3    H2 2242   5.983   2.735   2.465
  760TIP3   OH2 2243   4.516   5.274   5.703
  760TIP3    H1 2244   4.438   5.257   5.650
  760TIP3    H2 2245   4.579   5.208   5.676
  761TIP3   OH2 2246   2.364   1.328   4.066
  761TIP3    H1 2247   2.388   1.239   4.090
  761TIP3    H2 2248   2.348   1.372   4.149
  762TIP3   OH2 2249   4.692   3.507   0.352
  762TIP3    H1 2250   4.652   3.430   0.392
  762TIP3    H2 2251   4.661   3.581   0.404
  763TIP3   OH2 2252   2.053   2.975   5.312
  763TIP3    H1 2253   2.093   3.055   5.278
  763TIP3    H2 2254   2.104   2.904   5.272
  764TIP3   OH2 2255   4.368   3.992   1.585
  764TIP3    H1 2256   4.373   4.015   1.678
  764TIP3    H2 2257   4.459   3.993   1.555
  765TIP3   OH2 2258   4.423   6.021   4.035
  765TIP3    H1 2259   4.376   6.104   4.049
  765TIP3    H2 2260   4.451   5.994   4.122
  766TIP3   OH2 2261   2.601   3.832   5.097
  766TIP3    H1 2262   2.554   3.911   5.120
  766TIP3    H2 2263   2.537   3.779   5.048
  767TIP3   OH2 2264   1.195   4.333   4.846
  767TIP3    H1 2265   1.284   4.298   4.853
  767TIP3    H2 2266   1.207   4.428   4.839
  768TIP3   OH2 2267   6.894   6.809   1.284
  768TIP3    H1 2268   6.887   6.743   1.215
  768TIP3    H2 2269   6.968   6.781   1.337
  769TIP3   OH2 2270   0.758   4.664   0.646
  769TIP3    H1 2271   0.720   4.618   0.572
  769TIP3    H2 2272   0.702   4.741   0.658
  770TIP3   OH2 2273   6.874   1.403   0.063
  770TIP3    H1 2274   6.939   1.469   0.085
  770TIP3    H2 2275   6.880   1.338   0.134
  771TIP3   OH2 2276   6.520   6.434   5.166
  771TIP3    H1 2277   6.532   6.377   5.090
  771TIP3    H2 2278   6.608   6.455   5.195
  772TIP3   OH2 2279   0.367   3.698   0.260
  772TIP3    H1 2280   0.463   3.696   0.255
  772TIP3    H2 2281   0.344   3.791   0.259
  773TIP3   OH2 2282   0.511   4.886   3.102
  773TIP3    H1 2283   0.479   4.807   3.060
  773TIP3    H2 2284   0.433   4.939   3.117
  774TIP3   OH2 2285   6.559   4.394   0.990
  774TIP3    H1 2286   6.577   4.442   1.071
  774TIP3    H2 2287   6.492   4.330   1.015
  775TIP3   OH2 2288   4.000   5.035   5.608
  775TIP3    H1 2289   3.951   5.079   5.678
  775TIP3    H2 2290   4.037   4.958   5.651
  776TIP3   OH2 2291   2.206   2.899   0.808
  776TIP3    H1 2292   2.216   2.930   0.898
  776TIP3    H2 2293   2.238   2.809   0.810
  777TIP3   OH2 2294   3.552   3.630   3.823
  777TIP3    H1 2295   3.539   3.651   3.915
  777TIP3    H2 2296   3.537   3.536   3.817
  778TIP3   OH2 2297   3.704   3.015   1.560
  778TIP3    H1 2298   3.609   3.019   1.575
  778TIP3    H2 2299   3.716   3.053   1.473
  779TIP3   OH2 2300   1.520   2.087   4.285
  779TIP3    H1 2301   1.450   2.094   4.350
  779TIP3    H2 2302   1.599   2.077   4.337
  780TIP3   OH2 2303   2.370   1.422   4.337
  780TIP3    H1 2304   2.282   1.446   4.308
  780TIP3    H2 2305   2.408   1.503   4.371
  781TIP3   OH2 2306   1.736   3.615   2.750
  781TIP3    H1 2307   1.675   3.682   2.719
  781TIP3    H2 2308   1.820   3.661   2.759
  782TIP3   OH2 2309   3.798   3.446   5.031
  782TIP3    H1 2310   3.845   3.431   4.948
  782TIP3    H2 2311   3.725   3.503   5.007
  783TIP3   OH2 2312   4.028   2.329   0.897
  783TIP3    H1 2313   4.105   2.384   0.888
  783TIP3    H2 2314   3.958   2.389   0.923
  784TIP3   OH2 2315   0.689   0.126   2.459
  784TIP3    H1 2316   0.726   0.202   2.415
  784TIP3    H2 2317   0.596   0.127   2.435
  785TIP3   OH2 2318   2.879   5.473   5.166
  785TIP3    H1 2319   2.899   5.566   5.180
  785TIP3    H2 2320   2.809   5.474   5.101
  786TIP3   OH2 2321   5.038   0.157   3.470
  786TIP3    H1 2322   5.105   0.183   3.406
  786TIP3    H2 2323   4.997   0.080   3.432
  787TIP3   OH2 2324   0.179   4.850   3.119
  787TIP3    H1 2325   0.191   4.927   3.175
  787TIP3    H2 2326   0.113   4.798   3.165
  788TIP3   OH2 2327   6.257   1.263   5.393
  788TIP3    H1 2328   6.244   1.317   5.315
  788TIP3    H2 2329   6.351   1.243   5.393
  789TIP3   OH2 2330   5.154   4.229   4.757
  789TIP3    H1 2331   5.189   4.140   4.750
  789TIP3    H2 2332   5.224   4.285   4.725
  790TIP3   OH2 2333   0.413   6.460   4.220
  790TIP3    H1 2334   0.386   6.434   4.132
  790TIP3    H2 2335   0.508   6.448   4.220
  791TIP3   OH2 2336   2.724   5.421   0.322
  791TIP3    H1 2337   2.639   5.377   0.320
  791TIP3    H2 2338   2.786   5.352   0.346
  792TIP3   OH2 2339   0.987   5.771   5.299
  792TIP3    H1 2340   0.895   5.761   5.323
  792TIP3    H2 2341   0.999   5.713   5.224
  793TIP3   OH2 2342   6.977   2.551   5.005
  793TIP3    H1 2343   6.903   2.528   4.948
  793TIP3    H2 2344   6.966   2.494   5.081
  794TIP3   OH2 2345   1.341   4.801   3.862
  794TIP3    H1 2346   1.369   4.878   3.913
  794TIP3    H2 2347   1.369   4.821   3.773
  795TIP3   OH2 2348   7.091   5.621   5.180
  795TIP3    H1 2349   7.013   5.654   5.226
  795TIP3    H2 2350   7.056   5.574   5.105
  796TIP3   OH2 2351   6.365   6.337   5.512
  796TIP3    H1 2352   6.457   6.312   5.516
  796TIP3    H2 2353   6.337   6.312   5.424
  797TIP3   OH2 2354   1.979   5.221   2.663
  797TIP3    H1 2355   1.955   5.142   2.712
  797TIP3    H2 2356   1.900   5.243   2.613
  798TIP3   OH2 2357   0.134   4.511   1.603
  798TIP3    H1 2358   0.056   4.499   1.656
  798TIP3    H2 2359   0.207   4.494   1.663
  799TIP3   OH2 2360   6.745   5.291   4.434
  799TIP3    H1 2361   6.677   5.338   4.386
  799TIP3    H2 2362   6.699   5.247   4.505
  800TIP3   OH2 2363   0.839   0.196   1.996
  800TIP3    H1 2364   0.853   0.291   2.001
  800TIP3    H2 2365   0.912   0.159   2.046
  801TIP3   OH2 2366   6.878   6.803   0.414
  801TIP3    H1 2367   6.919   6.876   0.462
  801TIP3    H2 2368   6.868   6.835   0.325
  802TIP3   OH2 2369   3.376   2.824   1.024
  802TIP3    H1 2370   3.359   2.790   0.936
  802TIP3    H2 2371   3.466   2.857   1.020
  803TIP3   OH2 2372   2.723   5.542   5.464
  803TIP3    H1 2373   2.731   5.493   5.546
  803TIP3    H2 2374   2.784   5.615   5.473
  804TIP3   OH2 2375   6.106   5.441   4.290
  804TIP3    H1 2376   6.102   5.437   4.386
  804TIP3    H2 2377   6.199   5.432   4.270
  805TIP3   OH2 2378   5.861   4.923   3.128
  805TIP3    H1 2379   5.884   4.842   3.174
  805TIP3    H2 2380   5.874   4.992   3.192
  806TIP3   OH2 2381   2.080   4.211   4.219
  806TIP3    H1 2382   2.062   4.285   4.161
  806TIP3    H2 2383   2.174   4.195   4.209
  807TIP3   OH2 2384   1.991   0.156   1.015
  807TIP3    H1 2385   1.997   0.112   0.930
  807TIP3    H2 2386   2.021   0.090   1.078
  808TIP3   OH2 2387   5.484   6.336   1.307
  808TIP3    H1 2388   5.457   6.309   1.395
  808TIP3    H2 2389   5.577   6.355   1.314
  809TIP3   OH2 2390   4.992   5.457   4.973
  809TIP3    H1 2391   5.050   5.472   5.048
  809TIP3    H2 2392   4.930   5.391   5.004
  810TIP3   OH2 2393   6.153   4.979   2.994
  810TIP3    H1 2394   6.145   4.965   3.088
  810TIP3    H2 2395   6.098   5.056   2.977
  811TIP3   OH2 2396   5.996   0.876   0.118
  811TIP3    H1 2397   5.972   0.903   0.207
  811TIP3    H2 2398   6.038   0.953   0.080
  812TIP3   OH2 2399   1.070   3.288   2.190
  812TIP3    H1 2400   1.094   3.237   2.267
  812TIP3    H2 2401   1.151   3.328   2.160
  813TIP3   OH2 2402   4.299   2.083   4.436
  813TIP3    H1 2403   4.288   2.125   4.521
  813TIP3    H2 2404   4.377   2.124   4.398
  814TIP3   OH2 2405   4.125   5.741   2.947
  814TIP3    H1 2406   4.213   5.713   2.924
  814TIP3    H2 2407   4.135   5.832   2.977
  815TIP3   OH2 2408   7.047   2.222   4.880
  815TIP3    H1 2409   6.999   2.161   4.825
  815TIP3    H2 2410   7.056   2.301   4.826
  816TIP3   OH2 2411   5.211   1.749   5.779
  816TIP3    H1 2412   5.274   1.678   5.766
  816TIP3    H2 2413   5.149   1.714   5.844
  817TIP3   OH2 2414   5.020   3.410   2.429
  817TIP3    H1 2415   5.066   3.426   2.511
  817TIP3    H2 2416   5.082   3.436   2.361
  818TIP3   OH2 2417   5.188   1.115   5.517
  818TIP3    H1 2418   5.209   1.167   5.594
  818TIP3    H2 2419   5.138   1.173   5.460
  819TIP3   OH2 2420   4.316   6.269   4.197
  819TIP3    H1 2421   4.388   6.253   4.258
  819TIP3    H2 2422   4.340   6.350   4.152
  820TIP3   OH2 2423   6.694   1.146   2.371
  820TIP3    H1 2424   6.781   1.115   2.347
  820TIP3    H2 2425   6.694   1.239   2.348
  821TIP3   OH2 2426   0.656   2.086   2.863
  821TIP3    H1 2427   0.752   2.089   2.866
  821TIP3    H2 2428   0.634   1.995   2.883
  822TIP3   OH2 2429   0.195   6.613   3.828
  822TIP3    H1 2430   0.251   6.598   3.905
  822TIP3    H2 2431   0.106   6.611   3.863
  823TIP3   OH2 2432   1.608   6.442   2.927
  823TIP3    H1 2433   1.573   6.510   2.869
  823TIP3    H2 2434   1.681   6.484   2.972
  824TIP3   OH2 2435   0.857   3.875   0.847
  824TIP3    H1 2436   0.810   3.805   0.803
  824TIP3    H2 2437   0.861   3.848   0.939
  825TIP3   OH2 2438   6.551   2.864   4.409
  825TIP3    H1 2439   6.548   2.785   4.463
  825TIP3    H2 2440   6.461   2.877   4.380
  826TIP3   OH2 2441   3.933   3.540   3.178
  826TIP3    H1 2442   3.880   3.462   3.193
  826TIP3    H2 2443   3.869   3.607   3.150
  827TIP3   OH2 2444   7.190   5.878   2.378
  827TIP3    H1 2445   7.272   5.851   2.337
  827TIP3    H2 2446   7.210   5.963   2.418
  828TIP3   OH2 2447   1.642   0.118   3.883
  828TIP3    H1 2448   1.688   0.063   3.819
  828TIP3    H2 2449   1.702   0.190   3.899
  829TIP3   OH2 2450   5.373   4.075   3.767
  829TIP3    H1 2451   5.300   4.057   3.708
  829TIP3    H2 2452   5.434   4.004   3.751
  830TIP3   OH2 2453   5.253   2.606   2.001
  830TIP3    H1 2454   5.343   2.612   1.968
  830TIP3    H2 2455   5.235   2.512   2.004
  831TIP3   OH2 2456   1.324   1.107   1.685
  831TIP3    H1 2457   1.295   1.066   1.767
  831TIP3    H2 2458   1.330   1.036   1.622
  832TIP3   OH2 2459   6.224   4.933   3.781
  832TIP3    H1 2460   6.266   4.963   3.862
  832TIP3    H2 2461   6.202   4.842   3.797
  833TIP3   OH2 2462   0.942   6.499   4.963
  833TIP3    H1 2463   0.889   6.512   5.042
  833TIP3    H2 2464   1.026   6.465   4.996
  834TIP3   OH2 2465   1.288   5.486   2.549
  834TIP3    H1 2466   1.230   5.555   2.520
  834TIP3    H2 2467   1.349   5.529   2.610
  835TIP3   OH2 2468   0.338   6.453   0.771
  835TIP3    H1 2469   0.386   6.476   0.692
  835TIP3    H2 2470   0.256   6.417   0.740
  836TIP3   OH2 2471   3.824   2.439   3.793
  836TIP3    H1 2472   3.894   2.461   3.732
  836TIP3    H2 2473   3.790   2.355   3.762
  837TIP3   OH2 2474   3.294   1.637   1.051
  837TIP3    H1 2475   3.235   1.638   1.126
  837TIP3    H2 2476   3.283   1.722   1.010
  838TIP3   OH2 2477   0.762   2.339   0.403
  838TIP3    H1 2478   0.712   2.296   0.335
  838TIP3    H2 2479   0.849   2.351   0.365
  839TIP3   OH2 2480   0.021   0.519   3.497
  839TIP3    H1 2481   0.007   0.502   3.404
  839TIP3    H2 2482  -0.055   0.570   3.524
  840TIP3   OH2 2483   0.300   6.177   0.083
  840TIP3    H1 2484   0.373   6.181   0.144
  840TIP3    H2 2485   0.280   6.269   0.064
  841TIP3   OH2 2486   5.249   2.874   3.580
  841TIP3    H1 2487   5.161   2.907   3.598
  841TIP3    H2 2488   5.250   2.859   3.486
  842TIP3   OH2 2489   3.211   4.002   0.818
  842TIP3    H1 2490   3.120   4.031   0.804
  842TIP3    H2 2491   3.229   4.022   0.909
  843TIP3   OH2 2492   2.675   1.606   4.023
  843TIP3    H1 2493   2.707   1.654   3.947
  843TIP3    H2 2494   2.690   1.666   4.097
  844TIP3   OH2 2495   2.847   1.453   4.951
  844TIP3    H1 2496   2.789   1.456   4.876
  844TIP3    H2 2497   2.854   1.360   4.973
  845TIP3   OH2 2498   5.394   3.604   0.173
  845TIP3    H1 2499   5.342   3.633   0.248
  845TIP3    H2 2500   5.339   3.538   0.130
  846TIP3   OH2 2501   2.835   0.696   2.632
  846TIP3    H1 2502   2.865   0.776   2.674
  846TIP3    H2 2503   2.794   0.646   2.703
  847TIP3   OH2 2504   1.557   4.747   5.198
  847TIP3    H1 2505   1.506   4.759   5.278
  847TIP3    H2 2506   1.647   4.764   5.224
  848TIP3   OH2 2507   2.695   5.453   2.799
  848TIP3    H1 2508   2.753   5.418   2.731
  848TIP3    H2 2509   2.667   5.376   2.848
  849TIP3   OH2 2510   6.297   4.310   4.998
  849TIP3    H1 2511   6.354   4.384   5.019
  849TIP3    H2 2512   6.239   4.343   4.929
  850TIP3   OH2 2513   6.967   3.569   2.320
  850TIP3    H1 2514   6.916   3.574   2.401
  850TIP3    H2 2515   7.010   3.484   2.324
  851TIP3   OH2 2516   0.010   4.010   1.772
  851TIP3    H1 2517   0.041   4.001   1.862
  851TIP3    H2 2518   0.070   4.073   1.732
  852TIP3   OH2 2519   6.522   5.970   4.959
  852TIP3    H1 2520   6.560   5.920   4.887
  852TIP3    H2 2521   6.428   5.952   4.954
  853TIP3   OH2 2522   5.945   5.830   0.647
  853TIP3    H1 2523   5.923   5.781   0.727
  853TIP3    H2 2524   6.038   5.850   0.658
  854TIP3   OH2 2525   2.749   4.667   1.907
  854TIP3    H1 2526   2.817   4.622   1.957
  854TIP3    H2 2527   2.775   4.657   1.816
  855TIP3   OH2 2528   4.536   2.367   4.219
  855TIP3    H1 2529   4.469   2.345   4.154
  855TIP3    H2 2530   4.580   2.444   4.183
  856TIP3   OH2 2531   6.451   0.246   2.435
  856TIP3    H1 2532   6.534   0.262   2.389
  856TIP3    H2 2533   6.405   0.329   2.431
  857TIP3   OH2 2534   0.994   5.708   5.586
  857TIP3    H1 2535   1.079   5.741   5.556
  857TIP3    H2 2536   0.938   5.713   5.509
  858TIP3   OH2 2537   7.233   4.330   0.090
  858TIP3    H1 2538   7.161   4.359   0.145
  858TIP3    H2 2539   7.229   4.234   0.093
  859TIP3   OH2 2540   2.170   5.925   2.688
  859TIP3    H1 2541   2.101   5.900   2.749
  859TIP3    H2 2542   2.221   5.845   2.675
  860TIP3   OH2 2543   1.546   6.235   4.363
  860TIP3    H1 2544   1.510   6.147   4.354
  860TIP3    H2 2545   1.580   6.256   4.276
  861TIP3   OH2 2546   2.839   2.807   2.072
  861TIP3    H1 2547   2.767   2.864   2.044
  861TIP3    H2 2548   2.796   2.723   2.092
  862TIP3   OH2 2549   0.391   5.838   3.319
  862TIP3    H1 2550   0.380   5.924   3.279
  862TIP3    H2 2551   0.464   5.799   3.272
  863TIP3   OH2 2552   2.080   5.780   4.883
  863TIP3    H1 2553   2.042   5.703   4.840
  863TIP3    H2 2554   2.171   5.756   4.900
  864TIP3   OH2 2555   1.906   1.480   2.556
  864TIP3    H1 2556   1.907   1.449   2.647
  864TIP3    H2 2557   1.923   1.574   2.563
  865TIP3   OH2 2558   1.557   6.205   0.324
  865TIP3    H1 2559   1.504   6.280   0.297
  865TIP3    H2 2560   1.561   6.149   0.247
  866TIP3   OH2 2561   6.593   4.937   1.738
  866TIP3    H1 2562   6.594   4.912   1.646
  866TIP3    H2 2563   6.500   4.946   1.760
  867TIP3   OH2 2564   1.521   2.887   3.982
  867TIP3    H1 2565   1.479   2.845   3.908
  867TIP3    H2 2566   1.606   2.845   3.990
  868TIP3   OH2 2567   2.276   4.239   3.372
  868TIP3    H1 2568   2.328   4.200   3.301
  868TIP3    H2 2569   2.288   4.180   3.446
  869TIP3   OH2 2570   0.308   0.412   2.249
  869TIP3    H1 2571   0.337   0.440   2.336
  869TIP3    H2 2572   0.338   0.481   2.190
  870TIP3   OH2 2573   5.228   0.160   2.238
  870TIP3    H1 2574   5.267   0.239   2.201
  870TIP3    H2 2575   5.136   0.164   2.213
  871TIP3   OH2 2576   3.811   2.164   0.358
  871TIP3    H1 2577   3.847   2.130   0.276
  871TIP3    H2 2578   3.758   2.093   0.393
  872TIP3   OH2 2579   3.548   5.295   2.246
  872TIP3    H1 2580   3.559   5.200   2.256
  872TIP3    H2 2581   3.622   5.333   2.293
  873TIP3   OH2 2582   3.553   5.331   5.165
  873TIP3    H1 2583   3.482   5.379   5.206
  873TIP3    H2 2584   3.601   5.291   5.238
  874TIP3   OH2 2585   6.143   6.212   4.472
  874TIP3    H1 2586   6.169   6.300   4.499
  874TIP3    H2 2587   6.202   6.192   4.399
  875TIP3   OH2 2588   2.945   5.428   2.998
  875TIP3    H1 2589   2.910   5.405   3.084
  875TIP3    H2 2590   2.925   5.521   2.987
  876TIP3   OH2 2591   3.669   0.691   4.103
  876TIP3    H1 2592   3.610   0.643   4.161
  876TIP3    H2 2593   3.621   0.700   4.021
  877TIP3   OH2 2594   6.173   1.833   1.519
  877TIP3    H1 2595   6.258   1.876   1.525
  877TIP3    H2 2596   6.192   1.745   1.488
  878TIP3   OH2 2597   6.901   6.292   1.656
  878TIP3    H1 2598   6.961   6.365   1.644
  878TIP3    H2 2599   6.844   6.320   1.729
  879TIP3   OH2 2600   4.542   6.371   4.690
  879TIP3    H1 2601   4.525   6.420   4.770
  879TIP3    H2 2602   4.456   6.346   4.658
  880TIP3   OH2 2603   4.162   0.162   2.897
  880TIP3    H1 2604   4.091   0.194   2.841
  880TIP3    H2 2605   4.150   0.210   2.979
  881TIP3   OH2 2606   0.734   0.191   2.724
  881TIP3    H1 2607   0.789   0.269   2.729
  881TIP3    H2 2608   0.711   0.182   2.632
  882TIP3   OH2 2609   1.867   6.720   2.391
  882TIP3    H1 2610   1.951   6.717   2.345
  882TIP3    H2 2611   1.881   6.785   2.461
  883TIP3   OH2 2612   6.499   4.498   5.041
  883TIP3    H1 2613   6.517   4.562   4.972
  883TIP3    H2 2614   6.585   4.460   5.061
  884TIP3   OH2 2615   4.713   3.784   2.735
  884TIP3    H1 2616   4.736   3.743   2.652
  884TIP3    H2 2617   4.667   3.716   2.784
  885TIP3   OH2 2618   5.973   0.702   1.956
  885TIP3    H1 2619   5.957   0.729   2.047
  885TIP3    H2 2620   5.886   0.695   1.917
  886TIP3   OH2 2621   0.734   0.832   0.734
  886TIP3    H1 2622   0.752   0.908   0.678
  886TIP3    H2 2623   0.790   0.763   0.700
  887TIP3   OH2 2624   0.543   1.486   4.142
  887TIP3    H1 2625   0.584   1.401   4.153
  887TIP3    H2 2626   0.452   1.473   4.170
  888TIP3   OH2 2627   6.789   2.497   4.429
  888TIP3    H1 2628   6.795   2.516   4.336
  888TIP3    H2 2629   6.780   2.583   4.470
  889TIP3   OH2 2630   4.552   4.221   5.436
  889TIP3    H1 2631   4.575   4.139   5.479
  889TIP3    H2 2632   4.464   4.242   5.469
  890TIP3   OH2 2633   0.782   3.575   4.998
  890TIP3    H1 2634   0.737   3.516   5.059
  890TIP3    H2 2635   0.765   3.537   4.912
  891TIP3   OH2 2636   1.596   1.693   3.042
  891TIP3    H1 2637   1.514   1.646   3.025
  891TIP3    H2 2638   1.612   1.680   3.135
  892TIP3   OH2 2639   2.217   0.368   2.668
  892TIP3    H1 2640   2.233   0.336   2.579
  892TIP3    H2 2641   2.294   0.340   2.718
  893TIP3   OH2 2642   0.911   2.590   3.961
  893TIP3    H1 2643   1.004   2.611   3.951
  893TIP3    H2 2644   0.902   2.567   4.053
  894TIP3   OH2 2645   0.296   0.938   3.590
  894TIP3    H1 2646   0.331   0.853   3.617
  894TIP3    H2 2647   0.228   0.958   3.654
  895TIP3   OH2 2648   5.609   4.856   4.856
  895TIP3    H1 2649   5.610   4.937   4.805
  895TIP3    H2 2650   5.517   4.829   4.857
  896TIP3   OH2 2651   7.105   2.653   4.458
  896TIP3    H1 2652   7.038   2.585   4.465
  896TIP3    H2 2653   7.186   2.605   4.440
  897TIP3   OH2 2654   2.282   4.927   3.007
  897TIP3    H1 2655   2.346   4.900   2.941
  897TIP3    H2 2656   2.223   4.852   3.015
  898TIP3   OH2 2657   3.864   2.524   1.774
  898TIP3    H1 2658   3.868   2.611   1.814
  898TIP3    H2 2659   3.946   2.482   1.800
  899TIP3   OH2 2660   5.163   1.295   1.451
  899TIP3    H1 2661   5.231   1.314   1.515
  899TIP3    H2 2662   5.153   1.377   1.402
  900TIP3   OH2 2663   1.049   5.040   3.804
  900TIP3    H1 2664   1.113   5.104   3.835
  900TIP3    H2 2665   1.064   4.963   3.860
  901TIP3   OH2 2666   6.042   0.553   0.595
  901TIP3    H1 2667   6.135   0.572   0.605
  901TIP3    H2 2668   6.038   0.491   0.522
  902TIP3   OH2 2669   6.074   2.173   0.846
  902TIP3    H1 2670   6.058   2.264   0.821
  902TIP3    H2 2671   6.129   2.179   0.924
  903TIP3   OH2 2672   6.720   5.713   4.515
  903TIP3    H1 2673   6.700   5.784   4.455
  903TIP3    H2 2674   6.808   5.684   4.490
  904TIP3   OH2 2675   5.058   0.593   4.787
  904TIP3    H1 2676   5.124   0.540   4.743
  904TIP3    H2 2677   5.107   0.666   4.825
  905TIP3   OH2 2678   3.373   4.441   0.701
  905TIP3    H1 2679   3.291   4.401   0.731
  905TIP3    H2 2680   3.396   4.392   0.622
  906TIP3   OH2 2681   6.916   0.287   2.920
  906TIP3    H1 2682   6.861   0.313   2.994
  906TIP3    H2 2683   6.924   0.367   2.867
  907TIP3   OH2 2684   3.465   2.623   1.487
  907TIP3    H1 2685   3.436   2.550   1.432
  907TIP3    H2 2686   3.389   2.681   1.493
  908TIP3   OH2 2687   5.754   2.798   5.635
  908TIP3    H1 2688   5.792   2.712   5.615
  908TIP3    H2 2689   5.765   2.848   5.554
  909TIP3   OH2 2690   5.076   4.299   4.228
  909TIP3    H1 2691   4.991   4.329   4.194
  909TIP3    H2 2692   5.056   4.258   4.312
  910TIP3   OH2 2693   2.502   6.752   3.377
  910TIP3    H1 2694   2.491   6.679   3.439
  910TIP3    H2 2695   2.413   6.784   3.363
  911TIP3   OH2 2696   2.027   1.941   0.153
  911TIP3    H1 2697   2.029   2.022   0.101
  911TIP3    H2 2698   1.951   1.952   0.210
  912TIP3   OH2 2699   2.096   0.388   1.511
  912TIP3    H1 2700   2.112   0.430   1.427
  912TIP3    H2 2701   2.032   0.320   1.493
  913TIP3   OH2 2702   0.443   0.056   2.785
  913TIP3    H1 2703   0.513   0.004   2.747
  913TIP3    H2 2704   0.456   0.143   2.748
  914TIP3   OH2 2705   0.377   2.531   2.247
  914TIP3    H1 2706   0.339   2.614   2.220
  914TIP3    H2 2707   0.471   2.541   2.232
  915TIP3   OH2 2708   0.067   1.255   4.605
  915TIP3    H1 2709   0.070   1.205   4.524
  915TIP3    H2 2710   0.145   1.228   4.653
  916TIP3   OH2 2711   1.145   3.303   4.278
  916TIP3    H1 2712   1.205   3.247   4.326
  916TIP3    H2 2713   1.187   3.318   4.193
  917TIP3   OH2 2714   5.209   4.732   3.511
  917TIP3    H1 2715   5.145   4.693   3.451
  917TIP3    H2 2716   5.179   4.822   3.523
  918TIP3   OH2 2717   1.814   6.121   0.751
  918TIP3    H1 2718   1.793   6.027   0.752
  918TIP3    H2 2719   1.768   6.155   0.675
  919TIP3   OH2 2720   0.639   1.143   5.267
  919TIP3    H1 2721   0.630   1.052   5.297
  919TIP3    H2 2722   0.691   1.186   5.335
  920TIP3   OH2 2723   5.359   6.515   3.840
  920TIP3    H1 2724   5.396   6.580   3.899
  920TIP3    H2 2725   5.270   6.500   3.872
  921TIP3   OH2 2726   5.690   3.446   3.264
  921TIP3    H1 2727   5.765   3.500   3.238
  921TIP3    H2 2728   5.690   3.374   3.202
  922TIP3   OH2 2729   4.319   3.383   4.515
  922TIP3    H1 2730   4.391   3.355   4.458
  922TIP3    H2 2731   4.241   3.376   4.460
  923TIP3   OH2 2732   4.466   4.328   1.253
  923TIP3    H1 2733   4.554   4.339   1.216
  923TIP3    H2 2734   4.453   4.233   1.255
  924TIP3   OH2 2735   5.527   3.827   1.124
  924TIP3    H1 2736   5.441   3.804   1.158
  924TIP3    H2 2737   5.589   3.788   1.186
  925TIP3   OH2 2738   0.865   2.120   4.598
  925TIP3    H1 2739   0.895   2.175   4.671
  925TIP3    H2 2740   0.877   2.031   4.629
  926TIP3   OH2 2741   0.844   0.235   3.341
  926TIP3    H1 2742   0.772   0.204   3.286
  926TIP3    H2 2743   0.844   0.330   3.328
  927TIP3   OH2 2744   2.189   5.022   4.305
  927TIP3    H1 2745   2.265   5.069   4.271
  927TIP3    H2 2746   2.173   4.953   4.242
  928TIP3   OH2 2747   0.163   3.835   3.319
  928TIP3    H1 2748   0.074   3.867   3.300
  928TIP3    H2 2749   0.221   3.892   3.268
  929TIP3   OH2 2750   7.056   6.530   5.399
  929TIP3    H1 2751   6.973   6.513   5.355
  929TIP3    H2 2752   7.046   6.618   5.437
  930TIP3   OH2 2753   5.503   6.252   1.621
  930TIP3    H1 2754   5.595   6.243   1.647
  930TIP3    H2 2755   5.457   6.269   1.704
  931TIP3   OH2 2756   6.367   0.560   0.751
  931TIP3    H1 2757   6.409   0.645   0.765
  931TIP3    H2 2758   6.302   0.554   0.821
  932TIP3   OH2 2759   5.390   3.166   0.853
  932TIP3    H1 2760   5.466   3.196   0.902
  932TIP3    H2 2761   5.410   3.186   0.762
  933TIP3   OH2 2762   3.399   5.069   1.210
  933TIP3    H1 2763   3.433   5.086   1.122
  933TIP3    H2 2764   3.336   4.998   1.198
  934TIP3   OH2 2765   2.530   3.551   0.191
  934TIP3    H1 2766   2.492   3.636   0.169
  934TIP3    H2 2767   2.567   3.519   0.109
  935TIP3   OH2 2768   3.527   3.147   5.433
  935TIP3    H1 2769   3.581   3.226   5.434
  935TIP3    H2 2770   3.486   3.146   5.519
  936TIP3   OH2 2771   7.125   2.670   1.328
  936TIP3    H1 2772   7.092   2.734   1.391
  936TIP3    H2 2773   7.070   2.593   1.340
  937TIP3   OH2 2774   2.010   3.368   3.937
  937TIP3    H1 2775   2.085   3.309   3.926
  937TIP3    H2 2776   2.023   3.406   4.024
  938TIP3   OH2 2777   3.429   4.365   4.918
  938TIP3    H1 2778   3.344   4.391   4.883
  938TIP3    H2 2779   3.475   4.447   4.935
  939TIP3   OH2 2780   6.303   3.724   5.852
  939TIP3    H1 2781   6.352   3.793   5.808
  939TIP3    H2 2782   6.262   3.767   5.927
  940TIP3   OH2 2783   4.451   3.965   4.736
  940TIP3    H1 2784   4.496   3.884   4.711
  940TIP3    H2 2785   4.475   4.027   4.667
  941TIP3   OH2 2786   3.892   0.912   0.334
  941TIP3    H1 2787   3.810   0.918   0.284
  941TIP3    H2 2788   3.938   0.993   0.314
  942TIP3   OH2 2789   6.839   5.224   5.768
  942TIP3    H1 2790   6.856   5.257   5.680
  942TIP3    H2 2791   6.807   5.135   5.755
  943TIP3   OH2 2792   0.796   3.113   4.712
  943TIP3    H1 2793   0.755   3.092   4.628
  943TIP3    H2 2794   0.886   3.079   4.704
  944TIP3   OH2 2795   1.293   3.719   4.813
  944TIP3    H1 2796   1.320   3.627   4.815
  944TIP3    H2 2797   1.295   3.746   4.905
  945TIP3   OH2 2798   5.073   4.549   3.364
  945TIP3    H1 2799   5.017   4.472   3.352
  945TIP3    H2 2800   5.049   4.607   3.292
  946TIP3   OH2 2801   2.797   4.414   3.501
  946TIP3    H1 2802   2.781   4.491   3.446
  946TIP3    H2 2803   2.888   4.390   3.483
  947TIP3   OH2 2804   1.323   1.160   0.869
  947TIP3    H1 2805   1.281   1.180   0.785
  947TIP3    H2 2806   1.377   1.237   0.887
  948TIP3   OH2 2807   6.942   1.986   4.791
  948TIP3    H1 2808   6.854   1.968   4.825
  948TIP3    H2 2809   6.991   1.906   4.809
  949TIP3   OH2 2810   0.119   6.529   3.200
  949TIP3    H1 2811   0.197   6.518   3.145
  949TIP3    H2 2812   0.108   6.624   3.207
  950TIP3   OH2 2813   1.948   1.964   1.569
  950TIP3    H1 2814   2.029   1.913   1.563
  950TIP3    H2 2815   1.973   2.051   1.537
  951TIP3   OH2 2816   1.422   2.713   3.529
  951TIP3    H1 2817   1.384   2.798   3.550
  951TIP3    H2 2818   1.416   2.706   3.434
  952TIP3   OH2 2819   0.250   5.449   1.661
  952TIP3    H1 2820   0.244   5.386   1.733
  952TIP3    H2 2821   0.170   5.501   1.668
  953TIP3   OH2 2822   2.019   2.014   1.008
  953TIP3    H1 2823   1.999   1.966   0.927
  953TIP3    H2 2824   2.029   2.105   0.980
  954TIP3   OH2 2825   3.546   2.748   0.366
  954TIP3    H1 2826   3.613   2.686   0.397
  954TIP3    H2 2827   3.535   2.727   0.274
  955TIP3   OH2 2828   6.034   5.876   0.097
  955TIP3    H1 2829   6.014   5.827   0.177
  955TIP3    H2 2830   6.087   5.950   0.127
  956TIP3   OH2 2831   6.382   1.218   2.490
  956TIP3    H1 2832   6.381   1.128   2.522
  956TIP3    H2 2833   6.360   1.271   2.566
  957TIP3   OH2 2834   5.089   1.055   4.596
  957TIP3    H1 2835   5.108   1.007   4.516
  957TIP3    H2 2836   5.161   1.118   4.604
  958TIP3   OH2 2837   1.702   6.113   5.092
  958TIP3    H1 2838   1.764   6.059   5.042
  958TIP3    H2 2839   1.755   6.152   5.162
  959TIP3   OH2 2840   7.132   3.823   5.368
  959TIP3    H1 2841   7.164   3.911   5.387
  959TIP3    H2 2842   7.065   3.806   5.434
  960TIP3   OH2 2843   3.370   3.620   1.453
  960TIP3    H1 2844   3.343   3.711   1.451
  960TIP3    H2 2845   3.386   3.602   1.546
  961TIP3   OH2 2846   3.003   5.086   1.850
  961TIP3    H1 2847   2.979   5.018   1.786
  961TIP3    H2 2848   3.051   5.150   1.798
  962TIP3   OH2 2849   0.493   0.487   1.123
  962TIP3    H1 2850   0.433   0.412   1.115
  962TIP3    H2 2851   0.513   0.511   1.033
  963TIP3   OH2 2852   2.027   6.325   1.493
  963TIP3    H1 2853   2.078   6.339   1.572
  963TIP3    H2 2854   2.054   6.238   1.463
  964TIP3   OH2 2855   0.106   5.742   1.500
  964TIP3    H1 2856   0.090   5.688   1.578
  964TIP3    H2 2857   0.054   5.821   1.515
  965TIP3   OH2 2858   4.609   4.653   4.430
  965TIP3    H1 2859   4.514   4.653   4.444
  965TIP3    H2 2860   4.643   4.713   4.497
  966TIP3   OH2 2861   3.023   0.770   1.867
  966TIP3    H1 2862   2.955   0.758   1.933
  966TIP3    H2 2863   2.993   0.843   1.814
  967TIP3   OH2 2864   4.311  -0.005   5.017
  967TIP3    H1 2865   4.335  -0.040   4.931
  967TIP3    H2 2866   4.326   0.089   5.010
  968TIP3   OH2 2867   6.607   0.432   0.112
  968TIP3    H1 2868   6.536   0.422   0.049
  968TIP3    H2 2869   6.572   0.394   0.193
  969TIP3   OH2 2870   0.237   6.222   2.565
  969TIP3    H1 2871   0.216   6.193   2.653
  969TIP3    H2 2872   0.164   6.192   2.511
  970TIP3   OH2 2873   6.365   2.446   5.059
  970TIP3    H1 2874   6.301   2.392   5.012
  970TIP3    H2 2875   6.327   2.460   5.145
  971TIP3   OH2 2876   0.064   1.866   3.855
  971TIP3    H1 2877   0.107   1.820   3.927
  971TIP3    H2 2878   0.086   1.815   3.777
  972TIP3   OH2 2879   1.667   1.438   2.789
  972TIP3    H1 2880   1.625   1.480   2.713
  972TIP3    H2 2881   1.599   1.437   2.856
  973TIP3   OH2 2882   5.826   5.924   3.403
  973TIP3    H1 2883   5.898   5.984   3.425
  973TIP3    H2 2884   5.815   5.934   3.308
  974TIP3   OH2 2885   3.456   6.397   1.436
  974TIP3    H1 2886   3.381   6.390   1.495
  974TIP3    H2 2887   3.417   6.404   1.349
  975TIP3   OH2 2888   1.775   3.810   0.989
  975TIP3    H1 2889   1.839   3.749   0.952
  975TIP3    H2 2890   1.826   3.884   1.021
  976TIP3   OH2 2891   6.794   3.558   4.592
  976TIP3    H1 2892   6.867   3.586   4.648
  976TIP3    H2 2893   6.821   3.472   4.559
  977TIP3   OH2 2894   4.497   5.120   1.964
  977TIP3    H1 2895   4.549   5.201   1.961
  977TIP3    H2 2896   4.540   5.066   2.030
  978TIP3   OH2 2897   4.419   4.898   0.862
  978TIP3    H1 2898   4.356   4.956   0.819
  978TIP3    H2 2899   4.366   4.830   0.904
  979TIP3   OH2 2900   3.726   6.590   2.352
  979TIP3    H1 2901   3.813   6.629   2.356
  979TIP3    H2 2902   3.673   6.643   2.411
  980TIP3   OH2 2903   5.164   0.853   5.410
  980TIP3    H1 2904   5.163   0.946   5.433
  980TIP3    H2 2905   5.254   0.835   5.385
  981TIP3   OH2 2906   2.953   5.753   3.647
  981TIP3    H1 2907   2.970   5.773   3.555
  981TIP3    H2 2908   2.857   5.756   3.655
  982TIP3   OH2 2909   6.722   0.584   4.429
  982TIP3    H1 2910   6.807   0.542   4.436
  982TIP3    H2 2911   6.704   0.587   4.335
  983TIP3   OH2 2912   1.451   5.441   1.147
  983TIP3    H1 2913   1.433   5.468   1.237
  983TIP3    H2 2914   1.518   5.373   1.154
  984TIP3   OH2 2915   3.555   1.789   2.583
  984TIP3    H1 2916   3.498   1.848   2.532
  984TIP3    H2 2917   3.514   1.785   2.669
  985TIP3   OH2 2918   0.373   0.324   4.834
  985TIP3    H1 2919   0.399   0.256   4.895
  985TIP3    H2 2920   0.455   0.358   4.799
  986TIP3   OH2 2921   2.867   6.354   2.159
  986TIP3    H1 2922   2.858   6.269   2.116
  986TIP3    H2 2923   2.918   6.407   2.097
  987TIP3   OH2 2924   2.729   1.747   3.776
  987TIP3    H1 2925   2.724   1.825   3.720
  987TIP3    H2 2926   2.814   1.756   3.821
  988TIP3   OH2 2927   0.093   3.592   4.232
  988TIP3    H1 2928   0.138   3.513   4.202
  988TIP3    H2 2929   0.062   3.634   4.152
  989TIP3   OH2 2930   5.971   2.478   0.949
  989TIP3    H1 2931   5.955   2.548   1.011
  989TIP3    H2 2932   5.923   2.504   0.870
  990TIP3   OH2 2933   0.883   2.625   0.191
  990TIP3    H1 2934   0.874   2.704   0.139
  990TIP3    H2 2935   0.840   2.557   0.139
  991TIP3   OH2 2936   2.545   5.704   2.534
  991TIP3    H1 2937   2.596   5.779   2.565
  991TIP3    H2 2938   2.611   5.640   2.507
  992TIP3   OH2 2939   2.075   3.310   0.928
  992TIP3    H1 2940   2.110   3.228   0.961
  992TIP3    H2 2941   2.148   3.371   0.932
  993TIP3   OH2 2942   4.174   5.714   4.296
  993TIP3    H1 2943   4.249   5.767   4.324
  993TIP3    H2 2944   4.154   5.745   4.207
  994TIP3   OH2 2945   0.740   5.528   2.625
  994TIP3    H1 2946   0.832   5.551   2.612
  994TIP3    H2 2947   0.733   5.505   2.717
  995TIP3   OH2 2948   4.613   0.389   1.668
  995TIP3    H1 2949   4.590   0.342   1.588
  995TIP3    H2 2950   4.530   0.397   1.716
  996TIP3   OH2 2951   1.564   3.895   2.136
  996TIP3    H1 2952   1.506   3.825   2.167
  996TIP3    H2 2953   1.636   3.849   2.092
  997TIP3   OH2 2954   4.945   2.015   5.539
  997TIP3    H1 2955   4.954   2.096   5.489
  997TIP3    H2 2956   4.995   2.031   5.619
  998TIP3   OH2 2957   4.507   1.044   0.325
  998TIP3    H1 2958   4.427   1.053   0.378
  998TIP3    H2 2959   4.526   0.950   0.329
  999TIP3   OH2 2960   6.482   1.126   1.290
  999TIP3    H1 2961   6.485   1.198   1.227
  999TIP3    H2 2962   6.437   1.163   1.366
 1000TIP3   OH2 2963   2.223   0.125   2.229
 1000TIP3    H1 2964   2.316   0.147   2.219
 1000TIP3    H2 2965   2.199   0.084   2.146
 1001TIP3   OH2 2966   5.432   4.857   5.757
 1001TIP3    H1 2967   5.512   4.898   5.725
 1001TIP3    H2 2968   5.374   4.856   5.682
 1002TIP3   OH2 2969   1.602   3.844   3.535
 1002TIP3    H1 2970   1.552   3.836   3.454
 1002TIP3    H2 2971   1.537   3.866   3.601
 1003TIP3   OH2 2972   4.833   4.145   5.341
 1003TIP3    H1 2973   4.875   4.205   5.403
 1003TIP3    H2 2974   4.787   4.202   5.280
 1004TIP3   OH2 2975   2.877   3.821   1.096
 1004TIP3    H1 2976   2.927   3.845   1.174
 1004TIP3    H2 2977   2.815   3.893   1.085
 1005TIP3   OH2 2978   5.145   0.658   3.719
 1005TIP3    H1 2979   5.188   0.623   3.641
 1005TIP3    H2 2980   5.138   0.583   3.778
 1006TIP3   OH2 2981   4.479   1.531   1.108
 1006TIP3    H1 2982   4.449   1.554   1.021
 1006TIP3    H2 2983   4.456   1.438   1.119
 1007TIP3   OH2 2984   3.028   2.645   4.262
 1007TIP3    H1 2985   2.950   2.638   4.207
 1007TIP3    H2 2986   3.039   2.738   4.277
 1008TIP3   OH2 2987   1.529   0.752   5.249
 1008TIP3    H1 2988   1.557   0.721   5.335
 1008TIP3    H2 2989   1.521   0.672   5.197
 1009TIP3   OH2 2990   2.639   4.905   1.875
 1009TIP3    H1 2991   2.571   4.891   1.808
 1009TIP3    H2 2992   2.695   4.828   1.869
 1010TIP3   OH2 2993   5.744   6.080   1.977
 1010TIP3    H1 2994   5.747   6.159   1.922
 1010TIP3    H2 2995   5.698   6.015   1.924
 1011TIP3   OH2 2996   0.377   3.013   3.270
 1011TIP3    H1 2997   0.413   2.995   3.357
 1011TIP3    H2 2998   0.429   3.087   3.237
 1012TIP3   OH2 2999   0.234   1.839   3.373
 1012TIP3    H1 3000   0.242   1.792   3.290
 1012TIP3    H2 3001   0.214   1.929   3.347
 1013TIP3   OH2 3002   0.460   2.541   0.713
 1013TIP3    H1 3003   0.531   2.531   0.776
 1013TIP3    H2 3004   0.424   2.453   0.704
 1014TIP3   OH2 3005   4.252   0.085   1.874
 1014TIP3    H1 3006   4.331   0.090   1.928
 1014TIP3    H2 3007   4.184   0.054   1.934
 1015TIP3   OH2 3008   0.388   1.741   0.329
 1015TIP3    H1 3009   0.448   1.790   0.384
 1015TIP3    H2 3010   0.343   1.681   0.389
 1016TIP3   OH2 3011   1.038   3.502   2.623
 1016TIP3    H1 3012   1.111   3.442   2.613
 1016TIP3    H2 3013   1.048   3.539   2.710
 1017TIP3   OH2 3014   4.649   0.076   3.330
 1017TIP3    H1 3015   4.582   0.145   3.327
 1017TIP3    H2 3016   4.662   0.060   3.424
 1018TIP3   OH2 3017   4.847   4.157   2.542
 1018TIP3    H1 3018   4.884   4.157   2.630
 1018TIP3    H2 3019   4.760   4.118   2.552
 1019TIP3   OH2 3020   6.424   6.664   2.365
 1019TIP3    H1 3021   6.388   6.715   2.293
 1019TIP3    H2 3022   6.472   6.729   2.418
 1020TIP3   OH2 3023   2.734   6.160   3.146
 1020TIP3    H1 3024   2.756   6.159   3.053
 1020TIP3    H2 3025   2.674   6.234   3.155
 1021TIP3   OH2 3026   1.953   4.517   2.312
 1021TIP3    H1 3027   1.983   4.532   2.222
 1021TIP3    H2 3028   2.032   4.495   2.360
 1022TIP3   OH2 3029   4.028   2.972   1.928
 1022TIP3    H1 3030   3.944   2.988   1.885
 1022TIP3    H2 3031   4.022   2.882   1.959
 1023TIP3   OH2 3032   1.382   3.492   0.687
 1023TIP3    H1 3033   1.451   3.474   0.751
 1023TIP3    H2 3034   1.385   3.587   0.676
 1024TIP3   OH2 3035   6.263   3.882   5.398
 1024TIP3    H1 3036   6.289   3.937   5.324
 1024TIP3    H2 3037   6.200   3.820   5.362
 1025TIP3   OH2 3038   5.092   0.270   4.097
 1025TIP3    H1 3039   5.001   0.286   4.123
 1025TIP3    H2 3040   5.143   0.335   4.145
 1026TIP3   OH2 3041   3.534   2.165   5.712
 1026TIP3    H1 3042   3.497   2.171   5.800
 1026TIP3    H2 3043   3.496   2.239   5.665
 1027TIP3   OH2 3044   5.105   3.000   1.064
 1027TIP3    H1 3045   5.021   3.008   1.019
 1027TIP3    H2 3046   5.163   2.957   1.000
 1028TIP3   OH2 3047   3.824   1.753   2.554
 1028TIP3    H1 3048   3.732   1.775   2.567
 1028TIP3    H2 3049   3.872   1.833   2.578
 1029TIP3   OH2 3050   1.744   6.397   5.567
 1029TIP3    H1 3051   1.650   6.413   5.558
 1029TIP3    H2 3052   1.774   6.378   5.478
 1030TIP3   OH2 3053   5.469   4.311   2.233
 1030TIP3    H1 3054   5.487   4.405   2.235
 1030TIP3    H2 3055   5.531   4.277   2.168
 1031TIP3   OH2 3056   0.557   6.194   3.127
 1031TIP3    H1 3057   0.585   6.120   3.073
 1031TIP3    H2 3058   0.484   6.160   3.179
 1032TIP3   OH2 3059   2.462   5.805   4.444
 1032TIP3    H1 3060   2.398   5.856   4.394
 1032TIP3    H2 3061   2.534   5.791   4.383
 1033TIP3   OH2 3062   5.088   6.744   2.454
 1033TIP3    H1 3063   5.107   6.821   2.507
 1033TIP3    H2 3064   5.118   6.767   2.366
 1034TIP3   OH2 3065   1.831   5.863   1.444
 1034TIP3    H1 3066   1.884   5.794   1.485
 1034TIP3    H2 3067   1.762   5.816   1.397
 1035TIP3   OH2 3068   6.111   4.622   1.951
 1035TIP3    H1 3069   6.074   4.541   1.916
 1035TIP3    H2 3070   6.171   4.593   2.020
 1036TIP3   OH2 3071   2.895   3.463   1.401
 1036TIP3    H1 3072   2.925   3.549   1.430
 1036TIP3    H2 3073   2.904   3.465   1.306
 1037TIP3   OH2 3074   4.855   3.860   0.551
 1037TIP3    H1 3075   4.773   3.907   0.566
 1037TIP3    H2 3076   4.893   3.903   0.474
 1038TIP3   OH2 3077   3.519   1.025   4.274
 1038TIP3    H1 3078   3.580   0.964   4.315
 1038TIP3    H2 3079   3.462   0.970   4.220
 1039TIP3   OH2 3080   0.232   4.291   0.278
 1039TIP3    H1 3081   0.193   4.206   0.259
 1039TIP3    H2 3082   0.185   4.353   0.222
 1040TIP3   OH2 3083   2.371   3.880   3.971
 1040TIP3    H1 3084   2.426   3.958   3.977
 1040TIP3    H2 3085   2.429   3.812   3.935
 1041TIP3   OH2 3086   6.720   4.176   1.121
 1041TIP3    H1 3087   6.798   4.231   1.127
 1041TIP3    H2 3088   6.647   4.237   1.134
 1042TIP3   OH2 3089   5.484   5.574   0.368
 1042TIP3    H1 3090   5.485   5.480   0.351
 1042TIP3    H2 3091   5.560   5.608   0.321
 1043TIP3   OH2 3092   2.959   0.486   0.622
 1043TIP3    H1 3093   2.901   0.432   0.569
 1043TIP3    H2 3094   2.984   0.429   0.695
 1044TIP3   OH2 3095   1.750   0.231   2.664
 1044TIP3    H1 3096   1.844   0.215   2.674
 1044TIP3    H2 3097   1.737   0.320   2.695
 1045TIP3   OH2 3098   6.879   3.854   5.717
 1045TIP3    H1 3099   6.817   3.799   5.668
 1045TIP3    H2 3100   6.920   3.794   5.780
 1046TIP3   OH2 3101   2.705   4.189   2.808
 1046TIP3    H1 3102   2.634   4.235   2.853
 1046TIP3    H2 3103   2.724   4.244   2.732
 1047TIP3   OH2 3104   7.119   6.821   2.983
 1047TIP3    H1 3105   7.045   6.879   2.964
 1047TIP3    H2 3106   7.113   6.805   3.077
 1048TIP3   OH2 3107   6.532   2.012   0.356
 1048TIP3    H1 3108   6.464   1.992   0.291
 1048TIP3    H2 3109   6.594   2.068   0.309
 1049TIP3   OH2 3110   3.435   4.168   4.191
 1049TIP3    H1 3111   3.497   4.121   4.135
 1049TIP3    H2 3112   3.472   4.161   4.279
 1050TIP3   OH2 3113   0.496   3.259   3.261
 1050TIP3    H1 3114   0.443   3.323   3.308
 1050TIP3    H2 3115   0.586   3.280   3.286
 1051TIP3   OH2 3116   7.135   0.905   3.044
 1051TIP3    H1 3117   7.127   0.984   2.990
 1051TIP3    H2 3118   7.054   0.857   3.028
 1052TIP3   OH2 3119   6.169   2.673   4.499
 1052TIP3    H1 3120   6.186   2.690   4.406
 1052TIP3    H2 3121   6.100   2.606   4.498
 1053TIP3   OH2 3122   2.775   1.558   1.607
 1053TIP3    H1 3123   2.862   1.545   1.569
 1053TIP3    H2 3124   2.735   1.625   1.552
 1054TIP3   OH2 3125   4.092   0.888   4.045
 1054TIP3    H1 3126   4.138   0.806   4.059
 1054TIP3    H2 3127   4.150   0.955   4.079
 1055TIP3   OH2 3128   3.799   0.004   5.771
 1055TIP3    H1 3129   3.801   0.091   5.810
 1055TIP3    H2 3130   3.711  -0.028   5.788
 1056TIP3   OH2 3131   3.996   6.193   1.359
 1056TIP3    H1 3132   3.989   6.157   1.271
 1056TIP3    H2 3133   3.935   6.267   1.360
 1057TIP3   OH2 3134   4.962   2.930   1.312
 1057TIP3    H1 3135   4.946   3.021   1.338
 1057TIP3    H2 3136   4.989   2.936   1.220
 1058TIP3   OH2 3137   3.036   4.405   3.328
 1058TIP3    H1 3138   2.997   4.369   3.248
 1058TIP3    H2 3139   3.058   4.328   3.381
 1059TIP3   OH2 3140   6.674   5.481   4.650
 1059TIP3    H1 3141   6.736   5.424   4.605
 1059TIP3    H2 3142   6.694   5.569   4.617
 1060TIP3   OH2 3143   6.018   2.883   4.603
 1060TIP3    H1 3144   6.061   2.952   4.654
 1060TIP3    H2 3145   6.090   2.831   4.567
 1061TIP3   OH2 3146   4.195   5.003   3.676
 1061TIP3    H1 3147   4.165   5.042   3.594
 1061TIP3    H2 3148   4.187   5.073   3.741
 1062TIP3   OH2 3149   3.320   5.716   1.227
 1062TIP3    H1 3150   3.337   5.623   1.240
 1062TIP3    H2 3151   3.321   5.754   1.314
 1063TIP3   OH2 3152   3.588   4.943   4.234
 1063TIP3    H1 3153   3.529   4.992   4.177
 1063TIP3    H2 3154   3.534   4.917   4.308
 1064TIP3   OH2 3155   1.058   1.890   2.072
 1064TIP3    H1 3156   0.968   1.920   2.058
 1064TIP3    H2 3157   1.049   1.799   2.099
 1065TIP3   OH2 3158   1.916   5.441   2.238
 1065TIP3    H1 3159   1.934   5.468   2.148
 1065TIP3    H2 3160   2.002   5.417   2.273
 1066TIP3   OH2 3161   0.099   3.078   0.633
 1066TIP3    H1 3162   0.097   3.145   0.701
 1066TIP3    H2 3163   0.129   2.999   0.678
 1067TIP3   OH2 3164   0.187   1.109   4.380
 1067TIP3    H1 3165   0.239   1.183   4.348
 1067TIP3    H2 3166   0.252   1.047   4.414
 1068TIP3   OH2 3167   3.272   6.663   4.615
 1068TIP3    H1 3168   3.214   6.729   4.577
 1068TIP3    H2 3169   3.229   6.580   4.598
 1069TIP3   OH2 3170   2.214   6.375   2.957
 1069TIP3    H1 3171   2.130   6.401   2.994
 1069TIP3    H2 3172   2.278   6.434   2.999
 1070TIP3   OH2 3173   2.097   2.031   4.181
 1070TIP3    H1 3174   2.104   2.099   4.247
 1070TIP3    H2 3175   2.054   1.958   4.226
 1071TIP3   OH2 3176   3.801   4.954   0.112
 1071TIP3    H1 3177   3.790   4.938   0.019
 1071TIP3    H2 3178   3.713   4.942   0.149
 1072TIP3   OH2 3179   4.215   5.995   2.892
 1072TIP3    H1 3180   4.170   6.079   2.890
 1072TIP3    H2 3181   4.182   5.947   2.816
 1073TIP3   OH2 3182   6.298   1.523   4.838
 1073TIP3    H1 3183   6.281   1.576   4.760
 1073TIP3    H2 3184   6.375   1.563   4.878
 1074TIP3   OH2 3185   6.799   0.135   3.509
 1074TIP3    H1 3186   6.765   0.071   3.572
 1074TIP3    H2 3187   6.845   0.082   3.444
 1075TIP3   OH2 3188   1.558   1.838   5.708
 1075TIP3    H1 3189   1.607   1.769   5.752
 1075TIP3    H2 3190   1.570   1.821   5.615
 1076TIP3   OH2 3191   4.955   2.138   3.626
 1076TIP3    H1 3192   5.030   2.192   3.598
 1076TIP3    H2 3193   4.961   2.060   3.572
 1077TIP3   OH2 3194   3.855   4.369   2.857
 1077TIP3    H1 3195   3.794   4.436   2.887
 1077TIP3    H2 3196   3.822   4.288   2.896
 1078TIP3   OH2 3197   0.592   4.553   0.463
 1078TIP3    H1 3198   0.564   4.473   0.418
 1078TIP3    H2 3199   0.510   4.598   0.484
 1079TIP3   OH2 3200   0.776   3.876   1.925
 1079TIP3    H1 3201   0.682   3.877   1.907
 1079TIP3    H2 3202   0.789   3.799   1.981
 1080TIP3   OH2 3203   4.909   2.963   1.703
 1080TIP3    H1 3204   4.922   2.875   1.670
 1080TIP3    H2 3205   4.825   2.990   1.666
 1081TIP3   OH2 3206   4.502   4.976   1.152
 1081TIP3    H1 3207   4.421   4.930   1.170
 1081TIP3    H2 3208   4.478   5.044   1.088
 1082TIP3   OH2 3209   6.499   1.431   0.266
 1082TIP3    H1 3210   6.521   1.487   0.340
 1082TIP3    H2 3211   6.506   1.489   0.190
 1083TIP3   OH2 3212   5.847   4.656   0.224
 1083TIP3    H1 3213   5.786   4.726   0.246
 1083TIP3    H2 3214   5.929   4.702   0.205
 1084TIP3   OH2 3215   2.153   5.321   1.680
 1084TIP3    H1 3216   2.196   5.383   1.622
 1084TIP3    H2 3217   2.223   5.285   1.735
 1085TIP3   OH2 3218   5.776   4.854   2.479
 1085TIP3    H1 3219   5.802   4.763   2.472
 1085TIP3    H2 3220   5.824   4.898   2.409
 1086TIP3   OH2 3221   2.641   1.324   1.684
 1086TIP3    H1 3222   2.669   1.415   1.674
 1086TIP3    H2 3223   2.698   1.275   1.625
 1087TIP3   OH2 3224   6.476   6.049   1.797
 1087TIP3    H1 3225   6.569   6.062   1.781
 1087TIP3    H2 3226   6.445   6.134   1.827
 1088TIP3   OH2 3227   0.389   4.169   4.564
 1088TIP3    H1 3228   0.332   4.136   4.495
 1088TIP3    H2 3229   0.461   4.106   4.568
 1089TIP3   OH2 3230   2.640   5.826   0.734
 1089TIP3    H1 3231   2.628   5.891   0.804
 1089TIP3    H2 3232   2.663   5.746   0.780
 1090TIP3   OH2 3233   5.157   1.250   3.130
 1090TIP3    H1 3234   5.063   1.260   3.142
 1090TIP3    H2 3235   5.169   1.250   3.035
 1091TIP3   OH2 3236   4.693   4.586   5.605
 1091TIP3    H1 3237   4.772   4.606   5.656
 1091TIP3    H2 3238   4.648   4.519   5.656
 1092TIP3   OH2 3239   4.810   3.572   1.483
 1092TIP3    H1 3240   4.852   3.649   1.521
 1092TIP3    H2 3241   4.716   3.588   1.495
 1093TIP3   OH2 3242   1.568   0.358   0.406
 1093TIP3    H1 3243   1.624   0.431   0.378
 1093TIP3    H2 3244   1.625   0.282   0.406
 1094TIP3   OH2 3245   4.621   4.066   3.368
 1094TIP3    H1 3246   4.714   4.083   3.383
 1094TIP3    H2 3247   4.612   3.972   3.382
 1095TIP3   OH2 3248   4.564   3.022   2.818
 1095TIP3    H1 3249   4.604   3.016   2.731
 1095TIP3    H2 3250   4.535   3.113   2.825
 1096TIP3   OH2 3251   3.241   5.369   1.741
 1096TIP3    H1 3252   3.250   5.360   1.836
 1096TIP3    H2 3253   3.234   5.464   1.726
 1097TIP3   OH2 3254   2.039   1.227   0.267
 1097TIP3    H1 3255   2.090   1.254   0.343
 1097TIP3    H2 3256   2.051   1.132   0.263
 1098TIP3   OH2 3257   4.469   5.634   5.310
 1098TIP3    H1 3258   4.487   5.723   5.279
 1098TIP3    H2 3259   4.555   5.592   5.315
 1099TIP3   OH2 3260   4.901   0.211   4.322
 1099TIP3    H1 3261   4.813   0.247   4.323
 1099TIP3    H2 3262   4.894   0.130   4.272
 1100TIP3   OH2 3263   4.765   3.919   3.848
 1100TIP3    H1 3264   4.710   3.890   3.920
 1100TIP3    H2 3265   4.721   3.887   3.769
 1101TIP3   OH2 3266   1.106   6.423   2.449
 1101TIP3    H1 3267   1.113   6.451   2.540
 1101TIP3    H2 3268   1.177   6.360   2.438
 1102TIP3   OH2 3269   2.185   1.599   3.068
 1102TIP3    H1 3270   2.152   1.510   3.061
 1102TIP3    H2 3271   2.161   1.627   3.156
 1103TIP3   OH2 3272   0.551   3.128   5.337
 1103TIP3    H1 3273   0.513   3.045   5.309
 1103TIP3    H2 3274   0.642   3.108   5.355
 1104TIP3   OH2 3275   6.750   5.030   4.038
 1104TIP3    H1 3276   6.705   4.948   4.019
 1104TIP3    H2 3277   6.834   5.004   4.075
 1105TIP3   OH2 3278   1.264   3.826   2.459
 1105TIP3    H1 3279   1.177   3.843   2.495
 1105TIP3    H2 3280   1.249   3.762   2.389
 1106TIP3   OH2 3281   5.417   4.227   4.929
 1106TIP3    H1 3282   5.472   4.257   5.002
 1106TIP3    H2 3283   5.388   4.307   4.886
 1107TIP3   OH2 3284   2.111   1.628   4.503
 1107TIP3    H1 3285   2.109   1.724   4.511
 1107TIP3    H2 3286   2.062   1.609   4.423
 1108TIP3   OH2 3287   1.337   3.461   4.870
 1108TIP3    H1 3288   1.399   3.428   4.804
 1108TIP3    H2 3289   1.345   3.399   4.943
 1109TIP3   OH2 3290   0.864   6.158   5.365
 1109TIP3    H1 3291   0.829   6.081   5.410
 1109TIP3    H2 3292   0.795   6.223   5.371
 1110TIP3   OH2 3293   4.166   4.935   5.129
 1110TIP3    H1 3294   4.248   4.886   5.132
 1110TIP3    H2 3295   4.169   4.981   5.044
 1111TIP3   OH2 3296   4.222   5.628   0.181
 1111TIP3    H1 3297   4.312   5.659   0.182
 1111TIP3    H2 3298   4.213   5.583   0.096
 1112TIP3   OH2 3299   1.611   5.207   2.296
 1112TIP3    H1 3300   1.523   5.204   2.257
 1112TIP3    H2 3301   1.597   5.240   2.384
 1113TIP3   OH2 3302   4.962   0.678   1.297
 1113TIP3    H1 3303   4.964   0.591   1.257
 1113TIP3    H2 3304   4.900   0.670   1.369
 1114TIP3   OH2 3305   3.014   0.902   2.427
 1114TIP3    H1 3306   2.947   0.969   2.413
 1114TIP3    H2 3307   2.974   0.821   2.395
 1115TIP3   OH2 3308   1.068   3.353   4.768
 1115TIP3    H1 3309   1.059   3.269   4.813
 1115TIP3    H2 3310   1.141   3.397   4.812
 1116TIP3   OH2 3311   1.419   3.796   3.344
 1116TIP3    H1 3312   1.460   3.763   3.263
 1116TIP3    H2 3313   1.335   3.751   3.347
 1117TIP3   OH2 3314   1.097   2.044   2.658
 1117TIP3    H1 3315   1.156   2.103   2.705
 1117TIP3    H2 3316   1.146   2.018   2.580
 1118TIP3   OH2 3317   1.093   2.255   1.600
 1118TIP3    H1 3318   1.020   2.208   1.558
 1118TIP3    H2 3319   1.095   2.221   1.689
 1119TIP3   OH2 3320   6.070   6.541   0.919
 1119TIP3    H1 3321   6.107   6.488   0.848
 1119TIP3    H2 3322   6.145   6.587   0.956
 1120TIP3   OH2 3323   4.886   1.285   3.978
 1120TIP3    H1 3324   4.849   1.373   3.981
 1120TIP3    H2 3325   4.955   1.290   3.913
 1121TIP3   OH2 3326   2.462   0.268   0.683
 1121TIP3    H1 3327   2.465   0.286   0.777
 1121TIP3    H2 3328   2.485   0.175   0.676
 1122TIP3   OH2 3329   5.654   6.309   4.832
 1122TIP3    H1 3330   5.661   6.403   4.820
 1122TIP3    H2 3331   5.744   6.277   4.827
 1123TIP3   OH2 3332   2.294   1.972   2.158
 1123TIP3    H1 3333   2.381   1.933   2.152
 1123TIP3    H2 3334   2.239   1.902   2.194
 1124TIP3   OH2 3335   5.620   3.131   4.245
 1124TIP3    H1 3336   5.621   3.036   4.232
 1124TIP3    H2 3337   5.655   3.167   4.163
 1125TIP3   OH2 3338   6.819   3.853   0.496
 1125TIP3    H1 3339   6.774   3.799   0.431
 1125TIP3    H2 3340   6.758   3.924   0.515
 1126TIP3   OH2 3341   5.075   6.460   4.214
 1126TIP3    H1 3342   5.075   6.547   4.253
 1126TIP3    H2 3343   5.152   6.417   4.253
 1127TIP3   OH2 3344   5.357   3.754   0.884
 1127TIP3    H1 3345   5.422   3.726   0.949
 1127TIP3    H2 3346   5.273   3.742   0.928
 1128TIP3   OH2 3347   5.697   1.838   5.851
 1128TIP3    H1 3348   5.692   1.743   5.853
 1128TIP3    H2 3349   5.616   1.868   5.892
 1129TIP3   OH2 3350   1.569   0.140   4.762
 1129TIP3    H1 3351   1.590   0.059   4.714
 1129TIP3    H2 3352   1.625   0.206   4.721
 1130TIP3   OH2 3353   4.376   6.693   4.174
 1130TIP3    H1 3354   4.392   6.779   4.135
 1130TIP3    H2 3355   4.461   6.667   4.211
 1131TIP3   OH2 3356   4.234   1.297   0.659
 1131TIP3    H1 3357   4.283   1.275   0.737
 1131TIP3    H2 3358   4.152   1.334   0.691
 1132TIP3   OH2 3359   6.066   2.286   3.374
 1132TIP3    H1 3360   6.143   2.250   3.330
 1132TIP3    H2 3361   6.069   2.379   3.355
 1133TIP3   OH2 3362   7.122   3.182   1.315
 1133TIP3    H1 3363   7.145   3.104   1.264
 1133TIP3    H2 3364   7.118   3.253   1.250
 1134TIP3   OH2 3365   2.708   1.521   4.635
 1134TIP3    H1 3366   2.658   1.439   4.639
 1134TIP3    H2 3367   2.671   1.575   4.705
 1135TIP3   OH2 3368   0.312   0.197   2.542
 1135TIP3    H1 3369   0.309   0.280   2.494
 1135TIP3    H2 3370   0.296   0.221   2.633
 1136TIP3   OH2 3371   4.531   1.018   3.317
 1136TIP3    H1 3372   4.530   1.014   3.222
 1136TIP3    H2 3373   4.622   1.039   3.340
 1137TIP3   OH2 3374   2.356   5.426   3.526
 1137TIP3    H1 3375   2.332   5.354   3.583
 1137TIP3    H2 3376   2.375   5.499   3.585
 1138TIP3   OH2 3377   5.678   1.924   1.386
 1138TIP3    H1 3378   5.683   1.829   1.393
 1138TIP3    H2 3379   5.765   1.955   1.411
 1139TIP3   OH2 3380   3.097   6.111   0.358
 1139TIP3    H1 3381   3.110   6.136   0.449
 1139TIP3    H2 3382   3.047   6.184   0.320
 1140TIP3   OH2 3383   4.958   0.534   2.431
 1140TIP3    H1 3384   5.029   0.580   2.385
 1140TIP3    H2 3385   4.992   0.446   2.447
 1141TIP3   OH2 3386   5.429   3.877   0.121
 1141TIP3    H1 3387   5.444   3.794   0.167
 1141TIP3    H2 3388   5.515   3.918   0.117
 1142TIP3   OH2 3389   2.579   1.886   4.793
 1142TIP3    H1 3390   2.536   1.960   4.751
 1142TIP3    H2 3391   2.667   1.884   4.754
 1143TIP3   OH2 3392   1.321   1.018   4.586
 1143TIP3    H1 3393   1.345   0.946   4.644
 1143TIP3    H2 3394   1.391   1.082   4.597
 1144TIP3   OH2 3395   5.762   6.667   2.465
 1144TIP3    H1 3396   5.852   6.652   2.435
 1144TIP3    H2 3397   5.749   6.603   2.535
 1145TIP3   OH2 3398   7.067   1.591   0.140
 1145TIP3    H1 3399   7.136   1.636   0.189
 1145TIP3    H2 3400   7.091   1.605   0.048
 1146TIP3   OH2 3401   6.615   4.759   5.704
 1146TIP3    H1 3402   6.659   4.679   5.678
 1146TIP3    H2 3403   6.679   4.806   5.756
 1147TIP3   OH2 3404   1.962   3.242   1.455
 1147TIP3    H1 3405   1.892   3.275   1.511
 1147TIP3    H2 3406   1.922   3.171   1.406
 1148TIP3   OH2 3407   2.608   1.647   2.627
 1148TIP3    H1 3408   2.541   1.695   2.579
 1148TIP3    H2 3409   2.562   1.612   2.703
 1149TIP3   OH2 3410   2.232   5.738   4.283
 1149TIP3    H1 3411   2.222   5.669   4.349
 1149TIP3    H2 3412   2.161   5.799   4.302
 1150TIP3   OH2 3413   2.695   3.730   4.747
 1150TIP3    H1 3414   2.632   3.796   4.775
 1150TIP3    H2 3415   2.647   3.675   4.686
 1151TIP3   OH2 3416   4.058   3.421   2.954
 1151TIP3    H1 3417   4.004   3.461   3.023
 1151TIP3    H2 3418   4.064   3.489   2.886
 1152TIP3   OH2 3419   0.089   0.750   3.868
 1152TIP3    H1 3420   0.064   0.721   3.781
 1152TIP3    H2 3421   0.139   0.677   3.905
 1153TIP3   OH2 3422   5.043   1.132   3.516
 1153TIP3    H1 3423   4.983   1.086   3.458
 1153TIP3    H2 3424   5.088   1.062   3.564
 1154TIP3   OH2 3425   4.736   5.982   3.884
 1154TIP3    H1 3426   4.823   5.956   3.914
 1154TIP3    H2 3427   4.735   5.960   3.791
 1155TIP3   OH2 3428   3.584   3.321   1.897
 1155TIP3    H1 3429   3.540   3.241   1.927
 1155TIP3    H2 3430   3.580   3.381   1.971
 1156TIP3   OH2 3431   4.015   6.702   0.508
 1156TIP3    H1 3432   4.078   6.630   0.503
 1156TIP3    H2 3433   4.003   6.730   0.417
 1157TIP3   OH2 3434   0.946   0.039   3.470
 1157TIP3    H1 3435   0.904   0.101   3.410
 1157TIP3    H2 3436   1.039   0.043   3.448
 1158TIP3   OH2 3437   5.416   5.103   4.075
 1158TIP3    H1 3438   5.487   5.074   4.131
 1158TIP3    H2 3439   5.383   5.182   4.117
 1159TIP3   OH2 3440   1.583   4.540   0.580
 1159TIP3    H1 3441   1.540   4.521   0.496
 1159TIP3    H2 3442   1.537   4.485   0.643
 1160TIP3   OH2 3443   1.500   2.458   3.413
 1160TIP3    H1 3444   1.445   2.402   3.359
 1160TIP3    H2 3445   1.440   2.524   3.448
 1161TIP3   OH2 3446   5.086   3.155   2.785
 1161TIP3    H1 3447   5.084   3.143   2.880
 1161TIP3    H2 3448   5.127   3.075   2.752
 1162TIP3   OH2 3449   0.039   5.749   1.235
 1162TIP3    H1 3450   0.099   5.808   1.191
 1162TIP3    H2 3451   0.086   5.722   1.314
 1163TIP3   OH2 3452   0.023   2.747   0.238
 1163TIP3    H1 3453   0.030   2.759   0.333
 1163TIP3    H2 3454   0.090   2.681   0.218
 1164TIP3   OH2 3455   2.456   4.718   4.935
 1164TIP3    H1 3456   2.455   4.786   5.004
 1164TIP3    H2 3457   2.415   4.642   4.976
 1165TIP3   OH2 3458   0.934   4.225   1.244
 1165TIP3    H1 3459   1.030   4.217   1.239
 1165TIP3    H2 3460   0.904   4.195   1.158
 1166TIP3   OH2 3461   1.045   6.482   0.260
 1166TIP3    H1 3462   1.121   6.504   0.314
 1166TIP3    H2 3463   0.986   6.435   0.320
 1167TIP3   OH2 3464   0.584   2.378   1.343
 1167TIP3    H1 3465   0.613   2.358   1.254
 1167TIP3    H2 3466   0.590   2.294   1.389
 1168TIP3   OH2 3467   0.562   4.302   0.953
 1168TIP3    H1 3468   0.590   4.367   0.889
 1168TIP3    H2 3469   0.623   4.229   0.942
 1169TIP3   OH2 3470   4.071   3.874   0.249
 1169TIP3    H1 3471   4.019   3.796   0.233
 1169TIP3    H2 3472   4.112   3.858   0.334
 1170TIP3   OH2 3473   7.117   4.889   1.714
 1170TIP3    H1 3474   7.059   4.864   1.642
 1170TIP3    H2 3475   7.166   4.809   1.734
 1171TIP3   OH2 3476   5.822   0.631   2.691
 1171TIP3    H1 3477   5.789   0.570   2.625
 1171TIP3    H2 3478   5.909   0.597   2.713
 1172TIP3   OH2 3479   5.014   4.447   1.279
 1172TIP3    H1 3480   5.041   4.512   1.215
 1172TIP3    H2 3481   4.938   4.486   1.324
 1173TIP3   OH2 3482   3.825   0.414   1.769
 1173TIP3    H1 3483   3.732   0.415   1.748
 1173TIP3    H2 3484   3.847   0.322   1.779
 1174TIP3   OH2 3485   1.060  -0.017   1.637
 1174TIP3    H1 3486   1.005   0.062   1.633
 1174TIP3    H2 3487   1.098  -0.015   1.725
 1175TIP3   OH2 3488   6.333   6.106   3.008
 1175TIP3    H1 3489   6.363   6.034   2.954
 1175TIP3    H2 3490   6.271   6.067   3.070
 1176TIP3   OH2 3491   2.686   3.737   4.448
 1176TIP3    H1 3492   2.622   3.677   4.486
 1176TIP3    H2 3493   2.694   3.709   4.357
 1177TIP3   OH2 3494   2.367   2.170   5.580
 1177TIP3    H1 3495   2.358   2.105   5.510
 1177TIP3    H2 3496   2.284   2.217   5.580
 1178TIP3   OH2 3497   0.726   4.784   2.721
 1178TIP3    H1 3498   0.731   4.880   2.726
 1178TIP3    H2 3499   0.684   4.767   2.637
 1179TIP3   OH2 3500   6.722   5.609   3.827
 1179TIP3    H1 3501   6.774   5.564   3.894
 1179TIP3    H2 3502   6.781   5.674   3.791
 1180TIP3   OH2 3503   6.998   5.518   3.807
 1180TIP3    H1 3504   6.956   5.544   3.725
 1180TIP3    H2 3505   6.994   5.422   3.807
 1181TIP3   OH2 3506   2.589   5.492   4.448
 1181TIP3    H1 3507   2.536   5.572   4.447
 1181TIP3    H2 3508   2.621   5.486   4.538
 1182TIP3   OH2 3509   0.278   1.657   5.086
 1182TIP3    H1 3510   0.236   1.743   5.092
 1182TIP3    H2 3511   0.367   1.672   5.119
 1183TIP3   OH2 3512   3.134   6.520   2.405
 1183TIP3    H1 3513   3.066   6.573   2.447
 1183TIP3    H2 3514   3.141   6.554   2.316
 1184TIP3   OH2 3515   6.488   2.991   1.908
 1184TIP3    H1 3516   6.407   2.991   1.857
 1184TIP3    H2 3517   6.533   3.071   1.882
 1185TIP3   OH2 3518   7.038   4.173   1.912
 1185TIP3    H1 3519   7.006   4.247   1.964
 1185TIP3    H2 3520   7.051   4.103   1.976
 1186TIP3   OH2 3521   0.716   2.867   0.198
 1186TIP3    H1 3522   0.691   2.954   0.227
 1186TIP3    H2 3523   0.707   2.812   0.275
 1187TIP3   OH2 3524   3.701   3.807   5.884
 1187TIP3    H1 3525   3.747   3.742   5.936
 1187TIP3    H2 3526   3.611   3.806   5.917
 1188TIP3   OH2 3527   4.562   3.267   1.866
 1188TIP3    H1 3528   4.485   3.278   1.811
 1188TIP3    H2 3529   4.604   3.353   1.866
 1189TIP3   OH2 3530   5.226   2.850   0.555
 1189TIP3    H1 3531   5.305   2.903   0.546
 1189TIP3    H2 3532   5.250   2.764   0.522
 1190TIP3   OH2 3533   1.799   2.580   1.230
 1190TIP3    H1 3534   1.887   2.600   1.200
 1190TIP3    H2 3535   1.741   2.614   1.162
 1191TIP3   OH2 3536   2.480   1.759   1.534
 1191TIP3    H1 3537   2.523   1.743   1.618
 1191TIP3    H2 3538   2.550   1.789   1.476
 1192TIP3   OH2 3539   6.228   4.105   0.129
 1192TIP3    H1 3540   6.238   4.065   0.216
 1192TIP3    H2 3541   6.311   4.085   0.085
 1193TIP3   OH2 3542   0.442   5.762   4.960
 1193TIP3    H1 3543   0.484   5.778   4.876
 1193TIP3    H2 3544   0.397   5.678   4.949
 1194TIP3   OH2 3545   5.168   4.857   5.220
 1194TIP3    H1 3546   5.229   4.931   5.219
 1194TIP3    H2 3547   5.181   4.816   5.305
 1195TIP3   OH2 3548   3.330   2.183   1.921
 1195TIP3    H1 3549   3.327   2.275   1.895
 1195TIP3    H2 3550   3.241   2.164   1.951
 1196TIP3   OH2 3551   3.494   1.624   3.669
 1196TIP3    H1 3552   3.490   1.719   3.681
 1196TIP3    H2 3553   3.578   1.598   3.708
 1197TIP3   OH2 3554   2.127   2.717   1.443
 1197TIP3    H1 3555   2.093   2.807   1.445
 1197TIP3    H2 3556   2.087   2.675   1.518
 1198TIP3   OH2 3557   6.010   0.299   2.777
 1198TIP3    H1 3558   5.996   0.276   2.686
 1198TIP3    H2 3559   6.053   0.385   2.774
 1199TIP3   OH2 3560   5.762   4.472   1.208
 1199TIP3    H1 3561   5.674   4.509   1.209
 1199TIP3    H2 3562   5.749   4.378   1.191
 1200TIP3   OH2 3563   2.584   0.956   4.361
 1200TIP3    H1 3564   2.582   1.051   4.374
 1200TIP3    H2 3565   2.628   0.944   4.277
 1201TIP3   OH2 3566   2.944   3.538   4.370
 1201TIP3    H1 3567   2.881   3.493   4.427
 1201TIP3    H2 3568   2.950   3.627   4.406
 1202TIP3   OH2 3569   5.732   1.497   0.669
 1202TIP3    H1 3570   5.717   1.504   0.763
 1202TIP3    H2 3571   5.646   1.511   0.629
 1203TIP3   OH2 3572   3.649   4.970   1.683
 1203TIP3    H1 3573   3.666   5.049   1.631
 1203TIP3    H2 3574   3.667   4.996   1.773
 1204TIP3   OH2 3575   3.821   2.069   1.124
 1204TIP3    H1 3576   3.757   2.091   1.056
 1204TIP3    H2 3577   3.845   2.152   1.163
 1205TIP3   OH2 3578   5.632   3.005   4.573
 1205TIP3    H1 3579   5.680   2.981   4.494
 1205TIP3    H2 3580   5.619   2.923   4.620
 1206TIP3   OH2 3581   5.087   3.621   5.342
 1206TIP3    H1 3582   4.993   3.634   5.348
 1206TIP3    H2 3583   5.098   3.530   5.316
 1207TIP3   OH2 3584   0.588   6.433   1.466
 1207TIP3    H1 3585   0.509   6.382   1.485
 1207TIP3    H2 3586   0.569   6.475   1.382
 1208TIP3   OH2 3587   1.998   3.760   2.278
 1208TIP3    H1 3588   2.039   3.718   2.354
 1208TIP3    H2 3589   2.067   3.762   2.211
 1209TIP3   OH2 3590   0.103   2.732   0.489
 1209TIP3    H1 3591   0.184   2.783   0.487
 1209TIP3    H2 3592   0.131   2.642   0.504
 1210TIP3   OH2 3593   3.774   4.686   2.812
 1210TIP3    H1 3594   3.777   4.769   2.860
 1210TIP3    H2 3595   3.780   4.619   2.881
 1211TIP3   OH2 3596   0.208   3.621   2.760
 1211TIP3    H1 3597   0.138   3.610   2.825
 1211TIP3    H2 3598   0.286   3.637   2.813
 1212TIP3   OH2 3599   0.837   2.883   0.608
 1212TIP3    H1 3600   0.833   2.799   0.653
 1212TIP3    H2 3601   0.886   2.866   0.528
 1213TIP3   OH2 3602   5.061   2.761   0.044
 1213TIP3    H1 3603   5.054   2.767  -0.051
 1213TIP3    H2 3604   5.102   2.843   0.071
 1214TIP3   OH2 3605   0.801   3.605   2.012
 1214TIP3    H1 3606   0.887   3.606   1.971
 1214TIP3    H2 3607   0.816   3.561   2.096
 1215TIP3   OH2 3608   5.770   4.278   0.646
 1215TIP3    H1 3609   5.826   4.233   0.708
 1215TIP3    H2 3610   5.810   4.261   0.561
 1216TIP3   OH2 3611   5.314   3.821   0.442
 1216TIP3    H1 3612   5.295   3.857   0.529
 1216TIP3    H2 3613   5.404   3.791   0.447
 1217TIP3   OH2 3614   6.970   4.667   5.605
 1217TIP3    H1 3615   7.007   4.595   5.554
 1217TIP3    H2 3616   6.989   4.745   5.552
 1218TIP3   OH2 3617   2.957   4.750   4.714
 1218TIP3    H1 3618   2.876   4.794   4.741
 1218TIP3    H2 3619   3.027   4.804   4.752
 1219TIP3   OH2 3620   5.315   1.530   3.995
 1219TIP3    H1 3621   5.316   1.580   4.076
 1219TIP3    H2 3622   5.406   1.507   3.980
 1220TIP3   OH2 3623   6.071   6.023   1.251
 1220TIP3    H1 3624   6.077   6.005   1.158
 1220TIP3    H2 3625   6.082   6.118   1.258
 1221TIP3   OH2 3626   4.988   3.173   1.422
 1221TIP3    H1 3627   5.023   3.262   1.433
 1221TIP3    H2 3628   4.895   3.182   1.440
 1222TIP3   OH2 3629   3.298   6.061   4.698
 1222TIP3    H1 3630   3.237   6.131   4.676
 1222TIP3    H2 3631   3.253   6.009   4.764
 1223TIP3   OH2 3632   6.482   0.073   5.838
 1223TIP3    H1 3633   6.457  -0.014   5.868
 1223TIP3    H2 3634   6.399   0.120   5.831
 1224TIP3   OH2 3635   4.985   1.258   5.785
 1224TIP3    H1 3636   4.990   1.165   5.809
 1224TIP3    H2 3637   5.023   1.304   5.859
 1225TIP3   OH2 3638   5.539   6.075   2.872
 1225TIP3    H1 3639   5.485   6.046   2.945
 1225TIP3    H2 3640   5.481   6.128   2.818
 1226TIP3   OH2 3641   4.939   3.241   5.709
 1226TIP3    H1 3642   4.871   3.293   5.667
 1226TIP3    H2 3643   4.955   3.284   5.792
 1227TIP3   OH2 3644   1.216   5.521   1.612
 1227TIP3    H1 3645   1.164   5.588   1.657
 1227TIP3    H2 3646   1.151   5.456   1.584
 1228TIP3   OH2 3647   2.583   4.159   5.539
 1228TIP3    H1 3648   2.550   4.233   5.488
 1228TIP3    H2 3649   2.546   4.082   5.497
 1229TIP3   OH2 3650   0.856   0.911   5.114
 1229TIP3    H1 3651   0.919   0.981   5.130
 1229TIP3    H2 3652   0.786   0.953   5.064
 1230TIP3   OH2 3653   6.259   2.015   3.617
 1230TIP3    H1 3654   6.289   2.093   3.569
 1230TIP3    H2 3655   6.211   2.051   3.692
 1231TIP3   OH2 3656   7.053   4.336   0.271
 1231TIP3    H1 3657   6.979   4.377   0.316
 1231TIP3    H2 3658   7.043   4.243   0.289
 1232TIP3   OH2 3659   0.666   2.422   3.950
 1232TIP3    H1 3660   0.723   2.452   4.021
 1232TIP3    H2 3661   0.585   2.396   3.993
 1233TIP3   OH2 3662   6.310   0.656   5.608
 1233TIP3    H1 3663   6.324   0.731   5.550
 1233TIP3    H2 3664   6.358   0.678   5.688
 1234TIP3   OH2 3665   3.645   3.139   0.822
 1234TIP3    H1 3666   3.636   3.187   0.740
 1234TIP3    H2 3667   3.558   3.142   0.862
 1235TIP3   OH2 3668   1.697   0.400   3.983
 1235TIP3    H1 3669   1.763   0.456   4.025
 1235TIP3    H2 3670   1.672   0.338   4.051
 1236TIP3   OH2 3671   3.615   1.337   0.549
 1236TIP3    H1 3672   3.581   1.323   0.460
 1236TIP3    H2 3673   3.537   1.333   0.604
 1237TIP3   OH2 3674   1.261   3.356   3.658
 1237TIP3    H1 3675   1.226   3.279   3.615
 1237TIP3    H2 3676   1.351   3.331   3.682
 1238TIP3   OH2 3677   7.071   2.937   1.160
 1238TIP3    H1 3678   7.016   2.892   1.224
 1238TIP3    H2 3679   7.156   2.893   1.167
 1239TIP3   OH2 3680   5.110   3.474   1.870
 1239TIP3    H1 3681   5.060   3.404   1.827
 1239TIP3    H2 3682   5.185   3.430   1.909
 1240TIP3   OH2 3683   2.743   2.854   4.405
 1240TIP3    H1 3684   2.835   2.856   4.379
 1240TIP3    H2 3685   2.701   2.918   4.347
 1241TIP3   OH2 3686   0.631   2.712   3.522
 1241TIP3    H1 3687   0.685   2.657   3.578
 1241TIP3    H2 3688   0.572   2.758   3.582
 1242TIP3   OH2 3689   4.797   1.016   3.975
 1242TIP3    H1 3690   4.883   0.975   3.976
 1242TIP3    H2 3691   4.815   1.108   3.996
 1243TIP3   OH2 3692   4.381   3.817   3.858
 1243TIP3    H1 3693   4.299   3.866   3.860
 1243TIP3    H2 3694   4.356   3.726   3.871
 1244TIP3   OH2 3695   1.922   4.255   5.120
 1244TIP3    H1 3696   1.930   4.287   5.210
 1244TIP3    H2 3697   1.904   4.333   5.068
 1245TIP3   OH2 3698   3.916   1.640   5.238
 1245TIP3    H1 3699   3.969   1.563   5.258
 1245TIP3    H2 3700   3.962   1.683   5.165
 1246TIP3   OH2 3701   4.067   3.386   0.231
 1246TIP3    H1 3702   4.156   3.420   0.227
 1246TIP3    H2 3703   4.038   3.384   0.140
 1247TIP3   OH2 3704   0.622   2.084   4.448
 1247TIP3    H1 3705   0.594   1.996   4.474
 1247TIP3    H2 3706   0.707   2.096   4.490
 1248TIP3   OH2 3707   0.190   0.780   1.838
 1248TIP3    H1 3708   0.247   0.841   1.884
 1248TIP3    H2 3709   0.227   0.694   1.856
 1249TIP3   OH2 3710   6.511   4.639   4.792
 1249TIP3    H1 3711   6.435   4.641   4.734
 1249TIP3    H2 3712   6.583   4.610   4.737
 1250TIP3   OH2 3713   5.349   2.925   2.735
 1250TIP3    H1 3714   5.324   2.982   2.662
 1250TIP3    H2 3715   5.326   2.837   2.706
 1251TIP3   OH2 3716   4.024   4.145   0.730
 1251TIP3    H1 3717   4.106   4.135   0.779
 1251TIP3    H2 3718   3.999   4.236   0.744
 1252TIP3   OH2 3719   3.828   3.689   3.921
 1252TIP3    H1 3720   3.774   3.702   3.843
 1252TIP3    H2 3721   3.771   3.644   3.983
 1253TIP3   OH2 3722   3.327   2.014   2.655
 1253TIP3    H1 3723   3.326   1.929   2.700
 1253TIP3    H2 3724   3.268   2.002   2.580
 1254TIP3   OH2 3725   1.530   5.433   1.905
 1254TIP3    H1 3726   1.477   5.360   1.936
 1254TIP3    H2 3727   1.573   5.467   1.983
 1255TIP3   OH2 3728   5.727   5.413   2.119
 1255TIP3    H1 3729   5.735   5.492   2.066
 1255TIP3    H2 3730   5.730   5.445   2.210
 1256TIP3   OH2 3731   1.847   6.410   3.636
 1256TIP3    H1 3732   1.809   6.330   3.599
 1256TIP3    H2 3733   1.773   6.469   3.649
 1257TIP3   OH2 3734   4.878   5.202   3.149
 1257TIP3    H1 3735   4.877   5.297   3.148
 1257TIP3    H2 3736   4.963   5.178   3.112
 1258TIP3   OH2 3737   1.917   0.121   1.524
 1258TIP3    H1 3738   1.831   0.158   1.503
 1258TIP3    H2 3739   1.934   0.059   1.453
 1259TIP3   OH2 3740   1.314   3.751   5.375
 1259TIP3    H1 3741   1.286   3.695   5.447
 1259TIP3    H2 3742   1.253   3.731   5.304
 1260TIP3   OH2 3743   2.181   5.216   0.737
 1260TIP3    H1 3744   2.201   5.302   0.699
 1260TIP3    H2 3745   2.267   5.175   0.748
 1261TIP3   OH2 3746   4.518   5.877   1.700
 1261TIP3    H1 3747   4.474   5.850   1.619
 1261TIP3    H2 3748   4.580   5.806   1.718
 1262TIP3   OH2 3749   4.502   3.005   3.415
 1262TIP3    H1 3750   4.515   2.947   3.490
 1262TIP3    H2 3751   4.537   3.089   3.443
 1263TIP3   OH2 3752   5.984   5.762   0.335
 1263TIP3    H1 3753   5.916   5.716   0.384
 1263TIP3    H2 3754   6.057   5.769   0.397
 1264TIP3   OH2 3755   6.707   3.915   2.698
 1264TIP3    H1 3756   6.674   4.000   2.668
 1264TIP3    H2 3757   6.628   3.867   2.725
 1265TIP3   OH2 3758   2.008   2.215   1.516
 1265TIP3    H1 3759   2.012   2.251   1.427
 1265TIP3    H2 3760   2.024   2.290   1.573
 1266TIP3   OH2 3761   5.774   2.499   0.751
 1266TIP3    H1 3762   5.745   2.420   0.796
 1266TIP3    H2 3763   5.703   2.520   0.691
 1267TIP3   OH2 3764   3.235   2.686   4.800
 1267TIP3    H1 3765   3.331   2.687   4.801
 1267TIP3    H2 3766   3.210   2.739   4.875
 1268TIP3   OH2 3767   4.897   3.378   1.017
 1268TIP3    H1 3768   4.989   3.357   1.002
 1268TIP3    H2 3769   4.852   3.349   0.938
 1269TIP3   OH2 3770   1.630   6.712   3.487
 1269TIP3    H1 3771   1.674   6.780   3.538
 1269TIP3    H2 3772   1.542   6.748   3.472
 1270TIP3   OH2 3773   3.269   4.722   3.008
 1270TIP3    H1 3774   3.185   4.729   3.052
 1270TIP3    H2 3775   3.283   4.808   2.969
 1271TIP3   OH2 3776   0.120   0.415   1.037
 1271TIP3    H1 3777   0.092   0.343   1.093
 1271TIP3    H2 3778   0.207   0.391   1.007
 1272TIP3   OH2 3779   5.742   0.851   0.815
 1272TIP3    H1 3780   5.670   0.828   0.756
 1272TIP3    H2 3781   5.762   0.942   0.795
 1273TIP3   OH2 3782   3.852  -0.041   4.600
 1273TIP3    H1 3783   3.943  -0.022   4.580
 1273TIP3    H2 3784   3.802   0.004   4.532
 1274TIP3   OH2 3785   4.236   6.194   2.302
 1274TIP3    H1 3786   4.158   6.139   2.290
 1274TIP3    H2 3787   4.288   6.181   2.223
 1275TIP3   OH2 3788   1.653   1.518   0.738
 1275TIP3    H1 3789   1.733   1.547   0.693
 1275TIP3    H2 3790   1.632   1.589   0.798
 1276TIP3   OH2 3791   6.906   1.840   1.721
 1276TIP3    H1 3792   6.851   1.867   1.795
 1276TIP3    H2 3793   6.989   1.814   1.761
 1277TIP3   OH2 3794   4.647   4.719   2.732
 1277TIP3    H1 3795   4.564   4.676   2.711
 1277TIP3    H2 3796   4.625   4.811   2.744
 1278TIP3   OH2 3797   0.963   0.783   4.223
 1278TIP3    H1 3798   0.886   0.796   4.278
 1278TIP3    H2 3799   0.979   0.870   4.185
 1279TIP3   OH2 3800   2.309   0.431   1.175
 1279TIP3    H1 3801   2.229   0.387   1.205
 1279TIP3    H2 3802   2.376   0.404   1.238
 1280TIP3   OH2 3803   2.083   4.999   3.929
 1280TIP3    H1 3804   2.108   5.083   3.968
 1280TIP3    H2 3805   2.114   4.933   3.991
 1281TIP3   OH2 3806   3.306   4.998   2.408
 1281TIP3    H1 3807   3.290   4.974   2.499
 1281TIP3    H2 3808   3.400   5.012   2.403
 1282TIP3   OH2 3809   6.903   4.644   3.696
 1282TIP3    H1 3810   6.989   4.622   3.662
 1282TIP3    H2 3811   6.918   4.664   3.788
 1283TIP3   OH2 3812   4.240   0.446   4.762
 1283TIP3    H1 3813   4.241   0.534   4.725
 1283TIP3    H2 3814   4.156   0.439   4.807
 1284TIP3   OH2 3815   4.159   4.194   3.948
 1284TIP3    H1 3816   4.153   4.099   3.946
 1284TIP3    H2 3817   4.209   4.217   3.869
 1285TIP3   OH2 3818   6.971   0.345   3.447
 1285TIP3    H1 3819   6.900   0.282   3.453
 1285TIP3    H2 3820   7.008   0.348   3.535
 1286TIP3   OH2 3821   6.489   1.764   4.822
 1286TIP3    H1 3822   6.574   1.728   4.796
 1286TIP3    H2 3823   6.457   1.807   4.743
 1287TIP3   OH2 3824   6.259   4.426   0.260
 1287TIP3    H1 3825   6.193   4.468   0.314
 1287TIP3    H2 3826   6.211   4.363   0.207
 1288TIP3   OH2 3827   0.899   2.532   3.238
 1288TIP3    H1 3828   0.867   2.443   3.250
 1288TIP3    H2 3829   0.990   2.529   3.268
 1289TIP3   OH2 3830   4.104   6.513   2.098
 1289TIP3    H1 3831   4.085   6.438   2.043
 1289TIP3    H2 3832   4.141   6.578   2.038
 1290TIP3   OH2 3833   2.685   6.458   1.024
 1290TIP3    H1 3834   2.626   6.414   1.086
 1290TIP3    H2 3835   2.771   6.454   1.066
 1291TIP3   OH2 3836   0.528   2.536   3.353
 1291TIP3    H1 3837   0.592   2.488   3.405
 1291TIP3    H2 3838   0.506   2.613   3.406
 1292TIP3   OH2 3839   6.375   4.792   1.073
 1292TIP3    H1 3840   6.431   4.714   1.081
 1292TIP3    H2 3841   6.409   4.837   0.996
 1293TIP3   OH2 3842   3.451   2.944   2.572
 1293TIP3    H1 3843   3.410   3.030   2.580
 1293TIP3    H2 3844   3.425   2.913   2.485
 1294TIP3   OH2 3845   4.790   1.750   5.024
 1294TIP3    H1 3846   4.752   1.688   4.963
 1294TIP3    H2 3847   4.793   1.703   5.107
 1295TIP3   OH2 3848   4.461   4.733   5.895
 1295TIP3    H1 3849   4.439   4.646   5.863
 1295TIP3    H2 3850   4.481   4.721   5.988
 1296TIP3   OH2 3851   0.143   5.342   5.082
 1296TIP3    H1 3852   0.058   5.344   5.126
 1296TIP3    H2 3853   0.131   5.282   5.008
 1297TIP3   OH2 3854   3.734   0.434   4.761
 1297TIP3    H1 3855   3.734   0.411   4.854
 1297TIP3    H2 3856   3.658   0.389   4.725
 1298TIP3   OH2 3857   3.162   3.984   2.665
 1298TIP3    H1 3858   3.182   4.041   2.591
 1298TIP3    H2 3859   3.089   3.930   2.636
 1299TIP3   OH2 3860   5.669   0.904   2.681
 1299TIP3    H1 3861   5.662   0.925   2.774
 1299TIP3    H2 3862   5.742   0.958   2.649
 1300TIP3   OH2 3863   4.537   3.661   2.493
 1300TIP3    H1 3864   4.586   3.579   2.497
 1300TIP3    H2 3865   4.518   3.673   2.400
 1301TIP3   OH2 3866   3.612   5.792   3.109
 1301TIP3    H1 3867   3.626   5.836   3.193
 1301TIP3    H2 3868   3.690   5.738   3.097
 1302TIP3   OH2 3869   4.695   5.132   5.523
 1302TIP3    H1 3870   4.724   5.066   5.460
 1302TIP3    H2 3871   4.678   5.083   5.604
 1303TIP3   OH2 3872   4.192   5.342   4.987
 1303TIP3    H1 3873   4.242   5.357   5.067
 1303TIP3    H2 3874   4.244   5.384   4.918
 1304TIP3   OH2 3875   3.661   5.991   4.244
 1304TIP3    H1 3876   3.609   5.995   4.163
 1304TIP3    H2 3877   3.600   6.017   4.313
 1305TIP3   OH2 3878   4.529   6.373   3.272
 1305TIP3    H1 3879   4.510   6.453   3.223
 1305TIP3    H2 3880   4.615   6.389   3.312
 1306TIP3   OH2 3881   6.388   6.490   4.041
 1306TIP3    H1 3882   6.462   6.550   4.030
 1306TIP3    H2 3883   6.325   6.515   3.974
 1307TIP3   OH2 3884   6.625   5.657   0.270
 1307TIP3    H1 3885   6.699   5.600   0.247
 1307TIP3    H2 3886   6.566   5.651   0.195
 1308TIP3   OH2 3887   2.584   1.217   2.215
 1308TIP3    H1 3888   2.675   1.208   2.244
 1308TIP3    H2 3889   2.588   1.279   2.142
 1309TIP3   OH2 3890   1.304   5.115   5.694
 1309TIP3    H1 3891   1.229   5.159   5.652
 1309TIP3    H2 3892   1.284   5.118   5.787
 1310TIP3   OH2 3893   6.184   3.841   4.325
 1310TIP3    H1 3894   6.109   3.783   4.338
 1310TIP3    H2 3895   6.190   3.891   4.406
 1311TIP3   OH2 3896   6.306   1.471   0.843
 1311TIP3    H1 3897   6.219   1.459   0.806
 1311TIP3    H2 3898   6.365   1.443   0.773
 1312TIP3   OH2 3899   7.175   2.713   5.446
 1312TIP3    H1 3900   7.173   2.718   5.351
 1312TIP3    H2 3901   7.233   2.784   5.473
 1313TIP3   OH2 3902   0.828   2.035   4.176
 1313TIP3    H1 3903   0.806   2.112   4.123
 1313TIP3    H2 3904   0.790   1.961   4.128
 1314TIP3   OH2 3905   7.132   0.780   1.553
 1314TIP3    H1 3906   7.075   0.704   1.541
 1314TIP3    H2 3907   7.220   0.746   1.539
 1315TIP3   OH2 3908   5.599   6.700   5.109
 1315TIP3    H1 3909   5.608   6.794   5.122
 1315TIP3    H2 3910   5.529   6.673   5.168
 1316TIP3   OH2 3911   2.379   5.284   1.837
 1316TIP3    H1 3912   2.382   5.266   1.931
 1316TIP3    H2 3913   2.413   5.373   1.828
 1317TIP3   OH2 3914   3.468   5.620   1.657
 1317TIP3    H1 3915   3.448   5.527   1.646
 1317TIP3    H2 3916   3.520   5.643   1.580
 1318TIP3   OH2 3917   1.645   0.171   1.474
 1318TIP3    H1 3918   1.657   0.078   1.493
 1318TIP3    H2 3919   1.559   0.193   1.510
 1319TIP3   OH2 3920   6.393   3.533   0.352
 1319TIP3    H1 3921   6.392   3.513   0.446
 1319TIP3    H2 3922   6.450   3.467   0.314
 1320TIP3   OH2 3923   3.534   5.107   3.622
 1320TIP3    H1 3924   3.482   5.121   3.542
 1320TIP3    H2 3925   3.524   5.188   3.671
 1321TIP3   OH2 3926   0.455   6.088   2.413
 1321TIP3    H1 3927   0.433   6.130   2.330
 1321TIP3    H2 3928   0.396   6.128   2.477
 1322TIP3   OH2 3929   6.398   3.441   2.042
 1322TIP3    H1 3930   6.435   3.471   1.959
 1322TIP3    H2 3931   6.310   3.412   2.020
 1323TIP3   OH2 3932   1.784   0.649   1.118
 1323TIP3    H1 3933   1.797   0.555   1.108
 1323TIP3    H2 3934   1.855   0.689   1.067
 1324TIP3   OH2 3935   1.689   5.023   2.729
 1324TIP3    H1 3936   1.675   5.098   2.787
 1324TIP3    H2 3937   1.603   5.006   2.690
 1325TIP3   OH2 3938   4.007   4.601   1.774
 1325TIP3    H1 3939   3.974   4.683   1.812
 1325TIP3    H2 3940   3.935   4.539   1.787
 1326TIP3   OH2 3941   3.165   6.109   5.485
 1326TIP3    H1 3942   3.187   6.029   5.437
 1326TIP3    H2 3943   3.243   6.164   5.476
 1327TIP3   OH2 3944   3.267   6.295   2.265
 1327TIP3    H1 3945   3.252   6.383   2.300
 1327TIP3    H2 3946   3.191   6.244   2.293
 1328TIP3   OH2 3947   1.261   2.033   1.938
 1328TIP3    H1 3948   1.345   2.018   1.980
 1328TIP3    H2 3949   1.205   1.963   1.971
 1329TIP3   OH2 3950   3.143   6.199   4.314
 1329TIP3    H1 3951   3.189   6.283   4.321
 1329TIP3    H2 3952   3.124   6.174   4.404
 1330TIP3   OH2 3953   0.148   4.870   4.605
 1330TIP3    H1 3954   0.073   4.911   4.647
 1330TIP3    H2 3955   0.190   4.820   4.675
 1331TIP3   OH2 3956   5.532   1.379   5.843
 1331TIP3    H1 3957   5.519   1.464   5.800
 1331TIP3    H2 3958   5.570   1.400   5.928
 1332TIP3   OH2 3959   3.078   3.104   0.839
 1332TIP3    H1 3960   3.055   3.098   0.746
 1332TIP3    H2 3961   3.078   3.013   0.870
 1333TIP3   OH2 3962   0.800   5.652   3.711
 1333TIP3    H1 3963   0.879   5.702   3.689
 1333TIP3    H2 3964   0.762   5.628   3.626
 1334TIP3   OH2 3965   5.430   4.684   2.091
 1334TIP3    H1 3966   5.425   4.711   2.183
 1334TIP3    H2 3967   5.345   4.643   2.073
 1335TIP3   OH2 3968   1.775   0.414   4.957
 1335TIP3    H1 3969   1.784   0.374   4.871
 1335TIP3    H2 3970   1.799   0.506   4.944
 1336TIP3   OH2 3971   1.592   1.027   0.632
 1336TIP3    H1 3972   1.609   1.067   0.717
 1336TIP3    H2 3973   1.654   1.069   0.573
 1337TIP3   OH2 3974   2.561   4.228   1.934
 1337TIP3    H1 3975   2.568   4.133   1.943
 1337TIP3    H2 3976   2.625   4.263   1.996
 1338TIP3   OH2 3977   1.289   3.375   2.885
 1338TIP3    H1 3978   1.222   3.306   2.880
 1338TIP3    H2 3979   1.363   3.332   2.928
 1339TIP3   OH2 3980   5.452   1.495   0.606
 1339TIP3    H1 3981   5.377   1.435   0.608
 1339TIP3    H2 3982   5.443   1.546   0.687
 1340TIP3   OH2 3983   1.165   0.608   4.346
 1340TIP3    H1 3984   1.227   0.582   4.278
 1340TIP3    H2 3985   1.116   0.680   4.307
 1341TIP3   OH2 3986   0.733   1.591   0.602
 1341TIP3    H1 3987   0.826   1.575   0.612
 1341TIP3    H2 3988   0.696   1.580   0.690
 1342TIP3   OH2 3989   4.996   2.360  -0.029
 1342TIP3    H1 3990   4.945   2.280  -0.013
 1342TIP3    H2 3991   4.959   2.424   0.031
 1343TIP3   OH2 3992   1.142   0.272   3.578
 1343TIP3    H1 3993   1.190   0.248   3.499
 1343TIP3    H2 3994   1.057   0.301   3.546
 1344TIP3   OH2 3995   5.056   6.194   0.383
 1344TIP3    H1 3996   4.997   6.145   0.325
 1344TIP3    H2 3997   5.139   6.197   0.335
 1345TIP3   OH2 3998   0.061   4.509   5.237
 1345TIP3    H1 3999   0.072   4.595   5.197
 1345TIP3    H2 4000  -0.012   4.469   5.190
 1346TIP3   OH2 4001   7.132   0.392   5.613
 1346TIP3    H1 4002   7.083   0.464   5.574
 1346TIP3    H2 4003   7.125   0.406   5.707
 1347TIP3   OH2 4004   7.042   0.670   3.615
 1347TIP3    H1 4005   7.120   0.722   3.638
 1347TIP3    H2 4006   6.968   0.726   3.638
 1348TIP3   OH2 4007   5.116   3.945   4.793
 1348TIP3    H1 4008   5.051   3.934   4.724
 1348TIP3    H2 4009   5.074   3.910   4.871
 1349TIP3   OH2 4010   4.742   3.796   2.201
 1349TIP3    H1 4011   4.650   3.816   2.221
 1349TIP3    H2 4012   4.742   3.703   2.180
 1350TIP3   OH2 4013   4.959   1.163   2.232
 1350TIP3    H1 4014   5.039   1.133   2.275
 1350TIP3    H2 4015   4.888   1.129   2.286
 1351TIP3   OH2 4016   3.234   5.572   0.968
 1351TIP3    H1 4017   3.294   5.499   0.954
 1351TIP3    H2 4018   3.283   5.633   1.025
 1352TIP3   OH2 4019   3.806   4.731   2.089
 1352TIP3    H1 4020   3.896   4.719   2.121
 1352TIP3    H2 4021   3.815   4.798   2.021
 1353TIP3   OH2 4022   2.175   2.042   3.909
 1353TIP3    H1 4023   2.135   2.036   3.996
 1353TIP3    H2 4024   2.234   2.118   3.916
 1354TIP3   OH2 4025   2.412   5.206   4.563
 1354TIP3    H1 4026   2.433   5.175   4.651
 1354TIP3    H2 4027   2.495   5.235   4.527
 1355TIP3   OH2 4028   1.057   1.813   0.682
 1355TIP3    H1 4029   1.099   1.736   0.642
 1355TIP3    H2 4030   1.036   1.784   0.771
 1356TIP3   OH2 4031   6.618   5.976   3.926
 1356TIP3    H1 4032   6.529   6.005   3.907
 1356TIP3    H2 4033   6.656   6.046   3.979
 1357TIP3   OH2 4034   3.806   2.812   1.740
 1357TIP3    H1 4035   3.737   2.807   1.807
 1357TIP3    H2 4036   3.769   2.867   1.672
 1358TIP3   OH2 4037   4.702   6.692   5.565
 1358TIP3    H1 4038   4.683   6.617   5.508
 1358TIP3    H2 4039   4.623   6.703   5.617
 1359TIP3   OH2 4040   1.264   5.061   0.072
 1359TIP3    H1 4041   1.184   5.104   0.102
 1359TIP3    H2 4042   1.334   5.122   0.094
 1360TIP3   OH2 4043   1.527   4.104   0.980
 1360TIP3    H1 4044   1.614   4.071   0.960
 1360TIP3    H2 4045   1.542   4.185   1.029
 1361TIP3   OH2 4046   1.030   4.496   1.190
 1361TIP3    H1 4047   1.075   4.436   1.130
 1361TIP3    H2 4048   0.939   4.495   1.160
 1362TIP3   OH2 4049   4.988   3.202   1.815
 1362TIP3    H1 4050   4.959   3.111   1.819
 1362TIP3    H2 4051   4.934   3.241   1.746
 1363TIP3   OH2 4052   1.426   5.619   2.290
 1363TIP3    H1 4053   1.346   5.628   2.239
 1363TIP3    H2 4054   1.490   5.582   2.228
 1364TIP3   OH2 4055   0.074   1.630   1.651
 1364TIP3    H1 4056   0.015   1.688   1.700
 1364TIP3    H2 4057   0.161   1.667   1.666
 1365TIP3   OH2 4058   1.723   1.796   1.545
 1365TIP3    H1 4059   1.796   1.849   1.575
 1365TIP3    H2 4060   1.760   1.739   1.478
 1366TIP3   OH2 4061   1.450   6.830   2.023
 1366TIP3    H1 4062   1.477   6.867   1.939
 1366TIP3    H2 4063   1.490   6.744   2.026
 1367TIP3   OH2 4064   4.383   1.647   1.824
 1367TIP3    H1 4065   4.397   1.637   1.730
 1367TIP3    H2 4066   4.402   1.561   1.861
 1368TIP3   OH2 4067   1.294   0.640   0.593
 1368TIP3    H1 4068   1.361   0.594   0.645
 1368TIP3    H2 4069   1.243   0.569   0.553
 1369TIP3   OH2 4070   0.940   2.753   2.975
 1369TIP3    H1 4071   0.868   2.772   2.915
 1369TIP3    H2 4072   0.897   2.729   3.057
 1370TIP3   OH2 4073   0.681   5.973   4.115
 1370TIP3    H1 4074   0.752   5.928   4.161
 1370TIP3    H2 4075   0.669   5.922   4.035
 1371TIP3   OH2 4076   0.428   1.771   0.039
 1371TIP3    H1 4077   0.478   1.693   0.063
 1371TIP3    H2 4078   0.370   1.786   0.113
 1372TIP3   OH2 4079   1.542   2.209   4.778
 1372TIP3    H1 4080   1.491   2.267   4.835
 1372TIP3    H2 4081   1.619   2.261   4.754
 1373TIP3   OH2 4082   3.007   4.221   3.921
 1373TIP3    H1 4083   3.011   4.164   3.998
 1373TIP3    H2 4084   2.917   4.256   3.922
 1374TIP3   OH2 4085   3.213   6.116   1.622
 1374TIP3    H1 4086   3.303   6.148   1.629
 1374TIP3    H2 4087   3.191   6.088   1.711
 1375TIP3   OH2 4088   4.237   5.426   2.856
 1375TIP3    H1 4089   4.301   5.496   2.860
 1375TIP3    H2 4090   4.281   5.350   2.892
 1376TIP3   OH2 4091   0.117   3.039   4.223
 1376TIP3    H1 4092   0.208   3.019   4.246
 1376TIP3    H2 4093   0.117   3.043   4.127
 1377TIP3   OH2 4094   4.693   1.245   5.404
 1377TIP3    H1 4095   4.682   1.267   5.312
 1377TIP3    H2 4096   4.713   1.151   5.404
 1378TIP3   OH2 4097   1.167   6.504   0.775
 1378TIP3    H1 4098   1.168   6.412   0.750
 1378TIP3    H2 4099   1.218   6.508   0.857
 1379TIP3   OH2 4100   1.269   2.939   5.724
 1379TIP3    H1 4101   1.195   2.978   5.678
 1379TIP3    H2 4102   1.230   2.883   5.791
 1380TIP3   OH2 4103   0.574   3.909   0.713
 1380TIP3    H1 4104   0.604   3.821   0.735
 1380TIP3    H2 4105   0.631   3.936   0.640
 1381TIP3   OH2 4106   0.588  -0.008   4.870
 1381TIP3    H1 4107   0.623   0.029   4.951
 1381TIP3    H2 4108   0.498  -0.033   4.893
 1382TIP3   OH2 4109   5.002   5.586   4.308
 1382TIP3    H1 4110   5.086   5.598   4.263
 1382TIP3    H2 4111   5.023   5.535   4.386
 1383TIP3   OH2 4112   1.446   2.707   1.341
 1383TIP3    H1 4113   1.437   2.639   1.275
 1383TIP3    H2 4114   1.456   2.788   1.291
 1384TIP3   OH2 4115   4.087   2.565   4.418
 1384TIP3    H1 4116   4.084   2.648   4.466
 1384TIP3    H2 4117   4.116   2.589   4.330
 1385TIP3   OH2 4118   4.078   1.103   5.359
 1385TIP3    H1 4119   4.036   1.189   5.365
 1385TIP3    H2 4120   4.030   1.057   5.290
 1386TIP3   OH2 4121   5.460   4.044   2.379
 1386TIP3    H1 4122   5.538   4.005   2.338
 1386TIP3    H2 4123   5.458   4.134   2.346
 1387TIP3   OH2 4124   0.595   4.789   1.094
 1387TIP3    H1 4125   0.688   4.804   1.108
 1387TIP3    H2 4126   0.591   4.722   1.026
 1388TIP3   OH2 4127   0.476   0.648   4.438
 1388TIP3    H1 4128   0.524   0.637   4.520
 1388TIP3    H2 4129   0.502   0.574   4.384
 1389TIP3   OH2 4130   2.352   2.524   5.547
 1389TIP3    H1 4131   2.370   2.552   5.636
 1389TIP3    H2 4132   2.266   2.481   5.552
 1390TIP3   OH2 4133   5.920   3.193   5.763
 1390TIP3    H1 4134   5.832   3.173   5.793
 1390TIP3    H2 4135   5.970   3.112   5.777
 1391TIP3   OH2 4136   0.482   5.123   1.321
 1391TIP3    H1 4137   0.403   5.133   1.268
 1391TIP3    H2 4138   0.450   5.117   1.411
 1392TIP3   OH2 4139   2.491   1.369   5.324
 1392TIP3    H1 4140   2.549   1.440   5.294
 1392TIP3    H2 4141   2.406   1.411   5.337
 1393TIP3   OH2 4142   4.996   3.726   2.593
 1393TIP3    H1 4143   5.056   3.652   2.587
 1393TIP3    H2 4144   5.004   3.771   2.508
 1394TIP3   OH2 4145   2.441   5.164   2.751
 1394TIP3    H1 4146   2.504   5.172   2.823
 1394TIP3    H2 4147   2.360   5.136   2.793
 1395TIP3   OH2 4148   3.921   6.278   2.272
 1395TIP3    H1 4149   3.867   6.244   2.201
 1395TIP3    H2 4150   3.988   6.331   2.229
 1396TIP3   OH2 4151   5.587   6.688   2.251
 1396TIP3    H1 4152   5.602   6.764   2.195
 1396TIP3    H2 4153   5.666   6.682   2.305
 1397TIP3   OH2 4154   3.871   0.185   0.879
 1397TIP3    H1 4155   3.808   0.215   0.813
 1397TIP3    H2 4156   3.871   0.255   0.945
 1398TIP3   OH2 4157   4.822   1.233   0.857
 1398TIP3    H1 4158   4.799   1.140   0.863
 1398TIP3    H2 4159   4.762   1.276   0.919
 1399TIP3   OH2 4160   5.636   6.187   3.260
 1399TIP3    H1 4161   5.584   6.188   3.340
 1399TIP3    H2 4162   5.678   6.273   3.257
 1400TIP3   OH2 4163   0.862   0.296   2.313
 1400TIP3    H1 4164   0.901   0.365   2.260
 1400TIP3    H2 4165   0.933   0.234   2.328
 1401TIP3   OH2 4166   4.310   5.972   3.288
 1401TIP3    H1 4167   4.356   5.910   3.232
 1401TIP3    H2 4168   4.270   6.034   3.227
 1402TIP3   OH2 4169   3.678   1.740   0.995
 1402TIP3    H1 4170   3.622   1.724   1.071
 1402TIP3    H2 4171   3.704   1.653   0.965
 1403TIP3   OH2 4172   6.132   0.951   3.798
 1403TIP3    H1 4173   6.215   0.907   3.779
 1403TIP3    H2 4174   6.149   1.044   3.784
 1404TIP3   OH2 4175   0.886   0.835   0.218
 1404TIP3    H1 4176   0.890   0.928   0.241
 1404TIP3    H2 4177   0.829   0.796   0.284
 1405TIP3   OH2 4178   6.391   2.481   4.785
 1405TIP3    H1 4179   6.479   2.452   4.762
 1405TIP3    H2 4180   6.386   2.472   4.880
 1406TIP3   OH2 4181   6.471   0.786   4.319
 1406TIP3    H1 4182   6.492   0.743   4.236
 1406TIP3    H2 4183   6.389   0.745   4.347
 1407TIP3   OH2 4184   3.540   2.375   0.052
 1407TIP3    H1 4185   3.635   2.377   0.045
 1407TIP3    H2 4186   3.518   2.282   0.051
 1408TIP3   OH2 4187   0.853   1.936   0.535
 1408TIP3    H1 4188   0.873   1.902   0.448
 1408TIP3    H2 4189   0.923   1.903   0.591
 1409TIP3   OH2 4190   5.141   4.012   0.098
 1409TIP3    H1 4191   5.212   4.071   0.120
 1409TIP3    H2 4192   5.149   3.997   0.004
 1410TIP3   OH2 4193   6.539   3.609   4.690
 1410TIP3    H1 4194   6.497   3.693   4.671
 1410TIP3    H2 4195   6.627   3.617   4.654
 1411TIP3   OH2 4196   4.794   3.391   3.062
 1411TIP3    H1 4197   4.797   3.343   3.144
 1411TIP3    H2 4198   4.772   3.481   3.087
 1412TIP3   OH2 4199   1.928   3.674   5.624
 1412TIP3    H1 4200   1.863   3.611   5.595
 1412TIP3    H2 4201   1.877   3.745   5.665
 1413TIP3   OH2 4202   3.587   5.717   4.876
 1413TIP3    H1 4203   3.661   5.699   4.818
 1413TIP3    H2 4204   3.605   5.665   4.955
 1414TIP3   OH2 4205   1.673   1.719   0.089
 1414TIP3    H1 4206   1.762   1.704   0.123
 1414TIP3    H2 4207   1.657   1.645   0.030
 1415TIP3   OH2 4208   0.919   1.405   4.574
 1415TIP3    H1 4209   0.869   1.363   4.504
 1415TIP3    H2 4210   0.940   1.334   4.635
 1416TIP3   OH2 4211   5.722   3.804   3.802
 1416TIP3    H1 4212   5.783   3.877   3.788
 1416TIP3    H2 4213   5.665   3.833   3.873
 1417TIP3   OH2 4214   4.373   3.860   3.461
 1417TIP3    H1 4215   4.293   3.807   3.453
 1417TIP3    H2 4216   4.369   3.920   3.386
 1418TIP3   OH2 4217   3.628   1.405   2.273
 1418TIP3    H1 4218   3.704   1.384   2.327
 1418TIP3    H2 4219   3.656   1.384   2.184
 1419TIP3   OH2 4220   6.802   2.176   0.499
 1419TIP3    H1 4221   6.817   2.193   0.592
 1419TIP3    H2 4222   6.720   2.127   0.496
 1420TIP3   OH2 4223   6.988   5.808   1.325
 1420TIP3    H1 4224   7.081   5.789   1.312
 1420TIP3    H2 4225   6.952   5.726   1.360
 1421TIP3   OH2 4226   1.929   5.919   2.026
 1421TIP3    H1 4227   2.017   5.957   2.032
 1421TIP3    H2 4228   1.870   5.992   2.047
 1422TIP3   OH2 4229   1.224   1.623   0.525
 1422TIP3    H1 4230   1.167   1.626   0.449
 1422TIP3    H2 4231   1.260   1.534   0.526
 1423TIP3   OH2 4232   4.303   4.931   2.059
 1423TIP3    H1 4233   4.391   4.962   2.038
 1423TIP3    H2 4234   4.262   4.913   1.974
 1424TIP3   OH2 4235   0.931   0.672   0.554
 1424TIP3    H1 4236   0.861   0.671   0.488
 1424TIP3    H2 4237   0.975   0.588   0.542
 1425TIP3   OH2 4238   7.121   6.481   4.781
 1425TIP3    H1 4239   7.178   6.468   4.704
 1425TIP3    H2 4240   7.133   6.402   4.833
 1426TIP3   OH2 4241   6.582   2.999   0.820
 1426TIP3    H1 4242   6.626   3.001   0.735
 1426TIP3    H2 4243   6.630   3.061   0.874
 1427TIP3   OH2 4244   2.914   4.161   4.904
 1427TIP3    H1 4245   2.819   4.164   4.900
 1427TIP3    H2 4246   2.936   4.195   4.991
 1428TIP3   OH2 4247   6.577   6.020   5.258
 1428TIP3    H1 4248   6.524   5.941   5.251
 1428TIP3    H2 4249   6.622   6.027   5.174
 1429TIP3   OH2 4250   1.047   4.139   5.383
 1429TIP3    H1 4251   1.078   4.125   5.473
 1429TIP3    H2 4252   1.127   4.157   5.333
 1430TIP3   OH2 4253   1.778   0.307   4.688
 1430TIP3    H1 4254   1.763   0.373   4.620
 1430TIP3    H2 4255   1.872   0.291   4.686
 1431TIP3   OH2 4256   3.981   0.672   3.656
 1431TIP3    H1 4257   4.040   0.630   3.718
 1431TIP3    H2 4258   3.930   0.734   3.710
 1432TIP3   OH2 4259   6.246   5.852   3.531
 1432TIP3    H1 4260   6.326   5.904   3.537
 1432TIP3    H2 4261   6.272   5.764   3.556
 1433TIP3   OH2 4262   1.546   4.284   2.412
 1433TIP3    H1 4263   1.596   4.304   2.333
 1433TIP3    H2 4264   1.583   4.202   2.445
 1434TIP3   OH2 4265   1.280   5.677   0.717
 1434TIP3    H1 4266   1.254   5.688   0.809
 1434TIP3    H2 4267   1.359   5.624   0.721
 1435TIP3   OH2 4268   0.288   6.661   4.875
 1435TIP3    H1 4269   0.298   6.607   4.953
 1435TIP3    H2 4270   0.212   6.716   4.893
 1436TIP3   OH2 4271   5.123   1.587   0.832
 1436TIP3    H1 4272   5.124   1.504   0.785
 1436TIP3    H2 4273   5.213   1.597   0.865
 1437TIP3   OH2 4274   5.428   2.630   5.596
 1437TIP3    H1 4275   5.413   2.664   5.684
 1437TIP3    H2 4276   5.440   2.708   5.542
 1438TIP3   OH2 4277   1.207   4.165   1.219
 1438TIP3    H1 4278   1.231   4.110   1.294
 1438TIP3    H2 4279   1.246   4.122   1.144
 1439TIP3   OH2 4280   3.473   2.402   3.140
 1439TIP3    H1 4281   3.502   2.359   3.060
 1439TIP3    H2 4282   3.378   2.414   3.127
 1440TIP3   OH2 4283   3.371   6.125   2.448
 1440TIP3    H1 4284   3.347   6.164   2.364
 1440TIP3    H2 4285   3.307   6.162   2.510
 1441TIP3   OH2 4286   3.462   1.135   3.579
 1441TIP3    H1 4287   3.529   1.100   3.521
 1441TIP3    H2 4288   3.500   1.128   3.666
 1442TIP3   OH2 4289   2.980   2.358   2.608
 1442TIP3    H1 4290   3.062   2.375   2.654
 1442TIP3    H2 4291   2.992   2.399   2.522
 1443TIP3   OH2 4292   5.035   3.978   1.859
 1443TIP3    H1 4293   5.075   3.891   1.860
 1443TIP3    H2 4294   5.107   4.036   1.832
 1444TIP3   OH2 4295   0.517   5.048   0.149
 1444TIP3    H1 4296   0.581   5.116   0.171
 1444TIP3    H2 4297   0.434   5.096   0.142
 1445TIP3   OH2 4298   2.858   5.373   1.640
 1445TIP3    H1 4299   2.782   5.337   1.685
 1445TIP3    H2 4300   2.890   5.442   1.698
 1446TIP3   OH2 4301   0.053   4.612   0.177
 1446TIP3    H1 4302  -0.009   4.656   0.119
 1446TIP3    H2 4303   0.051   4.662   0.258
 1447TIP3   OH2 4304   1.153   1.014   0.244
 1447TIP3    H1 4305   1.144   0.969   0.328
 1447TIP3    H2 4306   1.183   0.946   0.184
 1448TIP3   OH2 4307   2.121   0.344   4.290
 1448TIP3    H1 4308   2.165   0.324   4.373
 1448TIP3    H2 4309   2.167   0.420   4.256
 1449TIP3   OH2 4310   3.973   3.601   5.536
 1449TIP3    H1 4311   3.968   3.508   5.513
 1449TIP3    H2 4312   3.884   3.624   5.562
 1450TIP3   OH2 4313   4.674   4.397   2.648
 1450TIP3    H1 4314   4.668   4.321   2.706
 1450TIP3    H2 4315   4.755   4.384   2.600
 1451TIP3   OH2 4316   2.988   3.524   4.687
 1451TIP3    H1 4317   2.907   3.571   4.665
 1451TIP3    H2 4318   2.963   3.431   4.681
 1452TIP3   OH2 4319   5.239   4.127   3.412
 1452TIP3    H1 4320   5.303   4.182   3.456
 1452TIP3    H2 4321   5.268   4.125   3.320
 1453TIP3   OH2 4322   2.460   4.815   2.847
 1453TIP3    H1 4323   2.525   4.868   2.892
 1453TIP3    H2 4324   2.479   4.828   2.754
 1454TIP3   OH2 4325   0.634   5.957   1.983
 1454TIP3    H1 4326   0.613   5.957   1.889
 1454TIP3    H2 4327   0.613   6.046   2.011
 1455TIP3   OH2 4328   3.863   6.026   5.239
 1455TIP3    H1 4329   3.803   6.090   5.201
 1455TIP3    H2 4330   3.817   5.994   5.317
 1456TIP3   OH2 4331   6.874   2.903   5.619
 1456TIP3    H1 4332   6.831   2.919   5.703
 1456TIP3    H2 4333   6.813   2.847   5.571
 1457TIP3   OH2 4334   4.465   0.896   1.797
 1457TIP3    H1 4335   4.442   0.904   1.704
 1457TIP3    H2 4336   4.404   0.830   1.831
 1458TIP3   OH2 4337   3.201   0.401   0.065
 1458TIP3    H1 4338   3.186   0.430  -0.025
 1458TIP3    H2 4339   3.143   0.325   0.075
 1459TIP3   OH2 4340   6.449   0.546   4.159
 1459TIP3    H1 4341   6.357   0.542   4.134
 1459TIP3    H2 4342   6.468   0.458   4.195
 1460TIP3   OH2 4343   1.220   5.627   0.993
 1460TIP3    H1 4344   1.149   5.564   1.008
 1460TIP3    H2 4345   1.297   5.585   1.032
 1461TIP3   OH2 4346   1.739   3.686   1.771
 1461TIP3    H1 4347   1.796   3.663   1.844
 1461TIP3    H2 4348   1.660   3.722   1.812
 1462TIP3   OH2 4349   2.957   6.362   4.187
 1462TIP3    H1 4350   3.021   6.317   4.242
 1462TIP3    H2 4351   2.875   6.316   4.205
 1463TIP3   OH2 4352   2.862   2.956   5.181
 1463TIP3    H1 4353   2.790   2.987   5.237
 1463TIP3    H2 4354   2.937   3.009   5.208
 1464TIP3   OH2 4355   3.557   5.094   3.158
 1464TIP3    H1 4356   3.540   5.074   3.065
 1464TIP3    H2 4357   3.581   5.010   3.196
 1465TIP3   OH2 4358   0.095   5.629   3.293
 1465TIP3    H1 4359   0.098   5.710   3.344
 1465TIP3    H2 4360   0.002   5.614   3.276
 1466TIP3   OH2 4361   5.336   1.858   4.669
 1466TIP3    H1 4362   5.312   1.923   4.735
 1466TIP3    H2 4363   5.300   1.776   4.701
 1467TIP3   OH2 4364   3.145   0.691   3.235
 1467TIP3    H1 4365   3.057   0.664   3.206
 1467TIP3    H2 4366   3.146   0.786   3.223
 1468TIP3   OH2 4367   4.129   1.036   3.735
 1468TIP3    H1 4368   4.180   1.093   3.793
 1468TIP3    H2 4369   4.164   0.948   3.751
 1469TIP3   OH2 4370   0.104   0.058   4.719
 1469TIP3    H1 4371   0.117   0.140   4.670
 1469TIP3    H2 4372   0.045   0.007   4.664
 1470TIP3   OH2 4373   4.644   3.439   4.807
 1470TIP3    H1 4374   4.714   3.417   4.746
 1470TIP3    H2 4375   4.689   3.463   4.888
 1471TIP3   OH2 4376   1.754   5.730   2.007
 1471TIP3    H1 4377   1.746   5.758   1.916
 1471TIP3    H2 4378   1.830   5.778   2.040
 1472TIP3   OH2 4379   6.888   2.713   4.619
 1472TIP3    H1 4380   6.906   2.782   4.683
 1472TIP3    H2 4381   6.969   2.705   4.569
 1473TIP3   OH2 4382   3.813   3.865   2.393
 1473TIP3    H1 4383   3.772   3.945   2.426
 1473TIP3    H2 4384   3.815   3.807   2.469
 1474TIP3   OH2 4385   4.019   1.979   2.344
 1474TIP3    H1 4386   4.020   2.070   2.372
 1474TIP3    H2 4387   4.066   1.932   2.413
 1475TIP3   OH2 4388   5.376   0.542   1.383
 1475TIP3    H1 4389   5.414   0.518   1.298
 1475TIP3    H2 4390   5.369   0.637   1.380
 1476TIP3   OH2 4391   7.054   2.833   5.881
 1476TIP3    H1 4392   7.001   2.754   5.886
 1476TIP3    H2 4393   7.049   2.859   5.789
 1477TIP3   OH2 4394   3.698   0.187   1.598
 1477TIP3    H1 4395   3.765   0.135   1.555
 1477TIP3    H2 4396   3.698   0.271   1.552
 1478TIP3   OH2 4397   0.665   6.342   5.413
 1478TIP3    H1 4398   0.652   6.434   5.437
 1478TIP3    H2 4399   0.598   6.295   5.463
 1479TIP3   OH2 4400   7.076   0.085   4.311
 1479TIP3    H1 4401   7.012   0.109   4.244
 1479TIP3    H2 4402   7.161   0.102   4.271
 1480TIP3   OH2 4403   4.045   2.176   4.165
 1480TIP3    H1 4404   4.068   2.102   4.221
 1480TIP3    H2 4405   4.035   2.249   4.226
 1481TIP3   OH2 4406   6.237   4.252   5.299
 1481TIP3    H1 4407   6.201   4.335   5.266
 1481TIP3    H2 4408   6.161   4.206   5.334
 1482TIP3   OH2 4409   4.603   6.549   1.539
 1482TIP3    H1 4410   4.581   6.495   1.463
 1482TIP3    H2 4411   4.616   6.486   1.610
 1483TIP3   OH2 4412   1.209   3.366   5.846
 1483TIP3    H1 4413   1.153   3.385   5.772
 1483TIP3    H2 4414   1.163   3.403   5.921
 1484TIP3   OH2 4415   5.233   4.463   0.339
 1484TIP3    H1 4416   5.232   4.396   0.408
 1484TIP3    H2 4417   5.326   4.473   0.318
 1485TIP3   OH2 4418   6.895   5.337   0.247
 1485TIP3    H1 4419   6.894   5.419   0.197
 1485TIP3    H2 4420   6.942   5.276   0.191
 1486TIP3   OH2 4421   6.935   0.714   0.131
 1486TIP3    H1 4422   6.976   0.776   0.070
 1486TIP3    H2 4423   6.847   0.749   0.146
 1487TIP3   OH2 4424   1.301   4.209   2.251
 1487TIP3    H1 4425   1.369   4.143   2.261
 1487TIP3    H2 4426   1.343   4.280   2.203
 1488TIP3   OH2 4427   5.636   4.351   3.315
 1488TIP3    H1 4428   5.603   4.279   3.261
 1488TIP3    H2 4429   5.630   4.318   3.405
 1489TIP3   OH2 4430   6.920   2.551   2.110
 1489TIP3    H1 4431   6.885   2.462   2.101
 1489TIP3    H2 4432   6.897   2.577   2.199
 1490TIP3   OH2 4433   3.747   0.847   1.769
 1490TIP3    H1 4434   3.674   0.874   1.825
 1490TIP3    H2 4435   3.825   0.881   1.814
 1491TIP3   OH2 4436   2.708   3.393   3.360
 1491TIP3    H1 4437   2.655   3.345   3.425
 1491TIP3    H2 4438   2.668   3.480   3.356
 1492TIP3   OH2 4439   1.883   3.981   5.075
 1492TIP3    H1 4440   1.916   3.963   4.987
 1492TIP3    H2 4441   1.902   4.074   5.088
 1493TIP3   OH2 4442   0.112   2.805   5.861
 1493TIP3    H1 4443   0.018   2.812   5.876
 1493TIP3    H2 4444   0.137   2.725   5.907
 1494TIP3   OH2 4445   2.648   1.541   2.229
 1494TIP3    H1 4446   2.726   1.488   2.247
 1494TIP3    H2 4447   2.670   1.628   2.264
 1495TIP3   OH2 4448   1.711   4.893   2.242
 1495TIP3    H1 4449   1.638   4.874   2.183
 1495TIP3    H2 4450   1.670   4.936   2.317
 1496TIP3   OH2 4451   2.038   5.235   2.024
 1496TIP3    H1 4452   1.966   5.218   2.085
 1496TIP3    H2 4453   2.026   5.326   1.997
 1497TIP3   OH2 4454   5.153   1.528   1.291
 1497TIP3    H1 4455   5.164   1.604   1.348
 1497TIP3    H2 4456   5.081   1.551   1.233
 1498TIP3   OH2 4457   0.389   4.478   3.281
 1498TIP3    H1 4458   0.320   4.418   3.309
 1498TIP3    H2 4459   0.449   4.480   3.356
 1499TIP3   OH2 4460   1.570   3.960   5.877
 1499TIP3    H1 4461   1.550   3.900   5.805
 1499TIP3    H2 4462   1.485   3.977   5.918
 1500TIP3   OH2 4463   5.827   2.653   1.797
 1500TIP3    H1 4464   5.917   2.640   1.766
 1500TIP3    H2 4465   5.807   2.573   1.846
 1501TIP3   OH2 4466   1.476   6.162   5.749
 1501TIP3    H1 4467   1.476   6.257   5.737
 1501TIP3    H2 4468   1.461   6.149   5.843
 1502TIP3   OH2 4469   6.642   3.708   1.631
 1502TIP3    H1 4470   6.727   3.715   1.587
 1502TIP3    H2 4471   6.615   3.799   1.646
 1503TIP3   OH2 4472   4.638   4.576   0.806
 1503TIP3    H1 4473   4.722   4.569   0.851
 1503TIP3    H2 4474   4.596   4.491   0.820
 1504TIP3   OH2 4475   4.464   5.124   1.679
 1504TIP3    H1 4476   4.482   5.210   1.643
 1504TIP3    H2 4477   4.445   5.139   1.772
 1505TIP3   OH2 4478   4.003   5.164   0.637
 1505TIP3    H1 4479   3.952   5.202   0.708
 1505TIP3    H2 4480   3.997   5.229   0.566
 1506TIP3   OH2 4481   5.002   3.480   3.392
 1506TIP3    H1 4482   5.021   3.467   3.299
 1506TIP3    H2 4483   4.932   3.418   3.411
 1507TIP3   OH2 4484   1.139   0.866   0.641
 1507TIP3    H1 4485   1.057   0.830   0.607
 1507TIP3    H2 4486   1.203   0.795   0.630
 1508TIP3   OH2 4487   3.455   4.640   0.867
 1508TIP3    H1 4488   3.406   4.715   0.834
 1508TIP3    H2 4489   3.423   4.566   0.815
 1509TIP3   OH2 4490   2.327   3.330   0.239
 1509TIP3    H1 4491   2.376   3.249   0.253
 1509TIP3    H2 4492   2.359   3.390   0.307
 1510TIP3   OH2 4493   1.186   5.875   5.516
 1510TIP3    H1 4494   1.206   5.881   5.610
 1510TIP3    H2 4495   1.183   5.966   5.486
 1511TIP3   OH2 4496   2.692   3.828   0.811
 1511TIP3    H1 4497   2.683   3.808   0.904
 1511TIP3    H2 4498   2.621   3.888   0.792
 1512TIP3   OH2 4499   6.308   5.953   5.456
 1512TIP3    H1 4500   6.379   6.016   5.454
 1512TIP3    H2 4501   6.341   5.878   5.406
 1513TIP3   OH2 4502   1.130   4.510   5.258
 1513TIP3    H1 4503   1.107   4.420   5.236
 1513TIP3    H2 4504   1.117   4.558   5.177
 1514TIP3   OH2 4505   0.507   2.113   0.478
 1514TIP3    H1 4506   0.566   2.039   0.468
 1514TIP3    H2 4507   0.510   2.158   0.394
 1515TIP3   OH2 4508   3.591   3.680   5.037
 1515TIP3    H1 4509   3.583   3.775   5.029
 1515TIP3    H2 4510   3.534   3.645   4.968
 1516TIP3   OH2 4511   0.381   2.257   0.687
 1516TIP3    H1 4512   0.385   2.201   0.609
 1516TIP3    H2 4513   0.319   2.214   0.745
 1517TIP3   OH2 4514   0.757   5.360   4.649
 1517TIP3    H1 4515   0.709   5.430   4.605
 1517TIP3    H2 4516   0.777   5.297   4.579
 1518TIP3   OH2 4517   1.896   5.465   3.806
 1518TIP3    H1 4518   1.972   5.522   3.792
 1518TIP3    H2 4519   1.889   5.459   3.902
 1519TIP3   OH2 4520   2.274   6.829   2.121
 1519TIP3    H1 4521   2.256   6.749   2.074
 1519TIP3    H2 4522   2.332   6.879   2.064
 1520TIP3   OH2 4523   1.947   2.900   5.937
 1520TIP3    H1 4524   1.855   2.891   5.910
 1520TIP3    H2 4525   1.951   2.987   5.978
 1521TIP3   OH2 4526   3.564   2.040   0.979
 1521TIP3    H1 4527   3.503   1.967   0.975
 1521TIP3    H2 4528   3.519   2.112   0.935
 1522TIP3   OH2 4529   1.330   1.877   2.775
 1522TIP3    H1 4530   1.288   1.922   2.849
 1522TIP3    H2 4531   1.405   1.932   2.753
 1523TIP3   OH2 4532   2.525   5.831   4.747
 1523TIP3    H1 4533   2.530   5.926   4.731
 1523TIP3    H2 4534   2.517   5.792   4.660
 1524TIP3   OH2 4535   6.701   3.101   2.194
 1524TIP3    H1 4536   6.672   3.104   2.103
 1524TIP3    H2 4537   6.686   3.010   2.221
 1525TIP3   OH2 4538   0.057   0.719   2.426
 1525TIP3    H1 4539   0.014   0.796   2.389
 1525TIP3    H2 4540   0.090   0.748   2.511
 1526TIP3   OH2 4541   2.608   2.748   3.126
 1526TIP3    H1 4542   2.616   2.769   3.033
 1526TIP3    H2 4543   2.663   2.671   3.138
 1527TIP3   OH2 4544   5.633   4.510   3.699
 1527TIP3    H1 4545   5.562   4.519   3.635
 1527TIP3    H2 4546   5.593   4.530   3.783
 1528TIP3   OH2 4547   1.019   2.683   2.313
 1528TIP3    H1 4548   1.008   2.589   2.297
 1528TIP3    H2 4549   1.111   2.700   2.293
 1529TIP3   OH2 4550   6.701   4.313   3.892
 1529TIP3    H1 4551   6.705   4.219   3.875
 1529TIP3    H2 4552   6.748   4.324   3.975
 1530TIP3   OH2 4553   5.851   0.713   0.478
 1530TIP3    H1 4554   5.894   0.780   0.532
 1530TIP3    H2 4555   5.888   0.630   0.508
 1531TIP3   OH2 4556   0.837   2.218   3.959
 1531TIP3    H1 4557   0.759   2.272   3.963
 1531TIP3    H2 4558   0.876   2.238   3.874
 1532TIP3   OH2 4559   2.821   6.129   1.773
 1532TIP3    H1 4560   2.818   6.217   1.736
 1532TIP3    H2 4561   2.867   6.076   1.708
 1533TIP3   OH2 4562   0.459   3.014   3.531
 1533TIP3    H1 4563   0.419   3.080   3.587
 1533TIP3    H2 4564   0.425   2.931   3.564
 1534TIP3   OH2 4565   6.181   1.052   5.062
 1534TIP3    H1 4566   6.268   1.013   5.064
 1534TIP3    H2 4567   6.186   1.119   4.993
 1535TIP3   OH2 4568   0.412   0.715   1.629
 1535TIP3    H1 4569   0.318   0.704   1.610
 1535TIP3    H2 4570   0.446   0.626   1.634
 1536TIP3   OH2 4571   6.364   1.955   0.839
 1536TIP3    H1 4572   6.354   2.034   0.891
 1536TIP3    H2 4573   6.365   1.884   0.904
 1537TIP3   OH2 4574   1.073   0.692   3.228
 1537TIP3    H1 4575   1.120   0.682   3.146
 1537TIP3    H2 4576   1.131   0.745   3.283
 1538TIP3   OH2 4577   0.217   0.175   2.175
 1538TIP3    H1 4578   0.141   0.199   2.122
 1538TIP3    H2 4579   0.252   0.258   2.207
 1539TIP3   OH2 4580   1.256   5.414   0.297
 1539TIP3    H1 4581   1.260   5.353   0.371
 1539TIP3    H2 4582   1.240   5.499   0.337
 1540TIP3   OH2 4583   0.045   2.434   4.385
 1540TIP3    H1 4584   0.002   2.349   4.386
 1540TIP3    H2 4585   0.043   2.461   4.293
 1541TIP3   OH2 4586   5.532   0.100   3.813
 1541TIP3    H1 4587   5.499   0.024   3.764
 1541TIP3    H2 4588   5.476   0.105   3.891
 1542TIP3   OH2 4589   2.526   3.671   1.807
 1542TIP3    H1 4590   2.556   3.674   1.898
 1542TIP3    H2 4591   2.601   3.701   1.756
 1543TIP3   OH2 4592   5.153   2.534   2.913
 1543TIP3    H1 4593   5.145   2.458   2.854
 1543TIP3    H2 4594   5.065   2.548   2.946
 1544TIP3   OH2 4595   5.508   1.029   3.253
 1544TIP3    H1 4596   5.519   0.950   3.200
 1544TIP3    H2 4597   5.595   1.045   3.290
 1545TIP3   OH2 4598   0.103   4.676   4.046
 1545TIP3    H1 4599   0.189   4.696   4.085
 1545TIP3    H2 4600   0.076   4.595   4.089
 1546TIP3   OH2 4601   3.328   1.411   4.728
 1546TIP3    H1 4602   3.331   1.504   4.750
 1546TIP3    H2 4603   3.403   1.397   4.671
 1547TIP3   OH2 4604   6.606   3.198   2.911
 1547TIP3    H1 4605   6.580   3.124   2.856
 1547TIP3    H2 4606   6.525   3.248   2.924
 1548TIP3   OH2 4607   0.966   4.946   0.067
 1548TIP3    H1 4608   1.013   4.877   0.020
 1548TIP3    H2 4609   0.979   4.925   0.160
 1549TIP3   OH2 4610   2.255   5.388   2.986
 1549TIP3    H1 4611   2.268   5.442   2.908
 1549TIP3    H2 4612   2.228   5.302   2.952
 1550TIP3   OH2 4613   4.330   5.241   4.444
 1550TIP3    H1 4614   4.274   5.307   4.483
 1550TIP3    H2 4615   4.392   5.290   4.391
 1551TIP3   OH2 4616   5.068   1.212   1.976
 1551TIP3    H1 4617   5.014   1.203   2.054
 1551TIP3    H2 4618   5.071   1.125   1.937
 1552TIP3   OH2 4619   5.714   0.416   4.121
 1552TIP3    H1 4620   5.657   0.425   4.197
 1552TIP3    H2 4621   5.657   0.430   4.046
 1553TIP3   OH2 4622   0.346   0.275   0.957
 1553TIP3    H1 4623   0.370   0.199   1.011
 1553TIP3    H2 4624   0.417   0.282   0.893
 1554TIP3   OH2 4625   4.632   1.142   4.483
 1554TIP3    H1 4626   4.588   1.059   4.463
 1554TIP3    H2 4627   4.710   1.116   4.532
 1555TIP3   OH2 4628   1.508   6.786   2.623
 1555TIP3    H1 4629   1.507   6.735   2.542
 1555TIP3    H2 4630   1.577   6.851   2.610
 1556TIP3   OH2 4631   3.708   6.083   3.905
 1556TIP3    H1 4632   3.750   5.998   3.916
 1556TIP3    H2 4633   3.778   6.147   3.919
 1557TIP3   OH2 4634   5.040   2.314   1.118
 1557TIP3    H1 4635   5.051   2.299   1.024
 1557TIP3    H2 4636   5.066   2.406   1.130
 1558TIP3   OH2 4637   4.825   1.943   1.954
 1558TIP3    H1 4638   4.847   2.036   1.957
 1558TIP3    H2 4639   4.788   1.929   1.867
 1559TIP3   OH2 4640   6.981   4.200   3.600
 1559TIP3    H1 4641   6.914   4.267   3.608
 1559TIP3    H2 4642   7.008   4.204   3.508
 1560TIP3   OH2 4643   4.937   5.718   5.165
 1560TIP3    H1 4644   4.993   5.644   5.188
 1560TIP3    H2 4645   4.995   5.793   5.161
 1561TIP3   OH2 4646   2.298   6.542   1.405
 1561TIP3    H1 4647   2.310   6.451   1.377
 1561TIP3    H2 4648   2.333   6.593   1.332
 1562TIP3   OH2 4649   3.547   6.584   0.539
 1562TIP3    H1 4650   3.607   6.589   0.464
 1562TIP3    H2 4651   3.485   6.515   0.515
 1563TIP3   OH2 4652   3.598   5.027   2.271
 1563TIP3    H1 4653   3.552   4.943   2.267
 1563TIP3    H2 4654   3.667   5.014   2.336
 1564TIP3   OH2 4655   6.911   0.755   2.973
 1564TIP3    H1 4656   6.947   0.674   3.010
 1564TIP3    H2 4657   6.883   0.731   2.885
 1565TIP3   OH2 4658   0.040   3.357   2.414
 1565TIP3    H1 4659   0.055   3.358   2.319
 1565TIP3    H2 4660   0.086   3.280   2.445
 1566TIP3   OH2 4661   5.710   3.794   5.230
 1566TIP3    H1 4662   5.765   3.715   5.229
 1566TIP3    H2 4663   5.652   3.784   5.155
 1567TIP3   OH2 4664   2.715   2.480   5.097
 1567TIP3    H1 4665   2.782   2.527   5.147
 1567TIP3    H2 4666   2.638   2.537   5.104
 1568TIP3   OH2 4667   5.321   4.969   3.067
 1568TIP3    H1 4668   5.415   4.986   3.067
 1568TIP3    H2 4669   5.295   4.975   3.158
 1569TIP3   OH2 4670   4.530   3.434   2.218
 1569TIP3    H1 4671   4.592   3.503   2.196
 1569TIP3    H2 4672   4.571   3.353   2.188
 1570TIP3   OH2 4673   2.390   0.894   2.816
 1570TIP3    H1 4674   2.419   0.950   2.744
 1570TIP3    H2 4675   2.405   0.946   2.895
 1571TIP3   OH2 4676   4.373   6.476   0.651
 1571TIP3    H1 4677   4.355   6.443   0.739
 1571TIP3    H2 4678   4.452   6.529   0.661
 1572TIP3   OH2 4679   3.452   2.602   4.333
 1572TIP3    H1 4680   3.406   2.536   4.281
 1572TIP3    H2 4681   3.475   2.670   4.270
 1573TIP3   OH2 4682   6.553   3.091   0.075
 1573TIP3    H1 4683   6.594   3.005   0.073
 1573TIP3    H2 4684   6.463   3.076   0.103
 1574TIP3   OH2 4685   3.640   3.450   2.944
 1574TIP3    H1 4686   3.678   3.523   2.895
 1574TIP3    H2 4687   3.610   3.489   3.026
 1575TIP3   OH2 4688   1.248   1.850   5.721
 1575TIP3    H1 4689   1.342   1.846   5.737
 1575TIP3    H2 4690   1.240   1.862   5.627
 1576TIP3   OH2 4691   0.103   0.300   3.735
 1576TIP3    H1 4692   0.012   0.277   3.752
 1576TIP3    H2 4693   0.100   0.359   3.660
 1577TIP3   OH2 4694   5.413   5.478   5.210
 1577TIP3    H1 4695   5.496   5.519   5.186
 1577TIP3    H2 4696   5.430   5.440   5.297
 1578TIP3   OH2 4697   5.563   0.365   1.200
 1578TIP3    H1 4698   5.565   0.305   1.275
 1578TIP3    H2 4699   5.655   0.376   1.177
 1579TIP3   OH2 4700   4.652   2.714   3.946
 1579TIP3    H1 4701   4.609   2.633   3.920
 1579TIP3    H2 4702   4.594   2.783   3.913
 1580TIP3   OH2 4703   0.988   0.676   5.048
 1580TIP3    H1 4704   0.978   0.647   4.958
 1580TIP3    H2 4705   0.957   0.766   5.049
 1581TIP3   OH2 4706   2.006   6.604   1.723
 1581TIP3    H1 4707   2.025   6.515   1.751
 1581TIP3    H2 4708   1.942   6.637   1.786
 1582TIP3   OH2 4709   3.382   1.471   0.852
 1582TIP3    H1 4710   3.327   1.393   0.854
 1582TIP3    H2 4711   3.351   1.524   0.925
 1583TIP3   OH2 4712   6.813   1.721   3.914
 1583TIP3    H1 4713   6.873   1.731   3.839
 1583TIP3    H2 4714   6.783   1.810   3.933
 1584TIP3   OH2 4715   3.269   6.584   0.350
 1584TIP3    H1 4716   3.268   6.507   0.407
 1584TIP3    H2 4717   3.281   6.549   0.262
 1585TIP3   OH2 4718   2.804   1.527   0.507
 1585TIP3    H1 4719   2.722   1.568   0.479
 1585TIP3    H2 4720   2.821   1.566   0.593
 1586TIP3   OH2 4721   6.841   2.109   4.490
 1586TIP3    H1 4722   6.912   2.168   4.465
 1586TIP3    H2 4723   6.778   2.115   4.418
 1587TIP3   OH2 4724   0.994   3.671   4.630
 1587TIP3    H1 4725   1.019   3.662   4.722
 1587TIP3    H2 4726   1.003   3.583   4.594
 1588TIP3   OH2 4727   6.497   0.696   2.275
 1588TIP3    H1 4728   6.479   0.699   2.369
 1588TIP3    H2 4729   6.471   0.782   2.242
 1589TIP3   OH2 4730   2.107   4.579   4.553
 1589TIP3    H1 4731   2.166   4.504   4.552
 1589TIP3    H2 4732   2.038   4.555   4.614
 1590TIP3   OH2 4733   5.527   0.095   3.040
 1590TIP3    H1 4734   5.552   0.187   3.033
 1590TIP3    H2 4735   5.605   0.046   3.013
 1591TIP3   OH2 4736   6.559   4.954   3.596
 1591TIP3    H1 4737   6.506   5.033   3.600
 1591TIP3    H2 4738   6.540   4.908   3.678
 1592TIP3   OH2 4739   6.554   1.023   1.589
 1592TIP3    H1 4740   6.527   1.006   1.498
 1592TIP3    H2 4741   6.489   1.086   1.622
 1593TIP3   OH2 4742   3.135   1.250   5.140
 1593TIP3    H1 4743   3.069   1.182   5.152
 1593TIP3    H2 4744   3.112   1.317   5.204
 1594TIP3   OH2 4745   4.451   2.121   3.528
 1594TIP3    H1 4746   4.374   2.063   3.528
 1594TIP3    H2 4747   4.516   2.075   3.580
 1595TIP3   OH2 4748   2.709   4.487   0.585
 1595TIP3    H1 4749   2.696   4.566   0.637
 1595TIP3    H2 4750   2.660   4.504   0.504
 1596TIP3   OH2 4751   4.121   1.688   5.760
 1596TIP3    H1 4752   4.110   1.619   5.826
 1596TIP3    H2 4753   4.031   1.708   5.732
 1597TIP3   OH2 4754   0.603   0.183   0.836
 1597TIP3    H1 4755   0.631   0.274   0.831
 1597TIP3    H2 4756   0.684   0.134   0.853
 1598TIP3   OH2 4757   5.674   0.639   1.795
 1598TIP3    H1 4758   5.686   0.732   1.814
 1598TIP3    H2 4759   5.717   0.627   1.711
 1599TIP3   OH2 4760   0.789   2.474   4.204
 1599TIP3    H1 4761   0.862   2.469   4.265
 1599TIP3    H2 4762   0.722   2.417   4.241
 1600TIP3   OH2 4763   4.778   0.803   4.233
 1600TIP3    H1 4764   4.722   0.870   4.272
 1600TIP3    H2 4765   4.854   0.852   4.200
 1601TIP3   OH2 4766   2.475   3.395   5.381
 1601TIP3    H1 4767   2.446   3.478   5.417
 1601TIP3    H2 4768   2.570   3.397   5.388
 1602TIP3   OH2 4769   4.139   2.448   1.291
 1602TIP3    H1 4770   4.118   2.493   1.373
 1602TIP3    H2 4771   4.197   2.376   1.317
 1603TIP3   OH2 4772   3.299   0.193   3.236
 1603TIP3    H1 4773   3.301   0.288   3.243
 1603TIP3    H2 4774   3.235   0.165   3.301
 1604TIP3   OH2 4775   6.442   2.537   0.989
 1604TIP3    H1 4776   6.458   2.631   0.996
 1604TIP3    H2 4777   6.460   2.503   1.077
 1605TIP3   OH2 4778   5.730   5.898   5.305
 1605TIP3    H1 4779   5.683   5.917   5.224
 1605TIP3    H2 4780   5.799   5.964   5.310
 1606TIP3   OH2 4781   2.826   3.963   5.215
 1606TIP3    H1 4782   2.898   3.950   5.153
 1606TIP3    H2 4783   2.750   3.925   5.172
 1607TIP3   OH2 4784   7.038   6.177   3.107
 1607TIP3    H1 4785   7.075   6.108   3.052
 1607TIP3    H2 4786   6.956   6.201   3.065
 1608TIP3   OH2 4787   5.461   2.973   0.545
 1608TIP3    H1 4788   5.472   2.953   0.638
 1608TIP3    H2 4789   5.471   3.069   0.540
 1609TIP3   OH2 4790   5.423   1.676   3.102
 1609TIP3    H1 4791   5.338   1.677   3.059
 1609TIP3    H2 4792   5.407   1.637   3.188
 1610TIP3   OH2 4793   6.519   3.899   2.191
 1610TIP3    H1 4794   6.444   3.841   2.192
 1610TIP3    H2 4795   6.566   3.878   2.272
 1611TIP3   OH2 4796   3.337   2.338   5.625
 1611TIP3    H1 4797   3.314   2.407   5.562
 1611TIP3    H2 4798   3.342   2.382   5.709
 1612TIP3   OH2 4799   4.308   1.767   2.719
 1612TIP3    H1 4800   4.371   1.754   2.789
 1612TIP3    H2 4801   4.343   1.841   2.669
 1613TIP3   OH2 4802   6.631   4.965   5.171
 1613TIP3    H1 4803   6.605   5.056   5.156
 1613TIP3    H2 4804   6.577   4.914   5.111
 1614TIP3   OH2 4805   7.092   2.339   3.369
 1614TIP3    H1 4806   6.999   2.344   3.347
 1614TIP3    H2 4807   7.137   2.350   3.285
 1615TIP3   OH2 4808   0.323   2.535   5.810
 1615TIP3    H1 4809   0.337   2.457   5.757
 1615TIP3    H2 4810   0.362   2.514   5.895
 1616TIP3   OH2 4811   5.892   0.141   5.486
 1616TIP3    H1 4812   5.887   0.049   5.509
 1616TIP3    H2 4813   5.969   0.149   5.430
 1617TIP3   OH2 4814   0.634   4.511   1.575
 1617TIP3    H1 4815   0.709   4.483   1.523
 1617TIP3    H2 4816   0.581   4.564   1.516
 1618TIP3   OH2 4817   3.884   4.364   0.813
 1618TIP3    H1 4818   3.862   4.445   0.767
 1618TIP3    H2 4819   3.815   4.353   0.878
 1619TIP3   OH2 4820   2.946   4.681   5.873
 1619TIP3    H1 4821   2.940   4.693   5.778
 1619TIP3    H2 4822   2.907   4.760   5.910
 1620TIP3   OH2 4823   5.321   0.618   0.017
 1620TIP3    H1 4824   5.239   0.585   0.053
 1620TIP3    H2 4825   5.311   0.713   0.015
 1621TIP3   OH2 4826   3.548   6.205   1.158
 1621TIP3    H1 4827   3.574   6.196   1.067
 1621TIP3    H2 4828   3.534   6.298   1.170
 1622TIP3   OH2 4829   3.368   0.137   0.983
 1622TIP3    H1 4830   3.433   0.069   0.963
 1622TIP3    H2 4831   3.294   0.118   0.926
 1623TIP3   OH2 4832   4.445   5.207   4.845
 1623TIP3    H1 4833   4.522   5.257   4.873
 1623TIP3    H2 4834   4.394   5.268   4.793
 1624TIP3   OH2 4835   5.247   5.677   0.466
 1624TIP3    H1 4836   5.339   5.665   0.443
 1624TIP3    H2 4837   5.212   5.733   0.397
 1625TIP3   OH2 4838   3.310   6.366   3.565
 1625TIP3    H1 4839   3.320   6.460   3.579
 1625TIP3    H2 4840   3.216   6.350   3.576
 1626TIP3   OH2 4841   2.074   3.222   3.605
 1626TIP3    H1 4842   2.163   3.246   3.632
 1626TIP3    H2 4843   2.021   3.299   3.624
 1627TIP3   OH2 4844   2.247   1.594   1.417
 1627TIP3    H1 4845   2.339   1.587   1.392
 1627TIP3    H2 4846   2.249   1.606   1.512
 1628TIP3   OH2 4847   6.064   0.540   2.654
 1628TIP3    H1 4848   6.052   0.471   2.590
 1628TIP3    H2 4849   6.136   0.593   2.619
 1629TIP3   OH2 4850   5.290   0.074   4.881
 1629TIP3    H1 4851   5.331   0.037   4.960
 1629TIP3    H2 4852   5.364   0.102   4.827
 1630TIP3   OH2 4853   6.037   5.895   5.383
 1630TIP3    H1 4854   6.031   5.865   5.474
 1630TIP3    H2 4855   6.129   5.921   5.372
 1631TIP3   OH2 4856   1.475   3.407   1.473
 1631TIP3    H1 4857   1.432   3.491   1.483
 1631TIP3    H2 4858   1.533   3.400   1.549
 1632TIP3   OH2 4859   5.594   2.068   3.898
 1632TIP3    H1 4860   5.658   1.997   3.890
 1632TIP3    H2 4861   5.514   2.025   3.930
 1633TIP3   OH2 4862   4.867   5.093   1.016
 1633TIP3    H1 4863   4.937   5.049   1.065
 1633TIP3    H2 4864   4.800   5.025   1.006
 1634TIP3   OH2 4865   1.040   4.327   5.070
 1634TIP3    H1 4866   1.096   4.349   4.995
 1634TIP3    H2 4867   1.017   4.235   5.056
 1635TIP3   OH2 4868   0.875   2.089   1.536
 1635TIP3    H1 4869   0.929   2.071   1.613
 1635TIP3    H2 4870   0.794   2.125   1.571
 1636TIP3   OH2 4871   3.757   0.697   0.468
 1636TIP3    H1 4872   3.697   0.767   0.492
 1636TIP3    H2 4873   3.815   0.736   0.402
 1637TIP3   OH2 4874   4.229   3.951   5.062
 1637TIP3    H1 4875   4.300   3.896   5.027
 1637TIP3    H2 4876   4.221   4.022   4.998
 1638TIP3   OH2 4877   0.604   1.847   0.528
 1638TIP3    H1 4878   0.682   1.903   0.530
 1638TIP3    H2 4879   0.639   1.758   0.521
 1639TIP3   OH2 4880   5.871   1.062   2.687
 1639TIP3    H1 4881   5.903   1.084   2.599
 1639TIP3    H2 4882   5.948   1.070   2.743
 1640TIP3   OH2 4883   0.437   4.596   5.313
 1640TIP3    H1 4884   0.368   4.663   5.312
 1640TIP3    H2 4885   0.515   4.643   5.341
 1641TIP3   OH2 4886   4.214   4.913   3.242
 1641TIP3    H1 4887   4.180   4.824   3.252
 1641TIP3    H2 4888   4.303   4.909   3.277
 1642TIP3   OH2 4889   1.266   2.598   0.008
 1642TIP3    H1 4890   1.331   2.551  -0.044
 1642TIP3    H2 4891   1.239   2.536   0.076
 1643TIP3   OH2 4892   4.435   6.198   0.554
 1643TIP3    H1 4893   4.461   6.209   0.462
 1643TIP3    H2 4894   4.437   6.286   0.590
 1644TIP3   OH2 4895   1.311   2.926   1.816
 1644TIP3    H1 4896   1.399   2.953   1.788
 1644TIP3    H2 4897   1.283   2.994   1.877
 1645TIP3   OH2 4898   6.268   6.459   4.554
 1645TIP3    H1 4899   6.333   6.399   4.591
 1645TIP3    H2 4900   6.293   6.468   4.462
 1646TIP3   OH2 4901  -0.050   2.949   3.588
 1646TIP3    H1 4902  -0.009   2.972   3.505
 1646TIP3    H2 4903  -0.100   2.870   3.569
 1647TIP3   OH2 4904   6.279   6.797   3.411
 1647TIP3    H1 4905   6.187   6.785   3.433
 1647TIP3    H2 4906   6.282   6.794   3.316
 1648TIP3   OH2 4907   4.437   4.240   3.494
 1648TIP3    H1 4908   4.485   4.300   3.437
 1648TIP3    H2 4909   4.482   4.156   3.483
 1649TIP3   OH2 4910   6.282   5.257   4.718
 1649TIP3    H1 4911   6.278   5.179   4.664
 1649TIP3    H2 4912   6.326   5.322   4.663
 1650TIP3   OH2 4913   3.065   3.515   2.915
 1650TIP3    H1 4914   3.043   3.602   2.882
 1650TIP3    H2 4915   3.012   3.505   2.994
 1651TIP3   OH2 4916   1.137   1.162   2.268
 1651TIP3    H1 4917   1.193   1.111   2.209
 1651TIP3    H2 4918   1.195   1.188   2.339
 1652TIP3   OH2 4919   4.732   0.280   2.022
 1652TIP3    H1 4920   4.641   0.306   2.008
 1652TIP3    H2 4921   4.781   0.322   1.952
 1653TIP3   OH2 4922   1.331   0.102   5.415
 1653TIP3    H1 4923   1.315   0.008   5.424
 1653TIP3    H2 4924   1.405   0.108   5.354
 1654TIP3   OH2 4925   6.313   3.359   4.903
 1654TIP3    H1 4926   6.405   3.386   4.906
 1654TIP3    H2 4927   6.307   3.297   4.831
 1655TIP3   OH2 4928   1.189   6.758   1.221
 1655TIP3    H1 4929   1.126   6.692   1.194
 1655TIP3    H2 4930   1.137   6.838   1.230
 1656TIP3   OH2 4931   5.404   5.506   2.731
 1656TIP3    H1 4932   5.500   5.502   2.728
 1656TIP3    H2 4933   5.378   5.423   2.770
 1657TIP3   OH2 4934   6.611   3.227   1.815
 1657TIP3    H1 4935   6.548   3.299   1.822
 1657TIP3    H2 4936   6.688   3.266   1.774
 1658TIP3   OH2 4937   6.605   5.809   0.828
 1658TIP3    H1 4938   6.630   5.717   0.818
 1658TIP3    H2 4939   6.512   5.806   0.852
 1659TIP3   OH2 4940   4.093   0.613   2.637
 1659TIP3    H1 4941   4.164   0.677   2.630
 1659TIP3    H2 4942   4.016   0.665   2.660
 1660TIP3   OH2 4943   2.826   2.586   3.141
 1660TIP3    H1 4944   2.888   2.647   3.100
 1660TIP3    H2 4945   2.859   2.575   3.230
 1661TIP3   OH2 4946   1.939   5.707   2.367
 1661TIP3    H1 4947   1.897   5.692   2.452
 1661TIP3    H2 4948   1.925   5.626   2.319
 1662TIP3   OH2 4949   3.857   0.247   0.581
 1662TIP3    H1 4950   3.794   0.318   0.567
 1662TIP3    H2 4951   3.935   0.291   0.613
 1663TIP3   OH2 4952   1.721   1.269   4.492
 1663TIP3    H1 4953   1.802   1.320   4.489
 1663TIP3    H2 4954   1.654   1.328   4.457
 1664TIP3   OH2 4955   3.264   0.952   3.244
 1664TIP3    H1 4956   3.233   1.014   3.311
 1664TIP3    H2 4957   3.358   0.942   3.263
 1665TIP3   OH2 4958   5.207   2.911   1.558
 1665TIP3    H1 4959   5.217   2.826   1.601
 1665TIP3    H2 4960   5.114   2.930   1.563
 1666TIP3   OH2 4961   2.004   5.042   3.610
 1666TIP3    H1 4962   2.034   5.120   3.564
 1666TIP3    H2 4963   1.926   5.014   3.561
 1667TIP3   OH2 4964   6.866   1.174   1.285
 1667TIP3    H1 4965   6.824   1.153   1.202
 1667TIP3    H2 4966   6.881   1.089   1.327
 1668TIP3   OH2 4967   3.918   1.615   1.447
 1668TIP3    H1 4968   3.896   1.697   1.491
 1668TIP3    H2 4969   3.940   1.641   1.357
 1669TIP3   OH2 4970   3.522   5.371   1.299
 1669TIP3    H1 4971   3.450   5.412   1.347
 1669TIP3    H2 4972   3.486   5.290   1.265
 1670TIP3   OH2 4973   4.495   0.963   1.001
 1670TIP3    H1 4974   4.590   0.975   0.994
 1670TIP3    H2 4975   4.485   0.896   1.069
 1671TIP3   OH2 4976   3.396   6.220   2.010
 1671TIP3    H1 4977   3.448   6.140   2.005
 1671TIP3    H2 4978   3.355   6.217   2.097
 1672TIP3   OH2 4979   2.180   2.763   4.417
 1672TIP3    H1 4980   2.248   2.746   4.482
 1672TIP3    H2 4981   2.226   2.764   4.333
 1673TIP3   OH2 4982   3.679   5.033   1.963
 1673TIP3    H1 4983   3.721   5.112   1.996
 1673TIP3    H2 4984   3.618   5.008   2.032
 1674TIP3   OH2 4985   3.538   6.799   3.995
 1674TIP3    H1 4986   3.471   6.731   4.000
 1674TIP3    H2 4987   3.492   6.874   3.956
 1675TIP3   OH2 4988   1.169   5.673   0.107
 1675TIP3    H1 4989   1.139   5.758   0.141
 1675TIP3    H2 4990   1.106   5.610   0.140
 1676TIP3   OH2 4991   6.219   4.137   5.628
 1676TIP3    H1 4992   6.163   4.092   5.692
 1676TIP3    H2 4993   6.164   4.145   5.550
 1677TIP3   OH2 4994   1.807   3.238   4.581
 1677TIP3    H1 4995   1.802   3.326   4.545
 1677TIP3    H2 4996   1.879   3.242   4.644
 1678TIP3   OH2 4997   5.130   1.623   1.986
 1678TIP3    H1 4998   5.054   1.682   1.994
 1678TIP3    H2 4999   5.092   1.535   1.987
 1679TIP3   OH2 5000   2.803   0.730   0.488
 1679TIP3    H1 5001   2.714   0.740   0.454
 1679TIP3    H2 5002   2.798   0.656   0.548
 1680TIP3   OH2 5003   5.688   2.314   1.857
 1680TIP3    H1 5004   5.689   2.252   1.783
 1680TIP3    H2 5005   5.757   2.282   1.915
 1681TIP3   OH2 5006   4.428   1.283   1.489
 1681TIP3    H1 5007   4.345   1.327   1.469
 1681TIP3    H2 5008   4.481   1.350   1.533
 1682TIP3   OH2 5009   1.700   2.635   2.765
 1682TIP3    H1 5010   1.754   2.714   2.760
 1682TIP3    H2 5011   1.654   2.631   2.681
 1683TIP3   OH2 5012   2.964   4.339   2.596
 1683TIP3    H1 5013   2.926   4.396   2.529
 1683TIP3    H2 5014   2.921   4.255   2.583
 1684TIP3   OH2 5015   3.252   4.047   1.091
 1684TIP3    H1 5016   3.344   4.027   1.111
 1684TIP3    H2 5017   3.227   4.112   1.156
 1685TIP3   OH2 5018   0.871   3.515   4.249
 1685TIP3    H1 5019   0.796   3.572   4.270
 1685TIP3    H2 5020   0.904   3.487   4.334
 1686TIP3   OH2 5021   2.467   5.771   3.099
 1686TIP3    H1 5022   2.524   5.735   3.031
 1686TIP3    H2 5023   2.447   5.697   3.155
 1687TIP3   OH2 5024   3.174   5.565   0.683
 1687TIP3    H1 5025   3.189   5.583   0.776
 1687TIP3    H2 5026   3.198   5.647   0.639
 1688TIP3   OH2 5027   0.391   1.109   2.346
 1688TIP3    H1 5028   0.443   1.149   2.276
 1688TIP3    H2 5029   0.415   1.158   2.425
 1689TIP3   OH2 5030   7.096   6.338   4.339
 1689TIP3    H1 5031   7.105   6.255   4.384
 1689TIP3    H2 5032   7.181   6.352   4.296
 1690TIP3   OH2 5033   4.164   4.519   0.281
 1690TIP3    H1 5034   4.161   4.446   0.218
 1690TIP3    H2 5035   4.171   4.476   0.366
 1691TIP3   OH2 5036   4.546   5.153   3.003
 1691TIP3    H1 5037   4.538   5.058   3.010
 1691TIP3    H2 5038   4.553   5.170   2.910
 1692TIP3   OH2 5039   6.651   6.370   3.786
 1692TIP3    H1 5040   6.695   6.348   3.703
 1692TIP3    H2 5041   6.689   6.454   3.812
 1693TIP3   OH2 5042   0.474   3.822   4.304
 1693TIP3    H1 5043   0.502   3.731   4.312
 1693TIP3    H2 5044   0.381   3.820   4.327
 1694TIP3   OH2 5045   1.888   6.442   4.270
 1694TIP3    H1 5046   1.841   6.508   4.219
 1694TIP3    H2 5047   1.845   6.443   4.356
 1695TIP3   OH2 5048   7.197   4.624   4.683
 1695TIP3    H1 5049   7.256   4.594   4.614
 1695TIP3    H2 5050   7.255   4.656   4.752
 1696TIP3   OH2 5051   1.254   5.197   4.024
 1696TIP3    H1 5052   1.169   5.231   4.052
 1696TIP3    H2 5053   1.264   5.228   3.934
 1697TIP3   OH2 5054   5.677   1.529   1.632
 1697TIP3    H1 5055   5.729   1.460   1.673
 1697TIP3    H2 5056   5.588   1.494   1.629
 1698TIP3   OH2 5057   5.898   6.356   2.500
 1698TIP3    H1 5058   5.804   6.351   2.513
 1698TIP3    H2 5059   5.911   6.338   2.407
 1699TIP3   OH2 5060   4.133   3.667   3.903
 1699TIP3    H1 5061   4.183   3.597   3.861
 1699TIP3    H2 5062   4.047   3.629   3.918
 1700TIP3   OH2 5063   0.599   4.007   3.907
 1700TIP3    H1 5064   0.640   4.092   3.921
 1700TIP3    H2 5065   0.670   3.944   3.922
 1701TIP3   OH2 5066   6.740   5.588   0.796
 1701TIP3    H1 5067   6.823   5.543   0.783
 1701TIP3    H2 5068   6.674   5.522   0.774
 1702TIP3   OH2 5069   4.099   0.342   4.521
 1702TIP3    H1 5070   4.140   0.428   4.511
 1702TIP3    H2 5071   4.160   0.292   4.574
 1703TIP3   OH2 5072   2.029   4.678   0.981
 1703TIP3    H1 5073   2.078   4.748   0.938
 1703TIP3    H2 5074   2.096   4.615   1.008
 1704TIP3   OH2 5075   5.603   4.340   5.125
 1704TIP3    H1 5076   5.588   4.284   5.201
 1704TIP3    H2 5077   5.699   4.349   5.121
 1705TIP3   OH2 5078   7.085   6.367   2.441
 1705TIP3    H1 5079   7.077   6.298   2.506
 1705TIP3    H2 5080   7.106   6.321   2.360
 1706TIP3   OH2 5081   2.875   2.028   1.336
 1706TIP3    H1 5082   2.839   2.055   1.420
 1706TIP3    H2 5083   2.804   2.043   1.273
 1707TIP3   OH2 5084   4.278   2.748   4.861
 1707TIP3    H1 5085   4.295   2.819   4.799
 1707TIP3    H2 5086   4.325   2.673   4.824
 1708TIP3   OH2 5087   1.487   6.171   2.808
 1708TIP3    H1 5088   1.511   6.260   2.781
 1708TIP3    H2 5089   1.474   6.124   2.726
 1709TIP3   OH2 5090   6.944   4.612   1.804
 1709TIP3    H1 5091   6.994   4.536   1.776
 1709TIP3    H2 5092   6.917   4.655   1.723
 1710TIP3   OH2 5093   3.401   2.471   4.588
 1710TIP3    H1 5094   3.409   2.519   4.505
 1710TIP3    H2 5095   3.461   2.517   4.647
 1711TIP3   OH2 5096   6.351   1.088   5.707
 1711TIP3    H1 5097   6.427   1.065   5.653
 1711TIP3    H2 5098   6.326   1.175   5.678
 1712TIP3   OH2 5099   1.430   3.883   1.273
 1712TIP3    H1 5100   1.456   3.962   1.225
 1712TIP3    H2 5101   1.334   3.890   1.279
 1713TIP3   OH2 5102   5.162   0.844   4.403
 1713TIP3    H1 5103   5.153   0.762   4.354
 1713TIP3    H2 5104   5.200   0.905   4.341
 1714TIP3   OH2 5105   7.148   0.137   0.414
 1714TIP3    H1 5106   7.157   0.209   0.477
 1714TIP3    H2 5107   7.054   0.119   0.412
 1715TIP3   OH2 5108   6.913   1.124   3.228
 1715TIP3    H1 5109   6.930   1.040   3.272
 1715TIP3    H2 5110   6.938   1.108   3.137
 1716TIP3   OH2 5111   3.123   5.878   1.105
 1716TIP3    H1 5112   3.162   5.963   1.081
 1716TIP3    H2 5113   3.196   5.829   1.143
 1717TIP3   OH2 5114   2.179   3.905   1.452
 1717TIP3    H1 5115   2.242   3.953   1.506
 1717TIP3    H2 5116   2.093   3.934   1.483
 1718TIP3   OH2 5117   2.454   5.089   3.170
 1718TIP3    H1 5118   2.453   5.002   3.128
 1718TIP3    H2 5119   2.392   5.081   3.242
 1719TIP3   OH2 5120   0.288   5.469   0.141
 1719TIP3    H1 5121   0.248   5.555   0.132
 1719TIP3    H2 5122   0.217   5.412   0.169
 1720TIP3   OH2 5123   3.859   6.838   0.882
 1720TIP3    H1 5124   3.919   6.902   0.920
 1720TIP3    H2 5125   3.916   6.775   0.837
 1721TIP3   OH2 5126   1.847   0.798   4.064
 1721TIP3    H1 5127   1.915   0.862   4.087
 1721TIP3    H2 5128   1.809   0.773   4.147
 1722TIP3   OH2 5129   2.833   4.485   1.246
 1722TIP3    H1 5130   2.893   4.494   1.320
 1722TIP3    H2 5131   2.779   4.564   1.249
 1723TIP3   OH2 5132   1.676   6.519   3.301
 1723TIP3    H1 5133   1.645   6.567   3.379
 1723TIP3    H2 5134   1.741   6.578   3.262
 1724TIP3   OH2 5135   3.108   2.327   2.950
 1724TIP3    H1 5136   3.147   2.407   2.914
 1724TIP3    H2 5137   3.013   2.341   2.941
 1725TIP3   OH2 5138   2.248   4.685   1.493
 1725TIP3    H1 5139   2.249   4.747   1.566
 1725TIP3    H2 5140   2.267   4.738   1.416
 1726TIP3   OH2 5141   0.277   4.804   5.361
 1726TIP3    H1 5142   0.206   4.831   5.419
 1726TIP3    H2 5143   0.325   4.884   5.343
 1727TIP3   OH2 5144   4.046   5.313   4.612
 1727TIP3    H1 5145   4.079   5.247   4.550
 1727TIP3    H2 5146   3.978   5.359   4.563
 1728TIP3   OH2 5147   4.570   0.784   0.761
 1728TIP3    H1 5148   4.549   0.831   0.842
 1728TIP3    H2 5149   4.664   0.766   0.768
 1729TIP3   OH2 5150   3.053   4.039   3.698
 1729TIP3    H1 5151   3.148   4.032   3.704
 1729TIP3    H2 5152   3.030   4.104   3.765
 1730TIP3   OH2 5153   2.070   0.859   1.542
 1730TIP3    H1 5154   2.080   0.771   1.577
 1730TIP3    H2 5155   2.013   0.903   1.605
 1731TIP3   OH2 5156   6.197   5.892   0.701
 1731TIP3    H1 5157   6.227   5.840   0.776
 1731TIP3    H2 5158   6.276   5.909   0.650
 1732TIP3   OH2 5159   0.966   4.952   4.739
 1732TIP3    H1 5160   1.013   4.930   4.820
 1732TIP3    H2 5161   0.888   5.000   4.768
 1733TIP3   OH2 5162   1.030   1.246   3.997
 1733TIP3    H1 5163   1.097   1.314   4.006
 1733TIP3    H2 5164   1.057   1.178   4.059
 1734TIP3   OH2 5165   2.209   1.536   0.890
 1734TIP3    H1 5166   2.300   1.507   0.885
 1734TIP3    H2 5167   2.196   1.585   0.809
 1735TIP3   OH2 5168   7.083   0.253   4.695
 1735TIP3    H1 5169   7.173   0.284   4.692
 1735TIP3    H2 5170   7.086   0.166   4.654
 1736TIP3   OH2 5171   5.509   4.653   5.459
 1736TIP3    H1 5172   5.507   4.749   5.466
 1736TIP3    H2 5173   5.501   4.623   5.550
 1737TIP3   OH2 5174   3.799   4.240   0.287
 1737TIP3    H1 5175   3.722   4.213   0.237
 1737TIP3    H2 5176   3.790   4.196   0.371
 1738TIP3   OH2 5177   6.365   4.499   3.621
 1738TIP3    H1 5178   6.444   4.532   3.664
 1738TIP3    H2 5179   6.303   4.485   3.692
 1739TIP3   OH2 5180   0.345   3.689   4.033
 1739TIP3    H1 5181   0.346   3.762   4.096
 1739TIP3    H2 5182   0.438   3.671   4.017
 1740TIP3   OH2 5183   6.856   0.239   0.296
 1740TIP3    H1 5184   6.792   0.265   0.362
 1740TIP3    H2 5185   6.869   0.317   0.243
 1741TIP3   OH2 5186   1.360   0.993   5.297
 1741TIP3    H1 5187   1.350   0.899   5.307
 1741TIP3    H2 5188   1.455   1.008   5.297
 1742TIP3   OH2 5189   2.503   1.090   2.665
 1742TIP3    H1 5190   2.554   1.126   2.593
 1742TIP3    H2 5191   2.566   1.077   2.736
 1743TIP3   OH2 5192   5.963   4.314   4.068
 1743TIP3    H1 5193   6.003   4.240   4.113
 1743TIP3    H2 5194   6.019   4.389   4.091
 1744TIP3   OH2 5195   0.967   4.643   1.413
 1744TIP3    H1 5196   0.998   4.589   1.340
 1744TIP3    H2 5197   0.890   4.689   1.377
 1745TIP3   OH2 5198   2.056   5.029   3.208
 1745TIP3    H1 5199   1.996   4.956   3.193
 1745TIP3    H2 5200   2.133   5.008   3.157
 1746TIP3   OH2 5201   4.449   6.281   5.246
 1746TIP3    H1 5202   4.439   6.191   5.213
 1746TIP3    H2 5203   4.364   6.302   5.284
 1747TIP3   OH2 5204   5.578   0.861   0.592
 1747TIP3    H1 5205   5.605   0.900   0.509
 1747TIP3    H2 5206   5.489   0.894   0.606
 1748TIP3   OH2 5207   4.589   3.108   0.188
 1748TIP3    H1 5208   4.527   3.038   0.168
 1748TIP3    H2 5209   4.673   3.063   0.202
 1749TIP3   OH2 5210   5.705   4.443   1.603
 1749TIP3    H1 5211   5.686   4.492   1.683
 1749TIP3    H2 5212   5.762   4.501   1.552
 1750TIP3   OH2 5213   2.052   2.876   4.650
 1750TIP3    H1 5214   2.113   2.928   4.598
 1750TIP3    H2 5215   2.042   2.794   4.600
 1751TIP3   OH2 5216   2.967   5.735   1.298
 1751TIP3    H1 5217   2.901   5.793   1.337
 1751TIP3    H2 5218   3.018   5.792   1.241
 1752TIP3   OH2 5219   1.798   4.607   0.000
 1752TIP3    H1 5220   1.751   4.531  -0.035
 1752TIP3    H2 5221   1.740   4.681  -0.017
 1753TIP3   OH2 5222   4.773   0.997   3.452
 1753TIP3    H1 5223   4.736   1.048   3.524
 1753TIP3    H2 5224   4.761   0.906   3.477
 1754TIP3   OH2 5225   2.884   5.246   4.576
 1754TIP3    H1 5226   2.955   5.274   4.520
 1754TIP3    H2 5227   2.926   5.195   4.645
 1755TIP3   OH2 5228   0.206   5.884   2.205
 1755TIP3    H1 5229   0.279   5.905   2.147
 1755TIP3    H2 5230   0.172   5.801   2.171
 1756TIP3   OH2 5231   2.271   3.804   5.055
 1756TIP3    H1 5232   2.336   3.753   5.007
 1756TIP3    H2 5233   2.197   3.744   5.066
 1757TIP3   OH2 5234   3.199   5.064   3.209
 1757TIP3    H1 5235   3.111   5.034   3.188
 1757TIP3    H2 5236   3.255   5.026   3.141
 1758TIP3   OH2 5237   5.162   0.497   2.099
 1758TIP3    H1 5238   5.092   0.431   2.103
 1758TIP3    H2 5239   5.182   0.515   2.191
 1759TIP3   OH2 5240   4.498   4.852   1.694
 1759TIP3    H1 5241   4.567   4.836   1.758
 1759TIP3    H2 5242   4.495   4.948   1.685
 1760TIP3   OH2 5243   5.800   5.730   4.980
 1760TIP3    H1 5244   5.782   5.816   4.942
 1760TIP3    H2 5245   5.875   5.745   5.038
 1761TIP3   OH2 5246   6.240   2.189   3.832
 1761TIP3    H1 5247   6.235   2.228   3.919
 1761TIP3    H2 5248   6.201   2.254   3.774
 1762TIP3   OH2 5249   3.279   1.167   4.483
 1762TIP3    H1 5250   3.224   1.128   4.415
 1762TIP3    H2 5251   3.345   1.100   4.502
 1763TIP3   OH2 5252   6.027   4.966   4.078
 1763TIP3    H1 5253   6.114   4.943   4.045
 1763TIP3    H2 5254   6.035   5.059   4.102
 1764TIP3   OH2 5255   5.984   2.563   3.300
 1764TIP3    H1 5256   5.959   2.654   3.286
 1764TIP3    H2 5257   5.922   2.512   3.248
 1765TIP3   OH2 5258   4.253   0.981   0.865
 1765TIP3    H1 5259   4.180   0.937   0.909
 1765TIP3    H2 5260   4.329   0.959   0.918
 1766TIP3   OH2 5261   1.943   4.851   2.406
 1766TIP3    H1 5262   1.864   4.861   2.352
 1766TIP3    H2 5263   1.927   4.772   2.458
 1767TIP3   OH2 5264   5.133   4.307   2.003
 1767TIP3    H1 5265   5.168   4.247   1.937
 1767TIP3    H2 5266   5.112   4.251   2.078
 1768TIP3   OH2 5267   5.059   0.112   1.421
 1768TIP3    H1 5268   5.048   0.033   1.367
 1768TIP3    H2 5269   5.136   0.156   1.383
 1769TIP3   OH2 5270   5.267   3.104   2.563
 1769TIP3    H1 5271   5.177   3.118   2.536
 1769TIP3    H2 5272   5.319   3.160   2.506
 1770TIP3   OH2 5273   5.296   4.153   4.496
 1770TIP3    H1 5274   5.353   4.152   4.419
 1770TIP3    H2 5275   5.355   4.132   4.569
 1771TIP3   OH2 5276   7.097   4.379   1.695
 1771TIP3    H1 5277   7.097   4.337   1.782
 1771TIP3    H2 5278   7.065   4.311   1.636
 1772TIP3   OH2 5279   6.758   3.944   4.915
 1772TIP3    H1 5280   6.683   4.000   4.931
 1772TIP3    H2 5281   6.766   3.891   4.994
 1773TIP3   OH2 5282   4.675   6.026   5.722
 1773TIP3    H1 5283   4.744   6.057   5.665
 1773TIP3    H2 5284   4.716   5.959   5.777
 1774TIP3   OH2 5285   5.810   0.747   2.401
 1774TIP3    H1 5286   5.759   0.802   2.342
 1774TIP3    H2 5287   5.778   0.769   2.488
 1775TIP3   OH2 5288   6.956   3.683   4.290
 1775TIP3    H1 5289   6.998   3.752   4.239
 1775TIP3    H2 5290   6.974   3.707   4.381
 1776TIP3   OH2 5291   1.694   2.071   3.745
 1776TIP3    H1 5292   1.784   2.045   3.728
 1776TIP3    H2 5293   1.691   2.087   3.840
 1777TIP3   OH2 5294   6.501   4.823   2.548
 1777TIP3    H1 5295   6.527   4.890   2.610
 1777TIP3    H2 5296   6.409   4.842   2.528
 1778TIP3   OH2 5297   5.145   1.991   1.841
 1778TIP3    H1 5298   5.170   1.899   1.831
 1778TIP3    H2 5299   5.219   2.040   1.805
 1779TIP3   OH2 5300   3.530   5.936   2.285
 1779TIP3    H1 5301   3.497   6.012   2.333
 1779TIP3    H2 5302   3.575   5.884   2.351
 1780TIP3   OH2 5303   6.998   5.054   0.075
 1780TIP3    H1 5304   6.942   5.056  -0.002
 1780TIP3    H2 5305   7.034   4.965   0.076
 1781TIP3   OH2 5306   0.944   6.103   5.036
 1781TIP3    H1 5307   1.017   6.072   5.090
 1781TIP3    H2 5308   0.903   6.171   5.089
 1782TIP3   OH2 5309   7.175   3.621   5.724
 1782TIP3    H1 5310   7.096   3.618   5.776
 1782TIP3    H2 5311   7.162   3.553   5.657
 1783TIP3   OH2 5312   3.143   4.692   1.303
 1783TIP3    H1 5313   3.127   4.669   1.212
 1783TIP3    H2 5314   3.237   4.709   1.308
 1784TIP3   OH2 5315   7.083   1.219   4.806
 1784TIP3    H1 5316   7.159   1.231   4.749
 1784TIP3    H2 5317   7.074   1.302   4.852
 1785TIP3   OH2 5318   1.807   5.420   0.382
 1785TIP3    H1 5319   1.804   5.340   0.330
 1785TIP3    H2 5320   1.900   5.441   0.389
 1786TIP3   OH2 5321   4.276   6.347   4.623
 1786TIP3    H1 5322   4.237   6.394   4.550
 1786TIP3    H2 5323   4.205   6.293   4.658
 1787TIP3   OH2 5324   4.089   6.448   0.912
 1787TIP3    H1 5325   4.100   6.540   0.937
 1787TIP3    H2 5326   4.178   6.414   0.907
 1788TIP3   OH2 5327   6.493   1.938   4.140
 1788TIP3    H1 5328   6.499   1.989   4.059
 1788TIP3    H2 5329   6.406   1.899   4.138
 1789TIP3   OH2 5330   0.667   6.505   3.865
 1789TIP3    H1 5331   0.637   6.596   3.872
 1789TIP3    H2 5332   0.593   6.458   3.827
 1790TIP3   OH2 5333   5.265   1.225   2.175
 1790TIP3    H1 5334   5.196   1.191   2.118
 1790TIP3    H2 5335   5.231   1.307   2.209
 1791TIP3   OH2 5336   1.359   5.570   1.366
 1791TIP3    H1 5337   1.285   5.547   1.421
 1791TIP3    H2 5338   1.375   5.663   1.384
 1792TIP3   OH2 5339   2.698   3.089   5.336
 1792TIP3    H1 5340   2.634   3.056   5.399
 1792TIP3    H2 5341   2.709   3.181   5.358
 1793TIP3   OH2 5342   4.948   1.494   4.259
 1793TIP3    H1 5343   4.919   1.464   4.345
 1793TIP3    H2 5344   4.867   1.520   4.214
 1794TIP3   OH2 5345   0.452   0.338   2.785
 1794TIP3    H1 5346   0.452   0.410   2.722
 1794TIP3    H2 5347   0.406   0.373   2.861
 1795TIP3   OH2 5348   5.413   4.868   4.420
 1795TIP3    H1 5349   5.503   4.838   4.426
 1795TIP3    H2 5350   5.379   4.829   4.339
 1796TIP3   OH2 5351   5.576   5.018   1.692
 1796TIP3    H1 5352   5.493   5.025   1.646
 1796TIP3    H2 5353   5.553   4.986   1.779
 1797TIP3   OH2 5354   0.982   3.781   0.405
 1797TIP3    H1 5355   0.944   3.758   0.320
 1797TIP3    H2 5356   1.059   3.833   0.384
 1798TIP3   OH2 5357   3.973   3.404   1.336
 1798TIP3    H1 5358   3.988   3.432   1.426
 1798TIP3    H2 5359   4.027   3.463   1.284
 1799TIP3   OH2 5360   3.261   3.495   5.310
 1799TIP3    H1 5361   3.245   3.567   5.249
 1799TIP3    H2 5362   3.356   3.484   5.310
 1800TIP3   OH2 5363   3.684   4.589   0.983
 1800TIP3    H1 5364   3.637   4.511   1.014
 1800TIP3    H2 5365   3.625   4.627   0.917
 1801TIP3   OH2 5366   2.820   1.006   4.683
 1801TIP3    H1 5367   2.743   0.965   4.723
 1801TIP3    H2 5368   2.859   1.058   4.753
 1802TIP3   OH2 5369   0.492   6.802   5.914
 1802TIP3    H1 5370   0.550   6.839   5.848
 1802TIP3    H2 5371   0.421   6.763   5.864
 1803TIP3   OH2 5372   0.258   0.340   1.320
 1803TIP3    H1 5373   0.198   0.310   1.388
 1803TIP3    H2 5374   0.247   0.435   1.319
 1804TIP3   OH2 5375   0.340   1.045   4.878
 1804TIP3    H1 5376   0.255   1.088   4.874
 1804TIP3    H2 5377   0.355   1.030   4.971
 1805TIP3   OH2 5378   4.502   2.445   5.547
 1805TIP3    H1 5379   4.577   2.394   5.515
 1805TIP3    H2 5380   4.427   2.412   5.496
 1806TIP3   OH2 5381   6.531   5.451   1.754
 1806TIP3    H1 5382   6.583   5.384   1.709
 1806TIP3    H2 5383   6.586   5.529   1.754
 1807TIP3   OH2 5384   4.848   4.038   0.048
 1807TIP3    H1 5385   4.832   3.959   0.099
 1807TIP3    H2 5386   4.939   4.060   0.065
 1808TIP3   OH2 5387   6.346   0.902   0.924
 1808TIP3    H1 5388   6.362   0.995   0.940
 1808TIP3    H2 5389   6.253   0.890   0.946
 1809TIP3   OH2 5390   1.926   4.348   1.849
 1809TIP3    H1 5391   1.877   4.344   1.766
 1809TIP3    H2 5392   1.975   4.430   1.844
 1810TIP3   OH2 5393   6.282   2.974   1.734
 1810TIP3    H1 5394   6.290   2.925   1.652
 1810TIP3    H2 5395   6.188   2.978   1.750
 1811TIP3   OH2 5396   7.232   0.718   5.681
 1811TIP3    H1 5397   7.141   0.691   5.689
 1811TIP3    H2 5398   7.255   0.752   5.767
 1812TIP3   OH2 5399   2.990   5.278   5.618
 1812TIP3    H1 5400   3.075   5.319   5.632
 1812TIP3    H2 5401   2.979   5.277   5.523
 1813TIP3   OH2 5402   3.507   3.760   4.158
 1813TIP3    H1 5403   3.584   3.759   4.215
 1813TIP3    H2 5404   3.440   3.712   4.206
 1814TIP3   OH2 5405   0.623   3.033   0.497
 1814TIP3    H1 5406   0.686   2.987   0.553
 1814TIP3    H2 5407   0.586   3.100   0.555
 1815TIP3   OH2 5408   4.839   5.348   3.782
 1815TIP3    H1 5409   4.849   5.262   3.823
 1815TIP3    H2 5410   4.778   5.394   3.839
 1816TIP3   OH2 5411   0.698   0.710   0.424
 1816TIP3    H1 5412   0.710   0.624   0.385
 1816TIP3    H2 5413   0.603   0.724   0.423
 1817TIP3   OH2 5414   2.958   3.711   1.483
 1817TIP3    H1 5415   2.965   3.806   1.476
 1817TIP3    H2 5416   3.031   3.685   1.540
 1818TIP3   OH2 5417   0.413   4.847   1.551
 1818TIP3    H1 5418   0.485   4.862   1.613
 1818TIP3    H2 5419   0.455   4.811   1.473
 1819TIP3   OH2 5420   6.423   2.251   5.696
 1819TIP3    H1 5421   6.350   2.224   5.751
 1819TIP3    H2 5422   6.414   2.197   5.617
 1820TIP3   OH2 5423   6.188   2.346   5.531
 1820TIP3    H1 5424   6.142   2.264   5.513
 1820TIP3    H2 5425   6.172   2.363   5.624
 1821TIP3   OH2 5426   0.332   4.182   2.485
 1821TIP3    H1 5427   0.359   4.272   2.469
 1821TIP3    H2 5428   0.396   4.129   2.439
 1822TIP3   OH2 5429   3.156   5.318   0.567
 1822TIP3    H1 5430   3.208   5.319   0.487
 1822TIP3    H2 5431   3.160   5.408   0.600
 1823TIP3   OH2 5432   4.562   5.108   2.470
 1823TIP3    H1 5433   4.508   5.087   2.394
 1823TIP3    H2 5434   4.631   5.165   2.436
 1824TIP3   OH2 5435   2.748   3.408   4.516
 1824TIP3    H1 5436   2.735   3.329   4.568
 1824TIP3    H2 5437   2.663   3.451   4.516
 1825TIP3   OH2 5438   2.029   0.571   1.984
 1825TIP3    H1 5439   2.067   0.483   1.988
 1825TIP3    H2 5440   2.071   0.611   1.907
 1826TIP3   OH2 5441   3.609   2.461   5.121
 1826TIP3    H1 5442   3.682   2.521   5.104
 1826TIP3    H2 5443   3.640   2.376   5.091
 1827TIP3   OH2 5444   2.253   6.384   4.023
 1827TIP3    H1 5445   2.180   6.408   3.965
 1827TIP3    H2 5446   2.221   6.406   4.111
 1828TIP3   OH2 5447   4.543   4.064   1.200
 1828TIP3    H1 5448   4.486   4.003   1.152
 1828TIP3    H2 5449   4.622   4.013   1.218
 1829TIP3   OH2 5450   7.094   0.411   0.899
 1829TIP3    H1 5451   7.128   0.380   0.815
 1829TIP3    H2 5452   7.171   0.412   0.957
 1830TIP3   OH2 5453   4.623   6.811   2.424
 1830TIP3    H1 5454   4.548   6.752   2.411
 1830TIP3    H2 5455   4.612   6.844   2.513
 1831TIP3   OH2 5456   6.847   5.714   5.278
 1831TIP3    H1 5457   6.782   5.732   5.346
 1831TIP3    H2 5458   6.798   5.672   5.208
 1832TIP3   OH2 5459   0.206   6.146   1.311
 1832TIP3    H1 5460   0.204   6.051   1.299
 1832TIP3    H2 5461   0.297   6.166   1.329
 1833TIP3   OH2 5462   3.745   1.770   3.000
 1833TIP3    H1 5463   3.776   1.713   2.929
 1833TIP3    H2 5464   3.685   1.831   2.957
 1834TIP3   OH2 5465   4.183   5.021   1.647
 1834TIP3    H1 5466   4.179   4.943   1.702
 1834TIP3    H2 5467   4.275   5.050   1.654
 1835TIP3   OH2 5468   3.013   2.936   4.306
 1835TIP3    H1 5469   3.048   2.993   4.374
 1835TIP3    H2 5470   3.030   2.982   4.224
 1836TIP3   OH2 5471   5.708   1.583   0.939
 1836TIP3    H1 5472   5.660   1.663   0.963
 1836TIP3    H2 5473   5.646   1.512   0.958
 1837TIP3   OH2 5474   2.354   5.426   5.379
 1837TIP3    H1 5475   2.369   5.461   5.467
 1837TIP3    H2 5476   2.421   5.359   5.368
 1838TIP3   OH2 5477   7.207   1.264   1.089
 1838TIP3    H1 5478   7.134   1.316   1.123
 1838TIP3    H2 5479   7.275   1.329   1.069
 1839TIP3   OH2 5480   4.641   5.932   5.276
 1839TIP3    H1 5481   4.719   5.905   5.324
 1839TIP3    H2 5482   4.669   6.008   5.225
 1840TIP3   OH2 5483   5.337   2.175   4.444
 1840TIP3    H1 5484   5.355   2.244   4.379
 1840TIP3    H2 5485   5.311   2.100   4.391
 1841TIP3   OH2 5486   6.747   0.603   0.446
 1841TIP3    H1 5487   6.695   0.604   0.365
 1841TIP3    H2 5488   6.737   0.691   0.482
 1842TIP3   OH2 5489   0.883   4.104   3.544
 1842TIP3    H1 5490   0.857   4.116   3.453
 1842TIP3    H2 5491   0.833   4.028   3.573
 1843TIP3   OH2 5492   0.445   2.362   4.080
 1843TIP3    H1 5493   0.474   2.328   4.165
 1843TIP3    H2 5494   0.359   2.322   4.067
 1844TIP3   OH2 5495   1.712   5.336   2.656
 1844TIP3    H1 5496   1.726   5.430   2.646
 1844TIP3    H2 5497   1.630   5.318   2.611
 1845TIP3   OH2 5498   1.478   4.484   4.293
 1845TIP3    H1 5499   1.554   4.541   4.299
 1845TIP3    H2 5500   1.492   4.434   4.213
 1846TIP3   OH2 5501   5.336   4.541   0.630
 1846TIP3    H1 5502   5.400   4.551   0.559
 1846TIP3    H2 5503   5.388   4.538   0.710
 1847TIP3   OH2 5504   0.201   2.658   2.480
 1847TIP3    H1 5505   0.184   2.744   2.441
 1847TIP3    H2 5506   0.184   2.596   2.409
 1848TIP3   OH2 5507   2.979   4.308   0.347
 1848TIP3    H1 5508   2.950   4.267   0.428
 1848TIP3    H2 5509   2.992   4.235   0.287
 1849TIP3   OH2 5510   5.214   1.141   3.952
 1849TIP3    H1 5511   5.187   1.187   4.032
 1849TIP3    H2 5512   5.139   1.147   3.894
 1850TIP3   OH2 5513   2.711   1.809   2.366
 1850TIP3    H1 5514   2.724   1.903   2.371
 1850TIP3    H2 5515   2.739   1.776   2.452
 1851TIP3   OH2 5516   5.959   4.218   3.794
 1851TIP3    H1 5517   5.942   4.235   3.887
 1851TIP3    H2 5518   6.050   4.188   3.791
 1852TIP3   OH2 5519   2.413   1.711   3.631
 1852TIP3    H1 5520   2.372   1.628   3.654
 1852TIP3    H2 5521   2.412   1.762   3.713
 1853TIP3   OH2 5522   5.466   5.003   3.798
 1853TIP3    H1 5523   5.456   5.042   3.885
 1853TIP3    H2 5524   5.422   4.918   3.805
 1854TIP3   OH2 5525   0.646   5.613   4.511
 1854TIP3    H1 5526   0.552   5.605   4.494
 1854TIP3    H2 5527   0.686   5.619   4.425
 1855TIP3   OH2 5528   0.619   6.218   5.118
 1855TIP3    H1 5529   0.650   6.272   5.191
 1855TIP3    H2 5530   0.544   6.171   5.153
 1856TIP3   OH2 5531   5.835   4.592   5.740
 1856TIP3    H1 5532   5.899   4.663   5.744
 1856TIP3    H2 5533   5.820   4.579   5.647
 1857TIP3   OH2 5534   1.720   5.527   0.069
 1857TIP3    H1 5535   1.753   5.499   0.154
 1857TIP3    H2 5536   1.797   5.533   0.014
 1858TIP3   OH2 5537   2.893   5.680   0.542
 1858TIP3    H1 5538   2.985   5.706   0.532
 1858TIP3    H2 5539   2.854   5.752   0.592
 1859TIP3   OH2 5540   7.208   2.331   3.946
 1859TIP3    H1 5541   7.263   2.359   3.873
 1859TIP3    H2 5542   7.123   2.311   3.906
 1860TIP3   OH2 5543   4.413   5.832   0.461
 1860TIP3    H1 5544   4.507   5.836   0.447
 1860TIP3    H2 5545   4.403   5.809   0.553
 1861TIP3   OH2 5546   0.602   5.302   2.569
 1861TIP3    H1 5547   0.619   5.395   2.584
 1861TIP3    H2 5548   0.685   5.268   2.534
 1862TIP3   OH2 5549   0.953   6.699   3.607
 1862TIP3    H1 5550   0.875   6.645   3.600
 1862TIP3    H2 5551   0.940   6.750   3.687
 1863TIP3   OH2 5552   3.398   1.152   4.858
 1863TIP3    H1 5553   3.448   1.084   4.812
 1863TIP3    H2 5554   3.355   1.201   4.788
 1864TIP3   OH2 5555   6.441   1.316   0.614
 1864TIP3    H1 5556   6.493   1.316   0.695
 1864TIP3    H2 5557   6.501   1.279   0.548
 1865TIP3   OH2 5558   3.684   4.481   3.947
 1865TIP3    H1 5559   3.597   4.451   3.919
 1865TIP3    H2 5560   3.683   4.468   4.042
 1866TIP3   OH2 5561   5.601   1.557   4.978
 1866TIP3    H1 5562   5.541   1.483   4.975
 1866TIP3    H2 5563   5.652   1.550   4.897
 1867TIP3   OH2 5564   3.356   6.492   2.843
 1867TIP3    H1 5565   3.446   6.497   2.873
 1867TIP3    H2 5566   3.335   6.398   2.844
 1868TIP3   OH2 5567   1.859   3.529   3.037
 1868TIP3    H1 5568   1.801   3.601   3.062
 1868TIP3    H2 5569   1.817   3.489   2.961
 1869TIP3   OH2 5570   2.279   0.641   2.827
 1869TIP3    H1 5571   2.338   0.715   2.841
 1869TIP3    H2 5572   2.195   0.681   2.805
 1870TIP3   OH2 5573   1.716   5.603   1.321
 1870TIP3    H1 5574   1.811   5.595   1.309
 1870TIP3    H2 5575   1.685   5.513   1.327
 1871TIP3   OH2 5576   4.028   2.498   3.564
 1871TIP3    H1 5577   4.082   2.560   3.515
 1871TIP3    H2 5578   3.941   2.537   3.563
 1872TIP3   OH2 5579   6.468   1.204   1.852
 1872TIP3    H1 5580   6.506   1.145   1.917
 1872TIP3    H2 5581   6.377   1.214   1.879
 1873TIP3   OH2 5582   4.137   2.012   4.960
 1873TIP3    H1 5583   4.184   1.941   5.003
 1873TIP3    H2 5584   4.155   2.089   5.014
 1874TIP3   OH2 5585   1.805   4.309   0.950
 1874TIP3    H1 5586   1.754   4.243   0.904
 1874TIP3    H2 5587   1.863   4.345   0.883
 1875TIP3   OH2 5588   2.913   5.106   3.592
 1875TIP3    H1 5589   2.941   5.175   3.532
 1875TIP3    H2 5590   2.994   5.071   3.629
 1876TIP3   OH2 5591   5.292   3.219   1.606
 1876TIP3    H1 5592   5.255   3.186   1.688
 1876TIP3    H2 5593   5.223   3.275   1.570
 1877TIP3   OH2 5594   6.974   2.093   2.541
 1877TIP3    H1 5595   7.020   2.066   2.621
 1877TIP3    H2 5596   6.997   2.185   2.530
 1878TIP3   OH2 5597   6.614   4.189   2.286
 1878TIP3    H1 5598   6.627   4.109   2.338
 1878TIP3    H2 5599   6.656   4.258   2.338
 1879TIP3   OH2 5600   1.813   5.016   5.681
 1879TIP3    H1 5601   1.870   4.940   5.664
 1879TIP3    H2 5602   1.738   5.003   5.622
 1880TIP3   OH2 5603   1.849   0.933   3.177
 1880TIP3    H1 5604   1.797   0.858   3.206
 1880TIP3    H2 5605   1.848   0.928   3.082
 1881TIP3   OH2 5606   6.008   6.218   1.980
 1881TIP3    H1 5607   6.022   6.258   1.894
 1881TIP3    H2 5608   5.981   6.128   1.961
 1882TIP3   OH2 5609   3.206   0.663   4.475
 1882TIP3    H1 5610   3.117   0.681   4.506
 1882TIP3    H2 5611   3.258   0.656   4.555
 1883TIP3   OH2 5612   4.854   2.874   2.856
 1883TIP3    H1 5613   4.783   2.924   2.816
 1883TIP3    H2 5614   4.853   2.900   2.948
 1884TIP3   OH2 5615   6.102   4.731   1.151
 1884TIP3    H1 5616   6.056   4.803   1.107
 1884TIP3    H2 5617   6.193   4.740   1.122
 1885TIP3   OH2 5618   3.108   1.747   0.691
 1885TIP3    H1 5619   3.053   1.684   0.645
 1885TIP3    H2 5620   3.133   1.811   0.624
 1886TIP3   OH2 5621   4.564   0.795   0.455
 1886TIP3    H1 5622   4.558   0.706   0.421
 1886TIP3    H2 5623   4.581   0.784   0.549
 1887TIP3   OH2 5624   1.581   3.745   4.469
 1887TIP3    H1 5625   1.669   3.781   4.457
 1887TIP3    H2 5626   1.594   3.667   4.523
 1888TIP3   OH2 5627   3.976   0.669   4.939
 1888TIP3    H1 5628   3.997   0.576   4.932
 1888TIP3    H2 5629   4.053   0.709   4.978
 1889TIP3   OH2 5630  -0.020   2.171   0.570
 1889TIP3    H1 5631  -0.004   2.252   0.522
 1889TIP3    H2 5632   0.006   2.101   0.510
 1890TIP3   OH2 5633   3.578   4.192   4.742
 1890TIP3    H1 5634   3.630   4.251   4.798
 1890TIP3    H2 5635   3.493   4.236   4.734
 1891TIP3   OH2 5636   3.978   0.905   2.948
 1891TIP3    H1 5637   3.959   0.847   2.874
 1891TIP3    H2 5638   3.897   0.956   2.959
 1892TIP3   OH2 5639   4.301   2.128   2.171
 1892TIP3    H1 5640   4.270   2.051   2.219
 1892TIP3    H2 5641   4.368   2.165   2.228
 1893TIP3   OH2 5642   0.218   4.324   2.915
 1893TIP3    H1 5643   0.290   4.282   2.961
 1893TIP3    H2 5644   0.139   4.286   2.954
 1894TIP3   OH2 5645   0.586   1.351   4.803
 1894TIP3    H1 5646   0.624   1.374   4.718
 1894TIP3    H2 5647   0.510   1.409   4.812
 1895TIP3   OH2 5648   1.918   5.439   5.389
 1895TIP3    H1 5649   1.917   5.368   5.326
 1895TIP3    H2 5650   1.827   5.466   5.396
 1896TIP3   OH2 5651   6.754   1.890   2.773
 1896TIP3    H1 5652   6.678   1.946   2.761
 1896TIP3    H2 5653   6.772   1.855   2.686
 1897TIP3   OH2 5654   4.376   4.825   3.852
 1897TIP3    H1 5655   4.300   4.854   3.801
 1897TIP3    H2 5656   4.394   4.896   3.912
 1898TIP3   OH2 5657   6.756   0.651   1.311
 1898TIP3    H1 5658   6.715   0.693   1.386
 1898TIP3    H2 5659   6.710   0.685   1.235
 1899TIP3   OH2 5660   4.694   1.829   1.098
 1899TIP3    H1 5661   4.673   1.763   1.032
 1899TIP3    H2 5662   4.642   1.804   1.175
 1900TIP3   OH2 5663   2.209   2.736   4.870
 1900TIP3    H1 5664   2.225   2.742   4.776
 1900TIP3    H2 5665   2.147   2.664   4.879
 1901TIP3   OH2 5666   4.541   2.366   2.906
 1901TIP3    H1 5667   4.584   2.387   2.989
 1901TIP3    H2 5668   4.518   2.452   2.869
 1902TIP3   OH2 5669   1.925   3.849   5.341
 1902TIP3    H1 5670   1.855   3.815   5.398
 1902TIP3    H2 5671   1.880   3.872   5.259
 1903TIP3   OH2 5672   0.445   5.288   3.162
 1903TIP3    H1 5673   0.528   5.291   3.211
 1903TIP3    H2 5674   0.468   5.321   3.075
 1904TIP3   OH2 5675   3.830   0.804   0.854
 1904TIP3    H1 5676   3.789   0.792   0.769
 1904TIP3    H2 5677   3.917   0.839   0.834
 1905TIP3   OH2 5678   1.183   3.340   2.443
 1905TIP3    H1 5679   1.274   3.367   2.458
 1905TIP3    H2 5680   1.187   3.245   2.433
 1906TIP3   OH2 5681   6.067   4.054   1.865
 1906TIP3    H1 5682   6.113   4.077   1.946
 1906TIP3    H2 5683   5.975   4.045   1.892
 1907TIP3   OH2 5684   4.189   4.324   1.488
 1907TIP3    H1 5685   4.277   4.346   1.517
 1907TIP3    H2 5686   4.146   4.408   1.475
 1908TIP3   OH2 5687   3.415   1.449   0.097
 1908TIP3    H1 5688   3.484   1.440   0.032
 1908TIP3    H2 5689   3.370   1.530   0.073
 1909TIP3   OH2 5690   3.982   3.354   1.828
 1909TIP3    H1 5691   3.894   3.389   1.814
 1909TIP3    H2 5692   3.969   3.260   1.835
 1910TIP3   OH2 5693   5.211   4.761   4.631
 1910TIP3    H1 5694   5.251   4.829   4.576
 1910TIP3    H2 5695   5.216   4.681   4.579
 1911TIP3   OH2 5696   6.570   1.478   5.422
 1911TIP3    H1 5697   6.623   1.522   5.355
 1911TIP3    H2 5698   6.514   1.547   5.457
 1912TIP3   OH2 5699   2.385   5.300   4.886
 1912TIP3    H1 5700   2.327   5.318   4.812
 1912TIP3    H2 5701   2.333   5.323   4.963
 1913TIP3   OH2 5702   2.605   1.625   5.631
 1913TIP3    H1 5703   2.689   1.591   5.599
 1913TIP3    H2 5704   2.627   1.671   5.712
 1914TIP3   OH2 5705   2.680   5.488   4.952
 1914TIP3    H1 5706   2.705   5.491   4.859
 1914TIP3    H2 5707   2.590   5.455   4.951
 1915TIP3   OH2 5708   5.499   3.231   0.591
 1915TIP3    H1 5709   5.576   3.264   0.638
 1915TIP3    H2 5710   5.477   3.300   0.529
 1916TIP3   OH2 5711   3.539   5.658   5.760
 1916TIP3    H1 5712   3.518   5.743   5.721
 1916TIP3    H2 5713   3.620   5.674   5.808
 1917TIP3   OH2 5714   5.859   5.098   1.798
 1917TIP3    H1 5715   5.769   5.080   1.772
 1917TIP3    H2 5716   5.897   5.012   1.817
 1918TIP3   OH2 5717   0.375   0.940   0.207
 1918TIP3    H1 5718   0.415   0.945   0.121
 1918TIP3    H2 5719   0.306   1.006   0.206
 1919TIP3   OH2 5720   3.761   5.892   3.625
 1919TIP3    H1 5721   3.675   5.928   3.648
 1919TIP3    H2 5722   3.817   5.968   3.615
 1920TIP3   OH2 5723   3.311   5.126   3.960
 1920TIP3    H1 5724   3.403   5.144   3.941
 1920TIP3    H2 5725   3.263   5.177   3.894
 1921TIP3   OH2 5726   1.175   5.148   3.505
 1921TIP3    H1 5727   1.206   5.113   3.421
 1921TIP3    H2 5728   1.207   5.238   3.507
 1922TIP3   OH2 5729   4.976   0.745   5.606
 1922TIP3    H1 5730   5.030   0.780   5.536
 1922TIP3    H2 5731   5.014   0.659   5.625
 1923TIP3   OH2 5732   1.849   5.138   2.187
 1923TIP3    H1 5733   1.772   5.172   2.232
 1923TIP3    H2 5734   1.832   5.044   2.178
 1924TIP3   OH2 5735   2.425   2.155   3.982
 1924TIP3    H1 5736   2.395   2.244   3.967
 1924TIP3    H2 5737   2.424   2.145   4.077
 1925TIP3   OH2 5738   0.125   1.865   0.742
 1925TIP3    H1 5739   0.156   1.791   0.795
 1925TIP3    H2 5740   0.127   1.940   0.801
 1926TIP3   OH2 5741   5.197   3.561   2.302
 1926TIP3    H1 5742   5.256   3.598   2.236
 1926TIP3    H2 5743   5.132   3.630   2.317
 1927TIP3   OH2 5744   6.764   5.114   0.830
 1927TIP3    H1 5745   6.834   5.048   0.830
 1927TIP3    H2 5746   6.693   5.073   0.879
 1928TIP3   OH2 5747   0.357   3.086   5.659
 1928TIP3    H1 5748   0.345   3.153   5.725
 1928TIP3    H2 5749   0.281   3.095   5.601
 1929TIP3   OH2 5750   5.620   4.870   2.832
 1929TIP3    H1 5751   5.593   4.915   2.912
 1929TIP3    H2 5752   5.689   4.925   2.795
 1930TIP3   OH2 5753   3.975   5.188   4.841
 1930TIP3    H1 5754   3.995   5.243   4.766
 1930TIP3    H2 5755   4.061   5.155   4.870
 1931TIP3   OH2 5756   0.965   3.066   4.313
 1931TIP3    H1 5757   0.984   3.154   4.280
 1931TIP3    H2 5758   1.005   3.007   4.250
 1932TIP3   OH2 5759   6.531   3.512   5.812
 1932TIP3    H1 5760   6.460   3.572   5.788
 1932TIP3    H2 5761   6.605   3.569   5.834
 1933TIP3   OH2 5762   6.767   0.329   3.187
 1933TIP3    H1 5763   6.821   0.397   3.227
 1933TIP3    H2 5764   6.713   0.295   3.259
 1934TIP3   OH2 5765   1.169   6.553   3.122
 1934TIP3    H1 5766   1.217   6.632   3.147
 1934TIP3    H2 5767   1.235   6.496   3.083
 1935TIP3   OH2 5768   4.441   1.888   4.758
 1935TIP3    H1 5769   4.451   1.935   4.841
 1935TIP3    H2 5770   4.348   1.894   4.738
 1936TIP3   OH2 5771   0.545   4.693   4.459
 1936TIP3    H1 5772   0.493   4.764   4.495
 1936TIP3    H2 5773   0.596   4.660   4.533
 1937TIP3   OH2 5774   3.331   5.871   2.560
 1937TIP3    H1 5775   3.248   5.884   2.605
 1937TIP3    H2 5776   3.353   5.957   2.524
 1938TIP3   OH2 5777   5.693   6.310   5.670
 1938TIP3    H1 5778   5.719   6.343   5.756
 1938TIP3    H2 5779   5.704   6.384   5.611
 1939TIP3   OH2 5780   4.282   5.468   5.219
 1939TIP3    H1 5781   4.199   5.509   5.245
 1939TIP3    H2 5782   4.349   5.532   5.245
 1940TIP3   OH2 5783   1.006   3.123   3.828
 1940TIP3    H1 5784   0.970   3.188   3.889
 1940TIP3    H2 5785   0.938   3.113   3.762
 1941TIP3   OH2 5786   2.370   4.386   5.498
 1941TIP3    H1 5787   2.305   4.318   5.518
 1941TIP3    H2 5788   2.318   4.466   5.486
 1942TIP3   OH2 5789   3.828   3.205   0.256
 1942TIP3    H1 5790   3.901   3.157   0.295
 1942TIP3    H2 5791   3.869   3.282   0.216
 1943TIP3   OH2 5792   2.965   4.886   0.844
 1943TIP3    H1 5793   2.914   4.953   0.890
 1943TIP3    H2 5794   3.049   4.884   0.891
 1944TIP3   OH2 5795   0.645   0.395   3.534
 1944TIP3    H1 5796   0.720   0.452   3.552
 1944TIP3    H2 5797   0.684   0.317   3.495
 1945TIP3   OH2 5798   4.793   1.197   5.115
 1945TIP3    H1 5799   4.846   1.181   5.037
 1945TIP3    H2 5800   4.743   1.116   5.127
 1946TIP3   OH2 5801   2.938   3.547   2.329
 1946TIP3    H1 5802   3.000   3.477   2.346
 1946TIP3    H2 5803   2.868   3.533   2.392
 1947TIP3   OH2 5804   5.127   4.575   5.649
 1947TIP3    H1 5805   5.175   4.648   5.610
 1947TIP3    H2 5806   5.195   4.514   5.679
 1948TIP3   OH2 5807   0.733   4.455   5.644
 1948TIP3    H1 5808   0.803   4.465   5.709
 1948TIP3    H2 5809   0.695   4.369   5.663
 1949TIP3   OH2 5810   2.911   3.004   4.641
 1949TIP3    H1 5811   2.826   3.031   4.606
 1949TIP3    H2 5812   2.927   2.919   4.599
 1950TIP3   OH2 5813   0.672   1.762   4.933
 1950TIP3    H1 5814   0.619   1.715   4.870
 1950TIP3    H2 5815   0.635   1.740   5.018
 1951TIP3   OH2 5816   0.826   1.681   2.237
 1951TIP3    H1 5817   0.742   1.705   2.275
 1951TIP3    H2 5818   0.804   1.633   2.157
 1952TIP3   OH2 5819   6.386   3.327   2.995
 1952TIP3    H1 5820   6.309   3.336   3.052
 1952TIP3    H2 5821   6.366   3.382   2.919
 1953TIP3   OH2 5822   4.501   3.326   4.118
 1953TIP3    H1 5823   4.459   3.267   4.181
 1953TIP3    H2 5824   4.547   3.268   4.058
 1954TIP3   OH2 5825   2.474   1.067   1.196
 1954TIP3    H1 5826   2.426   1.144   1.164
 1954TIP3    H2 5827   2.406   1.002   1.212
 1955TIP3   OH2 5828   2.618   3.242   1.873
 1955TIP3    H1 5829   2.698   3.268   1.826
 1955TIP3    H2 5830   2.609   3.307   1.943
 1956TIP3   OH2 5831   5.952   5.113   4.421
 1956TIP3    H1 5832   6.001   5.180   4.468
 1956TIP3    H2 5833   6.015   5.042   4.408
 1957TIP3   OH2 5834   6.698   0.604   4.999
 1957TIP3    H1 5835   6.789   0.628   4.981
 1957TIP3    H2 5836   6.647   0.664   4.944
 1958TIP3   OH2 5837   1.151   6.165   4.495
 1958TIP3    H1 5838   1.193   6.094   4.446
 1958TIP3    H2 5839   1.060   6.139   4.503
 1959TIP3   OH2 5840   2.291   0.887   2.382
 1959TIP3    H1 5841   2.196   0.890   2.378
 1959TIP3    H2 5842   2.318   0.977   2.362
 1960TIP3   OH2 5843   6.760   1.203   1.934
 1960TIP3    H1 5844   6.760   1.194   1.838
 1960TIP3    H2 5845   6.707   1.281   1.951
 1961TIP3   OH2 5846   2.657   4.974   2.923
 1961TIP3    H1 5847   2.703   5.052   2.957
 1961TIP3    H2 5848   2.692   4.963   2.835
 1962TIP3   OH2 5849   1.634   1.206   3.734
 1962TIP3    H1 5850   1.724   1.226   3.760
 1962TIP3    H2 5851   1.605   1.140   3.797
 1963TIP3   OH2 5852   2.576   4.074   3.991
 1963TIP3    H1 5853   2.582   4.128   3.912
 1963TIP3    H2 5854   2.660   4.028   3.995
 1964TIP3   OH2 5855   1.189   3.341   1.467
 1964TIP3    H1 5856   1.273   3.301   1.489
 1964TIP3    H2 5857   1.151   3.282   1.401
 1965TIP3   OH2 5858   6.267   0.993   4.482
 1965TIP3    H1 5859   6.241   0.903   4.503
 1965TIP3    H2 5860   6.327   1.018   4.552
 1966TIP3   OH2 5861   1.280   2.926   5.050
 1966TIP3    H1 5862   1.241   2.906   5.135
 1966TIP3    H2 5863   1.319   2.843   5.021
 1967TIP3   OH2 5864   3.133   1.412   1.181
 1967TIP3    H1 5865   3.082   1.385   1.105
 1967TIP3    H2 5866   3.215   1.362   1.173
 1968TIP3   OH2 5867   6.361   2.838   4.887
 1968TIP3    H1 5868   6.409   2.915   4.918
 1968TIP3    H2 5869   6.428   2.782   4.846
 1969TIP3   OH2 5870   1.222   4.615   4.756
 1969TIP3    H1 5871   1.294   4.600   4.694
 1969TIP3    H2 5872   1.148   4.639   4.700
 1970TIP3   OH2 5873   6.131   6.623   2.198
 1970TIP3    H1 5874   6.086   6.640   2.280
 1970TIP3    H2 5875   6.170   6.708   2.174
 1971TIP3   OH2 5876   2.785   0.878   3.746
 1971TIP3    H1 5877   2.826   0.902   3.664
 1971TIP3    H2 5878   2.857   0.850   3.802
 1972TIP3   OH2 5879   1.294   3.637   1.710
 1972TIP3    H1 5880   1.294   3.666   1.619
 1972TIP3    H2 5881   1.368   3.682   1.750
 1973TIP3   OH2 5882   0.505   3.640   2.325
 1973TIP3    H1 5883   0.473   3.727   2.347
 1973TIP3    H2 5884   0.600   3.647   2.332
 1974TIP3   OH2 5885   7.035   1.606   0.971
 1974TIP3    H1 5886   7.038   1.582   0.878
 1974TIP3    H2 5887   7.028   1.522   1.017
 1975TIP3   OH2 5888   3.356   4.670   0.120
 1975TIP3    H1 5889   3.401   4.747   0.086
 1975TIP3    H2 5890   3.267   4.677   0.086
 1976TIP3   OH2 5891   4.467   1.990   2.919
 1976TIP3    H1 5892   4.531   1.991   2.990
 1976TIP3    H2 5893   4.519   1.976   2.840
 1977TIP3   OH2 5894   4.248   1.455   3.800
 1977TIP3    H1 5895   4.289   1.504   3.872
 1977TIP3    H2 5896   4.157   1.485   3.800
 1978TIP3   OH2 5897   2.762   4.593   1.646
 1978TIP3    H1 5898   2.849   4.588   1.606
 1978TIP3    H2 5899   2.736   4.502   1.660
 1979TIP3   OH2 5900   2.523   4.804   4.501
 1979TIP3    H1 5901   2.486   4.883   4.540
 1979TIP3    H2 5902   2.534   4.826   4.409
 1980TIP3   OH2 5903   5.780   1.940   3.100
 1980TIP3    H1 5904   5.863   1.899   3.077
 1980TIP3    H2 5905   5.788   2.030   3.069
 1981TIP3   OH2 5906   3.053   3.088   2.399
 1981TIP3    H1 5907   3.048   2.999   2.363
 1981TIP3    H2 5908   3.059   3.145   2.322
 1982TIP3   OH2 5909   4.198   2.025   2.885
 1982TIP3    H1 5910   4.288   2.056   2.895
 1982TIP3    H2 5911   4.193   1.946   2.938
 1983TIP3   OH2 5912   0.051   6.397   4.589
 1983TIP3    H1 5913  -0.018   6.375   4.526
 1983TIP3    H2 5914   0.123   6.431   4.536
 1984TIP3   OH2 5915   5.363   3.338   2.728
 1984TIP3    H1 5916   5.293   3.275   2.709
 1984TIP3    H2 5917   5.438   3.283   2.752
 1985TIP3   OH2 5918   7.071   3.550   3.455
 1985TIP3    H1 5919   7.017   3.629   3.454
 1985TIP3    H2 5920   7.160   3.582   3.445
 1986TIP3   OH2 5921   0.650   2.464   5.138
 1986TIP3    H1 5922   0.633   2.402   5.068
 1986TIP3    H2 5923   0.564   2.487   5.172
 1987TIP3   OH2 5924   3.902   5.497   2.498
 1987TIP3    H1 5925   3.944   5.536   2.575
 1987TIP3    H2 5926   3.915   5.561   2.429
 1988TIP3   OH2 5927   6.431   5.064   2.009
 1988TIP3    H1 5928   6.408   5.044   1.918
 1988TIP3    H2 5929   6.523   5.090   2.005
 1989TIP3   OH2 5930   3.426   5.773   2.925
 1989TIP3    H1 5931   3.363   5.846   2.932
 1989TIP3    H2 5932   3.491   5.791   2.993
 1990TIP3   OH2 5933   4.379   3.965   1.844
 1990TIP3    H1 5934   4.299   3.982   1.895
 1990TIP3    H2 5935   4.404   3.876   1.868
 1991TIP3   OH2 5936   1.597   5.110   4.964
 1991TIP3    H1 5937   1.548   5.042   4.918
 1991TIP3    H2 5938   1.652   5.062   5.027
 1992TIP3   OH2 5939   2.057   2.980   1.321
 1992TIP3    H1 5940   1.968   3.000   1.291
 1992TIP3    H2 5941   2.095   2.928   1.249
 1993TIP3   OH2 5942   0.327   4.586   3.674
 1993TIP3    H1 5943   0.257   4.522   3.664
 1993TIP3    H2 5944   0.402   4.546   3.630
 1994TIP3   OH2 5945   6.914   1.071   4.330
 1994TIP3    H1 5946   6.936   0.978   4.329
 1994TIP3    H2 5947   6.870   1.085   4.414
 1995TIP3   OH2 5948   4.949   4.876   4.114
 1995TIP3    H1 5949   4.934   4.859   4.021
 1995TIP3    H2 5950   4.894   4.811   4.159
 1996TIP3   OH2 5951   2.733   6.035   5.615
 1996TIP3    H1 5952   2.693   6.083   5.687
 1996TIP3    H2 5953   2.820   6.073   5.607
 1997TIP3   OH2 5954   0.707   1.142   1.251
 1997TIP3    H1 5955   0.772   1.075   1.232
 1997TIP3    H2 5956   0.719   1.207   1.182
 1998TIP3   OH2 5957   2.774   0.540   4.291
 1998TIP3    H1 5958   2.740   0.453   4.311
 1998TIP3    H2 5959   2.724   0.599   4.348
 1999TIP3   OH2 5960   3.945   1.891   1.529
 1999TIP3    H1 5961   4.031   1.912   1.564
 1999TIP3    H2 5962   3.937   1.944   1.449
 2000TIP3   OH2 5963   2.690   5.877   1.809
 2000TIP3    H1 5964   2.743   5.953   1.786
 2000TIP3    H2 5965   2.720   5.853   1.897
 2001TIP3   OH2 5966   1.263   2.371   2.159
 2001TIP3    H1 5967   1.251   2.462   2.131
 2001TIP3    H2 5968   1.301   2.378   2.246
 2002TIP3   OH2 5969   2.358   1.167   0.089
 2002TIP3    H1 5970   2.307   1.218   0.152
 2002TIP3    H2 5971   2.447   1.200   0.097
 2003TIP3   OH2 5972   2.597   5.994   4.143
 2003TIP3    H1 5973   2.525   5.980   4.083
 2003TIP3    H2 5974   2.621   5.906   4.173
 2004TIP3   OH2 5975   6.132   1.291   1.323
 2004TIP3    H1 5976   6.111   1.205   1.287
 2004TIP3    H2 5977   6.165   1.340   1.248
 2005TIP3   OH2 5978   6.960   1.121   2.968
 2005TIP3    H1 5979   7.033   1.182   2.960
 2005TIP3    H2 5980   6.952   1.083   2.880
 2006TIP3   OH2 5981   6.625   4.012   1.696
 2006TIP3    H1 5982   6.633   4.033   1.789
 2006TIP3    H2 5983   6.701   4.053   1.656
 2007TIP3   OH2 5984   6.694   2.082   2.521
 2007TIP3    H1 5985   6.789   2.092   2.523
 2007TIP3    H2 5986   6.663   2.121   2.603
 2008TIP3   OH2 5987   5.783   5.830   4.573
 2008TIP3    H1 5988   5.828   5.913   4.555
 2008TIP3    H2 5989   5.850   5.763   4.562
 2009TIP3   OH2 5990   5.012   6.172   2.121
 2009TIP3    H1 5991   5.063   6.202   2.197
 2009TIP3    H2 5992   4.942   6.119   2.159
 2010TIP3   OH2 5993   4.127   0.012   5.509
 2010TIP3    H1 5994   4.134  -0.038   5.427
 2010TIP3    H2 5995   4.216   0.046   5.523
 2011TIP3   OH2 5996   3.481   6.208   4.227
 2011TIP3    H1 5997   3.516   6.278   4.172
 2011TIP3    H2 5998   3.415   6.166   4.172
 2012TIP3   OH2 5999   5.015   6.489   4.541
 2012TIP3    H1 6000   4.960   6.508   4.617
 2012TIP3    H2 6001   5.105   6.493   4.574
 2013TIP3   OH2 6002   2.183   3.963   2.436
 2013TIP3    H1 6003   2.151   4.045   2.399
 2013TIP3    H2 6004   2.228   3.920   2.363
 2014TIP3   OH2 6005   1.921   0.265   1.781
 2014TIP3    H1 6006   1.957   0.220   1.705
 2014TIP3    H2 6007   1.939   0.358   1.765
 2015TIP3   OH2 6008   1.889   0.709   1.375
 2015TIP3    H1 6009   1.823   0.742   1.435
 2015TIP3    H2 6010   1.841   0.691   1.294
 2016TIP3   OH2 6011   4.106   0.170   2.609
 2016TIP3    H1 6012   4.191   0.205   2.584
 2016TIP3    H2 6013   4.059   0.245   2.645
 2017TIP3   OH2 6014   7.044   1.318   2.521
 2017TIP3    H1 6015   7.109   1.386   2.539
 2017TIP3    H2 6016   6.977   1.330   2.588
 2018TIP3   OH2 6017   0.970   3.154   1.877
 2018TIP3    H1 6018   0.923   3.072   1.884
 2018TIP3    H2 6019   0.908   3.221   1.905
 2019TIP3   OH2 6020   3.835   5.930   0.479
 2019TIP3    H1 6021   3.885   5.974   0.547
 2019TIP3    H2 6022   3.900   5.897   0.418
 2020TIP3   OH2 6023   2.152   4.257   2.758
 2020TIP3    H1 6024   2.240   4.278   2.727
 2020TIP3    H2 6025   2.159   4.263   2.854
 2021TIP3   OH2 6026   6.587   5.309   1.008
 2021TIP3    H1 6027   6.612   5.359   0.930
 2021TIP3    H2 6028   6.554   5.374   1.069
 2022TIP3   OH2 6029   3.368   2.438   1.813
 2022TIP3    H1 6030   3.307   2.487   1.757
 2022TIP3    H2 6031   3.455   2.464   1.782
 2023TIP3   OH2 6032   5.533   0.235   1.826
 2023TIP3    H1 6033   5.473   0.297   1.868
 2023TIP3    H2 6034   5.476   0.174   1.779
 2024TIP3   OH2 6035   6.420   2.136   5.445
 2024TIP3    H1 6036   6.392   2.150   5.355
 2024TIP3    H2 6037   6.511   2.166   5.448
 2025TIP3   OH2 6038   0.568   3.481   4.620
 2025TIP3    H1 6039   0.633   3.474   4.690
 2025TIP3    H2 6040   0.484   3.471   4.665
 2026TIP3   OH2 6041   3.194   6.281   2.595
 2026TIP3    H1 6042   3.201   6.369   2.558
 2026TIP3    H2 6043   3.101   6.271   2.615
 2027TIP3   OH2 6044   2.936   4.124   0.812
 2027TIP3    H1 6045   2.902   4.136   0.723
 2027TIP3    H2 6046   2.861   4.143   0.869
 2028TIP3   OH2 6047   6.627   6.048   3.197
 2028TIP3    H1 6048   6.709   6.013   3.229
 2028TIP3    H2 6049   6.639   6.056   3.102
 2029TIP3   OH2 6050   6.070   5.914   1.969
 2029TIP3    H1 6051   6.165   5.923   1.958
 2029TIP3    H2 6052   6.041   5.865   1.892
 2030TIP3   OH2 6053   2.429   1.508   0.030
 2030TIP3    H1 6054   2.426   1.430  -0.025
 2030TIP3    H2 6055   2.522   1.529   0.037
 2031TIP3   OH2 6056   7.024   1.991   2.825
 2031TIP3    H1 6057   7.036   1.994   2.920
 2031TIP3    H2 6058   6.929   1.989   2.814
 2032TIP3   OH2 6059   5.648   3.598   0.092
 2032TIP3    H1 6060   5.694   3.571   0.171
 2032TIP3    H2 6061   5.556   3.578   0.110
 2033TIP3   OH2 6062   6.522   2.399   1.764
 2033TIP3    H1 6063   6.515   2.355   1.849
 2033TIP3    H2 6064   6.522   2.328   1.700
 2034TIP3   OH2 6065   1.327   3.992   4.437
 2034TIP3    H1 6066   1.281   3.995   4.521
 2034TIP3    H2 6067   1.312   4.079   4.399
 2035TIP3   OH2 6068   6.103   2.620   2.992
 2035TIP3    H1 6069   6.081   2.535   3.030
 2035TIP3    H2 6070   6.188   2.606   2.950
 2036TIP3   OH2 6071   6.978   0.843   2.523
 2036TIP3    H1 6072   7.020   0.806   2.446
 2036TIP3    H2 6073   6.887   0.817   2.517
 2037TIP3   OH2 6074   2.401   1.501   5.760
 2037TIP3    H1 6075   2.449   1.563   5.706
 2037TIP3    H2 6076   2.374   1.551   5.837
 2038TIP3   OH2 6077   1.674   4.882   0.994
 2038TIP3    H1 6078   1.693   4.946   0.926
 2038TIP3    H2 6079   1.579   4.874   0.994
 2039TIP3   OH2 6080   2.516   4.972   0.376
 2039TIP3    H1 6081   2.570   5.009   0.306
 2039TIP3    H2 6082   2.448   5.038   0.391
 2040TIP3   OH2 6083   0.722   1.423   1.289
 2040TIP3    H1 6084   0.761   1.367   1.355
 2040TIP3    H2 6085   0.739   1.512   1.320
 2041TIP3   OH2 6086   6.991   3.742   5.140
 2041TIP3    H1 6087   7.039   3.691   5.075
 2041TIP3    H2 6088   7.052   3.753   5.213
 2042TIP3   OH2 6089   1.295   6.234   2.334
 2042TIP3    H1 6090   1.248   6.233   2.251
 2042TIP3    H2 6091   1.301   6.142   2.360
 2043TIP3   OH2 6092   6.931   1.545   4.694
 2043TIP3    H1 6093   7.013   1.506   4.662
 2043TIP3    H2 6094   6.869   1.530   4.623
 2044TIP3   OH2 6095   6.074   1.041   1.283
 2044TIP3    H1 6096   5.999   1.036   1.224
 2044TIP3    H2 6097   6.037   1.025   1.370
 2045TIP3   OH2 6098   0.445   3.961  -0.004
 2045TIP3    H1 6099   0.492   4.044  -0.005
 2045TIP3    H2 6100   0.389   3.966   0.073
 2046TIP3   OH2 6101   5.210   4.961   0.592
 2046TIP3    H1 6102   5.164   5.043   0.572
 2046TIP3    H2 6103   5.303   4.984   0.580
 2047TIP3   OH2 6104   3.602   0.251   3.981
 2047TIP3    H1 6105   3.587   0.318   3.914
 2047TIP3    H2 6106   3.639   0.299   4.055
 2048TIP3   OH2 6107   2.071   0.599   3.742
 2048TIP3    H1 6108   2.093   0.545   3.817
 2048TIP3    H2 6109   2.002   0.658   3.774
 2049TIP3   OH2 6110   6.322   4.810   5.734
 2049TIP3    H1 6111   6.368   4.796   5.651
 2049TIP3    H2 6112   6.377   4.873   5.781
 2050TIP3   OH2 6113   0.101   2.518   5.587
 2050TIP3    H1 6114   0.046   2.593   5.564
 2050TIP3    H2 6115   0.143   2.543   5.670
 2051TIP3   OH2 6116   1.822   0.818   3.494
 2051TIP3    H1 6117   1.831   0.909   3.520
 2051TIP3    H2 6118   1.772   0.777   3.565
 2052TIP3   OH2 6119   6.627   5.890   4.708
 2052TIP3    H1 6120   6.583   5.949   4.647
 2052TIP3    H2 6121   6.645   5.811   4.657
 2053TIP3   OH2 6122   5.694   6.010   3.688
 2053TIP3    H1 6123   5.762   5.943   3.678
 2053TIP3    H2 6124   5.736   6.091   3.659
 2054TIP3   OH2 6125   4.442   0.423   4.056
 2054TIP3    H1 6126   4.515   0.479   4.080
 2054TIP3    H2 6127   4.437   0.430   3.961
 2055TIP3   OH2 6128   3.707   6.627   5.793
 2055TIP3    H1 6129   3.695   6.693   5.862
 2055TIP3    H2 6130   3.736   6.549   5.840
 2056TIP3   OH2 6131   2.529   5.428   3.297
 2056TIP3    H1 6132   2.462   5.476   3.248
 2056TIP3    H2 6133   2.480   5.385   3.368
 2057TIP3   OH2 6134   3.422   2.528   5.811
 2057TIP3    H1 6135   3.390   2.609   5.852
 2057TIP3    H2 6136   3.500   2.506   5.861
 2058TIP3   OH2 6137   0.499  -0.047   5.525
 2058TIP3    H1 6138   0.426  -0.044   5.587
 2058TIP3    H2 6139   0.509   0.043   5.494
 2059TIP3   OH2 6140   2.482   0.259   2.724
 2059TIP3    H1 6141   2.556   0.222   2.773
 2059TIP3    H2 6142   2.479   0.351   2.751
 2060TIP3   OH2 6143   2.953   3.983   3.088
 2060TIP3    H1 6144   2.913   3.898   3.076
 2060TIP3    H2 6145   2.964   4.018   2.999
 2061TIP3   OH2 6146   4.825   2.774   5.599
 2061TIP3    H1 6147   4.790   2.827   5.670
 2061TIP3    H2 6148   4.844   2.689   5.639
 2062TIP3   OH2 6149   2.069   6.469   3.830
 2062TIP3    H1 6150   1.991   6.429   3.792
 2062TIP3    H2 6151   2.052   6.564   3.825
 2063TIP3   OH2 6152   0.907   2.307   4.798
 2063TIP3    H1 6153   0.948   2.310   4.885
 2063TIP3    H2 6154   0.814   2.301   4.817
 2064TIP3   OH2 6155   3.353   2.877   5.529
 2064TIP3    H1 6156   3.416   2.943   5.499
 2064TIP3    H2 6157   3.332   2.904   5.619
 2065TIP3   OH2 6158   1.191   4.480   0.182
 2065TIP3    H1 6159   1.272   4.530   0.198
 2065TIP3    H2 6160   1.121   4.540   0.207
 2066TIP3   OH2 6161   2.826   3.253   5.101
 2066TIP3    H1 6162   2.921   3.259   5.110
 2066TIP3    H2 6163   2.792   3.268   5.189
 2067TIP3   OH2 6164   6.421   1.615   2.026
 2067TIP3    H1 6165   6.427   1.654   2.113
 2067TIP3    H2 6166   6.353   1.549   2.035
 2068TIP3   OH2 6167   3.427   3.027   1.563
 2068TIP3    H1 6168   3.432   3.101   1.623
 2068TIP3    H2 6169   3.402   2.953   1.618
 2069TIP3   OH2 6170   0.416   1.186   3.498
 2069TIP3    H1 6171   0.375   1.106   3.531
 2069TIP3    H2 6172   0.346   1.231   3.450
 2070TIP3   OH2 6173   0.625   1.376   1.898
 2070TIP3    H1 6174   0.548   1.432   1.908
 2070TIP3    H2 6175   0.624   1.349   1.806
 2071TIP3   OH2 6176   5.344   3.989   0.682
 2071TIP3    H1 6177   5.277   3.939   0.729
 2071TIP3    H2 6178   5.411   4.008   0.748
 2072TIP3   OH2 6179   0.772   5.884   0.759
 2072TIP3    H1 6180   0.786   5.790   0.768
 2072TIP3    H2 6181   0.678   5.894   0.750
 2073TIP3   OH2 6182   6.138   3.534   4.534
 2073TIP3    H1 6183   6.162   3.482   4.457
 2073TIP3    H2 6184   6.176   3.485   4.608
 2074TIP3   OH2 6185   1.894   2.067   2.613
 2074TIP3    H1 6186   1.828   2.128   2.646
 2074TIP3    H2 6187   1.943   2.040   2.691
 2075TIP3   OH2 6188   1.228   1.267   2.693
 2075TIP3    H1 6189   1.142   1.242   2.658
 2075TIP3    H2 6190   1.212   1.282   2.786
 2076TIP3   OH2 6191   1.094   2.513   4.283
 2076TIP3    H1 6192   1.070   2.428   4.319
 2076TIP3    H2 6193   1.169   2.494   4.226
 2077TIP3   OH2 6194   0.660   4.118   4.801
 2077TIP3    H1 6195   0.576   4.113   4.847
 2077TIP3    H2 6196   0.706   4.038   4.827
 2078TIP3   OH2 6197   6.433   2.253   3.591
 2078TIP3    H1 6198   6.385   2.327   3.628
 2078TIP3    H2 6199   6.505   2.237   3.652
 2079TIP3   OH2 6200   4.368   1.499   0.525
 2079TIP3    H1 6201   4.322   1.426   0.566
 2079TIP3    H2 6202   4.442   1.458   0.479
 2080TIP3   OH2 6203   6.656   6.613   4.868
 2080TIP3    H1 6204   6.721   6.620   4.799
 2080TIP3    H2 6205   6.602   6.537   4.843
 2081TIP3   OH2 6206   6.124   5.132   4.880
 2081TIP3    H1 6207   6.186   5.075   4.927
 2081TIP3    H2 6208   6.168   5.216   4.874
 2082TIP3   OH2 6209   6.277   5.491   5.449
 2082TIP3    H1 6210   6.271   5.580   5.483
 2082TIP3    H2 6211   6.370   5.479   5.430
 2083TIP3   OH2 6212   0.893   6.559   4.421
 2083TIP3    H1 6213   0.807   6.586   4.388
 2083TIP3    H2 6214   0.934   6.640   4.451
 2084TIP3   OH2 6215   3.854   4.451   4.159
 2084TIP3    H1 6216   3.933   4.487   4.118
 2084TIP3    H2 6217   3.880   4.364   4.189
 2085TIP3   OH2 6218   4.131   1.407   1.396
 2085TIP3    H1 6219   4.045   1.428   1.359
 2085TIP3    H2 6220   4.151   1.482   1.453
 2086TIP3   OH2 6221   0.107   6.495   5.213
 2086TIP3    H1 6222   0.180   6.462   5.161
 2086TIP3    H2 6223   0.036   6.434   5.195
 2087TIP3   OH2 6224   6.094   5.590   3.730
 2087TIP3    H1 6225   6.065   5.501   3.750
 2087TIP3    H2 6226   6.161   5.580   3.663
 2088TIP3   OH2 6227   0.805   2.638   5.257
 2088TIP3    H1 6228   0.822   2.601   5.343
 2088TIP3    H2 6229   0.772   2.565   5.205
 2089TIP3   OH2 6230   4.809   5.940   1.341
 2089TIP3    H1 6231   4.882   5.895   1.384
 2089TIP3    H2 6232   4.845   6.025   1.314
 2090TIP3   OH2 6233   0.748   1.176   5.531
 2090TIP3    H1 6234   0.715   1.265   5.516
 2090TIP3    H2 6235   0.836   1.176   5.494
 2091TIP3   OH2 6236   6.277   4.116   1.413
 2091TIP3    H1 6237   6.266   4.116   1.508
 2091TIP3    H2 6238   6.199   4.160   1.380
 2092TIP3   OH2 6239   4.335   0.711   1.441
 2092TIP3    H1 6240   4.292   0.745   1.520
 2092TIP3    H2 6241   4.282   0.636   1.415
 2093TIP3   OH2 6242   1.695   4.250   2.939
 2093TIP3    H1 6243   1.725   4.264   3.028
 2093TIP3    H2 6244   1.775   4.232   2.889
 2094TIP3   OH2 6245   5.944   4.653   1.662
 2094TIP3    H1 6246   5.952   4.747   1.646
 2094TIP3    H2 6247   6.034   4.623   1.676
 2095TIP3   OH2 6248   5.580   5.857   5.761
 2095TIP3    H1 6249   5.548   5.946   5.774
 2095TIP3    H2 6250   5.662   5.867   5.712
 2096TIP3   OH2 6251   3.635   5.664   4.440
 2096TIP3    H1 6252   3.581   5.606   4.387
 2096TIP3    H2 6253   3.575   5.732   4.471
 2097TIP3   OH2 6254   4.426   6.407   3.614
 2097TIP3    H1 6255   4.337   6.380   3.638
 2097TIP3    H2 6256   4.483   6.344   3.658
 2098TIP3   OH2 6257   6.907   6.429   5.015
 2098TIP3    H1 6258   6.926   6.493   4.946
 2098TIP3    H2 6259   6.963   6.354   4.995
 2099TIP3   OH2 6260   1.618   6.534   3.721
 2099TIP3    H1 6261   1.584   6.597   3.658
 2099TIP3    H2 6262   1.557   6.539   3.795
 2100TIP3   OH2 6263   3.582   5.393   4.047
 2100TIP3    H1 6264   3.673   5.411   4.072
 2100TIP3    H2 6265   3.536   5.474   4.066
 2101TIP3   OH2 6266   2.674   5.415   0.959
 2101TIP3    H1 6267   2.708   5.328   0.983
 2101TIP3    H2 6268   2.693   5.423   0.866
 2102TIP3   OH2 6269   5.790   3.653   3.572
 2102TIP3    H1 6270   5.746   3.568   3.578
 2102TIP3    H2 6271   5.794   3.685   3.662
 2103TIP3   OH2 6272   2.459   1.343   4.841
 2103TIP3    H1 6273   2.503   1.304   4.765
 2103TIP3    H2 6274   2.416   1.421   4.806
 2104TIP3   OH2 6275   5.473   5.372   1.917
 2104TIP3    H1 6276   5.412   5.315   1.964
 2104TIP3    H2 6277   5.539   5.395   1.983
 2105TIP3   OH2 6278   2.253   0.246   0.493
 2105TIP3    H1 6279   2.301   0.244   0.410
 2105TIP3    H2 6280   2.321   0.255   0.560
 2106TIP3   OH2 6281   2.341   2.780   5.421
 2106TIP3    H1 6282   2.348   2.772   5.516
 2106TIP3    H2 6283   2.289   2.704   5.394
 2107TIP3   OH2 6284   4.089   5.525   2.181
 2107TIP3    H1 6285   4.042   5.460   2.129
 2107TIP3    H2 6286   4.032   5.601   2.183
 2108TIP3   OH2 6287   2.642   3.419   0.734
 2108TIP3    H1 6288   2.600   3.405   0.650
 2108TIP3    H2 6289   2.601   3.498   0.769
 2109TIP3   OH2 6290   6.223   6.084   4.156
 2109TIP3    H1 6291   6.152   6.031   4.194
 2109TIP3    H2 6292   6.242   6.041   4.073
 2110TIP3   OH2 6293   4.465   0.245   5.576
 2110TIP3    H1 6294   4.419   0.312   5.526
 2110TIP3    H2 6295   4.519   0.199   5.511
 2111TIP3   OH2 6296   3.993   1.517   1.195
 2111TIP3    H1 6297   4.026   1.593   1.147
 2111TIP3    H2 6298   4.006   1.444   1.135
 2112TIP3   OH2 6299   1.296   5.557   4.035
 2112TIP3    H1 6300   1.369   5.495   4.034
 2112TIP3    H2 6301   1.318   5.621   3.968
 2113TIP3   OH2 6302   2.562   3.416   0.434
 2113TIP3    H1 6303   2.622   3.341   0.424
 2113TIP3    H2 6304   2.573   3.465   0.353
 2114TIP3   OH2 6305   5.958   1.835   3.769
 2114TIP3    H1 6306   5.888   1.803   3.826
 2114TIP3    H2 6307   6.033   1.847   3.827
 2115TIP3   OH2 6308   4.924   5.116   4.826
 2115TIP3    H1 6309   4.993   5.119   4.892
 2115TIP3    H2 6310   4.919   5.023   4.801
 2116TIP3   OH2 6311   1.624   4.322   1.872
 2116TIP3    H1 6312   1.539   4.340   1.831
 2116TIP3    H2 6313   1.638   4.396   1.931
 2117TIP3   OH2 6314   4.067   0.796   0.724
 2117TIP3    H1 6315   4.031   0.707   0.713
 2117TIP3    H2 6316   4.161   0.785   0.708
 2118TIP3   OH2 6317   0.319   5.548   5.135
 2118TIP3    H1 6318   0.261   5.609   5.181
 2118TIP3    H2 6319   0.266   5.469   5.122
 2119TIP3   OH2 6320   4.079   1.168   1.516
 2119TIP3    H1 6321   4.024   1.130   1.447
 2119TIP3    H2 6322   4.104   1.254   1.482
 2120TIP3   OH2 6323   1.602   5.854   3.439
 2120TIP3    H1 6324   1.621   5.768   3.401
 2120TIP3    H2 6325   1.553   5.900   3.372
 2121TIP3   OH2 6326   0.847   3.900   1.218
 2121TIP3    H1 6327   0.787   3.901   1.143
 2121TIP3    H2 6328   0.797   3.858   1.288
 2122TIP3   OH2 6329   3.617   2.795   1.305
 2122TIP3    H1 6330   3.558   2.858   1.264
 2122TIP3    H2 6331   3.565   2.754   1.373
 2123TIP3   OH2 6332   3.514   6.558   5.305
 2123TIP3    H1 6333   3.570   6.609   5.247
 2123TIP3    H2 6334   3.564   6.479   5.324
 2124TIP3   OH2 6335   0.729   5.763   5.706
 2124TIP3    H1 6336   0.804   5.739   5.652
 2124TIP3    H2 6337   0.683   5.681   5.721
 2125TIP3   OH2 6338   3.971   2.072   1.913
 2125TIP3    H1 6339   4.057   2.037   1.890
 2125TIP3    H2 6340   3.948   2.028   1.995
 2126TIP3   OH2 6341   4.770   6.054   4.483
 2126TIP3    H1 6342   4.829   5.982   4.504
 2126TIP3    H2 6343   4.823   6.115   4.433
 2127TIP3   OH2 6344   3.574   5.870   0.134
 2127TIP3    H1 6345   3.622   5.953   0.141
 2127TIP3    H2 6346   3.578   5.833   0.222
 2128TIP3   OH2 6347   1.523   1.991   1.493
 2128TIP3    H1 6348   1.570   1.914   1.526
 2128TIP3    H2 6349   1.558   2.064   1.544
 2129TIP3   OH2 6350   5.488   5.060   0.579
 2129TIP3    H1 6351   5.499   5.123   0.650
 2129TIP3    H2 6352   5.533   5.100   0.504
 2130TIP3   OH2 6353   1.358   6.231   0.925
 2130TIP3    H1 6354   1.372   6.148   0.972
 2130TIP3    H2 6355   1.296   6.209   0.855
 2131TIP3   OH2 6356   3.455   1.555   2.005
 2131TIP3    H1 6357   3.386   1.598   1.955
 2131TIP3    H2 6358   3.510   1.626   2.038
 2132TIP3   OH2 6359   4.474   0.763   1.196
 2132TIP3    H1 6360   4.566   0.741   1.180
 2132TIP3    H2 6361   4.463   0.752   1.290
 2133TIP3   OH2 6362   4.101   0.748   5.280
 2133TIP3    H1 6363   4.115   0.785   5.367
 2133TIP3    H2 6364   4.166   0.792   5.225
 2134TIP3   OH2 6365   5.966   6.758   5.927
 2134TIP3    H1 6366   5.975   6.738   5.834
 2134TIP3    H2 6367   5.938   6.676   5.967
 2135TIP3   OH2 6368   1.201   0.970   1.909
 2135TIP3    H1 6369   1.159   0.885   1.925
 2135TIP3    H2 6370   1.259   0.982   1.984
 2136TIP3   OH2 6371   4.160   0.845   3.171
 2136TIP3    H1 6372   4.121   0.888   3.247
 2136TIP3    H2 6373   4.106   0.873   3.097
 2137TIP3   OH2 6374   5.076   3.473   3.667
 2137TIP3    H1 6375   5.071   3.378   3.665
 2137TIP3    H2 6376   5.077   3.498   3.574
 2138TIP3   OH2 6377   5.526   1.601   0.340
 2138TIP3    H1 6378   5.451   1.585   0.283
 2138TIP3    H2 6379   5.494   1.577   0.428
 2139TIP3   OH2 6380   4.243   1.888   1.150
 2139TIP3    H1 6381   4.190   1.968   1.149
 2139TIP3    H2 6382   4.193   1.826   1.098
 2140TIP3   OH2 6383   2.534   3.018   5.919
 2140TIP3    H1 6384   2.550   3.073   5.842
 2140TIP3    H2 6385   2.620   2.982   5.941
 2141TIP3   OH2 6386   5.119   4.207   1.491
 2141TIP3    H1 6387   5.110   4.233   1.399
 2141TIP3    H2 6388   5.145   4.288   1.536
 2142TIP3   OH2 6389   0.622   0.443   5.684
 2142TIP3    H1 6390   0.616   0.496   5.605
 2142TIP3    H2 6391   0.662   0.361   5.655
 2143TIP3   OH2 6392   4.755   4.099   4.391
 2143TIP3    H1 6393   4.762   4.080   4.297
 2143TIP3    H2 6394   4.842   4.129   4.416
 2144TIP3   OH2 6395   0.515   2.648   1.217
 2144TIP3    H1 6396   0.454   2.629   1.145
 2144TIP3    H2 6397   0.544   2.562   1.247
 2145TIP3   OH2 6398   1.398   4.340   1.709
 2145TIP3    H1 6399   1.310   4.358   1.739
 2145TIP3    H2 6400   1.388   4.274   1.640
 2146TIP3   OH2 6401   3.209   2.626   1.656
 2146TIP3    H1 6402   3.143   2.575   1.608
 2146TIP3    H2 6403   3.184   2.717   1.641
 2147TIP3   OH2 6404   2.231   1.931   0.319
 2147TIP3    H1 6405   2.143   1.930   0.282
 2147TIP3    H2 6406   2.247   2.024   0.338
 2148TIP3   OH2 6407   5.850   5.195   2.428
 2148TIP3    H1 6408   5.871   5.127   2.363
 2148TIP3    H2 6409   5.929   5.249   2.433
 2149TIP3   OH2 6410   5.264   3.128   4.888
 2149TIP3    H1 6411   5.197   3.182   4.845
 2149TIP3    H2 6412   5.222   3.099   4.969
 2150TIP3   OH2 6413   1.866   3.941   4.110
 2150TIP3    H1 6414   1.845   3.948   4.203
 2150TIP3    H2 6415   1.961   3.935   4.107
 2151TIP3   OH2 6416   4.160   4.230   3.307
 2151TIP3    H1 6417   4.255   4.224   3.302
 2151TIP3    H2 6418   4.140   4.225   3.400
 2152TIP3   OH2 6419   5.040   0.546   0.978
 2152TIP3    H1 6420   5.104   0.610   1.009
 2152TIP3    H2 6421   5.036   0.480   1.048
 2153TIP3   OH2 6422   2.075   1.376   1.426
 2153TIP3    H1 6423   2.120   1.351   1.507
 2153TIP3    H2 6424   2.138   1.431   1.380
 2154TIP3   OH2 6425   4.610   4.817   4.644
 2154TIP3    H1 6426   4.570   4.902   4.630
 2154TIP3    H2 6427   4.703   4.835   4.658
 2155TIP3   OH2 6428   4.409   5.259   3.942
 2155TIP3    H1 6429   4.347   5.191   3.968
 2155TIP3    H2 6430   4.487   5.242   3.995
 2156TIP3   OH2 6431   6.656   0.928   4.481
 2156TIP3    H1 6432   6.618   1.006   4.439
 2156TIP3    H2 6433   6.611   0.854   4.440
 2157TIP3   OH2 6434   4.735   4.794   5.407
 2157TIP3    H1 6435   4.660   4.794   5.348
 2157TIP3    H2 6436   4.714   4.729   5.474
 2158TIP3   OH2 6437   5.778   6.722   3.142
 2158TIP3    H1 6438   5.737   6.732   3.056
 2158TIP3    H2 6439   5.754   6.633   3.169
 2159TIP3   OH2 6440   2.976   1.458   3.704
 2159TIP3    H1 6441   2.882   1.472   3.696
 2159TIP3    H2 6442   3.005   1.438   3.615
 2160TIP3   OH2 6443   1.315   1.454   4.655
 2160TIP3    H1 6444   1.288   1.392   4.588
 2160TIP3    H2 6445   1.240   1.462   4.713
 2161TIP3   OH2 6446   1.975   1.072   0.636
 2161TIP3    H1 6447   1.938   1.008   0.696
 2161TIP3    H2 6448   1.903   1.096   0.578
 2162TIP3   OH2 6449   3.449   4.778   5.538
 2162TIP3    H1 6450   3.467   4.711   5.472
 2162TIP3    H2 6451   3.398   4.733   5.605
 2163TIP3   OH2 6452   5.461   5.448   1.184
 2163TIP3    H1 6453   5.462   5.532   1.229
 2163TIP3    H2 6454   5.380   5.406   1.214
 2164TIP3   OH2 6455   6.624   6.559   1.165
 2164TIP3    H1 6456   6.704   6.607   1.145
 2164TIP3    H2 6457   6.608   6.505   1.088
 2165TIP3   OH2 6458   6.104   4.408   4.796
 2165TIP3    H1 6459   6.065   4.494   4.784
 2165TIP3    H2 6460   6.154   4.393   4.716
 2166TIP3   OH2 6461   3.307   3.163   1.150
 2166TIP3    H1 6462   3.367   3.236   1.165
 2166TIP3    H2 6463   3.220   3.202   1.150
 2167TIP3   OH2 6464   4.881   3.026   0.879
 2167TIP3    H1 6465   4.815   3.091   0.856
 2167TIP3    H2 6466   4.948   3.035   0.812
 2168TIP3   OH2 6467   4.560   0.813   1.543
 2168TIP3    H1 6468   4.577   0.877   1.474
 2168TIP3    H2 6469   4.481   0.768   1.516
 2169TIP3   OH2 6470   4.660   3.961   1.504
 2169TIP3    H1 6471   4.651   3.873   1.541
 2169TIP3    H2 6472   4.728   4.003   1.557
 2170TIP3   OH2 6473   0.599   2.626   1.727
 2170TIP3    H1 6474   0.533   2.688   1.757
 2170TIP3    H2 6475   0.579   2.614   1.634
 2171TIP3   OH2 6476   3.324   2.146   5.437
 2171TIP3    H1 6477   3.327   2.195   5.519
 2171TIP3    H2 6478   3.231   2.137   5.418
 2172TIP3   OH2 6479   4.157   2.547   3.793
 2172TIP3    H1 6480   4.128   2.467   3.836
 2172TIP3    H2 6481   4.111   2.549   3.710
 2173TIP3   OH2 6482   1.278   4.208   5.228
 2173TIP3    H1 6483   1.238   4.228   5.144
 2173TIP3    H2 6484   1.372   4.203   5.209
 2174TIP3   OH2 6485   0.900   5.644   1.506
 2174TIP3    H1 6486   0.899   5.619   1.598
 2174TIP3    H2 6487   0.892   5.739   1.506
 2175TIP3   OH2 6488   0.862   1.345   3.591
 2175TIP3    H1 6489   0.820   1.286   3.528
 2175TIP3    H2 6490   0.933   1.293   3.629
 2176TIP3   OH2 6491   2.210   1.490   5.368
 2176TIP3    H1 6492   2.202   1.486   5.463
 2176TIP3    H2 6493   2.236   1.580   5.350
 2177TIP3   OH2 6494   4.692   1.648  -0.027
 2177TIP3    H1 6495   4.638   1.572  -0.047
 2177TIP3    H2 6496   4.663   1.676   0.060
 2178TIP3   OH2 6497   3.542   4.327   2.869
 2178TIP3    H1 6498   3.576   4.292   2.952
 2178TIP3    H2 6499   3.467   4.272   2.849
 2179TIP3   OH2 6500   3.564   1.986   5.380
 2179TIP3    H1 6501   3.512   2.064   5.400
 2179TIP3    H2 6502   3.582   1.946   5.465
 2180TIP3   OH2 6503   2.327   1.878   4.271
 2180TIP3    H1 6504   2.253   1.901   4.327
 2180TIP3    H2 6505   2.383   1.956   4.274
 2181TIP3   OH2 6506   3.478   5.469   0.946
 2181TIP3    H1 6507   3.532   5.473   1.025
 2181TIP3    H2 6508   3.523   5.524   0.882
 2182TIP3   OH2 6509   4.669   1.555   4.217
 2182TIP3    H1 6510   4.649   1.462   4.221
 2182TIP3    H2 6511   4.647   1.581   4.128
 2183TIP3   OH2 6512   2.411   2.773   3.337
 2183TIP3    H1 6513   2.462   2.772   3.256
 2183TIP3    H2 6514   2.320   2.780   3.307
 2184TIP3   OH2 6515   2.059   4.080   3.654
 2184TIP3    H1 6516   2.150   4.075   3.626
 2184TIP3    H2 6517   2.041   3.995   3.695
 2185TIP3   OH2 6518   2.448   2.134   4.271
 2185TIP3    H1 6519   2.395   2.199   4.318
 2185TIP3    H2 6520   2.534   2.138   4.313
 2186TIP3   OH2 6521   7.194   3.957   2.481
 2186TIP3    H1 6522   7.132   3.920   2.545
 2186TIP3    H2 6523   7.280   3.933   2.515
 2187TIP3   OH2 6524   3.683   3.004   2.204
 2187TIP3    H1 6525   3.589   3.021   2.210
 2187TIP3    H2 6526   3.715   3.015   2.293
 2188TIP3   OH2 6527   2.143   6.350   4.269
 2188TIP3    H1 6528   2.123   6.304   4.351
 2188TIP3    H2 6529   2.069   6.408   4.255
 2189TIP3   OH2 6530   3.484   5.543   0.390
 2189TIP3    H1 6531   3.525   5.570   0.473
 2189TIP3    H2 6532   3.462   5.451   0.403
 2190TIP3   OH2 6533   5.996   5.242   3.552
 2190TIP3    H1 6534   5.979   5.235   3.646
 2190TIP3    H2 6535   6.090   5.226   3.543
 2191TIP3   OH2 6536   1.789   6.083   2.746
 2191TIP3    H1 6537   1.762   6.096   2.837
 2191TIP3    H2 6538   1.710   6.053   2.701
 2192TIP3   OH2 6539   1.395   0.047   2.930
 2192TIP3    H1 6540   1.435   0.133   2.920
 2192TIP3    H2 6541   1.301   0.063   2.925
 2193TIP3   OH2 6542   1.800   4.472   5.643
 2193TIP3    H1 6543   1.884   4.511   5.665
 2193TIP3    H2 6544   1.737   4.544   5.651
 2194TIP3   OH2 6545   3.422   6.621   4.917
 2194TIP3    H1 6546   3.392   6.604   4.828
 2194TIP3    H2 6547   3.517   6.627   4.910
 2195TIP3   OH2 6548   5.276   1.876   4.402
 2195TIP3    H1 6549   5.324   1.806   4.358
 2195TIP3    H2 6550   5.288   1.858   4.495
 2196TIP3   OH2 6551   6.391   1.825   3.114
 2196TIP3    H1 6552   6.379   1.874   3.195
 2196TIP3    H2 6553   6.486   1.814   3.107
 2197TIP3   OH2 6554   5.097   1.380   3.416
 2197TIP3    H1 6555   5.176   1.356   3.369
 2197TIP3    H2 6556   5.057   1.296   3.440
 2198TIP3   OH2 6557   5.216   3.863   2.186
 2198TIP3    H1 6558   5.226   3.864   2.281
 2198TIP3    H2 6559   5.157   3.937   2.168
 2199TIP3   OH2 6560   1.099   1.706   5.291
 2199TIP3    H1 6561   1.149   1.788   5.287
 2199TIP3    H2 6562   1.072   1.690   5.200
 2200TIP3   OH2 6563   0.869   1.905   5.058
 2200TIP3    H1 6564   0.795   1.851   5.029
 2200TIP3    H2 6565   0.944   1.846   5.058
 2201TIP3   OH2 6566   0.834   4.497   3.462
 2201TIP3    H1 6567   0.806   4.441   3.390
 2201TIP3    H2 6568   0.853   4.581   3.422
 2202TIP3   OH2 6569   2.270   2.353   5.268
 2202TIP3    H1 6570   2.366   2.355   5.264
 2202TIP3    H2 6571   2.245   2.284   5.206
 2203TIP3   OH2 6572   4.097   4.335   2.174
 2203TIP3    H1 6573   4.152   4.396   2.222
 2203TIP3    H2 6574   4.008   4.356   2.200
 2204TIP3   OH2 6575   5.603   1.309   3.627
 2204TIP3    H1 6576   5.594   1.304   3.532
 2204TIP3    H2 6577   5.517   1.284   3.661
 2205TIP3   OH2 6578   3.460   3.873   0.277
 2205TIP3    H1 6579   3.425   3.862   0.189
 2205TIP3    H2 6580   3.546   3.914   0.264
 2206TIP3   OH2 6581   4.419   0.164   2.497
 2206TIP3    H1 6582   4.494   0.123   2.541
 2206TIP3    H2 6583   4.416   0.252   2.534
 2207TIP3   OH2 6584   7.158   0.474   2.425
 2207TIP3    H1 6585   7.081   0.450   2.372
 2207TIP3    H2 6586   7.195   0.550   2.380
 2208TIP3   OH2 6587   4.476   6.589   2.352
 2208TIP3    H1 6588   4.506   6.524   2.415
 2208TIP3    H2 6589   4.508   6.556   2.267
 2209TIP3   OH2 6590   4.470   0.183   2.937
 2209TIP3    H1 6591   4.391   0.166   2.885
 2209TIP3    H2 6592   4.448   0.260   2.989
 2210TIP3   OH2 6593   5.387   4.312   3.541
 2210TIP3    H1 6594   5.309   4.324   3.596
 2210TIP3    H2 6595   5.407   4.400   3.509
 2211TIP3   OH2 6596   3.944   4.882   4.824
 2211TIP3    H1 6597   3.934   4.959   4.881
 2211TIP3    H2 6598   3.905   4.908   4.741
 2212TIP3   OH2 6599   2.989   4.438   4.295
 2212TIP3    H1 6600   3.011   4.348   4.273
 2212TIP3    H2 6601   2.941   4.470   4.219
 2213TIP3   OH2 6602   7.051   1.332   3.521
 2213TIP3    H1 6603   7.100   1.411   3.538
 2213TIP3    H2 6604   7.034   1.334   3.426
 2214TIP3   OH2 6605   6.419   6.524   3.582
 2214TIP3    H1 6606   6.467   6.465   3.524
 2214TIP3    H2 6607   6.329   6.523   3.549
 2215TIP3   OH2 6608   0.614   6.467   0.087
 2215TIP3    H1 6609   0.523   6.439   0.084
 2215TIP3    H2 6610   0.663   6.389   0.111
 2216TIP3   OH2 6611   6.377   0.153   5.264
 2216TIP3    H1 6612   6.286   0.125   5.261
 2216TIP3    H2 6613   6.410   0.123   5.348
 2217TIP3   OH2 6614   3.082   0.089   0.151
 2217TIP3    H1 6615   3.146   0.049   0.210
 2217TIP3    H2 6616   3.063   0.021   0.087
 2218TIP3   OH2 6617   5.100   3.732   3.831
 2218TIP3    H1 6618   5.180   3.679   3.835
 2218TIP3    H2 6619   5.049   3.704   3.907
 2219TIP3   OH2 6620   3.055   1.995   3.600
 2219TIP3    H1 6621   3.068   1.974   3.507
 2219TIP3    H2 6622   3.143   1.997   3.637
 2220TIP3   OH2 6623   4.206   2.006   0.267
 2220TIP3    H1 6624   4.176   1.944   0.334
 2220TIP3    H2 6625   4.302   2.000   0.270
 2221TIP3   OH2 6626   4.528   2.770   3.615
 2221TIP3    H1 6627   4.476   2.740   3.541
 2221TIP3    H2 6628   4.487   2.728   3.691
 2222TIP3   OH2 6629   0.758   5.963   5.518
 2222TIP3    H1 6630   0.757   5.914   5.600
 2222TIP3    H2 6631   0.667   5.958   5.486
 2223TIP3   OH2 6632   4.093   4.604   4.437
 2223TIP3    H1 6633   4.089   4.530   4.497
 2223TIP3    H2 6634   4.002   4.627   4.421
 2224TIP3   OH2 6635   2.882   1.688   1.218
 2224TIP3    H1 6636   2.858   1.596   1.217
 2224TIP3    H2 6637   2.954   1.695   1.154
 2225TIP3   OH2 6638   7.063   4.129   3.868
 2225TIP3    H1 6639   6.979   4.120   3.911
 2225TIP3    H2 6640   7.042   4.153   3.778
 2226TIP3   OH2 6641   5.097   6.175   3.109
 2226TIP3    H1 6642   5.027   6.210   3.165
 2226TIP3    H2 6643   5.178   6.197   3.155
 2227TIP3   OH2 6644   4.705   6.716   3.126
 2227TIP3    H1 6645   4.634   6.680   3.074
 2227TIP3    H2 6646   4.757   6.640   3.152
 2228TIP3   OH2 6647   6.155   6.674   4.348
 2228TIP3    H1 6648   6.104   6.721   4.413
 2228TIP3    H2 6649   6.215   6.740   4.312
 2229TIP3   OH2 6650   4.257   5.554   2.405
 2229TIP3    H1 6651   4.243   5.479   2.462
 2229TIP3    H2 6652   4.191   5.545   2.336
 2230TIP3   OH2 6653   2.187   5.526   3.841
 2230TIP3    H1 6654   2.244   5.553   3.912
 2230TIP3    H2 6655   2.189   5.598   3.779
 2231TIP3   OH2 6656   5.160   4.320   2.988
 2231TIP3    H1 6657   5.191   4.307   2.899
 2231TIP3    H2 6658   5.067   4.337   2.980
 2232TIP3   OH2 6659   6.437   0.504   2.837
 2232TIP3    H1 6660   6.411   0.548   2.756
 2232TIP3    H2 6661   6.424   0.411   2.818
 2233TIP3   OH2 6662   1.565   3.511   0.874
 2233TIP3    H1 6663   1.658   3.490   0.866
 2233TIP3    H2 6664   1.564   3.593   0.924
 2234TIP3   OH2 6665   5.746   3.351   0.613
 2234TIP3    H1 6666   5.715   3.421   0.670
 2234TIP3    H2 6667   5.830   3.383   0.578
 2235TIP3   OH2 6668   2.299   2.433   2.456
 2235TIP3    H1 6669   2.285   2.494   2.528
 2235TIP3    H2 6670   2.226   2.371   2.462
 2236TIP3   OH2 6671   2.469   6.640   3.882
 2236TIP3    H1 6672   2.521   6.601   3.952
 2236TIP3    H2 6673   2.529   6.701   3.839
 2237TIP3   OH2 6674   3.946   2.511   2.201
 2237TIP3    H1 6675   4.005   2.441   2.173
 2237TIP3    H2 6676   3.859   2.473   2.195
 2238TIP3   OH2 6677   1.461   1.782   4.816
 2238TIP3    H1 6678   1.433   1.849   4.878
 2238TIP3    H2 6679   1.430   1.813   4.731
 2239TIP3   OH2 6680   7.224   2.904   4.954
 2239TIP3    H1 6681   7.159   2.891   5.023
 2239TIP3    H2 6682   7.221   2.998   4.936
 2240TIP3   OH2 6683   6.011   5.479   4.912
 2240TIP3    H1 6684   6.032   5.532   4.988
 2240TIP3    H2 6685   6.032   5.534   4.837
 2241TIP3   OH2 6686   7.106   4.701   0.418
 2241TIP3    H1 6687   7.082   4.621   0.464
 2241TIP3    H2 6688   7.023   4.743   0.397
 2242TIP3   OH2 6689   3.064   2.578   1.917
 2242TIP3    H1 6690   3.067   2.590   1.822
 2242TIP3    H2 6691   3.002   2.507   1.930
 2243TIP3   OH2 6692   4.467   0.472   0.181
 2243TIP3    H1 6693   4.418   0.400   0.142
 2243TIP3    H2 6694   4.458   0.544   0.118
 2244TIP3   OH2 6695   5.776   3.749   4.387
 2244TIP3    H1 6696   5.710   3.680   4.379
 2244TIP3    H2 6697   5.856   3.710   4.350
 2245TIP3   OH2 6698   5.611   5.671   0.979
 2245TIP3    H1 6699   5.527   5.716   0.965
 2245TIP3    H2 6700   5.625   5.674   1.073
 2246TIP3   OH2 6701   3.491   5.290   1.957
 2246TIP3    H1 6702   3.532   5.307   2.043
 2246TIP3    H2 6703   3.397   5.286   1.976
 2247TIP3   OH2 6704   3.528   4.238   3.727
 2247TIP3    H1 6705   3.486   4.245   3.813
 2247TIP3    H2 6706   3.475   4.293   3.670
 2248TIP3   OH2 6707   4.734   3.805   5.833
 2248TIP3    H1 6708   4.804   3.852   5.879
 2248TIP3    H2 6709   4.660   3.809   5.893
 2249TIP3   OH2 6710   1.511   1.362   5.527
 2249TIP3    H1 6711   1.600   1.366   5.562
 2249TIP3    H2 6712   1.521   1.381   5.433
 2250TIP3   OH2 6713   5.127   3.496   2.665
 2250TIP3    H1 6714   5.204   3.472   2.716
 2250TIP3    H2 6715   5.054   3.452   2.711
 2251TIP3   OH2 6716   0.158   2.235   1.108
 2251TIP3    H1 6717   0.139   2.197   1.193
 2251TIP3    H2 6718   0.174   2.328   1.126
 2252TIP3   OH2 6719   6.333   0.910   5.426
 2252TIP3    H1 6720   6.319   0.885   5.335
 2252TIP3    H2 6721   6.420   0.948   5.427
 2253TIP3   OH2 6722   4.545   4.397   5.724
 2253TIP3    H1 6723   4.574   4.329   5.786
 2253TIP3    H2 6724   4.483   4.352   5.666
 2254TIP3   OH2 6725   3.159   3.861   4.454
 2254TIP3    H1 6726   3.214   3.787   4.479
 2254TIP3    H2 6727   3.070   3.835   4.478
 2255TIP3   OH2 6728   6.228   2.124   4.521
 2255TIP3    H1 6729   6.264   2.212   4.534
 2255TIP3    H2 6730   6.303   2.066   4.525
 2256TIP3   OH2 6731   4.178   2.705   2.956
 2256TIP3    H1 6732   4.183   2.755   2.875
 2256TIP3    H2 6733   4.267   2.709   2.992
 2257TIP3   OH2 6734   4.081   2.381   3.186
 2257TIP3    H1 6735   4.165   2.369   3.141
 2257TIP3    H2 6736   4.086   2.323   3.262
 2258TIP3   OH2 6737   5.619   1.508   1.915
 2258TIP3    H1 6738   5.557   1.526   1.845
 2258TIP3    H2 6739   5.570   1.455   1.979
 2259TIP3   OH2 6740   3.060   3.529   3.522
 2259TIP3    H1 6741   3.146   3.515   3.562
 2259TIP3    H2 6742   3.037   3.619   3.543
 2260TIP3   OH2 6743   1.862   1.033   4.272
 2260TIP3    H1 6744   1.933   0.972   4.294
 2260TIP3    H2 6745   1.904   1.119   4.271
 2261TIP3   OH2 6746   1.019   4.021   1.931
 2261TIP3    H1 6747   1.061   3.996   2.014
 2261TIP3    H2 6748   0.952   3.954   1.917
 2262TIP3   OH2 6749   3.003   1.754   0.964
 2262TIP3    H1 6750   3.023   1.840   1.001
 2262TIP3    H2 6751   3.021   1.762   0.871
 2263TIP3   OH2 6752   1.317   3.357   2.138
 2263TIP3    H1 6753   1.326   3.394   2.050
 2263TIP3    H2 6754   1.380   3.406   2.191
 2264TIP3   OH2 6755   5.314   5.016   5.956
 2264TIP3    H1 6756   5.252   4.958   5.999
 2264TIP3    H2 6757   5.374   4.958   5.910
 2265TIP3   OH2 6758   4.785   1.872   3.665
 2265TIP3    H1 6759   4.784   1.894   3.572
 2265TIP3    H2 6760   4.693   1.877   3.691
 2266TIP3   OH2 6761   3.548   2.638   0.065
 2266TIP3    H1 6762   3.535   2.679  -0.020
 2266TIP3    H2 6763   3.525   2.546   0.052
 2267TIP3   OH2 6764   1.846   3.195   0.781
 2267TIP3    H1 6765   1.886   3.263   0.836
 2267TIP3    H2 6766   1.795   3.142   0.842
 2268TIP3   OH2 6767   5.285   6.773   3.035
 2268TIP3    H1 6768   5.292   6.678   3.021
 2268TIP3    H2 6769   5.279   6.810   2.948
 2269TIP3   OH2 6770   5.465   5.517   4.683
 2269TIP3    H1 6771   5.455   5.497   4.776
 2269TIP3    H2 6772   5.455   5.432   4.639
 2270TIP3   OH2 6773   2.978   5.285   5.346
 2270TIP3    H1 6774   2.940   5.199   5.328
 2270TIP3    H2 6775   2.949   5.339   5.273
 2271TIP3   OH2 6776   3.723   0.507   2.052
 2271TIP3    H1 6777   3.685   0.431   2.096
 2271TIP3    H2 6778   3.711   0.489   1.959
 2272TIP3   OH2 6779   3.279   1.855   0.897
 2272TIP3    H1 6780   3.252   1.947   0.908
 2272TIP3    H2 6781   3.233   1.826   0.818
 2273TIP3   OH2 6782   4.352   5.501   0.665
 2273TIP3    H1 6783   4.324   5.510   0.574
 2273TIP3    H2 6784   4.324   5.581   0.708
 2274TIP3   OH2 6785   1.497   2.678   1.926
 2274TIP3    H1 6786   1.514   2.768   1.898
 2274TIP3    H2 6787   1.584   2.641   1.941
 2275TIP3   OH2 6788   0.361   0.674   1.291
 2275TIP3    H1 6789   0.428   0.738   1.316
 2275TIP3    H2 6790   0.410   0.603   1.250
 2276TIP3   OH2 6791   4.146   5.912   3.530
 2276TIP3    H1 6792   4.203   5.917   3.453
 2276TIP3    H2 6793   4.133   5.818   3.543
 2277TIP3   OH2 6794   7.134   1.898  -0.013
 2277TIP3    H1 6795   7.229   1.886  -0.021
 2277TIP3    H2 6796   7.112   1.960  -0.082
 2278TIP3   OH2 6797   6.564   5.488   4.361
 2278TIP3    H1 6798   6.543   5.504   4.269
 2278TIP3    H2 6799   6.631   5.554   4.381
 2279TIP3   OH2 6800   2.197   6.145   4.509
 2279TIP3    H1 6801   2.287   6.163   4.479
 2279TIP3    H2 6802   2.179   6.057   4.478
 2280TIP3   OH2 6803   0.624   0.727   0.045
 2280TIP3    H1 6804   0.559   0.672   0.088
 2280TIP3    H2 6805   0.706   0.678   0.054
 2281TIP3   OH2 6806   1.186   1.262   3.037
 2281TIP3    H1 6807   1.257   1.313   3.076
 2281TIP3    H2 6808   1.144   1.218   3.111
 2282TIP3   OH2 6809   6.869   0.849   2.056
 2282TIP3    H1 6810   6.924   0.903   1.999
 2282TIP3    H2 6811   6.789   0.834   2.006
 2283TIP3   OH2 6812   5.322   5.867   5.297
 2283TIP3    H1 6813   5.290   5.884   5.386
 2283TIP3    H2 6814   5.363   5.949   5.270
 2284TIP3   OH2 6815   2.306   5.492   0.958
 2284TIP3    H1 6816   2.295   5.585   0.979
 2284TIP3    H2 6817   2.401   5.479   0.957
 2285TIP3   OH2 6818   5.229   1.060   1.334
 2285TIP3    H1 6819   5.300   1.107   1.290
 2285TIP3    H2 6820   5.202   1.117   1.405
 2286TIP3   OH2 6821   6.146   1.256   2.223
 2286TIP3    H1 6822   6.166   1.203   2.146
 2286TIP3    H2 6823   6.225   1.308   2.238
 2287TIP3   OH2 6824   3.934   4.907   2.955
 2287TIP3    H1 6825   3.995   4.868   2.892
 2287TIP3    H2 6826   3.946   5.001   2.945
 2288TIP3   OH2 6827   3.187   0.137   4.292
 2288TIP3    H1 6828   3.181   0.210   4.354
 2288TIP3    H2 6829   3.277   0.141   4.259
 2289TIP3   OH2 6830   0.035   4.017   2.056
 2289TIP3    H1 6831   0.114   3.985   2.100
 2289TIP3    H2 6832  -0.037   3.975   2.104
 2290TIP3   OH2 6833   2.344   0.929   0.950
 2290TIP3    H1 6834   2.433   0.939   0.984
 2290TIP3    H2 6835   2.356   0.929   0.855
 2291TIP3   OH2 6836   2.649   3.060   3.274
 2291TIP3    H1 6837   2.671   3.061   3.180
 2291TIP3    H2 6838   2.554   3.073   3.276
 2292TIP3   OH2 6839   3.721   1.164   4.723
 2292TIP3    H1 6840   3.768   1.143   4.803
 2292TIP3    H2 6841   3.706   1.079   4.681
 2293TIP3   OH2 6842   4.789   0.981   5.475
 2293TIP3    H1 6843   4.817   0.984   5.567
 2293TIP3    H2 6844   4.694   0.968   5.480
 2294TIP3   OH2 6845   6.486   5.472   4.003
 2294TIP3    H1 6846   6.549   5.407   3.971
 2294TIP3    H2 6847   6.477   5.535   3.931
 2295TIP3   OH2 6848   3.616   3.592   4.572
 2295TIP3    H1 6849   3.538   3.558   4.529
 2295TIP3    H2 6850   3.648   3.661   4.514
 2296TIP3   OH2 6851   1.745   0.718   1.617
 2296TIP3    H1 6852   1.699   0.635   1.627
 2296TIP3    H2 6853   1.798   0.727   1.696
 2297TIP3   OH2 6854   4.312   5.801   1.550
 2297TIP3    H1 6855   4.231   5.852   1.545
 2297TIP3    H2 6856   4.285   5.718   1.589
 2298TIP3   OH2 6857   5.348   0.222   4.389
 2298TIP3    H1 6858   5.404   0.239   4.464
 2298TIP3    H2 6859   5.396   0.258   4.314
 2299TIP3   OH2 6860   6.468   3.363   3.967
 2299TIP3    H1 6861   6.539   3.298   3.967
 2299TIP3    H2 6862   6.491   3.423   4.038
 2300TIP3   OH2 6863   4.168   5.300   3.677
 2300TIP3    H1 6864   4.229   5.361   3.717
 2300TIP3    H2 6865   4.206   5.279   3.592
 2301TIP3   OH2 6866   0.678   3.087   2.755
 2301TIP3    H1 6867   0.648   3.150   2.820
 2301TIP3    H2 6868   0.713   3.014   2.807
 2302TIP3   OH2 6869   1.019   0.101   2.417
 2302TIP3    H1 6870   0.965   0.026   2.442
 2302TIP3    H2 6871   1.067   0.123   2.497
 2303TIP3   OH2 6872   1.267   2.872   2.530
 2303TIP3    H1 6873   1.187   2.826   2.555
 2303TIP3    H2 6874   1.338   2.822   2.570
 2304TIP3   OH2 6875   5.956   2.477   3.613
 2304TIP3    H1 6876   5.978   2.537   3.542
 2304TIP3    H2 6877   5.919   2.400   3.569
 2305TIP3   OH2 6878   4.289   6.261   3.288
 2305TIP3    H1 6879   4.378   6.295   3.282
 2305TIP3    H2 6880   4.256   6.265   3.198
 2306TIP3   OH2 6881   6.421   2.211   2.559
 2306TIP3    H1 6882   6.351   2.223   2.495
 2306TIP3    H2 6883   6.468   2.133   2.528
 2307TIP3   OH2 6884   0.931   3.815   5.347
 2307TIP3    H1 6885   0.864   3.754   5.377
 2307TIP3    H2 6886   0.973   3.846   5.427
 2308TIP3   OH2 6887   0.455   5.625   5.486
 2308TIP3    H1 6888   0.369   5.623   5.444
 2308TIP3    H2 6889   0.439   5.594   5.575
 2309TIP3   OH2 6890   3.676   3.960   4.911
 2309TIP3    H1 6891   3.616   4.016   4.862
 2309TIP3    H2 6892   3.745   3.940   4.848
 2310TIP3   OH2 6893   2.147   1.088   4.093
 2310TIP3    H1 6894   2.102   1.165   4.057
 2310TIP3    H2 6895   2.239   1.101   4.071
 2311TIP3   OH2 6896   3.343   6.427   3.282
 2311TIP3    H1 6897   3.418   6.484   3.265
 2311TIP3    H2 6898   3.274   6.487   3.310
 2312TIP3   OH2 6899   3.228   0.532   1.064
 2312TIP3    H1 6900   3.313   0.563   1.098
 2312TIP3    H2 6901   3.168   0.543   1.137
 2313TIP3   OH2 6902   6.255   1.126   2.010
 2313TIP3    H1 6903   6.224   1.066   2.077
 2313TIP3    H2 6904   6.210   1.098   1.930
 2314TIP3   OH2 6905   3.231   5.874   1.468
 2314TIP3    H1 6906   3.189   5.896   1.385
 2314TIP3    H2 6907   3.246   5.958   1.511
 2315TIP3   OH2 6908   5.614   3.381   4.377
 2315TIP3    H1 6909   5.655   3.295   4.373
 2315TIP3    H2 6910   5.649   3.420   4.457
 2316TIP3   OH2 6911   3.004   3.369   1.945
 2316TIP3    H1 6912   2.988   3.275   1.950
 2316TIP3    H2 6913   2.970   3.396   1.860
 2317TIP3   OH2 6914   0.836   0.669   4.573
 2317TIP3    H1 6915   0.813   0.700   4.485
 2317TIP3    H2 6916   0.816   0.743   4.630
 2318TIP3   OH2 6917   5.005   4.211   3.533
 2318TIP3    H1 6918   5.054   4.144   3.485
 2318TIP3    H2 6919   5.073   4.267   3.572
 2319TIP3   OH2 6920   4.440   0.589   2.922
 2319TIP3    H1 6921   4.433   0.632   3.007
 2319TIP3    H2 6922   4.350   0.584   2.890
 2320TIP3   OH2 6923   1.547   5.141   3.390
 2320TIP3    H1 6924   1.482   5.118   3.324
 2320TIP3    H2 6925   1.582   5.226   3.361
 2321TIP3   OH2 6926   0.028   4.682   2.265
 2321TIP3    H1 6927  -0.027   4.701   2.189
 2321TIP3    H2 6928   0.110   4.649   2.228
 2322TIP3   OH2 6929   1.385   5.290   4.278
 2322TIP3    H1 6930   1.300   5.286   4.233
 2322TIP3    H2 6931   1.449   5.274   4.209
 2323TIP3   OH2 6932   0.127   2.680   4.788
 2323TIP3    H1 6933   0.170   2.693   4.703
 2323TIP3    H2 6934   0.089   2.765   4.809
 2324TIP3   OH2 6935   5.349   6.549   5.774
 2324TIP3    H1 6936   5.301   6.514   5.699
 2324TIP3    H2 6937   5.280   6.575   5.836
 2325TIP3   OH2 6938   2.585   2.155   1.371
 2325TIP3    H1 6939   2.559   2.243   1.399
 2325TIP3    H2 6940   2.506   2.102   1.383
 2326TIP3   OH2 6941   3.213   2.482   2.732
 2326TIP3    H1 6942   3.225   2.529   2.815
 2326TIP3    H2 6943   3.226   2.550   2.665
 2327TIP3   OH2 6944   0.190   5.909   5.620
 2327TIP3    H1 6945   0.281   5.882   5.611
 2327TIP3    H2 6946   0.167   5.884   5.710
 2328TIP3   OH2 6947   5.349   0.979   0.679
 2328TIP3    H1 6948   5.324   0.979   0.771
 2328TIP3    H2 6949   5.348   1.072   0.654
 2329TIP3   OH2 6950   0.579   0.929   3.009
 2329TIP3    H1 6951   0.666   0.963   2.987
 2329TIP3    H2 6952   0.519   0.999   2.983
 2330TIP3   OH2 6953   5.392   3.740   3.552
 2330TIP3    H1 6954   5.311   3.778   3.517
 2330TIP3    H2 6955   5.459   3.765   3.489
 2331TIP3   OH2 6956   4.725   1.904   5.668
 2331TIP3    H1 6957   4.801   1.952   5.635
 2331TIP3    H2 6958   4.704   1.842   5.598
 2332TIP3   OH2 6959   4.174   0.430   3.267
 2332TIP3    H1 6960   4.100   0.400   3.215
 2332TIP3    H2 6961   4.143   0.510   3.310
 2333TIP3   OH2 6962   5.848   0.433   1.395
 2333TIP3    H1 6963   5.844   0.379   1.474
 2333TIP3    H2 6964   5.777   0.496   1.406
 2334TIP3   OH2 6965   4.919   6.225   3.318
 2334TIP3    H1 6966   4.973   6.206   3.394
 2334TIP3    H2 6967   4.872   6.306   3.341
 2335TIP3   OH2 6968   5.986   5.882   1.471
 2335TIP3    H1 6969   6.062   5.831   1.499
 2335TIP3    H2 6970   6.021   5.944   1.407
 2336TIP3   OH2 6971   0.049   0.435   1.717
 2336TIP3    H1 6972   0.127   0.473   1.758
 2336TIP3    H2 6973  -0.005   0.405   1.790
 2337TIP3   OH2 6974   2.341   0.718   1.655
 2337TIP3    H1 6975   2.408   0.724   1.586
 2337TIP3    H2 6976   2.390   0.723   1.737
 2338TIP3   OH2 6977   0.947   3.929   4.479
 2338TIP3    H1 6978   0.986   3.865   4.539
 2338TIP3    H2 6979   0.911   3.996   4.536
 2339TIP3   OH2 6980   6.384   3.466   0.640
 2339TIP3    H1 6981   6.392   3.421   0.724
 2339TIP3    H2 6982   6.309   3.524   0.651
 2340TIP3   OH2 6983   1.176   6.163   2.076
 2340TIP3    H1 6984   1.088   6.194   2.056
 2340TIP3    H2 6985   1.221   6.161   1.991
 2341TIP3   OH2 6986   2.742   1.248   5.372
 2341TIP3    H1 6987   2.765   1.221   5.461
 2341TIP3    H2 6988   2.658   1.293   5.382
 2342TIP3   OH2 6989   2.373   4.527   2.247
 2342TIP3    H1 6990   2.389   4.567   2.332
 2342TIP3    H2 6991   2.422   4.581   2.185
 2343TIP3   OH2 6992   4.579   3.699   1.596
 2343TIP3    H1 6993   4.603   3.671   1.684
 2343TIP3    H2 6994   4.484   3.710   1.599
 2344TIP3   OH2 6995   1.359   0.141   5.691
 2344TIP3    H1 6996   1.345   0.124   5.598
 2344TIP3    H2 6997   1.413   0.220   5.693
 2345TIP3   OH2 6998   2.442   0.339   5.711
 2345TIP3    H1 6999   2.404   0.358   5.796
 2345TIP3    H2 7000   2.507   0.407   5.697
 2346TIP3   OH2 7001   1.564   6.122   0.034
 2346TIP3    H1 7002   1.533   6.162  -0.047
 2346TIP3    H2 7003   1.609   6.042   0.005
 2347TIP3   OH2 7004   2.303   2.495   5.829
 2347TIP3    H1 7005   2.239   2.429   5.802
 2347TIP3    H2 7006   2.252   2.576   5.838
 2348TIP3   OH2 7007   5.622   5.270   3.506
 2348TIP3    H1 7008   5.672   5.203   3.552
 2348TIP3    H2 7009   5.622   5.345   3.565
 2349TIP3   OH2 7010   0.585   6.353   4.504
 2349TIP3    H1 7011   0.516   6.405   4.546
 2349TIP3    H2 7012   0.658   6.357   4.566
 2350TIP3   OH2 7013   4.448   0.264   3.409
 2350TIP3    H1 7014   4.365   0.275   3.454
 2350TIP3    H2 7015   4.457   0.344   3.356
 2351TIP3   OH2 7016   5.111   0.968   4.871
 2351TIP3    H1 7017   5.109   1.013   4.786
 2351TIP3    H2 7018   5.181   0.903   4.861
 2352TIP3   OH2 7019   0.908   0.360   2.954
 2352TIP3    H1 7020   0.974   0.368   2.885
 2352TIP3    H2 7021   0.873   0.448   2.964
 2353TIP3   OH2 7022   6.595   4.416   2.106
 2353TIP3    H1 7023   6.661   4.483   2.120
 2353TIP3    H2 7024   6.606   4.356   2.180
 2354TIP3   OH2 7025   5.986   3.130   4.078
 2354TIP3    H1 7026   5.938   3.199   4.124
 2354TIP3    H2 7027   6.053   3.177   4.028
 2355TIP3   OH2 7028   1.468   1.610   2.648
 2355TIP3    H1 7029   1.405   1.561   2.701
 2355TIP3    H2 7030   1.452   1.702   2.671
 2356TIP3   OH2 7031   4.595   1.448   3.927
 2356TIP3    H1 7032   4.680   1.491   3.912
 2356TIP3    H2 7033   4.593   1.376   3.865
 2357TIP3   OH2 7034   1.351   0.779   4.915
 2357TIP3    H1 7035   1.310   0.864   4.930
 2357TIP3    H2 7036   1.338   0.762   4.821
 2358TIP3   OH2 7037   6.255   3.728   0.591
 2358TIP3    H1 7038   6.201   3.699   0.518
 2358TIP3    H2 7039   6.345   3.723   0.558
 2359TIP3   OH2 7040   5.087   0.019   5.176
 2359TIP3    H1 7041   5.159   0.030   5.238
 2359TIP3    H2 7042   5.034   0.098   5.187
 2360TIP3   OH2 7043   0.323   4.725   0.835
 2360TIP3    H1 7044   0.228   4.719   0.836
 2360TIP3    H2 7045   0.342   4.806   0.883
 2361TIP3   OH2 7046   4.203   1.841   1.622
 2361TIP3    H1 7047   4.230   1.878   1.706
 2361TIP3    H2 7048   4.127   1.787   1.644
 2362TIP3   OH2 7049   6.508   0.728   5.805
 2362TIP3    H1 7050   6.526   0.635   5.817
 2362TIP3    H2 7051   6.592   0.771   5.820
 2363TIP3   OH2 7052   6.683   2.108   2.244
 2363TIP3    H1 7053   6.699   2.128   2.337
 2363TIP3    H2 7054   6.677   2.012   2.241
 2364TIP3   OH2 7055   1.805   4.289   0.204
 2364TIP3    H1 7056   1.881   4.311   0.259
 2364TIP3    H2 7057   1.828   4.324   0.118
 2365TIP3   OH2 7058   5.961   2.290   0.399
 2365TIP3    H1 7059   6.045   2.273   0.357
 2365TIP3    H2 7060   5.983   2.301   0.492
 2366TIP3   OH2 7061   4.119   2.823   3.857
 2366TIP3    H1 7062   4.047   2.795   3.914
 2366TIP3    H2 7063   4.144   2.744   3.810
 2367TIP3   OH2 7064   2.390   3.703   5.784
 2367TIP3    H1 7065   2.367   3.792   5.758
 2367TIP3    H2 7066   2.385   3.703   5.879
 2368TIP3   OH2 7067   3.576   4.436   1.767
 2368TIP3    H1 7068   3.579   4.437   1.863
 2368TIP3    H2 7069   3.584   4.343   1.744
 2369TIP3   OH2 7070   0.294   5.662   1.920
 2369TIP3    H1 7071   0.382   5.649   1.885
 2369TIP3    H2 7072   0.294   5.613   2.002
 2370TIP3   OH2 7073   1.130   3.901   0.658
 2370TIP3    H1 7074   1.137   3.897   0.754
 2370TIP3    H2 7075   1.114   3.810   0.632
 2371TIP3   OH2 7076   3.770   2.229   2.141
 2371TIP3    H1 7077   3.694   2.170   2.146
 2371TIP3    H2 7078   3.839   2.175   2.103
 2372TIP3   OH2 7079   6.586   3.107   2.541
 2372TIP3    H1 7080   6.614   3.195   2.515
 2372TIP3    H2 7081   6.668   3.059   2.555
 2373TIP3   OH2 7082   0.136   0.893   5.411
 2373TIP3    H1 7083   0.158   0.808   5.373
 2373TIP3    H2 7084   0.055   0.877   5.460
 2374TIP3   OH2 7085   6.698   4.992   0.197
 2374TIP3    H1 7086   6.625   5.048   0.168
 2374TIP3    H2 7087   6.776   5.035   0.162
 2375TIP3   OH2 7088   1.240   1.885   1.683
 2375TIP3    H1 7089   1.269   1.941   1.755
 2375TIP3    H2 7090   1.231   1.945   1.608
 2376TIP3   OH2 7091   3.881   3.194   2.932
 2376TIP3    H1 7092   3.868   3.273   2.880
 2376TIP3    H2 7093   3.840   3.213   3.016
 2377TIP3   OH2 7094   5.865   0.814   5.038
 2377TIP3    H1 7095   5.879   0.902   5.071
 2377TIP3    H2 7096   5.884   0.757   5.113
 2378TIP3   OH2 7097   0.461   1.075   2.697
 2378TIP3    H1 7098   0.508   1.156   2.678
 2378TIP3    H2 7099   0.518   1.006   2.665
 2379TIP3   OH2 7100   2.446   4.425   4.819
 2379TIP3    H1 7101   2.352   4.420   4.835
 2379TIP3    H2 7102   2.457   4.401   4.727
 2380TIP3   OH2 7103   2.587   3.111   0.606
 2380TIP3    H1 7104   2.547   3.133   0.522
 2380TIP3    H2 7105   2.588   3.016   0.607
 2381TIP3   OH2 7106   3.519   0.849   1.994
 2381TIP3    H1 7107   3.548   0.886   2.077
 2381TIP3    H2 7108   3.424   0.865   1.992
 2382TIP3   OH2 7109   0.030   0.780   4.943
 2382TIP3    H1 7110   0.016   0.761   5.036
 2382TIP3    H2 7111   0.029   0.695   4.900
 2383TIP3   OH2 7112   4.482   0.989   5.802
 2383TIP3    H1 7113   4.568   1.019   5.771
 2383TIP3    H2 7114   4.498   0.902   5.838
 2384TIP3   OH2 7115   6.690   2.236   2.753
 2384TIP3    H1 7116   6.718   2.266   2.840
 2384TIP3    H2 7117   6.620   2.296   2.729
 2385TIP3   OH2 7118   6.837   4.390   4.122
 2385TIP3    H1 7119   6.914   4.402   4.066
 2385TIP3    H2 7120   6.873   4.382   4.210
 2386TIP3   OH2 7121   0.392   5.568   0.770
 2386TIP3    H1 7122   0.321   5.609   0.720
 2386TIP3    H2 7123   0.374   5.474   0.764
 2387TIP3   OH2 7124   1.253   4.862   0.385
 2387TIP3    H1 7125   1.241   4.775   0.421
 2387TIP3    H2 7126   1.348   4.872   0.379
 2388TIP3   OH2 7127   2.754   1.777   1.444
 2388TIP3    H1 7128   2.788   1.759   1.357
 2388TIP3    H2 7129   2.786   1.864   1.466
 2389TIP3   OH2 7130   1.606   3.442   4.239
 2389TIP3    H1 7131   1.685   3.473   4.193
 2389TIP3    H2 7132   1.627   3.352   4.263
 2390TIP3   OH2 7133   6.870   3.855   1.999
 2390TIP3    H1 7134   6.858   3.762   2.017
 2390TIP3    H2 7135   6.818   3.900   2.066
 2391TIP3   OH2 7136   3.038   6.305   3.632
 2391TIP3    H1 7137   3.059   6.307   3.725
 2391TIP3    H2 7138   2.967   6.241   3.625
 2392TIP3   OH2 7139   6.207   4.323   4.551
 2392TIP3    H1 7140   6.245   4.336   4.464
 2392TIP3    H2 7141   6.200   4.228   4.560
 2393TIP3   OH2 7142   2.946   2.184   3.180
 2393TIP3    H1 7143   3.016   2.209   3.119
 2393TIP3    H2 7144   2.975   2.218   3.265
 2394TIP3   OH2 7145   6.724   0.070   3.039
 2394TIP3    H1 7146   6.708   0.112   2.955
 2394TIP3    H2 7147   6.741   0.142   3.099
 2395TIP3   OH2 7148   0.263   0.648   3.499
 2395TIP3    H1 7149   0.321   0.602   3.559
 2395TIP3    H2 7150   0.175   0.617   3.520
 2396TIP3   OH2 7151   6.883   6.266   4.764
 2396TIP3    H1 7152   6.910   6.331   4.700
 2396TIP3    H2 7153   6.800   6.232   4.730
 2397TIP3   OH2 7154   5.833   3.001   3.574
 2397TIP3    H1 7155   5.823   2.952   3.493
 2397TIP3    H2 7156   5.889   2.946   3.628
 2398TIP3   OH2 7157   6.341   4.403   1.817
 2398TIP3    H1 7158   6.346   4.307   1.819
 2398TIP3    H2 7159   6.337   4.429   1.909
 2399TIP3   OH2 7160   1.583   4.233   1.484
 2399TIP3    H1 7161   1.506   4.276   1.446
 2399TIP3    H2 7162   1.602   4.160   1.425
 2400TIP3   OH2 7163   5.307   5.475   4.439
 2400TIP3    H1 7164   5.385   5.527   4.417
 2400TIP3    H2 7165   5.258   5.530   4.500
 2401TIP3   OH2 7166   6.298   6.628   5.531
 2401TIP3    H1 7167   6.346   6.708   5.555
 2401TIP3    H2 7168   6.311   6.570   5.606
 2402TIP3   OH2 7169   3.033   5.654   2.121
 2402TIP3    H1 7170   3.051   5.693   2.207
 2402TIP3    H2 7171   3.028   5.560   2.138
 2403TIP3   OH2 7172   6.668   2.856   0.096
 2403TIP3    H1 7173   6.745   2.860   0.152
 2403TIP3    H2 7174   6.612   2.790   0.136
 2404TIP3   OH2 7175   5.128   1.455   2.269
 2404TIP3    H1 7176   5.168   1.472   2.354
 2404TIP3    H2 7177   5.034   1.465   2.284
 2405TIP3   OH2 7178   2.384   1.847   3.879
 2405TIP3    H1 7179   2.302   1.896   3.890
 2405TIP3    H2 7180   2.447   1.912   3.849
 2406TIP3   OH2 7181   1.953   6.573   3.424
 2406TIP3    H1 7182   1.931   6.521   3.502
 2406TIP3    H2 7183   1.951   6.664   3.455
 2407TIP3   OH2 7184   1.945   3.827   1.635
 2407TIP3    H1 7185   1.878   3.774   1.678
 2407TIP3    H2 7186   1.999   3.764   1.588
 2408TIP3   OH2 7187   2.162   1.687   0.654
 2408TIP3    H1 7188   2.169   1.774   0.694
 2408TIP3    H2 7189   2.226   1.687   0.583
 2409TIP3   OH2 7190   1.933   6.892   5.847
 2409TIP3    H1 7191   1.996   6.821   5.836
 2409TIP3    H2 7192   1.848   6.849   5.849
 2410TIP3   OH2 7193   6.195   5.712   5.653
 2410TIP3    H1 7194   6.256   5.658   5.703
 2410TIP3    H2 7195   6.221   5.802   5.672
 2411TIP3   OH2 7196   5.002   0.957   1.897
 2411TIP3    H1 7197   5.058   0.886   1.930
 2411TIP3    H2 7198   4.998   0.941   1.803
 2412TIP3   OH2 7199   7.100   6.740   4.860
 2412TIP3    H1 7200   7.119   6.654   4.822
 2412TIP3    H2 7201   7.173   6.756   4.920
 2413TIP3   OH2 7202   0.918   4.512   5.851
 2413TIP3    H1 7203   0.885   4.446   5.912
 2413TIP3    H2 7204   0.887   4.595   5.886
 2414TIP3   OH2 7205   3.366   3.817   5.343
 2414TIP3    H1 7206   3.295   3.789   5.400
 2414TIP3    H2 7207   3.331   3.811   5.255
 2415TIP3   OH2 7208   5.403   0.384   3.608
 2415TIP3    H1 7209   5.446   0.469   3.617
 2415TIP3    H2 7210   5.318   0.404   3.569
 2416TIP3   OH2 7211   1.336   5.253   2.780
 2416TIP3    H1 7212   1.243   5.255   2.801
 2416TIP3    H2 7213   1.379   5.284   2.859
 2417TIP3   OH2 7214   0.501   3.692   2.792
 2417TIP3    H1 7215   0.594   3.713   2.794
 2417TIP3    H2 7216   0.499   3.597   2.783
 2418TIP3   OH2 7217   0.417   5.593   0.357
 2418TIP3    H1 7218   0.405   5.534   0.431
 2418TIP3    H2 7219   0.402   5.539   0.280
 2419TIP3   OH2 7220   2.685   5.711   3.637
 2419TIP3    H1 7221   2.685   5.616   3.641
 2419TIP3    H2 7222   2.610   5.738   3.690
 2420TIP3   OH2 7223   1.421   6.460   5.709
 2420TIP3    H1 7224   1.451   6.512   5.783
 2420TIP3    H2 7225   1.330   6.487   5.695
 2421TIP3   OH2 7226   3.272   4.039   3.435
 2421TIP3    H1 7227   3.269   4.012   3.527
 2421TIP3    H2 7228   3.205   4.106   3.427
 2422TIP3   OH2 7229   0.285   3.532   5.200
 2422TIP3    H1 7230   0.233   3.452   5.192
 2422TIP3    H2 7231   0.288   3.567   5.111
 2423TIP3   OH2 7232   4.260   0.822   0.500
 2423TIP3    H1 7233   4.225   0.911   0.493
 2423TIP3    H2 7234   4.349   0.834   0.533
 2424TIP3   OH2 7235   2.108   2.707   3.514
 2424TIP3    H1 7236   2.115   2.803   3.512
 2424TIP3    H2 7237   2.150   2.679   3.433
 2425TIP3   OH2 7238   0.312   5.157   1.117
 2425TIP3    H1 7239   0.217   5.149   1.119
 2425TIP3    H2 7240   0.328   5.251   1.107
 2426TIP3   OH2 7241   4.733   2.052   4.960
 2426TIP3    H1 7242   4.722   2.020   4.871
 2426TIP3    H2 7243   4.756   1.975   5.011
 2427TIP3   OH2 7244   5.534   6.681   0.813
 2427TIP3    H1 7245   5.596   6.731   0.866
 2427TIP3    H2 7246   5.469   6.745   0.785
 2428TIP3   OH2 7247   4.348   4.199   4.814
 2428TIP3    H1 7248   4.375   4.108   4.807
 2428TIP3    H2 7249   4.424   4.243   4.854
 2429TIP3   OH2 7250   5.822   2.444   3.121
 2429TIP3    H1 7251   5.765   2.367   3.123
 2429TIP3    H2 7252   5.797   2.490   3.041
 2430TIP3   OH2 7253   5.596   1.044   4.638
 2430TIP3    H1 7254   5.592   1.036   4.542
 2430TIP3    H2 7255   5.623   1.135   4.652
 2431TIP3   OH2 7256   2.018   4.822   5.686
 2431TIP3    H1 7257   2.017   4.832   5.782
 2431TIP3    H2 7258   2.018   4.728   5.671
 2432TIP3   OH2 7259   2.361   5.183   1.159
 2432TIP3    H1 7260   2.354   5.094   1.123
 2432TIP3    H2 7261   2.455   5.194   1.174
 2433TIP3   OH2 7262   0.172   3.932   4.140
 2433TIP3    H1 7263   0.113   4.004   4.117
 2433TIP3    H2 7264   0.125   3.854   4.112
 2434TIP3   OH2 7265   2.967   2.104   4.281
 2434TIP3    H1 7266   2.984   2.144   4.366
 2434TIP3    H2 7267   3.052   2.071   4.253
 2435TIP3   OH2 7268   4.474   6.622   4.557
 2435TIP3    H1 7269   4.494   6.537   4.596
 2435TIP3    H2 7270   4.453   6.602   4.466
 2436TIP3   OH2 7271   5.212   0.508   0.484
 2436TIP3    H1 7272   5.259   0.426   0.469
 2436TIP3    H2 7273   5.208   0.517   0.579
 2437TIP3   OH2 7274   1.014   6.317   1.803
 2437TIP3    H1 7275   0.949   6.366   1.754
 2437TIP3    H2 7276   0.963   6.265   1.866
 2438TIP3   OH2 7277   4.064   1.848   5.384
 2438TIP3    H1 7278   4.000   1.845   5.313
 2438TIP3    H2 7279   4.110   1.931   5.371
 2439TIP3   OH2 7280   1.707   4.165   2.175
 2439TIP3    H1 7281   1.698   4.253   2.139
 2439TIP3    H2 7282   1.799   4.142   2.160
 2440TIP3   OH2 7283   1.584   4.663   3.961
 2440TIP3    H1 7284   1.579   4.580   3.913
 2440TIP3    H2 7285   1.523   4.721   3.915
 2441TIP3   OH2 7286   2.885   5.411   3.701
 2441TIP3    H1 7287   2.814   5.364   3.657
 2441TIP3    H2 7288   2.920   5.469   3.633
 2442TIP3   OH2 7289   6.734   1.711   4.176
 2442TIP3    H1 7290   6.767   1.708   4.086
 2442TIP3    H2 7291   6.712   1.803   4.191
 2443TIP3   OH2 7292   3.215   1.676   0.062
 2443TIP3    H1 7293   3.148   1.737   0.093
 2443TIP3    H2 7294   3.269   1.728   0.003
 2444TIP3   OH2 7295   5.906   4.427   2.799
 2444TIP3    H1 7296   5.941   4.476   2.874
 2444TIP3    H2 7297   5.955   4.460   2.724
 2445TIP3   OH2 7298   1.598   3.182   5.577
 2445TIP3    H1 7299   1.531   3.250   5.568
 2445TIP3    H2 7300   1.679   3.224   5.551
 2446TIP3   OH2 7301   6.962   4.516   0.603
 2446TIP3    H1 7302   6.868   4.530   0.591
 2446TIP3    H2 7303   6.972   4.496   0.696
 2447TIP3   OH2 7304   5.858   6.004   0.370
 2447TIP3    H1 7305   5.899   5.919   0.356
 2447TIP3    H2 7306   5.915   6.049   0.432
 2448TIP3   OH2 7307   5.093   2.447   2.278
 2448TIP3    H1 7308   5.134   2.397   2.208
 2448TIP3    H2 7309   5.002   2.459   2.251
 2449TIP3   OH2 7310   2.532   1.301   2.489
 2449TIP3    H1 7311   2.587   1.341   2.556
 2449TIP3    H2 7312   2.592   1.280   2.418
 2450TIP3   OH2 7313   6.079   1.676   2.644
 2450TIP3    H1 7314   6.173   1.671   2.626
 2450TIP3    H2 7315   6.055   1.765   2.618
 2451TIP3   OH2 7316   3.564   5.014   1.409
 2451TIP3    H1 7317   3.511   5.042   1.334
 2451TIP3    H2 7318   3.652   5.002   1.374
 2452TIP3   OH2 7319   1.798   6.124   3.280
 2452TIP3    H1 7320   1.845   6.129   3.196
 2452TIP3    H2 7321   1.742   6.047   3.272
 2453TIP3   OH2 7322   5.814   1.619   3.044
 2453TIP3    H1 7323   5.813   1.627   3.139
 2453TIP3    H2 7324   5.860   1.698   3.013
 2454TIP3   OH2 7325   5.075   2.784   2.412
 2454TIP3    H1 7326   5.152   2.838   2.429
 2454TIP3    H2 7327   5.036   2.768   2.498
 2455TIP3   OH2 7328   5.057   3.060   0.655
 2455TIP3    H1 7329   5.125   3.002   0.620
 2455TIP3    H2 7330   5.096   3.147   0.653
 2456TIP3   OH2 7331   4.121   5.561   3.832
 2456TIP3    H1 7332   4.121   5.546   3.927
 2456TIP3    H2 7333   4.030   5.546   3.806
 2457TIP3   OH2 7334   1.401   0.316   2.231
 2457TIP3    H1 7335   1.460   0.373   2.281
 2457TIP3    H2 7336   1.315   0.357   2.239
 2458TIP3   OH2 7337   0.429   4.668   5.637
 2458TIP3    H1 7338   0.439   4.688   5.544
 2458TIP3    H2 7339   0.340   4.695   5.658
 2459TIP3   OH2 7340   1.169   0.498   2.278
 2459TIP3    H1 7341   1.089   0.523   2.232
 2459TIP3    H2 7342   1.211   0.581   2.300
 2460TIP3   OH2 7343   6.028   4.517   0.403
 2460TIP3    H1 7344   5.956   4.546   0.347
 2460TIP3    H2 7345   6.072   4.598   0.428
 2461TIP3   OH2 7346   1.101   0.445   0.492
 2461TIP3    H1 7347   1.059   0.467   0.409
 2461TIP3    H2 7348   1.114   0.350   0.488
 2462TIP3   OH2 7349   6.971   1.133   2.340
 2462TIP3    H1 7350   7.009   1.209   2.385
 2462TIP3    H2 7351   7.016   1.058   2.378
 2463TIP3   OH2 7352   5.487   5.710   1.252
 2463TIP3    H1 7353   5.457   5.787   1.203
 2463TIP3    H2 7354   5.420   5.698   1.320
 2464TIP3   OH2 7355   0.166   5.437   4.172
 2464TIP3    H1 7356   0.096   5.446   4.107
 2464TIP3    H2 7357   0.128   5.468   4.254
 2465TIP3   OH2 7358   6.751   3.222   5.777
 2465TIP3    H1 7359   6.680   3.249   5.835
 2465TIP3    H2 7360   6.821   3.194   5.837
 2466TIP3   OH2 7361   2.015   5.074   5.071
 2466TIP3    H1 7362   2.045   4.992   5.033
 2466TIP3    H2 7363   2.032   5.140   5.004
 2467TIP3   OH2 7364   4.496   5.806   5.918
 2467TIP3    H1 7365   4.551   5.750   5.863
 2467TIP3    H2 7366   4.441   5.745   5.967
 2468TIP3   OH2 7367   0.589   2.327   4.319
 2468TIP3    H1 7368   0.596   2.239   4.356
 2468TIP3    H2 7369   0.512   2.365   4.363
 2469TIP3   OH2 7370   1.274   0.207   3.358
 2469TIP3    H1 7371   1.277   0.122   3.314
 2469TIP3    H2 7372   1.303   0.269   3.291
 2470TIP3   OH2 7373   1.187   2.090   0.233
 2470TIP3    H1 7374   1.213   2.178   0.206
 2470TIP3    H2 7375   1.194   2.092   0.328
 2471TIP3   OH2 7376   6.661   5.643   5.081
 2471TIP3    H1 7377   6.683   5.718   5.026
 2471TIP3    H2 7378   6.665   5.568   5.022
 2472TIP3   OH2 7379   0.848   0.156   1.689
 2472TIP3    H1 7380   0.857   0.243   1.729
 2472TIP3    H2 7381   0.782   0.112   1.744
 2473TIP3   OH2 7382   5.529   3.910   3.041
 2473TIP3    H1 7383   5.574   3.825   3.040
 2473TIP3    H2 7384   5.468   3.904   2.967
 2474TIP3   OH2 7385   5.391   5.932   0.156
 2474TIP3    H1 7386   5.305   5.898   0.179
 2474TIP3    H2 7387   5.403   5.908   0.064
 2475TIP3   OH2 7388   1.013   6.048   0.811
 2475TIP3    H1 7389   0.935   6.009   0.771
 2475TIP3    H2 7390   1.037   5.988   0.881
 2476TIP3   OH2 7391   0.791   5.232   1.991
 2476TIP3    H1 7392   0.830   5.318   2.000
 2476TIP3    H2 7393   0.792   5.215   1.896
 2477TIP3   OH2 7394   1.062   1.662   0.329
 2477TIP3    H1 7395   0.970   1.639   0.311
 2477TIP3    H2 7396   1.077   1.741   0.279
 2478TIP3   OH2 7397   6.940   5.709   4.169
 2478TIP3    H1 7398   6.941   5.614   4.158
 2478TIP3    H2 7399   6.898   5.742   4.089
 2479TIP3   OH2 7400   0.475   2.131   4.725
 2479TIP3    H1 7401   0.469   2.144   4.630
 2479TIP3    H2 7402   0.415   2.058   4.743
 2480TIP3   OH2 7403   6.776   3.446   1.143
 2480TIP3    H1 7404   6.739   3.485   1.064
 2480TIP3    H2 7405   6.706   3.454   1.209
 2481TIP3   OH2 7406   5.758   6.485   4.058
 2481TIP3    H1 7407   5.766   6.452   4.148
 2481TIP3    H2 7408   5.816   6.561   4.055
 2482TIP3   OH2 7409   1.181   6.439   5.567
 2482TIP3    H1 7410   1.230   6.509   5.526
 2482TIP3    H2 7411   1.129   6.401   5.496
 2483TIP3   OH2 7412   1.218   2.223   4.700
 2483TIP3    H1 7413   1.218   2.287   4.771
 2483TIP3    H2 7414   1.169   2.148   4.735
 2484TIP3   OH2 7415   1.625   0.978   4.705
 2484TIP3    H1 7416   1.637   0.963   4.611
 2484TIP3    H2 7417   1.640   0.892   4.745
 2485TIP3   OH2 7418   5.848   4.737   1.330
 2485TIP3    H1 7419   5.785   4.791   1.282
 2485TIP3    H2 7420   5.848   4.653   1.284
 2486TIP3   OH2 7421   2.900   0.809   1.408
 2486TIP3    H1 7422   2.910   0.744   1.478
 2486TIP3    H2 7423   2.810   0.841   1.418
 2487TIP3   OH2 7424   6.427   3.014   2.750
 2487TIP3    H1 7425   6.458   2.924   2.754
 2487TIP3    H2 7426   6.463   3.048   2.668
 2488TIP3   OH2 7427   5.567   6.557   4.433
 2488TIP3    H1 7428   5.591   6.608   4.356
 2488TIP3    H2 7429   5.541   6.623   4.498
 2489TIP3   OH2 7430   5.626   4.975   2.162
 2489TIP3    H1 7431   5.589   4.914   2.226
 2489TIP3    H2 7432   5.707   5.006   2.203
 2490TIP3   OH2 7433   4.633   2.573   5.789
 2490TIP3    H1 7434   4.634   2.496   5.732
 2490TIP3    H2 7435   4.721   2.577   5.825
 2491TIP3   OH2 7436   3.472   5.973   4.010
 2491TIP3    H1 7437   3.391   6.025   4.009
 2491TIP3    H2 7438   3.516   5.995   3.928
 2492TIP3   OH2 7439   1.729   2.217   0.877
 2492TIP3    H1 7440   1.750   2.229   0.970
 2492TIP3    H2 7441   1.778   2.139   0.852
 2493TIP3   OH2 7442   7.161   1.105   5.306
 2493TIP3    H1 7443   7.134   1.082   5.218
 2493TIP3    H2 7444   7.217   1.033   5.334
 2494TIP3   OH2 7445   0.201   6.197   5.655
 2494TIP3    H1 7446   0.166   6.108   5.661
 2494TIP3    H2 7447   0.145   6.241   5.592
 2495TIP3   OH2 7448  -0.057   5.138   3.994
 2495TIP3    H1 7449  -0.017   5.092   3.921
 2495TIP3    H2 7450   0.016   5.159   4.052
 2496TIP3   OH2 7451   2.960   3.614   2.076
 2496TIP3    H1 7452   2.949   3.597   2.169
 2496TIP3    H2 7453   2.955   3.528   2.035
 2497TIP3   OH2 7454   4.922   4.425   2.895
 2497TIP3    H1 7455   4.911   4.519   2.881
 2497TIP3    H2 7456   4.834   4.390   2.890
 2498TIP3   OH2 7457   3.763   3.737   3.367
 2498TIP3    H1 7458   3.684   3.717   3.417
 2498TIP3    H2 7459   3.753   3.828   3.340
 2499TIP3   OH2 7460   6.982   3.284   2.425
 2499TIP3    H1 7461   7.075   3.304   2.417
 2499TIP3    H2 7462   6.976   3.226   2.501
 2500TIP3   OH2 7463   1.414   5.767   5.688
 2500TIP3    H1 7464   1.414   5.832   5.618
 2500TIP3    H2 7465   1.453   5.811   5.763
 2501TIP3   OH2 7466   3.407   3.301   4.793
 2501TIP3    H1 7467   3.380   3.215   4.761
 2501TIP3    H2 7468   3.380   3.302   4.885
 2502TIP3   OH2 7469   3.831   6.674   2.924
 2502TIP3    H1 7470   3.817   6.769   2.933
 2502TIP3    H2 7471   3.889   6.651   2.996
 2503TIP3   OH2 7472   5.628   3.915   4.031
 2503TIP3    H1 7473   5.667   4.000   4.051
 2503TIP3    H2 7474   5.612   3.876   4.117
 2504TIP3   OH2 7475   3.756   5.853   1.703
 2504TIP3    H1 7476   3.824   5.795   1.669
 2504TIP3    H2 7477   3.696   5.865   1.630
 2505TIP3   OH2 7478   4.430   2.011   4.132
 2505TIP3    H1 7479   4.414   2.097   4.094
 2505TIP3    H2 7480   4.391   1.949   4.071
 2506TIP3   OH2 7481   5.753   3.073   0.647
 2506TIP3    H1 7482   5.761   3.160   0.608
 2506TIP3    H2 7483   5.736   3.015   0.573
 2507TIP3   OH2 7484   3.466   3.330   3.789
 2507TIP3    H1 7485   3.514   3.278   3.854
 2507TIP3    H2 7486   3.530   3.349   3.721
 2508TIP3   OH2 7487   2.532   2.798   4.105
 2508TIP3    H1 7488   2.619   2.757   4.111
 2508TIP3    H2 7489   2.543   2.882   4.150
 2509TIP3   OH2 7490   3.185   0.730   2.176
 2509TIP3    H1 7491   3.126   0.658   2.196
 2509TIP3    H2 7492   3.237   0.699   2.102
 2510TIP3   OH2 7493   0.940   4.137   0.078
 2510TIP3    H1 7494   1.031   4.165   0.092
 2510TIP3    H2 7495   0.904   4.126   0.166
 2511TIP3   OH2 7496   1.546   6.024   2.062
 2511TIP3    H1 7497   1.525   5.931   2.070
 2511TIP3    H2 7498   1.463   6.065   2.034
 2512TIP3   OH2 7499   5.010   5.386   3.997
 2512TIP3    H1 7500   5.003   5.347   4.084
 2512TIP3    H2 7501   5.091   5.349   3.961
 2513TIP3   OH2 7502   1.999   2.627   3.758
 2513TIP3    H1 7503   2.024   2.640   3.667
 2513TIP3    H2 7504   1.916   2.675   3.767
 2514TIP3   OH2 7505   0.740   1.727   3.995
 2514TIP3    H1 7506   0.781   1.795   3.942
 2514TIP3    H2 7507   0.722   1.655   3.934
 2515TIP3   OH2 7508   1.906   0.937   5.405
 2515TIP3    H1 7509   1.945   0.994   5.339
 2515TIP3    H2 7510   1.900   0.851   5.362
 2516TIP3   OH2 7511   4.794   1.887   1.677
 2516TIP3    H1 7512   4.829   1.798   1.684
 2516TIP3    H2 7513   4.736   1.884   1.601
 2517TIP3   OH2 7514   0.216   4.911   3.922
 2517TIP3    H1 7515   0.305   4.880   3.933
 2517TIP3    H2 7516   0.215   4.998   3.960
 2518TIP3   OH2 7517   5.684   6.375   2.123
 2518TIP3    H1 7518   5.751   6.442   2.112
 2518TIP3    H2 7519   5.681   6.331   2.038
 2519TIP3   OH2 7520   4.376   4.222   3.757
 2519TIP3    H1 7521   4.408   4.198   3.670
 2519TIP3    H2 7522   4.453   4.213   3.814
 2520TIP3   OH2 7523   1.732   4.074   1.777
 2520TIP3    H1 7524   1.691   4.142   1.829
 2520TIP3    H2 7525   1.820   4.108   1.758
 2521TIP3   OH2 7526   2.593   6.352   5.344
 2521TIP3    H1 7527   2.534   6.419   5.311
 2521TIP3    H2 7528   2.681   6.387   5.327
 2522TIP3   OH2 7529   4.153   2.533   5.222
 2522TIP3    H1 7530   4.149   2.514   5.128
 2522TIP3    H2 7531   4.243   2.561   5.237
 2523TIP3   OH2 7532   5.799   0.690   1.249
 2523TIP3    H1 7533   5.785   0.625   1.179
 2523TIP3    H2 7534   5.894   0.699   1.254
 2524TIP3   OH2 7535   5.293   5.109   4.741
 2524TIP3    H1 7536   5.215   5.147   4.701
 2524TIP3    H2 7537   5.356   5.102   4.669
 2525TIP3   OH2 7538   5.390   3.954   4.246
 2525TIP3    H1 7539   5.350   3.867   4.250
 2525TIP3    H2 7540   5.439   3.962   4.328
 2526TIP3   OH2 7541   2.314   6.203   0.884
 2526TIP3    H1 7542   2.375   6.222   0.813
 2526TIP3    H2 7543   2.279   6.116   0.863
 2527TIP3   OH2 7544   0.933   1.187   4.995
 2527TIP3    H1 7545   0.842   1.172   4.972
 2527TIP3    H2 7546   0.939   1.282   5.005
 2528TIP3   OH2 7547   0.458   5.947   1.435
 2528TIP3    H1 7548   0.498   5.871   1.478
 2528TIP3    H2 7549   0.523   6.016   1.443
 2529TIP3   OH2 7550   5.646   5.005   0.290
 2529TIP3    H1 7551   5.678   4.931   0.343
 2529TIP3    H2 7552   5.557   4.979   0.265
 2530TIP3   OH2 7553   6.966   3.169   3.684
 2530TIP3    H1 7554   6.911   3.127   3.618
 2530TIP3    H2 7555   6.944   3.262   3.678
 2531TIP3   OH2 7556   1.566   1.897   2.334
 2531TIP3    H1 7557   1.641   1.957   2.332
 2531TIP3    H2 7558   1.589   1.832   2.401
 2532TIP3   OH2 7559   6.529   4.207   3.600
 2532TIP3    H1 7560   6.456   4.145   3.596
 2532TIP3    H2 7561   6.491   4.290   3.569
 2533TIP3   OH2 7562   4.363   2.477   0.651
 2533TIP3    H1 7563   4.320   2.424   0.717
 2533TIP3    H2 7564   4.454   2.481   0.679
 2534TIP3   OH2 7565   0.304   2.183   1.356
 2534TIP3    H1 7566   0.345   2.118   1.413
 2534TIP3    H2 7567   0.227   2.212   1.405
 2535TIP3   OH2 7568   4.753   3.644   4.968
 2535TIP3    H1 7569   4.769   3.737   4.984
 2535TIP3    H2 7570   4.839   3.607   4.947
 2536TIP3   OH2 7571   6.587   5.895   5.760
 2536TIP3    H1 7572   6.519   5.929   5.818
 2536TIP3    H2 7573   6.581   5.800   5.768
 2537TIP3   OH2 7574   7.164   5.157   2.240
 2537TIP3    H1 7575   7.095   5.091   2.243
 2537TIP3    H2 7576   7.182   5.176   2.332
 2538TIP3   OH2 7577   4.185   3.514   1.884
 2538TIP3    H1 7578   4.108   3.465   1.854
 2538TIP3    H2 7579   4.151   3.575   1.949
 2539TIP3   OH2 7580   1.939   2.268   0.304
 2539TIP3    H1 7581   1.861   2.253   0.358
 2539TIP3    H2 7582   1.909   2.252   0.214
 2540TIP3   OH2 7583   6.410   5.800   5.273
 2540TIP3    H1 7584   6.359   5.771   5.197
 2540TIP3    H2 7585   6.453   5.721   5.306
 2541TIP3   OH2 7586   4.146   0.639   4.528
 2541TIP3    H1 7587   4.064   0.641   4.479
 2541TIP3    H2 7588   4.152   0.726   4.568
 2542TIP3   OH2 7589   2.971   1.756   3.892
 2542TIP3    H1 7590   3.027   1.697   3.841
 2542TIP3    H2 7591   3.011   1.756   3.980
 2543TIP3   OH2 7592   1.082   1.562   4.745
 2543TIP3    H1 7593   1.011   1.529   4.691
 2543TIP3    H2 7594   1.106   1.646   4.706
 2544TIP3   OH2 7595   6.087   4.518   5.524
 2544TIP3    H1 7596   6.083   4.501   5.430
 2544TIP3    H2 7597   6.038   4.446   5.564
 2545TIP3   OH2 7598   6.948   2.205   5.666
 2545TIP3    H1 7599   6.960   2.122   5.713
 2545TIP3    H2 7600   7.037   2.234   5.647
 2546TIP3   OH2 7601   1.336   1.043   4.096
 2546TIP3    H1 7602   1.365   1.000   4.015
 2546TIP3    H2 7603   1.373   1.131   4.090
 2547TIP3   OH2 7604   6.543   3.668   0.009
 2547TIP3    H1 7605   6.596   3.748   0.007
 2547TIP3    H2 7606   6.603   3.600  -0.021
 2548TIP3   OH2 7607   4.027   1.079   5.768
 2548TIP3    H1 7608   4.000   0.997   5.726
 2548TIP3    H2 7609   3.958   1.141   5.745
 2549TIP3   OH2 7610   4.327   2.065   2.481
 2549TIP3    H1 7611   4.394   2.055   2.549
 2549TIP3    H2 7612   4.271   2.135   2.512
 2550TIP3   OH2 7613   5.992   3.637   4.247
 2550TIP3    H1 7614   6.036   3.553   4.237
 2550TIP3    H2 7615   5.927   3.639   4.176
 2551TIP3   OH2 7616   7.104   2.890   0.532
 2551TIP3    H1 7617   7.174   2.827   0.519
 2551TIP3    H2 7618   7.148   2.969   0.563
 2552TIP3   OH2 7619   0.230   4.024   0.975
 2552TIP3    H1 7620   0.293   4.085   1.014
 2552TIP3    H2 7621   0.188   4.074   0.905
 2553TIP3   OH2 7622   3.246   0.584   4.981
 2553TIP3    H1 7623   3.224   0.498   5.017
 2553TIP3    H2 7624   3.272   0.635   5.057
 2554TIP3   OH2 7625   6.418   0.949   3.761
 2554TIP3    H1 7626   6.467   0.868   3.772
 2554TIP3    H2 7627   6.410   0.960   3.666
 2555TIP3   OH2 7628   0.555   0.762   2.245
 2555TIP3    H1 7629   0.522   0.682   2.205
 2555TIP3    H2 7630   0.649   0.749   2.250
 2556TIP3   OH2 7631   1.894   3.663   1.235
 2556TIP3    H1 7632   1.950   3.735   1.206
 2556TIP3    H2 7633   1.845   3.700   1.308
 2557TIP3   OH2 7634   1.247   3.676   0.180
 2557TIP3    H1 7635   1.228   3.629   0.261
 2557TIP3    H2 7636   1.225   3.767   0.200
 2558TIP3   OH2 7637   1.305   2.406   4.079
 2558TIP3    H1 7638   1.369   2.342   4.047
 2558TIP3    H2 7639   1.358   2.473   4.122
 2559TIP3   OH2 7640   0.853   3.968   0.545
 2559TIP3    H1 7641   0.889   3.892   0.498
 2559TIP3    H2 7642   0.920   3.989   0.611
 2560TIP3   OH2 7643   4.145   3.052   3.452
 2560TIP3    H1 7644   4.169   3.014   3.367
 2560TIP3    H2 7645   4.105   3.136   3.430
 2561TIP3   OH2 7646   0.514   4.254   5.493
 2561TIP3    H1 7647   0.493   4.177   5.440
 2561TIP3    H2 7648   0.573   4.306   5.438
 2562TIP3   OH2 7649   3.207   2.493   5.456
 2562TIP3    H1 7650   3.135   2.429   5.459
 2562TIP3    H2 7651   3.219   2.512   5.363
 2563TIP3   OH2 7652   5.419   1.949   3.147
 2563TIP3    H1 7653   5.485   1.969   3.081
 2563TIP3    H2 7654   5.401   1.856   3.136
 2564TIP3   OH2 7655   3.413   6.336   1.732
 2564TIP3    H1 7656   3.481   6.404   1.728
 2564TIP3    H2 7657   3.405   6.317   1.825
 2565TIP3   OH2 7658   5.213   4.415   1.672
 2565TIP3    H1 7659   5.163   4.452   1.745
 2565TIP3    H2 7660   5.296   4.388   1.711
 2566TIP3   OH2 7661   0.021   4.048   5.459
 2566TIP3    H1 7662   0.020   4.143   5.470
 2566TIP3    H2 7663   0.113   4.024   5.473
 2567TIP3   OH2 7664   1.616   1.277   1.709
 2567TIP3    H1 7665   1.627   1.192   1.666
 2567TIP3    H2 7666   1.691   1.329   1.681
 2568TIP3   OH2 7667   1.700   3.381   1.291
 2568TIP3    H1 7668   1.721   3.474   1.293
 2568TIP3    H2 7669   1.624   3.372   1.349
 2569TIP3   OH2 7670   5.509   6.295   0.742
 2569TIP3    H1 7671   5.526   6.229   0.809
 2569TIP3    H2 7672   5.416   6.315   0.751
 2570TIP3   OH2 7673   5.463   1.374   5.436
 2570TIP3    H1 7674   5.446   1.357   5.344
 2570TIP3    H2 7675   5.545   1.328   5.454
 2571TIP3   OH2 7676   4.757   5.474   4.058
 2571TIP3    H1 7677   4.851   5.468   4.042
 2571TIP3    H2 7678   4.749   5.494   4.151
 2572TIP3   OH2 7679   2.710   2.125   0.514
 2572TIP3    H1 7680   2.696   2.217   0.537
 2572TIP3    H2 7681   2.645   2.077   0.564
 2573TIP3   OH2 7682   6.269   6.770   1.771
 2573TIP3    H1 7683   6.302   6.821   1.846
 2573TIP3    H2 7684   6.301   6.681   1.786
 2574TIP3   OH2 7685   4.931   2.556   1.967
 2574TIP3    H1 7686   4.836   2.546   1.972
 2574TIP3    H2 7687   4.959   2.490   1.903
 2575TIP3   OH2 7688   3.385   2.796   2.807
 2575TIP3    H1 7689   3.418   2.848   2.734
 2575TIP3    H2 7690   3.293   2.781   2.785
 2576TIP3   OH2 7691   0.112   2.782   4.332
 2576TIP3    H1 7692   0.126   2.877   4.327
 2576TIP3    H2 7693   0.026   2.773   4.373
 2577TIP3   OH2 7694   0.568   4.394   3.486
 2577TIP3    H1 7695   0.612   4.310   3.472
 2577TIP3    H2 7696   0.639   4.458   3.489
 2578TIP3   OH2 7697   5.561   5.942   0.834
 2578TIP3    H1 7698   5.628   5.993   0.788
 2578TIP3    H2 7699   5.526   5.883   0.768
 2579TIP3   OH2 7700   1.053   5.789   4.311
 2579TIP3    H1 7701   0.984   5.800   4.376
 2579TIP3    H2 7702   1.116   5.730   4.353
 2580TIP3   OH2 7703   0.545   4.680   1.349
 2580TIP3    H1 7704   0.481   4.616   1.317
 2580TIP3    H2 7705   0.544   4.749   1.284
 2581TIP3   OH2 7706   3.838   5.610   3.812
 2581TIP3    H1 7707   3.794   5.586   3.893
 2581TIP3    H2 7708   3.826   5.535   3.754
 2582TIP3   OH2 7709   5.681   6.089   1.396
 2582TIP3    H1 7710   5.707   6.056   1.482
 2582TIP3    H2 7711   5.683   6.184   1.404
 2583TIP3   OH2 7712   6.582   3.567   4.101
 2583TIP3    H1 7713   6.618   3.642   4.053
 2583TIP3    H2 7714   6.573   3.598   4.191
 2584TIP3   OH2 7715   2.103   0.831   1.271
 2584TIP3    H1 7716   2.030   0.798   1.218
 2584TIP3    H2 7717   2.087   0.796   1.359
 2585TIP3   OH2 7718   6.665   1.464   4.841
 2585TIP3    H1 7719   6.668   1.425   4.754
 2585TIP3    H2 7720   6.588   1.424   4.882
 2586TIP3   OH2 7721   0.526   1.733   5.174
 2586TIP3    H1 7722   0.548   1.804   5.234
 2586TIP3    H2 7723   0.527   1.654   5.229
 2587TIP3   OH2 7724   1.602   0.511   2.047
 2587TIP3    H1 7725   1.645   0.597   2.045
 2587TIP3    H2 7726   1.610   0.483   2.138
 2588TIP3   OH2 7727   5.197   3.377   4.578
 2588TIP3    H1 7728   5.282   3.351   4.613
 2588TIP3    H2 7729   5.144   3.396   4.655
 2589TIP3   OH2 7730   1.785   5.037   4.603
 2589TIP3    H1 7731   1.744   5.103   4.659
 2589TIP3    H2 7732   1.869   5.019   4.643
 2590TIP3   OH2 7733   6.664   4.865   1.480
 2590TIP3    H1 7734   6.584   4.830   1.440
 2590TIP3    H2 7735   6.659   4.959   1.465
 2591TIP3   OH2 7736   3.057   0.048   2.626
 2591TIP3    H1 7737   3.150   0.038   2.649
 2591TIP3    H2 7738   3.023   0.106   2.694
 2592TIP3   OH2 7739   5.315   6.284   3.226
 2592TIP3    H1 7740   5.335   6.369   3.187
 2592TIP3    H2 7741   5.399   6.254   3.262
 2593TIP3   OH2 7742   2.794   4.684   3.322
 2593TIP3    H1 7743   2.821   4.709   3.233
 2593TIP3    H2 7744   2.834   4.749   3.379
 2594TIP3   OH2 7745   2.575   3.363   2.142
 2594TIP3    H1 7746   2.483   3.353   2.118
 2594TIP3    H2 7747   2.582   3.452   2.175
 2595TIP3   OH2 7748   6.162   6.760   0.539
 2595TIP3    H1 7749   6.070   6.734   0.531
 2595TIP3    H2 7750   6.161   6.832   0.602
 2596TIP3   OH2 7751   5.636   3.514   2.254
 2596TIP3    H1 7752   5.666   3.586   2.310
 2596TIP3    H2 7753   5.643   3.436   2.309
 2597TIP3   OH2 7754   4.139   6.391   3.036
 2597TIP3    H1 7755   4.120   6.397   2.942
 2597TIP3    H2 7756   4.091   6.463   3.076
 2598TIP3   OH2 7757   0.873   2.090   1.258
 2598TIP3    H1 7758   0.953   2.044   1.229
 2598TIP3    H2 7759   0.874   2.082   1.353
 2599TIP3   OH2 7760   3.521   5.152   0.053
 2599TIP3    H1 7761   3.576   5.169  -0.024
 2599TIP3    H2 7762   3.464   5.079   0.026
 2600TIP3   OH2 7763   2.301   6.337   0.612
 2600TIP3    H1 7764   2.228   6.323   0.671
 2600TIP3    H2 7765   2.270   6.307   0.527
 2601TIP3   OH2 7766   3.807   4.492   0.550
 2601TIP3    H1 7767   3.828   4.511   0.458
 2601TIP3    H2 7768   3.874   4.538   0.600
 2602TIP3   OH2 7769   5.383   3.557   3.284
 2602TIP3    H1 7770   5.371   3.650   3.265
 2602TIP3    H2 7771   5.477   3.543   3.273
 2603TIP3   OH2 7772   7.006   6.748   5.552
 2603TIP3    H1 7773   7.011   6.709   5.639
 2603TIP3    H2 7774   6.955   6.828   5.564
 2604TIP3   OH2 7775   0.112   0.961   0.409
 2604TIP3    H1 7776   0.125   0.877   0.452
 2604TIP3    H2 7777   0.019   0.981   0.425
 2605TIP3   OH2 7778   6.440   1.993   3.352
 2605TIP3    H1 7779   6.536   1.989   3.352
 2605TIP3    H2 7780   6.416   1.976   3.443
 2606TIP3   OH2 7781   4.190   5.891   2.630
 2606TIP3    H1 7782   4.147   5.926   2.552
 2606TIP3    H2 7783   4.266   5.844   2.596
 2607TIP3   OH2 7784   2.147   3.444   2.038
 2607TIP3    H1 7785   2.209   3.456   2.110
 2607TIP3    H2 7786   2.107   3.359   2.055
 2608TIP3   OH2 7787   3.607   1.821   0.728
 2608TIP3    H1 7788   3.599   1.819   0.823
 2608TIP3    H2 7789   3.699   1.799   0.711
 2609TIP3   OH2 7790   7.059   4.130   1.071
 2609TIP3    H1 7791   7.010   4.136   0.990
 2609TIP3    H2 7792   7.122   4.202   1.066
 2610TIP3   OH2 7793   3.582   0.921   3.265
 2610TIP3    H1 7794   3.607   0.970   3.344
 2610TIP3    H2 7795   3.576   0.988   3.197
 2611TIP3   OH2 7796   2.461   4.078   2.301
 2611TIP3    H1 7797   2.495   4.093   2.389
 2611TIP3    H2 7798   2.380   4.129   2.296
 2612TIP3   OH2 7799   1.458   5.998   3.246
 2612TIP3    H1 7800   1.491   6.087   3.233
 2612TIP3    H2 7801   1.433   5.968   3.158
 2613TIP3   OH2 7802   4.254   3.059   4.429
 2613TIP3    H1 7803   4.335   3.103   4.403
 2613TIP3    H2 7804   4.239   2.993   4.362
 2614TIP3   OH2 7805   1.927   4.982   1.942
 2614TIP3    H1 7806   1.961   5.050   2.000
 2614TIP3    H2 7807   1.978   4.904   1.966
 2615TIP3   OH2 7808   4.553   1.315   0.354
 2615TIP3    H1 7809   4.525   1.224   0.342
 2615TIP3    H2 7810   4.648   1.311   0.358
 2616TIP3   OH2 7811   3.182   4.461   2.703
 2616TIP3    H1 7812   3.103   4.427   2.661
 2616TIP3    H2 7813   3.210   4.391   2.762
 2617TIP3   OH2 7814   0.869   6.037   3.270
 2617TIP3    H1 7815   0.953   5.996   3.288
 2617TIP3    H2 7816   0.875   6.066   3.179
 2618TIP3   OH2 7817   3.126   2.198   5.133
 2618TIP3    H1 7818   3.216   2.168   5.131
 2618TIP3    H2 7819   3.086   2.150   5.206
 2619TIP3   OH2 7820   2.686   2.622   1.572
 2619TIP3    H1 7821   2.674   2.717   1.577
 2619TIP3    H2 7822   2.658   2.590   1.658
 2620TIP3   OH2 7823   2.729   4.067   1.051
 2620TIP3    H1 7824   2.634   4.056   1.046
 2620TIP3    H2 7825   2.744   4.108   1.136
 2621TIP3   OH2 7826   5.577   2.099   0.585
 2621TIP3    H1 7827   5.549   2.173   0.530
 2621TIP3    H2 7828   5.634   2.047   0.528
 2622TIP3   OH2 7829   6.526   2.229   2.020
 2622TIP3    H1 7830   6.594   2.187   2.072
 2622TIP3    H2 7831   6.463   2.261   2.085
 2623TIP3   OH2 7832   6.263   4.414   0.867
 2623TIP3    H1 7833   6.267   4.509   0.854
 2623TIP3    H2 7834   6.354   4.385   0.859
 2624TIP3   OH2 7835   2.843   2.646   5.783
 2624TIP3    H1 7836   2.876   2.714   5.842
 2624TIP3    H2 7837   2.808   2.695   5.708
 2625TIP3   OH2 7838   6.657   3.030   4.207
 2625TIP3    H1 7839   6.750   3.045   4.221
 2625TIP3    H2 7840   6.624   2.999   4.291
 2626TIP3   OH2 7841   0.293   2.798   3.080
 2626TIP3    H1 7842   0.326   2.860   3.146
 2626TIP3    H2 7843   0.268   2.853   3.006
 2627TIP3   OH2 7844   3.928   0.705   2.078
 2627TIP3    H1 7845   3.850   0.650   2.075
 2627TIP3    H2 7846   3.969   0.685   2.162
 2628TIP3   OH2 7847   1.777   4.387   1.619
 2628TIP3    H1 7848   1.700   4.331   1.625
 2628TIP3    H2 7849   1.754   4.452   1.552
 2629TIP3   OH2 7850   2.202   1.902   5.054
 2629TIP3    H1 7851   2.202   1.821   5.003
 2629TIP3    H2 7852   2.113   1.936   5.043
 2630TIP3   OH2 7853   5.217   2.010   2.399
 2630TIP3    H1 7854   5.212   1.944   2.330
 2630TIP3    H2 7855   5.139   1.995   2.453
 2631TIP3   OH2 7856   6.736   4.807   1.087
 2631TIP3    H1 7857   6.692   4.892   1.084
 2631TIP3    H2 7858   6.823   4.827   1.122
 2632TIP3   OH2 7859   7.121   6.259   5.240
 2632TIP3    H1 7860   7.158   6.296   5.320
 2632TIP3    H2 7861   7.062   6.190   5.271
 2633TIP3   OH2 7862   1.724   5.565   5.615
 2633TIP3    H1 7863   1.691   5.485   5.657
 2633TIP3    H2 7864   1.701   5.555   5.523
 2634TIP3   OH2 7865   4.799   0.597   2.158
 2634TIP3    H1 7866   4.870   0.546   2.120
 2634TIP3    H2 7867   4.835   0.685   2.168
 2635TIP3   OH2 7868   2.207   1.240   4.959
 2635TIP3    H1 7869   2.289   1.265   4.916
 2635TIP3    H2 7870   2.208   1.145   4.961
 2636TIP3   OH2 7871   7.029   1.011   1.441
 2636TIP3    H1 7872   7.096   1.032   1.376
 2636TIP3    H2 7873   7.055   0.927   1.477
 2637TIP3   OH2 7874   4.708   2.709   4.271
 2637TIP3    H1 7875   4.789   2.740   4.312
 2637TIP3    H2 7876   4.719   2.731   4.179
 2638TIP3   OH2 7877   5.714   2.220   0.307
 2638TIP3    H1 7878   5.805   2.225   0.337
 2638TIP3    H2 7879   5.708   2.135   0.263
 2639TIP3   OH2 7880   5.492   2.344   3.990
 2639TIP3    H1 7881   5.459   2.406   3.926
 2639TIP3    H2 7882   5.490   2.259   3.945
 2640TIP3   OH2 7883   2.234   5.952   1.005
 2640TIP3    H1 7884   2.162   5.894   1.031
 2640TIP3    H2 7885   2.194   6.039   1.002
 2641TIP3   OH2 7886   6.597   0.269   3.400
 2641TIP3    H1 7887   6.519   0.249   3.452
 2641TIP3    H2 7888   6.666   0.213   3.437
 2642TIP3   OH2 7889   6.764   0.488   5.443
 2642TIP3    H1 7890   6.677   0.512   5.475
 2642TIP3    H2 7891   6.794   0.421   5.504
 2643TIP3   OH2 7892   1.952   4.085   5.470
 2643TIP3    H1 7893   1.892   4.073   5.544
 2643TIP3    H2 7894   1.952   4.001   5.425
 2644TIP3   OH2 7895   6.189   3.322   3.439
 2644TIP3    H1 7896   6.218   3.405   3.477
 2644TIP3    H2 7897   6.098   3.314   3.470
 2645TIP3   OH2 7898   4.527   0.752   5.052
 2645TIP3    H1 7899   4.520   0.667   5.096
 2645TIP3    H2 7900   4.556   0.731   4.964
 2646TIP3   OH2 7901   3.734   2.420   0.356
 2646TIP3    H1 7902   3.772   2.332   0.360
 2646TIP3    H2 7903   3.732   2.442   0.263
 2647TIP3   OH2 7904   0.693   3.047   1.391
 2647TIP3    H1 7905   0.697   3.138   1.363
 2647TIP3    H2 7906   0.765   3.037   1.452
 2648TIP3   OH2 7907   3.477   0.592   4.310
 2648TIP3    H1 7908   3.560   0.577   4.355
 2648TIP3    H2 7909   3.420   0.632   4.377
 2649TIP3   OH2 7910   4.199   3.713   2.907
 2649TIP3    H1 7911   4.283   3.735   2.866
 2649TIP3    H2 7912   4.222   3.666   2.986
 2650TIP3   OH2 7913   2.573   0.612   0.133
 2650TIP3    H1 7914   2.581   0.584   0.225
 2650TIP3    H2 7915   2.526   0.696   0.138
 2651TIP3   OH2 7916   5.414   0.318   0.503
 2651TIP3    H1 7917   5.378   0.242   0.549
 2651TIP3    H2 7918   5.509   0.310   0.515
 2652TIP3   OH2 7919   3.351   2.840   2.336
 2652TIP3    H1 7920   3.331   2.779   2.265
 2652TIP3    H2 7921   3.316   2.924   2.306
 2653TIP3   OH2 7922   1.647   1.101   3.315
 2653TIP3    H1 7923   1.722   1.057   3.276
 2653TIP3    H2 7924   1.683   1.148   3.391
 2654TIP3   OH2 7925   2.941   1.400   1.867
 2654TIP3    H1 7926   2.998   1.386   1.792
 2654TIP3    H2 7927   2.984   1.469   1.917
 2655TIP3   OH2 7928   6.454   4.287   0.528
 2655TIP3    H1 7929   6.452   4.359   0.465
 2655TIP3    H2 7930   6.373   4.296   0.578
 2656TIP3   OH2 7931   5.951   3.269   4.347
 2656TIP3    H1 7932   5.941   3.266   4.442
 2656TIP3    H2 7933   6.040   3.303   4.334
 2657TIP3   OH2 7934   4.477   0.531   2.088
 2657TIP3    H1 7935   4.446   0.514   2.177
 2657TIP3    H2 7936   4.566   0.564   2.099
 2658TIP3   OH2 7937   3.569   6.031   0.481
 2658TIP3    H1 7938   3.534   5.965   0.540
 2658TIP3    H2 7939   3.664   6.026   0.493
 2659TIP3   OH2 7940   6.816   2.349   3.309
 2659TIP3    H1 7941   6.730   2.335   3.347
 2659TIP3    H2 7942   6.799   2.378   3.220
 2660TIP3   OH2 7943   3.499   3.886   0.746
 2660TIP3    H1 7944   3.471   3.945   0.676
 2660TIP3    H2 7945   3.421   3.876   0.801
 2661TIP3   OH2 7946   7.170   3.416   5.532
 2661TIP3    H1 7947   7.119   3.344   5.494
 2661TIP3    H2 7948   7.245   3.373   5.573
 2662TIP3   OH2 7949   2.698   2.898   1.559
 2662TIP3    H1 7950   2.638   2.962   1.598
 2662TIP3    H2 7951   2.709   2.926   1.468
 2663TIP3   OH2 7952   5.446   3.540   5.178
 2663TIP3    H1 7953   5.381   3.493   5.126
 2663TIP3    H2 7954   5.468   3.480   5.250
 2664TIP3   OH2 7955   0.491   3.857   1.872
 2664TIP3    H1 7956   0.463   3.798   1.941
 2664TIP3    H2 7957   0.431   3.841   1.799
 2665TIP3   OH2 7958   2.678   0.180   5.084
 2665TIP3    H1 7959   2.692   0.256   5.141
 2665TIP3    H2 7960   2.750   0.183   5.022
 2666TIP3   OH2 7961   0.806   5.402   0.564
 2666TIP3    H1 7962   0.827   5.310   0.575
 2666TIP3    H2 7963   0.711   5.405   0.558
 2667TIP3   OH2 7964   4.075   0.543   0.894
 2667TIP3    H1 7965   4.084   0.465   0.840
 2667TIP3    H2 7966   4.151   0.597   0.871
 2668TIP3   OH2 7967   0.258   1.565   2.769
 2668TIP3    H1 7968   0.238   1.562   2.676
 2668TIP3    H2 7969   0.210   1.491   2.806
 2669TIP3   OH2 7970   0.403   5.116   1.591
 2669TIP3    H1 7971   0.403   5.021   1.581
 2669TIP3    H2 7972   0.321   5.145   1.550
 2670TIP3   OH2 7973   4.086   0.955   1.897
 2670TIP3    H1 7974   4.022   0.950   1.968
 2670TIP3    H2 7975   4.083   1.046   1.867
 2671TIP3   OH2 7976   0.203   2.761   3.472
 2671TIP3    H1 7977   0.196   2.771   3.567
 2671TIP3    H2 7978   0.169   2.843   3.436
 2672TIP3   OH2 7979   0.341   1.274   4.196
 2672TIP3    H1 7980   0.402   1.230   4.136
 2672TIP3    H2 7981   0.254   1.255   4.159
 2673TIP3   OH2 7982   2.001   6.140   5.241
 2673TIP3    H1 7983   1.998   6.075   5.171
 2673TIP3    H2 7984   2.093   6.145   5.265
 2674TIP3   OH2 7985   5.422   3.207   0.217
 2674TIP3    H1 7986   5.410   3.273   0.149
 2674TIP3    H2 7987   5.339   3.208   0.266
 2675TIP3   OH2 7988   6.636   2.477   4.007
 2675TIP3    H1 7989   6.597   2.471   3.920
 2675TIP3    H2 7990   6.572   2.527   4.058
 2676TIP3   OH2 7991   5.212   2.896   5.468
 2676TIP3    H1 7992   5.276   2.854   5.410
 2676TIP3    H2 7993   5.266   2.943   5.532
 2677TIP3   OH2 7994   3.856   1.916   4.915
 2677TIP3    H1 7995   3.874   1.904   4.822
 2677TIP3    H2 7996   3.943   1.928   4.955
 2678TIP3   OH2 7997   1.617   6.562   0.700
 2678TIP3    H1 7998   1.704   6.545   0.665
 2678TIP3    H2 7999   1.610   6.503   0.776
 2679TIP3   OH2 8000   5.138   0.994   0.911
 2679TIP3    H1 8001   5.106   0.933   0.845
 2679TIP3    H2 8002   5.106   0.959   0.994
 2680TIP3   OH2 8003   0.018   6.076   1.022
 2680TIP3    H1 8004   0.082   6.102   0.957
 2680TIP3    H2 8005   0.044   5.987   1.048
 2681TIP3   OH2 8006   3.376   2.955   1.307
 2681TIP3    H1 8007   3.372   2.992   1.396
 2681TIP3    H2 8008   3.354   3.028   1.250
 2682TIP3   OH2 8009   6.262   1.348   0.167
 2682TIP3    H1 8010   6.224   1.436   0.170
 2682TIP3    H2 8011   6.345   1.356   0.215
 2683TIP3   OH2 8012   3.657   3.890   0.019
 2683TIP3    H1 8013   3.742   3.853   0.039
 2683TIP3    H2 8014   3.618   3.830  -0.045
 2684TIP3   OH2 8015   5.115   4.579   2.633
 2684TIP3    H1 8016   5.137   4.512   2.698
 2684TIP3    H2 8017   5.046   4.630   2.675
 2685TIP3   OH2 8018   1.891   3.450   5.800
 2685TIP3    H1 8019   1.890   3.378   5.737
 2685TIP3    H2 8020   1.917   3.527   5.749
 2686TIP3   OH2 8021   1.698   1.771   5.214
 2686TIP3    H1 8022   1.791   1.756   5.231
 2686TIP3    H2 8023   1.666   1.686   5.181
 2687TIP3   OH2 8024   4.456   4.183   3.161
 2687TIP3    H1 8025   4.434   4.093   3.139
 2687TIP3    H2 8026   4.505   4.176   3.243
 2688TIP3   OH2 8027   6.890   6.386   0.895
 2688TIP3    H1 8028   6.816   6.342   0.852
 2688TIP3    H2 8029   6.940   6.316   0.935
 2689TIP3   OH2 8030   2.993   2.047   0.560
 2689TIP3    H1 8031   2.921   2.109   0.552
 2689TIP3    H2 8032   3.056   2.075   0.494
 2690TIP3   OH2 8033   3.670   5.897   3.356
 2690TIP3    H1 8034   3.692   5.984   3.324
 2690TIP3    H2 8035   3.697   5.898   3.448
 2691TIP3   OH2 8036   3.903   0.641   1.085
 2691TIP3    H1 8037   3.966   0.592   1.032
 2691TIP3    H2 8038   3.847   0.685   1.021
 2692TIP3   OH2 8039   1.794   2.056   1.365
 2692TIP3    H1 8040   1.821   1.987   1.426
 2692TIP3    H2 8041   1.708   2.084   1.398
 2693TIP3   OH2 8042   5.985   2.949   1.258
 2693TIP3    H1 8043   5.941   3.014   1.313
 2693TIP3    H2 8044   6.051   2.999   1.210
 2694TIP3   OH2 8045   3.258   4.245   2.882
 2694TIP3    H1 8046   3.266   4.201   2.967
 2694TIP3    H2 8047   3.182   4.204   2.841
 2695TIP3   OH2 8048   6.982   1.041   1.045
 2695TIP3    H1 8049   7.053   1.012   0.987
 2695TIP3    H2 8050   7.025   1.055   1.130
 2696TIP3   OH2 8051   6.623   6.660   4.413
 2696TIP3    H1 8052   6.663   6.574   4.399
 2696TIP3    H2 8053   6.697   6.717   4.433
 2697TIP3   OH2 8054   4.526   0.920   4.017
 2697TIP3    H1 8055   4.621   0.920   4.011
 2697TIP3    H2 8056   4.497   0.968   3.939
 2698TIP3   OH2 8057   4.289   5.299   2.008
 2698TIP3    H1 8058   4.358   5.234   2.019
 2698TIP3    H2 8059   4.306   5.364   2.076
 2699TIP3   OH2 8060   3.901   3.794   1.864
 2699TIP3    H1 8061   3.971   3.859   1.864
 2699TIP3    H2 8062   3.933   3.723   1.919
 2700TIP3   OH2 8063   3.499   6.590   0.898
 2700TIP3    H1 8064   3.580   6.563   0.855
 2700TIP3    H2 8065   3.481   6.677   0.863
 2701TIP3   OH2 8066   1.761   2.567   5.804
 2701TIP3    H1 8067   1.694   2.525   5.858
 2701TIP3    H2 8068   1.776   2.505   5.732
 2702TIP3   OH2 8069   7.189   3.528   4.493
 2702TIP3    H1 8070   7.209   3.564   4.406
 2702TIP3    H2 8071   7.237   3.585   4.554
 2703TIP3   OH2 8072   1.528   5.806   5.171
 2703TIP3    H1 8073   1.496   5.769   5.254
 2703TIP3    H2 8074   1.623   5.810   5.182
 2704TIP3   OH2 8075   2.793   4.524  -0.030
 2704TIP3    H1 8076   2.769   4.544   0.061
 2704TIP3    H2 8077   2.710   4.499  -0.072
 2705TIP3   OH2 8078   0.852   6.449   4.067
 2705TIP3    H1 8079   0.818   6.453   3.978
 2705TIP3    H2 8080   0.780   6.410   4.118
 2706TIP3   OH2 8081   3.187   4.933   1.103
 2706TIP3    H1 8082   3.222   4.969   1.021
 2706TIP3    H2 8083   3.185   4.838   1.088
 2707TIP3   OH2 8084   6.071   1.562   1.476
 2707TIP3    H1 8085   6.153   1.522   1.448
 2707TIP3    H2 8086   6.014   1.555   1.400
 2708TIP3   OH2 8087   1.401   3.165   2.687
 2708TIP3    H1 8088   1.386   3.255   2.657
 2708TIP3    H2 8089   1.327   3.116   2.651
 2709TIP3   OH2 8090   4.278   4.192   2.674
 2709TIP3    H1 8091   4.293   4.097   2.664
 2709TIP3    H2 8092   4.217   4.199   2.748
 2710TIP3   OH2 8093   0.143   2.478   5.313
 2710TIP3    H1 8094   0.127   2.487   5.407
 2710TIP3    H2 8095   0.105   2.558   5.274
 2711TIP3   OH2 8096   1.980   6.616   4.571
 2711TIP3    H1 8097   1.984   6.662   4.655
 2711TIP3    H2 8098   2.004   6.526   4.592
 2712TIP3   OH2 8099   4.078   0.087   3.688
 2712TIP3    H1 8100   4.104   0.166   3.735
 2712TIP3    H2 8101   4.034   0.033   3.753
 2713TIP3   OH2 8102   6.015   0.113   0.917
 2713TIP3    H1 8103   6.104   0.077   0.917
 2713TIP3    H2 8104   5.979   0.086   0.832
 2714TIP3   OH2 8105   3.302   2.894   3.593
 2714TIP3    H1 8106   3.365   2.832   3.557
 2714TIP3    H2 8107   3.219   2.871   3.551
 2715TIP3   OH2 8108   4.885   1.564   1.018
 2715TIP3    H1 8109   4.807   1.597   0.973
 2715TIP3    H2 8110   4.957   1.579   0.956
 2716TIP3   OH2 8111   0.719   4.593   4.666
 2716TIP3    H1 8112   0.674   4.666   4.708
 2716TIP3    H2 8113   0.725   4.526   4.734
 2717TIP3   OH2 8114   1.877   3.997   2.368
 2717TIP3    H1 8115   1.908   3.907   2.380
 2717TIP3    H2 8116   1.840   3.997   2.279
 2718TIP3   OH2 8117   3.782   4.337   4.891
 2718TIP3    H1 8118   3.766   4.382   4.974
 2718TIP3    H2 8119   3.789   4.407   4.826
 2719TIP3   OH2 8120   4.403   5.596   1.077
 2719TIP3    H1 8121   4.357   5.680   1.085
 2719TIP3    H2 8122   4.334   5.534   1.052
 2720TIP3   OH2 8123   6.228   6.355   0.422
 2720TIP3    H1 8124   6.307   6.381   0.373
 2720TIP3    H2 8125   6.156   6.392   0.371
 2721TIP3   OH2 8126   6.279   1.676   3.626
 2721TIP3    H1 8127   6.209   1.721   3.579
 2721TIP3    H2 8128   6.340   1.649   3.557
 2722TIP3   OH2 8129   3.729   3.504   4.122
 2722TIP3    H1 8130   3.799   3.439   4.125
 2722TIP3    H2 8131   3.654   3.458   4.084
 2723TIP3   OH2 8132   4.380   0.264   0.735
 2723TIP3    H1 8133   4.348   0.304   0.655
 2723TIP3    H2 8134   4.455   0.212   0.708
 2724TIP3   OH2 8135   0.020   3.236   0.036
 2724TIP3    H1 8136   0.047   3.235   0.128
 2724TIP3    H2 8137   0.014   3.144   0.011
 2725TIP3   OH2 8138   1.039   6.428   4.259
 2725TIP3    H1 8139   1.002   6.422   4.171
 2725TIP3    H2 8140   0.965   6.458   4.313
 2726TIP3   OH2 8141   3.565   3.000   5.204
 2726TIP3    H1 8142   3.562   3.028   5.296
 2726TIP3    H2 8143   3.614   3.069   5.159
 2727TIP3   OH2 8144   2.190   4.893   0.861
 2727TIP3    H1 8145   2.266   4.916   0.806
 2727TIP3    H2 8146   2.115   4.902   0.803
 2728TIP3   OH2 8147   6.529   5.384   0.373
 2728TIP3    H1 8148   6.555   5.372   0.282
 2728TIP3    H2 8149   6.600   5.436   0.411
 2729TIP3   OH2 8150   3.368   3.112   1.911
 2729TIP3    H1 8151   3.347   3.025   1.877
 2729TIP3    H2 8152   3.392   3.097   2.002
 2730TIP3   OH2 8153   3.861   5.677   3.443
 2730TIP3    H1 8154   3.864   5.747   3.377
 2730TIP3    H2 8155   3.865   5.722   3.527
 2731TIP3   OH2 8156   5.148   5.449   2.030
 2731TIP3    H1 8157   5.191   5.496   1.959
 2731TIP3    H2 8158   5.084   5.511   2.065
 2732TIP3   OH2 8159   5.657   1.631   3.609
 2732TIP3    H1 8160   5.666   1.536   3.612
 2732TIP3    H2 8161   5.746   1.664   3.602
 2733TIP3   OH2 8162   4.932   1.363   1.222
 2733TIP3    H1 8163   4.999   1.319   1.171
 2733TIP3    H2 8164   4.905   1.438   1.168
 2734TIP3   OH2 8165   5.980   2.378   1.621
 2734TIP3    H1 8166   6.010   2.458   1.665
 2734TIP3    H2 8167   6.025   2.378   1.537
 2735TIP3   OH2 8168   0.704   6.361   2.541
 2735TIP3    H1 8169   0.685   6.359   2.635
 2735TIP3    H2 8170   0.682   6.450   2.513
 2736TIP3   OH2 8171   3.816   4.971   1.284
 2736TIP3    H1 8172   3.816   4.916   1.363
 2736TIP3    H2 8173   3.794   4.911   1.213
 2737TIP3   OH2 8174   3.089   0.145   3.401
 2737TIP3    H1 8175   3.053   0.070   3.448
 2737TIP3    H2 8176   3.012   0.190   3.367
 2738TIP3   OH2 8177   4.329   2.549   5.753
 2738TIP3    H1 8178   4.245   2.549   5.707
 2738TIP3    H2 8179   4.393   2.523   5.686
 2739TIP3   OH2 8180   1.528   1.531   2.340
 2739TIP3    H1 8181   1.534   1.578   2.257
 2739TIP3    H2 8182   1.438   1.546   2.370
 2740TIP3   OH2 8183   0.900   6.794   3.055
 2740TIP3    H1 8184   0.885   6.856   3.126
 2740TIP3    H2 8185   0.922   6.712   3.099
 2741TIP3   OH2 8186   2.777   4.060   3.357
 2741TIP3    H1 8187   2.720   3.994   3.397
 2741TIP3    H2 8188   2.827   4.011   3.291
 2742TIP3   OH2 8189   2.030   0.759   0.512
 2742TIP3    H1 8190   1.949   0.721   0.547
 2742TIP3    H2 8191   2.004   0.844   0.479
 2743TIP3   OH2 8192   0.603   1.805   2.899
 2743TIP3    H1 8193   0.588   1.731   2.840
 2743TIP3    H2 8194   0.623   1.765   2.984
 2744TIP3   OH2 8195   5.865   5.772   1.232
 2744TIP3    H1 8196   5.893   5.814   1.313
 2744TIP3    H2 8197   5.832   5.843   1.178
 2745TIP3   OH2 8198   5.516   2.779   3.581
 2745TIP3    H1 8199   5.488   2.782   3.490
 2745TIP3    H2 8200   5.598   2.729   3.580
 2746TIP3   OH2 8201   0.771   4.895   3.979
 2746TIP3    H1 8202   0.830   4.855   3.914
 2746TIP3    H2 8203   0.783   4.989   3.967
 2747TIP3   OH2 8204   3.913   3.992   5.981
 2747TIP3    H1 8205   3.967   3.986   5.902
 2747TIP3    H2 8206   3.829   3.955   5.955
 2748TIP3   OH2 8207   1.809   1.188   2.028
 2748TIP3    H1 8208   1.747   1.124   1.991
 2748TIP3    H2 8209   1.880   1.190   1.964
 2749TIP3   OH2 8210   0.201   0.503   3.880
 2749TIP3    H1 8211   0.157   0.424   3.847
 2749TIP3    H2 8212   0.293   0.477   3.890
 2750TIP3   OH2 8213   1.053   4.467   2.802
 2750TIP3    H1 8214   1.062   4.466   2.897
 2750TIP3    H2 8215   1.130   4.420   2.770
 2751TIP3   OH2 8216   5.463   1.011   2.177
 2751TIP3    H1 8217   5.426   0.933   2.137
 2751TIP3    H2 8218   5.388   1.052   2.222
 2752TIP3   OH2 8219   6.129   6.669   1.513
 2752TIP3    H1 8220   6.204   6.627   1.470
 2752TIP3    H2 8221   6.151   6.666   1.606
 2753TIP3   OH2 8222   6.298   5.832   4.468
 2753TIP3    H1 8223   6.330   5.748   4.435
 2753TIP3    H2 8224   6.242   5.865   4.397
 2754TIP3   OH2 8225   1.321   4.126   0.638
 2754TIP3    H1 8226   1.377   4.065   0.686
 2754TIP3    H2 8227   1.238   4.080   0.628
 2755TIP3   OH2 8228   2.569   0.565   0.628
 2755TIP3    H1 8229   2.610   0.518   0.701
 2755TIP3    H2 8230   2.477   0.575   0.654
 2756TIP3   OH2 8231   6.219   4.159   3.852
 2756TIP3    H1 8232   6.210   4.079   3.904
 2756TIP3    H2 8233   6.272   4.133   3.777
 2757TIP3   OH2 8234   2.185   0.276   3.204
 2757TIP3    H1 8235   2.207   0.352   3.150
 2757TIP3    H2 8236   2.090   0.271   3.202
 2758TIP3   OH2 8237   1.632   0.455   3.451
 2758TIP3    H1 8238   1.717   0.457   3.494
 2758TIP3    H2 8239   1.633   0.373   3.400
 2759TIP3   OH2 8240   2.066   3.143   3.329
 2759TIP3    H1 8241   2.059   3.228   3.287
 2759TIP3    H2 8242   2.049   3.161   3.422
 2760TIP3   OH2 8243   3.087   4.290   2.275
 2760TIP3    H1 8244   3.047   4.224   2.219
 2760TIP3    H2 8245   3.013   4.339   2.312
 2761TIP3   OH2 8246   4.203   3.244   2.801
 2761TIP3    H1 8247   4.292   3.260   2.770
 2761TIP3    H2 8248   4.186   3.314   2.863
 2762TIP3   OH2 8249   5.024   2.460   4.187
 2762TIP3    H1 8250   5.099   2.400   4.192
 2762TIP3    H2 8251   4.963   2.427   4.253
 2763TIP3   OH2 8252   5.027   5.326   2.340
 2763TIP3    H1 8253   5.063   5.271   2.271
 2763TIP3    H2 8254   5.062   5.289   2.421
 2764TIP3   OH2 8255   2.743   3.238   0.047
 2764TIP3    H1 8256   2.753   3.254   0.141
 2764TIP3    H2 8257   2.667   3.291   0.022
 2765TIP3   OH2 8258   2.611   4.370   0.817
 2765TIP3    H1 8259   2.611   4.399   0.726
 2765TIP3    H2 8260   2.529   4.322   0.827
 2766TIP3   OH2 8261   0.372   2.052   0.132
 2766TIP3    H1 8262   0.281   2.045   0.162
 2766TIP3    H2 8263   0.376   1.993   0.057
 2767TIP3   OH2 8264   3.322   4.696   2.002
 2767TIP3    H1 8265   3.349   4.774   2.051
 2767TIP3    H2 8266   3.367   4.624   2.045
 2768TIP3   OH2 8267   1.102   4.596   1.852
 2768TIP3    H1 8268   1.032   4.637   1.801
 2768TIP3    H2 8269   1.125   4.517   1.803
 2769TIP3   OH2 8270   6.070   5.423   5.697
 2769TIP3    H1 8271   6.102   5.332   5.691
 2769TIP3    H2 8272   6.128   5.472   5.638
 2770TIP3   OH2 8273   0.825   0.262   5.566
 2770TIP3    H1 8274   0.887   0.228   5.631
 2770TIP3    H2 8275   0.881   0.306   5.501
 2771TIP3   OH2 8276   4.240   2.350   5.494
 2771TIP3    H1 8277   4.150   2.383   5.502
 2771TIP3    H2 8278   4.230   2.264   5.455
 2772TIP3   OH2 8279   1.572   5.300   4.544
 2772TIP3    H1 8280   1.503   5.321   4.607
 2772TIP3    H2 8281   1.525   5.277   4.464
 2773TIP3   OH2 8282   0.961   3.326   2.900
 2773TIP3    H1 8283   0.984   3.257   2.839
 2773TIP3    H2 8284   0.908   3.282   2.967
 2774TIP3   OH2 8285   5.048   2.353   1.795
 2774TIP3    H1 8286   5.027   2.281   1.735
 2774TIP3    H2 8287   5.142   2.343   1.812
 2775TIP3   OH2 8288   2.784   3.182   3.007
 2775TIP3    H1 8289   2.806   3.145   2.921
 2775TIP3    H2 8290   2.867   3.190   3.052
 2776TIP3   OH2 8291   4.945   0.355   3.266
 2776TIP3    H1 8292   4.943   0.380   3.358
 2776TIP3    H2 8293   5.030   0.313   3.254
 2777TIP3   OH2 8294   5.962   1.962   0.286
 2777TIP3    H1 8295   5.950   1.987   0.377
 2777TIP3    H2 8296   5.875   1.936   0.257
 2778TIP3   OH2 8297   5.613   1.392   2.360
 2778TIP3    H1 8298   5.582   1.332   2.427
 2778TIP3    H2 8299   5.695   1.353   2.328
 2779TIP3   OH2 8300   3.019   6.315   3.188
 2779TIP3    H1 8301   3.064   6.386   3.142
 2779TIP3    H2 8302   2.943   6.356   3.229
 2780TIP3   OH2 8303   0.374   4.473   1.322
 2780TIP3    H1 8304   0.386   4.383   1.292
 2780TIP3    H2 8305   0.288   4.473   1.365
 2781TIP3   OH2 8306   7.044   5.686   3.242
 2781TIP3    H1 8307   6.954   5.700   3.270
 2781TIP3    H2 8308   7.056   5.743   3.167
 2782TIP3   OH2 8309   3.320   0.587   4.706
 2782TIP3    H1 8310   3.385   0.642   4.750
 2782TIP3    H2 8311   3.255   0.568   4.774
 2783TIP3   OH2 8312   5.057   1.290   3.762
 2783TIP3    H1 8313   5.089   1.370   3.721
 2783TIP3    H2 8314   5.051   1.227   3.690
 2784TIP3   OH2 8315   1.323   2.310   5.827
 2784TIP3    H1 8316   1.257   2.372   5.859
 2784TIP3    H2 8317   1.370   2.283   5.905
 2785TIP3   OH2 8318   2.582   4.062   0.695
 2785TIP3    H1 8319   2.525   4.085   0.768
 2785TIP3    H2 8320   2.527   4.011   0.636
 2786TIP3   OH2 8321   3.480   2.595   2.040
 2786TIP3    H1 8322   3.406   2.537   2.024
 2786TIP3    H2 8323   3.534   2.549   2.105
 2787TIP3   OH2 8324   0.714   1.256   4.140
 2787TIP3    H1 8325   0.743   1.214   4.059
 2787TIP3    H2 8326   0.789   1.308   4.169
 2788TIP3   OH2 8327   7.177   2.108   2.093
 2788TIP3    H1 8328   7.148   2.188   2.135
 2788TIP3    H2 8329   7.103   2.048   2.103
 2789TIP3   OH2 8330   2.663   4.991   1.134
 2789TIP3    H1 8331   2.644   5.081   1.160
 2789TIP3    H2 8332   2.756   4.991   1.111
 2790TIP3   OH2 8333   3.819   5.444   2.098
 2790TIP3    H1 8334   3.821   5.391   2.018
 2790TIP3    H2 8335   3.756   5.513   2.080
 2791TIP3   OH2 8336   2.597   1.985   3.201
 2791TIP3    H1 8337   2.656   1.914   3.227
 2791TIP3    H2 8338   2.512   1.960   3.237
 2792TIP3   OH2 8339   0.424   5.319   4.604
 2792TIP3    H1 8340   0.430   5.304   4.698
 2792TIP3    H2 8341   0.391   5.408   4.596
 2793TIP3   OH2 8342   4.310   5.701   2.062
 2793TIP3    H1 8343   4.262   5.646   2.124
 2793TIP3    H2 8344   4.402   5.681   2.078
 2794TIP3   OH2 8345   6.512   6.674   1.508
 2794TIP3    H1 8346   6.502   6.605   1.574
 2794TIP3    H2 8347   6.605   6.696   1.510
 2795TIP3   OH2 8348   0.488   5.956   0.685
 2795TIP3    H1 8349   0.431   5.925   0.616
 2795TIP3    H2 8350   0.484   6.051   0.679
 2796TIP3   OH2 8351   5.160   2.145   3.172
 2796TIP3    H1 8352   5.167   2.240   3.176
 2796TIP3    H2 8353   5.251   2.115   3.165
 2797TIP3   OH2 8354   6.057   4.528   4.202
 2797TIP3    H1 8355   5.990   4.580   4.158
 2797TIP3    H2 8356   6.137   4.580   4.194
 2798TIP3   OH2 8357   3.697   4.266   0.998
 2798TIP3    H1 8358   3.654   4.303   1.075
 2798TIP3    H2 8359   3.734   4.183   1.029
 2799TIP3   OH2 8360   5.614   4.204   0.332
 2799TIP3    H1 8361   5.531   4.165   0.361
 2799TIP3    H2 8362   5.679   4.137   0.352
 2800TIP3   OH2 8363   5.173   3.191   0.350
 2800TIP3    H1 8364   5.185   3.223   0.439
 2800TIP3    H2 8365   5.103   3.247   0.314
 2801TIP3   OH2 8366   3.218   5.016   5.847
 2801TIP3    H1 8367   3.193   4.945   5.788
 2801TIP3    H2 8368   3.275   5.072   5.795
 2802TIP3   OH2 8369   4.932   0.529   3.490
 2802TIP3    H1 8370   5.021   0.564   3.484
 2802TIP3    H2 8371   4.901   0.556   3.576
 2803TIP3   OH2 8372   1.553   2.262   3.168
 2803TIP3    H1 8373   1.649   2.260   3.174
 2803TIP3    H2 8374   1.525   2.174   3.190
 2804TIP3   OH2 8375   6.196   2.558   2.346
 2804TIP3    H1 8376   6.279   2.556   2.394
 2804TIP3    H2 8377   6.223   2.571   2.255
 2805TIP3   OH2 8378   4.083   6.751   5.068
 2805TIP3    H1 8379   4.038   6.690   5.127
 2805TIP3    H2 8380   4.117   6.696   4.998
 2806TIP3   OH2 8381   1.755   5.706   1.739
 2806TIP3    H1 8382   1.775   5.639   1.674
 2806TIP3    H2 8383   1.659   5.705   1.745
 2807TIP3   OH2 8384   6.721   2.048   3.415
 2807TIP3    H1 8385   6.732   1.964   3.460
 2807TIP3    H2 8386   6.772   2.039   3.335
 2808TIP3   OH2 8387   3.463   1.299   4.284
 2808TIP3    H1 8388   3.463   1.313   4.379
 2808TIP3    H2 8389   3.484   1.206   4.274
 2809TIP3   OH2 8390   3.505   1.885   3.740
 2809TIP3    H1 8391   3.498   1.870   3.834
 2809TIP3    H2 8392   3.434   1.945   3.720
 2810TIP3   OH2 8393   6.958   3.444   3.668
 2810TIP3    H1 8394   6.876   3.476   3.632
 2810TIP3    H2 8395   7.025   3.477   3.608
 2811TIP3   OH2 8396   6.641   2.089   4.693
 2811TIP3    H1 8397   6.717   2.123   4.646
 2811TIP3    H2 8398   6.620   2.007   4.650
 2812TIP3   OH2 8399   5.071   6.641   1.323
 2812TIP3    H1 8400   5.023   6.646   1.406
 2812TIP3    H2 8401   5.159   6.672   1.345
 2813TIP3   OH2 8402   2.000   6.038   1.239
 2813TIP3    H1 8403   1.935   5.977   1.275
 2813TIP3    H2 8404   1.954   6.081   1.166
 2814TIP3   OH2 8405   3.508   4.097   5.738
 2814TIP3    H1 8406   3.500   4.035   5.666
 2814TIP3    H2 8407   3.472   4.179   5.704
 2815TIP3   OH2 8408   1.294   1.651   1.527
 2815TIP3    H1 8409   1.274   1.745   1.524
 2815TIP3    H2 8410   1.389   1.647   1.523
 2816TIP3   OH2 8411   3.529   4.187   4.455
 2816TIP3    H1 8412   3.510   4.277   4.483
 2816TIP3    H2 8413   3.535   4.137   4.536
 2817TIP3   OH2 8414   0.693   1.043   2.028
 2817TIP3    H1 8415   0.786   1.066   2.025
 2817TIP3    H2 8416   0.673   1.010   1.941
 2818TIP3   OH2 8417   2.671   0.377   4.591
 2818TIP3    H1 8418   2.765   0.358   4.592
 2818TIP3    H2 8419   2.634   0.313   4.531
 2819TIP3   OH2 8420   6.545   5.897   3.546
 2819TIP3    H1 8421   6.636   5.894   3.575
 2819TIP3    H2 8422   6.535   5.819   3.490
 2820TIP3   OH2 8423   0.111   6.485   1.143
 2820TIP3    H1 8424   0.130   6.401   1.102
 2820TIP3    H2 8425   0.177   6.545   1.108
 2821TIP3   OH2 8426   2.808   4.841   3.585
 2821TIP3    H1 8427   2.748   4.823   3.657
 2821TIP3    H2 8428   2.818   4.936   3.586
 2822TIP3   OH2 8429   1.444   4.423   0.378
 2822TIP3    H1 8430   1.475   4.430   0.288
 2822TIP3    H2 8431   1.475   4.338   0.408
 2823TIP3   OH2 8432   1.131   5.863   3.268
 2823TIP3    H1 8433   1.151   5.952   3.238
 2823TIP3    H2 8434   1.167   5.859   3.357
 2824TIP3   OH2 8435   0.778   4.540   1.087
 2824TIP3    H1 8436   0.831   4.619   1.076
 2824TIP3    H2 8437   0.697   4.559   1.041
 2825TIP3   OH2 8438   6.083   0.358   0.063
 2825TIP3    H1 8439   5.990   0.334   0.071
 2825TIP3    H2 8440   6.081   0.443   0.019
 2826TIP3   OH2 8441   3.957   0.633   4.335
 2826TIP3    H1 8442   3.989   0.584   4.259
 2826TIP3    H2 8443   3.936   0.720   4.300
 2827TIP3   OH2 8444   6.364   6.502   5.869
 2827TIP3    H1 8445   6.439   6.556   5.895
 2827TIP3    H2 8446   6.292   6.532   5.925
 2828TIP3   OH2 8447   6.563   2.272   3.352
 2828TIP3    H1 8448   6.515   2.269   3.435
 2828TIP3    H2 8449   6.589   2.181   3.336
 2829TIP3   OH2 8450   0.939   0.522   4.797
 2829TIP3    H1 8451   0.917   0.438   4.755
 2829TIP3    H2 8452   0.917   0.588   4.732
 2830TIP3   OH2 8453   2.861   1.913   5.627
 2830TIP3    H1 8454   2.945   1.879   5.657
 2830TIP3    H2 8455   2.815   1.836   5.591
 2831TIP3   OH2 8456   7.118   1.027   5.028
 2831TIP3    H1 8457   7.090   1.065   4.944
 2831TIP3    H2 8458   7.139   0.936   5.007
 2832TIP3   OH2 8459   1.003   3.809   2.609
 2832TIP3    H1 8460   1.002   3.878   2.675
 2832TIP3    H2 8461   0.983   3.729   2.657
 2833TIP3   OH2 8462   1.456   0.655   3.370
 2833TIP3    H1 8463   1.538   0.608   3.385
 2833TIP3    H2 8464   1.411   0.604   3.303
 2834TIP3   OH2 8465   6.895   4.788   1.570
 2834TIP3    H1 8466   6.877   4.720   1.504
 2834TIP3    H2 8467   6.812   4.833   1.581
 2835TIP3   OH2 8468   5.232   6.414   1.584
 2835TIP3    H1 8469   5.316   6.435   1.542
 2835TIP3    H2 8470   5.181   6.495   1.577
 2836TIP3   OH2 8471   2.165   5.578   0.094
 2836TIP3    H1 8472   2.210   5.599   0.176
 2836TIP3    H2 8473   2.228   5.529   0.043
 2837TIP3   OH2 8474   3.527   3.997   2.945
 2837TIP3    H1 8475   3.485   3.975   3.028
 2837TIP3    H2 8476   3.486   3.939   2.881
 2838TIP3   OH2 8477   4.254   1.111   0.087
 2838TIP3    H1 8478   4.221   1.161   0.162
 2838TIP3    H2 8479   4.227   1.021   0.105
 2839TIP3   OH2 8480   1.632   1.025   4.411
 2839TIP3    H1 8481   1.703   0.986   4.360
 2839TIP3    H2 8482   1.671   1.105   4.448
 2840TIP3   OH2 8483   4.118   3.691   2.091
 2840TIP3    H1 8484   4.071   3.769   2.122
 2840TIP3    H2 8485   4.080   3.619   2.141
 2841TIP3   OH2 8486   2.864   6.586   5.786
 2841TIP3    H1 8487   2.929   6.610   5.719
 2841TIP3    H2 8488   2.814   6.515   5.746
 2842TIP3   OH2 8489   4.391   1.968   5.521
 2842TIP3    H1 8490   4.392   1.879   5.554
 2842TIP3    H2 8491   4.416   2.022   5.596
 2843TIP3   OH2 8492   0.028   1.672   5.660
 2843TIP3    H1 8493   0.014   1.760   5.626
 2843TIP3    H2 8494   0.008   1.615   5.586
 2844TIP3   OH2 8495   0.430   2.495   5.296
 2844TIP3    H1 8496   0.465   2.563   5.355
 2844TIP3    H2 8497   0.337   2.489   5.319
 2845TIP3   OH2 8498   3.517   5.952   1.573
 2845TIP3    H1 8499   3.450   5.899   1.617
 2845TIP3    H2 8500   3.483   5.965   1.485
 2846TIP3   OH2 8501   3.881   3.207   2.137
 2846TIP3    H1 8502   3.904   3.117   2.112
 2846TIP3    H2 8503   3.795   3.199   2.179
 2847TIP3   OH2 8504   7.129   5.850   3.598
 2847TIP3    H1 8505   7.220   5.821   3.593
 2847TIP3    H2 8506   7.112   5.889   3.512
 2848TIP3   OH2 8507   0.247   3.698   4.424
 2848TIP3    H1 8508   0.193   3.768   4.460
 2848TIP3    H2 8509   0.194   3.662   4.352
 2849TIP3   OH2 8510   1.226   2.951   3.845
 2849TIP3    H1 8511   1.154   3.014   3.836
 2849TIP3    H2 8512   1.302   2.995   3.807
 2850TIP3   OH2 8513   2.597   5.084   2.524
 2850TIP3    H1 8514   2.529   5.106   2.588
 2850TIP3    H2 8515   2.615   5.166   2.479
 2851TIP3   OH2 8516   1.728   6.660   4.395
 2851TIP3    H1 8517   1.734   6.749   4.361
 2851TIP3    H2 8518   1.807   6.649   4.448
 2852TIP3   OH2 8519   0.349   6.731   1.392
 2852TIP3    H1 8520   0.398   6.666   1.342
 2852TIP3    H2 8521   0.342   6.694   1.480
 2853TIP3   OH2 8522   1.336   1.059   3.199
 2853TIP3    H1 8523   1.408   1.084   3.258
 2853TIP3    H2 8524   1.378   1.044   3.115
 2854TIP3   OH2 8525   4.400   6.398   5.707
 2854TIP3    H1 8526   4.335   6.447   5.756
 2854TIP3    H2 8527   4.416   6.320   5.761
 2855TIP3   OH2 8528   4.432   4.422   4.542
 2855TIP3    H1 8529   4.482   4.471   4.608
 2855TIP3    H2 8530   4.465   4.456   4.458
 2856TIP3   OH2 8531   0.303   2.225   5.401
 2856TIP3    H1 8532   0.260   2.305   5.372
 2856TIP3    H2 8533   0.326   2.178   5.320
 2857TIP3   OH2 8534   0.263   5.945   1.947
 2857TIP3    H1 8535   0.310   5.868   1.915
 2857TIP3    H2 8536   0.256   6.002   1.870
 2858TIP3   OH2 8537   6.543   1.156   0.268
 2858TIP3    H1 8538   6.546   1.252   0.272
 2858TIP3    H2 8539   6.633   1.130   0.252
 2859TIP3   OH2 8540   4.360   6.548   0.166
 2859TIP3    H1 8541   4.287   6.546   0.228
 2859TIP3    H2 8542   4.389   6.639   0.166
 2860TIP3   OH2 8543   1.470   4.417   5.527
 2860TIP3    H1 8544   1.456   4.343   5.585
 2860TIP3    H2 8545   1.552   4.398   5.482
 2861TIP3   OH2 8546   2.586   1.972   2.783
 2861TIP3    H1 8547   2.509   1.930   2.745
 2861TIP3    H2 8548   2.609   2.040   2.720
 2862TIP3   OH2 8549   2.888   3.411   3.157
 2862TIP3    H1 8550   2.814   3.395   3.215
 2862TIP3    H2 8551   2.955   3.350   3.187
 2863TIP3   OH2 8552   5.826   0.492   5.811
 2863TIP3    H1 8553   5.798   0.555   5.877
 2863TIP3    H2 8554   5.751   0.485   5.751
 2864TIP3   OH2 8555   1.861   3.647   4.651
 2864TIP3    H1 8556   1.790   3.672   4.710
 2864TIP3    H2 8557   1.940   3.652   4.706
 2865TIP3   OH2 8558   4.979   5.489   3.189
 2865TIP3    H1 8559   4.938   5.497   3.103
 2865TIP3    H2 8560   4.907   5.494   3.251
 2866TIP3   OH2 8561   0.710   5.365   1.392
 2866TIP3    H1 8562   0.615   5.359   1.382
 2866TIP3    H2 8563   0.734   5.444   1.343
 2867TIP3   OH2 8564   1.004   5.484   3.824
 2867TIP3    H1 8565   0.927   5.496   3.769
 2867TIP3    H2 8566   0.973   5.429   3.897
 2868TIP3   OH2 8567   5.938   4.209   2.613
 2868TIP3    H1 8568   5.906   4.267   2.682
 2868TIP3    H2 8569   6.011   4.256   2.574
 2869TIP3   OH2 8570   4.926   2.500   5.668
 2869TIP3    H1 8571   4.936   2.524   5.761
 2869TIP3    H2 8572   5.013   2.513   5.631
 2870TIP3   OH2 8573   6.576   1.858   2.186
 2870TIP3    H1 8574   6.517   1.888   2.117
 2870TIP3    H2 8575   6.534   1.781   2.222
 2871TIP3   OH2 8576   3.827   4.099   5.106
 2871TIP3    H1 8577   3.801   4.034   5.041
 2871TIP3    H2 8578   3.902   4.143   5.067
 2872TIP3   OH2 8579   6.883   2.920   3.311
 2872TIP3    H1 8580   6.944   2.848   3.295
 2872TIP3    H2 8581   6.842   2.936   3.226
 2873TIP3   OH2 8582   2.751   6.402   3.748
 2873TIP3    H1 8583   2.752   6.380   3.655
 2873TIP3    H2 8584   2.660   6.385   3.775
 2874TIP3   OH2 8585   0.516   3.615   0.005
 2874TIP3    H1 8586   0.491   3.704  -0.018
 2874TIP3    H2 8587   0.445   3.560  -0.029
 2875TIP3   OH2 8588   2.043   0.429   0.478
 2875TIP3    H1 8589   2.027   0.514   0.519
 2875TIP3    H2 8590   2.136   0.412   0.493
 2876TIP3   OH2 8591   5.414   1.232   0.780
 2876TIP3    H1 8592   5.464   1.268   0.854
 2876TIP3    H2 8593   5.479   1.184   0.729
 2877TIP3   OH2 8594   6.374   5.550   3.206
 2877TIP3    H1 8595   6.314   5.602   3.152
 2877TIP3    H2 8596   6.420   5.494   3.145
 2878TIP3   OH2 8597   4.480   2.927   3.886
 2878TIP3    H1 8598   4.404   2.942   3.830
 2878TIP3    H2 8599   4.514   3.015   3.905
 2879TIP3   OH2 8600   2.170   1.543   3.902
 2879TIP3    H1 8601   2.240   1.537   3.837
 2879TIP3    H2 8602   2.214   1.562   3.984
 2880TIP3   OH2 8603   5.771   4.003   5.398
 2880TIP3    H1 8604   5.691   4.054   5.385
 2880TIP3    H2 8605   5.764   3.931   5.335
 2881TIP3   OH2 8606   4.995   4.373   5.455
 2881TIP3    H1 8607   5.051   4.389   5.379
 2881TIP3    H2 8608   5.028   4.433   5.522
 2882TIP3   OH2 8609   1.470   0.554   2.522
 2882TIP3    H1 8610   1.406   0.594   2.464
 2882TIP3    H2 8611   1.506   0.627   2.572
 2883TIP3   OH2 8612   2.854   3.970   5.488
 2883TIP3    H1 8613   2.833   3.975   5.395
 2883TIP3    H2 8614   2.924   4.035   5.500
 2884TIP3   OH2 8615   4.045   6.392   4.894
 2884TIP3    H1 8616   3.955   6.390   4.863
 2884TIP3    H2 8617   4.061   6.303   4.927
 2885TIP3   OH2 8618   3.963   5.157   1.141
 2885TIP3    H1 8619   4.052   5.128   1.121
 2885TIP3    H2 8620   3.924   5.084   1.188
 2886TIP3   OH2 8621   4.899   0.033   1.932
 2886TIP3    H1 8622   4.866   0.101   1.874
 2886TIP3    H2 8623   4.987   0.062   1.956
 2887TIP3   OH2 8624   6.077   4.883   1.862
 2887TIP3    H1 8625   6.092   4.789   1.875
 2887TIP3    H2 8626   6.081   4.920   1.950
 2888TIP3   OH2 8627   4.252   0.923   4.859
 2888TIP3    H1 8628   4.256   0.927   4.954
 2888TIP3    H2 8629   4.342   0.912   4.831
 2889TIP3   OH2 8630   3.551   5.708   2.674
 2889TIP3    H1 8631   3.534   5.719   2.768
 2889TIP3    H2 8632   3.491   5.770   2.632
 2890TIP3   OH2 8633   3.725   2.908   5.441
 2890TIP3    H1 8634   3.745   2.937   5.352
 2890TIP3    H2 8635   3.674   2.828   5.429
 2891TIP3   OH2 8636   5.548   4.882   1.925
 2891TIP3    H1 8637   5.506   4.806   1.966
 2891TIP3    H2 8638   5.595   4.925   1.997
 2892TIP3   OH2 8639   0.565   3.242   5.850
 2892TIP3    H1 8640   0.578   3.240   5.756
 2892TIP3    H2 8641   0.473   3.264   5.862
 2893TIP3   OH2 8642   5.628   3.098   3.250
 2893TIP3    H1 8643   5.539   3.079   3.219
 2893TIP3    H2 8644   5.668   3.012   3.262
 2894TIP3   OH2 8645   5.100   1.917   3.005
 2894TIP3    H1 8646   5.005   1.909   2.991
 2894TIP3    H2 8647   5.108   1.978   3.078
 2895TIP3   OH2 8648   5.836   1.376   1.803
 2895TIP3    H1 8649   5.871   1.330   1.880
 2895TIP3    H2 8650   5.752   1.411   1.832
 2896TIP3   OH2 8651   2.330   5.694   2.733
 2896TIP3    H1 8652   2.277   5.616   2.720
 2896TIP3    H2 8653   2.397   5.690   2.664
 2897TIP3   OH2 8654   4.840   5.423   5.536
 2897TIP3    H1 8655   4.910   5.426   5.601
 2897TIP3    H2 8656   4.827   5.329   5.519
 2898TIP3   OH2 8657   5.800   2.726   5.356
 2898TIP3    H1 8658   5.855   2.794   5.318
 2898TIP3    H2 8659   5.855   2.686   5.424
 2899TIP3   OH2 8660   3.135   2.648   3.945
 2899TIP3    H1 8661   3.060   2.708   3.943
 2899TIP3    H2 8662   3.207   2.702   3.978
 2900TIP3   OH2 8663   1.720   3.018   3.620
 2900TIP3    H1 8664   1.733   3.059   3.535
 2900TIP3    H2 8665   1.782   3.062   3.678
 2901TIP3   OH2 8666   2.119   5.892   2.261
 2901TIP3    H1 8667   2.078   5.815   2.300
 2901TIP3    H2 8668   2.151   5.943   2.335
 2902TIP3   OH2 8669   4.892   6.711   5.183
 2902TIP3    H1 8670   4.908   6.771   5.256
 2902TIP3    H2 8671   4.858   6.767   5.113
 2903TIP3   OH2 8672   0.313   4.083   1.866
 2903TIP3    H1 8673   0.396   4.036   1.877
 2903TIP3    H2 8674   0.296   4.121   1.952
 2904TIP3   OH2 8675   2.976   1.300   2.711
 2904TIP3    H1 8676   2.907   1.363   2.691
 2904TIP3    H2 8677   2.958   1.226   2.653
 2905TIP3   OH2 8678   2.211   1.720   2.316
 2905TIP3    H1 8679   2.134   1.752   2.362
 2905TIP3    H2 8680   2.214   1.626   2.335
 2906TIP3   OH2 8681   1.144   1.723   2.568
 2906TIP3    H1 8682   1.101   1.648   2.608
 2906TIP3    H2 8683   1.163   1.782   2.642
 2907TIP3   OH2 8684   5.457   5.212   2.154
 2907TIP3    H1 8685   5.528   5.150   2.139
 2907TIP3    H2 8686   5.479   5.253   2.238
 2908TIP3   OH2 8687   6.496   3.876   4.615
 2908TIP3    H1 8688   6.408   3.914   4.610
 2908TIP3    H2 8689   6.551   3.947   4.649
 2909TIP3   OH2 8690   3.035   3.949   0.438
 2909TIP3    H1 8691   3.027   3.894   0.517
 2909TIP3    H2 8692   2.952   3.937   0.393
 2910TIP3   OH2 8693   6.852   3.426   4.947
 2910TIP3    H1 8694   6.890   3.422   5.035
 2910TIP3    H2 8695   6.872   3.341   4.909
 2911TIP3   OH2 8696   1.913   2.068   2.114
 2911TIP3    H1 8697   1.854   2.032   2.048
 2911TIP3    H2 8698   1.871   2.046   2.198
 2912TIP3   OH2 8699   1.812   3.669   3.586
 2912TIP3    H1 8700   1.744   3.735   3.571
 2912TIP3    H2 8701   1.887   3.719   3.618
 2913TIP3   OH2 8702   2.687   5.078   4.185
 2913TIP3    H1 8703   2.773   5.063   4.147
 2913TIP3    H2 8704   2.703   5.137   4.259
 2914TIP3   OH2 8705   3.574   1.168   1.511
 2914TIP3    H1 8706   3.664   1.161   1.543
 2914TIP3    H2 8707   3.569   1.103   1.440
 2915TIP3   OH2 8708   0.169   1.406   5.470
 2915TIP3    H1 8709   0.101   1.362   5.520
 2915TIP3    H2 8710   0.124   1.479   5.427
 2916TIP3   OH2 8711   4.070   3.456   5.846
 2916TIP3    H1 8712   3.994   3.509   5.872
 2916TIP3    H2 8713   4.038   3.405   5.771
 2917TIP3   OH2 8714   3.704   3.380   5.482
 2917TIP3    H1 8715   3.784   3.332   5.502
 2917TIP3    H2 8716   3.706   3.456   5.540
 2918TIP3   OH2 8717   6.503   5.122   5.529
 2918TIP3    H1 8718   6.532   5.150   5.442
 2918TIP3    H2 8719   6.491   5.027   5.520
 2919TIP3   OH2 8720   4.842   6.209   2.636
 2919TIP3    H1 8721   4.852   6.181   2.727
 2919TIP3    H2 8722   4.894   6.288   2.629
 2920TIP3   OH2 8723   2.708   2.182   4.364
 2920TIP3    H1 8724   2.694   2.276   4.346
 2920TIP3    H2 8725   2.785   2.160   4.312
 2921TIP3   OH2 8726   2.748   3.022   3.937
 2921TIP3    H1 8727   2.748   3.072   4.018
 2921TIP3    H2 8728   2.750   3.088   3.868
 2922TIP3   OH2 8729   1.226   5.324   3.791
 2922TIP3    H1 8730   1.175   5.405   3.792
 2922TIP3    H2 8731   1.276   5.329   3.709
 2923TIP3   OH2 8732   0.823   0.726   2.297
 2923TIP3    H1 8733   0.860   0.681   2.221
 2923TIP3    H2 8734   0.858   0.815   2.291
 2924TIP3   OH2 8735   1.830   3.850   0.688
 2924TIP3    H1 8736   1.831   3.795   0.610
 2924TIP3    H2 8737   1.869   3.796   0.756
 2925TIP3   OH2 8738   3.835   3.129   1.764
 2925TIP3    H1 8739   3.810   3.079   1.686
 2925TIP3    H2 8740   3.753   3.170   1.793
 2926TIP3   OH2 8741   2.265   1.766   5.715
 2926TIP3    H1 8742   2.336   1.828   5.733
 2926TIP3    H2 8743   2.212   1.766   5.795
 2927TIP3   OH2 8744   6.443   0.968   2.245
 2927TIP3    H1 8745   6.468   0.974   2.153
 2927TIP3    H2 8746   6.521   0.998   2.293
 2928TIP3   OH2 8747   5.038   0.863   4.038
 2928TIP3    H1 8748   5.060   0.775   4.068
 2928TIP3    H2 8749   5.113   0.889   3.984
 2929TIP3   OH2 8750   5.264   0.848   2.999
 2929TIP3    H1 8751   5.335   0.849   3.062
 2929TIP3    H2 8752   5.302   0.888   2.920
 2930TIP3   OH2 8753   2.790   0.120   3.850
 2930TIP3    H1 8754   2.725   0.072   3.800
 2930TIP3    H2 8755   2.872   0.072   3.835
 2931TIP3   OH2 8756   4.703   1.097   3.713
 2931TIP3    H1 8757   4.610   1.092   3.733
 2931TIP3    H2 8758   4.747   1.060   3.790
 2932TIP3   OH2 8759   4.714   4.811   1.875
 2932TIP3    H1 8760   4.760   4.879   1.924
 2932TIP3    H2 8761   4.739   4.729   1.918
 2933TIP3   OH2 8762   3.475   2.187   1.668
 2933TIP3    H1 8763   3.436   2.191   1.756
 2933TIP3    H2 8764   3.554   2.241   1.674
 2934TIP3   OH2 8765   6.758   6.354   0.233
 2934TIP3    H1 8766   6.810   6.314   0.303
 2934TIP3    H2 8767   6.813   6.344   0.155
 2935TIP3   OH2 8768   4.818   2.010   0.592
 2935TIP3    H1 8769   4.871   1.978   0.665
 2935TIP3    H2 8770   4.764   2.080   0.629
 2936TIP3   OH2 8771   4.206   3.182   0.054
 2936TIP3    H1 8772   4.253   3.101   0.032
 2936TIP3    H2 8773   4.260   3.252   0.018
 2937TIP3   OH2 8774   6.122   0.911   4.243
 2937TIP3    H1 8775   6.202   0.924   4.294
 2937TIP3    H2 8776   6.051   0.932   4.304
 2938TIP3   OH2 8777   0.287   3.401   0.237
 2938TIP3    H1 8778   0.303   3.449   0.156
 2938TIP3    H2 8779   0.261   3.469   0.300
 2939TIP3   OH2 8780   2.110   4.579   2.062
 2939TIP3    H1 8781   2.114   4.586   1.966
 2939TIP3    H2 8782   2.192   4.536   2.086
 2940TIP3   OH2 8783   0.386   6.306   5.373
 2940TIP3    H1 8784   0.343   6.221   5.366
 2940TIP3    H2 8785   0.320   6.363   5.413
 2941TIP3   OH2 8786   1.345   4.289   4.055
 2941TIP3    H1 8787   1.320   4.380   4.042
 2941TIP3    H2 8788   1.320   4.269   4.145
 2942TIP3   OH2 8789   0.735   4.426   2.605
 2942TIP3    H1 8790   0.668   4.371   2.645
 2942TIP3    H2 8791   0.686   4.490   2.552
 2943TIP3   OH2 8792   1.710   2.713   4.740
 2943TIP3    H1 8793   1.765   2.677   4.671
 2943TIP3    H2 8794   1.745   2.801   4.756
 2944TIP3   OH2 8795   0.285   3.051   1.617
 2944TIP3    H1 8796   0.256   2.961   1.605
 2944TIP3    H2 8797   0.250   3.098   1.541
 2945TIP3   OH2 8798   2.176   0.704   3.234
 2945TIP3    H1 8799   2.091   0.722   3.274
 2945TIP3    H2 8800   2.233   0.772   3.268
 2946TIP3   OH2 8801   5.783   2.874   1.645
 2946TIP3    H1 8802   5.775   2.799   1.703
 2946TIP3    H2 8803   5.854   2.852   1.585
 2947TIP3   OH2 8804   2.308   0.127   3.399
 2947TIP3    H1 8805   2.280   0.187   3.329
 2947TIP3    H2 8806   2.394   0.159   3.425
 2948TIP3   OH2 8807   1.343   0.170   1.011
 2948TIP3    H1 8808   1.295   0.221   1.076
 2948TIP3    H2 8809   1.299   0.189   0.928
 2949TIP3   OH2 8810   5.514   1.964   3.589
 2949TIP3    H1 8811   5.550   2.048   3.618
 2949TIP3    H2 8812   5.566   1.940   3.512
 2950TIP3   OH2 8813   3.656   6.581   3.803
 2950TIP3    H1 8814   3.709   6.588   3.724
 2950TIP3    H2 8815   3.720   6.573   3.874
 2951TIP3   OH2 8816   5.229   5.072   2.206
 2951TIP3    H1 8817   5.305   5.127   2.187
 2951TIP3    H2 8818   5.265   4.996   2.251
 2952TIP3   OH2 8819   4.339   1.700   5.122
 2952TIP3    H1 8820   4.401   1.766   5.153
 2952TIP3    H2 8821   4.328   1.641   5.197
 2953TIP3   OH2 8822   5.591   4.765   0.003
 2953TIP3    H1 8823   5.499   4.741   0.013
 2953TIP3    H2 8824   5.632   4.685  -0.031
 2954TIP3   OH2 8825   4.357   3.540   3.840
 2954TIP3    H1 8826   4.435   3.568   3.887
 2954TIP3    H2 8827   4.363   3.445   3.835
 2955TIP3   OH2 8828   1.559   3.400   0.324
 2955TIP3    H1 8829   1.558   3.489   0.361
 2955TIP3    H2 8830   1.611   3.349   0.387
 2956TIP3   OH2 8831   5.494   1.218   2.853
 2956TIP3    H1 8832   5.547   1.266   2.917
 2956TIP3    H2 8833   5.536   1.132   2.846
 2957TIP3   OH2 8834   0.018   3.886   1.374
 2957TIP3    H1 8835   0.104   3.875   1.333
 2957TIP3    H2 8836   0.006   3.807   1.427
 2958TIP3   OH2 8837   6.545   3.478   1.352
 2958TIP3    H1 8838   6.456   3.456   1.381
 2958TIP3    H2 8839   6.600   3.460   1.429
 2959TIP3   OH2 8840   5.206   2.424   4.985
 2959TIP3    H1 8841   5.242   2.389   4.904
 2959TIP3    H2 8842   5.169   2.349   5.030
 2960TIP3   OH2 8843   4.897   2.873   3.961
 2960TIP3    H1 8844   4.813   2.828   3.953
 2960TIP3    H2 8845   4.961   2.803   3.976
 2961TIP3   OH2 8846   4.607   2.405   3.627
 2961TIP3    H1 8847   4.569   2.381   3.542
 2961TIP3    H2 8848   4.681   2.461   3.605
 2962TIP3   OH2 8849   0.399   5.798   2.405
 2962TIP3    H1 8850   0.359   5.873   2.361
 2962TIP3    H2 8851   0.481   5.832   2.440
 2963TIP3   OH2 8852   2.944   4.342   4.535
 2963TIP3    H1 8853   3.028   4.297   4.528
 2963TIP3    H2 8854   2.937   4.392   4.453
 2964TIP3   OH2 8855   1.832   4.881   5.068
 2964TIP3    H1 8856   1.804   4.865   4.977
 2964TIP3    H2 8857   1.902   4.946   5.060
 2965TIP3   OH2 8858   3.827   0.974   1.522
 2965TIP3    H1 8859   3.767   0.962   1.596
 2965TIP3    H2 8860   3.868   0.888   1.512
 2966TIP3   OH2 8861   2.645   0.023   4.407
 2966TIP3    H1 8862   2.608   0.105   4.373
 2966TIP3    H2 8863   2.700  -0.009   4.336
 2967TIP3   OH2 8864   2.078   4.727   3.025
 2967TIP3    H1 8865   2.089   4.663   2.954
 2967TIP3    H2 8866   1.987   4.716   3.053
 2968TIP3   OH2 8867   6.985   1.514   5.766
 2968TIP3    H1 8868   7.035   1.483   5.842
 2968TIP3    H2 8869   7.051   1.530   5.699
 2969TIP3   OH2 8870   1.807   3.017   1.571
 2969TIP3    H1 8871   1.727   2.986   1.529
 2969TIP3    H2 8872   1.861   2.939   1.581
 2970TIP3   OH2 8873   4.454   5.955   5.517
 2970TIP3    H1 8874   4.509   5.940   5.441
 2970TIP3    H2 8875   4.515   5.980   5.586
 2971TIP3   OH2 8876   2.354   6.202   1.437
 2971TIP3    H1 8877   2.307   6.119   1.429
 2971TIP3    H2 8878   2.361   6.217   1.532
 2972TIP3   OH2 8879   3.027   6.537   5.024
 2972TIP3    H1 8880   3.059   6.625   5.044
 2972TIP3    H2 8881   2.932   6.547   5.021
 2973TIP3   OH2 8882   3.800   5.037   4.074
 2973TIP3    H1 8883   3.732   5.068   4.014
 2973TIP3    H2 8884   3.753   5.013   4.153
 2974TIP3   OH2 8885   3.305   6.695   1.447
 2974TIP3    H1 8886   3.260   6.616   1.478
 2974TIP3    H2 8887   3.343   6.670   1.363
 2975TIP3   OH2 8888   0.764   4.020   2.225
 2975TIP3    H1 8889   0.816   4.096   2.201
 2975TIP3    H2 8890   0.782   3.956   2.156
 2976TIP3   OH2 8891   0.753   2.821   1.184
 2976TIP3    H1 8892   0.685   2.763   1.219
 2976TIP3    H2 8893   0.817   2.829   1.254
 2977TIP3   OH2 8894   2.801   2.886   0.160
 2977TIP3    H1 8895   2.877   2.942   0.146
 2977TIP3    H2 8896   2.810   2.816   0.095
 2978TIP3   OH2 8897   1.611   4.207   0.391
 2978TIP3    H1 8898   1.662   4.245   0.320
 2978TIP3    H2 8899   1.675   4.190   0.461
 2979TIP3   OH2 8900   5.646   6.740   3.968
 2979TIP3    H1 8901   5.671   6.668   3.909
 2979TIP3    H2 8902   5.705   6.812   3.943
 2980TIP3   OH2 8903   5.229   3.249   3.269
 2980TIP3    H1 8904   5.305   3.282   3.317
 2980TIP3    H2 8905   5.199   3.324   3.218
 2981TIP3   OH2 8906   5.546   3.475   0.908
 2981TIP3    H1 8907   5.484   3.480   0.835
 2981TIP3    H2 8908   5.626   3.515   0.874
 2982TIP3   OH2 8909   4.428   2.942   1.085
 2982TIP3    H1 8910   4.473   2.888   1.019
 2982TIP3    H2 8911   4.416   3.027   1.042
 2983TIP3   OH2 8912   1.674   2.591   2.389
 2983TIP3    H1 8913   1.586   2.556   2.376
 2983TIP3    H2 8914   1.669   2.681   2.356
 2984TIP3   OH2 8915   0.586   5.649   1.926
 2984TIP3    H1 8916   0.571   5.597   2.005
 2984TIP3    H2 8917   0.629   5.728   1.957
 2985TIP3   OH2 8918   4.916   4.026   0.969
 2985TIP3    H1 8919   4.964   4.109   0.968
 2985TIP3    H2 8920   4.851   4.037   1.038
 2986TIP3   OH2 8921   3.632   6.226   0.898
 2986TIP3    H1 8922   3.723   6.213   0.873
 2986TIP3    H2 8923   3.610   6.315   0.870
 2987TIP3   OH2 8924   3.201   4.197   2.501
 2987TIP3    H1 8925   3.167   4.276   2.542
 2987TIP3    H2 8926   3.172   4.202   2.410
 2988TIP3   OH2 8927   0.896   4.201   1.747
 2988TIP3    H1 8928   0.803   4.189   1.729
 2988TIP3    H2 8929   0.927   4.115   1.774
 2989TIP3   OH2 8930   0.335   0.706   2.768
 2989TIP3    H1 8931   0.272   0.756   2.820
 2989TIP3    H2 8932   0.282   0.645   2.717
 2990TIP3   OH2 8933   3.027   6.717   5.547
 2990TIP3    H1 8934   3.083   6.794   5.544
 2990TIP3    H2 8935   3.087   6.642   5.546
 2991TIP3   OH2 8936   1.846   4.962   1.187
 2991TIP3    H1 8937   1.842   5.056   1.204
 2991TIP3    H2 8938   1.782   4.947   1.118
 2992TIP3   OH2 8939   4.717   5.388   1.675
 2992TIP3    H1 8940   4.760   5.473   1.664
 2992TIP3    H2 8941   4.680   5.368   1.589
 2993TIP3   OH2 8942   5.886   0.226   3.023
 2993TIP3    H1 8943   5.884   0.292   3.093
 2993TIP3    H2 8944   5.913   0.274   2.945
 2994TIP3   OH2 8945   7.015   2.052   0.731
 2994TIP3    H1 8946   7.053   2.049   0.819
 2994TIP3    H2 8947   7.084   2.088   0.676
 2995TIP3   OH2 8948   4.774   0.992   2.377
 2995TIP3    H1 8949   4.766   0.953   2.289
 2995TIP3    H2 8950   4.803   0.919   2.432
 2996TIP3   OH2 8951   3.646   6.642   2.060
 2996TIP3    H1 8952   3.687   6.619   2.144
 2996TIP3    H2 8953   3.565   6.591   2.058
 2997TIP3   OH2 8954   1.839   3.524   4.142
 2997TIP3    H1 8955   1.860   3.505   4.050
 2997TIP3    H2 8956   1.907   3.586   4.169
 2998TIP3   OH2 8957   3.012   5.454   1.267
 2998TIP3    H1 8958   2.985   5.544   1.285
 2998TIP3    H2 8959   3.012   5.447   1.171
 2999TIP3   OH2 8960   0.710   2.364   1.858
 2999TIP3    H1 8961   0.743   2.318   1.935
 2999TIP3    H2 8962   0.615   2.363   1.869
 3000TIP3   OH2 8963   4.868   0.798   4.978
 3000TIP3    H1 8964   4.874   0.818   5.071
 3000TIP3    H2 8965   4.941   0.847   4.938
 3001TIP3   OH2 8966   3.432   1.940   3.046
 3001TIP3    H1 8967   3.386   2.024   3.047
 3001TIP3    H2 8968   3.394   1.894   2.971
 3002TIP3   OH2 8969   6.095   1.475   1.990
 3002TIP3    H1 8970   6.084   1.382   2.009
 3002TIP3    H2 8971   6.065   1.520   2.069
 3003TIP3   OH2 8972   7.075   5.613   2.720
 3003TIP3    H1 8973   7.167   5.635   2.734
 3003TIP3    H2 8974   7.049   5.666   2.645
 3004TIP3   OH2 8975   4.036   4.298   5.764
 3004TIP3    H1 8976   3.979   4.243   5.711
 3004TIP3    H2 8977   3.993   4.383   5.764
 3005TIP3   OH2 8978   2.306   1.135   3.486
 3005TIP3    H1 8979   2.231   1.127   3.546
 3005TIP3    H2 8980   2.381   1.150   3.543
 3006TIP3   OH2 8981   1.798   4.645   1.150
 3006TIP3    H1 8982   1.879   4.662   1.102
 3006TIP3    H2 8983   1.734   4.703   1.110
 3007TIP3   OH2 8984   1.786   6.543   1.543
 3007TIP3    H1 8985   1.841   6.495   1.481
 3007TIP3    H2 8986   1.847   6.576   1.609
 3008TIP3   OH2 8987   2.865   5.875   0.141
 3008TIP3    H1 8988   2.912   5.795   0.165
 3008TIP3    H2 8989   2.934   5.939   0.123
 3009TIP3   OH2 8990   6.665   6.190   1.563
 3009TIP3    H1 8991   6.746   6.239   1.579
 3009TIP3    H2 8992   6.611   6.250   1.511
 3010TIP3   OH2 8993   7.024   2.897   4.759
 3010TIP3    H1 8994   7.053   2.973   4.708
 3010TIP3    H2 8995   7.099   2.875   4.814
 3011TIP3   OH2 8996   0.742   1.294   0.179
 3011TIP3    H1 8997   0.696   1.278   0.262
 3011TIP3    H2 8998   0.675   1.286   0.112
 3012TIP3   OH2 8999   2.300   5.527   4.479
 3012TIP3    H1 9000   2.261   5.516   4.566
 3012TIP3    H2 9001   2.383   5.479   4.484
 3013TIP3   OH2 9002   3.868   4.461   2.258
 3013TIP3    H1 9003   3.844   4.545   2.218
 3013TIP3    H2 9004   3.785   4.413   2.266
 3014TIP3   OH2 9005   0.910   5.718   3.223
 3014TIP3    H1 9006   0.904   5.725   3.127
 3014TIP3    H2 9007   0.986   5.771   3.246
 3015TIP3   OH2 9008   7.109   2.485   4.741
 3015TIP3    H1 9009   7.191   2.534   4.741
 3015TIP3    H2 9010   7.068   2.507   4.825
 3016TIP3   OH2 9011   5.277   0.901   3.350
 3016TIP3    H1 9012   5.271   0.960   3.425
 3016TIP3    H2 9013   5.362   0.919   3.311
 3017TIP3   OH2 9014   5.212   2.863   2.130
 3017TIP3    H1 9015   5.205   2.767   2.133
 3017TIP3    H2 9016   5.152   2.889   2.060
 3018TIP3   OH2 9017   7.185   0.458   4.055
 3018TIP3    H1 9018   7.121   0.526   4.072
 3018TIP3    H2 9019   7.151   0.411   3.979
 3019TIP3   OH2 9020   5.611   6.622   3.527
 3019TIP3    H1 9021   5.652   6.587   3.606
 3019TIP3    H2 9022   5.664   6.698   3.504
 3020TIP3   OH2 9023   5.415   5.946   3.066
 3020TIP3    H1 9024   5.393   5.859   3.032
 3020TIP3    H2 9025   5.425   5.933   3.160
 3021TIP3   OH2 9026   4.688   4.883   0.943
 3021TIP3    H1 9027   4.622   4.870   0.875
 3021TIP3    H2 9028   4.641   4.870   1.025
 3022TIP3   OH2 9029   2.866   0.353   5.215
 3022TIP3    H1 9030   2.817   0.434   5.200
 3022TIP3    H2 9031   2.957   0.377   5.200
 3023TIP3   OH2 9032   1.559   0.793   0.442
 3023TIP3    H1 9033   1.555   0.866   0.503
 3023TIP3    H2 9034   1.546   0.715   0.497
 3024TIP3   OH2 9035   6.404   0.930   0.522
 3024TIP3    H1 9036   6.496   0.934   0.495
 3024TIP3    H2 9037   6.358   0.986   0.460
 3025TIP3   OH2 9038   2.452   3.668   5.513
 3025TIP3    H1 9039   2.368   3.680   5.470
 3025TIP3    H2 9040   2.431   3.624   5.595
 3026TIP3   OH2 9041   2.356   5.442   0.676
 3026TIP3    H1 9042   2.334   5.479   0.762
 3026TIP3    H2 9043   2.332   5.510   0.613
 3027TIP3   OH2 9044   5.409   5.933   1.083
 3027TIP3    H1 9045   5.394   6.015   1.130
 3027TIP3    H2 9046   5.430   5.959   0.993
 3028TIP3   OH2 9047   5.315   3.398   5.017
 3028TIP3    H1 9048   5.227   3.383   4.983
 3028TIP3    H2 9049   5.342   3.314   5.053
 3029TIP3   OH2 9050   2.507   5.967   0.543
 3029TIP3    H1 9051   2.545   5.896   0.596
 3029TIP3    H2 9052   2.563   5.972   0.466
 3030TIP3   OH2 9053   3.325   1.705   4.251
 3030TIP3    H1 9054   3.300   1.647   4.323
 3030TIP3    H2 9055   3.394   1.657   4.205
 3031TIP3   OH2 9056   0.285   1.099   1.198
 3031TIP3    H1 9057   0.276   1.160   1.125
 3031TIP3    H2 9058   0.355   1.135   1.251
 3032TIP3   OH2 9059   4.116   0.297   0.743
 3032TIP3    H1 9060   4.208   0.276   0.760
 3032TIP3    H2 9061   4.068   0.221   0.775
 3033TIP3   OH2 9062   3.611   5.395   0.613
 3033TIP3    H1 9063   3.691   5.360   0.575
 3033TIP3    H2 9064   3.637   5.426   0.699
 3034TIP3   OH2 9065   6.163   2.063   2.103
 3034TIP3    H1 9066   6.243   2.012   2.089
 3034TIP3    H2 9067   6.167   2.089   2.195
 3035TIP3   OH2 9068   6.168   3.791   4.892
 3035TIP3    H1 9069   6.094   3.736   4.863
 3035TIP3    H2 9070   6.193   3.841   4.815
 3036TIP3   OH2 9071   6.233   6.361   2.245
 3036TIP3    H1 9072   6.146   6.334   2.276
 3036TIP3    H2 9073   6.220   6.450   2.212
 3037TIP3   OH2 9074   3.820   6.342   0.375
 3037TIP3    H1 9075   3.788   6.432   0.368
 3037TIP3    H2 9076   3.806   6.318   0.466
 3038TIP3   OH2 9077   1.177   0.130   1.859
 3038TIP3    H1 9078   1.271   0.143   1.871
 3038TIP3    H2 9079   1.143   0.218   1.843
 3039TIP3   OH2 9080   1.824   2.775   1.814
 3039TIP3    H1 9081   1.880   2.735   1.748
 3039TIP3    H2 9082   1.803   2.703   1.874
 3040TIP3   OH2 9083   1.373   1.388   1.467
 3040TIP3    H1 9084   1.442   1.419   1.526
 3040TIP3    H2 9085   1.320   1.466   1.449
 3041TIP3   OH2 9086   2.972   2.920   5.820
 3041TIP3    H1 9087   3.064   2.894   5.827
 3041TIP3    H2 9088   2.950   2.908   5.728
 3042TIP3   OH2 9089   1.947   6.738   3.819
 3042TIP3    H1 9090   1.902   6.771   3.742
 3042TIP3    H2 9091   1.977   6.816   3.865
 3043TIP3   OH2 9092   2.839   0.275   3.349
 3043TIP3    H1 9093   2.831   0.366   3.377
 3043TIP3    H2 9094   2.786   0.225   3.410
 3044TIP3   OH2 9095   1.336   1.590   5.007
 3044TIP3    H1 9096   1.418   1.549   5.033
 3044TIP3    H2 9097   1.354   1.628   4.921
 3045TIP3   OH2 9098   1.523   3.930   1.631
 3045TIP3    H1 9099   1.593   3.971   1.683
 3045TIP3    H2 9100   1.468   4.003   1.604
 3046TIP3   OH2 9101   5.834   1.852   4.574
 3046TIP3    H1 9102   5.748   1.871   4.610
 3046TIP3    H2 9103   5.883   1.812   4.646
 3047TIP3   OH2 9104   6.230   2.373   0.988
 3047TIP3    H1 9105   6.154   2.430   1.003
 3047TIP3    H2 9106   6.301   2.434   0.966
 3048TIP3   OH2 9107   3.186   0.243   1.954
 3048TIP3    H1 9108   3.148   0.176   2.010
 3048TIP3    H2 9109   3.277   0.249   1.982
 3049TIP3   OH2 9110   2.012   1.597   4.240
 3049TIP3    H1 9111   2.074   1.592   4.168
 3049TIP3    H2 9112   1.929   1.567   4.203
 3050TIP3   OH2 9113   3.688   1.543   0.210
 3050TIP3    H1 9114   3.680   1.611   0.144
 3050TIP3    H2 9115   3.598   1.513   0.225
 3051TIP3   OH2 9116   6.027   4.749   5.829
 3051TIP3    H1 9117   6.046   4.671   5.881
 3051TIP3    H2 9118   6.108   4.765   5.780
 3052TIP3   OH2 9119   0.321   1.410   1.460
 3052TIP3    H1 9120   0.355   1.320   1.451
 3052TIP3    H2 9121   0.231   1.399   1.489
 3053TIP3   OH2 9122   6.576   3.834   1.910
 3053TIP3    H1 9123   6.580   3.856   2.003
 3053TIP3    H2 9124   6.661   3.795   1.891
 3054TIP3   OH2 9125   3.077   0.022   0.761
 3054TIP3    H1 9126   3.169   0.007   0.740
 3054TIP3    H2 9127   3.031   0.008   0.678
 3055TIP3   OH2 9128   1.604   5.665   4.358
 3055TIP3    H1 9129   1.670   5.698   4.418
 3055TIP3    H2 9130   1.651   5.608   4.297
 3056TIP3   OH2 9131   6.434   2.413   2.724
 3056TIP3    H1 9132   6.441   2.341   2.661
 3056TIP3    H2 9133   6.454   2.491   2.672
 3057TIP3   OH2 9134   1.949   4.311   3.754
 3057TIP3    H1 9135   1.981   4.226   3.723
 3057TIP3    H2 9136   1.890   4.289   3.827
 3058TIP3   OH2 9137   1.808   1.446   4.074
 3058TIP3    H1 9138   1.748   1.373   4.092
 3058TIP3    H2 9139   1.750   1.520   4.058
 3059TIP3   OH2 9140   2.493   2.530   2.842
 3059TIP3    H1 9141   2.456   2.618   2.831
 3059TIP3    H2 9142   2.532   2.510   2.756
 3060TIP3   OH2 9143   0.610   0.859   2.593
 3060TIP3    H1 9144   0.536   0.808   2.560
 3060TIP3    H2 9145   0.683   0.833   2.537
 3061TIP3   OH2 9146   3.382   3.831   2.803
 3061TIP3    H1 9147   3.322   3.877   2.744
 3061TIP3    H2 9148   3.328   3.811   2.880
 3062TIP3   OH2 9149   1.234   3.742   2.159
 3062TIP3    H1 9150   1.199   3.676   2.218
 3062TIP3    H2 9151   1.188   3.822   2.182
 3063TIP3   OH2 9152   3.434   1.603   0.592
 3063TIP3    H1 9153   3.489   1.678   0.611
 3063TIP3    H2 9154   3.429   1.555   0.675
 3064TIP3   OH2 9155   0.182   4.750   5.718
 3064TIP3    H1 9156   0.175   4.792   5.804
 3064TIP3    H2 9157   0.186   4.823   5.657
 3065TIP3   OH2 9158   0.803   1.702   0.994
 3065TIP3    H1 9159   0.747   1.625   0.982
 3065TIP3    H2 9160   0.742   1.775   0.996
 3066TIP3   OH2 9161   2.919   1.298   0.344
 3066TIP3    H1 9162   2.928   1.352   0.422
 3066TIP3    H2 9163   3.005   1.300   0.303
 3067TIP3   OH2 9164   4.960   6.743   4.341
 3067TIP3    H1 9165   4.964   6.691   4.421
 3067TIP3    H2 9166   5.048   6.777   4.330
 3068TIP3   OH2 9167   0.742   3.640   3.224
 3068TIP3    H1 9168   0.774   3.721   3.185
 3068TIP3    H2 9169   0.655   3.663   3.258
 3069TIP3   OH2 9170   0.165   5.611   2.214
 3069TIP3    H1 9171   0.257   5.584   2.211
 3069TIP3    H2 9172   0.118   5.541   2.169
 3070TIP3   OH2 9173   1.093   0.469   0.782
 3070TIP3    H1 9174   1.106   0.457   0.688
 3070TIP3    H2 9175   1.180   0.486   0.816
 3071TIP3   OH2 9176   2.574   2.335   5.600
 3071TIP3    H1 9177   2.493   2.284   5.608
 3071TIP3    H2 9178   2.643   2.269   5.596
 3072TIP3   OH2 9179   6.499   0.653   3.236
 3072TIP3    H1 9180   6.415   0.692   3.211
 3072TIP3    H2 9181   6.480   0.559   3.246
 3073TIP3   OH2 9182   0.738   6.105   1.093
 3073TIP3    H1 9183   0.672   6.044   1.060
 3073TIP3    H2 9184   0.782   6.138   1.015
 3074TIP3   OH2 9185   2.380   3.125   3.363
 3074TIP3    H1 9186   2.383   3.212   3.403
 3074TIP3    H2 9187   2.296   3.123   3.317
 3075TIP3   OH2 9188   6.250   1.511   1.159
 3075TIP3    H1 9189   6.252   1.580   1.225
 3075TIP3    H2 9190   6.207   1.551   1.084
 3076TIP3   OH2 9191  -0.019   4.785   3.807
 3076TIP3    H1 9192   0.058   4.801   3.862
 3076TIP3    H2 9193  -0.085   4.750   3.866
 3077TIP3   OH2 9194   1.005   4.982   0.878
 3077TIP3    H1 9195   0.909   4.984   0.883
 3077TIP3    H2 9196   1.034   5.055   0.932
 3078TIP3   OH2 9197   2.522   5.802   5.301
 3078TIP3    H1 9198   2.497   5.816   5.392
 3078TIP3    H2 9199   2.612   5.832   5.295
 3079TIP3   OH2 9200   2.084   4.592   1.776
 3079TIP3    H1 9201   2.122   4.536   1.709
 3079TIP3    H2 9202   2.134   4.673   1.770
 3080TIP3   OH2 9203   4.307   3.647   4.613
 3080TIP3    H1 9204   4.295   3.618   4.703
 3080TIP3    H2 9205   4.322   3.567   4.563
 3081TIP3   OH2 9206   4.193   5.832   5.463
 3081TIP3    H1 9207   4.285   5.860   5.461
 3081TIP3    H2 9208   4.196   5.746   5.504
 3082TIP3   OH2 9209   6.545   3.485   3.747
 3082TIP3    H1 9210   6.509   3.456   3.831
 3082TIP3    H2 9211   6.623   3.431   3.734
 3083TIP3   OH2 9212   1.919   2.548   5.179
 3083TIP3    H1 9213   1.928   2.462   5.219
 3083TIP3    H2 9214   1.828   2.572   5.193
 3084TIP3   OH2 9215   1.400   3.655   2.874
 3084TIP3    H1 9216   1.328   3.602   2.909
 3084TIP3    H2 9217   1.477   3.599   2.884
 3085TIP3   OH2 9218   6.653   3.811   2.424
 3085TIP3    H1 9219   6.687   3.725   2.446
 3085TIP3    H2 9220   6.684   3.868   2.494
 3086TIP3   OH2 9221   5.714   0.567   5.148
 3086TIP3    H1 9222   5.806   0.546   5.162
 3086TIP3    H2 9223   5.699   0.647   5.197
 3087TIP3   OH2 9224   1.815   0.727   5.856
 3087TIP3    H1 9225   1.733   0.721   5.906
 3087TIP3    H2 9226   1.874   0.665   5.900
 3088TIP3   OH2 9227   4.750   3.473   2.516
 3088TIP3    H1 9228   4.758   3.378   2.516
 3088TIP3    H2 9229   4.832   3.504   2.477
 3089TIP3   OH2 9230   4.697   0.963   0.162
 3089TIP3    H1 9231   4.771   0.928   0.211
 3089TIP3    H2 9232   4.647   1.014   0.226
 3090TIP3   OH2 9233   3.139   2.880   1.613
 3090TIP3    H1 9234   3.058   2.901   1.660
 3090TIP3    H2 9235   3.161   2.961   1.566
 3091TIP3   OH2 9236   6.165   3.545   5.650
 3091TIP3    H1 9237   6.109   3.621   5.630
 3091TIP3    H2 9238   6.236   3.581   5.703
 3092TIP3   OH2 9239   5.700   6.575   1.745
 3092TIP3    H1 9240   5.639   6.624   1.800
 3092TIP3    H2 9241   5.650   6.556   1.665
 3093TIP3   OH2 9242   1.791   3.539   0.589
 3093TIP3    H1 9243   1.696   3.530   0.592
 3093TIP3    H2 9244   1.807   3.607   0.524
 3094TIP3   OH2 9245   6.040   1.455   4.692
 3094TIP3    H1 9246   6.018   1.548   4.689
 3094TIP3    H2 9247   5.973   1.416   4.748
 3095TIP3   OH2 9248   5.933   6.534   0.308
 3095TIP3    H1 9249   5.873   6.569   0.374
 3095TIP3    H2 9250   5.921   6.592   0.232
 3096TIP3   OH2 9251   4.559   2.894   5.128
 3096TIP3    H1 9252   4.558   2.946   5.209
 3096TIP3    H2 9253   4.530   2.954   5.060
 3097TIP3   OH2 9254   3.268   1.018   0.278
 3097TIP3    H1 9255   3.298   0.978   0.360
 3097TIP3    H2 9256   3.189   1.067   0.303
 3098TIP3   OH2 9257   3.533   1.939   1.797
 3098TIP3    H1 9258   3.619   1.904   1.776
 3098TIP3    H2 9259   3.534   1.949   1.892
 3099TIP3   OH2 9260   1.267   2.303   1.878
 3099TIP3    H1 9261   1.287   2.329   1.968
 3099TIP3    H2 9262   1.252   2.209   1.883
 3100TIP3   OH2 9263   1.248   4.213   4.302
 3100TIP3    H1 9264   1.184   4.142   4.297
 3100TIP3    H2 9265   1.208   4.278   4.360
 3101TIP3   OH2 9266   4.585   6.218   5.880
 3101TIP3    H1 9267   4.645   6.212   5.954
 3101TIP3    H2 9268   4.620   6.155   5.816
 3102TIP3   OH2 9269   0.323   6.087   1.708
 3102TIP3    H1 9270   0.276   6.056   1.631
 3102TIP3    H2 9271   0.305   6.181   1.711
 3103TIP3   OH2 9272   3.526   3.400   5.745
 3103TIP3    H1 9273   3.587   3.366   5.811
 3103TIP3    H2 9274   3.568   3.479   5.713
 3104TIP3   OH2 9275   5.816   0.101   0.445
 3104TIP3    H1 9276   5.898   0.108   0.397
 3104TIP3    H2 9277   5.767   0.032   0.400
 3105TIP3   OH2 9278   6.784   4.818   3.374
 3105TIP3    H1 9279   6.758   4.835   3.465
 3105TIP3    H2 9280   6.876   4.846   3.370
 3106TIP3   OH2 9281   6.888   5.504   1.860
 3106TIP3    H1 9282   6.963   5.445   1.855
 3106TIP3    H2 9283   6.853   5.492   1.948
 3107TIP3   OH2 9284   6.261   1.868   0.596
 3107TIP3    H1 9285   6.268   1.834   0.685
 3107TIP3    H2 9286   6.273   1.962   0.605
 3108TIP3   OH2 9287   4.580   4.562   4.772
 3108TIP3    H1 9288   4.583   4.652   4.740
 3108TIP3    H2 9289   4.570   4.570   4.867
 3109TIP3   OH2 9290   3.648   4.156   0.074
 3109TIP3    H1 9291   3.668   4.063   0.071
 3109TIP3    H2 9292   3.553   4.161   0.065
 3110TIP3   OH2 9293   3.248   2.278   0.604
 3110TIP3    H1 9294   3.216   2.236   0.525
 3110TIP3    H2 9295   3.252   2.371   0.583
 3111TIP3   OH2 9296   3.394  -0.014   4.549
 3111TIP3    H1 9297   3.465   0.038   4.510
 3111TIP3    H2 9298   3.386   0.020   4.638
 3112TIP3   OH2 9299   2.945   3.037   1.310
 3112TIP3    H1 9300   2.905   3.076   1.232
 3112TIP3    H2 9301   2.882   3.056   1.380
 3113TIP3   OH2 9302   4.286   5.069   2.348
 3113TIP3    H1 9303   4.260   5.125   2.421
 3113TIP3    H2 9304   4.204   5.051   2.301
 3114TIP3   OH2 9305   5.378   2.796   5.802
 3114TIP3    H1 9306   5.289   2.764   5.820
 3114TIP3    H2 9307   5.365   2.881   5.762
 3115TIP3   OH2 9308   2.064   3.985   2.710
 3115TIP3    H1 9309   2.114   3.975   2.629
 3115TIP3    H2 9310   2.074   4.078   2.733
 3116TIP3   OH2 9311   0.833   6.631   3.289
 3116TIP3    H1 9312   0.919   6.642   3.330
 3116TIP3    H2 9313   0.824   6.536   3.278
 3117TIP3   OH2 9314   4.505   4.356   4.954
 3117TIP3    H1 9315   4.597   4.356   4.982
 3117TIP3    H2 9316   4.457   4.319   5.028
 3118TIP3   OH2 9317   5.140   0.207   1.931
 3118TIP3    H1 9318   5.218   0.262   1.939
 3118TIP3    H2 9319   5.120   0.209   1.837
 3119TIP3   OH2 9320   4.405   1.458   2.050
 3119TIP3    H1 9321   4.370   1.372   2.026
 3119TIP3    H2 9322   4.393   1.463   2.145
 3120TIP3   OH2 9323   3.175   0.292   3.625
 3120TIP3    H1 9324   3.149   0.240   3.549
 3120TIP3    H2 9325   3.099   0.289   3.683
 3121TIP3   OH2 9326   4.757   3.790   4.408
 3121TIP3    H1 9327   4.715   3.765   4.490
 3121TIP3    H2 9328   4.695   3.849   4.366
 3122TIP3   OH2 9329   1.395   3.748   5.066
 3122TIP3    H1 9330   1.479   3.734   5.109
 3122TIP3    H2 9331   1.331   3.746   5.137
 3123TIP3   OH2 9332   2.278   4.555   1.037
 3123TIP3    H1 9333   2.355   4.509   1.071
 3123TIP3    H2 9334   2.267   4.520   0.949
 3124TIP3   OH2 9335   1.496   0.747   3.704
 3124TIP3    H1 9336   1.488   0.710   3.616
 3124TIP3    H2 9337   1.472   0.676   3.762
 3125TIP3   OH2 9338   4.032   2.249   2.455
 3125TIP3    H1 9339   4.069   2.254   2.543
 3125TIP3    H2 9340   3.958   2.310   2.457
 3126TIP3   OH2 9341   6.847   0.702   2.319
 3126TIP3    H1 9342   6.779   0.753   2.363
 3126TIP3    H2 9343   6.855   0.743   2.233
 3127TIP3   OH2 9344   5.375   1.610   2.710
 3127TIP3    H1 9345   5.465   1.621   2.741
 3127TIP3    H2 9346   5.321   1.639   2.783
 3128TIP3   OH2 9347   5.370   0.941   2.760
 3128TIP3    H1 9348   5.442   0.911   2.704
 3128TIP3    H2 9349   5.324   1.007   2.708
 3129TIP3   OH2 9350   2.593   3.019   4.242
 3129TIP3    H1 9351   2.525   3.042   4.305
 3129TIP3    H2 9352   2.632   3.103   4.217
 3130TIP3   OH2 9353   1.648   1.051   5.369
 3130TIP3    H1 9354   1.709   0.981   5.344
 3130TIP3    H2 9355   1.631   1.036   5.462
 3131TIP3   OH2 9356   3.167   1.358   0.266
 3131TIP3    H1 9357   3.189   1.324   0.179
 3131TIP3    H2 9358   3.252   1.365   0.311
 3132TIP3   OH2 9359   4.771   4.704   4.227
 3132TIP3    H1 9360   4.739   4.695   4.316
 3132TIP3    H2 9361   4.692   4.715   4.174
 3133TIP3   OH2 9362   2.541   6.329   4.642
 3133TIP3    H1 9363   2.496   6.337   4.558
 3133TIP3    H2 9364   2.600   6.405   4.646
 3134TIP3   OH2 9365   3.266   0.951   5.554
 3134TIP3    H1 9366   3.222   0.878   5.510
 3134TIP3    H2 9367   3.353   0.955   5.513
 3135TIP3   OH2 9368   0.093   1.017   3.777
 3135TIP3    H1 9369   0.080   0.943   3.836
 3135TIP3    H2 9370   0.005   1.044   3.752
 3136TIP3   OH2 9371   6.624   6.306   0.810
 3136TIP3    H1 9372   6.570   6.346   0.879
 3136TIP3    H2 9373   6.589   6.342   0.729
 3137TIP3   OH2 9374   2.922   3.375   0.818
 3137TIP3    H1 9375   2.829   3.396   0.815
 3137TIP3    H2 9376   2.925   3.285   0.850
 3138TIP3   OH2 9377   5.612   4.941   5.200
 3138TIP3    H1 9378   5.579   4.998   5.131
 3138TIP3    H2 9379   5.653   4.868   5.154
 3139TIP3   OH2 9380   3.970   1.422   0.186
 3139TIP3    H1 9381   3.879   1.444   0.164
 3139TIP3    H2 9382   4.004   1.500   0.229
 3140TIP3   OH2 9383   5.404   5.659   3.727
 3140TIP3    H1 9384   5.368   5.571   3.731
 3140TIP3    H2 9385   5.472   5.653   3.659
 3141TIP3   OH2 9386   3.152   5.615   4.924
 3141TIP3    H1 9387   3.241   5.600   4.891
 3141TIP3    H2 9388   3.132   5.536   4.974
 3142TIP3   OH2 9389   3.768   4.697   2.518
 3142TIP3    H1 9390   3.679   4.706   2.483
 3142TIP3    H2 9391   3.755   4.668   2.609
 3143TIP3   OH2 9392   6.542   4.857   5.452
 3143TIP3    H1 9393   6.610   4.842   5.517
 3143TIP3    H2 9394   6.589   4.887   5.374
 3144TIP3   OH2 9395   4.696   5.740   2.547
 3144TIP3    H1 9396   4.696   5.803   2.618
 3144TIP3    H2 9397   4.737   5.787   2.474
 3145TIP3   OH2 9398   2.740   1.171   3.822
 3145TIP3    H1 9399   2.755   1.226   3.899
 3145TIP3    H2 9400   2.827   1.147   3.792
 3146TIP3   OH2 9401   5.282   0.765   4.859
 3146TIP3    H1 9402   5.373   0.755   4.887
 3146TIP3    H2 9403   5.279   0.728   4.771
 3147TIP3   OH2 9404   6.037   4.590   3.480
 3147TIP3    H1 9405   6.024   4.636   3.563
 3147TIP3    H2 9406   5.958   4.609   3.430
 3148TIP3   OH2 9407   1.683   2.569   5.334
 3148TIP3    H1 9408   1.730   2.628   5.393
 3148TIP3    H2 9409   1.591   2.590   5.349
 3149TIP3   OH2 9410   5.698   3.514   1.991
 3149TIP3    H1 9411   5.688   3.525   2.086
 3149TIP3    H2 9412   5.643   3.438   1.970
 3150TIP3   OH2 9413   3.876   1.009   3.642
 3150TIP3    H1 9414   3.802   0.984   3.698
 3150TIP3    H2 9415   3.949   1.018   3.703
 3151TIP3   OH2 9416   7.137   4.397   1.264
 3151TIP3    H1 9417   7.183   4.341   1.326
 3151TIP3    H2 9418   7.201   4.413   1.194
 3152TIP3   OH2 9419   0.929   4.305   3.051
 3152TIP3    H1 9420   1.022   4.287   3.039
 3152TIP3    H2 9421   0.885   4.232   3.008
 3153TIP3   OH2 9422   4.094   6.565   3.737
 3153TIP3    H1 9423   4.148   6.543   3.813
 3153TIP3    H2 9424   4.026   6.623   3.771
 3154TIP3   OH2 9425   0.040   3.692   1.572
 3154TIP3    H1 9426   0.075   3.693   1.661
 3154TIP3    H2 9427   0.034   3.599   1.550
 3155TIP3   OH2 9428   5.354   5.948   3.792
 3155TIP3    H1 9429   5.396   5.887   3.731
 3155TIP3    H2 9430   5.288   5.993   3.739
 3156TIP3   OH2 9431   5.225   5.651   4.167
 3156TIP3    H1 9432   5.302   5.668   4.113
 3156TIP3    H2 9433   5.151   5.667   4.110
 3157TIP3   OH2 9434   1.822   1.471   2.128
 3157TIP3    H1 9435   1.788   1.393   2.083
 3157TIP3    H2 9436   1.812   1.451   2.221
 3158TIP3   OH2 9437   2.701   6.829   5.850
 3158TIP3    H1 9438   2.705   6.874   5.766
 3158TIP3    H2 9439   2.753   6.750   5.837
 3159TIP3   OH2 9440   5.964   2.382   2.236
 3159TIP3    H1 9441   5.957   2.471   2.269
 3159TIP3    H2 9442   6.020   2.337   2.300
 3160TIP3   OH2 9443   1.126   0.172   4.556
 3160TIP3    H1 9444   1.117   0.172   4.651
 3160TIP3    H2 9445   1.216   0.201   4.540
 3161TIP3   OH2 9446   2.076   2.778   2.804
 3161TIP3    H1 9447   1.995   2.827   2.791
 3161TIP3    H2 9448   2.141   2.845   2.827
 3162TIP3   OH2 9449   1.757   2.424   2.181
 3162TIP3    H1 9450   1.735   2.491   2.246
 3162TIP3    H2 9451   1.749   2.341   2.228
 3163TIP3   OH2 9452   6.443   5.112   5.795
 3163TIP3    H1 9453   6.462   5.117   5.702
 3163TIP3    H2 9454   6.511   5.166   5.836
 3164TIP3   OH2 9455   2.761   5.505   0.081
 3164TIP3    H1 9456   2.704   5.437   0.045
 3164TIP3    H2 9457   2.757   5.492   0.176
 3165TIP3   OH2 9458   6.038   4.920   0.964
 3165TIP3    H1 9459   6.114   4.975   0.942
 3165TIP3    H2 9460   5.965   4.981   0.970
 3166TIP3   OH2 9461   3.098   2.788   5.512
 3166TIP3    H1 9462   3.113   2.695   5.498
 3166TIP3    H2 9463   3.185   2.824   5.529
 3167TIP3   OH2 9464   4.352   0.434   5.866
 3167TIP3    H1 9465   4.371   0.469   5.953
 3167TIP3    H2 9466   4.427   0.379   5.844
 3168TIP3   OH2 9467   2.134   5.185   5.447
 3168TIP3    H1 9468   2.042   5.171   5.425
 3168TIP3    H2 9469   2.132   5.247   5.520
 3169TIP3   OH2 9470   0.376   2.912   1.056
 3169TIP3    H1 9471   0.387   2.820   1.031
 3169TIP3    H2 9472   0.449   2.957   1.013
 3170TIP3   OH2 9473   5.957   1.537   0.953
 3170TIP3    H1 9474   5.947   1.563   1.045
 3170TIP3    H2 9475   5.869   1.545   0.916
 3171TIP3   OH2 9476   6.799   2.950   3.811
 3171TIP3    H1 9477   6.828   2.995   3.732
 3171TIP3    H2 9478   6.790   3.019   3.876
 3172TIP3   OH2 9479   1.846   1.549   3.574
 3172TIP3    H1 9480   1.888   1.597   3.502
 3172TIP3    H2 9481   1.788   1.613   3.615
 3173TIP3   OH2 9482   4.891   4.494   0.949
 3173TIP3    H1 9483   4.944   4.572   0.931
 3173TIP3    H2 9484   4.952   4.421   0.938
 3174TIP3   OH2 9485   3.674   6.330   5.338
 3174TIP3    H1 9486   3.751   6.345   5.392
 3174TIP3    H2 9487   3.703   6.268   5.271
 3175TIP3   OH2 9488   3.259   6.168   4.012
 3175TIP3    H1 9489   3.166   6.148   4.018
 3175TIP3    H2 9490   3.263   6.262   3.994
 3176TIP3   OH2 9491   4.560   0.685   2.686
 3176TIP3    H1 9492   4.607   0.759   2.725
 3176TIP3    H2 9493   4.501   0.655   2.755
 3177TIP3   OH2 9494   3.629   4.246   3.125
 3177TIP3    H1 9495   3.564   4.234   3.194
 3177TIP3    H2 9496   3.653   4.338   3.130
 3178TIP3   OH2 9497   4.487   2.055   1.558
 3178TIP3    H1 9498   4.502   2.138   1.603
 3178TIP3    H2 9499   4.401   2.066   1.517
 3179TIP3   OH2 9500   5.712   0.735   2.925
 3179TIP3    H1 9501   5.727   0.746   2.831
 3179TIP3    H2 9502   5.785   0.682   2.955
 3180TIP3   OH2 9503   0.995   0.177   0.686
 3180TIP3    H1 9504   0.976   0.229   0.764
 3180TIP3    H2 9505   0.925   0.203   0.624
 3181TIP3   OH2 9506   6.743   3.580   2.511
 3181TIP3    H1 9507   6.711   3.503   2.464
 3181TIP3    H2 9508   6.744   3.553   2.603
 3182TIP3   OH2 9509   6.804   4.911   3.010
 3182TIP3    H1 9510   6.877   4.973   3.009
 3182TIP3    H2 9511   6.786   4.897   3.103
 3183TIP3   OH2 9512   0.161   3.138   0.274
 3183TIP3    H1 9513   0.121   3.112   0.356
 3183TIP3    H2 9514   0.194   3.227   0.290
 3184TIP3   OH2 9515   0.579   5.999   1.711
 3184TIP3    H1 9516   0.491   6.034   1.722
 3184TIP3    H2 9517   0.637   6.073   1.727
 3185TIP3   OH2 9518   3.925   0.605   4.028
 3185TIP3    H1 9519   3.837   0.643   4.032
 3185TIP3    H2 9520   3.911   0.512   4.014
 3186TIP3   OH2 9521   2.143   0.424   0.159
 3186TIP3    H1 9522   2.135   0.509   0.200
 3186TIP3    H2 9523   2.062   0.413   0.109
 3187TIP3   OH2 9524   0.072   2.129   4.628
 3187TIP3    H1 9525   0.082   2.035   4.644
 3187TIP3    H2 9526  -0.017   2.138   4.596
 3188TIP3   OH2 9527   1.204   3.934   0.287
 3188TIP3    H1 9528   1.267   3.934   0.359
 3188TIP3    H2 9529   1.224   4.014   0.238
 3189TIP3   OH2 9530   5.739   3.640   1.765
 3189TIP3    H1 9531   5.727   3.597   1.850
 3189TIP3    H2 9532   5.816   3.696   1.777
 3190TIP3   OH2 9533   3.906   3.191   3.512
 3190TIP3    H1 9534   3.872   3.144   3.436
 3190TIP3    H2 9535   3.938   3.123   3.571
 3191TIP3   OH2 9536   5.718   3.045   3.964
 3191TIP3    H1 9537   5.726   3.112   3.896
 3191TIP3    H2 9538   5.790   3.062   4.024
 3192TIP3   OH2 9539   6.992   0.829   3.344
 3192TIP3    H1 9540   7.053   0.822   3.417
 3192TIP3    H2 9541   7.046   0.855   3.270
 3193TIP3   OH2 9542   0.152   4.752   1.491
 3193TIP3    H1 9543   0.231   4.797   1.521
 3193TIP3    H2 9544   0.157   4.665   1.531
 3194TIP3   OH2 9545   1.845   4.296   4.339
 3194TIP3    H1 9546   1.923   4.277   4.286
 3194TIP3    H2 9547   1.799   4.212   4.344
 3195TIP3   OH2 9548   6.328   2.460   0.038
 3195TIP3    H1 9549   6.238   2.462   0.071
 3195TIP3    H2 9550   6.376   2.519   0.096
 3196TIP3   OH2 9551   4.334   0.203   5.275
 3196TIP3    H1 9552   4.408   0.148   5.250
 3196TIP3    H2 9553   4.261   0.142   5.286
 3197TIP3   OH2 9554   2.168   2.345   1.754
 3197TIP3    H1 9555   2.215   2.261   1.760
 3197TIP3    H2 9556   2.146   2.366   1.844
 3198TIP3   OH2 9557   3.627   2.923   1.022
 3198TIP3    H1 9558   3.680   2.907   1.100
 3198TIP3    H2 9559   3.687   2.963   0.959
 3199TIP3   OH2 9560   2.674   5.625   1.727
 3199TIP3    H1 9561   2.753   5.584   1.762
 3199TIP3    H2 9562   2.679   5.716   1.756
 3200TIP3   OH2 9563   0.770   0.302   0.558
 3200TIP3    H1 9564   0.740   0.250   0.484
 3200TIP3    H2 9565   0.790   0.388   0.520
 3201TIP3   OH2 9566   3.714   0.952   0.117
 3201TIP3    H1 9567   3.764   1.025   0.082
 3201TIP3    H2 9568   3.622   0.979   0.108
 3202TIP3   OH2 9569   4.000   1.084   1.175
 3202TIP3    H1 9570   3.927   1.027   1.153
 3202TIP3    H2 9571   3.986   1.163   1.124
 3203TIP3   OH2 9572   3.225   5.835   4.063
 3203TIP3    H1 9573   3.173   5.863   3.987
 3203TIP3    H2 9574   3.313   5.865   4.044
 3204TIP3   OH2 9575   7.228   3.899   1.052
 3204TIP3    H1 9576   7.183   3.979   1.079
 3204TIP3    H2 9577   7.321   3.921   1.056
 3205TIP3   OH2 9578   2.592   6.271   2.483
 3205TIP3    H1 9579   2.603   6.366   2.473
 3205TIP3    H2 9580   2.679   6.239   2.508
 3206TIP3   OH2 9581   2.910   4.541   4.015
 3206TIP3    H1 9582   2.868   4.479   3.956
 3206TIP3    H2 9583   2.988   4.571   3.968
 3207TIP3   OH2 9584   4.674   5.651   1.042
 3207TIP3    H1 9585   4.680   5.706   0.964
 3207TIP3    H2 9586   4.580   5.640   1.056
 3208TIP3   OH2 9587   3.140   3.407   2.501
 3208TIP3    H1 9588   3.148   3.488   2.550
 3208TIP3    H2 9589   3.225   3.397   2.457
 3209TIP3   OH2 9590   7.081   6.707   3.227
 3209TIP3    H1 9591   7.113   6.779   3.281
 3209TIP3    H2 9592   7.128   6.630   3.257
 3210TIP3   OH2 9593   2.368   4.034   2.026
 3210TIP3    H1 9594   2.419   4.051   2.106
 3210TIP3    H2 9595   2.313   3.959   2.048
 3211TIP3   OH2 9596   6.472   0.431   1.519
 3211TIP3    H1 9597   6.557   0.439   1.562
 3211TIP3    H2 9598   6.465   0.338   1.496
 3212TIP3   OH2 9599   4.639   1.164   1.207
 3212TIP3    H1 9600   4.600   1.124   1.284
 3212TIP3    H2 9601   4.566   1.179   1.147
 3213TIP3   OH2 9602   0.858   4.731   3.307
 3213TIP3    H1 9603   0.947   4.768   3.310
 3213TIP3    H2 9604   0.834   4.734   3.214
 3214TIP3   OH2 9605   2.177   5.890   5.291
 3214TIP3    H1 9606   2.122   5.821   5.254
 3214TIP3    H2 9607   2.243   5.907   5.224
 3215TIP3   OH2 9608   0.209   4.700   4.798
 3215TIP3    H1 9609   0.219   4.699   4.893
 3215TIP3    H2 9610   0.248   4.618   4.769
 3216TIP3   OH2 9611   7.067   5.101   0.495
 3216TIP3    H1 9612   7.122   5.177   0.512
 3216TIP3    H2 9613   7.058   5.059   0.581
 3217TIP3   OH2 9614   5.027   5.838   3.113
 3217TIP3    H1 9615   4.934   5.815   3.115
 3217TIP3    H2 9616   5.070   5.766   3.159
 3218TIP3   OH2 9617   3.734   1.524   4.558
 3218TIP3    H1 9618   3.726   1.577   4.637
 3218TIP3    H2 9619   3.806   1.564   4.510
 3219TIP3   OH2 9620   2.946   3.675   0.891
 3219TIP3    H1 9621   2.920   3.729   0.965
 3219TIP3    H2 9622   3.041   3.664   0.901
 3220TIP3   OH2 9623   0.528   0.691   4.767
 3220TIP3    H1 9624   0.434   0.692   4.751
 3220TIP3    H2 9625   0.536   0.687   4.862
 3221TIP3   OH2 9626   7.182   2.973   3.095
 3221TIP3    H1 9627   7.128   3.048   3.075
 3221TIP3    H2 9628   7.122   2.898   3.092
 3222TIP3   OH2 9629   4.851   5.504   2.955
 3222TIP3    H1 9630   4.898   5.478   2.876
 3222TIP3    H2 9631   4.775   5.553   2.923
 3223TIP3   OH2 9632   1.706  -0.016   5.615
 3223TIP3    H1 9633   1.781   0.037   5.641
 3223TIP3    H2 9634   1.745  -0.098   5.584
 3224TIP3   OH2 9635   0.777   0.618   2.993
 3224TIP3    H1 9636   0.681   0.617   2.992
 3224TIP3    H2 9637   0.800   0.679   2.923
 3225TIP3   OH2 9638   6.090   6.069   2.825
 3225TIP3    H1 9639   6.113   5.977   2.813
 3225TIP3    H2 9640   6.067   6.075   2.918
 3226TIP3   OH2 9641   6.257   4.055   2.119
 3226TIP3    H1 9642   6.316   4.077   2.047
 3226TIP3    H2 9643   6.273   3.962   2.136
 3227TIP3   OH2 9644   5.209   4.452   4.572
 3227TIP3    H1 9645   5.125   4.412   4.549
 3227TIP3    H2 9646   5.261   4.446   4.492
 3228TIP3   OH2 9647   6.354   0.118   1.614
 3228TIP3    H1 9648   6.432   0.144   1.566
 3228TIP3    H2 9649   6.307   0.059   1.554
 3229TIP3   OH2 9650   4.415   6.304   4.934
 3229TIP3    H1 9651   4.415   6.222   4.984
 3229TIP3    H2 9652   4.335   6.300   4.882
 3230TIP3   OH2 9653   0.473   1.177   1.400
 3230TIP3    H1 9654   0.443   1.102   1.451
 3230TIP3    H2 9655   0.546   1.144   1.348
 3231TIP3   OH2 9656   2.601   1.261   5.074
 3231TIP3    H1 9657   2.558   1.300   4.997
 3231TIP3    H2 9658   2.564   1.308   5.148
 3232TIP3   OH2 9659   2.278   4.818   1.730
 3232TIP3    H1 9660   2.356   4.763   1.742
 3232TIP3    H2 9661   2.313   4.905   1.709
 3233TIP3   OH2 9662   4.032   4.835   5.376
 3233TIP3    H1 9663   4.011   4.755   5.327
 3233TIP3    H2 9664   4.124   4.824   5.401
 3234TIP3   OH2 9665   5.954   1.011   4.440
 3234TIP3    H1 9666   6.005   1.028   4.519
 3234TIP3    H2 9667   5.896   1.087   4.432
 3235TIP3   OH2 9668   6.692   1.355   4.555
 3235TIP3    H1 9669   6.689   1.444   4.520
 3235TIP3    H2 9670   6.667   1.300   4.482
 3236TIP3   OH2 9671   5.894   6.283   4.258
 3236TIP3    H1 9672   5.974   6.315   4.216
 3236TIP3    H2 9673   5.889   6.333   4.340
 3237TIP3   OH2 9674   2.666   2.822   2.861
 3237TIP3    H1 9675   2.694   2.914   2.859
 3237TIP3    H2 9676   2.745   2.773   2.836
 3238TIP3   OH2 9677   3.367   4.068   1.424
 3238TIP3    H1 9678   3.443   4.118   1.452
 3238TIP3    H2 9679   3.377   3.982   1.466
 3239TIP3   OH2 9680   0.304   5.365   2.520
 3239TIP3    H1 9681   0.295   5.317   2.437
 3239TIP3    H2 9682   0.398   5.363   2.539
 3240TIP3   OH2 9683   4.032   3.720   4.682
 3240TIP3    H1 9684   4.104   3.665   4.652
 3240TIP3    H2 9685   4.074   3.800   4.714
 3241TIP3   OH2 9686   5.356   3.161   5.213
 3241TIP3    H1 9687   5.445   3.126   5.216
 3241TIP3    H2 9688   5.356   3.232   5.278
 3242TIP3   OH2 9689   4.361   3.688   1.343
 3242TIP3    H1 9690   4.452   3.665   1.357
 3242TIP3    H2 9691   4.314   3.605   1.353
 3243TIP3   OH2 9692   6.386   3.621   5.311
 3243TIP3    H1 9693   6.352   3.606   5.222
 3243TIP3    H2 9694   6.427   3.707   5.306
 3244TIP3   OH2 9695   2.945   6.332   1.021
 3244TIP3    H1 9696   2.860   6.295   0.996
 3244TIP3    H2 9697   3.007   6.290   0.961
 3245TIP3   OH2 9698   1.596   3.366   2.860
 3245TIP3    H1 9699   1.543   3.313   2.800
 3245TIP3    H2 9700   1.629   3.303   2.924
 3246TIP3   OH2 9701   3.067   5.103   2.787
 3246TIP3    H1 9702   3.079   5.197   2.776
 3246TIP3    H2 9703   2.993   5.095   2.848
 3247TIP3   OH2 9704   1.266   5.704   5.312
 3247TIP3    H1 9705   1.311   5.638   5.366
 3247TIP3    H2 9706   1.204   5.745   5.372
 3248TIP3   OH2 9707   3.113   5.375   5.036
 3248TIP3    H1 9708   3.128   5.283   5.059
 3248TIP3    H2 9709   3.037   5.400   5.089
 3249TIP3   OH2 9710   4.917   1.502   0.037
 3249TIP3    H1 9711   4.931   1.524   0.130
 3249TIP3    H2 9712   4.836   1.549   0.014
 3250TIP3   OH2 9713   2.087   5.361   0.407
 3250TIP3    H1 9714   2.101   5.327   0.318
 3250TIP3    H2 9715   2.157   5.425   0.420
 3251TIP3   OH2 9716   3.700   0.827   5.633
 3251TIP3    H1 9717   3.685   0.900   5.693
 3251TIP3    H2 9718   3.621   0.773   5.642
 3252TIP3   OH2 9719   4.462   4.438   2.039
 3252TIP3    H1 9720   4.462   4.343   2.030
 3252TIP3    H2 9721   4.404   4.469   1.969
 3253TIP3   OH2 9722   6.450   6.509   0.908
 3253TIP3    H1 9723   6.395   6.455   0.965
 3253TIP3    H2 9724   6.405   6.594   0.905
 3254TIP3   OH2 9725   7.119   5.658   0.664
 3254TIP3    H1 9726   7.103   5.640   0.757
 3254TIP3    H2 9727   7.032   5.673   0.627
 3255TIP3   OH2 9728   5.613   1.771   4.369
 3255TIP3    H1 9729   5.630   1.862   4.395
 3255TIP3    H2 9730   5.692   1.724   4.395
 3256TIP3   OH2 9731   5.932   6.363   1.076
 3256TIP3    H1 9732   6.008   6.327   1.122
 3256TIP3    H2 9733   5.967   6.437   1.026
 3257TIP3   OH2 9734   0.696   0.887   4.679
 3257TIP3    H1 9735   0.630   0.829   4.717
 3257TIP3    H2 9736   0.676   0.973   4.718
 3258TIP3   OH2 9737   2.628   0.855   0.972
 3258TIP3    H1 9738   2.664   0.874   0.886
 3258TIP3    H2 9739   2.676   0.912   1.032
 3259TIP3   OH2 9740   1.757   5.769   4.589
 3259TIP3    H1 9741   1.820   5.830   4.628
 3259TIP3    H2 9742   1.793   5.682   4.609
 3260TIP3   OH2 9743   7.026   5.997   3.805
 3260TIP3    H1 9744   7.054   6.087   3.818
 3260TIP3    H2 9745   7.089   5.961   3.742
 3261TIP3   OH2 9746   6.544   4.691   3.438
 3261TIP3    H1 9747   6.634   4.702   3.408
 3261TIP3    H2 9748   6.533   4.759   3.505
 3262TIP3   OH2 9749   4.647   2.571   2.372
 3262TIP3    H1 9750   4.642   2.634   2.443
 3262TIP3    H2 9751   4.723   2.597   2.320
 3263TIP3   OH2 9752   1.759   2.789   0.231
 3263TIP3    H1 9753   1.788   2.879   0.247
 3263TIP3    H2 9754   1.840   2.742   0.208
 3264TIP3   OH2 9755   5.627   0.206   0.902
 3264TIP3    H1 9756   5.619   0.112   0.921
 3264TIP3    H2 9757   5.674   0.209   0.819
 3265TIP3   OH2 9758   4.985   0.403   2.921
 3265TIP3    H1 9759   5.028   0.439   2.844
 3265TIP3    H2 9760   4.892   0.403   2.899
 3266TIP3   OH2 9761   1.143   3.854   3.137
 3266TIP3    H1 9762   1.144   3.758   3.137
 3266TIP3    H2 9763   1.229   3.880   3.104
 3267TIP3   OH2 9764   4.687   0.731   1.787
 3267TIP3    H1 9765   4.730   0.776   1.715
 3267TIP3    H2 9766   4.600   0.769   1.791
 3268TIP3   OH2 9767   1.091   3.592   3.163
 3268TIP3    H1 9768   1.110   3.605   3.255
 3268TIP3    H2 9769   1.028   3.519   3.161
 3269TIP3   OH2 9770   4.229   0.444   5.154
 3269TIP3    H1 9771   4.324   0.443   5.164
 3269TIP3    H2 9772   4.202   0.526   5.196
 3270TIP3   OH2 9773   4.431   4.827   5.248
 3270TIP3    H1 9774   4.444   4.907   5.197
 3270TIP3    H2 9775   4.352   4.844   5.299
 3271TIP3   OH2 9776   2.316   5.910   5.766
 3271TIP3    H1 9777   2.359   5.911   5.852
 3271TIP3    H2 9778   2.223   5.923   5.785
 3272TIP3   OH2 9779   5.398   5.451   3.444
 3272TIP3    H1 9780   5.493   5.441   3.455
 3272TIP3    H2 9781   5.362   5.433   3.531
 3273TIP3   OH2 9782   1.932   2.001   0.553
 3273TIP3    H1 9783   1.942   2.095   0.565
 3273TIP3    H2 9784   1.937   1.964   0.641
 3274TIP3   OH2 9785   0.469   2.504   0.195
 3274TIP3    H1 9786   0.500   2.535   0.279
 3274TIP3    H2 9787   0.545   2.508   0.137
 3275TIP3   OH2 9788   0.232   5.761   5.372
 3275TIP3    H1 9789   0.211   5.831   5.434
 3275TIP3    H2 9790   0.220   5.800   5.286
 3276TIP3   OH2 9791   5.183   3.316   0.631
 3276TIP3    H1 9792   5.267   3.362   0.638
 3276TIP3    H2 9793   5.117   3.384   0.642
 3277TIP3   OH2 9794   1.701   5.106   1.568
 3277TIP3    H1 9795   1.789   5.123   1.599
 3277TIP3    H2 9796   1.705   5.018   1.531
 3278TIP3   OH2 9797   1.904   2.685   3.080
 3278TIP3    H1 9798   1.946   2.711   2.998
 3278TIP3    H2 9799   1.881   2.768   3.122
 3279TIP3   OH2 9800   6.699   2.173   3.712
 3279TIP3    H1 9801   6.779   2.202   3.756
 3279TIP3    H2 9802   6.726   2.153   3.623
 3280TIP3   OH2 9803   0.424   0.912   1.015
 3280TIP3    H1 9804   0.390   0.950   1.097
 3280TIP3    H2 9805   0.354   0.854   0.985
 3281TIP3   OH2 9806   3.686   3.818   4.400
 3281TIP3    H1 9807   3.630   3.895   4.386
 3281TIP3    H2 9808   3.754   3.849   4.460
 3282TIP3   OH2 9809   0.665   2.262   5.673
 3282TIP3    H1 9810   0.641   2.262   5.580
 3282TIP3    H2 9811   0.582   2.264   5.719
 3283TIP3   OH2 9812   6.290   4.712   5.410
 3283TIP3    H1 9813   6.356   4.782   5.413
 3283TIP3    H2 9814   6.218   4.744   5.464
 3284TIP3   OH2 9815   3.916   5.168   3.051
 3284TIP3    H1 9816   3.989   5.216   3.091
 3284TIP3    H2 9817   3.849   5.164   3.120
 3285TIP3   OH2 9818   6.932   3.246   5.417
 3285TIP3    H1 9819   6.854   3.192   5.409
 3285TIP3    H2 9820   6.900   3.336   5.411
 3286TIP3   OH2 9821   5.620   4.425   4.612
 3286TIP3    H1 9822   5.662   4.510   4.600
 3286TIP3    H2 9823   5.647   4.374   4.535
 3287TIP3   OH2 9824   3.210   2.772   5.056
 3287TIP3    H1 9825   3.230   2.833   5.127
 3287TIP3    H2 9826   3.277   2.704   5.064
 3288TIP3   OH2 9827   4.174   5.105   3.988
 3288TIP3    H1 9828   4.121   5.028   3.968
 3288TIP3    H2 9829   4.109   5.174   4.008
 3289TIP3   OH2 9830   4.360   1.281   3.580
 3289TIP3    H1 9831   4.444   1.313   3.614
 3289TIP3    H2 9832   4.294   1.327   3.632
 3290TIP3   OH2 9833   5.579   2.083   0.861
 3290TIP3    H1 9834   5.594   2.122   0.775
 3290TIP3    H2 9835   5.650   2.020   0.872
 3291TIP3   OH2 9836   0.909   6.268   2.997
 3291TIP3    H1 9837   0.858   6.189   2.976
 3291TIP3    H2 9838   0.955   6.289   2.916
 3292TIP3   OH2 9839   2.468   4.924   5.117
 3292TIP3    H1 9840   2.389   4.964   5.155
 3292TIP3    H2 9841   2.522   4.999   5.091
 3293TIP3   OH2 9842   4.286   5.398   4.732
 3293TIP3    H1 9843   4.303   5.474   4.675
 3293TIP3    H2 9844   4.206   5.359   4.696
 3294TIP3   OH2 9845   0.272   1.996   0.531
 3294TIP3    H1 9846   0.253   1.938   0.605
 3294TIP3    H2 9847   0.367   2.010   0.536
 3295TIP3   OH2 9848   4.551   2.933   0.720
 3295TIP3    H1 9849   4.556   2.939   0.624
 3295TIP3    H2 9850   4.626   2.877   0.743
 3296TIP3   OH2 9851   5.295   5.604   0.073
 3296TIP3    H1 9852   5.300   5.634  -0.018
 3296TIP3    H2 9853   5.385   5.579   0.095
 3297TIP3   OH2 9854   6.047   5.934   0.969
 3297TIP3    H1 9855   6.053   5.839   0.979
 3297TIP3    H2 9856   5.963   5.948   0.925
 3298TIP3   OH2 9857   2.414   5.207   2.108
 3298TIP3    H1 9858   2.347   5.274   2.123
 3298TIP3    H2 9859   2.410   5.151   2.186
 3299TIP3   OH2 9860   4.278   1.119   1.681
 3299TIP3    H1 9861   4.201   1.110   1.624
 3299TIP3    H2 9862   4.346   1.153   1.623
 3300TIP3   OH2 9863   0.890   6.110   4.574
 3300TIP3    H1 9864   0.844   6.041   4.622
 3300TIP3    H2 9865   0.901   6.181   4.637
 3301TIP3   OH2 9866   6.096   1.095  -0.007
 3301TIP3    H1 9867   6.176   1.092  -0.058
 3301TIP3    H2 9868   6.027   1.115  -0.070
 3302TIP3   OH2 9869   5.743   5.176   4.019
 3302TIP3    H1 9870   5.836   5.195   4.036
 3302TIP3    H2 9871   5.721   5.106   4.080
 3303TIP3   OH2 9872   1.948   5.417   5.082
 3303TIP3    H1 9873   1.861   5.453   5.062
 3303TIP3    H2 9874   1.973   5.371   5.002
 3304TIP3   OH2 9875   1.160   2.757   0.703
 3304TIP3    H1 9876   1.111   2.700   0.643
 3304TIP3    H2 9877   1.167   2.706   0.783
 3305TIP3   OH2 9878   4.055   1.327   2.005
 3305TIP3    H1 9879   4.121   1.267   1.973
 3305TIP3    H2 9880   3.973   1.297   1.965
 3306TIP3   OH2 9881   5.878   3.676   4.848
 3306TIP3    H1 9882   5.798   3.718   4.879
 3306TIP3    H2 9883   5.880   3.695   4.754
 3307TIP3   OH2 9884   4.448   4.444   1.530
 3307TIP3    H1 9885   4.446   4.416   1.439
 3307TIP3    H2 9886   4.536   4.420   1.561
 3308TIP3   OH2 9887   6.616   0.238   3.936
 3308TIP3    H1 9888   6.627   0.259   4.029
 3308TIP3    H2 9889   6.559   0.308   3.903
 3309TIP3   OH2 9890   3.616   4.274   1.464
 3309TIP3    H1 9891   3.693   4.290   1.518
 3309TIP3    H2 9892   3.651   4.232   1.385
 3310TIP3   OH2 9893   1.094   3.992   2.196
 3310TIP3    H1 9894   1.144   4.073   2.190
 3310TIP3    H2 9895   1.026   4.009   2.261
 3311TIP3   OH2 9896   1.792   6.330   3.928
 3311TIP3    H1 9897   1.699   6.311   3.936
 3311TIP3    H2 9898   1.801   6.367   3.840
 3312TIP3   OH2 9899   6.212   3.584   3.882
 3312TIP3    H1 9900   6.253   3.498   3.865
 3312TIP3    H2 9901   6.258   3.617   3.959
 3313TIP3   OH2 9902   3.867   1.352   5.649
 3313TIP3    H1 9903   3.918   1.358   5.730
 3313TIP3    H2 9904   3.798   1.418   5.659
 3314TIP3   OH2 9905   7.114   4.836   2.058
 3314TIP3    H1 9906   7.086   4.769   1.995
 3314TIP3    H2 9907   7.189   4.878   2.017
 3315TIP3   OH2 9908   7.106   5.308   1.869
 3315TIP3    H1 9909   7.099   5.220   1.907
 3315TIP3    H2 9910   7.141   5.293   1.781
 3316TIP3   OH2 9911   6.753   2.781   3.057
 3316TIP3    H1 9912   6.792   2.695   3.067
 3316TIP3    H2 9913   6.758   2.799   2.963
 3317TIP3   OH2 9914   6.558   3.740   1.277
 3317TIP3    H1 9915   6.556   3.648   1.302
 3317TIP3    H2 9916   6.556   3.788   1.360
 3318TIP3   OH2 9917   5.933   1.201   1.990
 3318TIP3    H1 9918   5.887   1.131   2.035
 3318TIP3    H2 9919   5.982   1.157   1.921
 3319TIP3   OH2 9920   3.950   5.423   0.830
 3319TIP3    H1 9921   4.034   5.386   0.857
 3319TIP3    H2 9922   3.970   5.475   0.752
 3320TIP3   OH2 9923   6.201   4.369   2.724
 3320TIP3    H1 9924   6.236   4.312   2.655
 3320TIP3    H2 9925   6.273   4.429   2.745
 3321TIP3   OH2 9926   1.952   4.291   1.390
 3321TIP3    H1 9927   1.960   4.233   1.466
 3321TIP3    H2 9928   1.892   4.360   1.419
 3322TIP3   OH2 9929   4.503   0.470   5.128
 3322TIP3    H1 9930   4.523   0.417   5.051
 3322TIP3    H2 9931   4.572   0.450   5.190
 3323TIP3   OH2 9932   0.931   1.180   5.707
 3323TIP3    H1 9933   0.957   1.271   5.716
 3323TIP3    H2 9934   0.840   1.183   5.677
 3324TIP3   OH2 9935   1.377   1.506   5.728
 3324TIP3    H1 9936   1.429   1.449   5.672
 3324TIP3    H2 9937   1.320   1.553   5.667
 3325TIP3   OH2 9938   5.865   2.712   4.763
 3325TIP3    H1 9939   5.931   2.767   4.721
 3325TIP3    H2 9940   5.783   2.737   4.719
 3326TIP3   OH2 9941   4.089   5.940   2.374
 3326TIP3    H1 9942   4.013   5.882   2.372
 3326TIP3    H2 9943   4.118   5.944   2.283
 3327TIP3   OH2 9944   4.039   1.985   0.566
 3327TIP3    H1 9945   3.972   2.025   0.620
 3327TIP3    H2 9946   4.112   1.968   0.626
 3328TIP3   OH2 9947   2.575   2.410   4.231
 3328TIP3    H1 9948   2.518   2.451   4.165
 3328TIP3    H2 9949   2.594   2.323   4.196
 3329TIP3   OH2 9950   0.431   2.298   3.717
 3329TIP3    H1 9951   0.493   2.274   3.648
 3329TIP3    H2 9952   0.455   2.242   3.791
 3330TIP3   OH2 9953   3.745   6.637   5.155
 3330TIP3    H1 9954   3.733   6.601   5.067
 3330TIP3    H2 9955   3.836   6.616   5.177
 3331TIP3   OH2 9956   3.289   0.334   4.009
 3331TIP3    H1 9957   3.228   0.406   4.024
 3331TIP3    H2 9958   3.366   0.374   3.969
 3332TIP3   OH2 9959   1.232   1.955   2.413
 3332TIP3    H1 9960   1.140   1.943   2.391
 3332TIP3    H2 9961   1.263   1.867   2.435
 3333TIP3   OH2 9962   5.676   5.663   3.255
 3333TIP3    H1 9963   5.770   5.669   3.240
 3333TIP3    H2 9964   5.647   5.592   3.197
 3334TIP3   OH2 9965   3.273   2.567   2.975
 3334TIP3    H1 9966   3.347   2.628   2.977
 3334TIP3    H2 9967   3.239   2.568   3.065
 3335TIP3   OH2 9968   0.836   6.344   5.809
 3335TIP3    H1 9969   0.856   6.268   5.754
 3335TIP3    H2 9970   0.750   6.374   5.779
 3336TIP3   OH2 9971   0.456   2.581   1.487
 3336TIP3    H1 9972   0.502   2.503   1.455
 3336TIP3    H2 9973   0.439   2.633   1.408
 3337TIP3   OH2 9974   2.307   0.143   4.152
 3337TIP3    H1 9975   2.363   0.220   4.163
 3337TIP3    H2 9976   2.226   0.166   4.199
 3338TIP3   OH2 9977   1.862   3.534   1.977
 3338TIP3    H1 9978   1.957   3.530   1.988
 3338TIP3    H2 9979   1.834   3.443   1.976
 3339TIP3   OH2 9980   6.906   1.052   2.692
 3339TIP3    H1 9981   6.811   1.054   2.689
 3339TIP3    H2 9982   6.932   1.009   2.611
 3340TIP3   OH2 9983   5.518   6.203   4.356
 3340TIP3    H1 9984   5.598   6.232   4.398
 3340TIP3    H2 9985   5.535   6.211   4.262
 3341TIP3   OH2 9986   0.291   4.377   5.272
 3341TIP3    H1 9987   0.352   4.448   5.292
 3341TIP3    H2 9988   0.212   4.421   5.242
 3342TIP3   OH2 9989   1.990   3.014   1.863
 3342TIP3    H1 9990   1.947   2.928   1.860
 3342TIP3    H2 9991   2.082   2.995   1.847
 3343TIP3   OH2 9992   4.002   2.681   0.687
 3343TIP3    H1 9993   3.987   2.706   0.778
 3343TIP3    H2 9994   4.096   2.668   0.680
 3344TIP3   OH2 9995   1.247   6.009   0.145
 3344TIP3    H1 9996   1.293   5.994   0.227
 3344TIP3    H2 9997   1.201   6.092   0.157
 3345TIP3   OH2 9998   3.903   2.372   4.331
 3345TIP3    H1 9999   3.977   2.427   4.357
 3345TIP3    H210000   3.875   2.408   4.247
 3346TIP3   OH210001   4.121   4.473   4.041
 3346TIP3    H110002   4.122   4.378   4.026
 3346TIP3    H210003   4.146   4.511   3.957
 3347TIP3   OH210004   5.730   1.770   0.281
 3347TIP3    H110005   5.648   1.723   0.296
 3347TIP3    H210006   5.783   1.751   0.358
 3348TIP3   OH210007   4.235   4.479   3.782
 3348TIP3    H110008   4.292   4.409   3.752
 3348TIP3    H210009   4.154   4.467   3.733
 3349TIP3   OH210010   4.284   2.211   1.434
 3349TIP3    H110011   4.209   2.152   1.422
 3349TIP3    H210012   4.251   2.282   1.488
 3350TIP3   OH210013   4.703   6.725   1.973
 3350TIP3    H110014   4.738   6.771   2.049
 3350TIP3    H210015   4.635   6.668   2.008
 3351TIP3   OH210016   1.808   6.667   4.070
 3351TIP3    H110017   1.811   6.698   3.980
 3351TIP3    H210018   1.719   6.636   4.083
 3352TIP3   OH210019   4.689   5.512   2.162
 3352TIP3    H110020   4.643   5.585   2.119
 3352TIP3    H210021   4.674   5.437   2.105
 3353TIP3   OH210022   2.239   2.621   2.643
 3353TIP3    H110023   2.176   2.669   2.696
 3353TIP3    H210024   2.321   2.670   2.652
 3354TIP3   OH210025   3.008   3.767   2.478
 3354TIP3    H110026   3.005   3.682   2.433
 3354TIP3    H210027   3.027   3.746   2.569
 3355TIP3   OH210028   3.450   2.259   0.812
 3355TIP3    H110029   3.431   2.342   0.855
 3355TIP3    H210030   3.373   2.242   0.758
 3356TIP3   OH210031   0.836   0.618   5.280
 3356TIP3    H110032   0.862   0.551   5.215
 3356TIP3    H210033   0.852   0.701   5.235
 3357TIP3   OH210034   5.368   1.875   3.922
 3357TIP3    H110035   5.346   1.807   3.860
 3357TIP3    H210036   5.348   1.837   4.008
 3358TIP3   OH210037   5.801   4.009   0.430
 3358TIP3    H110038   5.896   4.012   0.435
 3358TIP3    H210039   5.774   3.961   0.509
 3359TIP3   OH210040   0.523   4.663   1.921
 3359TIP3    H110041   0.440   4.684   1.878
 3359TIP3    H210042   0.588   4.664   1.851
 3360TIP3   OH210043   3.020   4.151   3.440
 3360TIP3    H110044   3.030   4.111   3.527
 3360TIP3    H210045   2.943   4.109   3.403
 3361TIP3   OH210046   1.375   3.432   1.898
 3361TIP3    H110047   1.444   3.384   1.852
 3361TIP3    H210048   1.352   3.504   1.839
 3362TIP3   OH210049   1.146   5.911   1.015
 3362TIP3    H110050   1.226   5.954   1.044
 3362TIP3    H210051   1.172   5.820   0.999
 3363TIP3   OH210052   1.185   1.543   3.233
 3363TIP3    H110053   1.186   1.625   3.183
 3363TIP3    H210054   1.100   1.503   3.211
 3364TIP3   OH210055   2.787   4.905   0.515
 3364TIP3    H110056   2.780   4.860   0.599
 3364TIP3    H210057   2.718   4.972   0.518
 3365TIP3   OH210058   0.998   5.416   4.781
 3365TIP3    H110059   0.924   5.420   4.721
 3365TIP3    H210060   0.968   5.464   4.859
 3366TIP3   OH210061   0.900   4.337   3.668
 3366TIP3    H110062   0.909   4.247   3.635
 3366TIP3    H210063   0.890   4.391   3.590
 3367TIP3   OH210064   7.018   4.729   4.323
 3367TIP3    H110065   7.005   4.636   4.338
 3367TIP3    H210066   7.112   4.742   4.330
 3368TIP3   OH210067   2.572   4.673   0.403
 3368TIP3    H110068   2.614   4.758   0.420
 3368TIP3    H210069   2.481   4.687   0.429
 3369TIP3   OH210070   1.354   4.850   5.050
 3369TIP3    H110071   1.364   4.931   5.101
 3369TIP3    H210072   1.425   4.794   5.080
 3370TIP3   OH210073   1.303   6.763   4.839
 3370TIP3    H110074   1.344   6.751   4.754
 3370TIP3    H210075   1.217   6.798   4.820
 3371TIP3   OH210076   6.821   4.046   5.221
 3371TIP3    H110077   6.749   4.072   5.163
 3371TIP3    H210078   6.790   3.966   5.263
 3372TIP3   OH210079   4.314   3.293   1.748
 3372TIP3    H110080   4.277   3.209   1.720
 3372TIP3    H210081   4.248   3.330   1.806
 3373TIP3   OH210082   0.147   4.138   5.029
 3373TIP3    H110083   0.220   4.137   5.091
 3373TIP3    H210084   0.072   4.111   5.081
 3374TIP3   OH210085   0.494   3.855   2.532
 3374TIP3    H110086   0.574   3.907   2.532
 3374TIP3    H210087   0.503   3.796   2.606
 3375TIP3   OH210088   2.223   3.477   2.887
 3375TIP3    H110089   2.190   3.566   2.873
 3375TIP3    H210090   2.231   3.470   2.983
 3376TIP3   OH210091   1.131   0.397   1.853
 3376TIP3    H110092   1.058   0.401   1.915
 3376TIP3    H210093   1.112   0.465   1.789
 3377TIP3   OH210094   1.058   4.551   3.813
 3377TIP3    H110095   1.126   4.532   3.878
 3377TIP3    H210096   1.006   4.470   3.809
 3378TIP3   OH210097   4.690   2.382   3.139
 3378TIP3    H110098   4.700   2.299   3.184
 3378TIP3    H210099   4.677   2.447   3.209
 3379TIP3   OH210100   2.968   6.559   2.007
 3379TIP3    H110101   2.934   6.626   1.948
 3379TIP3    H210102   3.052   6.593   2.037
 3380TIP3   OH210103   1.319   3.936   2.736
 3380TIP3    H110104   1.408   3.911   2.761
 3380TIP3    H210105   1.308   3.901   2.648
 3381TIP3   OH210106   2.652   6.794   2.539
 3381TIP3    H110107   2.632   6.766   2.628
 3381TIP3    H210108   2.608   6.730   2.483
 3382TIP3   OH210109   3.400   6.074   1.351
 3382TIP3    H110110   3.454   6.107   1.279
 3382TIP3    H210111   3.320   6.126   1.347
 3383TIP3   OH210112   3.274   0.968   1.193
 3383TIP3    H110113   3.305   1.057   1.211
 3383TIP3    H210114   3.308   0.916   1.266
 3384TIP3   OH210115   3.379   4.446   2.131
 3384TIP3    H110116   3.395   4.352   2.143
 3384TIP3    H210117   3.365   4.480   2.219
 3385TIP3   OH210118   0.962   1.470   0.623
 3385TIP3    H110119   0.963   1.465   0.719
 3385TIP3    H210120   0.940   1.381   0.594
 3386TIP3   OH210121   2.256   2.944   1.849
 3386TIP3    H110122   2.304   2.921   1.928
 3386TIP3    H210123   2.257   3.040   1.847
 3387TIP3   OH210124   0.459   0.915   1.451
 3387TIP3    H110125   0.512   0.877   1.381
 3387TIP3    H210126   0.458   0.848   1.519
 3388TIP3   OH210127   6.729   4.568   4.617
 3388TIP3    H110128   6.808   4.596   4.665
 3388TIP3    H210129   6.735   4.473   4.615
 3389TIP3   OH210130   0.931   6.534   2.216
 3389TIP3    H110131   0.995   6.548   2.146
 3389TIP3    H210132   0.983   6.522   2.295
 3390TIP3   OH210133   5.650   1.366   3.373
 3390TIP3    H110134   5.691   1.452   3.386
 3390TIP3    H210135   5.668   1.345   3.281
 3391TIP3   OH210136   6.191   3.779   2.617
 3391TIP3    H110137   6.196   3.853   2.678
 3391TIP3    H210138   6.101   3.781   2.584
 3392TIP3   OH210139   2.989   0.949   0.086
 3392TIP3    H110140   2.996   0.868   0.135
 3392TIP3    H210141   2.939   1.007   0.142
 3393TIP3   OH210142   3.069   2.383   3.934
 3393TIP3    H110143   3.122   2.368   3.855
 3393TIP3    H210144   3.066   2.478   3.943
 3394TIP3   OH210145   2.383   1.832   0.527
 3394TIP3    H110146   2.371   1.902   0.591
 3394TIP3    H210147   2.326   1.856   0.454
 3395TIP3   OH210148   2.440   4.533   4.464
 3395TIP3    H110149   2.527   4.494   4.475
 3395TIP3    H210150   2.454   4.627   4.475
 3396TIP3   OH210151   2.181   4.328   4.860
 3396TIP3    H110152   2.203   4.239   4.887
 3396TIP3    H210153   2.149   4.319   4.770
 3397TIP3   OH210154   5.274   4.497   3.174
 3397TIP3    H110155   5.247   4.425   3.117
 3397TIP3    H210156   5.214   4.492   3.248
 3398TIP3   OH210157   2.034   2.012   2.827
 3398TIP3    H110158   2.129   2.014   2.816
 3398TIP3    H210159   2.021   1.998   2.921
 3399TIP3   OH210160   6.842   4.428   0.861
 3399TIP3    H110161   6.746   4.430   0.863
 3399TIP3    H210162   6.868   4.443   0.952
 3400TIP3   OH210163   4.267   1.759   0.532
 3400TIP3    H110164   4.235   1.789   0.617
 3400TIP3    H210165   4.321   1.683   0.551
 3401TIP3   OH210166   0.747   0.449   5.017
 3401TIP3    H110167   0.835   0.452   4.980
 3401TIP3    H210168   0.689   0.471   4.944
 3402TIP3   OH210169   5.301   0.400   0.990
 3402TIP3    H110170   5.394   0.417   0.982
 3402TIP3    H210171   5.264   0.480   1.028
 3403TIP3   OH210172   3.767   4.535   3.047
 3403TIP3    H110173   3.709   4.606   3.076
 3403TIP3    H210174   3.818   4.513   3.125
 3404TIP3   OH210175   0.536   6.574   5.248
 3404TIP3    H110176   0.519   6.573   5.342
 3404TIP3    H210177   0.539   6.667   5.225
 3405TIP3   OH210178   0.145   3.759   2.343
 3405TIP3    H110179   0.188   3.685   2.386
 3405TIP3    H210180   0.072   3.781   2.401
 3406TIP3   OH210181   5.084   6.752   2.024
 3406TIP3    H110182   5.025   6.709   2.086
 3406TIP3    H210183   5.100   6.839   2.063
 3407TIP3   OH210184   7.123   1.470   5.528
 3407TIP3    H110185   7.128   1.374   5.521
 3407TIP3    H210186   7.048   1.494   5.474
 3408TIP3   OH210187   3.104   5.751   3.391
 3408TIP3    H110188   3.042   5.686   3.423
 3408TIP3    H210189   3.174   5.700   3.351
 3409TIP3   OH210190   3.259   5.638   2.460
 3409TIP3    H110191   3.287   5.724   2.492
 3409TIP3    H210192   3.169   5.652   2.429
 3410TIP3   OH210193   6.773   1.617   2.155
 3410TIP3    H110194   6.736   1.705   2.160
 3410TIP3    H210195   6.752   1.587   2.066
 3411TIP3   OH210196   5.125   6.384   4.898
 3411TIP3    H110197   5.093   6.413   4.983
 3411TIP3    H210198   5.054   6.332   4.861
 3412TIP3   OH210199   4.571   0.339   3.640
 3412TIP3    H110200   4.526   0.273   3.587
 3412TIP3    H210201   4.663   0.315   3.634
 3413TIP3   OH210202   4.448   5.279   3.540
 3413TIP3    H110203   4.535   5.246   3.517
 3413TIP3    H210204   4.457   5.308   3.631
 3414TIP3   OH210205   0.482   5.605   3.438
 3414TIP3    H110206   0.569   5.598   3.398
 3414TIP3    H210207   0.426   5.638   3.368
 3415TIP3   OH210208   0.498   4.400   3.020
 3415TIP3    H110209   0.464   4.447   2.944
 3415TIP3    H210210   0.480   4.458   3.094
 3416TIP3   OH210211   1.544   6.577   4.075
 3416TIP3    H110212   1.496   6.600   4.155
 3416TIP3    H210213   1.508   6.492   4.050
 3417TIP3   OH210214   5.295   2.893   4.725
 3417TIP3    H110215   5.264   2.961   4.785
 3417TIP3    H210216   5.365   2.849   4.773
 3418TIP3   OH210217   5.545   3.759   0.550
 3418TIP3    H110218   5.630   3.736   0.511
 3418TIP3    H210219   5.568   3.807   0.630
 3419TIP3   OH210220   6.840   3.514   5.372
 3419TIP3    H110221   6.836   3.600   5.330
 3419TIP3    H210222   6.758   3.506   5.420
 3420TIP3   OH210223   4.830   3.943   2.952
 3420TIP3    H110224   4.746   3.934   2.997
 3420TIP3    H210225   4.813   3.909   2.864
 3421TIP3   OH210226   4.616   0.059   1.070
 3421TIP3    H110227   4.550  -0.005   1.097
 3421TIP3    H210228   4.574   0.144   1.085
 3422TIP3   OH210229   6.040   0.693   2.261
 3422TIP3    H110230   6.033   0.598   2.266
 3422TIP3    H210231   5.971   0.725   2.320
 3423TIP3   OH210232   1.336   6.596   0.987
 3423TIP3    H110233   1.365   6.532   1.053
 3423TIP3    H210234   1.336   6.680   1.033
 3424TIP3   OH210235   5.334   5.350   4.146
 3424TIP3    H110236   5.318   5.444   4.138
 3424TIP3    H210237   5.306   5.328   4.235
 3425TIP3   OH210238   1.062   0.274   4.025
 3425TIP3    H110239   1.025   0.358   4.051
 3425TIP3    H210240   1.081   0.229   4.108
 3426TIP3   OH210241   5.592   4.030   4.426
 3426TIP3    H110242   5.687   4.020   4.437
 3426TIP3    H210243   5.557   4.024   4.515
 3427TIP3   OH210244   6.840   1.347   3.326
 3427TIP3    H110245   6.812   1.322   3.414
 3427TIP3    H210246   6.870   1.265   3.286
 3428TIP3   OH210247   6.083   1.102   1.779
 3428TIP3    H110248   6.130   1.035   1.729
 3428TIP3    H210249   6.056   1.167   1.713
 3429TIP3   OH210250   0.927   5.390   2.237
 3429TIP3    H110251   1.021   5.376   2.248
 3429TIP3    H210252   0.912   5.386   2.143
 3430TIP3   OH210253   4.735   3.120   1.552
 3430TIP3    H110254   4.643   3.102   1.534
 3430TIP3    H210255   4.734   3.192   1.614
 3431TIP3   OH210256   6.044   4.264   0.935
 3431TIP3    H110257   6.136   4.268   0.906
 3431TIP3    H210258   6.025   4.354   0.964
 3432TIP3   OH210259   6.871   4.633   2.387
 3432TIP3    H110260   6.952   4.582   2.391
 3432TIP3    H210261   6.803   4.572   2.413
 3433TIP3   OH210262   4.222   2.851   0.422
 3433TIP3    H110263   4.259   2.775   0.466
 3433TIP3    H210264   4.204   2.913   0.492
 3434TIP3   OH210265   3.984   5.796   0.093
 3434TIP3    H110266   4.068   5.753   0.109
 3434TIP3    H210267   3.930   5.771   0.168
 3435TIP3   OH210268   2.295   6.375   3.409
 3435TIP3    H110269   2.221   6.326   3.373
 3435TIP3    H210270   2.282   6.373   3.504
 3436TIP3   OH210271   6.861   3.185   4.741
 3436TIP3    H110272   6.880   3.263   4.689
 3436TIP3    H210273   6.847   3.116   4.676
 3437TIP3   OH210274   4.696   0.469   2.402
 3437TIP3    H110275   4.781   0.479   2.446
 3437TIP3    H210276   4.711   0.502   2.314
 3438TIP3   OH210277   4.034   4.530   2.436
 3438TIP3    H110278   4.058   4.606   2.383
 3438TIP3    H210279   3.969   4.484   2.383
 3439TIP3   OH210280   3.433   6.065   5.779
 3439TIP3    H110281   3.507   6.029   5.828
 3439TIP3    H210282   3.446   6.033   5.689
 3440TIP3   OH210283   0.593   2.184   0.214
 3440TIP3    H110284   0.671   2.134   0.189
 3440TIP3    H210285   0.519   2.131   0.185
 3441TIP3   OH210286   6.483   4.265   1.321
 3441TIP3    H110287   6.501   4.348   1.364
 3441TIP3    H210288   6.411   4.227   1.371
 3442TIP3   OH210289   5.763   2.332   3.473
 3442TIP3    H110290   5.706   2.286   3.535
 3442TIP3    H210291   5.777   2.269   3.402
 3443TIP3   OH210292   2.199   5.912   1.933
 3443TIP3    H110293   2.232   5.852   1.866
 3443TIP3    H210294   2.169   5.855   2.003
 3444TIP3   OH210295   0.509   6.240   0.599
 3444TIP3    H110296   0.491   6.324   0.555
 3444TIP3    H210297   0.588   6.207   0.556
 3445TIP3   OH210298   4.784   2.483   0.945
 3445TIP3    H110299   4.736   2.469   1.027
 3445TIP3    H210300   4.852   2.547   0.967
 3446TIP3   OH210301   2.089   1.923   1.292
 3446TIP3    H110302   2.041   1.997   1.254
 3446TIP3    H210303   2.078   1.853   1.229
 3447TIP3   OH210304   2.256   1.840   1.895
 3447TIP3    H110305   2.337   1.790   1.902
 3447TIP3    H210306   2.253   1.893   1.975
 3448TIP3   OH210307   6.321   1.440   3.968
 3448TIP3    H110308   6.323   1.435   4.064
 3448TIP3    H210309   6.406   1.476   3.945
 3449TIP3   OH210310   7.030   3.163   1.582
 3449TIP3    H110311   6.937   3.161   1.606
 3449TIP3    H210312   7.029   3.159   1.486
 3450TIP3   OH210313   1.307   3.101   0.335
 3450TIP3    H110314   1.287   3.166   0.402
 3450TIP3    H210315   1.285   3.017   0.375
 3451TIP3   OH210316   2.612   0.880   1.415
 3451TIP3    H110317   2.586   0.806   1.470
 3451TIP3    H210318   2.588   0.853   1.326
 3452TIP3   OH210319   5.966   2.436   1.952
 3452TIP3    H110320   5.972   2.440   2.047
 3452TIP3    H210321   6.005   2.518   1.922
 3453TIP3   OH210322   5.434   4.264   3.993
 3453TIP3    H110323   5.339   4.253   3.996
 3453TIP3    H210324   5.464   4.198   3.931
 3454TIP3   OH210325   4.912   4.734   5.722
 3454TIP3    H110326   4.922   4.800   5.654
 3454TIP3    H210327   4.988   4.677   5.712
 3455TIP3   OH210328   4.414   6.716   3.704
 3455TIP3    H110329   4.387   6.674   3.786
 3455TIP3    H210330   4.479   6.656   3.667
 3456TIP3   OH210331   3.466   1.428   1.587
 3456TIP3    H110332   3.400   1.378   1.540
 3456TIP3    H210333   3.549   1.389   1.561
 3457TIP3   OH210334   6.128   0.636   0.051
 3457TIP3    H110335   6.075   0.715   0.065
 3457TIP3    H210336   6.154   0.608   0.139
 3458TIP3   OH210337   3.946   3.085   4.089
 3458TIP3    H110338   4.021   3.026   4.093
 3458TIP3    H210339   3.909   3.085   4.177
 3459TIP3   OH210340   1.355   2.804   4.418
 3459TIP3    H110341   1.318   2.728   4.463
 3459TIP3    H210342   1.279   2.852   4.386
 3460TIP3   OH210343   4.403   4.908   3.430
 3460TIP3    H110344   4.466   4.840   3.453
 3460TIP3    H210345   4.348   4.917   3.508
 3461TIP3   OH210346   6.131   0.796   2.935
 3461TIP3    H110347   6.119   0.889   2.953
 3461TIP3    H210348   6.222   0.789   2.905
 3462TIP3   OH210349   5.905   4.750   2.128
 3462TIP3    H110350   5.870   4.749   2.038
 3462TIP3    H210351   5.997   4.726   2.118
 3463TIP3   OH210352   2.798   5.453   5.744
 3463TIP3    H110353   2.854   5.377   5.728
 3463TIP3    H210354   2.856   5.529   5.734
 3464TIP3   OH210355   4.103   2.536   4.147
 3464TIP3    H110356   4.098   2.465   4.082
 3464TIP3    H210357   4.179   2.587   4.121
 3465TIP3   OH210358   2.086   5.490   2.737
 3465TIP3    H110359   2.067   5.400   2.709
 3465TIP3    H210360   2.022   5.544   2.690
 3466TIP3   OH210361   4.503   0.794   3.474
 3466TIP3    H110362   4.491   0.883   3.440
 3466TIP3    H210363   4.581   0.799   3.528
 3467TIP3   OH210364   3.794   6.386   1.381
 3467TIP3    H110365   3.731   6.400   1.310
 3467TIP3    H210366   3.747   6.331   1.444
 3468TIP3   OH210367   2.796   2.818   3.368
 3468TIP3    H110368   2.755   2.850   3.287
 3468TIP3    H210369   2.724   2.817   3.432
 3469TIP3   OH210370   0.441   6.552   4.640
 3469TIP3    H110371   0.399   6.554   4.726
 3469TIP3    H210372   0.502   6.626   4.642
 3470TIP3   OH210373   1.214   2.273   2.771
 3470TIP3    H110374   1.140   2.293   2.827
 3470TIP3    H210375   1.291   2.297   2.823
 3471TIP3   OH210376   0.613   0.848   3.468
 3471TIP3    H110377   0.557   0.773   3.449
 3471TIP3    H210378   0.687   0.839   3.407
 3472TIP3   OH210379   2.069   0.120   1.995
 3472TIP3    H110380   2.011   0.128   1.919
 3472TIP3    H210381   2.102   0.030   1.991
 3473TIP3   OH210382   6.905   0.494   2.010
 3473TIP3    H110383   6.921   0.582   1.976
 3473TIP3    H210384   6.811   0.491   2.028
 3474TIP3   OH210385   0.685   0.170   5.057
 3474TIP3    H110386   0.714   0.251   5.016
 3474TIP3    H210387   0.589   0.176   5.057
 3475TIP3   OH210388   2.137   3.652   0.547
 3475TIP3    H110389   2.126   3.560   0.523
 3475TIP3    H210390   2.110   3.657   0.638
 3476TIP3   OH210391   5.333   2.134   0.987
 3476TIP3    H110392   5.402   2.103   0.928
 3476TIP3    H210393   5.257   2.078   0.967
 3477TIP3   OH210394   5.501   2.804   1.349
 3477TIP3    H110395   5.577   2.770   1.396
 3477TIP3    H210396   5.507   2.765   1.262
 3478TIP3   OH210397   3.971   4.110   2.619
 3478TIP3    H110398   3.939   4.137   2.705
 3478TIP3    H210399   4.045   4.168   2.602
 3479TIP3   OH210400   3.149   5.589   4.304
 3479TIP3    H110401   3.146   5.543   4.220
 3479TIP3    H210402   3.069   5.641   4.306
 3480TIP3   OH210403   3.957   2.062   5.602
 3480TIP3    H110404   3.914   2.148   5.611
 3480TIP3    H210405   3.888   1.999   5.621
 3481TIP3   OH210406   4.291   0.415   5.494
 3481TIP3    H110407   4.236   0.373   5.428
 3481TIP3    H210408   4.229   0.447   5.560
 3482TIP3   OH210409   1.885   0.519   2.405
 3482TIP3    H110410   1.914   0.500   2.494
 3482TIP3    H210411   1.929   0.601   2.383
 3483TIP3   OH210412   3.762   5.624   4.687
 3483TIP3    H110413   3.857   5.621   4.703
 3483TIP3    H210414   3.754   5.626   4.592
 3484TIP3   OH210415   6.263   2.483   5.314
 3484TIP3    H110416   6.176   2.517   5.293
 3484TIP3    H210417   6.248   2.421   5.385
 3485TIP3   OH210418   3.810   0.527   0.676
 3485TIP3    H110419   3.895   0.500   0.641
 3485TIP3    H210420   3.786   0.605   0.627
 3486TIP3   OH210421   4.139   4.065   2.217
 3486TIP3    H110422   4.122   4.159   2.207
 3486TIP3    H210423   4.068   4.022   2.170
 3487TIP3   OH210424   6.342   4.054   0.409
 3487TIP3    H110425   6.410   3.991   0.384
 3487TIP3    H210426   6.390   4.123   0.455
 3488TIP3   OH210427   3.527   2.063   2.085
 3488TIP3    H110428   3.469   2.110   2.025
 3488TIP3    H210429   3.497   2.089   2.172
 3489TIP3   OH210430   0.120   4.342   5.540
 3489TIP3    H110431   0.157   4.368   5.456
 3489TIP3    H210432   0.177   4.383   5.605
 3490TIP3   OH210433   2.804   6.108   2.050
 3490TIP3    H110434   2.803   6.014   2.068
 3490TIP3    H210435   2.839   6.115   1.961
 3491TIP3   OH210436   3.040   2.015   1.074
 3491TIP3    H110437   3.128   2.023   1.110
 3491TIP3    H210438   2.983   2.061   1.136
 3492TIP3   OH210439   0.273   3.424   1.449
 3492TIP3    H110440   0.241   3.435   1.538
 3492TIP3    H210441   0.362   3.391   1.459
 3493TIP3   OH210442   1.956   5.854   2.811
 3493TIP3    H110443   1.908   5.930   2.777
 3493TIP3    H210444   1.910   5.779   2.774
 3494TIP3   OH210445   4.638   1.887   4.002
 3494TIP3    H110446   4.566   1.937   4.041
 3494TIP3    H210447   4.625   1.897   3.908
 3495TIP3   OH210448   6.609   6.236   5.013
 3495TIP3    H110449   6.690   6.247   4.964
 3495TIP3    H210450   6.576   6.150   4.988
 3496TIP3   OH210451   3.248   3.555   1.093
 3496TIP3    H110452   3.277   3.605   1.017
 3496TIP3    H210453   3.195   3.484   1.057
 3497TIP3   OH210454   5.896   3.268   1.999
 3497TIP3    H110455   5.883   3.294   1.908
 3497TIP3    H210456   5.822   3.309   2.046
 3498TIP3   OH210457   5.572   3.683   1.491
 3498TIP3    H110458   5.618   3.694   1.408
 3498TIP3    H210459   5.618   3.613   1.536
 3499TIP3   OH210460   0.984   1.094   3.211
 3499TIP3    H110461   0.934   1.028   3.163
 3499TIP3    H210462   1.072   1.057   3.218
 3500TIP3   OH210463   1.755   5.401   2.914
 3500TIP3    H110464   1.789   5.489   2.932
 3500TIP3    H210465   1.769   5.389   2.820
 3501TIP3   OH210466   0.793   5.160   4.474
 3501TIP3    H110467   0.704   5.188   4.450
 3501TIP3    H210468   0.793   5.066   4.457
 3502TIP3   OH210469   2.601   0.508   3.298
 3502TIP3    H110470   2.637   0.591   3.330
 3502TIP3    H210471   2.543   0.478   3.369
 3503TIP3   OH210472   1.955   4.686   3.896
 3503TIP3    H110473   2.017   4.733   3.840
 3503TIP3    H210474   1.873   4.684   3.846
 3504TIP3   OH210475   2.428   2.979   5.154
 3504TIP3    H110476   2.347   2.930   5.168
 3504TIP3    H210477   2.414   3.062   5.200
 3505TIP3   OH210478   4.144   0.948   4.618
 3505TIP3    H110479   4.182   0.942   4.706
 3505TIP3    H210480   4.138   1.042   4.601
 3506TIP3   OH210481   6.677   1.626   4.443
 3506TIP3    H110482   6.725   1.626   4.360
 3506TIP3    H210483   6.663   1.719   4.463
 3507TIP3   OH210484   0.207   6.513   5.471
 3507TIP3    H110485   0.132   6.487   5.524
 3507TIP3    H210486   0.171   6.524   5.383
 3508TIP3   OH210487   0.044   2.759   3.960
 3508TIP3    H110488   0.083   2.826   3.904
 3508TIP3    H210489  -0.006   2.704   3.901
 3509TIP3   OH210490   2.352   1.565   4.706
 3509TIP3    H110491   2.268   1.570   4.661
 3509TIP3    H210492   2.413   1.608   4.647
 3510TIP3   OH210493   3.885   1.864   4.619
 3510TIP3    H110494   3.929   1.928   4.563
 3510TIP3    H210495   3.888   1.783   4.569
 3511TIP3   OH210496   3.717   5.967   4.903
 3511TIP3    H110497   3.639   5.913   4.914
 3511TIP3    H210498   3.711   6.001   4.814
 3512TIP3   OH210499   6.206   4.004   1.640
 3512TIP3    H110500   6.121   3.971   1.610
 3512TIP3    H210501   6.187   4.046   1.724
 3513TIP3   OH210502   2.907   1.057   5.250
 3513TIP3    H110503   2.885   0.985   5.309
 3513TIP3    H210504   2.847   1.127   5.275
 3514TIP3   OH210505   3.678   2.892   0.121
 3514TIP3    H110506   3.678   2.813   0.066
 3514TIP3    H210507   3.753   2.881   0.179
 3515TIP3   OH210508   1.146   5.887   4.730
 3515TIP3    H110509   1.187   5.918   4.650
 3515TIP3    H210510   1.190   5.804   4.749
 3516TIP3   OH210511   4.542   4.578   5.307
 3516TIP3    H110512   4.500   4.649   5.260
 3516TIP3    H210513   4.504   4.582   5.395
 3517TIP3   OH210514   0.381   6.583   3.035
 3517TIP3    H110515   0.336   6.635   2.969
 3517TIP3    H210516   0.474   6.602   3.022
 3518TIP3   OH210517   6.229   2.259   0.281
 3518TIP3    H110518   6.302   2.286   0.337
 3518TIP3    H210519   6.219   2.165   0.299
 3519TIP3   OH210520   0.069   6.551   2.265
 3519TIP3    H110521  -0.024   6.560   2.283
 3519TIP3    H210522   0.112   6.599   2.335
 3520TIP3   OH210523   2.774   0.020   2.847
 3520TIP3    H110524   2.716   0.064   2.909
 3520TIP3    H210525   2.859   0.062   2.860
 3521TIP3   OH210526   0.403   1.831   3.852
 3521TIP3    H110527   0.466   1.782   3.798
 3521TIP3    H210528   0.360   1.764   3.905
 3522TIP3   OH210529   0.361   2.890   4.789
 3522TIP3    H110530   0.456   2.881   4.781
 3522TIP3    H210531   0.325   2.819   4.737
 3523TIP3   OH210532   1.689   1.803   2.778
 3523TIP3    H110533   1.666   1.884   2.822
 3523TIP3    H210534   1.662   1.734   2.839
 3524TIP3   OH210535   4.083   1.656   4.771
 3524TIP3    H110536   4.124   1.730   4.726
 3524TIP3    H210537   3.989   1.674   4.767
 3525TIP3   OH210538   5.430   0.050   1.590
 3525TIP3    H110539   5.520   0.046   1.557
 3525TIP3    H210540   5.390   0.123   1.542
 3526TIP3   OH210541   4.018   5.716   4.718
 3526TIP3    H110542   4.102   5.741   4.756
 3526TIP3    H210543   3.976   5.799   4.694
 3527TIP3   OH210544   3.638   3.794   5.432
 3527TIP3    H110545   3.709   3.754   5.382
 3527TIP3    H210546   3.558   3.770   5.385
 3528TIP3   OH210547   0.806   5.669   2.252
 3528TIP3    H110548   0.862   5.592   2.255
 3528TIP3    H210549   0.842   5.723   2.181
 3529TIP3   OH210550   0.484   0.284   1.477
 3529TIP3    H110551   0.477   0.338   1.556
 3529TIP3    H210552   0.396   0.286   1.439
 3530TIP3   OH210553   3.908   1.284   3.411
 3530TIP3    H110554   3.852   1.361   3.413
 3530TIP3    H210555   3.971   1.301   3.341
 3531TIP3   OH210556  -0.010   1.969   4.968
 3531TIP3    H110557   0.012   1.936   4.881
 3531TIP3    H210558  -0.043   2.057   4.953
 3532TIP3   OH210559   6.268   2.055   5.877
 3532TIP3    H110560   6.198   2.093   5.930
 3532TIP3    H210561   6.346   2.104   5.902
 3533TIP3   OH210562   6.963   0.456   4.511
 3533TIP3    H110563   7.004   0.539   4.536
 3533TIP3    H210564   6.956   0.406   4.592
 3534TIP3   OH210565   3.388   0.196   0.115
 3534TIP3    H110566   3.359   0.146   0.191
 3534TIP3    H210567   3.321   0.263   0.103
 3535TIP3   OH210568   1.420   1.822   0.185
 3535TIP3    H110569   1.356   1.755   0.163
 3535TIP3    H210570   1.505   1.779   0.171
 3536TIP3   OH210571   6.901   3.815   3.846
 3536TIP3    H110572   6.977   3.847   3.796
 3536TIP3    H210573   6.862   3.748   3.790
 3537TIP3   OH210574   5.784   2.200   1.600
 3537TIP3    H110575   5.834   2.276   1.630
 3537TIP3    H210576   5.727   2.235   1.531
 3538TIP3   OH210577   6.602   1.897   5.715
 3538TIP3    H110578   6.631   1.988   5.729
 3538TIP3    H210579   6.514   1.905   5.680
 3539TIP3   OH210580   2.277   4.788   3.441
 3539TIP3    H110581   2.296   4.879   3.464
 3539TIP3    H210582   2.358   4.741   3.458
 3540TIP3   OH210583   4.858   5.860   2.365
 3540TIP3    H110584   4.928   5.802   2.395
 3540TIP3    H210585   4.898   5.948   2.365
 3541TIP3   OH210586   6.033   4.294   0.146
 3541TIP3    H110587   6.089   4.219   0.124
 3541TIP3    H210588   6.002   4.275   0.235
 3542TIP3   OH210589   4.058   5.115   1.956
 3542TIP3    H110590   4.050   5.105   2.051
 3542TIP3    H210591   4.145   5.154   1.943
 3543TIP3   OH210592   1.129   4.644   5.018
 3543TIP3    H110593   1.220   4.666   5.039
 3543TIP3    H210594   1.127   4.634   4.923
 3544TIP3   OH210595   0.907   0.503   3.639
 3544TIP3    H110596   0.911   0.543   3.726
 3544TIP3    H210597   0.956   0.563   3.583
 3545TIP3   OH210598   0.775   5.486   2.876
 3545TIP3    H110599   0.682   5.469   2.891
 3545TIP3    H210600   0.820   5.430   2.939
 3546TIP3   OH210601   2.669   1.740   2.948
 3546TIP3    H110602   2.580   1.710   2.931
 3546TIP3    H210603   2.664   1.835   2.943
 3547TIP3   OH210604   6.276   3.802   0.299
 3547TIP3    H110605   6.274   3.710   0.275
 3547TIP3    H210606   6.361   3.833   0.267
 3548TIP3   OH210607   4.995   3.656   4.414
 3548TIP3    H110608   5.040   3.728   4.458
 3548TIP3    H210609   4.903   3.682   4.414
 3549TIP3   OH210610   2.487   6.642   2.396
 3549TIP3    H110611   2.419   6.706   2.419
 3549TIP3    H210612   2.451   6.594   2.321
 3550TIP3   OH210613   0.160   6.035   0.560
 3550TIP3    H110614   0.091   5.992   0.510
 3550TIP3    H210615   0.206   6.088   0.494
 3551TIP3   OH210616   0.376   0.145   5.099
 3551TIP3    H110617   0.338   0.059   5.119
 3551TIP3    H210618   0.339   0.203   5.165
 3552TIP3   OH210619   4.157   5.747   1.079
 3552TIP3    H110620   4.136   5.770   1.170
 3552TIP3    H210621   4.138   5.654   1.073
 3553TIP3   OH210622   0.318   4.950   4.271
 3553TIP3    H110623   0.361   4.991   4.196
 3553TIP3    H210624   0.339   4.857   4.264
 3554TIP3   OH210625   5.820   1.988   0.528
 3554TIP3    H110626   5.849   2.016   0.615
 3554TIP3    H210627   5.801   1.894   0.538
 3555TIP3   OH210628   2.807   5.383   4.103
 3555TIP3    H110629   2.835   5.416   4.189
 3555TIP3    H210630   2.875   5.412   4.042
 3556TIP3   OH210631   5.167   5.958   1.241
 3556TIP3    H110632   5.131   5.880   1.284
 3556TIP3    H210633   5.237   5.924   1.185
 3557TIP3   OH210634   5.844   1.431   3.809
 3557TIP3    H110635   5.870   1.339   3.821
 3557TIP3    H210636   5.925   1.477   3.789
 3558TIP3   OH210637   1.428   2.698   2.725
 3558TIP3    H110638   1.342   2.686   2.765
 3558TIP3    H210639   1.490   2.683   2.796
 3559TIP3   OH210640   6.617   3.528   0.936
 3559TIP3    H110641   6.573   3.611   0.957
 3559TIP3    H210642   6.642   3.537   0.844
 3560TIP3   OH210643   1.576   4.455   3.758
 3560TIP3    H110644   1.605   4.455   3.666
 3560TIP3    H210645   1.511   4.385   3.762
 3561TIP3   OH210646   1.698   1.925   1.095
 3561TIP3    H110647   1.749   1.845   1.105
 3561TIP3    H210648   1.725   1.979   1.169
 3562TIP3   OH210649   2.875   2.696   4.612
 3562TIP3    H110650   2.867   2.636   4.687
 3562TIP3    H210651   2.812   2.663   4.548
 3563TIP3   OH210652   1.826   4.946   3.070
 3563TIP3    H110653   1.788   4.864   3.102
 3563TIP3    H210654   1.859   4.924   2.983
 3564TIP3   OH210655   3.163   2.340   3.692
 3564TIP3    H110656   3.105   2.320   3.619
 3564TIP3    H210657   3.223   2.406   3.658
 3565TIP3   OH210658   1.900   0.243   0.211
 3565TIP3    H110659   1.940   0.310   0.266
 3565TIP3    H210660   1.856   0.292   0.141
 3566TIP3   OH210661   5.770   3.791   2.061
 3566TIP3    H110662   5.751   3.788   2.155
 3566TIP3    H210663   5.713   3.724   2.023
 3567TIP3   OH210664   2.199   3.492   0.066
 3567TIP3    H110665   2.251   3.435   0.122
 3567TIP3    H210666   2.112   3.493   0.107
 3568TIP3   OH210667   5.145   2.906   3.031
 3568TIP3    H110668   5.075   2.845   3.052
 3568TIP3    H210669   5.107   2.993   3.046
 3569TIP3   OH210670   6.883   2.007   3.184
 3569TIP3    H110671   6.874   2.086   3.131
 3569TIP3    H210672   6.964   1.966   3.153
 3570TIP3   OH210673   0.546   2.114   3.517
 3570TIP3    H110674   0.636   2.086   3.501
 3570TIP3    H210675   0.497   2.085   3.440
 3571TIP3   OH210676   0.391   6.491   2.616
 3571TIP3    H110677   0.422   6.432   2.685
 3571TIP3    H210678   0.323   6.441   2.570
 3572TIP3   OH210679   0.757   4.505   2.881
 3572TIP3    H110680   0.751   4.413   2.905
 3572TIP3    H210681   0.668   4.528   2.853
 3573TIP3   OH210682   0.030   0.556   4.798
 3573TIP3    H110683  -0.022   0.586   4.723
 3573TIP3    H210684   0.082   0.484   4.763
 3574TIP3   OH210685   1.577   6.590   1.878
 3574TIP3    H110686   1.667   6.561   1.898
 3574TIP3    H210687   1.580   6.617   1.786
 3575TIP3   OH210688   2.008   0.126   2.647
 3575TIP3    H110689   2.046   0.137   2.734
 3575TIP3    H210690   2.072   0.163   2.587
 3576TIP3   OH210691   4.700   1.444   2.957
 3576TIP3    H110692   4.649   1.443   2.876
 3576TIP3    H210693   4.706   1.352   2.983
 3577TIP3   OH210694   6.768   2.498   1.688
 3577TIP3    H110695   6.683   2.492   1.732
 3577TIP3    H210696   6.809   2.414   1.705
 3578TIP3   OH210697   5.465   2.961   0.118
 3578TIP3    H110698   5.539   2.962   0.056
 3578TIP3    H210699   5.467   3.047   0.158
 3579TIP3   OH210700   4.258   4.503   5.869
 3579TIP3    H110701   4.167   4.490   5.896
 3579TIP3    H210702   4.287   4.417   5.840
 3580TIP3   OH210703   1.871   2.266   0.651
 3580TIP3    H110704   1.817   2.333   0.609
 3580TIP3    H210705   1.835   2.258   0.739
 3581TIP3   OH210706   1.929   5.461   1.642
 3581TIP3    H110707   1.841   5.426   1.653
 3581TIP3    H210708   1.986   5.393   1.677
 3582TIP3   OH210709   4.891   2.624   2.236
 3582TIP3    H110710   4.941   2.625   2.154
 3582TIP3    H210711   4.948   2.667   2.299
 3583TIP3   OH210712   5.877   5.797   4.087
 3583TIP3    H110713   5.888   5.889   4.111
 3583TIP3    H210714   5.789   5.775   4.117
 3584TIP3   OH210715   7.129   4.236   2.472
 3584TIP3    H110716   7.107   4.169   2.407
 3584TIP3    H210717   7.199   4.196   2.524
 3585TIP3   OH210718   6.438   2.654   4.120
 3585TIP3    H110719   6.359   2.675   4.170
 3585TIP3    H210720   6.434   2.713   4.045
 3586TIP3   OH210721   4.253   3.039   2.265
 3586TIP3    H110722   4.166   3.002   2.279
 3586TIP3    H210723   4.241   3.101   2.193
 3587TIP3   OH210724   5.246   2.022   3.561
 3587TIP3    H110725   5.337   1.998   3.581
 3587TIP3    H210726   5.194   1.973   3.624
 3588TIP3   OH210727   5.732   2.901   0.440
 3588TIP3    H110728   5.651   2.877   0.395
 3588TIP3    H210729   5.787   2.823   0.436
 3589TIP3   OH210730   3.379   3.018   3.819
 3589TIP3    H110731   3.358   2.980   3.734
 3589TIP3    H210732   3.300   3.065   3.845
 3590TIP3   OH210733   0.278   0.648   2.116
 3590TIP3    H110734   0.280   0.744   2.112
 3590TIP3    H210735   0.185   0.626   2.122
 3591TIP3   OH210736   0.974   1.395   2.545
 3591TIP3    H110737   0.918   1.413   2.470
 3591TIP3    H210738   0.915   1.355   2.609
 3592TIP3   OH210739   0.482   2.227   2.710
 3592TIP3    H110740   0.540   2.174   2.764
 3592TIP3    H210741   0.537   2.259   2.639
 3593TIP3   OH210742   2.241   5.379   5.128
 3593TIP3    H110743   2.275   5.368   5.217
 3593TIP3    H210744   2.146   5.379   5.140
 3594TIP3   OH210745   7.124   4.477   5.449
 3594TIP3    H110746   7.183   4.423   5.501
 3594TIP3    H210747   7.180   4.520   5.385
 3595TIP3   OH210748   6.859   6.676   4.724
 3595TIP3    H110749   6.926   6.707   4.785
 3595TIP3    H210750   6.906   6.655   4.644
 3596TIP3   OH210751   3.158   5.940   3.829
 3596TIP3    H110752   3.147   5.871   3.764
 3596TIP3    H210753   3.209   6.007   3.784
 3597TIP3   OH210754   6.419   1.212   4.135
 3597TIP3    H110755   6.405   1.282   4.071
 3597TIP3    H210756   6.451   1.138   4.083
 3598TIP3   OH210757   4.996   4.608   4.722
 3598TIP3    H110758   4.946   4.568   4.651
 3598TIP3    H210759   5.068   4.652   4.678
 3599TIP3   OH210760   0.700   6.408   2.823
 3599TIP3    H110761   0.610   6.380   2.841
 3599TIP3    H210762   0.712   6.485   2.878
 3600TIP3   OH210763   4.293   0.377   0.451
 3600TIP3    H110764   4.359   0.328   0.403
 3600TIP3    H210765   4.214   0.371   0.397
 3601TIP3   OH210766   1.008   2.792   3.645
 3601TIP3    H110767   1.034   2.701   3.659
 3601TIP3    H210768   1.069   2.843   3.699
 3602TIP3   OH210769   2.285   1.552   1.678
 3602TIP3    H110770   2.322   1.464   1.669
 3602TIP3    H210771   2.206   1.539   1.731
 3603TIP3   OH210772   1.546   3.665   0.452
 3603TIP3    H110773   1.629   3.713   0.445
 3603TIP3    H210774   1.480   3.726   0.419
 3604TIP3   OH210775   2.102   1.034   2.119
 3604TIP3    H110776   2.011   1.063   2.109
 3604TIP3    H210777   2.130   1.073   2.202
 3605TIP3   OH210778   6.300   2.993   2.120
 3605TIP3    H110779   6.357   2.963   2.049
 3605TIP3    H210780   6.348   3.066   2.159
 3606TIP3   OH210781   3.015   1.756   2.558
 3606TIP3    H110782   3.084   1.693   2.576
 3606TIP3    H210783   2.966   1.762   2.639
 3607TIP3   OH210784   5.881   5.483   3.480
 3607TIP3    H110785   5.940   5.408   3.490
 3607TIP3    H210786   5.797   5.451   3.513
 3608TIP3   OH210787   5.855   0.415   2.058
 3608TIP3    H110788   5.767   0.451   2.048
 3608TIP3    H210789   5.858   0.343   1.994
 3609TIP3   OH210790   0.701   6.227   1.749
 3609TIP3    H110791   0.743   6.264   1.672
 3609TIP3    H210792   0.712   6.294   1.817
 3610TIP3   OH210793   0.788   2.960   3.168
 3610TIP3    H110794   0.807   2.995   3.255
 3610TIP3    H210795   0.743   2.878   3.185
 3611TIP3   OH210796   0.854   5.753   2.923
 3611TIP3    H110797   0.820   5.667   2.897
 3611TIP3    H210798   0.892   5.790   2.843
 3612TIP3   OH210799   5.215   2.554   1.157
 3612TIP3    H110800   5.247   2.575   1.245
 3612TIP3    H210801   5.293   2.526   1.110
 3613TIP3   OH210802   3.526   1.030   5.816
 3613TIP3    H110803   3.439   1.063   5.840
 3613TIP3    H210804   3.562   0.997   5.897
 3614TIP3   OH210805   4.407   0.386   4.427
 3614TIP3    H110806   4.358   0.320   4.378
 3614TIP3    H210807   4.419   0.349   4.514
 3615TIP3   OH210808   4.323   3.213   0.601
 3615TIP3    H110809   4.259   3.147   0.575
 3615TIP3    H210810   4.369   3.235   0.520
 3616TIP3   OH210811   3.956   1.925   3.772
 3616TIP3    H110812   3.902   1.891   3.701
 3616TIP3    H210813   3.940   1.866   3.846
 3617TIP3   OH210814   3.095   0.024   5.713
 3617TIP3    H110815   3.189   0.018   5.732
 3617TIP3    H210816   3.080   0.118   5.700
 3618TIP3   OH210817   0.395   1.261   0.973
 3618TIP3    H110818   0.339   1.287   0.899
 3618TIP3    H210819   0.464   1.209   0.932
 3619TIP3   OH210820   0.257   5.007   2.575
 3619TIP3    H110821   0.199   4.970   2.508
 3619TIP3    H210822   0.345   4.982   2.546
 3620TIP3   OH210823   2.437   5.843   3.423
 3620TIP3    H110824   2.345   5.844   3.396
 3620TIP3    H210825   2.460   5.936   3.431
 3621TIP3   OH210826   1.621   4.604   3.347
 3621TIP3    H110827   1.563   4.666   3.393
 3621TIP3    H210828   1.561   4.542   3.307
 3622TIP3   OH210829   2.558   0.805   0.398
 3622TIP3    H110830   2.542   0.845   0.312
 3622TIP3    H210831   2.488   0.740   0.408
 3623TIP3   OH210832   3.374   2.270   2.698
 3623TIP3    H110833   3.324   2.189   2.684
 3623TIP3    H210834   3.307   2.338   2.701
 3624TIP3   OH210835   0.177   3.588   0.415
 3624TIP3    H110836   0.253   3.628   0.374
 3624TIP3    H210837   0.191   3.600   0.509
 3625TIP3   OH210838   5.952   1.523   5.399
 3625TIP3    H110839   6.007   1.599   5.379
 3625TIP3    H210840   5.909   1.546   5.482
 3626TIP3   OH210841   0.041   5.598   3.936
 3626TIP3    H110842   0.088   5.526   3.894
 3626TIP3    H210843  -0.045   5.599   3.893
 3627TIP3   OH210844   5.651   0.773   5.709
 3627TIP3    H110845   5.636   0.682   5.736
 3627TIP3    H210846   5.677   0.817   5.790
 3628TIP3   OH210847   3.642   0.106   2.654
 3628TIP3    H110848   3.723   0.055   2.651
 3628TIP3    H210849   3.584   0.063   2.592
 3629TIP3   OH210850   6.068   3.205   2.325
 3629TIP3    H110851   6.162   3.192   2.338
 3629TIP3    H210852   6.062   3.287   2.277
 3630TIP3   OH210853   1.330   5.831   1.972
 3630TIP3    H110854   1.277   5.878   1.908
 3630TIP3    H210855   1.383   5.771   1.920
 3631TIP3   OH210856   3.339   5.530   3.843
 3631TIP3    H110857   3.274   5.600   3.848
 3631TIP3    H210858   3.388   5.548   3.762
 3632TIP3   OH210859   0.566   5.791   3.889
 3632TIP3    H110860   0.535   5.799   3.799
 3632TIP3    H210861   0.627   5.717   3.888
 3633TIP3   OH210862   3.776   5.751   4.219
 3633TIP3    H110863   3.718   5.824   4.197
 3633TIP3    H210864   3.757   5.731   4.310
 3634TIP3   OH210865   6.764   6.579   1.474
 3634TIP3    H110866   6.830   6.539   1.418
 3634TIP3    H210867   6.696   6.511   1.484
 3635TIP3   OH210868   0.854   3.185   0.109
 3635TIP3    H110869   0.928   3.139   0.148
 3635TIP3    H210870   0.890   3.230   0.032
 3636TIP3   OH210871   3.764   3.259   0.586
 3636TIP3    H110872   3.850   3.301   0.576
 3636TIP3    H210873   3.769   3.180   0.533
 3637TIP3   OH210874   1.562   5.814   1.195
 3637TIP3    H110875   1.521   5.861   1.268
 3637TIP3    H210876   1.576   5.726   1.230
 3638TIP3   OH210877   6.104   5.130   0.430
 3638TIP3    H110878   6.188   5.162   0.399
 3638TIP3    H210879   6.065   5.086   0.354
 3639TIP3   OH210880   3.279   1.636   1.776
 3639TIP3    H110881   3.308   1.554   1.737
 3639TIP3    H210882   3.214   1.671   1.715
 3640TIP3   OH210883   2.091   2.683   0.554
 3640TIP3    H110884   2.012   2.640   0.522
 3640TIP3    H210885   2.063   2.772   0.576
 3641TIP3   OH210886   1.283   1.888   5.444
 3641TIP3    H110887   1.311   1.849   5.362
 3641TIP3    H210888   1.330   1.971   5.449
 3642TIP3   OH210889   6.055   3.266   0.425
 3642TIP3    H110890   5.991   3.266   0.355
 3642TIP3    H210891   6.046   3.180   0.467
 3643TIP3   OH210892   4.071   2.486   0.411
 3643TIP3    H110893   4.037   2.459   0.497
 3643TIP3    H210894   4.149   2.432   0.398
 3644TIP3   OH210895   1.864   2.809   5.038
 3644TIP3    H110896   1.940   2.759   5.012
 3644TIP3    H210897   1.796   2.744   5.055
 3645TIP3   OH210898  -0.006   6.765   0.809
 3645TIP3    H110899   0.062   6.779   0.874
 3645TIP3    H210900   0.040   6.767   0.725
 3646TIP3   OH210901   1.665   1.690   3.720
 3646TIP3    H110902   1.587   1.736   3.751
 3646TIP3    H210903   1.728   1.697   3.792
 3647TIP3   OH210904   0.329   0.252   0.402
 3647TIP3    H110905   0.310   0.173   0.452
 3647TIP3    H210906   0.275   0.244   0.323
 3648TIP3   OH210907   0.062   5.988   4.959
 3648TIP3    H110908   0.088   5.972   5.049
 3648TIP3    H210909   0.141   5.970   4.907
 3649TIP3   OH210910   3.907   3.650   0.222
 3649TIP3    H110911   3.828   3.621   0.268
 3649TIP3    H210912   3.948   3.569   0.191
 3650TIP3   OH210913   5.824   2.774   5.916
 3650TIP3    H110914   5.783   2.769   5.830
 3650TIP3    H210915   5.882   2.850   5.910
 3651TIP3   OH210916   5.221   5.256   1.153
 3651TIP3    H110917   5.243   5.251   1.060
 3651TIP3    H210918   5.172   5.175   1.170
 3652TIP3   OH210919   3.909   5.306   2.318
 3652TIP3    H110920   3.864   5.335   2.239
 3652TIP3    H210921   3.914   5.383   2.374
 3653TIP3   OH210922   0.011   2.290   0.135
 3653TIP3    H110923  -0.060   2.229   0.116
 3653TIP3    H210924   0.082   2.264   0.076
 3654TIP3   OH210925   4.472   0.850   2.349
 3654TIP3    H110926   4.433   0.870   2.264
 3654TIP3    H210927   4.442   0.762   2.369
 3655TIP3   OH210928   5.770   3.139   2.660
 3655TIP3    H110929   5.807   3.096   2.584
 3655TIP3    H210930   5.806   3.228   2.657
 3656TIP3   OH210931   6.803   5.463   0.485
 3656TIP3    H110932   6.820   5.389   0.543
 3656TIP3    H210933   6.840   5.435   0.401
 3657TIP3   OH210934   6.872   2.581   0.696
 3657TIP3    H110935   6.961   2.580   0.662
 3657TIP3    H210936   6.854   2.673   0.715
 3658TIP3   OH210937   3.965   0.040   4.906
 3658TIP3    H110938   3.979   0.098   4.980
 3658TIP3    H210939   3.870   0.033   4.897
 3659TIP3   OH210940   2.217   4.607   3.245
 3659TIP3    H110941   2.244   4.658   3.321
 3659TIP3    H210942   2.175   4.671   3.187
 3660TIP3   OH210943   1.763   4.366   3.558
 3660TIP3    H110944   1.727   4.282   3.530
 3660TIP3    H210945   1.831   4.343   3.621
 3661TIP3   OH210946   0.193   4.212   1.647
 3661TIP3    H110947   0.247   4.172   1.716
 3661TIP3    H210948   0.191   4.305   1.669
 3662TIP3   OH210949   5.509   0.764   0.951
 3662TIP3    H110950   5.563   0.688   0.932
 3662TIP3    H210951   5.570   0.837   0.957
 3663TIP3   OH210952   0.808   3.916   4.945
 3663TIP3    H110953   0.721   3.919   4.986
 3663TIP3    H210954   0.862   3.974   4.999
 3664TIP3   OH210955   0.916   2.172   0.641
 3664TIP3    H110956   0.876   2.232   0.578
 3664TIP3    H210957   0.878   2.086   0.619
 3665TIP3   OH210958   4.434   3.917   0.988
 3665TIP3    H110959   4.508   3.859   0.970
 3665TIP3    H210960   4.373   3.864   1.039
 3666TIP3   OH210961   5.783   3.508   4.597
 3666TIP3    H110962   5.857   3.552   4.556
 3666TIP3    H210963   5.806   3.503   4.690
 3667TIP3   OH210964   0.629   4.094   1.611
 3667TIP3    H110965   0.612   4.012   1.657
 3667TIP3    H210966   0.689   4.070   1.540
 3668TIP3   OH210967   2.904   5.888   0.931
 3668TIP3    H110968   2.973   5.886   0.997
 3668TIP3    H210969   2.861   5.804   0.939
 3669TIP3   OH210970   5.021   1.708   0.524
 3669TIP3    H110971   5.026   1.681   0.615
 3669TIP3    H210972   4.945   1.767   0.520
 3670TIP3   OH210973   3.012   5.153   0.075
 3670TIP3    H110974   2.957   5.165  -0.002
 3670TIP3    H210975   3.076   5.224   0.069
 3671TIP3   OH210976   0.045   2.322   0.814
 3671TIP3    H110977  -0.028   2.323   0.876
 3671TIP3    H210978   0.100   2.249   0.842
 3672TIP3   OH210979   0.065   1.198   3.421
 3672TIP3    H110980  -0.003   1.189   3.487
 3672TIP3    H210981   0.117   1.274   3.448
 3673TIP3   OH210982   6.384   4.842   4.415
 3673TIP3    H110983   6.388   4.931   4.381
 3673TIP3    H210984   6.467   4.802   4.389
 3674TIP3   OH210985   6.271   0.678   0.513
 3674TIP3    H110986   6.310   0.620   0.579
 3674TIP3    H210987   6.339   0.742   0.494
 3675TIP3   OH210988   5.477   6.725   2.650
 3675TIP3    H110989   5.557   6.674   2.639
 3675TIP3    H210990   5.488   6.801   2.593
 3676TIP3   OH210991   3.578   3.695   3.072
 3676TIP3    H110992   3.520   3.741   3.133
 3676TIP3    H210993   3.651   3.755   3.059
 3677TIP3   OH210994   5.397   6.510   3.075
 3677TIP3    H110995   5.478   6.482   3.034
 3677TIP3    H210996   5.423   6.580   3.135
 3678TIP3   OH210997   3.787   4.170   2.377
 3678TIP3    H110998   3.730   4.244   2.399
 3678TIP3    H210999   3.862   4.180   2.435
 3679TIP3   OH211000   6.635   6.187   5.633
 3679TIP3    H111001   6.629   6.183   5.728
 3679TIP3    H211002   6.685   6.109   5.609
 3680TIP3   OH211003   4.727   0.288   0.314
 3680TIP3    H111004   4.792   0.261   0.380
 3680TIP3    H211005   4.766   0.365   0.272
 3681TIP3   OH211006   0.246   2.499   2.729
 3681TIP3    H111007   0.273   2.588   2.705
 3681TIP3    H211008   0.272   2.445   2.654
 3682TIP3   OH211009   2.168   0.098   0.781
 3682TIP3    H111010   2.148   0.004   0.776
 3682TIP3    H211011   2.241   0.104   0.843
 3683TIP3   OH211012   4.581   4.885   3.066
 3683TIP3    H111013   4.658   4.923   3.109
 3683TIP3    H211014   4.606   4.795   3.047
 3684TIP3   OH211015   6.771   1.995   1.412
 3684TIP3    H111016   6.735   1.922   1.362
 3684TIP3    H211017   6.865   1.986   1.403
 3685TIP3   OH211018   6.019   3.496   0.564
 3685TIP3    H111019   5.963   3.534   0.496
 3685TIP3    H211020   6.053   3.415   0.525
 3686TIP3   OH211021   1.793   2.361   5.591
 3686TIP3    H111022   1.703   2.354   5.559
 3686TIP3    H211023   1.847   2.342   5.513
 3687TIP3   OH211024   0.519   1.397   3.694
 3687TIP3    H111025   0.555   1.438   3.615
 3687TIP3    H211026   0.487   1.312   3.663
 3688TIP3   OH211027   4.234   4.385   0.040
 3688TIP3    H111028   4.221   4.302  -0.006
 3688TIP3    H211029   4.326   4.407   0.023
 3689TIP3   OH211030   4.203   5.303   1.350
 3689TIP3    H111031   4.126   5.304   1.408
 3689TIP3    H211032   4.269   5.355   1.397
 3690TIP3   OH211033   0.067   5.627   4.871
 3690TIP3    H111034   0.029   5.600   4.788
 3690TIP3    H211035   0.015   5.583   4.938
 3691TIP3   OH211036   7.139   0.699   5.198
 3691TIP3    H111037   7.075   0.632   5.221
 3691TIP3    H211038   7.204   0.694   5.268
 3692TIP3   OH211039   4.964   3.046   5.060
 3692TIP3    H111040   5.053   3.021   5.085
 3692TIP3    H211041   4.910   2.971   5.087
 3693TIP3   OH211042   4.845   1.745   4.346
 3693TIP3    H111043   4.764   1.697   4.327
 3693TIP3    H211044   4.915   1.689   4.311
 3694TIP3   OH211045   7.217   5.022   5.211
 3694TIP3    H111046   7.130   5.028   5.251
 3694TIP3    H211047   7.207   5.058   5.123
 3695TIP3   OH211048   1.548   6.574   4.968
 3695TIP3    H111049   1.598   6.558   5.048
 3695TIP3    H211050   1.557   6.668   4.952
 3696TIP3   OH211051   2.750   6.566   5.042
 3696TIP3    H111052   2.756   6.553   5.137
 3696TIP3    H211053   2.673   6.622   5.031
 3697TIP3   OH211054   4.938   4.756   1.330
 3697TIP3    H111055   4.900   4.678   1.371
 3697TIP3    H211056   4.865   4.816   1.319
 3698TIP3   OH211057   4.851   0.054   0.625
 3698TIP3    H111058   4.893  -0.027   0.594
 3698TIP3    H211059   4.848   0.045   0.720
 3699TIP3   OH211060   4.681   6.071   0.351
 3699TIP3    H111061   4.757   6.111   0.309
 3699TIP3    H211062   4.606   6.102   0.299
 3700TIP3   OH211063   6.470   6.022   4.548
 3700TIP3    H111064   6.483   6.046   4.456
 3700TIP3    H211065   6.406   5.951   4.544
 3701TIP3   OH211066   1.977   6.200   0.980
 3701TIP3    H111067   1.931   6.158   0.907
 3701TIP3    H211068   1.976   6.293   0.960
 3702TIP3   OH211069   1.522   1.612   1.889
 3702TIP3    H111070   1.473   1.541   1.930
 3702TIP3    H211071   1.454   1.672   1.858
 3703TIP3   OH211072   3.660   2.632   2.692
 3703TIP3    H111073   3.660   2.701   2.759
 3703TIP3    H211074   3.734   2.654   2.636
 3704TIP3   OH211075   4.518   5.189   0.910
 3704TIP3    H111076   4.513   5.107   0.860
 3704TIP3    H211077   4.437   5.235   0.888
 3705TIP3   OH211078   1.319   4.931   4.161
 3705TIP3    H111079   1.329   5.020   4.128
 3705TIP3    H211080   1.409   4.898   4.167
 3706TIP3   OH211081   1.495   4.690   2.729
 3706TIP3    H111082   1.422   4.748   2.751
 3706TIP3    H211083   1.505   4.634   2.806
 3707TIP3   OH211084   1.852   3.208   2.396
 3707TIP3    H111085   1.817   3.250   2.475
 3707TIP3    H211086   1.906   3.276   2.354
 3708TIP3   OH211087   6.803   0.458   3.839
 3708TIP3    H111088   6.803   0.479   3.932
 3708TIP3    H211089   6.750   0.378   3.832
 3709TIP3   OH211090   0.894   0.978   2.286
 3709TIP3    H111091   0.823   1.040   2.295
 3709TIP3    H211092   0.972   1.032   2.271
 3710TIP3   OH211093   6.001   2.734   0.501
 3710TIP3    H111094   6.013   2.727   0.407
 3710TIP3    H211095   6.011   2.644   0.534
 3711TIP3   OH211096   6.775   2.402   5.572
 3711TIP3    H111097   6.857   2.360   5.599
 3711TIP3    H211098   6.774   2.486   5.617
 3712TIP3   OH211099   2.438   0.519   5.020
 3712TIP3    H111100   2.495   0.486   4.951
 3712TIP3    H211101   2.370   0.452   5.029
 3713TIP3   OH211102   6.594   2.897   2.358
 3713TIP3    H111103   6.576   2.990   2.368
 3713TIP3    H211104   6.507   2.857   2.347
 3714TIP3   OH211105   3.106   1.381   2.409
 3714TIP3    H111106   3.034   1.319   2.399
 3714TIP3    H211107   3.179   1.342   2.361
 3715TIP3   OH211108   4.781   5.222   2.761
 3715TIP3    H111109   4.749   5.262   2.842
 3715TIP3    H211110   4.775   5.292   2.696
 3716TIP3   OH211111  -0.026   3.624   4.954
 3716TIP3    H111112   0.007   3.543   4.914
 3716TIP3    H211113   0.054   3.673   4.976
 3717TIP3   OH211114   4.673   3.471   4.349
 3717TIP3    H111115   4.690   3.447   4.258
 3717TIP3    H211116   4.592   3.522   4.345
 3718TIP3   OH211117   2.004   1.128   2.820
 3718TIP3    H111118   1.993   1.121   2.725
 3718TIP3    H211119   1.968   1.213   2.842
 3719TIP3   OH211120   6.023   2.929   5.337
 3719TIP3    H111121   6.051   3.013   5.371
 3719TIP3    H211122   6.095   2.900   5.281
 3720TIP3   OH211123   4.087   1.689   1.003
 3720TIP3    H111124   4.110   1.637   0.926
 3720TIP3    H211125   4.019   1.748   0.972
 3721TIP3   OH211126   5.311   3.566   2.922
 3721TIP3    H111127   5.363   3.642   2.896
 3721TIP3    H211128   5.343   3.495   2.866
 3722TIP3   OH211129   6.776   5.525   3.196
 3722TIP3    H111130   6.818   5.439   3.199
 3722TIP3    H211131   6.822   5.572   3.125
 3723TIP3   OH211132   6.082   0.090   0.359
 3723TIP3    H111133   6.073  -0.003   0.336
 3723TIP3    H211134   6.161   0.118   0.313
 3724TIP3   OH211135   0.140   0.094   0.220
 3724TIP3    H111136   0.068   0.110   0.281
 3724TIP3    H211137   0.119   0.009   0.180
 3725TIP3   OH211138   5.936   4.388   2.188
 3725TIP3    H111139   5.843   4.379   2.170
 3725TIP3    H211140   5.975   4.408   2.102
 3726TIP3   OH211141   3.240   3.745   0.476
 3726TIP3    H111142   3.177   3.691   0.525
 3726TIP3    H211143   3.190   3.821   0.447
 3727TIP3   OH211144   6.990   0.102   2.736
 3727TIP3    H111145   7.073   0.072   2.771
 3727TIP3    H211146   6.951   0.153   2.808
 3728TIP3   OH211147   2.863   5.196   0.372
 3728TIP3    H111148   2.886   5.175   0.281
 3728TIP3    H211149   2.890   5.119   0.422
 3729TIP3   OH211150   4.980   3.692   2.875
 3729TIP3    H111151   5.022   3.607   2.886
 3729TIP3    H211152   4.964   3.699   2.781
 3730TIP3   OH211153   5.506   3.899   3.348
 3730TIP3    H111154   5.501   3.988   3.383
 3730TIP3    H211155   5.472   3.906   3.259
 3731TIP3   OH211156   3.164   5.949   4.907
 3731TIP3    H111157   3.091   5.964   4.967
 3731TIP3    H211158   3.159   5.857   4.885
 3732TIP3   OH211159   4.623   5.008   5.757
 3732TIP3    H111160   4.684   5.050   5.817
 3732TIP3    H211161   4.627   4.915   5.780
 3733TIP3   OH211162   6.174   3.335   3.161
 3733TIP3    H111163   6.086   3.299   3.151
 3733TIP3    H211164   6.186   3.341   3.256
 3734TIP3   OH211165   0.128   2.862   0.817
 3734TIP3    H111166   0.055   2.802   0.803
 3734TIP3    H211167   0.090   2.934   0.868
 3735TIP3   OH211168   2.635   3.283   1.433
 3735TIP3    H111169   2.582   3.339   1.490
 3735TIP3    H211170   2.711   3.260   1.485
 3736TIP3   OH211171   0.604   6.596   5.546
 3736TIP3    H111172   0.519   6.571   5.582
 3736TIP3    H211173   0.631   6.672   5.597
 3737TIP3   OH211174   4.802   3.381   1.706
 3737TIP3    H111175   4.764   3.456   1.751
 3737TIP3    H211176   4.842   3.418   1.627
 3738TIP3   OH211177   6.022   1.749   4.748
 3738TIP3    H111178   6.061   1.837   4.748
 3738TIP3    H211179   5.978   1.743   4.833
 3739TIP3   OH211180   6.997   4.431   4.377
 3739TIP3    H111181   7.086   4.441   4.412
 3739TIP3    H211182   6.950   4.385   4.446
 3740TIP3   OH211183   0.244   3.531   1.780
 3740TIP3    H111184   0.297   3.464   1.738
 3740TIP3    H211185   0.284   3.543   1.867
 3741TIP3   OH211186   1.129   0.204   0.246
 3741TIP3    H111187   1.153   0.285   0.200
 3741TIP3    H211188   1.040   0.185   0.215
 3742TIP3   OH211189   2.049   1.312   3.963
 3742TIP3    H111190   2.127   1.368   3.965
 3742TIP3    H211191   1.979   1.369   3.996
 3743TIP3   OH211192   3.502   6.835   4.544
 3743TIP3    H111193   3.462   6.753   4.575
 3743TIP3    H211194   3.430   6.884   4.505
 3744TIP3   OH211195   3.720   1.821   3.513
 3744TIP3    H111196   3.666   1.850   3.440
 3744TIP3    H211197   3.669   1.841   3.591
 3745TIP3   OH211198   0.356   4.382   2.084
 3745TIP3    H111199   0.411   4.358   2.159
 3745TIP3    H211200   0.273   4.339   2.101
 3746TIP3   OH211201   5.429   5.737   2.492
 3746TIP3    H111202   5.405   5.722   2.400
 3746TIP3    H211203   5.487   5.663   2.514
 3747TIP3   OH211204   4.143   2.617   2.378
 3747TIP3    H111205   4.209   2.654   2.320
 3747TIP3    H211206   4.062   2.619   2.326
 3748TIP3   OH211207   3.563  -0.007   3.489
 3748TIP3    H111208   3.494  -0.063   3.524
 3748TIP3    H211209   3.522   0.080   3.482
 3749TIP3   OH211210   3.160   4.388   0.108
 3749TIP3    H111211   3.110   4.468   0.096
 3749TIP3    H211212   3.103   4.318   0.076
 3750TIP3   OH211213   1.047   5.499   5.083
 3750TIP3    H111214   0.968   5.446   5.100
 3750TIP3    H211215   1.015   5.574   5.034
 3751TIP3   OH211216   2.450   5.963   0.085
 3751TIP3    H111217   2.437   5.871   0.059
 3751TIP3    H211218   2.501   5.958   0.166
 3752TIP3   OH211219   2.879   2.638   2.794
 3752TIP3    H111220   2.868   2.656   2.701
 3752TIP3    H211221   2.849   2.548   2.805
 3753TIP3   OH211222   3.162   2.325   0.101
 3753TIP3    H111223   3.164   2.367   0.015
 3753TIP3    H211224   3.149   2.232   0.082
 3754TIP3   OH211225   6.024   1.998   4.992
 3754TIP3    H111226   5.949   1.941   5.011
 3754TIP3    H211227   6.017   2.017   4.899
 3755TIP3   OH211228   2.078   6.775   4.770
 3755TIP3    H111229   2.099   6.693   4.814
 3755TIP3    H211230   2.140   6.780   4.697
 3756TIP3   OH211231   2.978   1.290   3.443
 3756TIP3    H111232   2.889   1.319   3.425
 3756TIP3    H211233   3.032   1.334   3.376
 3757TIP3   OH211234   6.983   0.199   1.061
 3757TIP3    H111235   7.062   0.169   1.106
 3757TIP3    H211236   7.014   0.268   1.003
 3758TIP3   OH211237   1.399   4.015   3.992
 3758TIP3    H111238   1.389   4.110   4.002
 3758TIP3    H211239   1.331   3.977   4.048
 3759TIP3   OH211240   5.314   5.241   2.514
 3759TIP3    H111241   5.302   5.146   2.502
 3759TIP3    H211242   5.398   5.261   2.473
 3760TIP3   OH211243   7.199   5.804   4.101
 3760TIP3    H111244   7.109   5.775   4.115
 3760TIP3    H211245   7.244   5.725   4.070
 3761TIP3   OH211246   5.589   6.576   4.811
 3761TIP3    H111247   5.588   6.625   4.893
 3761TIP3    H211248   5.535   6.627   4.751
 3762TIP3   OH211249   0.474   4.978   4.056
 3762TIP3    H111250   0.561   4.946   4.080
 3762TIP3    H211251   0.482   5.001   3.963
 3763TIP3   OH211252   0.543   3.161   5.050
 3763TIP3    H111253   0.619   3.218   5.045
 3763TIP3    H211254   0.533   3.142   5.143
 3764TIP3   OH211255   6.953   6.280   0.056
 3764TIP3    H111256   6.964   6.370   0.024
 3764TIP3    H211257   6.934   6.229  -0.023
 3765TIP3   OH211258   3.285   2.902   5.814
 3765TIP3    H111259   3.274   2.852   5.895
 3765TIP3    H211260   3.327   2.983   5.841
 3766TIP3   OH211261   1.557   5.357   1.396
 3766TIP3    H111262   1.491   5.422   1.423
 3766TIP3    H211263   1.616   5.351   1.470
 3767TIP3   OH211264   0.694   1.234   4.550
 3767TIP3    H111265   0.621   1.181   4.582
 3767TIP3    H211266   0.766   1.172   4.540
 3768TIP3   OH211267   5.809   3.465   5.750
 3768TIP3    H111268   5.785   3.514   5.828
 3768TIP3    H211269   5.895   3.428   5.770
 3769TIP3   OH211270   2.315   2.622   0.917
 3769TIP3    H111271   2.408   2.644   0.914
 3769TIP3    H211272   2.287   2.649   1.004
 3770TIP3   OH211273   3.986   1.377   5.402
 3770TIP3    H111274   3.970   1.375   5.496
 3770TIP3    H211275   4.065   1.429   5.391
 3771TIP3   OH211276   2.568   3.363   1.149
 3771TIP3    H111277   2.491   3.419   1.155
 3771TIP3    H211278   2.579   3.328   1.238
 3772TIP3   OH211279   7.056   1.738   4.841
 3772TIP3    H111280   7.031   1.652   4.807
 3772TIP3    H211281   7.078   1.722   4.933
 3773TIP3   OH211282   4.271   4.516   1.226
 3773TIP3    H111283   4.340   4.450   1.237
 3773TIP3    H211284   4.189   4.467   1.237
 3774TIP3   OH211285   1.042   0.975   5.863
 3774TIP3    H111286   0.994   1.042   5.813
 3774TIP3    H211287   1.099   0.934   5.798
 3775TIP3   OH211288   3.255   3.413   1.328
 3775TIP3    H111289   3.298   3.478   1.384
 3775TIP3    H211290   3.232   3.461   1.249
 3776TIP3   OH211291   2.033   3.932   1.036
 3776TIP3    H111292   2.006   3.997   1.101
 3776TIP3    H211293   2.093   3.874   1.083
 3777TIP3   OH211294   3.031   2.223   1.818
 3777TIP3    H111295   3.030   2.179   1.903
 3777TIP3    H211296   2.980   2.303   1.832
 3778TIP3   OH211297   6.401   4.847   2.995
 3778TIP3    H111298   6.447   4.897   3.062
 3778TIP3    H211299   6.323   4.899   2.975
 3779TIP3   OH211300   3.131   1.047   2.642
 3779TIP3    H111301   3.210   1.074   2.596
 3779TIP3    H211302   3.083   0.995   2.578
 3780TIP3   OH211303   5.602   2.044   4.429
 3780TIP3    H111304   5.536   2.042   4.498
 3780TIP3    H211305   5.681   2.077   4.473
 3781TIP3   OH211306   5.051   6.869   1.140
 3781TIP3    H111307   5.043   6.777   1.162
 3781TIP3    H211308   5.112   6.905   1.205
 3782TIP3   OH211309   6.437   5.683   0.084
 3782TIP3    H111310   6.342   5.668   0.078
 3782TIP3    H211311   6.447   5.776   0.065
 3783TIP3   OH211312   6.889   0.626   4.129
 3783TIP3    H111313   6.924   0.686   4.194
 3783TIP3    H211314   6.805   0.665   4.103
 3784TIP3   OH211315   7.228   6.100   2.534
 3784TIP3    H111316   7.160   6.090   2.600
 3784TIP3    H211317   7.298   6.041   2.562
 3785TIP3   OH211318   5.072   5.694   1.139
 3785TIP3    H111319   5.005   5.629   1.116
 3785TIP3    H211320   5.133   5.692   1.066
 3786TIP3   OH211321   3.776   4.532   0.277
 3786TIP3    H111322   3.798   4.445   0.244
 3786TIP3    H211323   3.835   4.591   0.231
 3787TIP3   OH211324   5.118   5.484   5.228
 3787TIP3    H111325   5.208   5.502   5.255
 3787TIP3    H211326   5.087   5.417   5.289
 3788TIP3   OH211327   3.308   1.819   3.921
 3788TIP3    H111328   3.261   1.897   3.893
 3788TIP3    H211329   3.269   1.748   3.871
 3789TIP3   OH211330   4.571   0.192   1.485
 3789TIP3    H111331   4.649   0.144   1.459
 3789TIP3    H211332   4.501   0.126   1.488
 3790TIP3   OH211333   0.530   5.288   2.046
 3790TIP3    H111334   0.622   5.268   2.064
 3790TIP3    H211335   0.526   5.297   1.950
 3791TIP3   OH211336   3.787   6.278   4.766
 3791TIP3    H111337   3.706   6.312   4.730
 3791TIP3    H211338   3.797   6.191   4.726
 3792TIP3   OH211339   7.075   4.077   0.340
 3792TIP3    H111340   7.006   4.034   0.391
 3792TIP3    H211341   7.152   4.022   0.354
 3793TIP3   OH211342   4.670   0.779   3.073
 3793TIP3    H111343   4.733   0.778   3.144
 3793TIP3    H211344   4.597   0.726   3.105
 3794TIP3   OH211345   1.877   4.985   4.314
 3794TIP3    H111346   1.899   4.910   4.258
 3794TIP3    H211347   1.782   4.988   4.313
 3795TIP3   OH211348   5.985   0.667   5.237
 3795TIP3    H111349   6.022   0.581   5.254
 3795TIP3    H211350   6.008   0.718   5.315
 3796TIP3   OH211351   3.719   1.378   2.864
 3796TIP3    H111352   3.748   1.459   2.824
 3796TIP3    H211353   3.639   1.354   2.816
 3797TIP3   OH211354   5.205   1.491   2.530
 3797TIP3    H111355   5.259   1.522   2.602
 3797TIP3    H211356   5.118   1.478   2.569
 3798TIP3   OH211357   3.222   5.698   0.169
 3798TIP3    H111358   3.282   5.742   0.228
 3798TIP3    H211359   3.159   5.654   0.226
 3799TIP3   OH211360   1.373   1.338   3.221
 3799TIP3    H111361   1.367   1.287   3.302
 3799TIP3    H211362   1.326   1.419   3.241
 3800TIP3   OH211363   1.415   2.184   5.185
 3800TIP3    H111364   1.493   2.240   5.177
 3800TIP3    H211365   1.345   2.235   5.144
 3801TIP3   OH211366   4.694   3.232   0.825
 3801TIP3    H111367   4.616   3.287   0.820
 3801TIP3    H211368   4.720   3.219   0.734
 3802TIP3   OH211369   0.234   3.169   2.466
 3802TIP3    H111370   0.300   3.175   2.535
 3802TIP3    H211371   0.254   3.243   2.408
 3803TIP3   OH211372   3.630   5.602   1.422
 3803TIP3    H111373   3.721   5.614   1.448
 3803TIP3    H211374   3.633   5.534   1.355
 3804TIP3   OH211375   6.647   5.902   4.312
 3804TIP3    H111376   6.612   5.990   4.305
 3804TIP3    H211377   6.611   5.855   4.236
 3805TIP3   OH211378   4.008   4.126   1.535
 3805TIP3    H111379   4.029   4.063   1.466
 3805TIP3    H211380   4.072   4.196   1.525
 3806TIP3   OH211381   6.991   2.312   2.824
 3806TIP3    H111382   6.931   2.341   2.892
 3806TIP3    H211383   6.939   2.311   2.744
 3807TIP3   OH211384   1.169   3.549   3.839
 3807TIP3    H111385   1.233   3.619   3.832
 3807TIP3    H211386   1.201   3.482   3.778
 3808TIP3   OH211387   2.934   3.490   0.020
 3808TIP3    H111388   3.008   3.476  -0.039
 3808TIP3    H211389   2.965   3.460   0.105
 3809TIP3   OH211390   6.771   4.345   1.542
 3809TIP3    H111391   6.828   4.304   1.607
 3809TIP3    H211392   6.728   4.272   1.498
 3810TIP3   OH211393   5.644   6.205   4.119
 3810TIP3    H111394   5.636   6.121   4.074
 3810TIP3    H211395   5.733   6.234   4.100
 3811TIP3   OH211396   1.315   5.022   3.288
 3811TIP3    H111397   1.396   5.002   3.240
 3811TIP3    H211398   1.267   4.940   3.289
 3812TIP3   OH211399   0.659   1.330   0.764
 3812TIP3    H111400   0.583   1.280   0.735
 3812TIP3    H211401   0.729   1.305   0.704
 3813TIP3   OH211402   4.077   1.745   5.059
 3813TIP3    H111403   4.111   1.711   4.976
 3813TIP3    H211404   4.155   1.770   5.109
 3814TIP3   OH211405   4.974   3.251   0.091
 3814TIP3    H111406   4.930   3.282   0.012
 3814TIP3    H211407   4.983   3.329   0.146
 3815TIP3   OH211408   4.832   0.285   3.579
 3815TIP3    H111409   4.890   0.218   3.543
 3815TIP3    H211410   4.847   0.361   3.523
 3816TIP3   OH211411   2.977   5.873   5.106
 3816TIP3    H111412   2.984   5.812   5.180
 3816TIP3    H211413   2.918   5.829   5.045
 3817TIP3   OH211414   1.542   2.935   5.671
 3817TIP3    H111415   1.569   3.025   5.653
 3817TIP3    H211416   1.449   2.942   5.694
 3818TIP3   OH211417   1.564   4.564   4.931
 3818TIP3    H111418   1.543   4.594   5.020
 3818TIP3    H211419   1.584   4.644   4.883
 3819TIP3   OH211420   3.533   6.596   2.632
 3819TIP3    H111421   3.477   6.646   2.692
 3819TIP3    H211422   3.561   6.521   2.684
 3820TIP3   OH211423   4.204   0.815   1.665
 3820TIP3    H111424   4.116   0.778   1.670
 3820TIP3    H211425   4.214   0.862   1.748
 3821TIP3   OH211426   7.032   5.245   4.820
 3821TIP3    H111427   6.971   5.204   4.881
 3821TIP3    H211428   7.071   5.317   4.869
 3822TIP3   OH211429   1.420   5.980   1.051
 3822TIP3    H111430   1.445   5.978   0.958
 3822TIP3    H211431   1.471   5.911   1.091
 3823TIP3   OH211432   4.318   5.207   5.275
 3823TIP3    H111433   4.278   5.294   5.266
 3823TIP3    H211434   4.245   5.147   5.262
 3824TIP3   OH211435   2.800   5.838   2.880
 3824TIP3    H111436   2.709   5.814   2.862
 3824TIP3    H211437   2.803   5.850   2.975
 3825TIP3   OH211438   5.179   2.592   4.452
 3825TIP3    H111439   5.092   2.598   4.412
 3825TIP3    H211440   5.232   2.655   4.403
 3826TIP3   OH211441   4.406   1.485   0.183
 3826TIP3    H111442   4.316   1.492   0.213
 3826TIP3    H211443   4.443   1.413   0.235
 3827TIP3   OH211444   4.367   5.499   1.854
 3827TIP3    H111445   4.351   5.575   1.910
 3827TIP3    H211446   4.315   5.429   1.894
 3828TIP3   OH211447   1.564   5.013   3.132
 3828TIP3    H111448   1.530   5.082   3.075
 3828TIP3    H211449   1.657   5.033   3.141
 3829TIP3   OH211450   3.116   5.473   4.065
 3829TIP3    H111451   3.154   5.415   3.999
 3829TIP3    H211452   3.079   5.546   4.015
 3830TIP3   OH211453   3.086   0.706   0.515
 3830TIP3    H111454   2.999   0.684   0.547
 3830TIP3    H211455   3.101   0.646   0.442
 3831TIP3   OH211456   2.622   4.258   0.324
 3831TIP3    H111457   2.648   4.349   0.308
 3831TIP3    H211458   2.526   4.263   0.333
 3832TIP3   OH211459   1.764   2.129   5.812
 3832TIP3    H111460   1.709   2.186   5.757
 3832TIP3    H211461   1.791   2.059   5.752
 3833TIP3   OH211462   1.757   2.396   4.796
 3833TIP3    H111463   1.814   2.341   4.850
 3833TIP3    H211464   1.778   2.373   4.706
 3834TIP3   OH211465   3.261   4.789   0.700
 3834TIP3    H111466   3.214   4.862   0.738
 3834TIP3    H211467   3.196   4.718   0.695
 3835TIP3   OH211468   6.718   0.348   0.512
 3835TIP3    H111469   6.733   0.442   0.499
 3835TIP3    H211470   6.624   0.341   0.527
 3836TIP3   OH211471   6.461   6.298   4.632
 3836TIP3    H111472   6.450   6.206   4.656
 3836TIP3    H211473   6.551   6.303   4.599
 3837TIP3   OH211474   4.008   1.649   3.866
 3837TIP3    H111475   3.983   1.563   3.901
 3837TIP3    H211476   4.003   1.708   3.942
 3838TIP3   OH211477   2.768   6.023   4.560
 3838TIP3    H111478   2.726   6.045   4.643
 3838TIP3    H211479   2.758   6.102   4.507
 3839TIP3   OH211480   0.439   0.479   2.492
 3839TIP3    H111481   0.525   0.496   2.452
 3839TIP3    H211482   0.393   0.563   2.486
 3840TIP3   OH211483   4.954   6.623   0.469
 3840TIP3    H111484   5.002   6.622   0.386
 3840TIP3    H211485   4.985   6.546   0.516
 3841TIP3   OH211486   5.171   2.077   0.685
 3841TIP3    H111487   5.259   2.042   0.678
 3841TIP3    H211488   5.125   2.015   0.742
 3842TIP3   OH211489   3.430   1.862   2.337
 3842TIP3    H111490   3.467   1.834   2.252
 3842TIP3    H211491   3.336   1.866   2.322
 3843TIP3   OH211492   4.640   2.930   0.462
 3843TIP3    H111493   4.555   2.925   0.418
 3843TIP3    H211494   4.700   2.880   0.407
 3844TIP3   OH211495   3.518   1.248   5.655
 3844TIP3    H111496   3.577   1.254   5.579
 3844TIP3    H211497   3.554   1.177   5.708
 3845TIP3   OH211498   6.430   5.070   2.287
 3845TIP3    H111499   6.453   5.068   2.194
 3845TIP3    H211500   6.358   5.007   2.294
 3846TIP3   OH211501   5.745   3.321   5.284
 3846TIP3    H111502   5.829   3.305   5.327
 3846TIP3    H211503   5.685   3.343   5.356
 3847TIP3   OH211504   4.899   6.247   4.297
 3847TIP3    H111505   4.966   6.214   4.356
 3847TIP3    H211506   4.943   6.313   4.244
 3848TIP3   OH211507   3.296   1.234   1.524
 3848TIP3    H111508   3.231   1.170   1.495
 3848TIP3    H211509   3.380   1.199   1.493
 3849TIP3   OH211510   0.593   0.693   2.797
 3849TIP3    H111511   0.613   0.760   2.732
 3849TIP3    H211512   0.499   0.704   2.815
 3850TIP3   OH211513   5.737   6.772   1.386
 3850TIP3    H111514   5.765   6.742   1.472
 3850TIP3    H211515   5.818   6.790   1.339
 3851TIP3   OH211516  -0.038   1.865   2.652
 3851TIP3    H111517  -0.091   1.918   2.712
 3851TIP3    H211518   0.045   1.853   2.698
 3852TIP3   OH211519   0.456   5.052   2.820
 3852TIP3    H111520   0.424   5.037   2.731
 3852TIP3    H211521   0.386   5.102   2.863
 3853TIP3   OH211522   1.079   4.941   2.946
 3853TIP3    H111523   1.071   5.024   2.993
 3853TIP3    H211524   1.005   4.889   2.976
 3854TIP3   OH211525   6.084   1.155   2.467
 3854TIP3    H111526   6.142   1.082   2.488
 3854TIP3    H211527   6.111   1.182   2.380
 3855TIP3   OH211528   6.659   2.793   5.492
 3855TIP3    H111529   6.643   2.811   5.399
 3855TIP3    H211530   6.572   2.774   5.528
 3856TIP3   OH211531   1.430   2.705   3.232
 3856TIP3    H111532   1.458   2.796   3.226
 3856TIP3    H211533   1.509   2.654   3.215
 3857TIP3   OH211534   1.078   0.248   5.461
 3857TIP3    H111535   1.047   0.272   5.374
 3857TIP3    H211536   1.173   0.240   5.451
 3858TIP3   OH211537   2.317   1.136   2.299
 3858TIP3    H111538   2.403   1.176   2.286
 3858TIP3    H211539   2.265   1.206   2.339
 3859TIP3   OH211540   3.017   5.888   4.585
 3859TIP3    H111541   3.076   5.963   4.586
 3859TIP3    H211542   2.929   5.926   4.586
 3860TIP3   OH211543   4.561   0.518   0.418
 3860TIP3    H111544   4.548   0.465   0.339
 3860TIP3    H211545   4.478   0.513   0.465
 3861TIP3   OH211546   6.780   6.326   5.413
 3861TIP3    H111547   6.726   6.303   5.488
 3861TIP3    H211548   6.751   6.268   5.343
 3862TIP3   OH211549   1.373   1.955   5.009
 3862TIP3    H111550   1.372   1.883   5.072
 3862TIP3    H211551   1.383   2.033   5.063
 3863TIP3   OH211552   0.025   5.297   3.569
 3863TIP3    H111553  -0.052   5.354   3.565
 3863TIP3    H211554   0.085   5.333   3.504
 3864TIP3   OH211555   4.379   6.588   3.394
 3864TIP3    H111556   4.390   6.514   3.453
 3864TIP3    H211557   4.292   6.624   3.416
 3865TIP3   OH211558   2.625   5.308   2.364
 3865TIP3    H111559   2.696   5.359   2.326
 3865TIP3    H211560   2.550   5.368   2.365
 3866TIP3   OH211561   2.708   2.406   1.388
 3866TIP3    H111562   2.780   2.382   1.446
 3866TIP3    H211563   2.674   2.487   1.425
 3867TIP3   OH211564   6.000   1.847   5.469
 3867TIP3    H111565   5.917   1.877   5.433
 3867TIP3    H211566   5.988   1.849   5.564
 3868TIP3   OH211567   0.614   5.968   4.829
 3868TIP3    H111568   0.603   6.063   4.828
 3868TIP3    H211569   0.707   5.954   4.811
 3869TIP3   OH211570   4.608   6.442   0.176
 3869TIP3    H111571   4.587   6.436   0.269
 3869TIP3    H211572   4.547   6.507   0.142
 3870TIP3   OH211573   0.987   1.753   5.683
 3870TIP3    H111574   0.906   1.803   5.675
 3870TIP3    H211575   1.046   1.809   5.734
 3871TIP3   OH211576   4.257   3.546   5.499
 3871TIP3    H111577   4.265   3.503   5.414
 3871TIP3    H211578   4.163   3.554   5.514
 3872TIP3   OH211579   3.186   3.724   5.525
 3872TIP3    H111580   3.145   3.639   5.510
 3872TIP3    H211581   3.121   3.773   5.575
 3873TIP3   OH211582   5.335   2.637   2.726
 3873TIP3    H111583   5.290   2.612   2.645
 3873TIP3    H211584   5.272   2.620   2.795
 3874TIP3   OH211585   0.972   5.959   1.704
 3874TIP3    H111586   1.030   6.001   1.641
 3874TIP3    H211587   0.936   6.031   1.756
 3875TIP3   OH211588   1.912   2.599   2.518
 3875TIP3    H111589   1.821   2.571   2.508
 3875TIP3    H211590   1.959   2.557   2.446
 3876TIP3   OH211591   4.918   2.065   0.014
 3876TIP3    H111592   4.902   2.045   0.106
 3876TIP3    H211593   4.954   1.985  -0.023
 3877TIP3   OH211594   0.786   5.090   1.683
 3877TIP3    H111595   0.851   5.024   1.707
 3877TIP3    H211596   0.763   5.069   1.593
 3878TIP3   OH211597   0.176   5.724   0.668
 3878TIP3    H111598   0.089   5.685   0.680
 3878TIP3    H211599   0.165   5.781   0.591
 3879TIP3   OH211600   1.253   4.492   3.590
 3879TIP3    H111601   1.262   4.408   3.634
 3879TIP3    H211602   1.243   4.555   3.661
 3880TIP3   OH211603   6.091   5.567   1.367
 3880TIP3    H111604   6.154   5.507   1.329
 3880TIP3    H211605   6.018   5.512   1.394
 3881TIP3   OH211606   5.404   0.414   0.180
 3881TIP3    H111607   5.313   0.389   0.165
 3881TIP3    H211608   5.414   0.496   0.132
 3882TIP3   OH211609   1.393   3.090   2.134
 3882TIP3    H111610   1.309   3.048   2.114
 3882TIP3    H211611   1.369   3.182   2.151
 3883TIP3   OH211612   0.619   2.478   2.822
 3883TIP3    H111613   0.549   2.414   2.817
 3883TIP3    H211614   0.581   2.551   2.871
 3884TIP3   OH211615   4.689   0.261   4.646
 3884TIP3    H111616   4.780   0.284   4.666
 3884TIP3    H211617   4.680   0.278   4.552
 3885TIP3   OH211618   5.812   1.098   0.689
 3885TIP3    H111619   5.750   1.116   0.617
 3885TIP3    H211620   5.895   1.133   0.658
 3886TIP3   OH211621   4.724   0.266   2.630
 3886TIP3    H111622   4.732   0.247   2.723
 3886TIP3    H211623   4.718   0.361   2.625
 3887TIP3   OH211624   3.856   1.959   2.135
 3887TIP3    H111625   3.909   1.979   2.213
 3887TIP3    H211626   3.835   1.866   2.144
 3888TIP3   OH211627   3.843   5.187   2.642
 3888TIP3    H111628   3.932   5.169   2.672
 3888TIP3    H211629   3.855   5.229   2.557
 3889TIP3   OH211630   1.818   5.071   3.870
 3889TIP3    H111631   1.814   5.121   3.951
 3889TIP3    H211632   1.911   5.054   3.857
 3890TIP3   OH211633   5.709   0.980   5.486
 3890TIP3    H111634   5.628   0.976   5.536
 3890TIP3    H211635   5.732   0.888   5.470
 3891TIP3   OH211636   3.691   5.705   0.523
 3891TIP3    H111637   3.714   5.697   0.430
 3891TIP3    H211638   3.740   5.782   0.553
 3892TIP3   OH211639   1.211   6.724   4.167
 3892TIP3    H111640   1.229   6.642   4.213
 3892TIP3    H211641   1.297   6.761   4.149
 3893TIP3   OH211642   0.126   4.768   3.573
 3893TIP3    H111643   0.106   4.783   3.666
 3893TIP3    H211644   0.221   4.757   3.570
 3894TIP3   OH211645   0.429   3.314   2.054
 3894TIP3    H111646   0.502   3.323   1.993
 3894TIP3    H211647   0.398   3.224   2.042
 3895TIP3   OH211648   3.368   5.750   5.107
 3895TIP3    H111649   3.281   5.750   5.069
 3895TIP3    H211650   3.425   5.784   5.037
 3896TIP3   OH211651   1.564   0.254   5.266
 3896TIP3    H111652   1.478   0.282   5.234
 3896TIP3    H211653   1.604   0.208   5.191
 3897TIP3   OH211654   3.971   4.931   0.872
 3897TIP3    H111655   4.020   4.941   0.791
 3897TIP3    H211656   3.909   5.004   0.872
 3898TIP3   OH211657   4.309   3.491   3.515
 3898TIP3    H111658   4.306   3.451   3.602
 3898TIP3    H211659   4.273   3.579   3.528
 3899TIP3   OH211660   2.341   3.856   4.644
 3899TIP3    H111661   2.342   3.762   4.660
 3899TIP3    H211662   2.393   3.893   4.716
 3900TIP3   OH211663   2.672   5.069   0.763
 3900TIP3    H111664   2.658   5.145   0.707
 3900TIP3    H211665   2.681   5.105   0.851
 3901TIP3   OH211666   2.975   0.398   1.982
 3901TIP3    H111667   3.039   0.332   1.956
 3901TIP3    H211668   3.025   0.461   2.034
 3902TIP3   OH211669   1.295   6.511   3.823
 3902TIP3    H111670   1.231   6.576   3.853
 3902TIP3    H211671   1.263   6.428   3.857
 3903TIP3   OH211672   3.756   0.257   3.690
 3903TIP3    H111673   3.723   0.168   3.694
 3903TIP3    H211674   3.814   0.258   3.615
 3904TIP3   OH211675   3.383   2.563   3.807
 3904TIP3    H111676   3.299   2.591   3.843
 3904TIP3    H211677   3.367   2.549   3.714
 3905TIP3   OH211678   7.159   6.079   4.442
 3905TIP3    H111679   7.244   6.052   4.406
 3905TIP3    H211680   7.145   6.022   4.518
 3906TIP3   OH211681   5.378   6.630   4.104
 3906TIP3    H111682   5.353   6.542   4.132
 3906TIP3    H211683   5.443   6.658   4.169
 3907TIP3   OH211684   2.460   5.333   0.301
 3907TIP3    H111685   2.409   5.263   0.261
 3907TIP3    H211686   2.399   5.406   0.309
 3908TIP3   OH211687   1.277   2.747   2.238
 3908TIP3    H111688   1.261   2.796   2.158
 3908TIP3    H211689   1.314   2.811   2.298
 3909TIP3   OH211690   5.318   6.787   1.394
 3909TIP3    H111691   5.404   6.780   1.353
 3909TIP3    H211692   5.304   6.881   1.406
 3910TIP3   OH211693   6.603   3.296   0.311
 3910TIP3    H111694   6.577   3.256   0.228
 3910TIP3    H211695   6.699   3.292   0.310
 3911TIP3   OH211696   1.267   6.566   0.386
 3911TIP3    H111697   1.296   6.658   0.384
 3911TIP3    H211698   1.293   6.535   0.473
 3912TIP3   OH211699   2.511   1.422   3.066
 3912TIP3    H111700   2.511   1.334   3.103
 3912TIP3    H211701   2.587   1.423   3.007
 3913TIP3   OH211702   1.543   5.951   4.549
 3913TIP3    H111703   1.608   5.885   4.574
 3913TIP3    H211704   1.535   6.007   4.627
 3914TIP3   OH211705   1.611   6.322   0.826
 3914TIP3    H111706   1.528   6.293   0.862
 3914TIP3    H211707   1.652   6.242   0.793
 3915TIP3   OH211708   5.304   6.549   2.046
 3915TIP3    H111709   5.219   6.506   2.049
 3915TIP3    H211710   5.287   6.637   2.079
 3916TIP3   OH211711   1.533   3.036   5.049
 3916TIP3    H111712   1.580   2.958   5.080
 3916TIP3    H211713   1.448   3.003   5.021
 3917TIP3   OH211714   6.020   6.518   4.632
 3917TIP3    H111715   6.111   6.509   4.603
 3917TIP3    H211716   6.025   6.563   4.716
 3918TIP3   OH211717   1.002   4.567   0.483
 3918TIP3    H111718   0.973   4.589   0.395
 3918TIP3    H211719   0.942   4.615   0.541
 3919TIP3   OH211720   7.198   0.890   3.517
 3919TIP3    H111721   7.213   0.955   3.586
 3919TIP3    H211722   7.267   0.907   3.453
 3920TIP3   OH211723   3.097   6.133   1.280
 3920TIP3    H111724   3.100   6.205   1.217
 3920TIP3    H211725   3.018   6.151   1.332
 3921TIP3   OH211726   1.952   1.807   2.417
 3921TIP3    H111727   1.867   1.769   2.394
 3921TIP3    H211728   1.957   1.800   2.512
 3922TIP3   OH211729   0.941   4.269   0.753
 3922TIP3    H111730   0.882   4.333   0.714
 3922TIP3    H211731   1.006   4.251   0.685
 3923TIP3   OH211732   1.012   2.867   1.303
 3923TIP3    H111733   1.057   2.848   1.386
 3923TIP3    H211734   1.048   2.804   1.241
 3924TIP3   OH211735   6.035   4.789   5.178
 3924TIP3    H111736   6.031   4.884   5.189
 3924TIP3    H211737   6.034   4.775   5.084
 3925TIP3   OH211738   0.166   1.225   0.770
 3925TIP3    H111739   0.137   1.294   0.830
 3925TIP3    H211740   0.102   1.155   0.780
 3926TIP3   OH211741   0.860   4.047   1.470
 3926TIP3    H111742   0.870   4.140   1.451
 3926TIP3    H211743   0.891   4.003   1.391
 3927TIP3   OH211744   4.435   4.249   2.902
 3927TIP3    H111745   4.452   4.240   2.995
 3927TIP3    H211746   4.344   4.223   2.891
 3928TIP3   OH211747   7.134   5.947   2.949
 3928TIP3    H111748   7.108   5.869   2.901
 3928TIP3    H211749   7.185   5.999   2.887
 3929TIP3   OH211750   4.602   4.172   0.442
 3929TIP3    H111751   4.657   4.232   0.391
 3929TIP3    H211752   4.624   4.192   0.533
 3930TIP3   OH211753   5.757   1.335   3.090
 3930TIP3    H111754   5.786   1.426   3.095
 3930TIP3    H211755   5.793   1.304   3.006
 3931TIP3   OH211756   5.967   0.861   4.025
 3931TIP3    H111757   6.027   0.879   3.953
 3931TIP3    H211758   6.008   0.900   4.102
 3932TIP3   OH211759   5.854   1.190   3.599
 3932TIP3    H111760   5.881   1.214   3.511
 3932TIP3    H211761   5.772   1.237   3.614
 3933TIP3   OH211762   2.293   6.382   3.683
 3933TIP3    H111763   2.241   6.420   3.754
 3933TIP3    H211764   2.376   6.357   3.726
 3934TIP3   OH211765   3.549   4.755   3.715
 3934TIP3    H111766   3.534   4.790   3.626
 3934TIP3    H211767   3.472   4.783   3.764
 3935TIP3   OH211768   0.775   0.787   3.219
 3935TIP3    H111769   0.870   0.778   3.218
 3935TIP3    H211770   0.746   0.754   3.134
 3936TIP3   OH211771   3.603   3.151   3.063
 3936TIP3    H111772   3.565   3.064   3.079
 3936TIP3    H211773   3.574   3.204   3.137
 3937TIP3   OH211774   0.425   6.338   2.905
 3937TIP3    H111775   0.424   6.421   2.953
 3937TIP3    H211776   0.445   6.272   2.972
 3938TIP3   OH211777   4.229   3.855   4.447
 3938TIP3    H111778   4.252   3.775   4.495
 3938TIP3    H211779   4.308   3.875   4.395
 3939TIP3   OH211780   0.646   6.615   3.038
 3939TIP3    H111781   0.678   6.567   3.114
 3939TIP3    H211782   0.710   6.685   3.025
 3940TIP3   OH211783   1.881   3.747   4.380
 3940TIP3    H111784   1.956   3.733   4.322
 3940TIP3    H211785   1.914   3.726   4.468
 3941TIP3   OH211786   2.420   0.303   1.400
 3941TIP3    H111787   2.436   0.316   1.493
 3941TIP3    H211788   2.378   0.217   1.395
 3942TIP3   OH211789   7.050   0.351   3.777
 3942TIP3    H111790   7.003   0.273   3.806
 3942TIP3    H211791   6.982   0.418   3.772
 3943TIP3   OH211792   4.877   5.170   4.501
 3943TIP3    H111793   4.922   5.221   4.569
 3943TIP3    H211794   4.799   5.136   4.544
 3944TIP3   OH211795   6.061   6.102   0.521
 3944TIP3    H111796   6.113   6.176   0.553
 3944TIP3    H211797   6.078   6.032   0.584
 3945TIP3   OH211798   1.328   4.324   1.408
 3945TIP3    H111799   1.283   4.274   1.340
 3945TIP3    H211800   1.264   4.391   1.434
 3946TIP3   OH211801   1.392   5.834   1.452
 3946TIP3    H111802   1.462   5.893   1.479
 3946TIP3    H211803   1.317   5.891   1.434
 3947TIP3   OH211804   2.199   1.252   2.651
 3947TIP3    H111805   2.152   1.268   2.733
 3947TIP3    H211806   2.272   1.195   2.675
 3948TIP3   OH211807   1.573   0.741   2.998
 3948TIP3    H111808   1.537   0.830   2.995
 3948TIP3    H211809   1.626   0.740   3.078
 3949TIP3   OH211810   6.787   4.823   1.900
 3949TIP3    H111811   6.708   4.859   1.858
 3949TIP3    H211812   6.797   4.737   1.861
 3950TIP3   OH211813   6.557   6.406   0.570
 3950TIP3    H111814   6.639   6.454   0.576
 3950TIP3    H211815   6.495   6.469   0.534
 3951TIP3   OH211816   1.210   2.201   0.503
 3951TIP3    H111817   1.263   2.121   0.507
 3951TIP3    H211818   1.137   2.185   0.561
 3952TIP3   OH211819   5.609   5.916   3.958
 3952TIP3    H111820   5.665   5.901   3.882
 3952TIP3    H211821   5.525   5.943   3.921
 3953TIP3   OH211822   0.675   3.322   1.658
 3953TIP3    H111823   0.769   3.336   1.668
 3953TIP3    H211824   0.635   3.372   1.729
 3954TIP3   OH211825   3.856   0.872   4.220
 3954TIP3    H111826   3.920   0.876   4.148
 3954TIP3    H211827   3.794   0.804   4.193
 3955TIP3   OH211828   4.704   4.570   2.002
 3955TIP3    H111829   4.741   4.572   2.090
 3955TIP3    H211830   4.634   4.505   2.007
 3956TIP3   OH211831   0.795   6.425   4.652
 3956TIP3    H111832   0.774   6.510   4.691
 3956TIP3    H211833   0.838   6.447   4.569
 3957TIP3   OH211834   5.016   6.097   0.868
 3957TIP3    H111835   4.924   6.121   0.858
 3957TIP3    H211836   5.015   6.018   0.922
 3958TIP3   OH211837   2.116   4.082   0.174
 3958TIP3    H111838   2.078   4.157   0.129
 3958TIP3    H211839   2.197   4.117   0.213
 3959TIP3   OH211840   1.503   6.499   5.459
 3959TIP3    H111841   1.428   6.537   5.415
 3959TIP3    H211842   1.480   6.502   5.552
 3960TIP3   OH211843   5.062   5.419   2.801
 3960TIP3    H111844   5.139   5.362   2.792
 3960TIP3    H211845   5.082   5.495   2.747
 3961TIP3   OH211846   0.065   2.127   1.821
 3961TIP3    H111847   0.090   2.036   1.836
 3961TIP3    H211848   0.017   2.152   1.901
 3962TIP3   OH211849   3.704   1.098   3.455
 3962TIP3    H111850   3.765   1.164   3.424
 3962TIP3    H211851   3.753   1.050   3.523
 3963TIP3   OH211852   3.074   4.375   5.824
 3963TIP3    H111853   2.981   4.381   5.801
 3963TIP3    H211854   3.078   4.307   5.891
 3964TIP3   OH211855   3.803   0.269   5.308
 3964TIP3    H111856   3.834   0.342   5.361
 3964TIP3    H211857   3.778   0.202   5.371
 3965TIP3   OH211858   6.316   4.555   5.883
 3965TIP3    H111859   6.403   4.542   5.844
 3965TIP3    H211860   6.300   4.649   5.875
 3966TIP3   OH211861   6.069   5.842   3.864
 3966TIP3    H111862   6.081   5.756   3.825
 3966TIP3    H211863   6.006   5.828   3.935
 3967TIP3   OH211864   6.560   6.288   3.337
 3967TIP3    H111865   6.578   6.215   3.278
 3967TIP3    H211866   6.479   6.327   3.303
 3968TIP3   OH211867   0.588   3.401   0.940
 3968TIP3    H111868   0.520   3.342   0.973
 3968TIP3    H211869   0.546   3.450   0.869
 3969TIP3   OH211870   4.853   5.818   5.418
 3969TIP3    H111871   4.917   5.781   5.479
 3969TIP3    H211872   4.862   5.764   5.339
 3970TIP3   OH211873   2.704   2.820   0.975
 3970TIP3    H111874   2.760   2.875   0.920
 3970TIP3    H211875   2.616   2.855   0.960
 3971TIP3   OH211876   6.518   0.447   5.588
 3971TIP3    H111877   6.426   0.473   5.587
 3971TIP3    H211878   6.536   0.426   5.680
 3972TIP3   OH211879   4.021   4.693   0.496
 3972TIP3    H111880   3.968   4.771   0.512
 3972TIP3    H211881   4.030   4.689   0.401
 3973TIP3   OH211882   0.153   0.504   0.186
 3973TIP3    H111883   0.091   0.433   0.171
 3973TIP3    H211884   0.100   0.584   0.184
 3974TIP3   OH211885   4.063   6.372   5.687
 3974TIP3    H111886   3.993   6.360   5.751
 3974TIP3    H211887   4.087   6.283   5.661
 3975TIP3   OH211888   4.442   2.353   3.399
 3975TIP3    H111889   4.387   2.330   3.325
 3975TIP3    H211890   4.445   2.274   3.453
 3976TIP3   OH211891   1.130   6.697   5.863
 3976TIP3    H111892   1.093   6.610   5.846
 3976TIP3    H211893   1.131   6.704   5.959
 3977TIP3   OH211894   4.054   5.119   4.389
 3977TIP3    H111895   4.131   5.062   4.381
 3977TIP3    H211896   4.043   5.156   4.301
 3978TIP3   OH211897   0.692   1.433   5.516
 3978TIP3    H111898   0.737   1.512   5.547
 3978TIP3    H211899   0.644   1.461   5.439
 3979TIP3   OH211900   3.937   5.568   0.589
 3979TIP3    H111901   3.910   5.554   0.498
 3979TIP3    H211902   3.878   5.635   0.622
 3980TIP3   OH211903   1.519   5.611   5.413
 3980TIP3    H111904   1.510   5.622   5.508
 3980TIP3    H211905   1.536   5.518   5.402
 3981TIP3   OH211906   2.288   2.342   1.067
 3981TIP3    H111907   2.221   2.371   1.006
 3981TIP3    H211908   2.350   2.292   1.013
 3982TIP3   OH211909   6.953   5.274   3.146
 3982TIP3    H111910   6.988   5.329   3.076
 3982TIP3    H211911   7.019   5.207   3.159
 3983TIP3   OH211912   3.219   0.772   4.218
 3983TIP3    H111913   3.218   0.756   4.312
 3983TIP3    H211914   3.188   0.862   4.209
 3984TIP3   OH211915   2.925   3.117   1.964
 3984TIP3    H111916   2.894   3.064   2.038
 3984TIP3    H211917   2.923   3.057   1.889
 3985TIP3   OH211918   4.244   4.066   5.469
 3985TIP3    H111919   4.194   3.986   5.482
 3985TIP3    H211920   4.191   4.119   5.410
 3986TIP3   OH211921   6.865   5.558   1.312
 3986TIP3    H111922   6.865   5.558   1.217
 3986TIP3    H211923   6.824   5.475   1.336
 3987TIP3   OH211924   2.496   6.553   3.567
 3987TIP3    H111925   2.518   6.572   3.658
 3987TIP3    H211926   2.431   6.483   3.572
 3988TIP3   OH211927   3.836   3.924   4.145
 3988TIP3    H111928   3.867   3.893   4.230
 3988TIP3    H211929   3.858   3.854   4.084
 3989TIP3   OH211930   3.204   6.611   2.136
 3989TIP3    H111931   3.257   6.534   2.115
 3989TIP3    H211932   3.267   6.683   2.139
 3990TIP3   OH211933   1.162   2.149   4.079
 3990TIP3    H111934   1.184   2.240   4.056
 3990TIP3    H211935   1.093   2.125   4.018
 3991TIP3   OH211936   0.106   6.604   4.125
 3991TIP3    H111937   0.197   6.590   4.153
 3991TIP3    H211938   0.061   6.635   4.204
 3992TIP3   OH211939   2.600   1.627   4.855
 3992TIP3    H111940   2.540   1.589   4.920
 3992TIP3    H211941   2.573   1.719   4.849
 3993TIP3   OH211942   0.979   4.543   2.477
 3993TIP3    H111943   1.073   4.562   2.481
 3993TIP3    H211944   0.966   4.503   2.392
 3994TIP3   OH211945   5.786   1.598   4.098
 3994TIP3    H111946   5.855   1.532   4.104
 3994TIP3    H211947   5.719   1.567   4.158
 3995TIP3   OH211948   1.558   5.317   5.122
 3995TIP3    H111949   1.576   5.242   5.066
 3995TIP3    H211950   1.473   5.349   5.093
 3996TIP3   OH211951   6.704   4.738   4.081
 3996TIP3    H111952   6.713   4.707   4.171
 3996TIP3    H211953   6.675   4.661   4.032
 3997TIP3   OH211954   5.636   0.597   0.643
 3997TIP3    H111955   5.653   0.689   0.624
 3997TIP3    H211956   5.541   0.587   0.631
 3998TIP3   OH211957   0.396   5.273   2.287
 3998TIP3    H111958   0.480   5.241   2.320
 3998TIP3    H211959   0.409   5.285   2.193
 3999TIP3   OH211960   5.601   3.288   2.409
 3999TIP3    H111961   5.586   3.261   2.500
 3999TIP3    H211962   5.643   3.211   2.368
 4000TIP3   OH211963   7.005   2.711   2.829
 4000TIP3    H111964   7.012   2.663   2.911
 4000TIP3    H211965   7.068   2.669   2.771
 4001TIP3   OH211966   6.686   5.638   5.794
 4001TIP3    H111967   6.678   5.559   5.848
 4001TIP3    H211968   6.753   5.690   5.838
 4002TIP3   OH211969   0.081   5.803   0.287
 4002TIP3    H111970  -0.003   5.763   0.311
 4002TIP3    H211971   0.124   5.737   0.233
 4003TIP3   OH211972   6.547   3.796   0.981
 4003TIP3    H111973   6.618   3.849   0.943
 4003TIP3    H211974   6.568   3.791   1.074
 4004TIP3   OH211975   2.237   2.185   5.058
 4004TIP3    H111976   2.319   2.217   5.021
 4004TIP3    H211977   2.254   2.094   5.080
 4005TIP3   OH211978   1.540   2.087   2.827
 4005TIP3    H111979   1.621   2.139   2.822
 4005TIP3    H211980   1.470   2.152   2.822
 4006TIP3   OH211981   3.943   3.560   4.275
 4006TIP3    H111982   3.863   3.583   4.228
 4006TIP3    H211983   3.914   3.536   4.363
 4007TIP3   OH211984   7.134   1.618   2.996
 4007TIP3    H111985   7.100   1.595   3.083
 4007TIP3    H211986   7.175   1.538   2.965
 4008TIP3   OH211987   4.248   4.832   1.815
 4008TIP3    H111988   4.212   4.748   1.844
 4008TIP3    H211989   4.337   4.811   1.787
 4009TIP3   OH211990   3.817   4.955   2.415
 4009TIP3    H111991   3.794   5.000   2.496
 4009TIP3    H211992   3.830   4.863   2.441
 4010TIP3   OH211993   2.181   4.813   3.733
 4010TIP3    H111994   2.158   4.811   3.640
 4010TIP3    H211995   2.157   4.901   3.762
 4011TIP3   OH211996   1.776   0.359   5.882
 4011TIP3    H111997   1.789   0.394   5.971
 4011TIP3    H211998   1.682   0.365   5.867
 4012TIP3   OH211999   0.171   5.402   0.474
 4012TIP3    H112000   0.150   5.311   0.456
 4012TIP3    H212001   0.129   5.451   0.403
 4013TIP3   OH212002   6.987   3.834   2.632
 4013TIP3    H112003   6.998   3.750   2.588
 4013TIP3    H212004   6.904   3.825   2.680
 4014TIP3   OH212005   2.151   1.097   1.264
 4014TIP3    H112006   2.173   1.090   1.357
 4014TIP3    H212007   2.119   1.009   1.241
 4015TIP3   OH212008   2.590   0.798   3.958
 4015TIP3    H112009   2.648   0.873   3.972
 4015TIP3    H212010   2.630   0.749   3.886
 4016TIP3   OH212011   2.795   6.536   2.538
 4016TIP3    H112012   2.779   6.589   2.460
 4016TIP3    H212013   2.773   6.594   2.611
 4017TIP3   OH212014   5.447   5.619   4.002
 4017TIP3    H112015   5.515   5.555   4.022
 4017TIP3    H212016   5.482   5.668   3.927
 4018TIP3   OH212017   6.229   2.122   0.596
 4018TIP3    H112018   6.170   2.160   0.662
 4018TIP3    H212019   6.301   2.184   0.590
 4019TIP3   OH212020   4.704   3.037   5.760
 4019TIP3    H112021   4.774   3.079   5.710
 4019TIP3    H212022   4.687   3.099   5.832
 4020TIP3   OH212023   2.616   1.345   0.597
 4020TIP3    H112024   2.681   1.402   0.556
 4020TIP3    H212025   2.646   1.256   0.578
 4021TIP3   OH212026   5.536   4.112   3.503
 4021TIP3    H112027   5.469   4.180   3.515
 4021TIP3    H212028   5.617   4.152   3.534
 4022TIP3   OH212029   5.030   3.532   4.172
 4022TIP3    H112030   5.025   3.580   4.255
 4022TIP3    H212031   5.093   3.462   4.190
 4023TIP3   OH212032   3.235   5.012   4.539
 4023TIP3    H112033   3.227   5.107   4.527
 4023TIP3    H212034   3.290   4.983   4.466
 4024TIP3   OH212035   4.038   3.929   5.748
 4024TIP3    H112036   3.946   3.924   5.720
 4024TIP3    H212037   4.088   3.904   5.670
 4025TIP3   OH212038   1.451   5.280   0.484
 4025TIP3    H112039   1.537   5.238   0.495
 4025TIP3    H212040   1.389   5.209   0.496
 4026TIP3   OH212041   3.464   3.388   2.383
 4026TIP3    H112042   3.558   3.390   2.365
 4026TIP3    H212043   3.432   3.312   2.335
 4027TIP3   OH212044   3.786   2.998   0.500
 4027TIP3    H112045   3.745   3.016   0.415
 4027TIP3    H212046   3.757   2.910   0.523
 4028TIP3   OH212047   1.841   6.560   1.938
 4028TIP3    H112048   1.876   6.478   1.971
 4028TIP3    H212049   1.813   6.608   2.016
 4029TIP3   OH212050   0.450   1.884   2.054
 4029TIP3    H112051   0.511   1.935   2.106
 4029TIP3    H212052   0.455   1.921   1.966
 4030TIP3   OH212053   2.457   1.659   4.462
 4030TIP3    H112054   2.551   1.675   4.457
 4030TIP3    H212055   2.418   1.731   4.411
 4031TIP3   OH212056   4.866   1.127   4.843
 4031TIP3    H112057   4.959   1.108   4.855
 4031TIP3    H212058   4.840   1.074   4.768
 4032TIP3   OH212059   0.367   2.759   5.490
 4032TIP3    H112060   0.400   2.710   5.565
 4032TIP3    H212061   0.290   2.805   5.522
 4033TIP3   OH212062   1.414   4.816   0.970
 4033TIP3    H112063   1.365   4.773   0.900
 4033TIP3    H212064   1.414   4.754   1.043
 4034TIP3   OH212065   3.429   2.373   4.023
 4034TIP3    H112066   3.426   2.430   3.946
 4034TIP3    H212067   3.342   2.380   4.062
 4035TIP3   OH212068   6.472   5.509   2.303
 4035TIP3    H112069   6.511   5.584   2.258
 4035TIP3    H212070   6.382   5.537   2.321
 4036TIP3   OH212071   6.949   3.609   5.867
 4036TIP3    H112072   6.963   3.556   5.946
 4036TIP3    H212073   6.858   3.592   5.843
 4037TIP3   OH212074   1.288   5.927   4.460
 4037TIP3    H112075   1.374   5.944   4.497
 4037TIP3    H212076   1.294   5.838   4.424
 4038TIP3   OH212077   4.157   2.954   5.319
 4038TIP3    H112078   4.076   2.962   5.267
 4038TIP3    H212079   4.139   3.003   5.399
 4039TIP3   OH212080   4.702  -0.029   5.112
 4039TIP3    H112081   4.636   0.001   5.175
 4039TIP3    H212082   4.691   0.027   5.036
 4040TIP3   OH212083   3.314   0.524   3.604
 4040TIP3    H112084   3.235   0.576   3.586
 4040TIP3    H212085   3.282   0.435   3.617
 4041TIP3   OH212086   0.360   1.979   2.666
 4041TIP3    H112087   0.291   1.934   2.714
 4041TIP3    H212088   0.354   2.070   2.695
 4042TIP3   OH212089   4.861   2.312   4.349
 4042TIP3    H112090   4.827   2.288   4.263
 4042TIP3    H212091   4.832   2.242   4.407
 4043TIP3   OH212092   3.770   6.197   2.050
 4043TIP3    H112093   3.693   6.218   2.103
 4043TIP3    H212094   3.743   6.122   1.997
 4044TIP3   OH212095   6.059   0.263   2.509
 4044TIP3    H112096   6.049   0.182   2.459
 4044TIP3    H212097   6.106   0.322   2.449
 4045TIP3   OH212098   6.238   1.243   4.341
 4045TIP3    H112099   6.244   1.163   4.394
 4045TIP3    H212100   6.281   1.221   4.259
 4046TIP3   OH212101   6.552   6.374   1.403
 4046TIP3    H112102   6.459   6.396   1.416
 4046TIP3    H212103   6.588   6.451   1.359
 4047TIP3   OH212104   0.123   1.229   2.564
 4047TIP3    H112105   0.080   1.264   2.486
 4047TIP3    H212106   0.164   1.305   2.605
 4048TIP3   OH212107   2.581   2.830   3.564
 4048TIP3    H112108   2.580   2.924   3.585
 4048TIP3    H212109   2.497   2.815   3.521
 4049TIP3   OH212110   6.123   4.004   1.110
 4049TIP3    H112111   6.085   4.088   1.136
 4049TIP3    H212112   6.071   3.976   1.035
 4050TIP3   OH212113   5.250   5.337   4.938
 4050TIP3    H112114   5.262   5.311   4.846
 4050TIP3    H212115   5.156   5.356   4.945
 4051TIP3   OH212116   2.598   6.412   3.177
 4051TIP3    H112117   2.540   6.476   3.218
 4051TIP3    H212118   2.592   6.432   3.083
 4052TIP3   OH212119   2.399   5.824   2.220
 4052TIP3    H112120   2.435   5.891   2.278
 4052TIP3    H212121   2.314   5.860   2.192
 4053TIP3   OH212122   3.446   0.715   5.666
 4053TIP3    H112123   3.416   0.624   5.666
 4053TIP3    H212124   3.431   0.745   5.756
 4054TIP3   OH212125   3.069   5.979   5.717
 4054TIP3    H112126   3.114   5.961   5.634
 4054TIP3    H212127   3.089   6.071   5.736
 4055TIP3   OH212128   2.186   2.358   2.934
 4055TIP3    H112129   2.212   2.275   2.893
 4055TIP3    H212130   2.095   2.370   2.908
 4056TIP3   OH212131   6.363   0.864   1.415
 4056TIP3    H112132   6.358   0.933   1.349
 4056TIP3    H212133   6.383   0.784   1.365
 4057TIP3   OH212134   6.873   2.496   5.264
 4057TIP3    H112135   6.884   2.493   5.359
 4057TIP3    H212136   6.784   2.528   5.251
 4058TIP3   OH212137   0.770   4.069   4.180
 4058TIP3    H112138   0.700   4.110   4.232
 4058TIP3    H212139   0.796   3.993   4.232
 4059TIP3   OH212140   2.284   0.533   5.244
 4059TIP3    H112141   2.372   0.559   5.270
 4059TIP3    H212142   2.264   0.456   5.297
 4060TIP3   OH212143   2.287   0.517   0.700
 4060TIP3    H112144   2.228   0.533   0.773
 4060TIP3    H212145   2.285   0.422   0.688
 4061TIP3   OH212146   0.919   0.959   2.553
 4061TIP3    H112147   0.868   1.037   2.574
 4061TIP3    H212148   0.905   0.945   2.460
 4062TIP3   OH212149   6.758   3.029   3.543
 4062TIP3    H112150   6.785   2.977   3.468
 4062TIP3    H212151   6.694   3.091   3.507
 4063TIP3   OH212152   5.536   4.150   3.134
 4063TIP3    H112153   5.446   4.178   3.120
 4063TIP3    H212154   5.544   4.068   3.085
 4064TIP3   OH212155   3.884   2.656   5.228
 4064TIP3    H112156   3.972   2.626   5.248
 4064TIP3    H212157   3.831   2.625   5.301
 4065TIP3   OH212158   6.977   2.157   0.168
 4065TIP3    H112159   6.976   2.065   0.194
 4065TIP3    H212160   6.932   2.159   0.084
 4066TIP3   OH212161   7.271   5.156   1.213
 4066TIP3    H112162   7.266   5.061   1.230
 4066TIP3    H212163   7.200   5.193   1.265
 4067TIP3   OH212164   0.011   5.548   5.415
 4067TIP3    H112165  -0.053   5.553   5.344
 4067TIP3    H212166   0.056   5.633   5.412
 4068TIP3   OH212167   2.234   4.575   0.214
 4068TIP3    H112168   2.219   4.618   0.299
 4068TIP3    H212169   2.247   4.482   0.236
 4069TIP3   OH212170   4.981   3.756   2.320
 4069TIP3    H112171   4.888   3.745   2.299
 4069TIP3    H212172   5.012   3.821   2.257
 4070TIP3   OH212173   2.453   0.966   3.073
 4070TIP3    H112174   2.459   0.904   3.146
 4070TIP3    H212175   2.467   1.051   3.114
 4071TIP3   OH212176   5.943   3.711  -0.026
 4071TIP3    H112177   5.910   3.698   0.063
 4071TIP3    H212178   6.037   3.720  -0.016
 4072TIP3   OH212179   2.772   3.398   2.726
 4072TIP3    H112180   2.715   3.326   2.700
 4072TIP3    H212181   2.845   3.355   2.772
 4073TIP3   OH212182   6.867   0.147   3.847
 4073TIP3    H112183   6.850   0.076   3.786
 4073TIP3    H212184   6.781   0.175   3.877
 4074TIP3   OH212185   3.413   4.031   0.529
 4074TIP3    H112186   3.386   4.001   0.442
 4074TIP3    H212187   3.332   4.063   0.569
 4075TIP3   OH212188   3.576   5.379   5.726
 4075TIP3    H112189   3.564   5.470   5.754
 4075TIP3    H212190   3.630   5.385   5.647
 4076TIP3   OH212191   6.790   2.539   2.402
 4076TIP3    H112192   6.772   2.558   2.494
 4076TIP3    H212193   6.703   2.533   2.361
 4077TIP3   OH212194   2.565   3.689   2.291
 4077TIP3    H112195   2.477   3.708   2.324
 4077TIP3    H212196   2.615   3.666   2.369
 4078TIP3   OH212197   6.680   0.154   4.910
 4078TIP3    H112198   6.674   0.196   4.824
 4078TIP3    H212199   6.773   0.150   4.929
 4079TIP3   OH212200   3.626   0.480   1.055
 4079TIP3    H112201   3.703   0.465   1.111
 4079TIP3    H212202   3.557   0.502   1.117
 4080TIP3   OH212203   2.137   5.924   0.077
 4080TIP3    H112204   2.145   5.928  -0.018
 4080TIP3    H212205   2.221   5.956   0.110
 4081TIP3   OH212206   5.518   2.510   1.956
 4081TIP3    H112207   5.576   2.575   1.994
 4081TIP3    H212208   5.576   2.437   1.931
 4082TIP3   OH212209   2.538   2.598   0.173
 4082TIP3    H112210   2.484   2.548   0.234
 4082TIP3    H212211   2.490   2.680   0.160
 4083TIP3   OH212212   6.000   3.018   2.100
 4083TIP3    H112213   6.087   3.032   2.138
 4083TIP3    H212214   5.962   3.106   2.096
 4084TIP3   OH212215   2.120   6.751   4.386
 4084TIP3    H112216   2.071   6.705   4.455
 4084TIP3    H212217   2.184   6.803   4.434
 4085TIP3   OH212218   4.665   1.813   0.455
 4085TIP3    H112219   4.579   1.850   0.475
 4085TIP3    H212220   4.727   1.880   0.485
 4086TIP3   OH212221   6.913   5.155   1.302
 4086TIP3    H112222   6.919   5.064   1.271
 4086TIP3    H212223   6.896   5.147   1.396
 4087TIP3   OH212224   5.559   2.282   2.313
 4087TIP3    H112225   5.641   2.233   2.321
 4087TIP3    H212226   5.491   2.214   2.317
 4088TIP3   OH212227   0.073   5.641   1.755
 4088TIP3    H112228   0.145   5.619   1.815
 4088TIP3    H212229   0.036   5.721   1.791
 4089TIP3   OH212230   6.129   5.149   1.694
 4089TIP3    H112231   6.059   5.106   1.742
 4089TIP3    H212232   6.092   5.233   1.666
 4090TIP3   OH212233   0.547   2.829   4.180
 4090TIP3    H112234   0.582   2.811   4.093
 4090TIP3    H212235   0.460   2.789   4.180
 4091TIP3   OH212236   0.696   1.029   0.491
 4091TIP3    H112237   0.631   1.086   0.451
 4091TIP3    H212238   0.671   0.941   0.465
 4092TIP3   OH212239   2.414   3.687   4.321
 4092TIP3    H112240   2.461   3.643   4.393
 4092TIP3    H212241   2.333   3.718   4.361
 4093TIP3   OH212242   5.896   5.388   1.425
 4093TIP3    H112243   5.950   5.371   1.502
 4093TIP3    H212244   5.816   5.339   1.441
 4094TIP3   OH212245   6.500   1.797   3.753
 4094TIP3    H112246   6.459   1.875   3.790
 4094TIP3    H212247   6.426   1.743   3.724
 4095TIP3   OH212248   5.383   2.425   3.231
 4095TIP3    H112249   5.375   2.344   3.281
 4095TIP3    H212250   5.385   2.397   3.139
 4096TIP3   OH212251   6.204   3.295   4.021
 4096TIP3    H112252   6.295   3.318   4.002
 4096TIP3    H212253   6.164   3.284   3.935
 4097TIP3   OH212254   3.842   2.721   2.516
 4097TIP3    H112255   3.893   2.803   2.513
 4097TIP3    H212256   3.786   2.725   2.439
 4098TIP3   OH212257   4.237   0.304   4.192
 4098TIP3    H112258   4.250   0.210   4.202
 4098TIP3    H212259   4.318   0.335   4.151
 4099TIP3   OH212260   0.130   0.791   0.134
 4099TIP3    H112261   0.082   0.865   0.172
 4099TIP3    H212262   0.221   0.808   0.156
 4100TIP3   OH212263   4.730   1.914   3.398
 4100TIP3    H112264   4.805   1.936   3.342
 4100TIP3    H212265   4.656   1.907   3.338
 4101TIP3   OH212266   3.061   0.050   1.473
 4101TIP3    H112267   3.094   0.093   1.552
 4101TIP3    H212268   3.052  -0.042   1.499
 4102TIP3   OH212269   1.850   3.981   2.919
 4102TIP3    H112270   1.909   3.973   2.994
 4102TIP3    H212271   1.905   4.009   2.847
 4103TIP3   OH212272   4.986   3.920   1.391
 4103TIP3    H112273   5.044   3.960   1.456
 4103TIP3    H212274   4.931   3.861   1.442
 4104TIP3   OH212275   4.858   3.243   4.917
 4104TIP3    H112276   4.763   3.238   4.924
 4104TIP3    H212277   4.890   3.174   4.975
 4105TIP3   OH212278   5.256   5.707   3.319
 4105TIP3    H112279   5.298   5.621   3.330
 4105TIP3    H212280   5.328   5.769   3.330
 4106TIP3   OH212281   2.841   1.901   4.695
 4106TIP3    H112282   2.886   1.984   4.709
 4106TIP3    H212283   2.911   1.838   4.678
 4107TIP3   OH212284   5.385   3.607   1.280
 4107TIP3    H112285   5.355   3.521   1.249
 4107TIP3    H212286   5.313   3.640   1.333
 4108TIP3   OH212287   0.679   2.777   3.926
 4108TIP3    H112288   0.756   2.720   3.926
 4108TIP3    H212289   0.614   2.729   3.875
 4109TIP3   OH212290   5.268   5.458   3.049
 4109TIP3    H112291   5.221   5.432   3.128
 4109TIP3    H212292   5.245   5.391   2.985
 4110TIP3   OH212293   5.292   1.896   5.174
 4110TIP3    H112294   5.347   1.880   5.098
 4110TIP3    H212295   5.339   1.857   5.247
 4111TIP3   OH212296   3.959   6.485   3.337
 4111TIP3    H112297   3.869   6.463   3.316
 4111TIP3    H212298   4.001   6.496   3.252
 4112TIP3   OH212299   4.990   6.494   3.136
 4112TIP3    H112300   4.919   6.452   3.087
 4112TIP3    H212301   5.045   6.534   3.068
 4113TIP3   OH212302   1.618   4.851   1.773
 4113TIP3    H112303   1.672   4.777   1.747
 4113TIP3    H212304   1.671   4.928   1.754
 4114TIP3   OH212305   2.524   0.599   0.974
 4114TIP3    H112306   2.561   0.688   0.972
 4114TIP3    H212307   2.589   0.545   0.929
 4115TIP3   OH212308   1.991   3.831   3.749
 4115TIP3    H112309   2.055   3.774   3.792
 4115TIP3    H212310   1.916   3.832   3.809
 4116TIP3   OH212311   0.035   4.633   2.987
 4116TIP3    H112312   0.006   4.636   3.079
 4116TIP3    H212313   0.050   4.725   2.964
 4117TIP3   OH212314   4.488   1.968   0.190
 4117TIP3    H112315   4.502   1.873   0.188
 4117TIP3    H212316   4.552   2.003   0.129
 4118TIP3   OH212317   6.447   3.052   5.058
 4118TIP3    H112318   6.441   3.146   5.074
 4118TIP3    H212319   6.478   3.015   5.140
 4119TIP3   OH212320   5.995   6.373   3.012
 4119TIP3    H112321   5.990   6.411   2.925
 4119TIP3    H212322   5.962   6.284   3.002
 4120TIP3   OH212323   5.198   1.523   4.458
 4120TIP3    H112324   5.178   1.589   4.392
 4120TIP3    H212325   5.113   1.484   4.479
 4121TIP3   OH212326   6.415   1.367   2.270
 4121TIP3    H112327   6.435   1.312   2.346
 4121TIP3    H212328   6.500   1.377   2.226
 4122TIP3   OH212329   2.475   2.325   4.979
 4122TIP3    H112330   2.466   2.419   4.999
 4122TIP3    H212331   2.569   2.308   4.985
 4123TIP3   OH212332   5.783   5.962   3.119
 4123TIP3    H112333   5.744   5.882   3.081
 4123TIP3    H212334   5.726   6.033   3.087
 4124TIP3   OH212335   5.258   3.868   2.454
 4124TIP3    H112336   5.288   3.880   2.544
 4124TIP3    H212337   5.326   3.908   2.400
 4125TIP3   OH212338   1.068   1.882   0.106
 4125TIP3    H112339   1.099   1.871   0.016
 4125TIP3    H212340   1.109   1.964   0.136
 4126TIP3   OH212341   1.908   6.335   2.922
 4126TIP3    H112342   1.838   6.371   2.867
 4126TIP3    H212343   1.984   6.328   2.864
 4127TIP3   OH212344   1.308   0.718   2.345
 4127TIP3    H112345   1.398   0.747   2.330
 4127TIP3    H212346   1.260   0.799   2.363
 4128TIP3   OH212347   2.863   4.454   2.344
 4128TIP3    H112348   2.855   4.550   2.343
 4128TIP3    H212349   2.773   4.423   2.347
 4129TIP3   OH212350   3.736   5.199   5.362
 4129TIP3    H112351   3.688   5.149   5.428
 4129TIP3    H212352   3.819   5.152   5.352
 4130TIP3   OH212353   2.048   5.277   3.488
 4130TIP3    H112354   2.102   5.355   3.494
 4130TIP3    H212355   1.966   5.306   3.447
 4131TIP3   OH212356   6.744   4.446   0.409
 4131TIP3    H112357   6.657   4.453   0.448
 4131TIP3    H212358   6.743   4.508   0.336
 4132TIP3   OH212359   6.001   5.747   5.134
 4132TIP3    H112360   6.086   5.708   5.113
 4132TIP3    H212361   6.005   5.764   5.228
 4133TIP3   OH212362   2.845   6.518   5.340
 4133TIP3    H112363   2.851   6.561   5.425
 4133TIP3    H212364   2.930   6.476   5.328
 4134TIP3   OH212365   0.515   0.010   0.627
 4134TIP3    H112366   0.525   0.079   0.693
 4134TIP3    H212367   0.432   0.031   0.584
 4135TIP3   OH212368   5.858   0.319   1.019
 4135TIP3    H112369   5.924   0.250   1.007
 4135TIP3    H212370   5.782   0.287   0.970
 4136TIP3   OH212371   2.110   2.183   4.412
 4136TIP3    H112372   2.197   2.221   4.423
 4136TIP3    H212373   2.091   2.141   4.496
 4137TIP3   OH212374   0.057   4.140   4.038
 4137TIP3    H112375   0.107   4.207   3.993
 4137TIP3    H212376  -0.012   4.115   3.976
 4138TIP3   OH212377   0.636   3.395   3.877
 4138TIP3    H112378   0.677   3.338   3.942
 4138TIP3    H212379   0.543   3.377   3.885
 4139TIP3   OH212380   4.197   2.430   1.593
 4139TIP3    H112381   4.199   2.526   1.594
 4139TIP3    H212382   4.184   2.405   1.684
 4140TIP3   OH212383   4.314   0.777   2.567
 4140TIP3    H112384   4.406   0.796   2.585
 4140TIP3    H212385   4.279   0.858   2.529
 4141TIP3   OH212386   1.824   2.177   3.105
 4141TIP3    H112387   1.849   2.199   3.195
 4141TIP3    H212388   1.850   2.085   3.095
 4142TIP3   OH212389   6.455   5.489   1.475
 4142TIP3    H112390   6.528   5.552   1.474
 4142TIP3    H212391   6.443   5.467   1.567
 4143TIP3   OH212392   4.692   4.346   1.580
 4143TIP3    H112393   4.704   4.360   1.673
 4143TIP3    H212394   4.732   4.261   1.562
 4144TIP3   OH212395   4.715   6.271   4.094
 4144TIP3    H112396   4.722   6.186   4.051
 4144TIP3    H212397   4.725   6.251   4.187
 4145TIP3   OH212398   0.255   6.703   0.337
 4145TIP3    H112399   0.198   6.628   0.355
 4145TIP3    H212400   0.266   6.702   0.242
 4146TIP3   OH212401   2.731   1.449   0.208
 4146TIP3    H112402   2.672   1.494   0.268
 4146TIP3    H212403   2.805   1.422   0.262
 4147TIP3   OH212404   6.331   4.488   3.339
 4147TIP3    H112405   6.392   4.519   3.407
 4147TIP3    H212406   6.245   4.508   3.375
 4148TIP3   OH212407   0.533   3.104   0.917
 4148TIP3    H112408   0.555   3.047   0.843
 4148TIP3    H212409   0.616   3.121   0.961
 4149TIP3   OH212410   6.546   1.556   1.438
 4149TIP3    H112411   6.624   1.580   1.487
 4149TIP3    H212412   6.525   1.467   1.466
 4150TIP3   OH212413   0.746   0.220   3.800
 4150TIP3    H112414   0.710   0.162   3.733
 4150TIP3    H212415   0.800   0.282   3.751
 4151TIP3   OH212416   0.453   5.591   2.216
 4151TIP3    H112417   0.503   5.532   2.272
 4151TIP3    H212418   0.434   5.667   2.272
 4152TIP3   OH212419   1.430   6.064   5.221
 4152TIP3    H112420   1.517   6.104   5.216
 4152TIP3    H212421   1.445   5.972   5.196
 4153TIP3   OH212422   2.215   4.835   2.249
 4153TIP3    H112423   2.227   4.777   2.174
 4153TIP3    H212424   2.129   4.812   2.284
 4154TIP3   OH212425   3.603   2.829   1.978
 4154TIP3    H112426   3.585   2.740   2.010
 4154TIP3    H212427   3.659   2.867   2.046
 4155TIP3   OH212428   0.880   5.935   4.825
 4155TIP3    H112429   0.888   5.984   4.907
 4155TIP3    H212430   0.970   5.918   4.798
 4156TIP3   OH212431   6.779   2.952   0.617
 4156TIP3    H112432   6.866   2.917   0.636
 4156TIP3    H212433   6.768   2.941   0.523
 4157TIP3   OH212434   0.749   3.761   2.367
 4157TIP3    H112435   0.766   3.851   2.394
 4157TIP3    H212436   0.760   3.709   2.446
 4158TIP3   OH212437   4.093   0.567   0.561
 4158TIP3    H112438   4.166   0.518   0.523
 4158TIP3    H212439   4.075   0.636   0.497
 4159TIP3   OH212440   4.794   2.195   3.332
 4159TIP3    H112441   4.863   2.256   3.358
 4159TIP3    H212442   4.800   2.123   3.395
 4160TIP3   OH212443   1.977   2.650   0.112
 4160TIP3    H112444   2.028   2.575   0.080
 4160TIP3    H212445   2.037   2.724   0.104
 4161TIP3   OH212446   4.795   5.780   3.388
 4161TIP3    H112447   4.872   5.812   3.435
 4161TIP3    H212448   4.763   5.856   3.340
 4162TIP3   OH212449   4.450   6.175   0.287
 4162TIP3    H112450   4.440   6.228   0.208
 4162TIP3    H212451   4.383   6.107   0.278
 4163TIP3   OH212452   5.035   1.942   5.024
 4163TIP3    H112453   4.947   1.908   5.034
 4163TIP3    H212454   5.083   1.909   5.100
 4164TIP3   OH212455   2.575   5.660   0.284
 4164TIP3    H112456   2.493   5.663   0.334
 4164TIP3    H212457   2.622   5.584   0.319
 4165TIP3   OH212458   2.500   5.616   0.013
 4165TIP3    H112459   2.467   5.530   0.039
 4165TIP3    H212460   2.559   5.643   0.084
 4166TIP3   OH212461   2.066   5.715   1.104
 4166TIP3    H112462   1.980   5.758   1.105
 4166TIP3    H212463   2.052   5.634   1.056
 4167TIP3   OH212464   1.711   5.480   4.961
 4167TIP3    H112465   1.643   5.524   4.910
 4167TIP3    H212466   1.665   5.441   5.035
 4168TIP3   OH212467   1.129   3.113   2.783
 4168TIP3    H112468   1.084   3.041   2.739
 4168TIP3    H212469   1.169   3.073   2.860
 4169TIP3   OH212470   1.159   2.578   2.594
 4169TIP3    H112471   1.119   2.506   2.544
 4169TIP3    H212472   1.136   2.560   2.685
 4170TIP3   OH212473   4.911   2.557   3.014
 4170TIP3    H112474   4.856   2.634   3.029
 4170TIP3    H212475   4.855   2.484   3.040
 4171TIP3   OH212476   6.718   0.669   2.765
 4171TIP3    H112477   6.643   0.636   2.715
 4171TIP3    H212478   6.682   0.742   2.817
 4172TIP3   OH212479   2.243   4.924   5.529
 4172TIP3    H112480   2.219   4.978   5.453
 4172TIP3    H212481   2.175   4.943   5.594
 4173TIP3   OH212482   3.902   1.805   1.212
 4173TIP3    H112483   3.885   1.896   1.187
 4173TIP3    H212484   3.817   1.762   1.202
 4174TIP3   OH212485   1.457   5.628   2.745
 4174TIP3    H112486   1.538   5.629   2.695
 4174TIP3    H212487   1.484   5.621   2.836
 4175TIP3   OH212488   1.050   3.042   4.618
 4175TIP3    H112489   1.131   3.035   4.669
 4175TIP3    H212490   1.080   3.045   4.527
 4176TIP3   OH212491   6.185   2.625   2.678
 4176TIP3    H112492   6.274   2.637   2.710
 4176TIP3    H212493   6.196   2.597   2.587
 4177TIP3   OH212494   3.143   0.950   0.867
 4177TIP3    H112495   3.144   0.908   0.953
 4177TIP3    H212496   3.108   0.883   0.809
 4178TIP3   OH212497   5.559   6.626   1.971
 4178TIP3    H112498   5.608   6.592   2.045
 4178TIP3    H212499   5.468   6.600   1.987
 4179TIP3   OH212500   6.415   0.251   3.617
 4179TIP3    H112501   6.357   0.290   3.552
 4179TIP3    H212502   6.381   0.281   3.701
 4180TIP3   OH212503   2.035   6.688   1.139
 4180TIP3    H112504   1.945   6.720   1.133
 4180TIP3    H212505   2.033   6.623   1.210
 4181TIP3   OH212506   2.557   5.183   5.043
 4181TIP3    H112507   2.604   5.124   4.984
 4181TIP3    H212508   2.490   5.224   4.989
 4182TIP3   OH212509   1.466   5.986   0.770
 4182TIP3    H112510   1.489   5.903   0.729
 4182TIP3    H212511   1.441   6.043   0.697
 4183TIP3   OH212512   2.666   0.036   5.354
 4183TIP3    H112513   2.610   0.037   5.432
 4183TIP3    H212514   2.605   0.048   5.281
 4184TIP3   OH212515   4.440   4.692   0.594
 4184TIP3    H112516   4.496   4.660   0.664
 4184TIP3    H212517   4.358   4.644   0.605
 4185TIP3   OH212518   5.131   4.613   3.853
 4185TIP3    H112519   5.036   4.602   3.859
 4185TIP3    H212520   5.163   4.594   3.941
 4186TIP3   OH212521   4.714   6.546   5.030
 4186TIP3    H112522   4.683   6.462   5.062
 4186TIP3    H212523   4.786   6.569   5.089
 4187TIP3   OH212524   3.320   2.061   1.163
 4187TIP3    H112525   3.408   2.065   1.202
 4187TIP3    H212526   3.262   2.044   1.237
 4188TIP3   OH212527   0.440   0.547   3.684
 4188TIP3    H112528   0.461   0.540   3.777
 4188TIP3    H212529   0.502   0.488   3.641
 4189TIP3   OH212530   5.715   4.061   2.254
 4189TIP3    H112531   5.714   4.150   2.289
 4189TIP3    H212532   5.801   4.054   2.212
 4190TIP3   OH212533   3.428   0.307   1.556
 4190TIP3    H112534   3.420   0.396   1.524
 4190TIP3    H212535   3.423   0.253   1.477
 4191TIP3   OH212536   5.758   4.968   1.508
 4191TIP3    H112537   5.685   4.949   1.566
 4191TIP3    H212538   5.781   4.884   1.470
 4192TIP3   OH212539   0.512   5.373   0.585
 4192TIP3    H112540   0.426   5.329   0.581
 4192TIP3    H212541   0.502   5.438   0.654
 4193TIP3   OH212542   3.031   1.743   4.398
 4193TIP3    H112543   3.014   1.666   4.452
 4193TIP3    H212544   3.048   1.813   4.461
 4194TIP3   OH212545   4.129   3.685   5.161
 4194TIP3    H112546   4.070   3.760   5.157
 4194TIP3    H212547   4.199   3.706   5.099
 4195TIP3   OH212548   0.882   3.583   3.726
 4195TIP3    H112549   0.866   3.560   3.817
 4195TIP3    H212550   0.952   3.648   3.730
 4196TIP3   OH212551   2.593   2.478   1.805
 4196TIP3    H112552   2.515   2.511   1.849
 4196TIP3    H212553   2.576   2.385   1.792
 4197TIP3   OH212554   5.876   3.746   3.329
 4197TIP3    H112555   5.833   3.727   3.412
 4197TIP3    H212556   5.849   3.836   3.309
 4198TIP3   OH212557   3.882   2.840   1.260
 4198TIP3    H112558   3.879   2.932   1.285
 4198TIP3    H212559   3.797   2.805   1.285
 4199TIP3   OH212560   6.708   2.053   0.880
 4199TIP3    H112561   6.770   2.077   0.811
 4199TIP3    H212562   6.622   2.062   0.839
 4200TIP3   OH212563   4.861   5.710   0.090
 4200TIP3    H112564   4.948   5.733   0.058
 4200TIP3    H212565   4.801   5.766   0.040
 4201TIP3   OH212566   6.169   0.172   4.506
 4201TIP3    H112567   6.080   0.147   4.481
 4201TIP3    H212568   6.206   0.094   4.547
 4202TIP3   OH212569   1.497   5.301   3.007
 4202TIP3    H112570   1.570   5.344   2.962
 4202TIP3    H212571   1.496   5.341   3.093
 4203TIP3   OH212572   5.251   3.741   5.162
 4203TIP3    H112573   5.336   3.698   5.166
 4203TIP3    H212574   5.206   3.711   5.241
 4204TIP3   OH212575   0.489   1.218   3.942
 4204TIP3    H112576   0.556   1.151   3.960
 4204TIP3    H212577   0.539   1.299   3.930
 4205TIP3   OH212578   6.040   4.425   2.461
 4205TIP3    H112579   6.114   4.482   2.438
 4205TIP3    H212580   5.999   4.404   2.377
 4206TIP3   OH212581   0.277   5.666   3.762
 4206TIP3    H112582   0.259   5.701   3.850
 4206TIP3    H212583   0.256   5.573   3.769
 4207TIP3   OH212584   1.429   0.030   3.710
 4207TIP3    H112585   1.487   0.037   3.787
 4207TIP3    H212586   1.468   0.089   3.646
 4208TIP3   OH212587   5.792   4.095   1.848
 4208TIP3    H112588   5.777   4.107   1.754
 4208TIP3    H212589   5.745   4.015   1.870
 4209TIP3   OH212590   2.759   3.841   0.388
 4209TIP3    H112591   2.702   3.879   0.322
 4209TIP3    H212592   2.747   3.896   0.465
 4210TIP3   OH212593   2.503   0.679   4.737
 4210TIP3    H112594   2.563   0.613   4.772
 4210TIP3    H212595   2.420   0.662   4.781
 4211TIP3   OH212596   2.090   0.865   3.498
 4211TIP3    H112597   2.074   0.883   3.590
 4211TIP3    H212598   2.004   0.871   3.457
 4212TIP3   OH212599   0.335   1.585   2.359
 4212TIP3    H112600   0.343   1.679   2.379
 4212TIP3    H212601   0.279   1.550   2.428
 4213TIP3   OH212602   4.376   3.279   3.752
 4213TIP3    H112603   4.431   3.260   3.676
 4213TIP3    H212604   4.326   3.199   3.766
 4214TIP3   OH212605   5.942   1.030   5.182
 4214TIP3    H112606   5.964   1.022   5.275
 4214TIP3    H212607   6.026   1.027   5.137
 4215TIP3   OH212608   6.983   4.879   1.273
 4215TIP3    H112609   6.971   4.837   1.358
 4215TIP3    H212610   7.078   4.884   1.262
 4216TIP3   OH212611   2.841   0.789   2.115
 4216TIP3    H112612   2.906   0.857   2.127
 4216TIP3    H212613   2.842   0.739   2.198
 4217TIP3   OH212614   4.482   3.927   4.346
 4217TIP3    H112615   4.502   3.982   4.422
 4217TIP3    H212616   4.467   3.989   4.274
 4218TIP3   OH212617   4.272   0.052   0.562
 4218TIP3    H112618   4.201   0.014   0.510
 4218TIP3    H212619   4.252   0.027   0.652
 4219TIP3   OH212620   2.647   4.329   4.542
 4219TIP3    H112621   2.655   4.233   4.549
 4219TIP3    H212622   2.737   4.360   4.540
 4220TIP3   OH212623   5.340   4.649   1.557
 4220TIP3    H112624   5.289   4.701   1.496
 4220TIP3    H212625   5.282   4.577   1.582
 4221TIP3   OH212626   3.563   5.512   3.223
 4221TIP3    H112627   3.638   5.484   3.276
 4221TIP3    H212628   3.595   5.589   3.176
 4222TIP3   OH212629   4.030   5.056   2.246
 4222TIP3    H112630   3.975   4.988   2.286
 4222TIP3    H212631   3.986   5.138   2.267
 4223TIP3   OH212632   3.456   1.252   5.342
 4223TIP3    H112633   3.394   1.190   5.380
 4223TIP3    H212634   3.538   1.234   5.388
 4224TIP3   OH212635   0.222   0.402   2.976
 4224TIP3    H112636   0.185   0.489   2.963
 4224TIP3    H212637   0.185   0.350   2.905
 4225TIP3   OH212638   3.069   1.059   4.305
 4225TIP3    H112639   3.004   0.989   4.311
 4225TIP3    H212640   3.017   1.139   4.313
 4226TIP3   OH212641   3.992   2.791   4.892
 4226TIP3    H112642   4.077   2.748   4.887
 4226TIP3    H212643   3.932   2.730   4.850
 4227TIP3   OH212644   1.787   2.250   1.145
 4227TIP3    H112645   1.750   2.321   1.198
 4227TIP3    H212646   1.812   2.183   1.208
 4228TIP3   OH212647   6.298   2.817   3.168
 4228TIP3    H112648   6.258   2.894   3.129
 4228TIP3    H212649   6.250   2.804   3.250
 4229TIP3   OH212650   4.248   0.655   5.710
 4229TIP3    H112651   4.325   0.674   5.657
 4229TIP3    H212652   4.274   0.579   5.763
 4230TIP3   OH212653   2.659   0.793   5.043
 4230TIP3    H112654   2.648   0.792   4.948
 4230TIP3    H212655   2.607   0.868   5.072
 4231TIP3   OH212656   4.076   2.070   1.004
 4231TIP3    H112657   3.983   2.056   1.021
 4231TIP3    H212658   4.081   2.160   0.971
 4232TIP3   OH212659   2.345   0.011   0.244
 4232TIP3    H112660   2.255  -0.018   0.261
 4232TIP3    H212661   2.341   0.106   0.255
 4233TIP3   OH212662   7.038   5.162   5.398
 4233TIP3    H112663   7.048   5.203   5.312
 4233TIP3    H212664   6.965   5.208   5.439
 4234TIP3   OH212665   0.488  -0.050   2.277
 4234TIP3    H112666   0.569  -0.082   2.317
 4234TIP3    H212667   0.514   0.028   2.228
 4235TIP3   OH212668   0.897   1.448   5.214
 4235TIP3    H112669   0.824   1.442   5.153
 4235TIP3    H212670   0.973   1.464   5.159
 4236TIP3   OH212671   6.560   0.933   5.579
 4236TIP3    H112672   6.649   0.915   5.548
 4236TIP3    H212673   6.545   0.868   5.648
 4237TIP3   OH212674   1.577   3.499   5.607
 4237TIP3    H112675   1.668   3.496   5.579
 4237TIP3    H212676   1.527   3.473   5.529
 4238TIP3   OH212677   1.922   3.582   0.848
 4238TIP3    H112678   1.883   3.530   0.778
 4238TIP3    H212679   1.967   3.518   0.904
 4239TIP3   OH212680   3.437   3.780   5.623
 4239TIP3    H112681   3.356   3.770   5.572
 4239TIP3    H212682   3.503   3.803   5.557
 4240TIP3   OH212683   0.141   2.395   1.918
 4240TIP3    H112684   0.090   2.476   1.911
 4240TIP3    H212685   0.097   2.333   1.859
 4241TIP3   OH212686   4.891   6.165   5.175
 4241TIP3    H112687   4.936   6.248   5.164
 4241TIP3    H212688   4.960   6.099   5.170
 4242TIP3   OH212689   4.759   3.888   1.856
 4242TIP3    H112690   4.813   3.967   1.860
 4242TIP3    H212691   4.713   3.887   1.940
 4243TIP3   OH212692   0.990   6.150   5.699
 4243TIP3    H112693   1.077   6.183   5.675
 4243TIP3    H212694   1.007   6.072   5.752
 4244TIP3   OH212695   5.349   1.641   2.163
 4244TIP3    H112696   5.391   1.557   2.143
 4244TIP3    H212697   5.283   1.652   2.096
 4245TIP3   OH212698   5.770   4.610   0.632
 4245TIP3    H112699   5.848   4.632   0.683
 4245TIP3    H212700   5.713   4.564   0.693
 4246TIP3   OH212701   4.530   0.971   2.047
 4246TIP3    H112702   4.598   0.909   2.072
 4246TIP3    H212703   4.527   0.967   1.951
 4247TIP3   OH212704   1.560   1.092   1.896
 4247TIP3    H112705   1.581   1.185   1.890
 4247TIP3    H212706   1.502   1.075   1.822
 4248TIP3   OH212707   5.115   3.963   3.707
 4248TIP3    H112708   5.109   3.897   3.777
 4248TIP3    H212709   5.055   4.032   3.734
 4249TIP3   OH212710   0.819   4.877   4.389
 4249TIP3    H112711   0.748   4.815   4.408
 4249TIP3    H212712   0.849   4.854   4.301
 4250TIP3   OH212713   5.674   3.993   0.716
 4250TIP3    H112714   5.653   4.084   0.737
 4250TIP3    H212715   5.769   3.987   0.724
 4251TIP3   OH212716   1.402   5.008   2.656
 4251TIP3    H112717   1.339   4.948   2.695
 4251TIP3    H212718   1.396   5.088   2.709
 4252TIP3   OH212719   2.557   0.445   0.392
 4252TIP3    H112720   2.561   0.484   0.479
 4252TIP3    H212721   2.639   0.395   0.384
 4253TIP3   OH212722   1.784   4.710   0.786
 4253TIP3    H112723   1.749   4.753   0.863
 4253TIP3    H212724   1.707   4.691   0.732
 4254TIP3   OH212725   6.902   6.150   1.435
 4254TIP3    H112726   6.913   6.188   1.522
 4254TIP3    H212727   6.982   6.099   1.420
 4255TIP3   OH212728   0.257   2.110   4.441
 4255TIP3    H112729   0.275   2.187   4.388
 4255TIP3    H212730   0.195   2.140   4.508
 4256TIP3   OH212731   1.403   5.760   0.000
 4256TIP3    H112732   1.448   5.768   0.084
 4256TIP3    H212733   1.313   5.737   0.023
 4257TIP3   OH212734   2.178   5.242   0.160
 4257TIP3    H112735   2.243   5.188   0.114
 4257TIP3    H212736   2.137   5.294   0.092
 4258TIP3   OH212737   2.121   6.493   4.857
 4258TIP3    H112738   2.193   6.444   4.896
 4258TIP3    H212739   2.092   6.439   4.783
 4259TIP3   OH212740   6.541   6.468   0.096
 4259TIP3    H112741   6.613   6.418   0.134
 4259TIP3    H212742   6.565   6.560   0.112
 4260TIP3   OH212743   2.954   6.712   4.623
 4260TIP3    H112744   3.019   6.782   4.630
 4260TIP3    H212745   2.894   6.726   4.696
 4261TIP3   OH212746   5.343   3.094   4.480
 4261TIP3    H112747   5.384   3.044   4.550
 4261TIP3    H212748   5.379   3.182   4.489
 4262TIP3   OH212749   5.922   2.312   1.180
 4262TIP3    H112750   5.939   2.373   1.251
 4262TIP3    H212751   5.964   2.350   1.103
 4263TIP3   OH212752   0.494   4.559   2.789
 4263TIP3    H112753   0.509   4.595   2.702
 4263TIP3    H212754   0.450   4.629   2.837
 4264TIP3   OH212755   5.655   3.348   5.549
 4264TIP3    H112756   5.742   3.370   5.583
 4264TIP3    H212757   5.642   3.257   5.574
 4265TIP3   OH212758   6.615   4.480   2.714
 4265TIP3    H112759   6.681   4.494   2.782
 4265TIP3    H212760   6.556   4.555   2.723
 4266TIP3   OH212761   5.169   3.021   4.084
 4266TIP3    H112762   5.216   3.100   4.109
 4266TIP3    H212763   5.190   3.008   3.992
 4267TIP3   OH212764   6.029   4.573   2.993
 4267TIP3    H112765   5.961   4.541   3.053
 4267TIP3    H212766   6.097   4.608   3.051
 4268TIP3   OH212767   3.894   2.320   1.185
 4268TIP3    H112768   3.867   2.381   1.117
 4268TIP3    H212769   3.979   2.353   1.216
 4269TIP3   OH212770   0.112   1.534   4.235
 4269TIP3    H112771   0.025   1.542   4.273
 4269TIP3    H212772   0.113   1.446   4.195
 4270TIP3   OH212773   5.387   4.182   0.089
 4270TIP3    H112774   5.474   4.184   0.050
 4270TIP3    H212775   5.403   4.163   0.181
 4271TIP3   OH212776   1.010   6.274   4.796
 4271TIP3    H112777   0.991   6.232   4.880
 4271TIP3    H212778   0.989   6.367   4.810
 4272TIP3   OH212779   2.887   0.124   1.220
 4272TIP3    H112780   2.968   0.089   1.255
 4272TIP3    H212781   2.818   0.083   1.273
 4273TIP3   OH212782   0.165   2.930   3.782
 4273TIP3    H112783   0.217   3.008   3.764
 4273TIP3    H212784   0.080   2.949   3.742
 4274TIP3   OH212785  -0.031   0.303   3.252
 4274TIP3    H112786  -0.033   0.208   3.239
 4274TIP3    H212787  -0.111   0.322   3.302
 4275TIP3   OH212788   4.549   2.229   2.330
 4275TIP3    H112789   4.644   2.241   2.339
 4275TIP3    H212790   4.521   2.194   2.415
 4276TIP3   OH212791   2.809   1.042   0.293
 4276TIP3    H112792   2.835   0.973   0.354
 4276TIP3    H212793   2.845   1.122   0.330
 4277TIP3   OH212794   6.917   5.372   0.780
 4277TIP3    H112795   6.859   5.298   0.798
 4277TIP3    H212796   6.967   5.384   0.861
 4278TIP3   OH212797   2.753   5.451   0.691
 4278TIP3    H112798   2.807   5.520   0.652
 4278TIP3    H212799   2.704   5.415   0.617
 4279TIP3   OH212800   3.088   4.833   3.387
 4279TIP3    H112801   3.106   4.887   3.465
 4279TIP3    H212802   3.158   4.855   3.326
 4280TIP3   OH212803   1.068   4.453   2.207
 4280TIP3    H112804   1.161   4.441   2.185
 4280TIP3    H212805   1.021   4.421   2.130
 4281TIP3   OH212806   1.733   2.307   4.526
 4281TIP3    H112807   1.736   2.218   4.490
 4281TIP3    H212808   1.695   2.360   4.457
 4282TIP3   OH212809   1.306   1.930   4.137
 4282TIP3    H112810   1.257   2.012   4.136
 4282TIP3    H212811   1.391   1.953   4.176
 4283TIP3   OH212812   5.233   6.080   4.017
 4283TIP3    H112813   5.266   6.168   3.997
 4283TIP3    H212814   5.260   6.027   3.942
 4284TIP3   OH212815   1.214   4.833   1.954
 4284TIP3    H112816   1.176   4.745   1.949
 4284TIP3    H212817   1.268   4.839   1.875
 4285TIP3   OH212818   1.868   0.279   3.782
 4285TIP3    H112819   1.800   0.336   3.818
 4285TIP3    H212820   1.908   0.239   3.860
 4286TIP3   OH212821   5.687   5.258   1.510
 4286TIP3    H112822   5.699   5.164   1.496
 4286TIP3    H212823   5.616   5.264   1.574
 4287TIP3   OH212824   3.173   5.806   0.582
 4287TIP3    H112825   3.179   5.845   0.494
 4287TIP3    H212826   3.113   5.862   0.629
 4288TIP3   OH212827   1.940   1.054   5.655
 4288TIP3    H112828   1.903   0.995   5.590
 4288TIP3    H212829   2.034   1.050   5.640
 4289TIP3   OH212830   4.812   2.773   0.694
 4289TIP3    H112831   4.861   2.795   0.773
 4289TIP3    H212832   4.871   2.717   0.643
 4290TIP3   OH212833   1.110   5.339   1.385
 4290TIP3    H112834   1.111   5.358   1.291
 4290TIP3    H212835   1.199   5.312   1.405
 4291TIP3   OH212836   3.780   1.427   1.603
 4291TIP3    H112837   3.833   1.471   1.536
 4291TIP3    H212838   3.769   1.492   1.672
 4292TIP3   OH212839   5.526   3.789   5.445
 4292TIP3    H112840   5.463   3.852   5.411
 4292TIP3    H212841   5.567   3.751   5.367
 4293TIP3   OH212842   3.597   5.687   5.452
 4293TIP3    H112843   3.518   5.644   5.420
 4293TIP3    H212844   3.653   5.616   5.482
 4294TIP3   OH212845   2.625   2.703   5.536
 4294TIP3    H112846   2.718   2.724   5.540
 4294TIP3    H212847   2.582   2.788   5.525
 4295TIP3   OH212848   0.339   4.465   4.830
 4295TIP3    H112849   0.378   4.377   4.837
 4295TIP3    H212850   0.387   4.517   4.895
 4296TIP3   OH212851   6.247   0.644   3.887
 4296TIP3    H112852   6.172   0.659   3.829
 4296TIP3    H212853   6.208   0.630   3.973
 4297TIP3   OH212854   6.066   4.505   1.372
 4297TIP3    H112855   6.065   4.580   1.313
 4297TIP3    H212856   6.110   4.537   1.451
 4298TIP3   OH212857   2.310   1.433   3.636
 4298TIP3    H112858   2.276   1.348   3.665
 4298TIP3    H212859   2.395   1.440   3.680
 4299TIP3   OH212860   1.002   4.793   2.648
 4299TIP3    H112861   0.995   4.876   2.694
 4299TIP3    H212862   0.988   4.815   2.556
 4300TIP3   OH212863   4.144   2.282   0.139
 4300TIP3    H112864   4.110   2.199   0.170
 4300TIP3    H212865   4.206   2.310   0.207
 4301TIP3   OH212866   5.016   0.902   1.166
 4301TIP3    H112867   5.081   0.947   1.219
 4301TIP3    H212868   4.998   0.821   1.214
 4302TIP3   OH212869   2.610   1.318   5.892
 4302TIP3    H112870   2.554   1.321   5.970
 4302TIP3    H212871   2.581   1.392   5.839
 4303TIP3   OH212872   4.688   5.613   5.043
 4303TIP3    H112873   4.762   5.674   5.048
 4303TIP3    H212874   4.712   5.542   5.103
 4304TIP3   OH212875   4.612   3.188   3.921
 4304TIP3    H112876   4.704   3.194   3.896
 4304TIP3    H212877   4.565   3.232   3.849
 4305TIP3   OH212878   4.088   1.486   0.814
 4305TIP3    H112879   4.033   1.525   0.746
 4305TIP3    H212880   4.174   1.525   0.801
 4306TIP3   OH212881   7.125   4.034   5.124
 4306TIP3    H112882   7.062   4.011   5.056
 4306TIP3    H212883   7.079   4.016   5.206
 4307TIP3   OH212884   3.773   1.014   1.029
 4307TIP3    H112885   3.718   0.947   1.071
 4307TIP3    H212886   3.811   0.970   0.953
 4308TIP3   OH212887   6.170   6.561   3.096
 4308TIP3    H112888   6.199   6.611   3.020
 4308TIP3    H212889   6.112   6.493   3.059
 4309TIP3   OH212890   4.350   4.662   4.990
 4309TIP3    H112891   4.441   4.684   5.006
 4309TIP3    H212892   4.352   4.602   4.915
 4310TIP3   OH212893   2.066   4.190   3.050
 4310TIP3    H112894   2.154   4.227   3.054
 4310TIP3    H212895   2.007   4.265   3.056
 4311TIP3   OH212896   0.447   2.068   3.075
 4311TIP3    H112897   0.450   2.161   3.098
 4311TIP3    H212898   0.370   2.059   3.018
 4312TIP3   OH212899   2.027   5.254   4.418
 4312TIP3    H112900   2.054   5.246   4.509
 4312TIP3    H212901   2.038   5.165   4.382
 4313TIP3   OH212902   0.592   1.847   2.624
 4313TIP3    H112903   0.629   1.864   2.710
 4313TIP3    H212904   0.521   1.910   2.614
 4314TIP3   OH212905   1.222   4.357   4.553
 4314TIP3    H112906   1.258   4.446   4.550
 4314TIP3    H212907   1.233   4.330   4.645
 4315TIP3   OH212908   0.294   1.158   0.429
 4315TIP3    H112909   0.337   1.117   0.504
 4315TIP3    H212910   0.213   1.108   0.417
 4316TIP3   OH212911   5.226   0.580   3.134
 4316TIP3    H112912   5.221   0.661   3.083
 4316TIP3    H212913   5.159   0.524   3.097
 4317TIP3   OH212914   5.621   1.668   2.395
 4317TIP3    H112915   5.615   1.576   2.366
 4317TIP3    H212916   5.530   1.697   2.401
 4318TIP3   OH212917   4.378   4.258   0.261
 4318TIP3    H112918   4.442   4.324   0.288
 4318TIP3    H212919   4.332   4.298   0.187
 4319TIP3   OH212920   5.259   0.150   5.321
 4319TIP3    H112921   5.212   0.227   5.352
 4319TIP3    H212922   5.347   0.182   5.301
 4320TIP3   OH212923   3.056   3.357   4.172
 4320TIP3    H112924   3.031   3.410   4.096
 4320TIP3    H212925   3.027   3.409   4.247
 4321TIP3   OH212926   2.915   1.588   2.317
 4321TIP3    H112927   2.957   1.508   2.351
 4321TIP3    H212928   2.951   1.658   2.371
 4322TIP3   OH212929   5.707   3.920   2.724
 4322TIP3    H112930   5.638   3.967   2.676
 4322TIP3    H212931   5.699   3.951   2.814
 4323TIP3   OH212932   1.878  -0.040   5.069
 4323TIP3    H112933   1.889  -0.102   4.997
 4323TIP3    H212934   1.811   0.022   5.037
 4324TIP3   OH212935   3.850   3.010   4.846
 4324TIP3    H112936   3.841   2.981   4.755
 4324TIP3    H212937   3.922   2.957   4.882
 4325TIP3   OH212938   0.781   0.426   1.804
 4325TIP3    H112939   0.815   0.463   1.885
 4325TIP3    H212940   0.789   0.497   1.740
 4326TIP3   OH212941   2.482   1.035   1.698
 4326TIP3    H112942   2.546   1.092   1.655
 4326TIP3    H212943   2.529   0.998   1.773
 4327TIP3   OH212944   6.876   6.009   4.436
 4327TIP3    H112945   6.945   6.033   4.373
 4327TIP3    H212946   6.809   5.966   4.383
 4328TIP3   OH212947   1.253   5.092   2.423
 4328TIP3    H112948   1.270   5.075   2.331
 4328TIP3    H212949   1.282   5.013   2.469
 4329TIP3   OH212950   6.470   1.332   4.991
 4329TIP3    H112951   6.382   1.316   5.026
 4329TIP3    H212952   6.528   1.325   5.067
 4330TIP3   OH212953   3.525   4.179   2.170
 4330TIP3    H112954   3.450   4.137   2.129
 4330TIP3    H212955   3.532   4.138   2.256
 4331TIP3   OH212956   1.429   6.314   4.592
 4331TIP3    H112957   1.479   6.389   4.625
 4331TIP3    H212958   1.465   6.299   4.504
 4332TIP3   OH212959   5.472   4.504   5.711
 4332TIP3    H112960   5.505   4.556   5.784
 4332TIP3    H212961   5.404   4.449   5.750
 4333TIP3   OH212962   1.765   1.771   4.482
 4333TIP3    H112963   1.754   1.761   4.576
 4333TIP3    H212964   1.708   1.704   4.444
 4334TIP3   OH212965   6.076   0.365   3.570
 4334TIP3    H112966   6.045   0.281   3.604
 4334TIP3    H212967   6.126   0.342   3.492
 4335TIP3   OH212968   0.835   3.298   4.057
 4335TIP3    H112969   0.861   3.376   4.104
 4335TIP3    H212970   0.799   3.240   4.124
 4336TIP3   OH212971   4.619   5.436   0.618
 4336TIP3    H112972   4.527   5.456   0.638
 4336TIP3    H212973   4.615   5.383   0.538
 4337TIP3   OH212974   3.031   1.128   3.658
 4337TIP3    H112975   3.016   1.192   3.588
 4337TIP3    H212976   3.056   1.181   3.734
 4338TIP3   OH212977   0.848   5.607   0.374
 4338TIP3    H112978   0.845   5.535   0.437
 4338TIP3    H212979   0.879   5.682   0.425
 4339TIP3   OH212980   4.820   4.789   0.173
 4339TIP3    H112981   4.837   4.720   0.237
 4339TIP3    H212982   4.856   4.868   0.213
 4340TIP3   OH212983   2.640   4.285   3.302
 4340TIP3    H112984   2.690   4.211   3.270
 4340TIP3    H212985   2.667   4.295   3.394
 4341TIP3   OH212986   6.216   3.104   0.756
 4341TIP3    H112987   6.294   3.155   0.781
 4341TIP3    H212988   6.161   3.167   0.708
 4342TIP3   OH212989   7.018   6.588   4.509
 4342TIP3    H112990   7.060   6.645   4.445
 4342TIP3    H212991   6.970   6.524   4.457
 4343TIP3   OH212992   0.805   0.648   1.646
 4343TIP3    H112993   0.775   0.737   1.662
 4343TIP3    H212994   0.780   0.630   1.556
 4344TIP3   OH212995   4.836   5.276   5.154
 4344TIP3    H112996   4.894   5.228   5.213
 4344TIP3    H212997   4.756   5.291   5.205
 4345TIP3   OH212998   6.941   4.175   0.803
 4345TIP3    H112999   6.912   4.266   0.813
 4345TIP3    H213000   6.866   4.123   0.832
 4346TIP3   OH213001   3.089   1.867   5.114
 4346TIP3    H113002   3.149   1.814   5.061
 4346TIP3    H213003   3.003   1.826   5.101
 4347TIP3   OH213004   1.823   5.760   1.019
 4347TIP3    H113005   1.753   5.825   1.023
 4347TIP3    H213006   1.778   5.676   1.029
 4348TIP3   OH213007   5.820   4.003   1.258
 4348TIP3    H113008   5.813   4.002   1.163
 4348TIP3    H213009   5.735   4.037   1.288
 4349TIP3   OH213010   0.286   1.395   5.036
 4349TIP3    H113011   0.319   1.374   5.124
 4349TIP3    H213012   0.270   1.490   5.038
 4350TIP3   OH213013   3.492   0.651   3.253
 4350TIP3    H113014   3.549   0.588   3.297
 4350TIP3    H213015   3.539   0.734   3.259
 4351TIP3   OH213016   3.806   2.395   3.159
 4351TIP3    H113017   3.810   2.473   3.103
 4351TIP3    H213018   3.897   2.380   3.185
 4352TIP3   OH213019   2.555  -0.057   0.057
 4352TIP3    H113020   2.630   0.002   0.050
 4352TIP3    H213021   2.501  -0.017   0.126
 4353TIP3   OH213022   5.046   6.619   0.221
 4353TIP3    H113023   4.955   6.615   0.193
 4353TIP3    H213024   5.086   6.539   0.187
 4354TIP3   OH213025   6.445   1.664   2.286
 4354TIP3    H113026   6.361   1.686   2.328
 4354TIP3    H213027   6.455   1.570   2.300
 4355TIP3   OH213028   6.302   3.643   1.478
 4355TIP3    H113029   6.324   3.686   1.561
 4355TIP3    H213030   6.317   3.711   1.412
 4356TIP3   OH213031   5.625   3.424   3.536
 4356TIP3    H113032   5.640   3.436   3.442
 4356TIP3    H213033   5.530   3.423   3.545
 4357TIP3   OH213034   5.036   1.227   5.283
 4357TIP3    H113035   5.089   1.163   5.235
 4357TIP3    H213036   4.955   1.234   5.232
 4358TIP3   OH213037   3.899   5.536   1.505
 4358TIP3    H113038   3.832   5.520   1.572
 4358TIP3    H213039   3.895   5.458   1.449
 4359TIP3   OH213040   1.620   2.922   4.367
 4359TIP3    H113041   1.684   2.857   4.396
 4359TIP3    H213042   1.536   2.887   4.395
 4360TIP3   OH213043   0.832   1.873   4.718
 4360TIP3    H113044   0.808   1.816   4.644
 4360TIP3    H213045   0.787   1.834   4.793
 4361TIP3   OH213046   0.362   4.124   5.190
 4361TIP3    H113047   0.368   4.069   5.269
 4361TIP3    H213048   0.355   4.213   5.224
 4362TIP3   OH213049   5.621   4.292   5.612
 4362TIP3    H113050   5.688   4.251   5.667
 4362TIP3    H213051   5.600   4.374   5.657
 4363TIP3   OH213052   5.866   1.688   0.489
 4363TIP3    H113053   5.829   1.626   0.552
 4363TIP3    H213054   5.959   1.665   0.485
 4364TIP3   OH213055   5.110   6.461   5.618
 4364TIP3    H113056   5.092   6.418   5.535
 4364TIP3    H213057   5.075   6.549   5.607
 4365TIP3   OH213058   3.720   4.945   5.764
 4365TIP3    H113059   3.648   4.933   5.826
 4365TIP3    H213060   3.798   4.923   5.814
 4366TIP3   OH213061   1.962   1.063   4.810
 4366TIP3    H113062   1.955   1.139   4.751
 4366TIP3    H213063   1.904   1.083   4.883
 4367TIP3   OH213064   2.753   3.100   0.809
 4367TIP3    H113065   2.813   3.077   0.738
 4367TIP3    H213066   2.665   3.093   0.770
 4368TIP3   OH213067   0.598   5.585   5.156
 4368TIP3    H113068   0.635   5.651   5.097
 4368TIP3    H213069   0.506   5.578   5.129
 4369TIP3   OH213070   3.135   3.788   1.923
 4369TIP3    H113071   3.219   3.743   1.918
 4369TIP3    H213072   3.073   3.722   1.953
 4370TIP3   OH213073   3.583   5.344   4.433
 4370TIP3    H113074   3.629   5.261   4.441
 4370TIP3    H213075   3.511   5.326   4.373
 4371TIP3   OH213076   5.262   2.862   4.337
 4371TIP3    H113077   5.297   2.942   4.377
 4371TIP3    H213078   5.211   2.893   4.263
 4372TIP3   OH213079   0.853   6.426   1.574
 4372TIP3    H113080   0.899   6.489   1.519
 4372TIP3    H213081   0.761   6.453   1.570
 4373TIP3   OH213082   4.288   4.808   1.222
 4373TIP3    H113083   4.217   4.819   1.284
 4373TIP3    H213084   4.313   4.716   1.228
 4374TIP3   OH213085   2.695   1.695   3.324
 4374TIP3    H113086   2.712   1.770   3.380
 4374TIP3    H213087   2.770   1.691   3.265
 4375TIP3   OH213088   2.424   5.443   2.704
 4375TIP3    H113089   2.495   5.452   2.641
 4375TIP3    H213090   2.429   5.352   2.734
 4376TIP3   OH213091   6.476   0.004   3.987
 4376TIP3    H113092   6.405   0.002   3.922
 4376TIP3    H213093   6.516   0.090   3.976
 4377TIP3   OH213094   4.041   4.128   3.536
 4377TIP3    H113095   4.123   4.083   3.560
 4377TIP3    H213096   3.972   4.067   3.563
 4378TIP3   OH213097   4.069   3.812   1.600
 4378TIP3    H113098   4.126   3.871   1.551
 4378TIP3    H213099   4.032   3.866   1.670
 4379TIP3   OH213100   3.870   1.419   5.011
 4379TIP3    H113101   3.884   1.325   5.007
 4379TIP3    H213102   3.824   1.434   5.093
 4380TIP3   OH213103   6.115   5.814   3.265
 4380TIP3    H113104   6.150   5.830   3.353
 4380TIP3    H213105   6.186   5.773   3.217
 4381TIP3   OH213106   3.970   2.966   2.528
 4381TIP3    H113107   3.930   3.053   2.527
 4381TIP3    H213108   4.021   2.963   2.609
 4382TIP3   OH213109   4.170   2.097   5.416
 4382TIP3    H113110   4.092   2.083   5.469
 4382TIP3    H213111   4.240   2.056   5.467
 4383TIP3   OH213112   0.283   0.618   5.625
 4383TIP3    H113113   0.192   0.645   5.640
 4383TIP3    H213114   0.335   0.678   5.679
 4384TIP3   OH213115   2.227   0.358   1.981
 4384TIP3    H113116   2.167   0.284   1.992
 4384TIP3    H213117   2.290   0.349   2.052
 4385TIP3   OH213118   2.957   5.616   3.892
 4385TIP3    H113119   2.890   5.574   3.838
 4385TIP3    H213120   2.974   5.700   3.849
 4386TIP3   OH213121   5.029   0.904   3.682
 4386TIP3    H113122   4.935   0.924   3.677
 4386TIP3    H213123   5.032   0.809   3.695
 4387TIP3   OH213124   0.091   6.019   0.007
 4387TIP3    H113125   0.182   6.047   0.020
 4387TIP3    H213126   0.043   6.059   0.079
 4388TIP3   OH213127   6.733   3.772   5.264
 4388TIP3    H113128   6.659   3.773   5.203
 4388TIP3    H213129   6.807   3.741   5.213
 4389TIP3   OH213130   1.377   5.368   4.716
 4389TIP3    H113131   1.346   5.377   4.806
 4389TIP3    H213132   1.319   5.302   4.677
 4390TIP3   OH213133   4.325   2.748   0.679
 4390TIP3    H113134   4.406   2.797   0.697
 4390TIP3    H213135   4.355   2.666   0.640
 4391TIP3   OH213136   2.480   2.049   0.688
 4391TIP3    H113137   2.465   2.003   0.771
 4391TIP3    H213138   2.404   2.106   0.678
 4392TIP3   OH213139   4.242   1.189   3.939
 4392TIP3    H113140   4.233   1.284   3.928
 4392TIP3    H213141   4.227   1.174   4.032
 4393TIP3   OH213142   3.769   3.520   1.760
 4393TIP3    H113143   3.748   3.613   1.765
 4393TIP3    H213144   3.684   3.477   1.750
 4394TIP3   OH213145   5.964   4.896   4.904
 4394TIP3    H113146   5.879   4.934   4.882
 4394TIP3    H213147   6.022   4.972   4.911
 4395TIP3   OH213148   2.252   4.352   4.570
 4395TIP3    H113149   2.291   4.270   4.541
 4395TIP3    H213150   2.312   4.419   4.537
 4396TIP3   OH213151   2.397   5.076   1.642
 4396TIP3    H113152   2.361   5.126   1.569
 4396TIP3    H213153   2.407   5.139   1.713
 4397TIP3   OH213154   2.144   4.840   4.949
 4397TIP3    H113155   2.063   4.810   4.906
 4397TIP3    H213156   2.177   4.762   4.994
 4398TIP3   OH213157   0.135   4.947   5.539
 4398TIP3    H113158   0.134   5.023   5.480
 4398TIP3    H213159   0.044   4.920   5.545
 4399TIP3   OH213160   6.678   1.814   3.152
 4399TIP3    H113161   6.738   1.743   3.175
 4399TIP3    H213162   6.735   1.888   3.133
 4400TIP3   OH213163   1.228   2.442   3.436
 4400TIP3    H113164   1.194   2.517   3.387
 4400TIP3    H213165   1.209   2.462   3.527
 4401TIP3   OH213166   0.074   2.501   2.262
 4401TIP3    H113167   0.036   2.414   2.271
 4401TIP3    H213168   0.041   2.533   2.178
 4402TIP3   OH213169   5.945   0.636   3.042
 4402TIP3    H113170   6.007   0.693   2.997
 4402TIP3    H213171   5.909   0.690   3.112
 4403TIP3   OH213172   0.614   1.722   5.488
 4403TIP3    H113173   0.599   1.811   5.456
 4403TIP3    H213174   0.698   1.697   5.450
 4404TIP3   OH213175   5.580   2.541   5.296
 4404TIP3    H113176   5.611   2.522   5.207
 4404TIP3    H213177   5.644   2.604   5.330
 4405TIP3   OH213178   1.401   1.417   2.062
 4405TIP3    H113179   1.419   1.348   2.125
 4405TIP3    H213180   1.316   1.452   2.087
 4406TIP3   OH213181   2.475   1.907   0.946
 4406TIP3    H113182   2.564   1.890   0.976
 4406TIP3    H213183   2.426   1.931   1.025
 4407TIP3   OH213184   6.652   2.805   4.881
 4407TIP3    H113185   6.675   2.718   4.851
 4407TIP3    H213186   6.735   2.850   4.894
 4408TIP3   OH213187   1.258   0.251   3.830
 4408TIP3    H113188   1.185   0.250   3.892
 4408TIP3    H213189   1.218   0.229   3.746
 4409TIP3   OH213190   3.884   4.937   0.556
 4409TIP3    H113191   3.927   5.022   0.564
 4409TIP3    H213192   3.791   4.957   0.554
 4410TIP3   OH213193   5.578   1.213   2.572
 4410TIP3    H113194   5.486   1.201   2.594
 4410TIP3    H213195   5.610   1.278   2.634
 4411TIP3   OH213196   6.442   5.871   1.508
 4411TIP3    H113197   6.496   5.936   1.553
 4411TIP3    H213198   6.499   5.837   1.439
 4412TIP3   OH213199   5.314   5.087   5.251
 4412TIP3    H113200   5.373   5.086   5.175
 4412TIP3    H213201   5.365   5.130   5.320
 4413TIP3   OH213202   6.947   2.345   3.842
 4413TIP3    H113203   6.911   2.432   3.827
 4413TIP3    H213204   6.998   2.326   3.763
 4414TIP3   OH213205   5.949   1.331   0.173
 4414TIP3    H113206   5.961   1.426   0.167
 4414TIP3    H213207   5.863   1.320   0.214
 4415TIP3   OH213208   2.021   1.894   4.736
 4415TIP3    H113209   2.064   1.818   4.774
 4415TIP3    H213210   1.970   1.932   4.808
 4416TIP3   OH213211   1.694   4.437   2.208
 4416TIP3    H113212   1.661   4.512   2.159
 4416TIP3    H213213   1.759   4.474   2.267
 4417TIP3   OH213214   0.063   1.288   4.089
 4417TIP3    H113215   0.132   1.320   4.032
 4417TIP3    H213216  -0.015   1.284   4.034
 4418TIP3   OH213217   1.550   2.850   2.983
 4418TIP3    H113218   1.603   2.930   2.994
 4418TIP3    H213219   1.594   2.785   3.038
 4419TIP3   OH213220   0.778   3.373   3.286
 4419TIP3    H113221   0.806   3.380   3.377
 4419TIP3    H213222   0.777   3.464   3.255
 4420TIP3   OH213223   2.700   4.033   4.546
 4420TIP3    H113224   2.707   3.957   4.489
 4420TIP3    H213225   2.788   4.042   4.584
 4421TIP3   OH213226   6.663   4.657   4.358
 4421TIP3    H113227   6.584   4.605   4.375
 4421TIP3    H213228   6.720   4.639   4.433
 4422TIP3   OH213229   2.553   2.200   1.933
 4422TIP3    H113230   2.542   2.136   1.863
 4422TIP3    H213231   2.611   2.157   1.996
 4423TIP3   OH213232   2.462   3.090   0.358
 4423TIP3    H113233   2.370   3.063   0.359
 4423TIP3    H213234   2.497   3.053   0.277
 4424TIP3   OH213235   3.796   2.276   5.484
 4424TIP3    H113236   3.865   2.340   5.467
 4424TIP3    H213237   3.766   2.296   5.573
 4425TIP3   OH213238   3.219   3.470   3.751
 4425TIP3    H113239   3.163   3.487   3.827
 4425TIP3    H213240   3.292   3.418   3.787
 4426TIP3   OH213241   2.078   4.240   2.047
 4426TIP3    H113242   2.165   4.276   2.026
 4426TIP3    H213243   2.023   4.266   1.973
 4427TIP3   OH213244   4.292   4.853   5.492
 4427TIP3    H113245   4.282   4.862   5.586
 4427TIP3    H213246   4.343   4.773   5.480
 4428TIP3   OH213247   2.001   1.888   4.469
 4428TIP3    H113248   2.002   1.886   4.564
 4428TIP3    H213249   1.911   1.865   4.445
 4429TIP3   OH213250   5.257   2.075   2.831
 4429TIP3    H113251   5.210   2.037   2.905
 4429TIP3    H213252   5.286   1.999   2.780
 4430TIP3   OH213253   7.044   1.940   1.498
 4430TIP3    H113254   6.988   1.935   1.575
 4430TIP3    H213255   7.133   1.926   1.531
 4431TIP3   OH213256   4.446   5.536   5.774
 4431TIP3    H113257   4.392   5.562   5.700
 4431TIP3    H213258   4.455   5.441   5.766
 4432TIP3   OH213259   3.834   5.514   4.084
 4432TIP3    H113260   3.930   5.510   4.084
 4432TIP3    H213261   3.814   5.598   4.125
 4433TIP3   OH213262   3.959   0.126   1.793
 4433TIP3    H113263   4.047   0.162   1.805
 4433TIP3    H213264   3.968   0.068   1.717
 4434TIP3   OH213265   6.050   6.353   5.018
 4434TIP3    H113266   6.139   6.350   5.053
 4434TIP3    H213267   6.007   6.422   5.068
 4435TIP3   OH213268   5.003   6.777   5.608
 4435TIP3    H113269   5.030   6.841   5.675
 4435TIP3    H213270   4.925   6.815   5.570
 4436TIP3   OH213271   3.856   0.382   1.193
 4436TIP3    H113272   3.897   0.466   1.168
 4436TIP3    H213273   3.926   0.334   1.236
 4437TIP3   OH213274   4.732   4.184   3.632
 4437TIP3    H113275   4.827   4.174   3.638
 4437TIP3    H213276   4.697   4.100   3.660
 4438TIP3   OH213277   6.540   4.147   5.509
 4438TIP3    H113278   6.635   4.136   5.515
 4438TIP3    H213279   6.521   4.148   5.415
 4439TIP3   OH213280   2.604   5.242   5.774
 4439TIP3    H113281   2.650   5.312   5.728
 4439TIP3    H213282   2.674   5.189   5.813
 4440TIP3   OH213283   3.475   2.200   1.375
 4440TIP3    H113284   3.474   2.242   1.461
 4440TIP3    H213285   3.531   2.123   1.386
 4441TIP3   OH213286   5.857   1.996   0.808
 4441TIP3    H113287   5.900   1.913   0.825
 4441TIP3    H213288   5.928   2.060   0.803
 4442TIP3   OH213289   1.537   0.957   5.069
 4442TIP3    H113290   1.446   0.953   5.041
 4442TIP3    H213291   1.542   0.903   5.147
 4443TIP3   OH213292   4.996   2.880   4.637
 4443TIP3    H113293   5.000   2.968   4.601
 4443TIP3    H213294   5.084   2.863   4.670
 4444TIP3   OH213295   0.310   5.472   2.795
 4444TIP3    H113296   0.339   5.562   2.784
 4444TIP3    H213297   0.278   5.446   2.709
 4445TIP3   OH213298   4.923   4.703   2.784
 4445TIP3    H113299   4.828   4.716   2.786
 4445TIP3    H213300   4.959   4.792   2.784
 4446TIP3   OH213301   6.397   4.245   3.263
 4446TIP3    H113302   6.374   4.337   3.248
 4446TIP3    H213303   6.492   4.242   3.251
 4447TIP3   OH213304   6.690   0.823   3.162
 4447TIP3    H113305   6.761   0.795   3.103
 4447TIP3    H213306   6.639   0.744   3.178
 4448TIP3   OH213307   2.114   3.613   1.550
 4448TIP3    H113308   2.145   3.633   1.462
 4448TIP3    H213309   2.147   3.525   1.569
 4449TIP3   OH213310   6.969   2.870   5.153
 4449TIP3    H113311   6.904   2.809   5.188
 4449TIP3    H213312   6.922   2.919   5.085
 4450TIP3   OH213313   1.405   6.409   2.023
 4450TIP3    H113314   1.458   6.474   1.976
 4450TIP3    H213315   1.450   6.398   2.106
 4451TIP3   OH213316   1.561   3.305   3.504
 4451TIP3    H113317   1.556   3.369   3.576
 4451TIP3    H213318   1.484   3.324   3.450
 4452TIP3   OH213319   5.836   1.340   2.842
 4452TIP3    H113320   5.833   1.315   2.750
 4452TIP3    H213321   5.926   1.371   2.855
 4453TIP3   OH213322   4.395   3.737   1.999
 4453TIP3    H113323   4.417   3.740   2.092
 4453TIP3    H213324   4.299   3.732   1.997
 4454TIP3   OH213325   6.699   5.354   1.461
 4454TIP3    H113326   6.612   5.360   1.421
 4454TIP3    H213327   6.712   5.261   1.478
 4455TIP3   OH213328   5.410   1.868   0.062
 4455TIP3    H113329   5.434   1.930  -0.007
 4455TIP3    H213330   5.411   1.920   0.142
 4456TIP3   OH213331   5.009   6.431   5.150
 4456TIP3    H113332   5.070   6.396   5.214
 4456TIP3    H213333   4.995   6.522   5.176
 4457TIP3   OH213334   0.815   0.661   3.869
 4457TIP3    H113335   0.728   0.701   3.867
 4457TIP3    H213336   0.815   0.609   3.950
 4458TIP3   OH213337   0.048   0.771   0.844
 4458TIP3    H113338   0.089   0.783   0.930
 4458TIP3    H213339   0.118   0.736   0.789
 4459TIP3   OH213340   4.902   3.806   5.608
 4459TIP3    H113341   4.824   3.813   5.664
 4459TIP3    H213342   4.969   3.856   5.653
 4460TIP3   OH213343   0.890   0.570   5.759
 4460TIP3    H113344   0.907   0.568   5.665
 4460TIP3    H213345   0.856   0.483   5.779
 4461TIP3   OH213346   0.221   1.411   3.485
 4461TIP3    H113347   0.289   1.451   3.538
 4461TIP3    H213348   0.234   1.448   3.397
 4462TIP3   OH213349   0.394   6.052   3.683
 4462TIP3    H113350   0.450   6.109   3.630
 4462TIP3    H213351   0.429   5.964   3.669
 4463TIP3   OH213352   0.901   6.220   2.359
 4463TIP3    H113353   0.846   6.283   2.406
 4463TIP3    H213354   0.990   6.249   2.376
 4464TIP3   OH213355   2.552   5.267   0.573
 4464TIP3    H113356   2.501   5.274   0.493
 4464TIP3    H213357   2.510   5.327   0.634
 4465TIP3   OH213358   0.691   5.780   0.198
 4465TIP3    H113359   0.706   5.693   0.235
 4465TIP3    H213360   0.774   5.826   0.210
 4466TIP3   OH213361   7.024   2.398   2.527
 4466TIP3    H113362   6.965   2.462   2.488
 4466TIP3    H213363   7.062   2.444   2.602
 4467TIP3   OH213364   5.558   5.465   3.122
 4467TIP3    H113365   5.466   5.456   3.145
 4467TIP3    H213366   5.594   5.377   3.133
 4468TIP3   OH213367   5.954   2.567   4.140
 4468TIP3    H113368   5.874   2.586   4.188
 4468TIP3    H213369   5.971   2.474   4.158
 4469TIP3   OH213370   1.202   6.209   3.955
 4469TIP3    H113371   1.205   6.152   4.032
 4469TIP3    H213372   1.120   6.185   3.911
 4470TIP3   OH213373   5.160   5.826   0.254
 4470TIP3    H113374   5.125   5.750   0.207
 4470TIP3    H213375   5.087   5.887   0.261
 4471TIP3   OH213376   4.512   6.534   2.079
 4471TIP3    H113377   4.481   6.552   1.990
 4471TIP3    H213378   4.530   6.440   2.080
 4472TIP3   OH213379   5.198   4.382   3.720
 4472TIP3    H113380   5.178   4.475   3.730
 4472TIP3    H213381   5.214   4.351   3.809
 4473TIP3   OH213382   4.118   2.381   1.867
 4473TIP3    H113383   4.134   2.287   1.862
 4473TIP3    H213384   4.120   2.401   1.961
 4474TIP3   OH213385   6.320   0.013   3.745
 4474TIP3    H113386   6.360   0.092   3.711
 4474TIP3    H213387   6.246  -0.004   3.687
 4475TIP3   OH213388   3.623   2.225   3.291
 4475TIP3    H113389   3.560   2.289   3.258
 4475TIP3    H213390   3.708   2.267   3.279
 4476TIP3   OH213391   6.523   0.466   1.117
 4476TIP3    H113392   6.513   0.459   1.212
 4476TIP3    H213393   6.506   0.558   1.098
 4477TIP3   OH213394   5.721   5.650   5.447
 4477TIP3    H113395   5.786   5.654   5.517
 4477TIP3    H213396   5.710   5.740   5.419
 4478TIP3   OH213397   6.267   4.168   3.494
 4478TIP3    H113398   6.175   4.191   3.506
 4478TIP3    H213399   6.295   4.219   3.418
 4479TIP3   OH213400   2.460   6.033   2.373
 4479TIP3    H113401   2.378   6.071   2.402
 4479TIP3    H213402   2.524   6.103   2.382
 4480TIP3   OH213403   5.277   1.552   5.217
 4480TIP3    H113404   5.230   1.552   5.300
 4480TIP3    H213405   5.368   1.570   5.241
 4481TIP3   OH213406   0.296   3.789   1.681
 4481TIP3    H113407   0.217   3.801   1.628
 4481TIP3    H213408   0.309   3.694   1.682
 4482TIP3   OH213409   0.145   1.563   4.731
 4482TIP3    H113410   0.085   1.556   4.657
 4482TIP3    H213411   0.091   1.544   4.807
 4483TIP3   OH213412   2.306   3.910   0.597
 4483TIP3    H113413   2.218   3.934   0.625
 4483TIP3    H213414   2.309   3.815   0.606
 4484TIP3   OH213415   6.737   3.146   1.528
 4484TIP3    H113416   6.725   3.239   1.510
 4484TIP3    H213417   6.718   3.103   1.445
 4485TIP3   OH213418   4.487   1.669   3.617
 4485TIP3    H113419   4.469   1.596   3.676
 4485TIP3    H213420   4.575   1.653   3.584
 4486TIP3   OH213421   6.684   3.051   1.251
 4486TIP3    H113422   6.596   3.054   1.213
 4486TIP3    H213423   6.742   3.078   1.179
 4487TIP3   OH213424   1.791   0.369   1.070
 4487TIP3    H113425   1.845   0.290   1.071
 4487TIP3    H213426   1.709   0.343   1.111
 4488TIP3   OH213427   1.217   4.597   4.304
 4488TIP3    H113428   1.197   4.660   4.373
 4488TIP3    H213429   1.309   4.572   4.320
 4489TIP3   OH213430   3.160   4.754   1.723
 4489TIP3    H113431   3.087   4.796   1.678
 4489TIP3    H213432   3.133   4.750   1.815
 4490TIP3   OH213433   0.238   2.638   1.637
 4490TIP3    H113434   0.327   2.643   1.602
 4490TIP3    H213435   0.247   2.660   1.730
 4491TIP3   OH213436   1.602   5.141   4.138
 4491TIP3    H113437   1.578   5.100   4.220
 4491TIP3    H213438   1.694   5.167   4.149
 4492TIP3   OH213439   1.819   6.140   4.759
 4492TIP3    H113440   1.839   6.195   4.835
 4492TIP3    H213441   1.814   6.202   4.686
 4493TIP3   OH213442   4.763   4.310   4.993
 4493TIP3    H113443   4.755   4.310   5.088
 4493TIP3    H213444   4.843   4.361   4.976
 4494TIP3   OH213445   3.392   5.192   3.369
 4494TIP3    H113446   3.462   5.217   3.309
 4494TIP3    H213447   3.329   5.144   3.315
 4495TIP3   OH213448   3.069   2.007   5.368
 4495TIP3    H113449   3.099   1.931   5.317
 4495TIP3    H213450   3.095   1.987   5.458
 4496TIP3   OH213451   2.967   4.566   1.467
 4496TIP3    H113452   3.039   4.522   1.511
 4496TIP3    H213453   3.007   4.644   1.429
 4497TIP3   OH213454   3.814   3.878   4.669
 4497TIP3    H113455   3.858   3.958   4.642
 4497TIP3    H213456   3.883   3.812   4.673
 4498TIP3   OH213457   1.464   2.730   5.165
 4498TIP3    H113458   1.508   2.782   5.233
 4498TIP3    H213459   1.440   2.649   5.209
 4499TIP3   OH213460   2.613   4.788   5.515
 4499TIP3    H113461   2.601   4.882   5.499
 4499TIP3    H213462   2.603   4.748   5.428
 4500TIP3   OH213463   5.255   3.969   4.004
 4500TIP3    H113464   5.255   4.005   3.915
 4500TIP3    H213465   5.338   3.998   4.042
 4501TIP3   OH213466   3.286   5.579   3.249
 4501TIP3    H113467   3.375   5.547   3.259
 4501TIP3    H213468   3.240   5.508   3.203
 4502TIP3   OH213469   3.667   3.890   1.762
 4502TIP3    H113470   3.749   3.866   1.805
 4502TIP3    H213471   3.691   3.903   1.670
 4503TIP3   OH213472   0.481   1.503   0.132
 4503TIP3    H113473   0.386   1.516   0.127
 4503TIP3    H213474   0.500   1.500   0.226
 4504TIP3   OH213475   6.232   5.128   1.431
 4504TIP3    H113476   6.217   5.121   1.525
 4504TIP3    H213477   6.144   5.128   1.392
 4505TIP3   OH213478   1.647   2.597   3.076
 4505TIP3    H113479   1.724   2.633   3.032
 4505TIP3    H213480   1.661   2.503   3.076
 4506TIP3   OH213481   2.704   2.646   1.197
 4506TIP3    H113482   2.740   2.704   1.131
 4506TIP3    H213483   2.780   2.620   1.249
 4507TIP3   OH213484   4.244   5.955   0.203
 4507TIP3    H113485   4.225   5.953   0.109
 4507TIP3    H213486   4.314   5.892   0.215
 4508TIP3   OH213487   2.697   5.894   2.640
 4508TIP3    H113488   2.754   5.873   2.714
 4508TIP3    H213489   2.658   5.978   2.664
 4509TIP3   OH213490   0.951   4.344   4.044
 4509TIP3    H113491   0.938   4.416   4.105
 4509TIP3    H213492   1.038   4.310   4.065
 4510TIP3   OH213493   4.131   6.468   2.763
 4510TIP3    H113494   4.148   6.465   2.669
 4510TIP3    H213495   4.119   6.560   2.783
 4511TIP3   OH213496   1.100   3.287   3.320
 4511TIP3    H113497   1.076   3.200   3.355
 4511TIP3    H213498   1.021   3.339   3.330
 4512TIP3   OH213499   5.251   3.775   4.562
 4512TIP3    H113500   5.285   3.710   4.624
 4512TIP3    H213501   5.222   3.848   4.617
 4513TIP3   OH213502   1.331   4.283   3.767
 4513TIP3    H113503   1.295   4.263   3.854
 4513TIP3    H213504   1.327   4.200   3.720
 4514TIP3   OH213505   0.178   6.105   3.504
 4514TIP3    H113506   0.237   6.174   3.474
 4514TIP3    H213507   0.228   6.058   3.571
 4515TIP3   OH213508   0.361   6.173   4.691
 4515TIP3    H113509   0.441   6.209   4.728
 4515TIP3    H213510   0.382   6.154   4.600
 4516TIP3   OH213511   6.134   3.436   5.401
 4516TIP3    H113512   6.203   3.484   5.354
 4516TIP3    H213513   6.131   3.477   5.487
 4517TIP3   OH213514   2.376   6.176   0.320
 4517TIP3    H113515   2.375   6.133   0.234
 4517TIP3    H213516   2.301   6.138   0.365
 4518TIP3   OH213517   0.306   1.844   2.381
 4518TIP3    H113518   0.252   1.891   2.317
 4518TIP3    H213519   0.329   1.910   2.446
 4519TIP3   OH213520   1.521   4.906   2.030
 4519TIP3    H113521   1.572   4.895   1.949
 4519TIP3    H213522   1.501   5.000   2.033
 4520TIP3   OH213523   2.781   4.711   0.764
 4520TIP3    H113524   2.851   4.775   0.783
 4520TIP3    H213525   2.704   4.745   0.809
 4521TIP3   OH213526   6.447   0.276   0.589
 4521TIP3    H113527   6.354   0.284   0.609
 4521TIP3    H213528   6.479   0.210   0.649
 4522TIP3   OH213529   6.700   5.761   2.982
 4522TIP3    H113530   6.610   5.787   3.001
 4522TIP3    H213531   6.696   5.725   2.893
 4523TIP3   OH213532   2.925   0.791   4.204
 4523TIP3    H113533   2.862   0.719   4.215
 4523TIP3    H213534   3.011   0.749   4.212
 4524TIP3   OH213535   2.063   2.042   5.393
 4524TIP3    H113536   2.018   1.967   5.431
 4524TIP3    H213537   2.155   2.017   5.392
 4525TIP3   OH213538   3.268   0.923   1.991
 4525TIP3    H113539   3.250   0.922   2.085
 4525TIP3    H213540   3.210   0.857   1.954
 4526TIP3   OH213541   6.672   6.601   2.243
 4526TIP3    H113542   6.717   6.678   2.209
 4526TIP3    H213543   6.585   6.632   2.268
 4527TIP3   OH213544   4.892   0.032   5.483
 4527TIP3    H113545   4.859   0.026   5.573
 4527TIP3    H213546   4.910  -0.059   5.458
 4528TIP3   OH213547   0.795   6.665   4.810
 4528TIP3    H113548   0.796   6.753   4.847
 4528TIP3    H213549   0.870   6.620   4.849
 4529TIP3   OH213550   1.490   5.298   2.526
 4529TIP3    H113551   1.423   5.365   2.516
 4529TIP3    H213552   1.463   5.248   2.603
 4530TIP3   OH213553   4.855   4.875   2.517
 4530TIP3    H113554   4.824   4.894   2.606
 4530TIP3    H213555   4.776   4.857   2.468
 4531TIP3   OH213556   1.986   2.569   4.892
 4531TIP3    H113557   1.925   2.570   4.818
 4531TIP3    H213558   1.931   2.560   4.969
 4532TIP3   OH213559   0.594   0.433   0.230
 4532TIP3    H113560   0.527   0.496   0.203
 4532TIP3    H213561   0.571   0.352   0.185
 4533TIP3   OH213562   5.337   1.098   3.557
 4533TIP3    H113563   5.323   1.156   3.632
 4533TIP3    H213564   5.344   1.157   3.482
 4534TIP3   OH213565   0.298   1.828   1.720
 4534TIP3    H113566   0.351   1.902   1.750
 4534TIP3    H213567   0.351   1.783   1.655
 4535TIP3   OH213568   1.441   5.618   3.042
 4535TIP3    H113569   1.523   5.664   3.020
 4535TIP3    H213570   1.454   5.588   3.132
 4536TIP3   OH213571   0.990   1.294   1.780
 4536TIP3    H113572   1.005   1.253   1.865
 4536TIP3    H213573   0.895   1.303   1.774
 4537TIP3   OH213574   5.514   2.918   5.011
 4537TIP3    H113575   5.519   2.995   4.954
 4537TIP3    H213576   5.555   2.946   5.093
 4538TIP3   OH213577   4.938   4.777   0.865
 4538TIP3    H113578   4.861   4.826   0.892
 4538TIP3    H213579   5.012   4.832   0.891
 4539TIP3   OH213580   1.867   4.265   2.492
 4539TIP3    H113581   1.826   4.332   2.437
 4539TIP3    H213582   1.855   4.184   2.443
 4540TIP3   OH213583   3.860   0.077   5.491
 4540TIP3    H113584   3.954   0.066   5.476
 4540TIP3    H213585   3.852   0.088   5.586
 4541TIP3   OH213586   3.428   1.524   3.007
 4541TIP3    H113587   3.466   1.472   3.078
 4541TIP3    H213588   3.473   1.494   2.928
 4542TIP3   OH213589   3.327   6.426   4.389
 4542TIP3    H113590   3.364   6.509   4.360
 4542TIP3    H213591   3.402   6.368   4.396
 4543TIP3   OH213592   0.802   5.139   5.738
 4543TIP3    H113593   0.867   5.111   5.803
 4543TIP3    H213594   0.724   5.086   5.759
 4544TIP3   OH213595   5.908   2.175   0.057
 4544TIP3    H113596   5.894   2.121   0.135
 4544TIP3    H213597   5.824   2.172   0.011
 4545TIP3   OH213598   0.047   4.692   1.819
 4545TIP3    H113599   0.034   4.614   1.874
 4545TIP3    H213600   0.138   4.717   1.833
 4546TIP3   OH213601   3.156   3.076   4.502
 4546TIP3    H113602   3.074   3.075   4.552
 4546TIP3    H213603   3.207   3.004   4.538
 4547TIP3   OH213604   2.463   2.337   0.840
 4547TIP3    H113605   2.502   2.409   0.890
 4547TIP3    H213606   2.416   2.379   0.769
 4548TIP3   OH213607   0.475   0.687   3.087
 4548TIP3    H113608   0.519   0.756   3.037
 4548TIP3    H213609   0.409   0.733   3.139
 4549TIP3   OH213610   2.190   6.777   0.768
 4549TIP3    H113611   2.123   6.713   0.792
 4549TIP3    H213612   2.227   6.806   0.852
 4550TIP3   OH213613   6.114   3.488   1.580
 4550TIP3    H113614   6.126   3.502   1.674
 4550TIP3    H213615   6.164   3.558   1.538
 4551TIP3   OH213616   2.359   2.400   3.904
 4551TIP3    H113617   2.293   2.466   3.927
 4551TIP3    H213618   2.348   2.386   3.810
 4552TIP3   OH213619   6.944   5.036   1.864
 4552TIP3    H113620   6.892   4.958   1.883
 4552TIP3    H213621   7.012   5.005   1.804
 4553TIP3   OH213622   4.016   5.110   5.313
 4553TIP3    H113623   4.039   5.071   5.229
 4553TIP3    H213624   4.013   5.036   5.374
 4554TIP3   OH213625   0.462   6.344   3.711
 4554TIP3    H113626   0.528   6.288   3.670
 4554TIP3    H213627   0.388   6.343   3.650
 4555TIP3   OH213628   1.886   1.068   1.120
 4555TIP3    H113629   1.926   1.114   1.193
 4555TIP3    H213630   1.955   1.064   1.053
 4556TIP3   OH213631   1.759   5.837   5.327
 4556TIP3    H113632   1.710   5.795   5.397
 4556TIP3    H213633   1.766   5.929   5.354
 4557TIP3   OH213634   1.785   6.777   5.242
 4557TIP3    H113635   1.765   6.684   5.236
 4557TIP3    H213636   1.814   6.801   5.154
 4558TIP3   OH213637   6.822   5.694   1.050
 4558TIP3    H113638   6.741   5.728   1.087
 4558TIP3    H213639   6.803   5.682   0.957
 4559TIP3   OH213640   0.484   0.737   5.038
 4559TIP3    H113641   0.477   0.832   5.035
 4559TIP3    H213642   0.529   0.718   5.120
 4560TIP3   OH213643   2.478   1.824   0.210
 4560TIP3    H113644   2.407   1.864   0.262
 4560TIP3    H213645   2.549   1.888   0.213
 4561TIP3   OH213646   6.701   1.501   5.677
 4561TIP3    H113647   6.677   1.482   5.587
 4561TIP3    H213648   6.794   1.477   5.682
 4562TIP3   OH213649   3.504   5.303   1.688
 4562TIP3    H113650   3.524   5.291   1.781
 4562TIP3    H213651   3.412   5.278   1.679
 4563TIP3   OH213652   2.310   4.355   2.038
 4563TIP3    H113653   2.377   4.296   2.003
 4563TIP3    H213654   2.346   4.386   2.121
 4564TIP3   OH213655   6.568   5.393   3.097
 4564TIP3    H113656   6.622   5.366   3.023
 4564TIP3    H213657   6.629   5.439   3.155
 4565TIP3   OH213658   2.582   2.559   0.950
 4565TIP3    H113659   2.641   2.583   1.022
 4565TIP3    H213660   2.625   2.593   0.872
 4566TIP3   OH213661   2.819   1.178   1.966
 4566TIP3    H113662   2.725   1.197   1.966
 4566TIP3    H213663   2.859   1.261   1.941
 4567TIP3   OH213664   1.958   4.761   3.383
 4567TIP3    H113665   1.906   4.839   3.406
 4567TIP3    H213666   2.047   4.785   3.406
 4568TIP3   OH213667   2.634   4.926   2.291
 4568TIP3    H113668   2.639   4.987   2.218
 4568TIP3    H213669   2.643   4.981   2.369
 4569TIP3   OH213670   5.387   2.690   0.080
 4569TIP3    H113671   5.425   2.777   0.090
 4569TIP3    H213672   5.325   2.698   0.007
 4570TIP3   OH213673   2.854   3.701   3.185
 4570TIP3    H113674   2.881   3.708   3.094
 4570TIP3    H213675   2.918   3.642   3.224
 4571TIP3   OH213676   1.526   0.905   0.946
 4571TIP3    H113677   1.463   0.964   0.905
 4571TIP3    H213678   1.542   0.944   1.032
 4572TIP3   OH213679   7.120   1.145   5.840
 4572TIP3    H113680   7.092   1.227   5.800
 4572TIP3    H213681   7.091   1.151   5.931
 4573TIP3   OH213682   1.388   4.567   4.551
 4573TIP3    H113683   1.422   4.657   4.556
 4573TIP3    H213684   1.459   4.517   4.511
 4574TIP3   OH213685   2.753   5.216   3.842
 4574TIP3    H113686   2.815   5.188   3.774
 4574TIP3    H213687   2.797   5.288   3.886
 4575TIP3   OH213688   4.656   5.531   4.776
 4575TIP3    H113689   4.674   5.442   4.806
 4575TIP3    H213690   4.642   5.581   4.856
 4576TIP3   OH213691   7.142   2.505   0.657
 4576TIP3    H113692   7.205   2.441   0.690
 4576TIP3    H213693   7.135   2.485   0.563
 4577TIP3   OH213694   4.422   1.530   0.818
 4577TIP3    H113695   4.466   1.529   0.733
 4577TIP3    H213696   4.406   1.437   0.838
 4578TIP3   OH213697   4.548   3.712   0.531
 4578TIP3    H113698   4.610   3.694   0.602
 4578TIP3    H213699   4.462   3.694   0.569
 4579TIP3   OH213700   7.180   1.869   5.380
 4579TIP3    H113701   7.201   1.923   5.456
 4579TIP3    H213702   7.092   1.898   5.354
 4580TIP3   OH213703   5.906   2.988   2.442
 4580TIP3    H113704   5.954   2.933   2.505
 4580TIP3    H213705   5.967   3.058   2.420
 4581TIP3   OH213706   2.634   2.479   3.939
 4581TIP3    H113707   2.547   2.453   3.909
 4581TIP3    H213708   2.694   2.436   3.878
 4582TIP3   OH213709   2.191   2.241   0.386
 4582TIP3    H113710   2.109   2.247   0.337
 4582TIP3    H213711   2.231   2.328   0.376
 4583TIP3   OH213712   3.094   3.175   5.172
 4583TIP3    H113713   3.147   3.097   5.192
 4583TIP3    H213714   3.151   3.229   5.118
 4584TIP3   OH213715   1.335   5.504   5.771
 4584TIP3    H113716   1.370   5.592   5.753
 4584TIP3    H213717   1.263   5.520   5.833
 4585TIP3   OH213718   1.969   1.773   2.100
 4585TIP3    H113719   1.946   1.797   2.189
 4585TIP3    H213720   2.057   1.735   2.107
 4586TIP3   OH213721   2.723   1.883   4.461
 4586TIP3    H113722   2.727   1.973   4.428
 4586TIP3    H213723   2.764   1.887   4.547
 4587TIP3   OH213724   4.550   0.670   5.862
 4587TIP3    H113725   4.635   0.638   5.892
 4587TIP3    H213726   4.491   0.656   5.936
 4588TIP3   OH213727   5.125   0.522   5.651
 4588TIP3    H113728   5.071   0.454   5.689
 4588TIP3    H213729   5.179   0.553   5.723
 4589TIP3   OH213730   0.109   4.340   3.283
 4589TIP3    H113731   0.112   4.285   3.361
 4589TIP3    H213732   0.099   4.278   3.210
 4590TIP3   OH213733   5.682   4.887   1.195
 4590TIP3    H113734   5.683   4.927   1.108
 4590TIP3    H213735   5.596   4.909   1.230
 4591TIP3   OH213736   2.855   6.530   0.229
 4591TIP3    H113737   2.763   6.543   0.250
 4591TIP3    H213738   2.868   6.580   0.148
 4592TIP3   OH213739   5.797   0.170   1.885
 4592TIP3    H113740   5.706   0.188   1.860
 4592TIP3    H213741   5.837   0.134   1.806
 4593TIP3   OH213742   5.985   2.628   5.574
 4593TIP3    H113743   5.917   2.562   5.588
 4593TIP3    H213744   6.055   2.604   5.636
 4594TIP3   OH213745   6.064   2.909   3.916
 4594TIP3    H113746   6.148   2.878   3.951
 4594TIP3    H213747   6.077   3.002   3.901
 4595TIP3   OH213748  -0.062   6.262   4.963
 4595TIP3    H113749  -0.067   6.284   5.056
 4595TIP3    H213750  -0.011   6.181   4.960
 4596TIP3   OH213751   6.256   0.714   4.484
 4596TIP3    H113752   6.191   0.656   4.525
 4596TIP3    H213753   6.335   0.702   4.536
 4597TIP3   OH213754   1.337   1.957   0.441
 4597TIP3    H113755   1.337   1.879   0.497
 4597TIP3    H213756   1.364   1.924   0.355
 4598TIP3   OH213757   0.577   6.535   4.922
 4598TIP3    H113758   0.673   6.540   4.926
 4598TIP3    H213759   0.548   6.626   4.934
 4599TIP3   OH213760   3.208   6.513   5.523
 4599TIP3    H113761   3.240   6.426   5.500
 4599TIP3    H213762   3.263   6.541   5.595
 4600TIP3   OH213763   1.526   3.888   4.188
 4600TIP3    H113764   1.619   3.875   4.170
 4600TIP3    H213765   1.493   3.932   4.109
 4601TIP3   OH213766   6.502   3.843   5.138
 4601TIP3    H113767   6.456   3.767   5.102
 4601TIP3    H213768   6.439   3.915   5.128
 4602TIP3   OH213769   6.242   5.627   4.111
 4602TIP3    H113770   6.220   5.555   4.052
 4602TIP3    H213771   6.335   5.643   4.095
 4603TIP3   OH213772   6.337   6.321   1.082
 4603TIP3    H113773   6.385   6.256   1.134
 4603TIP3    H213774   6.271   6.270   1.034
 4604TIP3   OH213775   0.618   6.177   3.559
 4604TIP3    H113776   0.643   6.258   3.515
 4604TIP3    H213777   0.674   6.110   3.520
 4605TIP3   OH213778   2.243   0.979   4.910
 4605TIP3    H113779   2.257   0.928   4.990
 4605TIP3    H213780   2.169   0.936   4.867
 4606TIP3   OH213781   6.139   3.555   2.337
 4606TIP3    H113782   6.230   3.580   2.351
 4606TIP3    H213783   6.141   3.500   2.259
 4607TIP3   OH213784   4.838   2.796   5.132
 4607TIP3    H113785   4.742   2.791   5.139
 4607TIP3    H213786   4.870   2.760   5.215
 4608TIP3   OH213787   3.064   6.203   0.823
 4608TIP3    H113788   3.114   6.230   0.745
 4608TIP3    H213789   3.132   6.176   0.885
 4609TIP3   OH213790   4.466   2.267   0.979
 4609TIP3    H113791   4.489   2.203   1.046
 4609TIP3    H213792   4.419   2.336   1.026
 4610TIP3   OH213793   4.145   2.101   5.782
 4610TIP3    H113794   4.069   2.089   5.725
 4610TIP3    H213795   4.112   2.150   5.857
 4611TIP3   OH213796   0.818   0.975   2.911
 4611TIP3    H113797   0.832   0.912   2.841
 4611TIP3    H213798   0.885   1.042   2.898
 4612TIP3   OH213799   3.957   5.256   3.842
 4612TIP3    H113800   4.023   5.299   3.787
 4612TIP3    H213801   3.923   5.185   3.788
 4613TIP3   OH213802   3.732   3.600   1.186
 4613TIP3    H113803   3.766   3.528   1.133
 4613TIP3    H213804   3.692   3.659   1.122
 4614TIP3   OH213805   3.366   3.141   0.863
 4614TIP3    H113806   3.342   3.056   0.826
 4614TIP3    H213807   3.353   3.130   0.957
 4615TIP3   OH213808   1.877   6.736   2.698
 4615TIP3    H113809   1.859   6.679   2.773
 4615TIP3    H213810   1.832   6.817   2.718
 4616TIP3   OH213811   5.859   0.929   3.716
 4616TIP3    H113812   5.948   0.897   3.703
 4616TIP3    H213813   5.860   1.017   3.678
 4617TIP3   OH213814   1.165   5.405   3.362
 4617TIP3    H113815   1.133   5.384   3.274
 4617TIP3    H213816   1.086   5.430   3.410
 4618TIP3   OH213817   5.398   6.343   1.876
 4618TIP3    H113818   5.329   6.277   1.883
 4618TIP3    H213819   5.377   6.407   1.944
 4619TIP3   OH213820   1.313   1.595   3.483
 4619TIP3    H113821   1.265   1.599   3.566
 4619TIP3    H213822   1.247   1.569   3.419
 4620TIP3   OH213823   0.043   0.670   0.514
 4620TIP3    H113824   0.060   0.595   0.571
 4620TIP3    H213825  -0.031   0.642   0.460
 4621TIP3   OH213826   6.200   3.960   0.739
 4621TIP3    H113827   6.194   3.897   0.667
 4621TIP3    H213828   6.247   3.913   0.808
 4622TIP3   OH213829   1.781   2.762   5.575
 4622TIP3    H113830   1.752   2.728   5.659
 4622TIP3    H213831   1.722   2.836   5.558
 4623TIP3   OH213832   6.789   3.982   3.594
 4623TIP3    H113833   6.824   4.061   3.635
 4623TIP3    H213834   6.700   3.973   3.628
 4624TIP3   OH213835   1.755   3.840  -0.056
 4624TIP3    H113836   1.847   3.835  -0.029
 4624TIP3    H213837   1.706   3.810   0.021
 4625TIP3   OH213838   0.559   5.326   3.958
 4625TIP3    H113839   0.590   5.416   3.943
 4625TIP3    H213840   0.544   5.322   4.052
 4626TIP3   OH213841   3.069   4.577   0.754
 4626TIP3    H113842   3.005   4.598   0.822
 4626TIP3    H213843   3.080   4.482   0.759
 4627TIP3   OH213844   7.192   6.348   4.006
 4627TIP3    H113845   7.270   6.389   4.043
 4627TIP3    H213846   7.196   6.257   4.035
 4628TIP3   OH213847   6.376   2.785   5.410
 4628TIP3    H113848   6.379   2.690   5.415
 4628TIP3    H213849   6.333   2.803   5.326
 4629TIP3   OH213850   2.890   1.671   3.092
 4629TIP3    H113851   2.807   1.673   3.044
 4629TIP3    H213852   2.887   1.749   3.148
 4630TIP3   OH213853   1.728   3.231   0.516
 4630TIP3    H113854   1.646   3.185   0.534
 4630TIP3    H213855   1.776   3.227   0.599
 4631TIP3   OH213856   3.320   3.373   0.742
 4631TIP3    H113857   3.329   3.445   0.804
 4631TIP3    H213858   3.332   3.294   0.794
 4632TIP3   OH213859   2.345   4.059   3.575
 4632TIP3    H113860   2.366   4.141   3.620
 4632TIP3    H213861   2.415   3.999   3.600
 4633TIP3   OH213862   0.730   2.470   2.529
 4633TIP3    H113863   0.675   2.547   2.541
 4633TIP3    H213864   0.757   2.446   2.618
 4634TIP3   OH213865   1.606   5.053   5.313
 4634TIP3    H113866   1.600   5.109   5.390
 4634TIP3    H213867   1.518   5.053   5.276
 4635TIP3   OH213868   3.867   0.576   5.277
 4635TIP3    H113869   3.948   0.627   5.269
 4635TIP3    H213870   3.835   0.567   5.188
 4636TIP3   OH213871   5.502   6.139   5.764
 4636TIP3    H113872   5.425   6.190   5.786
 4636TIP3    H213873   5.566   6.203   5.734
 4637TIP3   OH213874   0.353   4.619   0.559
 4637TIP3    H113875   0.365   4.658   0.645
 4637TIP3    H213876   0.323   4.530   0.577
 4638TIP3   OH213877   1.794   0.695   3.793
 4638TIP3    H113878   1.701   0.671   3.786
 4638TIP3    H213879   1.801   0.739   3.877
 4639TIP3   OH213880   2.574   3.262   2.616
 4639TIP3    H113881   2.517   3.338   2.627
 4639TIP3    H213882   2.536   3.213   2.543
 4640TIP3   OH213883   4.489   1.663   2.897
 4640TIP3    H113884   4.466   1.667   2.990
 4640TIP3    H213885   4.520   1.573   2.884
 4641TIP3   OH213886   1.427   0.437   3.167
 4641TIP3    H113887   1.515   0.453   3.203
 4641TIP3    H213888   1.441   0.372   3.098
 4642TIP3   OH213889   0.487   6.840   2.194
 4642TIP3    H113890   0.474   6.873   2.282
 4642TIP3    H213891   0.582   6.844   2.181
 4643TIP3   OH213892   0.338   6.357   3.982
 4643TIP3    H113893   0.370   6.389   3.897
 4643TIP3    H213894   0.299   6.272   3.962
 4644TIP3   OH213895   3.101   4.515   5.559
 4644TIP3    H113896   3.110   4.487   5.650
 4644TIP3    H213897   3.013   4.553   5.554
 4645TIP3   OH213898   4.995   1.833   5.346
 4645TIP3    H113899   4.964   1.897   5.410
 4645TIP3    H213900   5.084   1.812   5.375
 4646TIP3   OH213901   5.026   0.377   1.231
 4646TIP3    H113902   5.068   0.353   1.313
 4646TIP3    H213903   5.003   0.294   1.190
 4647TIP3   OH213904   2.255   5.738   0.703
 4647TIP3    H113905   2.262   5.728   0.608
 4647TIP3    H213906   2.170   5.698   0.725
 4648TIP3   OH213907   0.280   3.484   4.653
 4648TIP3    H113908   0.208   3.422   4.657
 4648TIP3    H213909   0.255   3.545   4.583
 4649TIP3   OH213910   4.830   6.872   2.946
 4649TIP3    H113911   4.872   6.811   2.886
 4649TIP3    H213912   4.789   6.816   3.012
 4650TIP3   OH213913   5.830   4.988   0.713
 4650TIP3    H113914   5.922   5.008   0.731
 4650TIP3    H213915   5.817   5.012   0.622
 4651TIP3   OH213916   2.953   6.490   0.523
 4651TIP3    H113917   2.952   6.545   0.445
 4651TIP3    H213918   3.043   6.459   0.530
 4652TIP3   OH213919   4.115   6.009   2.117
 4652TIP3    H113920   4.179   5.984   2.051
 4652TIP3    H213921   4.069   6.084   2.078
 4653TIP3   OH213922   6.553   4.910   4.888
 4653TIP3    H113923   6.626   4.958   4.851
 4653TIP3    H213924   6.555   4.825   4.844
 4654TIP3   OH213925   1.304   6.151   5.519
 4654TIP3    H113926   1.377   6.123   5.464
 4654TIP3    H213927   1.342   6.157   5.607
 4655TIP3   OH213928   0.138   6.083   2.811
 4655TIP3    H113929   0.131   6.176   2.834
 4655TIP3    H213930   0.189   6.044   2.882
 4656TIP3   OH213931   4.777   3.428   5.595
 4656TIP3    H113932   4.842   3.474   5.543
 4656TIP3    H213933   4.693   3.451   5.554
 4657TIP3   OH213934   0.383   3.020   4.290
 4657TIP3    H113935   0.453   2.962   4.260
 4657TIP3    H213936   0.408   3.043   4.380
 4658TIP3   OH213937   3.226   6.724   0.950
 4658TIP3    H113938   3.229   6.695   0.858
 4658TIP3    H213939   3.149   6.681   0.986
 4659TIP3   OH213940   5.729   1.185   1.424
 4659TIP3    H113941   5.790   1.115   1.446
 4659TIP3    H213942   5.660   1.179   1.489
 4660TIP3   OH213943   3.206   6.235   5.137
 4660TIP3    H113944   3.200   6.322   5.177
 4660TIP3    H213945   3.271   6.189   5.190
 4661TIP3   OH213946   3.972   0.349   3.458
 4661TIP3    H113947   4.037   0.374   3.392
 4661TIP3    H213948   3.944   0.261   3.432
 4662TIP3   OH213949   5.111   4.978   1.468
 4662TIP3    H113950   5.037   4.960   1.527
 4662TIP3    H213951   5.188   4.955   1.519
 4663TIP3   OH213952   3.247   6.650   0.690
 4663TIP3    H113953   3.225   6.567   0.648
 4663TIP3    H213954   3.340   6.662   0.671
 4664TIP3   OH213955   4.712   4.957   1.350
 4664TIP3    H113956   4.757   5.041   1.342
 4664TIP3    H213957   4.627   4.971   1.309
 4665TIP3   OH213958   5.873   2.718   3.898
 4665TIP3    H113959   5.908   2.654   3.959
 4665TIP3    H213960   5.939   2.788   3.896
 4666TIP3   OH213961   4.710   4.954   5.071
 4666TIP3    H113962   4.723   4.973   4.978
 4666TIP3    H213963   4.616   4.963   5.085
 4667TIP3   OH213964   2.688   3.709   5.820
 4667TIP3    H113965   2.650   3.723   5.907
 4667TIP3    H213966   2.673   3.791   5.774
 4668TIP3   OH213967   6.053   0.755   3.401
 4668TIP3    H113968   5.967   0.762   3.359
 4668TIP3    H213969   6.100   0.833   3.371
 4669TIP3   OH213970   3.312   3.011   4.777
 4669TIP3    H113971   3.382   2.955   4.810
 4669TIP3    H213972   3.232   2.971   4.811
 4670TIP3   OH213973   6.277   3.789   0.949
 4670TIP3    H113974   6.372   3.784   0.956
 4670TIP3    H213975   6.250   3.838   1.026
 4671TIP3   OH213976   2.320   2.418   1.538
 4671TIP3    H113977   2.254   2.411   1.607
 4671TIP3    H213978   2.327   2.329   1.503
 4672TIP3   OH213979   0.517   3.931   2.989
 4672TIP3    H113980   0.474   3.860   2.941
 4672TIP3    H213981   0.609   3.906   2.991
 4673TIP3   OH213982   5.911   0.241   4.334
 4673TIP3    H113983   5.819   0.213   4.335
 4673TIP3    H213984   5.916   0.304   4.263
 4674TIP3   OH213985   2.437   3.074   4.461
 4674TIP3    H113986   2.397   3.025   4.533
 4674TIP3    H213987   2.364   3.099   4.405
 4675TIP3   OH213988   6.007   3.013   0.492
 4675TIP3    H113989   5.992   2.925   0.525
 4675TIP3    H213990   6.005   3.004   0.397
 4676TIP3   OH213991   3.570   1.180   2.010
 4676TIP3    H113992   3.623   1.259   2.020
 4676TIP3    H213993   3.515   1.197   1.934
 4677TIP3   OH213994   4.957   1.985   4.613
 4677TIP3    H113995   4.877   1.944   4.646
 4677TIP3    H213996   4.947   1.984   4.518
 4678TIP3   OH213997   2.341   5.659   5.196
 4678TIP3    H113998   2.334   5.570   5.232
 4678TIP3    H213999   2.408   5.701   5.250
 4679TIP3   OH214000   3.765   0.759   1.309
 4679TIP3    H114001   3.715   0.824   1.259
 4679TIP3    H214002   3.785   0.691   1.246
 4680TIP3   OH214003   6.546   0.166   5.484
 4680TIP3    H114004   6.488   0.241   5.473
 4680TIP3    H214005   6.608   0.193   5.552
 4681TIP3   OH214006   2.542   6.735   4.964
 4681TIP3    H114007   2.595   6.787   5.024
 4681TIP3    H214008   2.455   6.731   5.006
 4682TIP3   OH214009   1.530   2.229   4.046
 4682TIP3    H114010   1.542   2.179   4.127
 4682TIP3    H214011   1.618   2.241   4.012
 4683TIP3   OH214012   5.863   5.486   1.163
 4683TIP3    H114013   5.852   5.431   1.241
 4683TIP3    H214014   5.860   5.576   1.196
 4684TIP3   OH214015   6.268   3.563   2.765
 4684TIP3    H114016   6.283   3.595   2.854
 4684TIP3    H214017   6.216   3.631   2.723
 4685TIP3   OH214018   5.692   5.393   5.780
 4685TIP3    H114019   5.735   5.363   5.700
 4685TIP3    H214020   5.764   5.428   5.834
 4686TIP3   OH214021   3.098   5.925   2.688
 4686TIP3    H114022   3.035   5.857   2.713
 4686TIP3    H214023   3.044   6.002   2.670
 4687TIP3   OH214024   5.726   1.152   4.084
 4687TIP3    H114025   5.721   1.057   4.089
 4687TIP3    H214026   5.804   1.170   4.032
 4688TIP3   OH214027   6.381   1.903   2.010
 4688TIP3    H114028   6.378   1.930   1.918
 4688TIP3    H214029   6.327   1.824   2.014
 4689TIP3   OH214030   1.658   1.153   2.860
 4689TIP3    H114031   1.692   1.204   2.933
 4689TIP3    H214032   1.619   1.218   2.802
 4690TIP3   OH214033   5.857   1.957   1.782
 4690TIP3    H114034   5.813   1.877   1.754
 4690TIP3    H214035   5.808   2.027   1.739
 4691TIP3   OH214036   5.090   5.861   4.813
 4691TIP3    H114037   5.162   5.916   4.843
 4691TIP3    H214038   5.053   5.824   4.893
 4692TIP3   OH214039   0.153   3.617   5.437
 4692TIP3    H114040   0.206   3.599   5.360
 4692TIP3    H214041   0.068   3.577   5.418
 4693TIP3   OH214042   6.684   5.869   0.426
 4693TIP3    H114043   6.660   5.784   0.388
 4693TIP3    H214044   6.698   5.926   0.350
 4694TIP3   OH214045   3.337   1.773   2.822
 4694TIP3    H114046   3.246   1.772   2.852
 4694TIP3    H214047   3.363   1.681   2.819
 4695TIP3   OH214048   3.839   4.280   1.705
 4695TIP3    H114049   3.894   4.201   1.705
 4695TIP3    H214050   3.799   4.280   1.792
 4696TIP3   OH214051   0.715   3.748   1.436
 4696TIP3    H114052   0.740   3.715   1.522
 4696TIP3    H214053   0.627   3.785   1.449
 4697TIP3   OH214054   4.047   2.247   3.440
 4697TIP3    H114055   4.025   2.192   3.515
 4697TIP3    H214056   4.029   2.336   3.470
 4698TIP3   OH214057   1.791   6.191   0.472
 4698TIP3    H114058   1.848   6.114   0.477
 4698TIP3    H214059   1.721   6.165   0.413
 4699TIP3   OH214060   0.961   1.245   5.390
 4699TIP3    H114061   0.961   1.334   5.357
 4699TIP3    H214062   1.003   1.194   5.321
 4700TIP3   OH214063   0.724   5.018   1.425
 4700TIP3    H114064   0.779   4.996   1.350
 4700TIP3    H214065   0.655   5.073   1.390
 4701TIP3   OH214066   0.658   4.689   5.469
 4701TIP3    H114067   0.752   4.692   5.451
 4701TIP3    H214068   0.649   4.634   5.547
 4702TIP3   OH214069   0.073   5.122   4.275
 4702TIP3    H114070   0.098   5.163   4.358
 4702TIP3    H214071   0.152   5.075   4.247
 4703TIP3   OH214072   1.260   1.565   0.168
 4703TIP3    H114073   1.251   1.583   0.261
 4703TIP3    H214074   1.170   1.560   0.135
 4704TIP3   OH214075   5.992   0.069   2.318
 4704TIP3    H114076   6.069   0.015   2.299
 4704TIP3    H214077   5.932   0.051   2.246
 4705TIP3   OH214078   7.215   5.847   1.945
 4705TIP3    H114079   7.304   5.882   1.953
 4705TIP3    H214080   7.169   5.911   1.890
 4706TIP3   OH214081   3.427   0.110   5.720
 4706TIP3    H114082   3.487   0.176   5.754
 4706TIP3    H214083   3.460   0.027   5.754
 4707TIP3   OH214084   2.078   2.434   4.618
 4707TIP3    H114085   2.165   2.471   4.633
 4707TIP3    H214086   2.086   2.342   4.645
 4708TIP3   OH214087   6.448   2.751   2.813
 4708TIP3    H114088   6.490   2.669   2.840
 4708TIP3    H214089   6.388   2.771   2.885
 4709TIP3   OH214090   2.722   5.566   1.453
 4709TIP3    H114091   2.812   5.533   1.452
 4709TIP3    H214092   2.700   5.572   1.546
 4710TIP3   OH214093   5.287   6.016   4.941
 4710TIP3    H114094   5.350   5.970   4.996
 4710TIP3    H214095   5.337   6.043   4.864
 4711TIP3   OH214096   0.463   3.985   5.389
 4711TIP3    H114097   0.416   3.951   5.465
 4711TIP3    H214098   0.478   3.908   5.334
 4712TIP3   OH214099   5.432   0.759   4.186
 4712TIP3    H114100   5.351   0.709   4.180
 4712TIP3    H214101   5.426   0.824   4.116
 4713TIP3   OH214102   0.868   5.968   2.440
 4713TIP3    H114103   0.855   6.052   2.397
 4713TIP3    H214104   0.781   5.928   2.441
 4714TIP3   OH214105   6.150   5.799   2.753
 4714TIP3    H114106   6.160   5.811   2.659
 4714TIP3    H214107   6.058   5.774   2.765
 4715TIP3   OH214108   3.836   5.000   3.373
 4715TIP3    H114109   3.915   5.050   3.394
 4715TIP3    H214110   3.867   4.932   3.312
 4716TIP3   OH214111   4.906   3.232   5.365
 4716TIP3    H114112   4.909   3.200   5.455
 4716TIP3    H214113   4.933   3.157   5.312
 4717TIP3   OH214114   3.868   5.062   5.067
 4717TIP3    H114115   3.816   5.120   5.122
 4717TIP3    H214116   3.895   5.117   4.993
 4718TIP3   OH214117   2.060   6.355   4.618
 4718TIP3    H114118   1.976   6.331   4.580
 4718TIP3    H214119   2.115   6.278   4.606
 4719TIP3   OH214120   2.214   4.824   4.119
 4719TIP3    H114121   2.137   4.770   4.101
 4719TIP3    H214122   2.279   4.763   4.153
 4720TIP3   OH214123   2.734   0.197   1.569
 4720TIP3    H114124   2.638   0.200   1.572
 4720TIP3    H214125   2.755   0.104   1.579
 4721TIP3   OH214126   2.453   6.036   3.120
 4721TIP3    H114127   2.539   6.048   3.080
 4721TIP3    H214128   2.447   5.941   3.135
 4722TIP3   OH214129   6.480   5.526   1.114
 4722TIP3    H114130   6.532   5.607   1.110
 4722TIP3    H214131   6.391   5.556   1.135
 4723TIP3   OH214132   3.210   0.658   2.532
 4723TIP3    H114133   3.208   0.644   2.626
 4723TIP3    H214134   3.236   0.574   2.495
 4724TIP3   OH214135   6.196   3.426   4.289
 4724TIP3    H114136   6.191   3.384   4.204
 4724TIP3    H214137   6.272   3.484   4.283
 4725TIP3   OH214138   3.629   3.720   0.531
 4725TIP3    H114139   3.609   3.778   0.604
 4725TIP3    H214140   3.714   3.750   0.499
 4726TIP3   OH214141   1.847   4.170   0.519
 4726TIP3    H114142   1.886   4.086   0.494
 4726TIP3    H214143   1.896   4.235   0.468
 4727TIP3   OH214144   2.509  -0.051   1.867
 4727TIP3    H114145   2.551   0.010   1.928
 4727TIP3    H214146   2.502  -0.133   1.915
 4728TIP3   OH214147   4.017   4.369   3.667
 4728TIP3    H114148   4.011   4.282   3.627
 4728TIP3    H214149   3.932   4.383   3.707
 4729TIP3   OH214150   1.588   0.265   1.221
 4729TIP3    H114151   1.509   0.225   1.184
 4729TIP3    H214152   1.606   0.214   1.299
 4730TIP3   OH214153   0.798   4.391   0.109
 4730TIP3    H114154   0.728   4.345   0.155
 4730TIP3    H214155   0.855   4.321   0.077
 4731TIP3   OH214156   0.381   0.759   2.463
 4731TIP3    H114157   0.417   0.813   2.392
 4731TIP3    H214158   0.314   0.814   2.503
 4732TIP3   OH214159   7.023   6.559   1.583
 4732TIP3    H114160   6.928   6.549   1.576
 4732TIP3    H214161   7.045   6.631   1.523
 4733TIP3   OH214162   0.070   6.172   4.740
 4733TIP3    H114163   0.165   6.164   4.728
 4733TIP3    H214164   0.051   6.262   4.714
 4734TIP3   OH214165   6.993   1.445   1.205
 4734TIP3    H114166   7.006   1.505   1.278
 4734TIP3    H214167   6.934   1.378   1.241
 4735TIP3   OH214168   2.249   0.665   4.793
 4735TIP3    H114169   2.180   0.728   4.772
 4735TIP3    H214170   2.223   0.627   4.877
 4736TIP3   OH214171   0.173   0.634   5.258
 4736TIP3    H114172   0.206   0.601   5.174
 4736TIP3    H214173   0.244   0.616   5.320
 4737TIP3   OH214174   6.045   4.335   3.421
 4737TIP3    H114175   5.985   4.337   3.495
 4737TIP3    H214176   6.062   4.427   3.400
 4738TIP3   OH214177   1.034   5.893   3.923
 4738TIP3    H114178   1.013   5.971   3.871
 4738TIP3    H214179   1.076   5.928   4.002
 4739TIP3   OH214180   6.166   5.772   2.218
 4739TIP3    H114181   6.113   5.770   2.138
 4739TIP3    H214182   6.164   5.682   2.250
 4740TIP3   OH214183   0.311   3.188   3.697
 4740TIP3    H114184   0.284   3.257   3.636
 4740TIP3    H214185   0.348   3.235   3.772
 4741TIP3   OH214186   1.654   6.734   0.429
 4741TIP3    H114187   1.580   6.710   0.484
 4741TIP3    H214188   1.623   6.808   0.376
 4742TIP3   OH214189   3.711   6.629   0.326
 4742TIP3    H114190   3.805   6.643   0.315
 4742TIP3    H214191   3.680   6.604   0.239
 4743TIP3   OH214192   7.041   1.812   4.151
 4743TIP3    H114193   7.113   1.871   4.169
 4743TIP3    H214194   6.966   1.870   4.135
 4744TIP3   OH214195   4.671   4.217   0.695
 4744TIP3    H114196   4.627   4.257   0.770
 4744TIP3    H214197   4.756   4.260   0.692
 4745TIP3   OH214198   3.371   6.632   3.746
 4745TIP3    H114199   3.340   6.717   3.715
 4745TIP3    H214200   3.466   6.643   3.754
 4746TIP3   OH214201   5.915   4.524   3.774
 4746TIP3    H114202   5.826   4.518   3.737
 4746TIP3    H214203   5.940   4.434   3.790
 4747TIP3   OH214204   7.158   1.558   3.710
 4747TIP3    H114205   7.164   1.566   3.805
 4747TIP3    H214206   7.213   1.629   3.676
 4748TIP3   OH214207   4.793   5.530   1.324
 4748TIP3    H114208   4.719   5.469   1.327
 4748TIP3    H214209   4.842   5.504   1.246
 4749TIP3   OH214210   4.853   5.037   1.967
 4749TIP3    H114211   4.924   5.086   1.926
 4749TIP3    H214212   4.877   5.032   2.060
 4750TIP3   OH214213   5.915   2.510   4.951
 4750TIP3    H114214   5.885   2.569   4.881
 4750TIP3    H214215   6.004   2.540   4.970
 4751TIP3   OH214216   4.429   2.546   4.698
 4751TIP3    H114217   4.432   2.498   4.616
 4751TIP3    H214218   4.520   2.574   4.713
 4752TIP3   OH214219   5.262   6.033   0.745
 4752TIP3    H114220   5.314   5.966   0.700
 4752TIP3    H214221   5.173   5.999   0.746
 4753TIP3   OH214222   5.178   1.942   4.159
 4753TIP3    H114223   5.093   1.930   4.118
 4753TIP3    H214224   5.163   1.922   4.252
 4754TIP3   OH214225   1.528   2.366   5.628
 4754TIP3    H114226   1.490   2.443   5.587
 4754TIP3    H214227   1.469   2.347   5.702
 4755TIP3   OH214228   4.311   2.337   0.326
 4755TIP3    H114229   4.390   2.386   0.350
 4755TIP3    H214230   4.277   2.304   0.410
 4756TIP3   OH214231   3.567   0.577   2.276
 4756TIP3    H114232   3.661   0.594   2.272
 4756TIP3    H214233   3.551   0.515   2.205
 4757TIP3   OH214234   2.725   2.054   1.573
 4757TIP3    H114235   2.671   2.010   1.639
 4757TIP3    H214236   2.662   2.098   1.516
 4758TIP3   OH214237   6.877   3.256   0.330
 4758TIP3    H114238   6.912   3.333   0.285
 4758TIP3    H214239   6.954   3.213   0.366
 4759TIP3   OH214240   2.441   3.658   0.739
 4759TIP3    H114241   2.446   3.673   0.645
 4759TIP3    H214242   2.512   3.710   0.775
 4760TIP3   OH214243   5.146   4.258   1.180
 4760TIP3    H114244   5.112   4.214   1.102
 4760TIP3    H214245   5.077   4.320   1.204
 4761TIP3   OH214246   1.399   6.111   0.539
 4761TIP3    H114247   1.390   6.021   0.508
 4761TIP3    H214248   1.452   6.154   0.472
 4762TIP3   OH214249   6.490   2.043   3.870
 4762TIP3    H114250   6.559   2.081   3.814
 4762TIP3    H214251   6.410   2.088   3.843
 4763TIP3   OH214252   3.342   3.583   0.198
 4763TIP3    H114253   3.337   3.641   0.123
 4763TIP3    H214254   3.253   3.547   0.208
 4764TIP3   OH214255   6.167   6.489   3.501
 4764TIP3    H114256   6.126   6.576   3.497
 4764TIP3    H214257   6.150   6.451   3.415
 4765TIP3   OH214258   5.658   1.334   4.649
 4765TIP3    H114259   5.580   1.387   4.629
 4765TIP3    H214260   5.700   1.380   4.722
 4766TIP3   OH214261   5.550   4.840   0.739
 4766TIP3    H114262   5.514   4.922   0.705
 4766TIP3    H214263   5.644   4.857   0.747
 4767TIP3   OH214264   2.508   3.079   1.660
 4767TIP3    H114265   2.516   3.143   1.731
 4767TIP3    H214266   2.450   3.121   1.596
 4768TIP3   OH214267   4.625   2.446   1.505
 4768TIP3    H114268   4.634   2.499   1.585
 4768TIP3    H214269   4.583   2.505   1.443
 4769TIP3   OH214270   3.700   4.844   0.740
 4769TIP3    H114271   3.668   4.765   0.695
 4769TIP3    H214272   3.794   4.830   0.749
 4770TIP3   OH214273   0.483   4.064   2.260
 4770TIP3    H114274   0.572   4.034   2.238
 4770TIP3    H214275   0.489   4.159   2.262
 4771TIP3   OH214276   4.870   1.605   5.730
 4771TIP3    H114277   4.905   1.648   5.809
 4771TIP3    H214278   4.948   1.569   5.686
 4772TIP3   OH214279   4.092   6.670   2.320
 4772TIP3    H114280   4.016   6.722   2.296
 4772TIP3    H214281   4.100   6.604   2.251
 4773TIP3   OH214282   3.480   0.836   2.298
 4773TIP3    H114283   3.527   0.754   2.315
 4773TIP3    H214284   3.544   0.904   2.316
 4774TIP3   OH214285   4.908   6.194   1.876
 4774TIP3    H114286   4.929   6.198   1.969
 4774TIP3    H214287   4.821   6.154   1.872
 4775TIP3   OH214288   2.318   5.108   5.268
 4775TIP3    H114289   2.407   5.099   5.303
 4775TIP3    H214290   2.269   5.151   5.338
 4776TIP3   OH214291   4.173   2.891   3.206
 4776TIP3    H114292   4.109   2.821   3.219
 4776TIP3    H214293   4.125   2.960   3.160
 4777TIP3   OH214294   2.116   0.667   0.241
 4777TIP3    H114295   2.147   0.727   0.173
 4777TIP3    H214296   2.080   0.725   0.309
 4778TIP3   OH214297   4.876   3.813   1.625
 4778TIP3    H114298   4.821   3.841   1.699
 4778TIP3    H214299   4.962   3.798   1.664
 4779TIP3   OH214300   5.311   1.406   1.116
 4779TIP3    H114301   5.256   1.341   1.072
 4779TIP3    H214302   5.253   1.447   1.180
 4780TIP3   OH214303   4.755   6.595   2.763
 4780TIP3    H114304   4.849   6.599   2.752
 4780TIP3    H214305   4.719   6.637   2.684
 4781TIP3   OH214306   1.878   5.149   5.303
 4781TIP3    H114307   1.939   5.130   5.232
 4781TIP3    H214308   1.803   5.092   5.286
 4782TIP3   OH214309   6.023   4.232   1.655
 4782TIP3    H114310   5.960   4.215   1.586
 4782TIP3    H214311   6.035   4.147   1.698
 4783TIP3   OH214312   3.769   6.266   2.912
 4783TIP3    H114313   3.843   6.242   2.857
 4783TIP3    H214314   3.717   6.186   2.919
 4784TIP3   OH214315   3.524   1.861   4.066
 4784TIP3    H114316   3.509   1.922   4.138
 4784TIP3    H214317   3.437   1.846   4.029
 4785TIP3   OH214318   6.597   1.018   5.305
 4785TIP3    H114319   6.568   1.044   5.392
 4785TIP3    H214320   6.672   0.961   5.320
 4786TIP3   OH214321   1.548   4.181   5.259
 4786TIP3    H114322   1.617   4.238   5.293
 4786TIP3    H214323   1.533   4.118   5.329
 4787TIP3   OH214324   4.884   3.633   1.942
 4787TIP3    H114325   4.974   3.599   1.944
 4787TIP3    H214326   4.886   3.703   1.877
 4788TIP3   OH214327   5.527   2.377   5.512
 4788TIP3    H114328   5.478   2.444   5.561
 4788TIP3    H214329   5.550   2.420   5.430
 4789TIP3   OH214330   6.325   6.233   5.762
 4789TIP3    H114331   6.347   6.304   5.823
 4789TIP3    H214332   6.333   6.273   5.675
 4790TIP3   OH214333   0.588   0.469   0.875
 4790TIP3    H114334   0.680   0.493   0.879
 4790TIP3    H214335   0.551   0.524   0.806
 4791TIP3   OH214336   6.107   0.676   3.648
 4791TIP3    H114337   6.089   0.712   3.562
 4791TIP3    H214338   6.104   0.581   3.635
 4792TIP3   OH214339   2.676   1.566   1.945
 4792TIP3    H114340   2.750   1.514   1.914
 4792TIP3    H214341   2.657   1.532   2.033
 4793TIP3   OH214342   6.084   2.722   1.973
 4793TIP3    H114343   6.008   2.746   2.026
 4793TIP3    H214344   6.081   2.781   1.898
 4794TIP3   OH214345   0.663   2.259   4.938
 4794TIP3    H114346   0.582   2.236   4.893
 4794TIP3    H214347   0.703   2.175   4.961
 4795TIP3   OH214348   5.000   3.887   5.079
 4795TIP3    H114349   5.076   3.852   5.125
 4795TIP3    H214350   5.020   3.979   5.066
 4796TIP3   OH214351   2.569   6.148   2.776
 4796TIP3    H114352   2.491   6.127   2.827
 4796TIP3    H214353   2.539   6.210   2.710
 4797TIP3   OH214354   4.156   0.286   3.878
 4797TIP3    H114355   4.231   0.240   3.914
 4797TIP3    H214356   4.194   0.352   3.820
 4798TIP3   OH214357   5.695   3.146   0.283
 4798TIP3    H114358   5.600   3.140   0.279
 4798TIP3    H214359   5.724   3.059   0.310
 4799TIP3   OH214360   6.136   2.879   2.574
 4799TIP3    H114361   6.171   2.800   2.614
 4799TIP3    H214362   6.106   2.932   2.647
 4800TIP3   OH214363   1.895   3.950   3.392
 4800TIP3    H114364   1.960   3.966   3.323
 4800TIP3    H214365   1.937   3.981   3.472
 4801TIP3   OH214366   0.595   3.143   0.155
 4801TIP3    H114367   0.684   3.176   0.148
 4801TIP3    H214368   0.552   3.173   0.074
 4802TIP3   OH214369   3.810   0.509   5.542
 4802TIP3    H114370   3.856   0.564   5.605
 4802TIP3    H214371   3.807   0.560   5.462
 4803TIP3   OH214372   6.337   4.980   1.765
 4803TIP3    H114373   6.317   4.896   1.724
 4803TIP3    H214374   6.252   5.024   1.770
 4804TIP3   OH214375   5.686   2.340   4.177
 4804TIP3    H114376   5.684   2.245   4.183
 4804TIP3    H214377   5.635   2.360   4.098
 4805TIP3   OH214378   3.020   4.258   1.740
 4805TIP3    H114379   2.962   4.223   1.672
 4805TIP3    H214380   3.091   4.195   1.746
 4806TIP3   OH214381   6.155   5.529   2.374
 4806TIP3    H114382   6.093   5.511   2.444
 4806TIP3    H214383   6.157   5.447   2.323
 4807TIP3   OH214384   4.505   2.221   4.865
 4807TIP3    H114385   4.561   2.172   4.925
 4807TIP3    H214386   4.564   2.245   4.793
 4808TIP3   OH214387   4.129   3.215   2.034
 4808TIP3    H114388   4.044   3.241   2.069
 4808TIP3    H214389   4.111   3.137   1.982
 4809TIP3   OH214390   6.743   5.407   4.931
 4809TIP3    H114391   6.687   5.393   4.854
 4809TIP3    H214392   6.704   5.352   4.999
 4810TIP3   OH214393   6.281   3.035   5.870
 4810TIP3    H114394   6.301   3.126   5.892
 4810TIP3    H214395   6.303   3.028   5.777
 4811TIP3   OH214396   3.594   2.586   1.101
 4811TIP3    H114397   3.602   2.674   1.137
 4811TIP3    H214398   3.541   2.538   1.164
 4812TIP3   OH214399   0.259   2.338   2.952
 4812TIP3    H114400   0.194   2.278   2.915
 4812TIP3    H214401   0.267   2.408   2.888
 4813TIP3   OH214402   5.252   4.103   3.147
 4813TIP3    H114403   5.222   4.037   3.084
 4813TIP3    H214404   5.232   4.187   3.106
 4814TIP3   OH214405   6.567   5.060   2.791
 4814TIP3    H114406   6.579   4.966   2.804
 4814TIP3    H214407   6.653   5.092   2.764
 4815TIP3   OH214408   1.458   3.341   1.077
 4815TIP3    H114409   1.370   3.379   1.088
 4815TIP3    H214410   1.496   3.391   1.005
 4816TIP3   OH214411   3.364   4.409   1.410
 4816TIP3    H114412   3.310   4.443   1.481
 4816TIP3    H214413   3.442   4.374   1.453
 4817TIP3   OH214414   4.100   0.663   3.415
 4817TIP3    H114415   4.115   0.749   3.375
 4817TIP3    H214416   4.045   0.681   3.491
 4818TIP3   OH214417   4.296   1.636   1.476
 4818TIP3    H114418   4.273   1.718   1.519
 4818TIP3    H214419   4.367   1.658   1.416
 4819TIP3   OH214420   3.552   1.116   5.086
 4819TIP3    H114421   3.516   1.170   5.156
 4819TIP3    H214422   3.517   1.154   5.005
 4820TIP3   OH214423   7.082   0.121   1.762
 4820TIP3    H114424   7.108   0.062   1.832
 4820TIP3    H214425   7.121   0.083   1.683
 4821TIP3   OH214426   7.028   2.572   3.056
 4821TIP3    H114427   7.098   2.509   3.076
 4821TIP3    H214428   6.949   2.518   3.048
 4822TIP3   OH214429   7.131   4.242   2.869
 4822TIP3    H114430   7.208   4.193   2.843
 4822TIP3    H214431   7.132   4.320   2.813
 4823TIP3   OH214432   5.920   5.492   5.911
 4823TIP3    H114433   5.986   5.459   5.849
 4823TIP3    H214434   5.933   5.439   5.989
 4824TIP3   OH214435   5.435   0.691   3.604
 4824TIP3    H114436   5.500   0.731   3.662
 4824TIP3    H214437   5.373   0.761   3.585
 4825TIP3   OH214438   5.614   1.945   2.028
 4825TIP3    H114439   5.704   1.914   2.035
 4825TIP3    H214440   5.565   1.868   1.998
 4826TIP3   OH214441   1.077   3.030   3.424
 4826TIP3    H114442   1.002   2.986   3.464
 4826TIP3    H214443   1.092   2.981   3.342
 4827TIP3   OH214444   0.685   5.408   0.076
 4827TIP3    H114445   0.635   5.380   0.152
 4827TIP3    H214446   0.619   5.433   0.011
 4828TIP3   OH214447   4.474   5.989   3.714
 4828TIP3    H114448   4.489   5.988   3.620
 4828TIP3    H214449   4.414   6.062   3.728
 4829TIP3   OH214450   6.410   3.056   3.819
 4829TIP3    H114451   6.488   3.102   3.789
 4829TIP3    H214452   6.345   3.070   3.750
 4830TIP3   OH214453   0.945   1.870   2.402
 4830TIP3    H114454   0.999   1.804   2.447
 4830TIP3    H214455   0.907   1.822   2.328
 4831TIP3   OH214456   0.748   6.184   3.833
 4831TIP3    H114457   0.691   6.215   3.903
 4831TIP3    H214458   0.688   6.165   3.761
 4832TIP3   OH214459   2.733   4.904   3.864
 4832TIP3    H114460   2.796   4.866   3.925
 4832TIP3    H214461   2.730   4.997   3.888
 4833TIP3   OH214462   6.298   2.556   2.037
 4833TIP3    H114463   6.353   2.580   1.963
 4833TIP3    H214464   6.220   2.612   2.028
 4834TIP3   OH214465   2.949   3.655   0.389
 4834TIP3    H114466   2.944   3.659   0.485
 4834TIP3    H214467   2.866   3.693   0.360
 4835TIP3   OH214468   2.510   6.466   2.909
 4835TIP3    H114469   2.448   6.447   2.839
 4835TIP3    H214470   2.551   6.549   2.884
 4836TIP3   OH214471   3.985   6.695   0.246
 4836TIP3    H114472   3.948   6.768   0.196
 4836TIP3    H214473   4.049   6.656   0.186
 4837TIP3   OH214474   6.450   0.976   3.484
 4837TIP3    H114475   6.487   1.044   3.428
 4837TIP3    H214476   6.373   0.945   3.436
 4838TIP3   OH214477   1.394   2.000   4.642
 4838TIP3    H114478   1.359   2.052   4.570
 4838TIP3    H214479   1.439   2.063   4.697
 4839TIP3   OH214480   6.048   4.122   4.240
 4839TIP3    H114481   6.117   4.056   4.249
 4839TIP3    H214482   5.988   4.104   4.312
 4840TIP3   OH214483   3.333   3.106   0.429
 4840TIP3    H114484   3.306   3.025   0.385
 4840TIP3    H214485   3.426   3.115   0.408
 4841TIP3   OH214486   2.190   3.015   0.334
 4841TIP3    H114487   2.137   3.062   0.270
 4841TIP3    H214488   2.164   3.051   0.418
 4842TIP3   OH214489   0.097   0.970   3.263
 4842TIP3    H114490   0.086   1.044   3.322
 4842TIP3    H214491   0.045   0.991   3.186
 4843TIP3   OH214492   3.296   4.810   4.339
 4843TIP3    H114493   3.276   4.843   4.252
 4843TIP3    H214494   3.213   4.772   4.369
 4844TIP3   OH214495   3.884   4.092   0.490
 4844TIP3    H114496   3.963   4.072   0.541
 4844TIP3    H214497   3.814   4.093   0.555
 4845TIP3   OH214498   5.576   4.122   1.295
 4845TIP3    H114499   5.523   4.044   1.312
 4845TIP3    H214500   5.517   4.183   1.251
 4846TIP3   OH214501   2.502   0.915   1.958
 4846TIP3    H114502   2.521   0.922   2.051
 4846TIP3    H214503   2.434   0.847   1.952
 4847TIP3   OH214504   3.137   3.173   3.803
 4847TIP3    H114505   3.123   3.247   3.744
 4847TIP3    H214506   3.101   3.098   3.756
 4848TIP3   OH214507   4.821   5.205   1.290
 4848TIP3    H114508   4.835   5.168   1.203
 4848TIP3    H214509   4.909   5.214   1.326
 4849TIP3   OH214510   1.085   2.636   5.590
 4849TIP3    H114511   1.070   2.636   5.684
 4849TIP3    H214512   1.008   2.593   5.553
 4850TIP3   OH214513   1.127   0.139   2.968
 4850TIP3    H114514   1.039   0.173   2.955
 4850TIP3    H214515   1.139   0.139   3.063
 4851TIP3   OH214516   6.742   1.682   0.878
 4851TIP3    H114517   6.755   1.762   0.827
 4851TIP3    H214518   6.801   1.692   0.953
 4852TIP3   OH214519   5.338   3.851   1.914
 4852TIP3    H114520   5.364   3.765   1.880
 4852TIP3    H214521   5.339   3.840   2.009
 4853TIP3   OH214522   5.907   2.066   3.398
 4853TIP3    H114523   5.954   2.149   3.385
 4853TIP3    H214524   5.930   2.014   3.321
 4854TIP3   OH214525   6.923   4.629   5.293
 4854TIP3    H114526   6.862   4.601   5.362
 4854TIP3    H214527   6.982   4.555   5.282
 4855TIP3   OH214528   3.015   0.922   3.082
 4855TIP3    H114529   3.050   0.930   2.993
 4855TIP3    H214530   3.078   0.971   3.136
 4856TIP3   OH214531   5.745   0.902   0.297
 4856TIP3    H114532   5.768   0.831   0.356
 4856TIP3    H214533   5.663   0.876   0.257
 4857TIP3   OH214534   2.881   2.101   2.651
 4857TIP3    H114535   2.968   2.075   2.622
 4857TIP3    H214536   2.889   2.193   2.675
 4858TIP3   OH214537   2.754   3.218   4.134
 4858TIP3    H114538   2.721   3.306   4.116
 4858TIP3    H214539   2.839   3.233   4.175
 4859TIP3   OH214540   2.336   0.901   0.651
 4859TIP3    H114541   2.432   0.907   0.648
 4859TIP3    H214542   2.314   0.829   0.592
 4860TIP3   OH214543   3.066   3.274   3.357
 4860TIP3    H114544   3.153   3.290   3.393
 4860TIP3    H214545   3.011   3.343   3.394
 4861TIP3   OH214546   3.815   4.106   4.454
 4861TIP3    H114547   3.865   4.162   4.395
 4861TIP3    H214548   3.734   4.154   4.470
 4862TIP3   OH214549   1.428   2.592   5.880
 4862TIP3    H114550   1.462   2.509   5.913
 4862TIP3    H214551   1.430   2.651   5.955
 4863TIP3   OH214552   3.692   4.520   5.841
 4863TIP3    H114553   3.666   4.511   5.750
 4863TIP3    H214554   3.622   4.477   5.891
 4864TIP3   OH214555   4.318   0.708   1.938
 4864TIP3    H114556   4.373   0.646   1.986
 4864TIP3    H214557   4.237   0.660   1.921
 4865TIP3   OH214558   2.961   4.239   5.194
 4865TIP3    H114559   2.922   4.159   5.229
 4865TIP3    H214560   3.034   4.257   5.253
 4866TIP3   OH214561   0.094   3.385   3.062
 4866TIP3    H114562   0.087   3.362   3.155
 4866TIP3    H214563   0.189   3.386   3.046
 4867TIP3   OH214564   2.217   2.849   2.408
 4867TIP3    H114565   2.141   2.832   2.463
 4867TIP3    H214566   2.239   2.765   2.369
 4868TIP3   OH214567   3.302   3.169   2.523
 4868TIP3    H114568   3.331   3.167   2.432
 4868TIP3    H214569   3.208   3.150   2.520
 4869TIP3   OH214570   4.854   4.909   1.621
 4869TIP3    H114571   4.775   4.919   1.567
 4869TIP3    H214572   4.822   4.874   1.704
 4870TIP3   OH214573   5.973   2.213   5.176
 4870TIP3    H114574   6.021   2.186   5.254
 4870TIP3    H214575   6.019   2.169   5.103
 4871TIP3   OH214576   0.926   1.087   4.553
 4871TIP3    H114577   0.977   1.071   4.633
 4871TIP3    H214578   0.966   1.031   4.487
 4872TIP3   OH214579   1.947   1.989   4.991
 4872TIP3    H114580   1.964   2.083   4.986
 4872TIP3    H214581   1.858   1.983   5.025
 4873TIP3   OH214582   6.931   2.753   3.954
 4873TIP3    H114583   6.880   2.828   3.923
 4873TIP3    H214584   6.949   2.702   3.875
 4874TIP3   OH214585   5.912   6.122   2.612
 4874TIP3    H114586   5.930   6.199   2.558
 4874TIP3    H214587   5.991   6.112   2.666
 4875TIP3   OH214588   6.031   4.237   0.440
 4875TIP3    H114589   6.091   4.238   0.515
 4875TIP3    H214590   5.996   4.325   0.436
 4876TIP3   OH214591   4.025   3.860   2.679
 4876TIP3    H114592   3.968   3.839   2.752
 4876TIP3    H214593   4.011   3.954   2.663
 4877TIP3   OH214594   1.698   5.795   3.698
 4877TIP3    H114595   1.698   5.832   3.610
 4877TIP3    H214596   1.609   5.810   3.731
 4878TIP3   OH214597   1.803   2.247   3.357
 4878TIP3    H114598   1.823   2.337   3.379
 4878TIP3    H214599   1.728   2.224   3.412
 4879TIP3   OH214600   3.762   0.692   0.128
 4879TIP3    H114601   3.756   0.787   0.136
 4879TIP3    H214602   3.726   0.672   0.041
 4880TIP3   OH214603   0.789   4.316   5.399
 4880TIP3    H114604   0.851   4.249   5.429
 4880TIP3    H214605   0.765   4.363   5.479
 4881TIP3   OH214606   4.629   0.978   5.187
 4881TIP3    H114607   4.643   0.891   5.150
 4881TIP3    H214608   4.596   0.961   5.275
 4882TIP3   OH214609   6.996   4.988   4.157
 4882TIP3    H114610   7.039   4.911   4.193
 4882TIP3    H214611   7.061   5.028   4.100
 4883TIP3   OH214612   2.126   5.536   3.412
 4883TIP3    H114613   2.113   5.566   3.502
 4883TIP3    H214614   2.211   5.492   3.414
 4884TIP3   OH214615   3.940   2.208   4.552
 4884TIP3    H114616   3.900   2.258   4.481
 4884TIP3    H214617   3.984   2.274   4.605
 4885TIP3   OH214618   5.064   4.606   0.619
 4885TIP3    H114619   5.157   4.595   0.639
 4885TIP3    H214620   5.032   4.664   0.687
 4886TIP3   OH214621   0.920   1.480   2.914
 4886TIP3    H114622   0.899   1.469   3.007
 4886TIP3    H214623   0.923   1.575   2.901
 4887TIP3   OH214624   3.476   5.278   2.589
 4887TIP3    H114625   3.424   5.316   2.659
 4887TIP3    H214626   3.518   5.353   2.547
 4888TIP3   OH214627   1.632   4.531   2.511
 4888TIP3    H114628   1.592   4.444   2.515
 4888TIP3    H214629   1.576   4.586   2.566
 4889TIP3   OH214630   0.183   0.638   1.509
 4889TIP3    H114631   0.145   0.551   1.496
 4889TIP3    H214632   0.240   0.651   1.433
 4890TIP3   OH214633   2.706   1.398   3.413
 4890TIP3    H114634   2.701   1.414   3.507
 4890TIP3    H214635   2.680   1.481   3.373
 4891TIP3   OH214636   4.703   2.982   3.645
 4891TIP3    H114637   4.734   2.912   3.587
 4891TIP3    H214638   4.625   2.946   3.687
 4892TIP3   OH214639   1.180   5.244   5.921
 4892TIP3    H114640   1.241   5.268   5.990
 4892TIP3    H214641   1.118   5.317   5.917
 4893TIP3   OH214642   6.186   0.641   4.149
 4893TIP3    H114643   6.106   0.592   4.163
 4893TIP3    H214644   6.167   0.729   4.181
 4894TIP3   OH214645   4.836   3.470   4.560
 4894TIP3    H114646   4.904   3.537   4.548
 4894TIP3    H214647   4.773   3.486   4.490
 4895TIP3   OH214648   6.748   6.593   0.581
 4895TIP3    H114649   6.761   6.658   0.512
 4895TIP3    H214650   6.829   6.594   0.631
 4896TIP3   OH214651   6.566   0.712   3.525
 4896TIP3    H114652   6.609   0.796   3.512
 4896TIP3    H214653   6.527   0.692   3.440
 4897TIP3   OH214654   5.588   0.590   0.347
 4897TIP3    H114655   5.500   0.554   0.357
 4897TIP3    H214656   5.624   0.591   0.436
 4898TIP3   OH214657   2.922   4.019   2.179
 4898TIP3    H114658   2.986   3.950   2.161
 4898TIP3    H214659   2.863   3.981   2.244
 4899TIP3   OH214660   6.706   2.633   5.747
 4899TIP3    H114661   6.681   2.725   5.744
 4899TIP3    H214662   6.629   2.589   5.785
 4900TIP3   OH214663   1.162   5.307   4.453
 4900TIP3    H114664   1.124   5.226   4.489
 4900TIP3    H214665   1.246   5.280   4.417
 4901TIP3   OH214666   4.919   4.682   5.192
 4901TIP3    H114667   4.887   4.661   5.280
 4901TIP3    H214668   4.949   4.773   5.199
 4902TIP3   OH214669   1.301   2.476   0.261
 4902TIP3    H114670   1.312   2.457   0.354
 4902TIP3    H214671   1.357   2.552   0.245
 4903TIP3   OH214672   3.895   5.222   0.163
 4903TIP3    H114673   3.808   5.255   0.186
 4903TIP3    H214674   3.880   5.134   0.128
 4904TIP3   OH214675   5.539   4.601   2.793
 4904TIP3    H114676   5.572   4.684   2.826
 4904TIP3    H214677   5.451   4.593   2.830
 4905TIP3   OH214678   4.504   0.951   5.441
 4905TIP3    H114679   4.453   1.025   5.473
 4905TIP3    H214680   4.458   0.874   5.475
 4906TIP3   OH214681   2.029   0.682   4.478
 4906TIP3    H114682   2.024   0.756   4.539
 4906TIP3    H214683   2.042   0.722   4.392
 4907TIP3   OH214684   0.573   3.636   1.196
 4907TIP3    H114685   0.657   3.597   1.170
 4907TIP3    H214686   0.598   3.714   1.246
 4908TIP3   OH214687   3.126   5.326   4.459
 4908TIP3    H114688   3.204   5.341   4.513
 4908TIP3    H214689   3.120   5.403   4.404
 4909TIP3   OH214690   1.824   1.960   0.826
 4909TIP3    H114691   1.749   1.937   0.772
 4909TIP3    H214692   1.794   1.947   0.916
 4910TIP3   OH214693   4.564   1.490   1.607
 4910TIP3    H114694   4.605   1.474   1.692
 4910TIP3    H214695   4.633   1.532   1.555
 4911TIP3   OH214696   7.209   6.355   5.530
 4911TIP3    H114697   7.145   6.410   5.485
 4911TIP3    H214698   7.163   6.322   5.607
 4912TIP3   OH214699   7.003   3.346   1.880
 4912TIP3    H114700   7.093   3.344   1.847
 4912TIP3    H214701   6.984   3.439   1.892
 4913TIP3   OH214702   4.319   0.213   4.652
 4913TIP3    H114703   4.379   0.163   4.708
 4913TIP3    H214704   4.305   0.295   4.699
 4914TIP3   OH214705   2.539   5.632   2.098
 4914TIP3    H114706   2.495   5.633   2.013
 4914TIP3    H214707   2.485   5.689   2.153
 4915TIP3   OH214708   6.382   3.852   3.265
 4915TIP3    H114709   6.399   3.818   3.177
 4915TIP3    H214710   6.317   3.920   3.252
 4916TIP3   OH214711   4.337   6.186   2.062
 4916TIP3    H114712   4.363   6.125   1.993
 4916TIP3    H214713   4.255   6.224   2.031
 4917TIP3   OH214714   1.159   0.248   5.836
 4917TIP3    H114715   1.078   0.200   5.819
 4917TIP3    H214716   1.228   0.190   5.802
 4918TIP3   OH214717   6.343   5.752   0.882
 4918TIP3    H114718   6.342   5.664   0.847
 4918TIP3    H214719   6.295   5.746   0.965
 4919TIP3   OH214720   3.007   5.677   5.314
 4919TIP3    H114721   2.931   5.719   5.355
 4919TIP3    H214722   3.041   5.617   5.381
 4920TIP3   OH214723   2.014   3.428   0.420
 4920TIP3    H114724   1.929   3.461   0.449
 4920TIP3    H214725   2.043   3.370   0.490
 4921TIP3   OH214726   5.408   6.287   4.003
 4921TIP3    H114727   5.492   6.264   4.044
 4921TIP3    H214728   5.427   6.368   3.956
 4922TIP3   OH214729   6.099   3.439   5.041
 4922TIP3    H114730   6.182   3.428   4.995
 4922TIP3    H214731   6.034   3.444   4.971
 4923TIP3   OH214732   4.239   0.463   1.656
 4923TIP3    H114733   4.202   0.514   1.728
 4923TIP3    H214734   4.290   0.394   1.698
 4924TIP3   OH214735   5.007   3.864   4.101
 4924TIP3    H114736   5.100   3.886   4.100
 4924TIP3    H214737   5.000   3.787   4.157
 4925TIP3   OH214738   0.106   5.794   5.140
 4925TIP3    H114739   0.113   5.759   5.051
 4925TIP3    H214740   0.012   5.801   5.155
 4926TIP3   OH214741   6.559   6.262   4.054
 4926TIP3    H114742   6.491   6.320   4.020
 4926TIP3    H214743   6.637   6.285   4.004
 4927TIP3   OH214744   5.955   5.648   4.481
 4927TIP3    H114745   5.972   5.555   4.498
 4927TIP3    H214746   5.974   5.660   4.389
 4928TIP3   OH214747   1.305   5.098   0.994
 4928TIP3    H114748   1.265   5.012   0.987
 4928TIP3    H214749   1.381   5.095   0.937
 4929TIP3   OH214750   2.206   3.725   1.831
 4929TIP3    H114751   2.260   3.780   1.774
 4929TIP3    H214752   2.160   3.666   1.770
 4930TIP3   OH214753   6.518   6.207   2.564
 4930TIP3    H114754   6.545   6.286   2.517
 4930TIP3    H214755   6.423   6.217   2.575
 4931TIP3   OH214756   3.610   3.539   2.079
 4931TIP3    H114757   3.515   3.535   2.063
 4931TIP3    H214758   3.621   3.620   2.128
 4932TIP3   OH214759   1.183   6.124   3.203
 4932TIP3    H114760   1.274   6.100   3.219
 4932TIP3    H214761   1.188   6.201   3.147
 4933TIP3   OH214762   5.287   5.015   1.723
 4933TIP3    H114763   5.257   5.080   1.787
 4933TIP3    H214764   5.299   4.935   1.774
 4934TIP3   OH214765   6.607   2.381   4.632
 4934TIP3    H114766   6.670   2.418   4.571
 4934TIP3    H214767   6.608   2.287   4.614
 4935TIP3   OH214768   6.528   3.727   3.476
 4935TIP3    H114769   6.559   3.768   3.557
 4935TIP3    H214770   6.473   3.794   3.435
 4936TIP3   OH214771   3.371   2.093   5.131
 4936TIP3    H114772   3.435   2.037   5.087
 4936TIP3    H214773   3.402   2.098   5.222
 4937TIP3   OH214774   3.914   0.611   3.086
 4937TIP3    H114775   3.851   0.629   3.016
 4937TIP3    H214776   3.869   0.637   3.167
 4938TIP3   OH214777   5.441   2.469   3.746
 4938TIP3    H114778   5.530   2.465   3.710
 4938TIP3    H214779   5.426   2.563   3.760
 4939TIP3   OH214780   4.887   3.132   3.942
 4939TIP3    H114781   4.884   3.036   3.933
 4939TIP3    H214782   4.980   3.152   3.953
 4940TIP3   OH214783   2.253   6.025   0.673
 4940TIP3    H114784   2.267   5.933   0.698
 4940TIP3    H214785   2.320   6.042   0.607
 4941TIP3   OH214786   3.583   5.006   3.885
 4941TIP3    H114787   3.622   4.919   3.886
 4941TIP3    H214788   3.554   5.018   3.795
 4942TIP3   OH214789   2.996   5.705   3.121
 4942TIP3    H114790   3.058   5.753   3.175
 4942TIP3    H214791   2.911   5.724   3.160
 4943TIP3   OH214792   3.263   4.447   4.182
 4943TIP3    H114793   3.206   4.371   4.193
 4943TIP3    H214794   3.269   4.485   4.270
 4944TIP3   OH214795   2.357   0.789   5.099
 4944TIP3    H114796   2.439   0.836   5.117
 4944TIP3    H214797   2.385   0.699   5.079
 4945TIP3   OH214798   1.643   4.768   4.225
 4945TIP3    H114799   1.632   4.742   4.134
 4945TIP3    H214800   1.702   4.702   4.262
 4946TIP3   OH214801   5.934   0.716   4.470
 4946TIP3    H114802   5.951   0.801   4.430
 4946TIP3    H214803   6.007   0.661   4.443
 4947TIP3   OH214804   5.367   6.677   4.619
 4947TIP3    H114805   5.376   6.582   4.613
 4947TIP3    H214806   5.326   6.692   4.704
 4948TIP3   OH214807   2.391   6.569   1.943
 4948TIP3    H114808   2.386   6.540   1.852
 4948TIP3    H214809   2.455   6.640   1.942
 4949TIP3   OH214810   0.981   3.237   0.635
 4949TIP3    H114811   0.918   3.305   0.658
 4949TIP3    H214812   0.963   3.218   0.543
 4950TIP3   OH214813   2.001   2.931   0.639
 4950TIP3    H114814   1.922   2.951   0.689
 4950TIP3    H214815   2.069   2.915   0.704
 4951TIP3   OH214816   2.970   6.197   1.530
 4951TIP3    H114817   2.946   6.288   1.546
 4951TIP3    H214818   3.053   6.186   1.576
 4952TIP3   OH214819   4.587   3.646   3.521
 4952TIP3    H114820   4.515   3.643   3.585
 4952TIP3    H214821   4.660   3.686   3.568
 4953TIP3   OH214822   5.504   3.577   3.810
 4953TIP3    H114823   5.573   3.642   3.819
 4953TIP3    H214824   5.457   3.602   3.731
 4954TIP3   OH214825   3.317   3.957   3.701
 4954TIP3    H114826   3.333   3.960   3.795
 4954TIP3    H214827   3.404   3.955   3.661
 4955TIP3   OH214828   3.999   3.930   5.201
 4955TIP3    H114829   3.933   3.999   5.192
 4955TIP3    H214830   4.082   3.973   5.184
 4956TIP3   OH214831   3.584   1.882   0.189
 4956TIP3    H114832   3.563   1.817   0.256
 4956TIP3    H214833   3.651   1.840   0.135
 4957TIP3   OH214834   2.070   0.029   0.124
 4957TIP3    H114835   2.135   0.047   0.056
 4957TIP3    H214836   1.994   0.082   0.098
 4958TIP3   OH214837   1.977   0.567   5.378
 4958TIP3    H114838   2.072   0.578   5.369
 4958TIP3    H214839   1.958   0.592   5.468
 4959TIP3   OH214840   4.269   5.577   5.562
 4959TIP3    H114841   4.208   5.504   5.551
 4959TIP3    H214842   4.329   5.569   5.488
 4960TIP3   OH214843   6.298   0.576   1.317
 4960TIP3    H114844   6.239   0.501   1.317
 4960TIP3    H214845   6.363   0.556   1.385
 4961TIP3   OH214846   4.827   4.945   3.195
 4961TIP3    H114847   4.870   4.918   3.277
 4961TIP3    H214848   4.860   5.033   3.178
 4962TIP3   OH214849   5.327   6.659   5.233
 4962TIP3    H114850   5.316   6.699   5.320
 4962TIP3    H214851   5.374   6.578   5.250
 4963TIP3   OH214852   3.176   1.724   1.280
 4963TIP3    H114853   3.244   1.689   1.337
 4963TIP3    H214854   3.161   1.813   1.312
 4964TIP3   OH214855   4.517   4.429   0.050
 4964TIP3    H114856   4.601   4.388   0.069
 4964TIP3    H214857   4.502   4.490   0.123
 4965TIP3   OH214858   0.276   2.896   5.050
 4965TIP3    H114859   0.182   2.900   5.033
 4965TIP3    H214860   0.317   2.904   4.964
 4966TIP3   OH214861   5.287   3.734   5.806
 4966TIP3    H114862   5.365   3.680   5.796
 4966TIP3    H214863   5.291   3.796   5.733
 4967TIP3   OH214864   3.256   4.075   2.071
 4967TIP3    H114865   3.201   4.003   2.041
 4967TIP3    H214866   3.253   4.068   2.167
 4968TIP3   OH214867   4.665   1.292   4.234
 4968TIP3    H114868   4.739   1.237   4.205
 4968TIP3    H214869   4.640   1.257   4.319
 4969TIP3   OH214870   4.075   5.269   1.590
 4969TIP3    H114871   4.107   5.179   1.586
 4969TIP3    H214872   3.988   5.261   1.631
 4970TIP3   OH214873   0.262   3.544   2.482
 4970TIP3    H114874   0.211   3.521   2.559
 4970TIP3    H214875   0.343   3.580   2.516
 4971TIP3   OH214876   1.422   6.412   0.236
 4971TIP3    H114877   1.418   6.436   0.144
 4971TIP3    H214878   1.379   6.484   0.282
 4972TIP3   OH214879   2.758   2.232   5.011
 4972TIP3    H114880   2.762   2.326   5.028
 4972TIP3    H214881   2.790   2.223   4.921
 4973TIP3   OH214882   1.508   4.833   4.577
 4973TIP3    H114883   1.556   4.853   4.496
 4973TIP3    H214884   1.455   4.911   4.593
 4974TIP3   OH214885   1.567   3.753   0.179
 4974TIP3    H114886   1.504   3.690   0.143
 4974TIP3    H214887   1.644   3.700   0.200
 4975TIP3   OH214888   6.822   6.585   5.230
 4975TIP3    H114889   6.804   6.655   5.168
 4975TIP3    H214890   6.867   6.518   5.178
 4976TIP3   OH214891   4.808   3.296   3.333
 4976TIP3    H114892   4.720   3.268   3.359
 4976TIP3    H214893   4.863   3.219   3.348
 4977TIP3   OH214894   4.746   1.166   2.984
 4977TIP3    H114895   4.665   1.115   2.977
 4977TIP3    H214896   4.789   1.154   2.899
 4978TIP3   OH214897   3.460   2.837   0.608
 4978TIP3    H114898   3.545   2.863   0.644
 4978TIP3    H214899   3.476   2.824   0.515
 4979TIP3   OH214900   5.852   0.099   0.135
 4979TIP3    H114901   5.841   0.188   0.101
 4979TIP3    H214902   5.769   0.056   0.114
 4980TIP3   OH214903   6.554   0.792   0.774
 4980TIP3    H114904   6.472   0.820   0.815
 4980TIP3    H214905   6.619   0.797   0.844
 4981TIP3   OH214906   5.091   5.814   0.688
 4981TIP3    H114907   5.001   5.801   0.716
 4981TIP3    H214908   5.099   5.764   0.607
 4982TIP3   OH214909   4.879   1.984   1.382
 4982TIP3    H114910   4.787   1.959   1.378
 4982TIP3    H214911   4.927   1.906   1.352
 4983TIP3   OH214912   4.658   5.102   4.649
 4983TIP3    H114913   4.569   5.088   4.616
 4983TIP3    H214914   4.646   5.161   4.724
 4984TIP3   OH214915   6.366   1.868   4.586
 4984TIP3    H114916   6.415   1.790   4.559
 4984TIP3    H214917   6.276   1.850   4.562
 4985TIP3   OH214918   6.518   6.059   0.896
 4985TIP3    H114919   6.572   6.125   0.852
 4985TIP3    H214920   6.554   5.975   0.868
 4986TIP3   OH214921   4.871   1.212   0.164
 4986TIP3    H114922   4.845   1.133   0.116
 4986TIP3    H214923   4.865   1.282   0.099
 4987TIP3   OH214924   3.164   4.173   1.310
 4987TIP3    H114925   3.199   4.260   1.332
 4987TIP3    H214926   3.224   4.111   1.350
 4988TIP3   OH214927   6.830   2.902   1.623
 4988TIP3    H114928   6.804   2.994   1.631
 4988TIP3    H214929   6.825   2.868   1.712
 4989TIP3   OH214930   3.031   0.990   0.473
 4989TIP3    H114931   3.019   0.914   0.530
 4989TIP3    H214932   3.126   0.999   0.466
 4990TIP3   OH214933   5.404   0.771   1.884
 4990TIP3    H114934   5.498   0.776   1.900
 4990TIP3    H214935   5.396   0.754   1.791
 4991TIP3   OH214936   3.181   4.389   5.273
 4991TIP3    H114937   3.246   4.454   5.245
 4991TIP3    H214938   3.161   4.413   5.364
 4992TIP3   OH214939   4.631   2.285   4.626
 4992TIP3    H114940   4.592   2.365   4.591
 4992TIP3    H214941   4.634   2.225   4.552
 4993TIP3   OH214942   0.531   2.706   2.972
 4993TIP3    H114943   0.587   2.708   3.050
 4993TIP3    H214944   0.443   2.720   3.005
 4994TIP3   OH214945   4.211   1.936  -0.025
 4994TIP3    H114946   4.293   1.894  -0.050
 4994TIP3    H214947   4.222   1.954   0.069
 4995TIP3   OH214948   0.848   1.666   5.383
 4995TIP3    H114949   0.941   1.682   5.368
 4995TIP3    H214950   0.829   1.584   5.336
 4996TIP3   OH214951   4.683   1.647   0.860
 4996TIP3    H114952   4.604   1.595   0.875
 4996TIP3    H214953   4.698   1.640   0.765
 4997TIP3   OH214954   3.037   5.105   4.327
 4997TIP3    H114955   3.034   5.062   4.413
 4997TIP3    H214956   3.033   5.199   4.347
 4998TIP3   OH214957   0.308   1.613   0.579
 4998TIP3    H114958   0.218   1.581   0.575
 4998TIP3    H214959   0.319   1.639   0.671
 4999TIP3   OH214960   2.903   2.647   5.191
 4999TIP3    H114961   2.916   2.737   5.220
 4999TIP3    H214962   2.992   2.610   5.185
 5000TIP3   OH214963   3.690   1.545   5.662
 5000TIP3    H114964   3.705   1.598   5.584
 5000TIP3    H214965   3.595   1.534   5.666
 5001TIP3   OH214966   1.997   4.088   1.614
 5001TIP3    H114967   2.082   4.077   1.656
 5001TIP3    H214968   1.952   4.004   1.628
 5002TIP3   OH214969   1.323   6.448   4.846
 5002TIP3    H114970   1.414   6.465   4.869
 5002TIP3    H214971   1.275   6.521   4.885
 5003TIP3   OH214972   4.079   5.075   2.755
 5003TIP3    H114973   4.142   5.088   2.825
 5003TIP3    H214974   4.132   5.048   2.680
 5004TIP3   OH214975   2.043   3.706   4.180
 5004TIP3    H114976   2.122   3.695   4.233
 5004TIP3    H214977   2.067   3.773   4.116
 5005TIP3   OH214978   6.805   1.089   1.668
 5005TIP3    H114979   6.865   1.040   1.611
 5005TIP3    H214980   6.718   1.067   1.636
 5006TIP3   OH214981   4.147   0.252   1.169
 5006TIP3    H114982   4.198   0.219   1.095
 5006TIP3    H214983   4.157   0.186   1.237
 5007TIP3   OH214984   3.243   0.516   1.415
 5007TIP3    H114985   3.233   0.582   1.483
 5007TIP3    H214986   3.156   0.477   1.406
 5008TIP3   OH214987   3.380   4.576   5.216
 5008TIP3    H114988   3.453   4.623   5.174
 5008TIP3    H214989   3.303   4.603   5.166
 5009TIP3   OH214990   4.382   5.467   3.777
 5009TIP3    H114991   4.339   5.536   3.827
 5009TIP3    H214992   4.400   5.398   3.842
 5010TIP3   OH214993   4.789   6.761   1.524
 5010TIP3    H114994   4.874   6.735   1.559
 5010TIP3    H214995   4.731   6.688   1.545
 5011TIP3   OH214996   1.599   4.514   2.939
 5011TIP3    H114997   1.560   4.485   3.021
 5011TIP3    H214998   1.637   4.434   2.901
 5012TIP3   OH214999   6.235   0.838   1.936
 5012TIP3    H115000   6.154   0.788   1.938
 5012TIP3    H215001   6.247   0.862   1.844
 5013TIP3   OH215002   0.511   1.796   4.140
 5013TIP3    H115003   0.599   1.779   4.107
 5013TIP3    H215004   0.481   1.710   4.171
 5014TIP3   OH215005   2.667   6.169   5.823
 5014TIP3    H115006   2.671   6.098   5.887
 5014TIP3    H215007   2.685   6.248   5.874
 5015TIP3   OH215008   1.887   3.019   0.357
 5015TIP3    H115009   1.964   2.974   0.393
 5015TIP3    H215010   1.857   3.076   0.428
 5016TIP3   OH215011   5.256   1.836   0.461
 5016TIP3    H115012   5.181   1.777   0.471
 5016TIP3    H215013   5.297   1.837   0.548
 5017TIP3   OH215014   1.335   4.338   2.621
 5017TIP3    H115015   1.376   4.313   2.538
 5017TIP3    H215016   1.261   4.277   2.630
 5018TIP3   OH215017   4.984   3.134   3.069
 5018TIP3    H115018   4.891   3.129   3.051
 5018TIP3    H215019   4.990   3.144   3.164
 5019TIP3   OH215020   7.130   6.780   1.475
 5019TIP3    H115021   7.189   6.798   1.548
 5019TIP3    H215022   7.188   6.754   1.404
 5020TIP3   OH215023   5.644   3.204   0.902
 5020TIP3    H115024   5.699   3.259   0.957
 5020TIP3    H215025   5.701   3.180   0.828
 5021TIP3   OH215026   1.937   4.778   4.788
 5021TIP3    H115027   1.949   4.812   4.699
 5021TIP3    H215028   1.976   4.691   4.786
 5022TIP3   OH215029   4.757   3.768   0.132
 5022TIP3    H115030   4.769   3.698   0.196
 5022TIP3    H215031   4.691   3.825   0.173
 5023TIP3   OH215032   4.050   4.036   1.791
 5023TIP3    H115033   4.050   4.065   1.700
 5023TIP3    H215034   4.082   4.111   1.840
 5024TIP3   OH215035   2.984   1.446   3.210
 5024TIP3    H115036   3.064   1.480   3.251
 5024TIP3    H215037   2.933   1.525   3.188
 5025TIP3   OH215038   0.819   2.834   5.628
 5025TIP3    H115039   0.724   2.835   5.639
 5025TIP3    H215040   0.845   2.744   5.649
 5026TIP3   OH215041   4.693   5.699   4.581
 5026TIP3    H115042   4.784   5.726   4.585
 5026TIP3    H215043   4.682   5.641   4.656
 5027TIP3   OH215044   4.112   6.667   3.472
 5027TIP3    H115045   4.039   6.606   3.455
 5027TIP3    H215046   4.126   6.662   3.566
 5028TIP3   OH215047   3.117   0.397   2.993
 5028TIP3    H115048   3.166   0.385   3.075
 5028TIP3    H215049   3.026   0.406   3.021
 5029TIP3   OH215050   0.782   2.660   2.033
 5029TIP3    H115051   0.855   2.714   2.059
 5029TIP3    H215052   0.762   2.606   2.109
 5030TIP3   OH215053   6.761   4.395   2.454
 5030TIP3    H115054   6.731   4.439   2.534
 5030TIP3    H215055   6.828   4.334   2.484
 5031TIP3   OH215056   2.538   4.616   4.179
 5031TIP3    H115057   2.502   4.705   4.185
 5031TIP3    H215058   2.623   4.621   4.222
 5032TIP3   OH215059   2.648   4.199   4.910
 5032TIP3    H115060   2.580   4.207   4.977
 5032TIP3    H215061   2.668   4.290   4.886
 5033TIP3   OH215062   2.665   6.671   2.802
 5033TIP3    H115063   2.720   6.623   2.864
 5033TIP3    H215064   2.681   6.763   2.822
 5034TIP3   OH215065   3.962   1.821   4.071
 5034TIP3    H115066   4.010   1.826   4.153
 5034TIP3    H215067   3.924   1.909   4.059
 5035TIP3   OH215068   3.865   3.489   2.144
 5035TIP3    H115069   3.806   3.519   2.075
 5035TIP3    H215070   3.884   3.398   2.121
 5036TIP3   OH215071   0.738   1.037   3.634
 5036TIP3    H115072   0.704   0.957   3.593
 5036TIP3    H215073   0.715   1.106   3.572
 5037TIP3   OH215074   5.374   2.034   0.327
 5037TIP3    H115075   5.346   1.962   0.384
 5037TIP3    H215076   5.303   2.098   0.334
 5038TIP3   OH215077   4.566   1.696   2.050
 5038TIP3    H115078   4.515   1.617   2.071
 5038TIP3    H215079   4.527   1.729   1.969
 5039TIP3   OH215080   2.149   1.670   1.159
 5039TIP3    H115081   2.210   1.650   1.229
 5039TIP3    H215082   2.199   1.660   1.078
 5040TIP3   OH215083   5.431   0.983   5.107
 5040TIP3    H115084   5.502   0.938   5.061
 5040TIP3    H215085   5.443   0.958   5.199
 5041TIP3   OH215086   5.816   6.537   5.136
 5041TIP3    H115087   5.850   6.626   5.126
 5041TIP3    H215088   5.722   6.546   5.125
 5042TIP3   OH215089   0.714   5.672   5.377
 5042TIP3    H115090   0.649   5.644   5.440
 5042TIP3    H215091   0.673   5.656   5.292
 5043TIP3   OH215092   2.416   1.985   5.767
 5043TIP3    H115093   2.345   1.998   5.829
 5043TIP3    H215094   2.417   2.066   5.715
 5044TIP3   OH215095   4.727   4.334   1.119
 5044TIP3    H115096   4.798   4.397   1.103
 5044TIP3    H215097   4.762   4.274   1.185
 5045TIP3   OH215098   1.699   5.120   0.468
 5045TIP3    H115099   1.793   5.121   0.486
 5045TIP3    H215100   1.692   5.153   0.379
 5046TIP3   OH215101   4.369   5.654   2.823
 5046TIP3    H115102   4.461   5.647   2.847
 5046TIP3    H215103   4.371   5.669   2.728
 5047TIP3   OH215104   2.230   4.002   5.229
 5047TIP3    H115105   2.236   3.926   5.171
 5047TIP3    H215106   2.136   4.013   5.245
 5048TIP3   OH215107   4.418   6.474   1.177
 5048TIP3    H115108   4.496   6.526   1.158
 5048TIP3    H215109   4.443   6.422   1.254
 5049TIP3   OH215110   1.071   6.219   1.558
 5049TIP3    H115111   1.029   6.293   1.515
 5049TIP3    H215112   1.063   6.237   1.652
 5050TIP3   OH215113   6.195   5.541   0.083
 5050TIP3    H115114   6.227   5.470   0.028
 5050TIP3    H215115   6.168   5.499   0.165
 5051TIP3   OH215116   5.202   2.975   0.162
 5051TIP3    H115117   5.175   3.044   0.223
 5051TIP3    H215118   5.296   2.989   0.150
 5052TIP3   OH215119   6.758   1.730   4.812
 5052TIP3    H115120   6.754   1.642   4.849
 5052TIP3    H215121   6.822   1.722   4.740
 5053TIP3   OH215122   5.830   5.168   5.594
 5053TIP3    H115123   5.797   5.149   5.507
 5053TIP3    H215124   5.906   5.225   5.579
 5054TIP3   OH215125   4.579   0.246   5.829
 5054TIP3    H115126   4.530   0.259   5.748
 5054TIP3    H215127   4.533   0.174   5.872
 5055TIP3   OH215128   0.278   2.738   4.559
 5055TIP3    H115129   0.205   2.749   4.498
 5055TIP3    H215130   0.337   2.677   4.516
 5056TIP3   OH215131   6.585   4.116   5.023
 5056TIP3    H115132   6.553   4.159   5.102
 5056TIP3    H215133   6.506   4.083   4.979
 5057TIP3   OH215134   4.314   3.635   1.677
 5057TIP3    H115135   4.264   3.597   1.748
 5057TIP3    H215136   4.256   3.699   1.637
 5058TIP3   OH215137   0.619   3.947   1.047
 5058TIP3    H115138   0.579   3.872   1.003
 5058TIP3    H215139   0.628   4.013   0.979
 5059TIP3   OH215140   3.425   6.203   0.343
 5059TIP3    H115141   3.360   6.246   0.400
 5059TIP3    H215142   3.480   6.153   0.403
 5060TIP3   OH215143   5.680   6.318   4.537
 5060TIP3    H115144   5.665   6.312   4.632
 5060TIP3    H215145   5.649   6.405   4.513
 5061TIP3   OH215146   4.954   5.673   2.073
 5061TIP3    H115147   4.882   5.609   2.079
 5061TIP3    H215148   4.987   5.680   2.163
 5062TIP3   OH215149   6.644   4.085   0.648
 5062TIP3    H115150   6.650   4.078   0.744
 5062TIP3    H215151   6.573   4.147   0.633
 5063TIP3   OH215152   4.199   5.908   5.175
 5063TIP3    H115153   4.180   5.880   5.264
 5063TIP3    H215154   4.113   5.927   5.137
 5064TIP3   OH215155   2.108   0.904   4.286
 5064TIP3    H115156   2.191   0.859   4.301
 5064TIP3    H215157   2.125   0.963   4.213
 5065TIP3   OH215158   5.421   1.518   4.622
 5065TIP3    H115159   5.359   1.514   4.549
 5065TIP3    H215160   5.377   1.571   4.689
 5066TIP3   OH215161   0.944   6.669   1.431
 5066TIP3    H115162   0.988   6.682   1.515
 5066TIP3    H215163   0.880   6.739   1.426
 5067TIP3   OH215164   0.303   5.643   3.102
 5067TIP3    H115165   0.264   5.652   3.188
 5067TIP3    H215166   0.272   5.558   3.070
 5068TIP3   OH215167   2.174   3.357   1.620
 5068TIP3    H115168   2.212   3.331   1.704
 5068TIP3    H215169   2.084   3.324   1.623
 5069TIP3   OH215170   1.959   5.919   5.102
 5069TIP3    H115171   2.021   5.867   5.051
 5069TIP3    H215172   1.910   5.854   5.153
 5070TIP3   OH215173   1.824   4.309   4.638
 5070TIP3    H115174   1.843   4.215   4.639
 5070TIP3    H215175   1.793   4.327   4.550
 5071TIP3   OH215176   2.434   3.641   4.911
 5071TIP3    H115177   2.392   3.626   4.826
 5071TIP3    H215178   2.478   3.559   4.931
 5072TIP3   OH215179   1.734   1.628   1.315
 5072TIP3    H115180   1.807   1.651   1.258
 5072TIP3    H215181   1.760   1.545   1.356
 5073TIP3   OH215182   0.224   0.093   3.130
 5073TIP3    H115183   0.311   0.064   3.101
 5073TIP3    H215184   0.165   0.067   3.059
 5074TIP3   OH215185   5.307   5.118   4.378
 5074TIP3    H115186   5.358   5.038   4.367
 5074TIP3    H215187   5.218   5.086   4.395
 5075TIP3   OH215188   1.091   4.090   5.693
 5075TIP3    H115189   1.075   4.184   5.691
 5075TIP3    H215190   1.146   4.077   5.771
 5076TIP3   OH215191   4.864   4.500   4.478
 5076TIP3    H115192   4.796   4.449   4.522
 5076TIP3    H215193   4.841   4.497   4.386
 5077TIP3   OH215194   2.107   4.603   2.768
 5077TIP3    H115195   2.024   4.575   2.730
 5077TIP3    H215196   2.156   4.639   2.694
 5078TIP3   OH215197   4.790   6.284   1.404
 5078TIP3    H115198   4.874   6.248   1.432
 5078TIP3    H215199   4.731   6.269   1.478
 5079TIP3   OH215200   0.603   2.244   0.897
 5079TIP3    H115201   0.572   2.200   0.818
 5079TIP3    H215202   0.531   2.233   0.960
 5080TIP3   OH215203   4.119   4.350   1.027
 5080TIP3    H115204   4.194   4.407   1.007
 5080TIP3    H215205   4.052   4.375   0.963
 5081TIP3   OH215206   5.058   6.466   1.976
 5081TIP3    H115207   5.024   6.551   1.948
 5081TIP3    H215208   5.026   6.404   1.911
 5082TIP3   OH215209   1.138   1.998   4.847
 5082TIP3    H115210   1.102   1.944   4.776
 5082TIP3    H215211   1.226   1.964   4.860
 5083TIP3   OH215212   4.649   2.625   0.037
 5083TIP3    H115213   4.563   2.628   0.079
 5083TIP3    H215214   4.635   2.574  -0.043
 5084TIP3   OH215215   3.618   5.488   2.493
 5084TIP3    H115216   3.712   5.476   2.500
 5084TIP3    H215217   3.602   5.575   2.529
 5085TIP3   OH215218   0.238   3.345   4.201
 5085TIP3    H115219   0.172   3.322   4.136
 5085TIP3    H215220   0.233   3.274   4.266
 5086TIP3   OH215221   2.407   5.688   3.643
 5086TIP3    H115222   2.413   5.715   3.552
 5086TIP3    H215223   2.347   5.751   3.683
 5087TIP3   OH215224   6.051   2.930   5.786
 5087TIP3    H115225   6.072   2.864   5.720
 5087TIP3    H215226   6.136   2.959   5.819
 5088TIP3   OH215227   2.796   0.164   0.755
 5088TIP3    H115228   2.782   0.117   0.673
 5088TIP3    H215229   2.884   0.139   0.783
 5089TIP3   OH215230   1.640   4.892   3.752
 5089TIP3    H115231   1.555   4.932   3.769
 5089TIP3    H215232   1.703   4.955   3.787
 5090TIP3   OH215233   6.040   1.921   2.503
 5090TIP3    H115234   5.946   1.931   2.489
 5090TIP3    H215235   6.076   2.009   2.491
 5091TIP3   OH215236   2.810   5.721   4.965
 5091TIP3    H115237   2.776   5.775   4.893
 5091TIP3    H215238   2.754   5.643   4.964
 5092TIP3   OH215239   0.050   3.930   0.530
 5092TIP3    H115240   0.110   3.918   0.603
 5092TIP3    H215241   0.104   3.921   0.452
 5093TIP3   OH215242   3.799   4.100   2.946
 5093TIP3    H115243   3.703   4.094   2.943
 5093TIP3    H215244   3.818   4.124   3.036
 5094TIP3   OH215245   6.415   3.042   1.177
 5094TIP3    H115246   6.381   3.088   1.254
 5094TIP3    H215247   6.357   3.069   1.106
 5095TIP3   OH215248   6.294   4.968   4.999
 5095TIP3    H115249   6.371   4.955   4.943
 5095TIP3    H215250   6.307   4.906   5.071
 5096TIP3   OH215251   1.180   0.121   2.650
 5096TIP3    H115252   1.258   0.176   2.636
 5096TIP3    H215253   1.155   0.141   2.740
 5097TIP3   OH215254   5.497   2.220   5.152
 5097TIP3    H115255   5.546   2.183   5.226
 5097TIP3    H215256   5.561   2.274   5.106
 5098TIP3   OH215257   7.037   4.945   3.361
 5098TIP3    H115258   7.107   4.999   3.324
 5098TIP3    H215259   7.044   4.959   3.455
 5099TIP3   OH215260   6.108   2.135   5.405
 5099TIP3    H115261   6.059   2.055   5.427
 5099TIP3    H215262   6.188   2.103   5.363
 5100TIP3   OH215263   3.279   1.298   2.634
 5100TIP3    H115264   3.220   1.242   2.683
 5100TIP3    H215265   3.222   1.366   2.596
 5101TIP3   OH215266   1.306   5.127   1.708
 5101TIP3    H115267   1.312   5.157   1.618
 5101TIP3    H215268   1.234   5.178   1.745
 5102TIP3   OH215269   0.315   4.607   0.239
 5102TIP3    H115270   0.321   4.572   0.328
 5102TIP3    H215271   0.222   4.597   0.216
 5103TIP3   OH215272   3.401   2.354   4.896
 5103TIP3    H115273   3.487   2.381   4.864
 5103TIP3    H215274   3.418   2.274   4.946
 5104TIP3   OH215275   2.892   0.731   5.407
 5104TIP3    H115276   2.811   0.782   5.413
 5104TIP3    H215277   2.881   0.662   5.474
 5105TIP3   OH215278   2.251   0.563   2.392
 5105TIP3    H115279   2.252   0.545   2.486
 5105TIP3    H215280   2.245   0.477   2.351
 5106TIP3   OH215281   2.034   3.936  -0.048
 5106TIP3    H115282   2.052   3.983   0.034
 5106TIP3    H215283   2.098   3.866  -0.050
 5107TIP3   OH215284   3.278   1.687   3.205
 5107TIP3    H115285   3.268   1.632   3.127
 5107TIP3    H215286   3.361   1.733   3.192
 5108TIP3   OH215287   6.969   5.880   1.624
 5108TIP3    H115288   6.984   5.786   1.628
 5108TIP3    H215289   7.023   5.910   1.551
 5109TIP3   OH215290   4.959   1.663   1.698
 5109TIP3    H115291   4.961   1.621   1.784
 5109TIP3    H215292   5.050   1.681   1.677
 5110TIP3   OH215293   4.024   1.172   0.313
 5110TIP3    H115294   4.013   1.256   0.269
 5110TIP3    H215295   3.972   1.178   0.392
 5111TIP3   OH215296   1.882   5.462   4.308
 5111TIP3    H115297   1.918   5.393   4.365
 5111TIP3    H215298   1.957   5.495   4.260
 5112TIP3   OH215299   0.479   4.144   0.604
 5112TIP3    H115300   0.502   4.124   0.514
 5112TIP3    H215301   0.474   4.059   0.647
 5113TIP3   OH215302   7.080   1.582   2.611
 5113TIP3    H115303   7.131   1.663   2.622
 5113TIP3    H215304   7.013   1.587   2.679
 5114TIP3   OH215305   6.326   4.965   0.142
 5114TIP3    H115306   6.355   4.983   0.231
 5114TIP3    H215307   6.248   5.020   0.131
 5115TIP3   OH215308   3.397   2.854   1.780
 5115TIP3    H115309   3.380   2.776   1.727
 5115TIP3    H215310   3.461   2.825   1.845
 5116TIP3   OH215311   5.091   3.365   4.840
 5116TIP3    H115312   5.017   3.313   4.872
 5116TIP3    H215313   5.062   3.456   4.848
 5117TIP3   OH215314   1.021   6.054   0.374
 5117TIP3    H115315   0.953   6.106   0.330
 5117TIP3    H215316   1.098   6.111   0.375
 5118TIP3   OH215317   0.138   6.233   1.994
 5118TIP3    H115318   0.076   6.233   2.067
 5118TIP3    H215319   0.200   6.162   2.015
 5119TIP3   OH215320   2.287   3.942   5.656
 5119TIP3    H115321   2.341   4.014   5.686
 5119TIP3    H215322   2.337   3.902   5.585
 5120TIP3   OH215323   5.638   4.975   4.172
 5120TIP3    H115324   5.631   4.917   4.096
 5120TIP3    H215325   5.634   4.916   4.247
 5121TIP3   OH215326   3.604   6.643   1.514
 5121TIP3    H115327   3.626   6.580   1.582
 5121TIP3    H215328   3.548   6.595   1.453
 5122TIP3   OH215329   0.566   2.194   2.050
 5122TIP3    H115330   0.482   2.235   2.070
 5122TIP3    H215331   0.592   2.152   2.132
 5123TIP3   OH215332   1.291   5.692   5.047
 5123TIP3    H115333   1.380   5.723   5.062
 5123TIP3    H215334   1.244   5.715   5.127
 5124TIP3   OH215335   4.002   2.483   5.466
 5124TIP3    H115336   3.986   2.561   5.520
 5124TIP3    H215337   4.055   2.515   5.393
 5125TIP3   OH215338   6.894   5.576   1.586
 5125TIP3    H115339   6.897   5.534   1.672
 5125TIP3    H215340   6.858   5.509   1.528
 5126TIP3   OH215341   2.538   3.812   1.299
 5126TIP3    H115342   2.583   3.749   1.354
 5126TIP3    H215343   2.544   3.895   1.346
 5127TIP3   OH215344   4.513   1.189   0.053
 5127TIP3    H115345   4.461   1.132   0.110
 5127TIP3    H215346   4.591   1.138   0.032
 5128TIP3   OH215347   5.281   0.247   1.342
 5128TIP3    H115348   5.351   0.308   1.366
 5128TIP3    H215349   5.319   0.194   1.272
 5129TIP3   OH215350   4.230   3.019   1.691
 5129TIP3    H115351   4.195   3.024   1.780
 5129TIP3    H215352   4.197   2.935   1.658
 5130TIP3   OH215353   1.992   0.637   5.649
 5130TIP3    H115354   1.925   0.684   5.699
 5130TIP3    H215355   2.070   0.641   5.704
 5131TIP3   OH215356   5.646   0.343   3.380
 5131TIP3    H115357   5.707   0.269   3.383
 5131TIP3    H215358   5.559   0.303   3.373
 5132TIP3   OH215359   3.473   4.097   2.415
 5132TIP3    H115360   3.526   4.128   2.488
 5132TIP3    H215361   3.383   4.100   2.448
 5133TIP3   OH215362   2.392   5.473   2.361
 5133TIP3    H115363   2.318   5.428   2.320
 5133TIP3    H215364   2.388   5.562   2.327
 5134TIP3   OH215365   4.988   1.001   3.080
 5134TIP3    H115366   4.912   0.966   3.127
 5134TIP3    H215367   5.063   0.972   3.131
 5135TIP3   OH215368   4.270   0.384   2.588
 5135TIP3    H115369   4.214   0.453   2.622
 5135TIP3    H215370   4.323   0.427   2.521
 5136TIP3   OH215371   1.112   5.263   1.829
 5136TIP3    H115372   1.050   5.203   1.871
 5136TIP3    H215373   1.059   5.311   1.765
 5137TIP3   OH215374   6.018   5.456   0.299
 5137TIP3    H115375   6.108   5.462   0.331
 5137TIP3    H215376   5.967   5.431   0.376
 5138TIP3   OH215377   3.045   2.952   4.895
 5138TIP3    H115378   3.004   2.942   4.981
 5138TIP3    H215379   2.972   2.958   4.834
 5139TIP3   OH215380   2.727   1.497   4.340
 5139TIP3    H115381   2.781   1.575   4.329
 5139TIP3    H215382   2.712   1.492   4.434
 5140TIP3   OH215383   3.146   1.977   2.463
 5140TIP3    H115384   3.147   1.980   2.367
 5140TIP3    H215385   3.090   1.902   2.484
 5141TIP3   OH215386   6.114   3.423   2.074
 5141TIP3    H115387   6.097   3.503   2.024
 5141TIP3    H215388   6.053   3.359   2.039
 5142TIP3   OH215389   1.332   0.742   4.649
 5142TIP3    H115390   1.331   0.657   4.694
 5142TIP3    H215391   1.338   0.719   4.556
 5143TIP3   OH215392   6.806   5.176   0.450
 5143TIP3    H115393   6.824   5.228   0.372
 5143TIP3    H215394   6.892   5.157   0.487
 5144TIP3   OH215395   3.560   4.761   2.191
 5144TIP3    H115396   3.558   4.743   2.285
 5144TIP3    H215397   3.653   4.757   2.168
 5145TIP3   OH215398   3.328   0.604   1.987
 5145TIP3    H115399   3.399   0.645   1.937
 5145TIP3    H215400   3.366   0.522   2.019
 5146TIP3   OH215401   4.979   2.294   5.946
 5146TIP3    H115402   4.961   2.388   5.956
 5146TIP3    H215403   4.904   2.260   5.898
 5147TIP3   OH215404   4.587   2.143   0.372
 5147TIP3    H115405   4.524   2.104   0.312
 5147TIP3    H215406   4.565   2.105   0.457
 5148TIP3   OH215407   0.869   5.270   3.044
 5148TIP3    H115408   0.935   5.224   3.095
 5148TIP3    H215409   0.806   5.202   3.019
 5149TIP3   OH215410   4.732   5.728   1.776
 5149TIP3    H115411   4.810   5.697   1.731
 5149TIP3    H215412   4.761   5.802   1.828
 5150TIP3   OH215413   1.058   6.627   2.876
 5150TIP3    H115414   1.068   6.594   2.965
 5150TIP3    H215415   1.013   6.711   2.886
 5151TIP3   OH215416   6.009   5.388   1.692
 5151TIP3    H115417   5.956   5.465   1.670
 5151TIP3    H215418   6.059   5.415   1.769
 5152TIP3   OH215419   2.280   0.129   5.085
 5152TIP3    H115420   2.213   0.101   5.147
 5152TIP3    H215421   2.349   0.064   5.092
 5153TIP3   OH215422   5.574   0.600   3.365
 5153TIP3    H115423   5.596   0.507   3.372
 5153TIP3    H215424   5.522   0.618   3.444
 5154TIP3   OH215425   6.955   3.604   0.797
 5154TIP3    H115426   6.997   3.679   0.755
 5154TIP3    H215427   6.866   3.604   0.762
 5155TIP3   OH215428   1.665   1.177   4.096
 5155TIP3    H115429   1.587   1.141   4.054
 5155TIP3    H215430   1.680   1.120   4.172
 5156TIP3   OH215431   0.461   4.440   0.002
 5156TIP3    H115432   0.370   4.420  -0.017
 5156TIP3    H215433   0.459   4.488   0.084
 5157TIP3   OH215434   1.160   0.857   3.866
 5157TIP3    H115435   1.085   0.853   3.808
 5157TIP3    H215436   1.193   0.946   3.858
 5158TIP3   OH215437   0.638   0.309   2.997
 5158TIP3    H115438   0.729   0.341   2.997
 5158TIP3    H215439   0.618   0.292   2.905
 5159TIP3   OH215440   4.894   2.819   3.149
 5159TIP3    H115441   4.810   2.853   3.119
 5159TIP3    H215442   4.880   2.798   3.242
 5160TIP3   OH215443   2.296   3.665   2.402
 5160TIP3    H115444   2.223   3.611   2.432
 5160TIP3    H215445   2.323   3.714   2.480
 5161TIP3   OH215446   1.528   3.044   0.594
 5161TIP3    H115447   1.470   3.096   0.650
 5161TIP3    H215448   1.470   3.005   0.528
 5162TIP3   OH215449   5.896   0.991   2.166
 5162TIP3    H115450   5.832   0.998   2.237
 5162TIP3    H215451   5.981   0.993   2.209
 5163TIP3   OH215452   1.440   5.435   0.727
 5163TIP3    H115453   1.438   5.374   0.653
 5163TIP3    H215454   1.509   5.401   0.784
 5164TIP3   OH215455   6.141   1.122   0.758
 5164TIP3    H115456   6.130   1.063   0.683
 5164TIP3    H215457   6.220   1.091   0.801
 5165TIP3   OH215458   0.266   0.768   4.727
 5165TIP3    H115459   0.200   0.742   4.791
 5165TIP3    H215460   0.276   0.863   4.740
 5166TIP3   OH215461   1.652   4.703   5.641
 5166TIP3    H115462   1.658   4.750   5.557
 5166TIP3    H215463   1.586   4.751   5.690
 5167TIP3   OH215464   2.771   1.166   5.632
 5167TIP3    H115465   2.797   1.078   5.658
 5167TIP3    H215466   2.757   1.213   5.715
 5168TIP3   OH215467   5.212   2.195   5.157
 5168TIP3    H115468   5.305   2.216   5.149
 5168TIP3    H215469   5.210   2.103   5.183
 5169TIP3   OH215470   4.215   1.845   1.905
 5169TIP3    H115471   4.286   1.780   1.899
 5169TIP3    H215472   4.158   1.811   1.974
 5170TIP3   OH215473   3.694   0.095   4.398
 5170TIP3    H115474   3.698   0.190   4.406
 5170TIP3    H215475   3.734   0.076   4.313
 5171TIP3   OH215476   4.192   3.836   0.475
 5171TIP3    H115477   4.236   3.911   0.516
 5171TIP3    H215478   4.121   3.814   0.535
 5172TIP3   OH215479   6.261   4.974   3.292
 5172TIP3    H115480   6.242   5.004   3.381
 5172TIP3    H215481   6.311   5.045   3.252
 5173TIP3   OH215482   2.533   0.717   3.564
 5173TIP3    H115483   2.613   0.665   3.572
 5173TIP3    H215484   2.466   0.663   3.605
 5174TIP3   OH215485   1.231   4.208   0.141
 5174TIP3    H115486   1.210   4.298   0.166
 5174TIP3    H215487   1.311   4.215   0.090
 5175TIP3   OH215488   6.866   6.664   1.038
 5175TIP3    H115489   6.844   6.687   0.948
 5175TIP3    H215490   6.908   6.579   1.032
 5176TIP3   OH215491   6.180   1.286   4.908
 5176TIP3    H115492   6.150   1.302   4.998
 5176TIP3    H215493   6.202   1.372   4.874
 5177TIP3   OH215494   4.237   1.883   0.779
 5177TIP3    H115495   4.161   1.885   0.837
 5177TIP3    H215496   4.277   1.970   0.789
 5178TIP3   OH215497   2.034   6.000   5.867
 5178TIP3    H115498   2.039   5.931   5.933
 5178TIP3    H215499   2.080   6.074   5.906
 5179TIP3   OH215500   0.976   0.425   4.397
 5179TIP3    H115501   1.063   0.465   4.400
 5179TIP3    H215502   0.918   0.489   4.437
 5180TIP3   OH215503   5.033   6.664   1.608
 5180TIP3    H115504   5.098   6.717   1.655
 5180TIP3    H215505   4.977   6.629   1.677
 5181TIP3   OH215506   4.824   5.491   3.406
 5181TIP3    H115507   4.793   5.581   3.412
 5181TIP3    H215508   4.757   5.439   3.451
 5182TIP3   OH215509   3.925   1.249   1.761
 5182TIP3    H115510   3.975   1.213   1.688
 5182TIP3    H215511   3.863   1.309   1.720
 5183TIP3   OH215512   1.799   5.444   4.567
 5183TIP3    H115513   1.844   5.475   4.488
 5183TIP3    H215514   1.728   5.390   4.534
 5184TIP3   OH215515   3.132   6.227   0.059
 5184TIP3    H115516   3.152   6.133   0.050
 5184TIP3    H215517   3.046   6.229   0.100
 5185TIP3   OH215518   6.835   2.591   3.751
 5185TIP3    H115519   6.859   2.574   3.660
 5185TIP3    H215520   6.768   2.659   3.745
 5186TIP3   OH215521   5.275   4.652   0.045
 5186TIP3    H115522   5.184   4.683   0.045
 5186TIP3    H215523   5.267   4.558   0.029
 5187TIP3   OH215524   4.921   1.455   2.638
 5187TIP3    H115525   4.846   1.506   2.609
 5187TIP3    H215526   4.910   1.370   2.596
 5188TIP3   OH215527   0.081   5.450   2.011
 5188TIP3    H115528   0.137   5.373   2.026
 5188TIP3    H215529   0.016   5.420   1.948
 5189TIP3   OH215530   2.444   4.136   5.760
 5189TIP3    H115531   2.493   4.165   5.683
 5189TIP3    H215532   2.506   4.145   5.832
 5190TIP3   OH215533   3.203   6.503   1.650
 5190TIP3    H115534   3.120   6.501   1.697
 5190TIP3    H215535   3.244   6.418   1.669
 5191TIP3   OH215536   7.192   6.740   2.707
 5191TIP3    H115537   7.264   6.678   2.720
 5191TIP3    H215538   7.162   6.761   2.796
 5192TIP3   OH215539   6.417   5.573   4.723
 5192TIP3    H115540   6.406   5.514   4.798
 5192TIP3    H215541   6.497   5.542   4.680
 5193TIP3   OH215542   0.282   3.862   0.746
 5193TIP3    H115543   0.251   3.912   0.822
 5193TIP3    H215544   0.376   3.879   0.743
 5194TIP3   OH215545   1.455   5.061   3.917
 5194TIP3    H115546   1.531   5.090   3.968
 5194TIP3    H215547   1.381   5.109   3.955
 5195TIP3   OH215548   6.074   1.474   2.840
 5195TIP3    H115549   6.137   1.530   2.885
 5195TIP3    H215550   6.040   1.528   2.768
 5196TIP3   OH215551   2.268   4.511   0.772
 5196TIP3    H115552   2.242   4.425   0.740
 5196TIP3    H215553   2.302   4.556   0.695
 5197TIP3   OH215554   2.940   1.724   4.943
 5197TIP3    H115555   2.893   1.641   4.956
 5197TIP3    H215556   3.026   1.698   4.912
 5198TIP3   OH215557   5.513   2.990   1.644
 5198TIP3    H115558   5.482   2.912   1.690
 5198TIP3    H215559   5.608   2.980   1.642
 5199TIP3   OH215560   5.232   6.742   3.502
 5199TIP3    H115561   5.233   6.831   3.467
 5199TIP3    H215562   5.158   6.700   3.459
 5200TIP3   OH215563   5.759   3.278   3.766
 5200TIP3    H115564   5.725   3.357   3.724
 5200TIP3    H215565   5.833   3.308   3.819
 5201TIP3   OH215566   5.022   5.578   3.682
 5201TIP3    H115567   4.971   5.534   3.750
 5201TIP3    H215568   5.042   5.508   3.619
 5202TIP3   OH215569   6.379   4.208   1.042
 5202TIP3    H115570   6.337   4.126   1.019
 5202TIP3    H215571   6.385   4.207   1.137
 5203TIP3   OH215572   0.812   3.315   2.031
 5203TIP3    H115573   0.888   3.273   2.071
 5203TIP3    H215574   0.831   3.409   2.034
 5204TIP3   OH215575   2.414   3.481   2.658
 5204TIP3    H115576   2.449   3.569   2.669
 5204TIP3    H215577   2.387   3.454   2.745
 5205TIP3   OH215578   4.480   5.232   2.721
 5205TIP3    H115579   4.514   5.216   2.633
 5205TIP3    H215580   4.415   5.163   2.734
 5206TIP3   OH215581   5.827   0.268   4.801
 5206TIP3    H115582   5.752   0.211   4.782
 5206TIP3    H215583   5.794   0.330   4.866
 5207TIP3   OH215584   6.206   2.259   4.945
 5207TIP3    H115585   6.281   2.238   4.889
 5207TIP3    H215586   6.130   2.253   4.887
 5208TIP3   OH215587   3.494   2.198   3.530
 5208TIP3    H115588   3.416   2.203   3.476
 5208TIP3    H215589   3.566   2.222   3.472
 5209TIP3   OH215590   0.052   5.041   4.920
 5209TIP3    H115591   0.131   5.001   4.884
 5209TIP3    H215592  -0.015   5.027   4.853
 5210TIP3   OH215593   6.394   1.176   0.944
 5210TIP3    H115594   6.364   1.265   0.962
 5210TIP3    H215595   6.484   1.186   0.915
 5211TIP3   OH215596   3.098   3.556   0.640
 5211TIP3    H115597   3.082   3.463   0.622
 5211TIP3    H215598   3.043   3.576   0.716
 5212TIP3   OH215599   3.405   2.028   0.356
 5212TIP3    H115600   3.485   2.013   0.407
 5212TIP3    H215601   3.433   2.019   0.265
 5213TIP3   OH215602   3.263   5.148   5.187
 5213TIP3    H115603   3.339   5.198   5.217
 5213TIP3    H215604   3.222   5.115   5.267
 5214TIP3   OH215605   1.052   0.555   2.606
 5214TIP3    H115606   1.067   0.554   2.511
 5214TIP3    H215607   0.968   0.509   2.617
 5215TIP3   OH215608   2.374   0.197   3.805
 5215TIP3    H115609   2.443   0.230   3.862
 5215TIP3    H215610   2.300   0.256   3.821
 5216TIP3   OH215611   1.460   2.446   4.868
 5216TIP3    H115612   1.549   2.441   4.832
 5216TIP3    H215613   1.430   2.534   4.846
 5217TIP3   OH215614   0.887   0.332   1.117
 5217TIP3    H115615   0.953   0.399   1.133
 5217TIP3    H215616   0.847   0.317   1.203
 5218TIP3   OH215617   6.995   2.387   1.309
 5218TIP3    H115618   6.972   2.307   1.261
 5218TIP3    H215619   7.025   2.355   1.394
 5219TIP3   OH215620   1.014   0.995   3.656
 5219TIP3    H115621   1.040   0.914   3.612
 5219TIP3    H215622   0.919   0.988   3.666
 5220TIP3   OH215623   3.400   3.576   1.719
 5220TIP3    H115624   3.442   3.624   1.791
 5220TIP3    H215625   3.333   3.522   1.762
 5221TIP3   OH215626   2.973   4.468   4.785
 5221TIP3    H115627   2.963   4.555   4.748
 5221TIP3    H215628   2.955   4.409   4.712
 5222TIP3   OH215629   5.306   4.804   4.933
 5222TIP3    H115630   5.256   4.784   4.854
 5222TIP3    H215631   5.338   4.719   4.962
 5223TIP3   OH215632   2.479   5.569   5.575
 5223TIP3    H115633   2.482   5.664   5.573
 5223TIP3    H215634   2.550   5.542   5.517
 5224TIP3   OH215635   1.487   0.989   3.858
 5224TIP3    H115636   1.501   0.916   3.798
 5224TIP3    H215637   1.418   1.041   3.815
 5225TIP3   OH215638   3.539   5.656   0.764
 5225TIP3    H115639   3.586   5.651   0.681
 5225TIP3    H215640   3.484   5.734   0.756
 5226TIP3   OH215641   3.678   3.713   2.741
 5226TIP3    H115642   3.670   3.798   2.698
 5226TIP3    H215643   3.612   3.658   2.697
 5227TIP3   OH215644   3.362   0.934   1.698
 5227TIP3    H115645   3.407   0.850   1.710
 5227TIP3    H215646   3.310   0.945   1.778
 5228TIP3   OH215647   4.467   6.699   5.696
 5228TIP3    H115648   4.427   6.650   5.624
 5228TIP3    H215649   4.462   6.640   5.771
 5229TIP3   OH215650   2.147   1.686   4.853
 5229TIP3    H115651   2.223   1.633   4.829
 5229TIP3    H215652   2.076   1.622   4.863
 5230TIP3   OH215653   4.701   4.374   5.258
 5230TIP3    H115654   4.655   4.458   5.258
 5230TIP3    H215655   4.667   4.327   5.334
 5231TIP3   OH215656   5.752   4.420   4.300
 5231TIP3    H115657   5.814   4.370   4.247
 5231TIP3    H215658   5.672   4.368   4.298
 5232TIP3   OH215659   4.243   3.675   1.066
 5232TIP3    H115660   4.260   3.608   1.133
 5232TIP3    H215661   4.177   3.731   1.105
 5233TIP3   OH215662   4.172   4.284   1.907
 5233TIP3    H115663   4.188   4.377   1.888
 5233TIP3    H215664   4.146   4.283   1.999
 5234TIP3   OH215665   5.687   0.446   3.101
 5234TIP3    H115666   5.739   0.526   3.108
 5234TIP3    H215667   5.706   0.398   3.181
 5235TIP3   OH215668   7.170   4.296   0.572
 5235TIP3    H115669   7.101   4.361   0.583
 5235TIP3    H215670   7.134   4.232   0.510
 5236TIP3   OH215671   5.274   2.100   5.485
 5236TIP3    H115672   5.207   2.142   5.431
 5236TIP3    H215673   5.239   2.014   5.504
 5237TIP3   OH215674   6.025   3.243   5.206
 5237TIP3    H115675   6.068   3.255   5.290
 5237TIP3    H215676   6.045   3.322   5.156
 5238TIP3   OH215677   0.337   2.522   3.841
 5238TIP3    H115678   0.363   2.491   3.928
 5238TIP3    H215679   0.376   2.458   3.780
 5239TIP3   OH215680   6.907   1.551   5.377
 5239TIP3    H115681   6.862   1.623   5.422
 5239TIP3    H215682   6.876   1.555   5.287
 5240TIP3   OH215683   3.949   3.041   3.741
 5240TIP3    H115684   4.033   3.017   3.782
 5240TIP3    H215685   3.883   3.010   3.802
 5241TIP3   OH215686   0.923   2.237   3.688
 5241TIP3    H115687   0.881   2.157   3.656
 5241TIP3    H215688   1.016   2.225   3.670
 5242TIP3   OH215689   5.636   2.988   2.332
 5242TIP3    H115690   5.726   3.017   2.342
 5242TIP3    H215691   5.635   2.898   2.364
 5243TIP3   OH215692   1.713   1.679   0.429
 5243TIP3    H115693   1.782   1.654   0.490
 5243TIP3    H215694   1.641   1.618   0.446
 5244TIP3   OH215695   1.461   4.353   0.728
 5244TIP3    H115696   1.390   4.300   0.691
 5244TIP3    H215697   1.536   4.293   0.730
 5245TIP3   OH215698   1.808   4.653   1.713
 5245TIP3    H115699   1.782   4.572   1.670
 5245TIP3    H215700   1.904   4.655   1.704
 5246TIP3   OH215701   1.008   4.582   3.089
 5246TIP3    H115702   0.976   4.493   3.102
 5246TIP3    H215703   0.936   4.627   3.045
 5247TIP3   OH215704   3.619   6.309   2.278
 5247TIP3    H115705   3.567   6.345   2.351
 5247TIP3    H215706   3.695   6.367   2.272
 5248TIP3   OH215707   0.370   1.889   4.806
 5248TIP3    H115708   0.400   1.829   4.874
 5248TIP3    H215709   0.310   1.948   4.852
 5249TIP3   OH215710   5.792   1.242   4.418
 5249TIP3    H115711   5.744   1.273   4.495
 5249TIP3    H215712   5.855   1.312   4.400
 5250TIP3   OH215713   5.017   6.732   2.807
 5250TIP3    H115714   5.069   6.659   2.842
 5250TIP3    H215715   5.083   6.796   2.780
 5251TIP3   OH215716   4.078   4.745   2.219
 5251TIP3    H115717   4.129   4.664   2.217
 5251TIP3    H215718   4.133   4.809   2.173
 5252TIP3   OH215719   1.442   2.431   4.358
 5252TIP3    H115720   1.391   2.483   4.420
 5252TIP3    H215721   1.417   2.340   4.377
 5253TIP3   OH215722   3.057   0.407   2.518
 5253TIP3    H115723   3.051   0.490   2.565
 5253TIP3    H215724   3.103   0.348   2.578
 5254TIP3   OH215725   2.299   4.779   1.227
 5254TIP3    H115726   2.225   4.835   1.201
 5254TIP3    H215727   2.296   4.707   1.164
 5255TIP3   OH215728   4.828   1.289   0.422
 5255TIP3    H115729   4.852   1.266   0.332
 5255TIP3    H215730   4.893   1.245   0.476
 5256TIP3   OH215731   0.771   1.941   3.829
 5256TIP3    H115732   0.866   1.949   3.838
 5256TIP3    H215733   0.753   1.971   3.740
 5257TIP3   OH215734   5.090   6.273   1.082
 5257TIP3    H115735   5.073   6.192   1.035
 5257TIP3    H215736   5.003   6.309   1.101
 5258TIP3   OH215737   6.392   0.807   2.818
 5258TIP3    H115738   6.381   0.728   2.871
 5258TIP3    H215739   6.401   0.774   2.728
 5259TIP3   OH215740   1.906   5.571   3.260
 5259TIP3    H115741   1.927   5.568   3.167
 5259TIP3    H215742   1.979   5.525   3.302
 5260TIP3   OH215743   2.999   5.822   1.742
 5260TIP3    H115744   2.978   5.858   1.656
 5260TIP3    H215745   3.048   5.891   1.786
 5261TIP3   OH215746   7.122   4.659   0.785
 5261TIP3    H115747   7.197   4.599   0.787
 5261TIP3    H215748   7.089   4.653   0.695
 5262TIP3   OH215749   5.268   5.273   5.771
 5262TIP3    H115750   5.217   5.310   5.843
 5262TIP3    H215751   5.331   5.215   5.815
 5263TIP3   OH215752   1.641   5.273   0.846
 5263TIP3    H115753   1.663   5.225   0.926
 5263TIP3    H215754   1.588   5.212   0.796
 5264TIP3   OH215755   7.192   3.386   1.512
 5264TIP3    H115756   7.121   3.327   1.536
 5264TIP3    H215757   7.231   3.346   1.434
 5265TIP3   OH215758   7.158   3.274   5.788
 5265TIP3    H115759   7.217   3.225   5.845
 5265TIP3    H215760   7.160   3.363   5.823
 5266TIP3   OH215761   2.162   4.256   0.742
 5266TIP3    H115762   2.093   4.321   0.730
 5266TIP3    H215763   2.116   4.174   0.762
 5267TIP3   OH215764   6.702   5.188   1.947
 5267TIP3    H115765   6.699   5.270   1.996
 5267TIP3    H215766   6.782   5.194   1.894
 5268TIP3   OH215767   2.491   6.686   0.291
 5268TIP3    H115768   2.494   6.591   0.300
 5268TIP3    H215769   2.571   6.717   0.332
 5269TIP3   OH215770   4.632   6.623   4.241
 5269TIP3    H115771   4.648   6.711   4.276
 5269TIP3    H215772   4.698   6.612   4.172
 5270TIP3   OH215773   3.249   4.517   2.365
 5270TIP3    H115774   3.211   4.605   2.364
 5270TIP3    H215775   3.178   4.461   2.334
 5271TIP3   OH215776   5.127   5.747   1.765
 5271TIP3    H115777   5.115   5.670   1.821
 5271TIP3    H215778   5.221   5.746   1.744
 5272TIP3   OH215779   3.496   3.845   4.710
 5272TIP3    H115780   3.592   3.839   4.703
 5272TIP3    H215781   3.469   3.761   4.746
 5273TIP3   OH215782   4.516   4.127   4.533
 5273TIP3    H115783   4.493   4.219   4.529
 5273TIP3    H215784   4.604   4.122   4.494
 5274TIP3   OH215785   4.062   3.852   1.166
 5274TIP3    H115786   3.996   3.832   1.232
 5274TIP3    H215787   4.126   3.906   1.211
 5275TIP3   OH215788   5.699   4.508   2.075
 5275TIP3    H115789   5.644   4.544   2.144
 5275TIP3    H215790   5.734   4.584   2.029
 5276TIP3   OH215791   1.150   1.040   5.599
 5276TIP3    H115792   1.225   1.095   5.576
 5276TIP3    H215793   1.082   1.102   5.626
 5277TIP3   OH215794   2.991   6.360   3.910
 5277TIP3    H115795   2.970   6.372   4.003
 5277TIP3    H215796   2.908   6.375   3.864
 5278TIP3   OH215797   2.942   3.157   5.574
 5278TIP3    H115798   3.006   3.215   5.532
 5278TIP3    H215799   2.939   3.186   5.665
 5279TIP3   OH215800   1.785   1.659   1.907
 5279TIP3    H115801   1.691   1.650   1.891
 5279TIP3    H215802   1.798   1.615   1.992
 5280TIP3   OH215803   6.586   0.189   1.460
 5280TIP3    H115804   6.632   0.165   1.541
 5280TIP3    H215805   6.655   0.218   1.401
 5281TIP3   OH215806   4.795   6.660   0.141
 5281TIP3    H115807   4.737   6.650   0.216
 5281TIP3    H215808   4.757   6.605   0.073
 5282TIP3   OH215809   0.161   1.050   1.554
 5282TIP3    H115810   0.127   0.964   1.579
 5282TIP3    H215811   0.128   1.064   1.465
 5283TIP3   OH215812   4.937   5.829   4.564
 5283TIP3    H115813   5.000   5.848   4.495
 5283TIP3    H215814   4.989   5.826   4.644
 5284TIP3   OH215815   1.472   1.848   3.523
 5284TIP3    H115816   1.546   1.847   3.583
 5284TIP3    H215817   1.429   1.764   3.536
 5285TIP3   OH215818   3.098   2.419   3.289
 5285TIP3    H115819   3.156   2.493   3.272
 5285TIP3    H215820   3.018   2.458   3.325
 5286TIP3   OH215821   6.453   4.219   4.244
 5286TIP3    H115822   6.546   4.210   4.225
 5286TIP3    H215823   6.412   4.144   4.201
 5287TIP3   OH215824   4.418   1.990   5.051
 5287TIP3    H115825   4.446   1.947   5.132
 5287TIP3    H215826   4.451   2.080   5.058
 5288TIP3   OH215827   5.405   1.921   0.700
 5288TIP3    H115828   5.461   1.987   0.658
 5288TIP3    H215829   5.453   1.897   0.780
 5289TIP3   OH215830   4.562   4.344   0.903
 5289TIP3    H115831   4.496   4.406   0.935
 5289TIP3    H215832   4.622   4.333   0.977
 5290TIP3   OH215833   2.718   0.452   5.600
 5290TIP3    H115834   2.797   0.454   5.654
 5290TIP3    H215835   2.725   0.371   5.549
 5291TIP3   OH215836   6.041   3.734   5.295
 5291TIP3    H115837   6.037   3.818   5.249
 5291TIP3    H215838   5.990   3.674   5.240
 5292TIP3   OH215839   6.570   4.547   3.815
 5292TIP3    H115840   6.492   4.526   3.868
 5292TIP3    H215841   6.640   4.496   3.855
 5293TIP3   OH215842   2.392   6.209   2.145
 5293TIP3    H115843   2.299   6.192   2.161
 5293TIP3    H215844   2.438   6.153   2.208
 5294TIP3   OH215845   5.316   0.432   2.632
 5294TIP3    H115846   5.334   0.524   2.647
 5294TIP3    H215847   5.402   0.389   2.634
 5295TIP3   OH215848   6.449   0.233   2.722
 5295TIP3    H115849   6.541   0.208   2.732
 5295TIP3    H215850   6.432   0.226   2.628
 5296TIP3   OH215851   6.910   6.378   1.292
 5296TIP3    H115852   6.966   6.308   1.327
 5296TIP3    H215853   6.852   6.333   1.230
 5297TIP3   OH215854   1.729   2.518   3.616
 5297TIP3    H115855   1.657   2.480   3.566
 5297TIP3    H215856   1.807   2.497   3.564
 5298TIP3   OH215857   6.020   0.853   5.443
 5298TIP3    H115858   6.099   0.902   5.422
 5298TIP3    H215859   6.037   0.815   5.529
 5299TIP3   OH215860   3.305   6.666   5.176
 5299TIP3    H115861   3.335   6.636   5.090
 5299TIP3    H215862   3.364   6.624   5.238
 5300TIP3   OH215863   2.261   5.537   5.768
 5300TIP3    H115864   2.293   5.599   5.702
 5300TIP3    H215865   2.172   5.515   5.739
 5301TIP3   OH215866   2.518   6.408   0.300
 5301TIP3    H115867   2.452   6.338   0.309
 5301TIP3    H215868   2.592   6.377   0.353
 5302TIP3   OH215869   1.995   5.986   0.507
 5302TIP3    H115870   2.083   5.977   0.542
 5302TIP3    H215871   2.007   5.982   0.412
 5303TIP3   OH215872   6.882   5.347   1.112
 5303TIP3    H115873   6.803   5.331   1.060
 5303TIP3    H215874   6.884   5.275   1.175
 5304TIP3   OH215875   3.510   2.404   5.405
 5304TIP3    H115876   3.536   2.312   5.412
 5304TIP3    H215877   3.532   2.429   5.316
 5305TIP3   OH215878   4.668   0.154   5.354
 5305TIP3    H115879   4.697   0.244   5.345
 5305TIP3    H215880   4.740   0.110   5.398
 5306TIP3   OH215881   5.631   2.603   1.504
 5306TIP3    H115882   5.702   2.649   1.459
 5306TIP3    H215883   5.647   2.619   1.597
 5307TIP3   OH215884   2.506   5.511   1.257
 5307TIP3    H115885   2.576   5.529   1.319
 5307TIP3    H215886   2.496   5.415   1.260
 5308TIP3   OH215887   2.290   2.848   5.688
 5308TIP3    H115888   2.195   2.838   5.681
 5308TIP3    H215889   2.310   2.824   5.778
 5309TIP3   OH215890   5.457   2.102   4.908
 5309TIP3    H115891   5.445   2.125   5.000
 5309TIP3    H215892   5.370   2.075   4.878
 5310TIP3   OH215893   5.730   2.252   2.784
 5310TIP3    H115894   5.684   2.210   2.711
 5310TIP3    H215895   5.667   2.314   2.820
 5311TIP3   OH215896   6.696   3.715   5.543
 5311TIP3    H115897   6.601   3.714   5.553
 5311TIP3    H215898   6.710   3.726   5.448
 5312TIP3   OH215899   1.161   6.433   4.532
 5312TIP3    H115900   1.105   6.503   4.499
 5312TIP3    H215901   1.130   6.355   4.488
 5313TIP3   OH215902   5.770   5.566   4.740
 5313TIP3    H115903   5.724   5.494   4.781
 5313TIP3    H215904   5.826   5.602   4.809
 5314TIP3   OH215905   1.019   5.015   0.337
 5314TIP3    H115906   1.044   5.090   0.283
 5314TIP3    H215907   1.102   4.981   0.370
 5315TIP3   OH215908   4.579   2.493   5.169
 5315TIP3    H115909   4.645   2.510   5.237
 5315TIP3    H215910   4.519   2.568   5.175
 5316TIP3   OH215911   3.929   6.277   2.581
 5316TIP3    H115912   3.903   6.351   2.637
 5316TIP3    H215913   3.941   6.315   2.494
 5317TIP3   OH215914   5.598   3.251   1.913
 5317TIP3    H115915   5.569   3.161   1.928
 5317TIP3    H215916   5.577   3.268   1.821
 5318TIP3   OH215917   3.595   1.782   2.127
 5318TIP3    H115918   3.660   1.752   2.190
 5318TIP3    H215919   3.610   1.876   2.120
 5319TIP3   OH215920   0.716   3.217   2.282
 5319TIP3    H115921   0.786   3.215   2.348
 5319TIP3    H215922   0.758   3.250   2.203
 5320TIP3   OH215923   6.799   2.550   3.488
 5320TIP3    H115924   6.720   2.599   3.463
 5320TIP3    H215925   6.801   2.476   3.427
 5321TIP3   OH215926   1.918   0.434   3.550
 5321TIP3    H115927   1.898   0.361   3.608
 5321TIP3    H215928   1.975   0.491   3.603
 5322TIP3   OH215929   6.856   3.289   2.826
 5322TIP3    H115930   6.773   3.266   2.868
 5322TIP3    H215931   6.867   3.224   2.756
 5323TIP3   OH215932   4.713   5.263   4.901
 5323TIP3    H115933   4.733   5.261   4.995
 5323TIP3    H215934   4.794   5.233   4.859
 5324TIP3   OH215935   2.676   0.704   2.975
 5324TIP3    H115936   2.627   0.632   3.017
 5324TIP3    H215937   2.615   0.778   2.978
 5325TIP3   OH215938   2.498   2.959   0.914
 5325TIP3    H115939   2.444   2.933   0.839
 5325TIP3    H215940   2.527   3.047   0.893
 5326TIP3   OH215941   2.002   0.756   1.006
 5326TIP3    H115942   2.084   0.707   1.001
 5326TIP3    H215943   2.029   0.848   1.018
 5327TIP3   OH215944   3.433   5.785   3.463
 5327TIP3    H115945   3.509   5.840   3.485
 5327TIP3    H215946   3.430   5.785   3.367
 5328TIP3   OH215947   3.590   1.943   5.019
 5328TIP3    H115948   3.577   1.860   5.066
 5328TIP3    H215949   3.682   1.939   4.990
 5329TIP3   OH215950   0.079   6.261   3.219
 5329TIP3    H115951   0.012   6.228   3.279
 5329TIP3    H215952   0.086   6.354   3.239
 5330TIP3   OH215953   3.571   5.556   0.123
 5330TIP3    H115954   3.528   5.536   0.040
 5330TIP3    H215955   3.499   5.558   0.187
 5331TIP3   OH215956   6.128   1.607   0.537
 5331TIP3    H115957   6.136   1.540   0.606
 5331TIP3    H215958   6.155   1.688   0.580
 5332TIP3   OH215959   4.148   1.601   2.939
 5332TIP3    H115960   4.100   1.682   2.956
 5332TIP3    H215961   4.196   1.618   2.859
 5333TIP3   OH215962   4.943   2.132   1.655
 5333TIP3    H115963   4.894   2.058   1.620
 5333TIP3    H215964   5.003   2.093   1.719
 5334TIP3   OH215965   2.981   1.031   2.125
 5334TIP3    H115966   2.974   1.071   2.038
 5334TIP3    H215967   2.929   1.088   2.182
 5335TIP3   OH215968   2.167   4.296  -0.040
 5335TIP3    H115969   2.219   4.372  -0.068
 5335TIP3    H215970   2.231   4.237   0.000
 5336TIP3   OH215971   4.702   0.438   0.846
 5336TIP3    H115972   4.748   0.521   0.836
 5336TIP3    H215973   4.682   0.410   0.757
 5337TIP3   OH215974   1.476   3.778   1.871
 5337TIP3    H115975   1.452   3.816   1.955
 5337TIP3    H215976   1.488   3.854   1.813
 5338TIP3   OH215977   4.956   5.176   5.767
 5338TIP3    H115978   5.018   5.200   5.837
 5338TIP3    H215979   4.873   5.213   5.795
 5339TIP3   OH215980   0.869   5.208   3.630
 5339TIP3    H115981   0.906   5.179   3.713
 5339TIP3    H215982   0.805   5.141   3.607
 5340TIP3   OH215983   2.330   3.278   0.726
 5340TIP3    H115984   2.384   3.223   0.783
 5340TIP3    H215985   2.311   3.356   0.779
 5341TIP3   OH215986   4.495   1.435   2.460
 5341TIP3    H115987   4.577   1.469   2.423
 5341TIP3    H215988   4.502   1.340   2.451
 5342TIP3   OH215989   0.519   2.074   3.846
 5342TIP3    H115990   0.491   1.982   3.849
 5342TIP3    H215991   0.614   2.071   3.856
 5343TIP3   OH215992   2.562   0.005   3.223
 5343TIP3    H115993   2.577   0.059   3.301
 5343TIP3    H215994   2.618   0.044   3.156
 5344TIP3   OH215995   5.679   4.781   0.448
 5344TIP3    H115996   5.611   4.791   0.515
 5344TIP3    H215997   5.733   4.708   0.478
 5345TIP3   OH215998   4.342   4.562   5.525
 5345TIP3    H115999   4.396   4.553   5.604
 5345TIP3    H216000   4.275   4.495   5.533
 5346TIP3   OH216001   4.399   5.719   3.179
 5346TIP3    H116002   4.309   5.689   3.195
 5346TIP3    H216003   4.452   5.640   3.184
 5347TIP3   OH216004   1.671   3.231   5.222
 5347TIP3    H116005   1.656   3.185   5.140
 5347TIP3    H216006   1.672   3.162   5.288
 5348TIP3   OH216007   3.534   4.951   4.741
 5348TIP3    H116008   3.465   4.893   4.773
 5348TIP3    H216009   3.555   5.007   4.816
 5349TIP3   OH216010   1.540   4.303   5.894
 5349TIP3    H116011   1.516   4.238   5.828
 5349TIP3    H216012   1.635   4.313   5.885
 5350TIP3   OH216013   5.942   0.956   5.764
 5350TIP3    H116014   5.959   0.867   5.736
 5350TIP3    H216015   6.003   0.971   5.837
 5351TIP3   OH216016   0.232   3.530   5.729
 5351TIP3    H116017   0.206   3.533   5.637
 5351TIP3    H216018   0.152   3.555   5.777
 5352TIP3   OH216019   5.513   6.662   3.257
 5352TIP3    H116020   5.580   6.643   3.323
 5352TIP3    H216021   5.522   6.755   3.238
 5353TIP3   OH216022   3.572   0.658   5.294
 5353TIP3    H116023   3.508   0.686   5.229
 5353TIP3    H216024   3.653   0.645   5.245
 5354TIP3   OH216025   3.961   1.837   3.368
 5354TIP3    H116026   3.939   1.898   3.298
 5354TIP3    H216027   3.881   1.831   3.421
 5355TIP3   OH216028   6.790   1.142   5.650
 5355TIP3    H116029   6.823   1.190   5.726
 5355TIP3    H216030   6.836   1.182   5.576
 5356TIP3   OH216031   4.848   3.416   3.955
 5356TIP3    H116032   4.876   3.325   3.964
 5356TIP3    H216033   4.905   3.464   4.016
 5357TIP3   OH216034   2.553   3.980   4.779
 5357TIP3    H116035   2.578   4.027   4.700
 5357TIP3    H216036   2.587   4.034   4.850
 5358TIP3   OH216037   0.297   1.091   1.788
 5358TIP3    H116038   0.267   1.042   1.712
 5358TIP3    H216039   0.263   1.180   1.774
 5359TIP3   OH216040   2.813   2.566   0.105
 5359TIP3    H116041   2.725   2.542   0.075
 5359TIP3    H216042   2.829   2.506   0.178
 5360TIP3   OH216043   6.745   1.651   1.638
 5360TIP3    H116044   6.792   1.569   1.625
 5360TIP3    H216045   6.811   1.713   1.668
 5361TIP3   OH216046   7.066   0.211   1.401
 5361TIP3    H116047   7.056   0.125   1.442
 5361TIP3    H216048   6.979   0.231   1.366
 5362TIP3   OH216049   5.939   3.409   1.366
 5362TIP3    H116050   6.005   3.417   1.435
 5362TIP3    H216051   5.958   3.482   1.306
 5363TIP3   OH216052   3.558   1.135   3.912
 5363TIP3    H116053   3.519   1.222   3.922
 5363TIP3    H216054   3.629   1.134   3.977
 5364TIP3   OH216055   5.172   6.245   3.465
 5364TIP3    H116056   5.227   6.313   3.505
 5364TIP3    H216057   5.205   6.238   3.375
 5365TIP3   OH216058   3.067   2.085   0.057
 5365TIP3    H116059   3.128   2.031   0.006
 5365TIP3    H216060   3.020   2.023   0.112
 5366TIP3   OH216061   1.018   2.133   1.833
 5366TIP3    H116062   0.932   2.097   1.857
 5366TIP3    H216063   1.081   2.081   1.882
 5367TIP3   OH216064   5.115   6.592   0.801
 5367TIP3    H116065   5.159   6.509   0.783
 5367TIP3    H216066   5.175   6.638   0.860
 5368TIP3   OH216067   6.697   4.442   5.710
 5368TIP3    H116068   6.713   4.484   5.795
 5368TIP3    H216069   6.606   4.414   5.714
 5369TIP3   OH216070   6.022   1.830   2.928
 5369TIP3    H116071   6.056   1.741   2.928
 5369TIP3    H216072   6.074   1.875   2.861
 5370TIP3   OH216073   6.654   0.769   1.538
 5370TIP3    H116074   6.607   0.852   1.530
 5370TIP3    H216075   6.660   0.754   1.633
 5371TIP3   OH216076   0.892   2.232   0.035
 5371TIP3    H116077   0.913   2.265   0.122
 5371TIP3    H216078   0.973   2.242  -0.015
 5372TIP3   OH216079   2.821   5.183   0.964
 5372TIP3    H116080   2.880   5.180   1.038
 5372TIP3    H216081   2.878   5.192   0.887
 5373TIP3   OH216082   4.250   0.905   2.144
 5373TIP3    H116083   4.246   0.998   2.119
 5373TIP3    H216084   4.266   0.859   2.061
 5374TIP3   OH216085   3.660   3.248   4.003
 5374TIP3    H116086   3.637   3.164   3.962
 5374TIP3    H216087   3.756   3.249   4.003
 5375TIP3   OH216088   0.555   1.955   5.355
 5375TIP3    H116089   0.649   1.975   5.355
 5375TIP3    H216090   0.516   2.023   5.300
 5376TIP3   OH216091   6.082   0.175   4.794
 5376TIP3    H116092   6.054   0.111   4.729
 5376TIP3    H216093   6.001   0.217   4.823
 5377TIP3   OH216094   4.233   1.037   2.905
 5377TIP3    H116095   4.166   0.969   2.914
 5377TIP3    H216096   4.186   1.119   2.917
 5378TIP3   OH216097   3.881   1.580   3.161
 5378TIP3    H116098   3.837   1.655   3.122
 5378TIP3    H216099   3.835   1.504   3.123
 5379TIP3   OH216100   3.706   2.018   2.822
 5379TIP3    H116101   3.628   2.073   2.832
 5379TIP3    H216102   3.769   2.054   2.884
 5380TIP3   OH216103   3.289   2.224   3.363
 5380TIP3    H116104   3.313   2.201   3.273
 5380TIP3    H216105   3.203   2.264   3.356
 5381TIP3   OH216106   2.380   2.112   2.380
 5381TIP3    H116107   2.300   2.157   2.407
 5381TIP3    H216108   2.357   2.069   2.297
 5382TIP3   OH216109   1.558   3.747   3.091
 5382TIP3    H116110   1.651   3.768   3.099
 5382TIP3    H216111   1.544   3.741   2.996
 5383TIP3   OH216112   0.803   2.289   3.119
 5383TIP3    H116113   0.733   2.310   3.056
 5383TIP3    H216114   0.757   2.248   3.192
 5384TIP3   OH216115   6.263   2.318   4.090
 5384TIP3    H116116   6.184   2.308   4.143
 5384TIP3    H216117   6.332   2.279   4.144
 5385TIP3   OH216118   1.682   1.726   2.509
 5385TIP3    H116119   1.688   1.767   2.596
 5385TIP3    H216120   1.611   1.662   2.518
 5386TIP3   OH216121   4.592   3.706   3.260
 5386TIP3    H116122   4.687   3.697   3.249
 5386TIP3    H216123   4.577   3.683   3.352
 5387TIP3   OH216124   6.068   1.963   3.183
 5387TIP3    H116125   6.082   1.900   3.112
 5387TIP3    H216126   6.112   2.042   3.154
 5388TIP3   OH216127   0.149   0.914   2.839
 5388TIP3    H116128   0.070   0.876   2.800
 5388TIP3    H216129   0.124   1.002   2.866
 5389TIP3   OH216130   1.497   6.309   3.976
 5389TIP3    H116131   1.422   6.301   4.035
 5389TIP3    H216132   1.478   6.248   3.905
 5390TIP3   OH216133   5.839   1.613   2.204
 5390TIP3    H116134   5.762   1.621   2.261
 5390TIP3    H216135   5.842   1.520   2.181
 5391TIP3   OH216136   0.201   5.780   3.524
 5391TIP3    H116137   0.269   5.817   3.468
 5391TIP3    H216138   0.249   5.731   3.591
 5392TIP3   OH216139   4.633   2.530   2.062
 5392TIP3    H116140   4.549   2.508   2.101
 5392TIP3    H216141   4.652   2.618   2.094
 5393TIP3   OH216142   2.680   5.726   3.362
 5393TIP3    H116143   2.694   5.703   3.453
 5393TIP3    H216144   2.592   5.765   3.360
 5394TIP3   OH216145   0.592   6.190   2.104
 5394TIP3    H116146   0.633   6.249   2.167
 5394TIP3    H216147   0.503   6.177   2.137
 5395TIP3   OH216148   5.215   4.283   0.627
 5395TIP3    H116149   5.241   4.374   0.642
 5395TIP3    H216150   5.250   4.236   0.702
 5396TIP3   OH216151   4.092   3.124   3.116
 5396TIP3    H116152   4.066   3.174   3.039
 5396TIP3    H216153   4.146   3.184   3.167
 5397TIP3   OH216154   0.014   2.396   3.147
 5397TIP3    H116155   0.068   2.459   3.194
 5397TIP3    H216156   0.070   2.362   3.077
 5398TIP3   OH216157   2.359   0.540   4.311
 5398TIP3    H116158   2.350   0.539   4.406
 5398TIP3    H216159   2.440   0.492   4.294
 5399TIP3   OH216160   7.163   2.601   3.749
 5399TIP3    H116161   7.137   2.656   3.676
 5399TIP3    H216162   7.193   2.519   3.709
 5400TIP3   OH216163   3.102   0.297   5.600
 5400TIP3    H116164   3.033   0.264   5.543
 5400TIP3    H216165   3.056   0.350   5.665
 5401TIP3   OH216166   1.397   0.472   4.759
 5401TIP3    H116167   1.382   0.416   4.836
 5401TIP3    H216168   1.384   0.414   4.684
 5402TIP3   OH216169   5.133   5.284   4.607
 5402TIP3    H116170   5.070   5.350   4.636
 5402TIP3    H216171   5.189   5.330   4.545
 5403TIP3   OH216172   5.495   6.262   0.464
 5403TIP3    H116173   5.555   6.308   0.405
 5403TIP3    H216174   5.527   6.282   0.552
 5404TIP3   OH216175   0.486   5.908   5.458
 5404TIP3    H116176   0.476   5.946   5.371
 5404TIP3    H216177   0.479   5.814   5.443
 5405TIP3   OH216178   5.978   6.226   1.696
 5405TIP3    H116179   5.905   6.164   1.702
 5405TIP3    H216180   6.056   6.171   1.702
 5406TIP3   OH216181   4.859   2.271   1.442
 5406TIP3    H116182   4.797   2.341   1.462
 5406TIP3    H216183   4.887   2.240   1.528
 5407TIP3   OH216184   0.985   4.838   4.178
 5407TIP3    H116185   0.991   4.833   4.082
 5407TIP3    H216186   1.075   4.853   4.206
 5408TIP3   OH216187   3.696   4.560   3.411
 5408TIP3    H116188   3.678   4.541   3.503
 5408TIP3    H216189   3.791   4.563   3.405
 5409TIP3   OH216190   4.217   5.093   3.008
 5409TIP3    H116191   4.199   5.004   3.039
 5409TIP3    H216192   4.269   5.133   3.078
 5410TIP3   OH216193   1.091   4.205   2.675
 5410TIP3    H116194   0.999   4.210   2.703
 5410TIP3    H216195   1.132   4.147   2.739
 5411TIP3   OH216196   6.702   3.423   1.601
 5411TIP3    H116197   6.766   3.463   1.542
 5411TIP3    H216198   6.725   3.455   1.688
 5412TIP3   OH216199   0.694   2.702   3.225
 5412TIP3    H116200   0.662   2.666   3.308
 5412TIP3    H216201   0.777   2.657   3.209
 5413TIP3   OH216202   3.366   0.453   2.421
 5413TIP3    H116203   3.388   0.463   2.513
 5413TIP3    H216204   3.439   0.495   2.374
 5414TIP3   OH216205   6.686   1.577   2.636
 5414TIP3    H116206   6.721   1.648   2.582
 5414TIP3    H216207   6.756   1.558   2.699
 5415TIP3   OH216208   0.305   0.497   5.043
 5415TIP3    H116209   0.375   0.563   5.039
 5415TIP3    H216210   0.330   0.431   4.978
 5416TIP3   OH216211   5.257   1.636   4.839
 5416TIP3    H116212   5.173   1.680   4.829
 5416TIP3    H216213   5.243   1.571   4.908
 5417TIP3   OH216214   2.971   4.643   0.502
 5417TIP3    H116215   2.902   4.699   0.538
 5417TIP3    H216216   2.993   4.583   0.572
 5418TIP3   OH216217   2.624   4.997   4.845
 5418TIP3    H116218   2.654   4.909   4.820
 5418TIP3    H216219   2.529   4.994   4.829
 5419TIP3   OH216220   4.523   2.226   5.219
 5419TIP3    H116221   4.520   2.319   5.195
 5419TIP3    H216222   4.431   2.200   5.224
 5420TIP3   OH216223   6.009   3.749   4.604
 5420TIP3    H116224   6.076   3.681   4.590
 5420TIP3    H216225   6.057   3.831   4.596
 5421TIP3   OH216226   1.262   0.845   3.352
 5421TIP3    H116227   1.340   0.795   3.376
 5421TIP3    H216228   1.295   0.913   3.293
 5422TIP3   OH216229   5.557   2.825   3.899
 5422TIP3    H116230   5.634   2.774   3.872
 5422TIP3    H216231   5.593   2.894   3.955
 5423TIP3   OH216232   2.921   2.582   4.870
 5423TIP3    H116233   2.992   2.628   4.914
 5423TIP3    H216234   2.862   2.556   4.941
 5424TIP3   OH216235   3.919   1.213   2.713
 5424TIP3    H116236   3.848   1.276   2.697
 5424TIP3    H216237   3.974   1.255   2.778
 5425TIP3   OH216238   1.335   5.736   4.273
 5425TIP3    H116239   1.299   5.664   4.220
 5425TIP3    H216240   1.423   5.707   4.296
 5426TIP3   OH216241   5.148   3.498   3.144
 5426TIP3    H116242   5.195   3.515   3.063
 5426TIP3    H216243   5.212   3.511   3.213
 5427TIP3   OH216244   6.068   0.716   1.241
 5427TIP3    H116245   6.153   0.687   1.275
 5427TIP3    H216246   6.090   0.768   1.164
 5428TIP3   OH216247   5.613   4.264   1.025
 5428TIP3    H116248   5.641   4.173   1.031
 5428TIP3    H216249   5.546   4.273   1.093
 5429TIP3   OH216250   6.111   3.697   3.574
 5429TIP3    H116251   6.193   3.648   3.576
 5429TIP3    H216252   6.055   3.648   3.514
 5430TIP3   OH216253   4.449   1.759   1.280
 5430TIP3    H116254   4.371   1.807   1.252
 5430TIP3    H216255   4.453   1.683   1.222
 5431TIP3   OH216256   1.150   6.492   2.042
 5431TIP3    H116257   1.240   6.466   2.027
 5431TIP3    H216258   1.124   6.536   1.961
 5432TIP3   OH216259   4.213   6.714   5.427
 5432TIP3    H116260   4.257   6.698   5.344
 5432TIP3    H216261   4.208   6.809   5.434
 5433TIP3   OH216262   4.062   5.834   0.362
 5433TIP3    H116263   4.108   5.911   0.329
 5433TIP3    H216264   4.128   5.786   0.411
 5434TIP3   OH216265   3.952   2.062   0.156
 5434TIP3    H116266   3.914   1.989   0.107
 5434TIP3    H216267   4.007   2.020   0.222
 5435TIP3   OH216268   3.801   5.311   0.448
 5435TIP3    H116269   3.733   5.286   0.386
 5435TIP3    H216270   3.860   5.368   0.398
 5436TIP3   OH216271   6.430   4.563   0.485
 5436TIP3    H116272   6.379   4.641   0.508
 5436TIP3    H216273   6.420   4.555   0.390
 5437TIP3   OH216274   3.772   2.479   4.078
 5437TIP3    H116275   3.787   2.450   3.988
 5437TIP3    H216276   3.827   2.557   4.087
 5438TIP3   OH216277   4.005   0.317   3.075
 5438TIP3    H116278   3.948   0.247   3.042
 5438TIP3    H216279   3.950   0.396   3.073
 5439TIP3   OH216280   5.607   3.082   5.222
 5439TIP3    H116281   5.641   3.172   5.224
 5439TIP3    H216282   5.648   3.039   5.297
 5440TIP3   OH216283   1.036   3.386   5.613
 5440TIP3    H116284   1.028   3.418   5.523
 5440TIP3    H216285   1.049   3.292   5.603
 5441TIP3   OH216286   0.244   0.871   4.172
 5441TIP3    H116287   0.252   0.778   4.150
 5441TIP3    H216288   0.151   0.890   4.164
 5442TIP3   OH216289   6.250   5.077   4.518
 5442TIP3    H116290   6.205   4.993   4.517
 5442TIP3    H216291   6.235   5.113   4.430
 5443TIP3   OH216292   0.946   6.497   0.957
 5443TIP3    H116293   1.038   6.475   0.942
 5443TIP3    H216294   0.949   6.560   1.030
 5444TIP3   OH216295   4.051   6.122   4.917
 5444TIP3    H116296   4.008   6.060   4.977
 5444TIP3    H216297   4.044   6.081   4.831
 5445TIP3   OH216298   4.734   5.293   2.351
 5445TIP3    H116299   4.697   5.355   2.289
 5445TIP3    H216300   4.829   5.302   2.340
 5446TIP3   OH216301   1.405   0.509   1.832
 5446TIP3    H116302   1.314   0.478   1.835
 5446TIP3    H216303   1.438   0.496   1.920
 5447TIP3   OH216304   5.484   1.986   4.174
 5447TIP3    H116305   5.389   1.979   4.183
 5447TIP3    H216306   5.514   2.011   4.261
 5448TIP3   OH216307   4.646   4.448   3.603
 5448TIP3    H116308   4.679   4.363   3.630
 5448TIP3    H216309   4.599   4.481   3.680
 5449TIP3   OH216310   2.034   4.012   4.387
 5449TIP3    H116311   1.970   4.009   4.458
 5449TIP3    H216312   2.021   4.098   4.346
 5450TIP3   OH216313   4.159   3.978   4.784
 5450TIP3    H116314   4.244   3.937   4.767
 5450TIP3    H216315   4.168   4.067   4.749
 5451TIP3   OH216316   5.202   2.326   2.746
 5451TIP3    H116317   5.224   2.238   2.775
 5451TIP3    H216318   5.268   2.348   2.680
 5452TIP3   OH216319   1.052   4.799   3.924
 5452TIP3    H116320   1.021   4.726   3.870
 5452TIP3    H216321   1.147   4.799   3.911
 5453TIP3   OH216322   6.959   6.525   4.071
 5453TIP3    H116323   7.044   6.483   4.080
 5453TIP3    H216324   6.963   6.571   3.987
 5454TIP3   OH216325   6.694   3.576   0.668
 5454TIP3    H116326   6.607   3.608   0.643
 5454TIP3    H216327   6.694   3.485   0.641
 5455TIP3   OH216328   3.180   4.175   0.512
 5455TIP3    H116329   3.124   4.109   0.473
 5455TIP3    H216330   3.229   4.212   0.439
 5456TIP3   OH216331   6.404   5.871   2.831
 5456TIP3    H116332   6.454   5.874   2.749
 5456TIP3    H216333   6.319   5.836   2.806
 5457TIP3   OH216334   4.216   2.012   3.494
 5457TIP3    H116335   4.175   1.926   3.483
 5457TIP3    H216336   4.170   2.068   3.432
 5458TIP3   OH216337   0.729   2.780   2.810
 5458TIP3    H116338   0.714   2.726   2.732
 5458TIP3    H216339   0.651   2.765   2.864
 5459TIP3   OH216340   3.167   4.866   4.989
 5459TIP3    H116341   3.232   4.799   4.966
 5459TIP3    H216342   3.203   4.948   4.955
 5460TIP3   OH216343   2.738   1.451   1.167
 5460TIP3    H116344   2.651   1.488   1.149
 5460TIP3    H216345   2.759   1.401   1.089
 5461TIP3   OH216346   0.458   5.711   4.124
 5461TIP3    H116347   0.535   5.731   4.177
 5461TIP3    H216348   0.491   5.713   4.034
 5462TIP3   OH216349   5.429   1.572   0.900
 5462TIP3    H116350   5.417   1.511   0.973
 5462TIP3    H216351   5.471   1.648   0.939
 5463TIP3   OH216352   2.290   1.479   2.548
 5463TIP3    H116353   2.384   1.461   2.558
 5463TIP3    H216354   2.247   1.403   2.587
 5464TIP3   OH216355   0.371   5.273   4.890
 5464TIP3    H116356   0.443   5.282   4.952
 5464TIP3    H216357   0.366   5.179   4.872
 5465TIP3   OH216358   3.544   0.845   0.438
 5465TIP3    H116359   3.469   0.878   0.488
 5465TIP3    H216360   3.506   0.779   0.379
 5466TIP3   OH216361   0.453   0.408   3.207
 5466TIP3    H116362   0.441   0.502   3.193
 5466TIP3    H216363   0.527   0.385   3.151
 5467TIP3   OH216364   0.671   1.107   4.913
 5467TIP3    H116365   0.579   1.093   4.934
 5467TIP3    H216366   0.672   1.187   4.861
 5468TIP3   OH216367   7.007   1.209   2.055
 5468TIP3    H116368   6.984   1.192   2.146
 5468TIP3    H216369   6.923   1.207   2.009
 5469TIP3   OH216370   3.562   3.738   3.572
 5469TIP3    H116371   3.573   3.822   3.618
 5469TIP3    H216372   3.535   3.677   3.640
 5470TIP3   OH216373   5.885   3.348   4.879
 5470TIP3    H116374   5.799   3.382   4.900
 5470TIP3    H216375   5.885   3.259   4.914
 5471TIP3   OH216376   2.818   6.286   4.478
 5471TIP3    H116377   2.787   6.372   4.508
 5471TIP3    H216378   2.800   6.286   4.384
 5472TIP3   OH216379   0.400   0.563   0.090
 5472TIP3    H116380   0.370   0.582   0.001
 5472TIP3    H216381   0.322   0.531   0.136
 5473TIP3   OH216382   3.140   4.600   5.080
 5473TIP3    H116383   3.105   4.689   5.073
 5473TIP3    H216384   3.069   4.551   5.121
 5474TIP3   OH216385   3.119   2.116   5.662
 5474TIP3    H116386   3.138   2.022   5.656
 5474TIP3    H216387   3.157   2.143   5.746
 5475TIP3   OH216388   4.527   1.112   2.729
 5475TIP3    H116389   4.551   1.036   2.782
 5475TIP3    H216390   4.432   1.106   2.721
 5476TIP3   OH216391   4.197   2.722   2.647
 5476TIP3    H116392   4.175   2.698   2.557
 5476TIP3    H216393   4.175   2.815   2.653
 5477TIP3   OH216394   1.450   3.171   0.825
 5477TIP3    H116395   1.418   3.233   0.891
 5477TIP3    H216396   1.410   3.087   0.850
 5478TIP3   OH216397   3.392   5.043   1.790
 5478TIP3    H116398   3.327   5.035   1.860
 5478TIP3    H216399   3.463   5.093   1.829
 5479TIP3   OH216400   5.441   0.859   5.375
 5479TIP3    H116401   5.449   0.915   5.453
 5479TIP3    H216402   5.507   0.791   5.388
 5480TIP3   OH216403   4.812   3.667   3.659
 5480TIP3    H116404   4.852   3.587   3.624
 5480TIP3    H216405   4.885   3.727   3.672
 5481TIP3   OH216406   3.503   5.850   1.003
 5481TIP3    H116407   3.489   5.863   0.909
 5481TIP3    H216408   3.416   5.831   1.038
 5482TIP3   OH216409   3.744   5.815   2.491
 5482TIP3    H116410   3.717   5.797   2.581
 5482TIP3    H216411   3.746   5.910   2.485
 5483TIP3   OH216412   1.723   4.850   1.425
 5483TIP3    H116413   1.726   4.757   1.447
 5483TIP3    H216414   1.764   4.854   1.338
 5484TIP3   OH216415   0.055   1.390   1.491
 5484TIP3    H116416   0.027   1.476   1.521
 5484TIP3    H216417  -0.017   1.331   1.513
 5485TIP3   OH216418   5.686   5.102   4.716
 5485TIP3    H116419   5.631   5.158   4.662
 5485TIP3    H216420   5.750   5.162   4.756
 5486TIP3   OH216421   6.809   4.055   3.941
 5486TIP3    H116422   6.781   3.971   3.904
 5486TIP3    H216423   6.778   4.052   4.032
 5487TIP3   OH216424   1.973   1.362   4.620
 5487TIP3    H116425   2.001   1.387   4.708
 5487TIP3    H216426   2.021   1.421   4.562
 5488TIP3   OH216427   2.072   5.145   2.385
 5488TIP3    H116428   2.038   5.193   2.461
 5488TIP3    H216429   1.995   5.099   2.350
 5489TIP3   OH216430   0.152   3.813   5.194
 5489TIP3    H116431   0.090   3.830   5.265
 5489TIP3    H216432   0.169   3.900   5.157
 5490TIP3   OH216433   6.365   3.186   2.380
 5490TIP3    H116434   6.370   3.275   2.413
 5490TIP3    H216435   6.411   3.133   2.445
 5491TIP3   OH216436   4.775   0.982   1.047
 5491TIP3    H116437   4.857   0.954   1.087
 5491TIP3    H216438   4.745   1.055   1.101
 5492TIP3   OH216439   5.667   1.155   5.762
 5492TIP3    H116440   5.663   1.099   5.840
 5492TIP3    H216441   5.612   1.230   5.785
 5493TIP3   OH216442   0.798   1.940   3.526
 5493TIP3    H116443   0.802   1.914   3.434
 5493TIP3    H216444   0.842   1.869   3.573
 5494TIP3   OH216445   3.540   0.121   5.129
 5494TIP3    H116446   3.502   0.085   5.210
 5494TIP3    H216447   3.583   0.046   5.089
 5495TIP3   OH216448   6.123   1.519   3.796
 5495TIP3    H116449   6.153   1.581   3.729
 5495TIP3    H216450   6.196   1.515   3.858
 5496TIP3   OH216451   1.096   3.076   2.389
 5496TIP3    H116452   1.014   3.055   2.434
 5496TIP3    H216453   1.160   3.014   2.424
 5497TIP3   OH216454   4.635   3.201   4.610
 5497TIP3    H116455   4.588   3.280   4.633
 5497TIP3    H216456   4.700   3.230   4.546
 5498TIP3   OH216457   5.899   0.376   3.282
 5498TIP3    H116458   5.881   0.442   3.349
 5498TIP3    H216459   5.993   0.384   3.265
 5499TIP3   OH216460   4.565   3.253   3.538
 5499TIP3    H116461   4.607   3.321   3.590
 5499TIP3    H216462   4.537   3.298   3.458
 5500TIP3   OH216463   6.190   5.159   5.919
 5500TIP3    H116464   6.186   5.178   5.825
 5500TIP3    H216465   6.278   5.125   5.934
 5501TIP3   OH216466   0.847   1.546   4.215
 5501TIP3    H116467   0.776   1.580   4.161
 5501TIP3    H216468   0.805   1.521   4.297
 5502TIP3   OH216469   5.514   3.513   4.693
 5502TIP3    H116470   5.519   3.418   4.699
 5502TIP3    H216471   5.600   3.539   4.661
 5503TIP3   OH216472   0.870   2.706   0.940
 5503TIP3    H116473   0.922   2.713   1.020
 5503TIP3    H216474   0.781   2.730   0.968
 5504TIP3   OH216475   1.417   0.825   4.290
 5504TIP3    H116476   1.473   0.856   4.362
 5504TIP3    H216477   1.396   0.904   4.241
 5505TIP3   OH216478   2.544   0.606   1.260
 5505TIP3    H116479   2.551   0.572   1.171
 5505TIP3    H216480   2.471   0.669   1.257
 5506TIP3   OH216481   5.401   1.607   0.031
 5506TIP3    H116482   5.425   1.699   0.042
 5506TIP3    H216483   5.305   1.608   0.023
 5507TIP3   OH216484   6.628   4.798   2.837
 5507TIP3    H116485   6.712   4.799   2.883
 5507TIP3    H216486   6.564   4.817   2.905
 5508TIP3   OH216487   6.801   4.396   3.658
 5508TIP3    H116488   6.744   4.360   3.726
 5508TIP3    H216489   6.816   4.487   3.684
 5509TIP3   OH216490   5.120   0.202   1.665
 5509TIP3    H116491   5.089   0.293   1.669
 5509TIP3    H216492   5.108   0.178   1.573
 5510TIP3   OH216493   6.171   2.068   2.792
 5510TIP3    H116494   6.106   2.064   2.722
 5510TIP3    H216495   6.210   2.155   2.783
 5511TIP3   OH216496   4.538   5.469   3.192
 5511TIP3    H116497   4.568   5.454   3.103
 5511TIP3    H216498   4.578   5.399   3.243
 5512TIP3   OH216499   5.070   0.107   2.923
 5512TIP3    H116500   5.011   0.181   2.937
 5512TIP3    H216501   5.155   0.146   2.905
 5513TIP3   OH216502   1.324   3.134   4.400
 5513TIP3    H116503   1.378   3.143   4.479
 5513TIP3    H216504   1.359   3.056   4.356
 5514TIP3   OH216505   6.437   4.457   4.388
 5514TIP3    H116506   6.412   4.427   4.475
 5514TIP3    H216507   6.424   4.381   4.332
 5515TIP3   OH216508   1.458   4.098   1.982
 5515TIP3    H116509   1.497   4.049   2.055
 5515TIP3    H216510   1.527   4.159   1.955
 5516TIP3   OH216511   0.270   3.894   2.144
 5516TIP3    H116512   0.233   3.834   2.208
 5516TIP3    H216513   0.333   3.947   2.193
 5517TIP3   OH216514   2.998   2.710   0.888
 5517TIP3    H116515   3.057   2.719   0.813
 5517TIP3    H216516   3.038   2.763   0.957
 5518TIP3   OH216517   1.371   2.256   1.319
 5518TIP3    H116518   1.421   2.312   1.380
 5518TIP3    H216519   1.297   2.311   1.293
 5519TIP3   OH216520   1.449   5.106   0.754
 5519TIP3    H116521   1.359   5.127   0.728
 5519TIP3    H216522   1.461   5.015   0.726
 5520TIP3   OH216523   1.010   2.295   2.537
 5520TIP3    H116524   0.965   2.346   2.604
 5520TIP3    H216525   1.014   2.206   2.573
 5521TIP3   OH216526   4.833   1.679   1.997
 5521TIP3    H116527   4.854   1.773   1.992
 5521TIP3    H216528   4.749   1.676   2.043
 5522TIP3   OH216529   2.764   2.637   0.725
 5522TIP3    H116530   2.833   2.675   0.778
 5522TIP3    H216531   2.807   2.568   0.675
 5523TIP3   OH216532   2.441   0.507   3.752
 5523TIP3    H116533   2.352   0.476   3.765
 5523TIP3    H216534   2.466   0.544   3.836
 5524TIP3   OH216535   1.471   2.081   5.554
 5524TIP3    H116536   1.467   2.086   5.649
 5524TIP3    H216537   1.555   2.039   5.535
 5525TIP3   OH216538   1.562   0.028   5.858
 5525TIP3    H116539   1.478   0.061   5.827
 5525TIP3    H216540   1.610   0.007   5.778
 5526TIP3   OH216541   4.491   3.296   2.758
 5526TIP3    H116542   4.497   3.385   2.793
 5526TIP3    H216543   4.484   3.308   2.664
 5527TIP3   OH216544   5.177   1.429   4.987
 5527TIP3    H116545   5.187   1.339   5.018
 5527TIP3    H216546   5.194   1.483   5.064
 5528TIP3   OH216547   6.734   0.135   0.919
 5528TIP3    H116548   6.773   0.140   1.006
 5528TIP3    H216549   6.672   0.208   0.916
 5529TIP3   OH216550   1.758   3.956   5.659
 5529TIP3    H116551   1.720   3.995   5.738
 5529TIP3    H216552   1.852   3.973   5.666
 5530TIP3   OH216553   4.339   4.721   4.387
 5530TIP3    H116554   4.313   4.810   4.409
 5530TIP3    H216555   4.258   4.670   4.393
 5531TIP3   OH216556   6.069   2.210   1.840
 5531TIP3    H116557   6.064   2.247   1.752
 5531TIP3    H216558   6.030   2.276   1.896
 5532TIP3   OH216559   4.722   0.575   1.136
 5532TIP3    H116560   4.761   0.499   1.094
 5532TIP3    H216561   4.701   0.546   1.225
 5533TIP3   OH216562   1.125   1.809   4.631
 5533TIP3    H116563   1.201   1.827   4.575
 5533TIP3    H216564   1.051   1.848   4.584
 5534TIP3   OH216565   2.863   3.497   1.132
 5534TIP3    H116566   2.769   3.500   1.117
 5534TIP3    H216567   2.901   3.543   1.056
 5535TIP3   OH216568   3.106   0.473   2.237
 5535TIP3    H116569   3.064   0.386   2.233
 5535TIP3    H216570   3.191   0.456   2.276
 5536TIP3   OH216571   6.853   4.917   2.427
 5536TIP3    H116572   6.864   4.822   2.438
 5536TIP3    H216573   6.862   4.931   2.333
 5537TIP3   OH216574   6.250   0.311   5.567
 5537TIP3    H116575   6.236   0.303   5.662
 5537TIP3    H216576   6.247   0.220   5.535
 5538TIP3   OH216577   4.894   6.448   1.186
 5538TIP3    H116578   4.871   6.397   1.264
 5538TIP3    H216579   4.957   6.512   1.218
 5539TIP3   OH216580   3.943   1.335   4.541
 5539TIP3    H116581   3.872   1.398   4.551
 5539TIP3    H216582   3.907   1.253   4.575
 5540TIP3   OH216583   4.973   5.256   3.553
 5540TIP3    H116584   5.015   5.327   3.505
 5540TIP3    H216585   4.919   5.301   3.619
 5541TIP3   OH216586   6.184   0.232   0.630
 5541TIP3    H116587   6.141   0.198   0.709
 5541TIP3    H216588   6.183   0.159   0.569
 5542TIP3   OH216589   0.978   4.078   3.931
 5542TIP3    H116590   0.942   4.158   3.969
 5542TIP3    H216591   0.936   4.007   3.980
 5543TIP3   OH216592   6.984   6.623   0.723
 5543TIP3    H116593   7.067   6.660   0.753
 5543TIP3    H216594   6.970   6.547   0.778
 5544TIP3   OH216595   1.142   2.641   3.264
 5544TIP3    H116596   1.225   2.643   3.218
 5544TIP3    H216597   1.094   2.716   3.231
 5545TIP3   OH216598   7.136   3.493   0.442
 5545TIP3    H116599   7.230   3.511   0.436
 5545TIP3    H216600   7.104   3.556   0.506
 5546TIP3   OH216601   2.196   1.774   5.446
 5546TIP3    H116602   2.276   1.827   5.443
 5546TIP3    H216603   2.186   1.751   5.539
 5547TIP3   OH216604   1.362   3.002   3.468
 5547TIP3    H116605   1.381   3.054   3.546
 5547TIP3    H216606   1.266   3.000   3.464
 5548TIP3   OH216607   0.764   6.804   2.165
 5548TIP3    H116608   0.808   6.864   2.225
 5548TIP3    H216609   0.822   6.728   2.161
 5549TIP3   OH216610   6.165   3.614   1.880
 5549TIP3    H116611   6.080   3.651   1.857
 5549TIP3    H216612   6.229   3.673   1.840
 5550TIP3   OH216613   5.397   6.380   5.308
 5550TIP3    H116614   5.482   6.366   5.351
 5550TIP3    H216615   5.406   6.335   5.224
 5551TIP3   OH216616   0.207   2.267   1.622
 5551TIP3    H116617   0.147   2.212   1.673
 5551TIP3    H216618   0.187   2.356   1.652
 5552TIP3   OH216619   2.378   4.992   5.772
 5552TIP3    H116620   2.461   5.040   5.777
 5552TIP3    H216621   2.349   5.002   5.681
 5553TIP3   OH216622   0.076   4.360   3.615
 5553TIP3    H116623   0.086   4.321   3.701
 5553TIP3    H216624   0.080   4.286   3.554
 5554TIP3   OH216625   3.707   1.434   2.013
 5554TIP3    H116626   3.617   1.460   1.994
 5554TIP3    H216627   3.759   1.475   1.943
 5555TIP3   OH216628   2.726   0.385   2.506
 5555TIP3    H116629   2.755   0.407   2.594
 5555TIP3    H216630   2.756   0.295   2.493
 5556TIP3   OH216631   2.471   4.195   0.040
 5556TIP3    H116632   2.538   4.141   0.081
 5556TIP3    H216633   2.434   4.247   0.112
 5557TIP3   OH216634   4.952   3.388   2.839
 5557TIP3    H116635   4.970   3.296   2.819
 5557TIP3    H216636   4.928   3.388   2.932
 5558TIP3   OH216637   2.189   3.716   5.475
 5558TIP3    H116638   2.146   3.694   5.558
 5558TIP3    H216639   2.125   3.770   5.429
 5559TIP3   OH216640   4.809   3.632   5.410
 5559TIP3    H116641   4.744   3.685   5.364
 5559TIP3    H216642   4.837   3.687   5.483
 5560TIP3   OH216643   3.465   4.350   5.330
 5560TIP3    H116644   3.508   4.317   5.251
 5560TIP3    H216645   3.455   4.444   5.314
 5561TIP3   OH216646   4.318   1.811   3.991
 5561TIP3    H116647   4.231   1.809   3.952
 5561TIP3    H216648   4.351   1.722   3.981
 5562TIP3   OH216649   5.175   2.813   0.834
 5562TIP3    H116650   5.149   2.836   0.745
 5562TIP3    H216651   5.267   2.785   0.826
 5563TIP3   OH216652   3.044   1.566   2.052
 5563TIP3    H116653   2.996   1.580   2.134
 5563TIP3    H216654   3.126   1.524   2.079
 5564TIP3   OH216655   5.067   6.393   0.554
 5564TIP3    H116656   5.118   6.372   0.632
 5564TIP3    H216657   5.069   6.312   0.501
 5565TIP3   OH216658   2.586   0.162   3.445
 5565TIP3    H116659   2.593   0.120   3.531
 5565TIP3    H216660   2.562   0.253   3.465
 5566TIP3   OH216661   6.215   4.687   3.173
 5566TIP3    H116662   6.253   4.772   3.198
 5566TIP3    H216663   6.256   4.624   3.232
 5567TIP3   OH216664   0.581   5.328   0.316
 5567TIP3    H116665   0.551   5.364   0.400
 5567TIP3    H216666   0.647   5.263   0.341
 5568TIP3   OH216667   5.158   1.773   3.438
 5568TIP3    H116668   5.209   1.852   3.456
 5568TIP3    H216669   5.223   1.710   3.407
 5569TIP3   OH216670   1.236   6.820   3.840
 5569TIP3    H116671   1.241   6.907   3.879
 5569TIP3    H216672   1.206   6.763   3.911
 5570TIP3   OH216673   5.789   0.296   0.668
 5570TIP3    H116674   5.829   0.377   0.700
 5570TIP3    H216675   5.788   0.306   0.573
 5571TIP3   OH216676   2.708   2.427   2.644
 5571TIP3    H116677   2.678   2.337   2.656
 5571TIP3    H216678   2.800   2.420   2.619
 5572TIP3   OH216679   3.320   6.285   5.677
 5572TIP3    H116680   3.232   6.291   5.714
 5572TIP3    H216681   3.356   6.204   5.713
 5573TIP3   OH216682   5.463   0.670   2.688
 5573TIP3    H116683   5.557   0.666   2.704
 5573TIP3    H216684   5.425   0.687   2.774
 5574TIP3   OH216685   0.666   0.913   5.416
 5574TIP3    H116686   0.752   0.912   5.458
 5574TIP3    H216687   0.609   0.957   5.479
 5575TIP3   OH216688   3.575   6.377   5.764
 5575TIP3    H116689   3.490   6.362   5.723
 5575TIP3    H216690   3.591   6.471   5.754
 5576TIP3   OH216691   3.823   5.288   1.335
 5576TIP3    H116692   3.868   5.253   1.258
 5576TIP3    H216693   3.730   5.288   1.310
 5577TIP3   OH216694   5.286   6.389   4.670
 5577TIP3    H116695   5.342   6.319   4.704
 5577TIP3    H216696   5.211   6.390   4.729
 5578TIP3   OH216697   2.920   0.685   5.105
 5578TIP3    H116698   2.933   0.689   5.200
 5578TIP3    H216699   2.852   0.749   5.087
 5579TIP3   OH216700   1.799   2.234   0.078
 5579TIP3    H116701   1.745   2.275   0.011
 5579TIP3    H216702   1.770   2.142   0.079
 5580TIP3   OH216703   3.384   5.536   2.229
 5580TIP3    H116704   3.425   5.449   2.230
 5580TIP3    H216705   3.363   5.554   2.320
 5581TIP3   OH216706   1.088   4.953   4.451
 5581TIP3    H116707   1.088   4.917   4.540
 5581TIP3    H216708   1.008   4.920   4.411
 5582TIP3   OH216709   1.658   3.994   3.850
 5582TIP3    H116710   1.564   4.013   3.858
 5582TIP3    H216711   1.672   3.920   3.909
 5583TIP3   OH216712   3.677   2.297   0.631
 5583TIP3    H116713   3.614   2.267   0.565
 5583TIP3    H216714   3.624   2.310   0.710
 5584TIP3   OH216715   5.903   1.316   0.484
 5584TIP3    H116716   5.840   1.333   0.414
 5584TIP3    H216717   5.865   1.359   0.561
 5585TIP3   OH216718   6.511   2.479   5.879
 5585TIP3    H116719   6.484   2.418   5.811
 5585TIP3    H216720   6.535   2.423   5.953
 5586TIP3   OH216721   5.293   0.672   1.091
 5586TIP3    H116722   5.301   0.705   1.181
 5586TIP3    H216723   5.347   0.731   1.039
 5587TIP3   OH216724   1.751   0.159   0.475
 5587TIP3    H116725   1.843   0.184   0.470
 5587TIP3    H216726   1.743   0.109   0.556
 5588TIP3   OH216727   5.643   2.335   1.420
 5588TIP3    H116728   5.629   2.324   1.326
 5588TIP3    H216729   5.649   2.429   1.433
 5589TIP3   OH216730   3.576   0.624   3.651
 5589TIP3    H116731   3.642   0.580   3.596
 5589TIP3    H216732   3.492   0.598   3.613
 5590TIP3   OH216733   3.641   6.015   1.887
 5590TIP3    H116734   3.723   5.973   1.858
 5590TIP3    H216735   3.588   6.021   1.808
 5591TIP3   OH216736   6.848   1.975   4.037
 5591TIP3    H116737   6.797   2.056   4.027
 5591TIP3    H216738   6.932   1.995   3.997
 5592TIP3   OH216739   5.659   5.230   3.237
 5592TIP3    H116740   5.617   5.263   3.317
 5592TIP3    H216741   5.751   5.221   3.261
 5593TIP3   OH216742   4.846   0.671   4.616
 5593TIP3    H116743   4.912   0.633   4.673
 5593TIP3    H216744   4.865   0.634   4.529
 5594TIP3   OH216745   4.989   5.843   2.809
 5594TIP3    H116746   5.000   5.769   2.750
 5594TIP3    H216747   4.898   5.835   2.840
 5595TIP3   OH216748   1.114   4.887   5.327
 5595TIP3    H116749   1.054   4.813   5.341
 5595TIP3    H216750   1.060   4.953   5.285
 5596TIP3   OH216751   4.925   0.568   0.071
 5596TIP3    H116752   4.932   0.634   0.002
 5596TIP3    H216753   4.846   0.592   0.119
 5597TIP3   OH216754   2.732   1.966   0.108
 5597TIP3    H116755   2.671   2.018   0.161
 5597TIP3    H216756   2.802   1.942   0.169
 5598TIP3   OH216757   6.438   6.523   2.718
 5598TIP3    H116758   6.521   6.568   2.705
 5598TIP3    H216759   6.406   6.505   2.629
 5599TIP3   OH216760   1.269   6.349   1.344
 5599TIP3    H116761   1.251   6.423   1.403
 5599TIP3    H216762   1.287   6.276   1.403
 5600TIP3   OH216763   0.944   1.845   1.682
 5600TIP3    H116764   1.000   1.798   1.744
 5600TIP3    H216765   0.997   1.850   1.602
 5601TIP3   OH216766   0.766   5.122   4.809
 5601TIP3    H116767   0.711   5.123   4.887
 5601TIP3    H216768   0.743   5.202   4.762
 5602TIP3   OH216769   6.513   1.216   3.767
 5602TIP3    H116770   6.445   1.252   3.709
 5602TIP3    H216771   6.496   1.122   3.767
 5603TIP3   OH216772   6.489   3.984   5.736
 5603TIP3    H116773   6.504   4.029   5.653
 5603TIP3    H216774   6.539   4.036   5.800
 5604TIP3   OH216775   2.520   2.644   5.240
 5604TIP3    H116776   2.507   2.719   5.298
 5604TIP3    H216777   2.472   2.666   5.160
 5605TIP3   OH216778   3.938   4.743   0.215
 5605TIP3    H116779   4.004   4.721   0.150
 5605TIP3    H216780   3.905   4.828   0.188
 5606TIP3   OH216781   3.695   4.246   5.971
 5606TIP3    H116782   3.655   4.208   5.893
 5606TIP3    H216783   3.783   4.272   5.944
 5607TIP3   OH216784   6.024   5.071   0.161
 5607TIP3    H116785   5.945   5.042   0.115
 5607TIP3    H216786   6.042   5.158   0.124
 5608TIP3   OH216787   4.949   0.347   2.182
 5608TIP3    H116788   4.952   0.312   2.271
 5608TIP3    H216789   4.869   0.311   2.144
 5609TIP3   OH216790   2.565   0.150   2.964
 5609TIP3    H116791   2.487   0.094   2.969
 5609TIP3    H216792   2.541   0.229   3.012
 5610TIP3   OH216793   1.373   2.614   5.591
 5610TIP3    H116794   1.404   2.616   5.681
 5610TIP3    H216795   1.280   2.636   5.597
 5611TIP3   OH216796   5.364   6.300   5.030
 5611TIP3    H116797   5.439   6.337   4.983
 5611TIP3    H216798   5.289   6.317   4.974
 5612TIP3   OH216799   7.076   3.733   0.568
 5612TIP3    H116800   7.135   3.808   0.570
 5612TIP3    H216801   6.994   3.768   0.534
 5613TIP3   OH216802   5.996   3.907   3.725
 5613TIP3    H116803   5.999   3.823   3.678
 5613TIP3    H216804   5.986   3.973   3.656
 5614TIP3   OH216805   1.207   2.664   1.884
 5614TIP3    H116806   1.183   2.756   1.875
 5614TIP3    H216807   1.302   2.665   1.896
 5615TIP3   OH216808   2.772   3.196   3.738
 5615TIP3    H116809   2.804   3.286   3.733
 5615TIP3    H216810   2.784   3.162   3.649
 5616TIP3   OH216811   5.912   6.285   4.784
 5616TIP3    H116812   5.961   6.307   4.864
 5616TIP3    H216813   5.954   6.336   4.715
 5617TIP3   OH216814   6.897   1.794   0.077
 5617TIP3    H116815   6.975   1.830   0.035
 5617TIP3    H216816   6.927   1.713   0.118
 5618TIP3   OH216817   3.432   3.464   0.503
 5618TIP3    H116818   3.357   3.459   0.562
 5618TIP3    H216819   3.499   3.410   0.545
 5619TIP3   OH216820   2.043   5.592   0.794
 5619TIP3    H116821   2.009   5.542   0.869
 5619TIP3    H216822   1.968   5.598   0.735
 5620TIP3   OH216823   4.481   3.371   5.461
 5620TIP3    H116824   4.450   3.365   5.370
 5620TIP3    H216825   4.417   3.426   5.505
 5621TIP3   OH216826   3.889   4.969   4.556
 5621TIP3    H116827   3.805   5.014   4.565
 5621TIP3    H216828   3.941   5.025   4.498
 5622TIP3   OH216829   6.512   2.130   1.658
 5622TIP3    H116830   6.519   2.041   1.623
 5622TIP3    H216831   6.440   2.125   1.720
 5623TIP3   OH216832   0.912   3.560   1.324
 5623TIP3    H116833   0.830   3.600   1.354
 5623TIP3    H216834   0.885   3.497   1.258
 5624TIP3   OH216835   2.959   1.660   5.892
 5624TIP3    H116836   2.957   1.604   5.969
 5624TIP3    H216837   3.002   1.607   5.825
 5625TIP3   OH216838   2.875   3.063   2.763
 5625TIP3    H116839   2.883   3.017   2.680
 5625TIP3    H216840   2.943   3.131   2.759
 5626TIP3   OH216841   5.151   4.987   3.277
 5626TIP3    H116842   5.166   5.038   3.356
 5626TIP3    H216843   5.119   4.902   3.308
 5627TIP3   OH216844   4.971   4.073   3.216
 5627TIP3    H116845   4.945   4.062   3.124
 5627TIP3    H216846   5.048   4.018   3.226
 5628TIP3   OH216847   4.176   5.491   4.108
 5628TIP3    H116848   4.242   5.437   4.150
 5628TIP3    H216849   4.160   5.563   4.169
 5629TIP3   OH216850   3.772   0.738   3.281
 5629TIP3    H116851   3.707   0.808   3.279
 5629TIP3    H216852   3.852   0.779   3.314
 5630TIP3   OH216853   3.431   5.233   2.868
 5630TIP3    H116854   3.525   5.233   2.853
 5630TIP3    H216855   3.410   5.324   2.889
 5631TIP3   OH216856   3.755   3.045   3.334
 5631TIP3    H116857   3.663   3.060   3.356
 5631TIP3    H216858   3.757   2.956   3.298
 5632TIP3   OH216859   6.215   2.545   3.922
 5632TIP3    H116860   6.242   2.470   3.975
 5632TIP3    H216861   6.272   2.616   3.950
 5633TIP3   OH216862   3.773   3.313   2.671
 5633TIP3    H116863   3.745   3.395   2.628
 5633TIP3    H216864   3.863   3.300   2.641
 5634TIP3   OH216865   3.270   0.293   2.667
 5634TIP3    H116866   3.286   0.199   2.677
 5634TIP3    H216867   3.322   0.333   2.737
 5635TIP3   OH216868   4.151   5.478   1.128
 5635TIP3    H116869   4.139   5.410   1.062
 5635TIP3    H216870   4.183   5.431   1.205
 5636TIP3   OH216871   3.650   2.742   2.321
 5636TIP3    H116872   3.627   2.672   2.261
 5636TIP3    H216873   3.567   2.765   2.364
 5637TIP3   OH216874   0.527   3.968   5.048
 5637TIP3    H116875   0.512   4.052   5.091
 5637TIP3    H216876   0.446   3.950   5.000
 5638TIP3   OH216877   6.692   4.533   5.444
 5638TIP3    H116878   6.713   4.488   5.526
 5638TIP3    H216879   6.597   4.523   5.436
 5639TIP3   OH216880   2.706   1.487   3.680
 5639TIP3    H116881   2.620   1.470   3.718
 5639TIP3    H216882   2.718   1.581   3.688
 5640TIP3   OH216883   3.403   0.143   5.432
 5640TIP3    H116884   3.434   0.233   5.421
 5640TIP3    H216885   3.408   0.127   5.526
 5641TIP3   OH216886   5.998   2.827   3.181
 5641TIP3    H116887   6.060   2.899   3.169
 5641TIP3    H216888   6.028   2.759   3.121
 5642TIP3   OH216889   5.012   2.244   5.372
 5642TIP3    H116890   4.960   2.207   5.300
 5642TIP3    H216891   5.062   2.315   5.331
 5643TIP3   OH216892   2.592   0.231   1.179
 5643TIP3    H116893   2.550   0.276   1.253
 5643TIP3    H216894   2.678   0.203   1.214
 5644TIP3   OH216895   1.990   2.885   2.525
 5644TIP3    H116896   1.984   2.797   2.563
 5644TIP3    H216897   1.909   2.895   2.475
 5645TIP3   OH216898   1.084   5.301   2.865
 5645TIP3    H116899   1.107   5.391   2.887
 5645TIP3    H216900   1.025   5.274   2.935
 5646TIP3   OH216901   0.955   5.753   2.644
 5646TIP3    H116902   1.043   5.717   2.659
 5646TIP3    H216903   0.955   5.778   2.551
 5647TIP3   OH216904   1.787   1.120   0.421
 5647TIP3    H116905   1.815   1.052   0.360
 5647TIP3    H216906   1.771   1.197   0.366
 5648TIP3   OH216907   3.456   6.311   3.043
 5648TIP3    H116908   3.406   6.346   3.117
 5648TIP3    H216909   3.410   6.230   3.020
 5649TIP3   OH216910   5.714   0.364   1.609
 5649TIP3    H116911   5.766   0.311   1.669
 5649TIP3    H216912   5.632   0.380   1.656
 5650TIP3   OH216913   5.337   3.022   5.663
 5650TIP3    H116914   5.302   3.111   5.664
 5650TIP3    H216915   5.430   3.033   5.646
 5651TIP3   OH216916   4.184   4.533   0.632
 5651TIP3    H116917   4.166   4.444   0.601
 5651TIP3    H216918   4.115   4.586   0.594
 5652TIP3   OH216919   4.477   1.919   5.785
 5652TIP3    H116920   4.464   1.824   5.784
 5652TIP3    H216921   4.565   1.932   5.751
 5653TIP3   OH216922   4.800   0.060   5.744
 5653TIP3    H116923   4.825  -0.004   5.810
 5653TIP3    H216924   4.741   0.120   5.788
 5654TIP3   OH216925   3.481   0.676   4.895
 5654TIP3    H116926   3.406   0.640   4.942
 5654TIP3    H216927   3.557   0.651   4.947
 5655TIP3   OH216928   6.113   6.439   4.188
 5655TIP3    H116929   6.111   6.512   4.250
 5655TIP3    H216930   6.199   6.445   4.147
 5656TIP3   OH216931   3.311   3.416   5.938
 5656TIP3    H116932   3.260   3.496   5.924
 5656TIP3    H216933   3.375   3.415   5.866
 5657TIP3   OH216934   0.320   2.868   0.548
 5657TIP3    H116935   0.383   2.876   0.476
 5657TIP3    H216936   0.372   2.877   0.627
 5658TIP3   OH216937   1.183   4.719   5.711
 5658TIP3    H116938   1.195   4.656   5.640
 5658TIP3    H216939   1.268   4.763   5.720
 5659TIP3   OH216940   0.528   1.486   0.449
 5659TIP3    H116941   0.607   1.519   0.491
 5659TIP3    H216942   0.456   1.531   0.493
 5660TIP3   OH216943   7.203   0.626   2.127
 5660TIP3    H116944   7.171   0.690   2.191
 5660TIP3    H216945   7.183   0.666   2.042
 5661TIP3   OH216946   5.861   4.413   5.033
 5661TIP3    H116947   5.916   4.416   4.955
 5661TIP3    H216948   5.791   4.475   5.015
 5662TIP3   OH216949   4.375   5.803   1.278
 5662TIP3    H116950   4.457   5.757   1.296
 5662TIP3    H216951   4.334   5.813   1.364
 5663TIP3   OH216952   5.575   5.294   2.426
 5663TIP3    H116953   5.597   5.377   2.470
 5663TIP3    H216954   5.654   5.241   2.435
 5664TIP3   OH216955   4.840   1.565   3.905
 5664TIP3    H116956   4.827   1.624   3.830
 5664TIP3    H216957   4.928   1.586   3.937
 5665TIP3   OH216958   6.455   2.800   1.045
 5665TIP3    H116959   6.432   2.871   1.106
 5665TIP3    H216960   6.489   2.845   0.968
 5666TIP3   OH216961   5.927   3.176   4.641
 5666TIP3    H116962   5.856   3.113   4.656
 5666TIP3    H216963   5.903   3.252   4.695
 5667TIP3   OH216964   4.341   6.385   0.914
 5667TIP3    H116965   4.342   6.423   1.001
 5667TIP3    H216966   4.429   6.350   0.902
 5668TIP3   OH216967   6.255   6.130   0.933
 5668TIP3    H116968   6.191   6.058   0.934
 5668TIP3    H216969   6.338   6.088   0.912
 5669TIP3   OH216970   0.190   2.261   4.118
 5669TIP3    H116971   0.229   2.173   4.115
 5669TIP3    H216972   0.109   2.253   4.068
 5670TIP3   OH216973   3.889   2.070   3.210
 5670TIP3    H116974   3.865   2.110   3.126
 5670TIP3    H216975   3.806   2.060   3.257
 5671TIP3   OH216976   2.319   2.636   2.232
 5671TIP3    H116977   2.373   2.569   2.189
 5671TIP3    H216978   2.247   2.587   2.272
 5672TIP3   OH216979   6.533   3.872   3.699
 5672TIP3    H116980   6.446   3.902   3.675
 5672TIP3    H216981   6.521   3.829   3.784
 5673TIP3   OH216982   3.974   6.093   3.634
 5673TIP3    H116983   4.062   6.055   3.632
 5673TIP3    H216984   3.972   6.144   3.714
 5674TIP3   OH216985   1.047   6.457   3.368
 5674TIP3    H116986   1.119   6.476   3.429
 5674TIP3    H216987   1.086   6.399   3.303
 5675TIP3   OH216988   1.401   2.689   4.160
 5675TIP3    H116989   1.381   2.692   4.253
 5675TIP3    H216990   1.494   2.713   4.155
 5676TIP3   OH216991   6.491   2.518   3.784
 5676TIP3    H116992   6.555   2.576   3.743
 5676TIP3    H216993   6.414   2.523   3.727
 5677TIP3   OH216994   0.140   0.700   1.088
 5677TIP3    H116995   0.120   0.606   1.087
 5677TIP3    H216996   0.202   0.711   1.160
 5678TIP3   OH216997   0.040   1.979   4.274
 5678TIP3    H116998   0.078   1.975   4.187
 5678TIP3    H216999   0.114   1.967   4.334
 5679TIP3   OH217000   4.213   5.273   0.910
 5679TIP3    H117001   4.204   5.184   0.946
 5679TIP3    H217002   4.247   5.260   0.822
 5680TIP3   OH217003   3.065   1.454   4.140
 5680TIP3    H117004   3.158   1.443   4.158
 5680TIP3    H217005   3.053   1.549   4.138
 5681TIP3   OH217006   0.027   3.259   4.020
 5681TIP3    H117007   0.027   3.329   3.955
 5681TIP3    H217008  -0.041   3.198   3.990
 5682TIP3   OH217009   5.841   0.608   4.821
 5682TIP3    H117010   5.907   0.568   4.876
 5682TIP3    H217011   5.834   0.698   4.852
 5683TIP3   OH217012   4.452   3.636   4.301
 5683TIP3    H117013   4.487   3.721   4.328
 5683TIP3    H217014   4.368   3.657   4.259
 5684TIP3   OH217015   2.605   2.726   2.390
 5684TIP3    H117016   2.594   2.802   2.333
 5684TIP3    H217017   2.594   2.651   2.332
 5685TIP3   OH217018   4.876   4.668   3.183
 5685TIP3    H117019   4.842   4.757   3.183
 5685TIP3    H217020   4.830   4.624   3.112
 5686TIP3   OH217021   6.033   4.061   5.351
 5686TIP3    H117022   5.943   4.058   5.382
 5686TIP3    H217023   6.029   4.030   5.261
 5687TIP3   OH217024   6.253   2.757   0.124
 5687TIP3    H117025   6.322   2.718   0.179
 5687TIP3    H217026   6.239   2.844   0.161
 5688TIP3   OH217027   5.581   2.743   1.084
 5688TIP3    H117028   5.581   2.801   1.008
 5688TIP3    H217029   5.649   2.679   1.065
 5689TIP3   OH217030   4.705   2.577   3.336
 5689TIP3    H117031   4.667   2.655   3.296
 5689TIP3    H217032   4.741   2.607   3.419
 5690TIP3   OH217033   5.479   5.261   4.543
 5690TIP3    H117034   5.545   5.254   4.475
 5690TIP3    H217035   5.396   5.245   4.499
 5691TIP3   OH217036   0.884   2.399   2.767
 5691TIP3    H117037   0.953   2.462   2.788
 5691TIP3    H217038   0.807   2.431   2.814
 5692TIP3   OH217039   2.517   2.495   4.654
 5692TIP3    H117040   2.580   2.537   4.594
 5692TIP3    H217041   2.553   2.408   4.669
 5693TIP3   OH217042   0.577   2.543   0.466
 5693TIP3    H117043   0.544   2.528   0.555
 5693TIP3    H217044   0.645   2.477   0.454
 5694TIP3   OH217045   0.142   6.802   0.595
 5694TIP3    H117046   0.117   6.814   0.504
 5694TIP3    H217047   0.226   6.756   0.591
 5695TIP3   OH217048   2.482   1.782   5.446
 5695TIP3    H117049   2.494   1.709   5.507
 5695TIP3    H217050   2.568   1.794   5.406
 5696TIP3   OH217051   3.084   1.545   5.693
 5696TIP3    H117052   3.141   1.533   5.618
 5696TIP3    H217053   3.130   1.504   5.766
 5697TIP3   OH217054   0.059   2.904   1.513
 5697TIP3    H117055   0.092   2.859   1.435
 5697TIP3    H217056   0.031   2.990   1.480
 5698TIP3   OH217057   4.290   5.536   4.472
 5698TIP3    H117058   4.352   5.601   4.505
 5698TIP3    H217059   4.231   5.586   4.416
 5699TIP3   OH217060   4.866   1.840   3.129
 5699TIP3    H117061   4.863   1.771   3.062
 5699TIP3    H217062   4.870   1.792   3.212
 5700TIP3   OH217063   4.330   1.636   3.155
 5700TIP3    H117064   4.313   1.623   3.248
 5700TIP3    H217065   4.245   1.618   3.113
 5701TIP3   OH217066   3.556   0.835   1.128
 5701TIP3    H117067   3.523   0.798   1.047
 5701TIP3    H217068   3.481   0.831   1.188
 5702TIP3   OH217069   0.353   5.441   1.234
 5702TIP3    H117070   0.347   5.501   1.308
 5702TIP3    H217071   0.272   5.456   1.184
 5703TIP3   OH217072   6.448   3.451   2.339
 5703TIP3    H117073   6.540   3.424   2.341
 5703TIP3    H217074   6.424   3.445   2.247
 5704TIP3   OH217075   4.357   1.164   4.411
 5704TIP3    H117076   4.292   1.177   4.479
 5704TIP3    H217077   4.441   1.168   4.457
 5705TIP3   OH217078   5.957   6.444   2.738
 5705TIP3    H117079   5.955   6.393   2.657
 5705TIP3    H217080   6.047   6.477   2.743
 5706TIP3   OH217081   1.000   1.524   3.972
 5706TIP3    H117082   0.932   1.487   3.916
 5706TIP3    H217083   0.956   1.538   4.056
 5707TIP3   OH217084   0.364   4.802   0.061
 5707TIP3    H117085   0.354   4.744   0.136
 5707TIP3    H217086   0.436   4.861   0.085
 5708TIP3   OH217087   7.208   0.308   2.826
 5708TIP3    H117088   7.124   0.336   2.862
 5708TIP3    H217089   7.221   0.219   2.860
 5709TIP3   OH217090   6.298   3.706   4.100
 5709TIP3    H117091   6.371   3.687   4.159
 5709TIP3    H217092   6.225   3.728   4.158
 5710TIP3   OH217093   4.484   6.046   1.236
 5710TIP3    H117094   4.442   5.964   1.263
 5710TIP3    H217095   4.574   6.039   1.269
 5711TIP3   OH217096   0.355   1.309   5.285
 5711TIP3    H117097   0.289   1.343   5.345
 5711TIP3    H217098   0.389   1.231   5.329
 5712TIP3   OH217099   3.816   5.177   0.878
 5712TIP3    H117100   3.849   5.203   0.964
 5712TIP3    H217101   3.732   5.223   0.870
 5713TIP3   OH217102   4.682   4.989   2.699
 5713TIP3    H117103   4.725   5.071   2.719
 5713TIP3    H217104   4.629   5.007   2.622
 5714TIP3   OH217105   3.708   0.627   2.904
 5714TIP3    H117106   3.726   0.534   2.894
 5714TIP3    H217107   3.612   0.633   2.904
 5715TIP3   OH217108   6.900   4.946   2.163
 5715TIP3    H117109   6.843   4.951   2.086
 5715TIP3    H217110   6.985   4.921   2.127
 5716TIP3   OH217111   4.452   1.050   0.674
 5716TIP3    H117112   4.388   1.022   0.739
 5716TIP3    H217113   4.399   1.088   0.604
 5717TIP3   OH217114   1.469   1.388   0.916
 5717TIP3    H117115   1.529   1.409   0.844
 5717TIP3    H217116   1.526   1.373   0.991
 5718TIP3   OH217117   0.083   4.012   4.779
 5718TIP3    H117118  -0.012   4.019   4.789
 5718TIP3    H217119   0.118   4.053   4.858
 5719TIP3   OH217120   5.522   3.469   0.445
 5719TIP3    H117121   5.513   3.483   0.351
 5719TIP3    H217122   5.613   3.493   0.465
 5720TIP3   OH217123   6.975   3.882   1.728
 5720TIP3    H117124   6.944   3.877   1.819
 5720TIP3    H217125   7.052   3.938   1.731
 5721TIP3   OH217126   6.114   6.312   0.733
 5721TIP3    H117127   6.194   6.334   0.685
 5721TIP3    H217128   6.143   6.256   0.804
 5722TIP3   OH217129   3.732   1.443   2.570
 5722TIP3    H117130   3.743   1.383   2.497
 5722TIP3    H217131   3.806   1.503   2.564
 5723TIP3   OH217132   3.185   1.857   1.919
 5723TIP3    H117133   3.241   1.790   1.880
 5723TIP3    H217134   3.133   1.891   1.846
 5724TIP3   OH217135   1.531   0.640   1.005
 5724TIP3    H117136   1.529   0.734   0.990
 5724TIP3    H217137   1.610   0.625   1.057
 5725TIP3   OH217138   3.826   4.817   1.500
 5725TIP3    H117139   3.784   4.855   1.578
 5725TIP3    H217140   3.807   4.723   1.507
 5726TIP3   OH217141   1.822   3.784   3.180
 5726TIP3    H117142   1.831   3.794   3.275
 5726TIP3    H217143   1.906   3.813   3.145
 5727TIP3   OH217144   0.628   2.310   5.412
 5727TIP3    H117145   0.546   2.322   5.364
 5727TIP3    H217146   0.694   2.297   5.344
 5728TIP3   OH217147   5.270   2.736   3.858
 5728TIP3    H117148   5.333   2.727   3.930
 5728TIP3    H217149   5.199   2.675   3.880
 5729TIP3   OH217150   1.553   2.909   1.545
 5729TIP3    H117151   1.499   2.988   1.555
 5729TIP3    H217152   1.498   2.849   1.495
 5730TIP3   OH217153   6.900   1.250   5.425
 5730TIP3    H117154   6.900   1.343   5.405
 5730TIP3    H217155   6.952   1.210   5.355
 5731TIP3   OH217156   0.475   0.236   5.443
 5731TIP3    H117157   0.485   0.331   5.455
 5731TIP3    H217158   0.391   0.226   5.398
 5732TIP3   OH217159   4.639   1.870   1.449
 5732TIP3    H117160   4.586   1.804   1.404
 5732TIP3    H217161   4.576   1.937   1.475
 5733TIP3   OH217162   0.607   5.423   4.878
 5733TIP3    H117163   0.661   5.398   4.802
 5733TIP3    H217164   0.543   5.485   4.843
 5734TIP3   OH217165   7.168   1.603   3.360
 5734TIP3    H117166   7.245   1.582   3.307
 5734TIP3    H217167   7.204   1.646   3.437
 5735TIP3   OH217168   6.962   1.138   0.643
 5735TIP3    H117169   6.873   1.159   0.615
 5735TIP3    H217170   7.001   1.093   0.568
 5736TIP3   OH217171   2.794   5.879   3.162
 5736TIP3    H117172   2.743   5.817   3.212
 5736TIP3    H217173   2.757   5.965   3.184
 5737TIP3   OH217174   4.732   1.020   0.703
 5737TIP3    H117175   4.775   0.953   0.651
 5737TIP3    H217176   4.642   1.021   0.671
 5738TIP3   OH217177   2.158   3.303   5.819
 5738TIP3    H117178   2.146   3.350   5.901
 5738TIP3    H217179   2.073   3.262   5.802
 5739TIP3   OH217180   5.010   5.893   4.023
 5739TIP3    H117181   5.052   5.833   3.962
 5739TIP3    H217182   5.081   5.950   4.054
 5740TIP3   OH217183   4.204   3.704   4.180
 5740TIP3    H117184   4.183   3.719   4.087
 5740TIP3    H217185   4.119   3.697   4.223
 5741TIP3   OH217186   5.559   4.866   3.428
 5741TIP3    H117187   5.492   4.930   3.405
 5741TIP3    H217188   5.615   4.911   3.491
 5742TIP3   OH217189   0.617   6.240   4.846
 5742TIP3    H117190   0.677   6.309   4.819
 5742TIP3    H217191   0.620   6.241   4.942
 5743TIP3   OH217192   4.140   4.179   2.921
 5743TIP3    H117193   4.089   4.239   2.975
 5743TIP3    H217194   4.133   4.095   2.966
 5744TIP3   OH217195   3.207   4.726   3.716
 5744TIP3    H117196   3.197   4.668   3.791
 5744TIP3    H217197   3.186   4.671   3.640
 5745TIP3   OH217198   1.997   3.916   4.826
 5745TIP3    H117199   2.017   3.823   4.817
 5745TIP3    H217200   2.082   3.958   4.835
 5746TIP3   OH217201   3.253   1.217   0.892
 5746TIP3    H117202   3.167   1.258   0.895
 5746TIP3    H217203   3.235   1.124   0.881
 5747TIP3   OH217204   2.147   0.612   4.165
 5747TIP3    H117205   2.136   0.698   4.125
 5747TIP3    H217206   2.240   0.606   4.185
 5748TIP3   OH217207   6.219   3.185   5.429
 5748TIP3    H117208   6.292   3.151   5.480
 5748TIP3    H217209   6.234   3.280   5.425
 5749TIP3   OH217210   5.162   3.867   1.171
 5749TIP3    H117211   5.093   3.869   1.237
 5749TIP3    H217212   5.121   3.828   1.094
 5750TIP3   OH217213   4.954   0.888   0.216
 5750TIP3    H117214   5.038   0.854   0.245
 5750TIP3    H217215   4.950   0.866   0.123
 5751TIP3   OH217216   0.159   1.904   5.162
 5751TIP3    H117217   0.100   1.908   5.237
 5751TIP3    H217218   0.105   1.933   5.088
 5752TIP3   OH217219   0.015   0.211   1.175
 5752TIP3    H117220   0.099   0.165   1.175
 5752TIP3    H217221  -0.004   0.225   1.268
 5753TIP3   OH217222   0.874   6.210   2.056
 5753TIP3    H117223   0.782   6.213   2.030
 5753TIP3    H217224   0.874   6.232   2.149
 5754TIP3   OH217225   5.263   1.837   1.218
 5754TIP3    H117226   5.286   1.871   1.304
 5754TIP3    H217227   5.178   1.795   1.230
 5755TIP3   OH217228   0.975   2.407   2.291
 5755TIP3    H117229   0.966   2.365   2.377
 5755TIP3    H217230   1.052   2.367   2.252
 5756TIP3   OH217231   2.526   2.974   0.144
 5756TIP3    H117232   2.502   3.007   0.057
 5756TIP3    H217233   2.621   2.964   0.140
 5757TIP3   OH217234   3.211   0.354   0.803
 5757TIP3    H117235   3.293   0.318   0.837
 5757TIP3    H217236   3.180   0.413   0.873
 5758TIP3   OH217237   5.261   0.192   2.713
 5758TIP3    H117238   5.265   0.118   2.652
 5758TIP3    H217239   5.251   0.269   2.657
 5759TIP3   OH217240   6.717   1.343   3.890
 5759TIP3    H117241   6.713   1.307   3.978
 5759TIP3    H217242   6.650   1.296   3.841
 5760TIP3   OH217243   6.112   4.814   0.280
 5760TIP3    H117244   6.110   4.809   0.375
 5760TIP3    H217245   6.090   4.905   0.260
 5761TIP3   OH217246   0.836   2.878   3.436
 5761TIP3    H117247   0.900   2.837   3.495
 5761TIP3    H217248   0.758   2.823   3.445
 5762TIP3   OH217249   2.591   4.462   5.078
 5762TIP3    H117250   2.547   4.440   4.996
 5762TIP3    H217251   2.684   4.448   5.061
 5763TIP3   OH217252   4.180   5.642   3.578
 5763TIP3    H117253   4.170   5.589   3.658
 5763TIP3    H217254   4.246   5.595   3.527
 5764TIP3   OH217255   6.389   4.610   2.821
 5764TIP3    H117256   6.305   4.640   2.785
 5764TIP3    H217257   6.406   4.670   2.894
 5765TIP3   OH217258   6.370   0.329   4.631
 5765TIP3    H117259   6.309   0.275   4.582
 5765TIP3    H217260   6.456   0.290   4.614
 5766TIP3   OH217261   2.353   2.351   4.422
 5766TIP3    H117262   2.395   2.392   4.497
 5766TIP3    H217263   2.374   2.409   4.348
 5767TIP3   OH217264   4.362   1.545   4.031
 5767TIP3    H117265   4.370   1.514   4.121
 5767TIP3    H217266   4.436   1.506   3.986
 5768TIP3   OH217267   5.859   6.305   5.299
 5768TIP3    H117268   5.841   6.372   5.233
 5768TIP3    H217269   5.929   6.343   5.353
 5769TIP3   OH217270   0.833   3.628   5.844
 5769TIP3    H117271   0.869   3.573   5.775
 5769TIP3    H217272   0.774   3.688   5.799
 5770TIP3   OH217273   5.400   2.402   4.266
 5770TIP3    H117274   5.328   2.359   4.220
 5770TIP3    H217275   5.477   2.385   4.212
 5771TIP3   OH217276   5.852   1.594   4.451
 5771TIP3    H117277   5.908   1.524   4.419
 5771TIP3    H217278   5.908   1.672   4.450
 5772TIP3   OH217279   3.878   2.913   2.872
 5772TIP3    H117280   3.861   3.001   2.904
 5772TIP3    H217281   3.802   2.862   2.899
 5773TIP3   OH217282   5.310   6.167   0.290
 5773TIP3    H117283   5.356   6.088   0.264
 5773TIP3    H217284   5.362   6.203   0.363
 5774TIP3   OH217285   3.835   6.834   1.961
 5774TIP3    H117286   3.923   6.802   1.940
 5774TIP3    H217287   3.784   6.754   1.978
 5775TIP3   OH217288   2.903   1.091   0.880
 5775TIP3    H117289   2.850   1.081   0.959
 5775TIP3    H217290   2.981   1.037   0.896
 5776TIP3   OH217291   2.907   0.403   0.178
 5776TIP3    H117292   2.990   0.435   0.215
 5776TIP3    H217293   2.919   0.412   0.083
 5777TIP3   OH217294   7.146   1.611   3.981
 5777TIP3    H117295   7.075   1.548   3.995
 5777TIP3    H217296   7.118   1.690   4.027
 5778TIP3   OH217297   0.344   5.548   4.826
 5778TIP3    H117298   0.254   5.569   4.852
 5778TIP3    H217299   0.349   5.452   4.833
 5779TIP3   OH217300   6.812   0.296   1.264
 5779TIP3    H117301   6.851   0.268   1.181
 5779TIP3    H217302   6.800   0.391   1.254
 5780TIP3   OH217303   2.359   6.495   2.201
 5780TIP3    H117304   2.365   6.399   2.195
 5780TIP3    H217305   2.337   6.524   2.113
 5781TIP3   OH217306   3.602   0.182   3.224
 5781TIP3    H117307   3.594   0.266   3.270
 5781TIP3    H217308   3.523   0.134   3.248
 5782TIP3   OH217309   3.154   5.902   0.006
 5782TIP3    H117310   3.128   5.855  -0.074
 5782TIP3    H217311   3.166   5.833   0.071
 5783TIP3   OH217312   0.883   0.652   0.034
 5783TIP3    H117313   0.939   0.667  -0.042
 5783TIP3    H217314   0.909   0.719   0.097
 5784TIP3   OH217315   3.170   5.483   5.423
 5784TIP3    H117316   3.201   5.465   5.512
 5784TIP3    H217317   3.122   5.404   5.398
 5785TIP3   OH217318   5.078   2.324   0.783
 5785TIP3    H117319   5.130   2.260   0.736
 5785TIP3    H217320   5.136   2.400   0.793
 5786TIP3   OH217321   1.345   5.042   4.528
 5786TIP3    H117322   1.271   5.030   4.469
 5786TIP3    H217323   1.310   5.020   4.615
 5787TIP3   OH217324   5.756   2.548   2.876
 5787TIP3    H117325   5.772   2.633   2.836
 5787TIP3    H217326   5.664   2.530   2.859
 5788TIP3   OH217327   0.987   1.754   2.826
 5788TIP3    H117328   0.960   1.835   2.782
 5788TIP3    H217329   1.003   1.781   2.917
 5789TIP3   OH217330   5.564   1.315   1.002
 5789TIP3    H117331   5.635   1.317   1.066
 5789TIP3    H217332   5.487   1.290   1.054
 5790TIP3   OH217333   3.391   6.037   3.023
 5790TIP3    H117334   3.313   6.049   2.967
 5790TIP3    H217335   3.359   6.053   3.112
 5791TIP3   OH217336   7.040   4.732   5.006
 5791TIP3    H117337   7.126   4.746   5.044
 5791TIP3    H217338   6.985   4.801   5.044
 5792TIP3   OH217339   2.783   4.102   1.627
 5792TIP3    H117340   2.832   4.077   1.705
 5792TIP3    H217341   2.721   4.168   1.658
 5793TIP3   OH217342   6.890   2.784   0.385
 5793TIP3    H117343   6.959   2.823   0.438
 5793TIP3    H217344   6.930   2.768   0.299
 5794TIP3   OH217345   1.857   4.040   4.612
 5794TIP3    H117346   1.779   3.985   4.618
 5794TIP3    H217347   1.914   4.008   4.681
 5795TIP3   OH217348   0.341   4.030   3.169
 5795TIP3    H117349   0.284   4.095   3.130
 5795TIP3    H217350   0.400   4.004   3.099
 5796TIP3   OH217351   5.102   4.008   2.728
 5796TIP3    H117352   5.118   3.950   2.802
 5796TIP3    H217353   5.046   3.958   2.669
 5797TIP3   OH217354   1.123   4.816   3.250
 5797TIP3    H117355   1.178   4.806   3.327
 5797TIP3    H217356   1.112   4.727   3.216
 5798TIP3   OH217357   6.845   4.554   2.867
 5798TIP3    H117358   6.835   4.591   2.955
 5798TIP3    H217359   6.889   4.470   2.882
 5799TIP3   OH217360   4.757   0.032   0.113
 5799TIP3    H117361   4.787   0.123   0.115
 5799TIP3    H217362   4.796  -0.008   0.190
 5800TIP3   OH217363   2.303   3.606   4.076
 5800TIP3    H117364   2.388   3.606   4.031
 5800TIP3    H217365   2.314   3.669   4.148
 5801TIP3   OH217366   4.889   3.628   1.139
 5801TIP3    H117367   4.912   3.550   1.088
 5801TIP3    H217368   4.818   3.600   1.196
 5802TIP3   OH217369   2.826   1.356   0.923
 5802TIP3    H117370   2.840   1.268   0.888
 5802TIP3    H217371   2.835   1.414   0.847
 5803TIP3   OH217372   0.811   1.572   0.232
 5803TIP3    H117373   0.767   1.492   0.263
 5803TIP3    H217374   0.779   1.584   0.143
 5804TIP3   OH217375   6.020   1.393   4.318
 5804TIP3    H117376   5.997   1.397   4.226
 5804TIP3    H217377   6.098   1.338   4.321
 5805TIP3   OH217378   6.795   4.484   5.031
 5805TIP3    H117379   6.857   4.415   5.055
 5805TIP3    H217380   6.834   4.564   5.065
 5806TIP3   OH217381   2.418   1.058   4.054
 5806TIP3    H117382   2.456   1.005   4.124
 5806TIP3    H217383   2.455   1.022   3.973
 5807TIP3   OH217384   5.390   5.049   5.004
 5807TIP3    H117385   5.371   4.966   4.961
 5807TIP3    H217386   5.374   5.115   4.937
 5808TIP3   OH217387   0.851   2.115   2.313
 5808TIP3    H117388   0.894   2.053   2.372
 5808TIP3    H217389   0.923   2.163   2.272
 5809TIP3   OH217390   2.876   4.678   5.191
 5809TIP3    H117391   2.792   4.692   5.236
 5809TIP3    H217392   2.856   4.610   5.125
 5810TIP3   OH217393   3.151   3.227   1.551
 5810TIP3    H117394   3.236   3.253   1.586
 5810TIP3    H217395   3.142   3.277   1.470
 5811TIP3   OH217396   6.825   6.762   4.178
 5811TIP3    H117397   6.868   6.678   4.162
 5811TIP3    H217398   6.839   6.779   4.271
 5812TIP3   OH217399   0.954   1.911   4.392
 5812TIP3    H117400   0.928   1.959   4.313
 5812TIP3    H217401   0.891   1.840   4.399
 5813TIP3   OH217402   1.390   3.110   1.593
 5813TIP3    H117403   1.310   3.077   1.551
 5813TIP3    H217404   1.360   3.182   1.649
 5814TIP3   OH217405   6.786   1.836   5.085
 5814TIP3    H117406   6.744   1.922   5.080
 5814TIP3    H217407   6.774   1.799   4.998
 5815TIP3   OH217408   5.936   3.597   2.493
 5815TIP3    H117409   5.969   3.557   2.574
 5815TIP3    H217410   6.004   3.579   2.428
 5816TIP3   OH217411   4.435   2.451   1.800
 5816TIP3    H117412   4.428   2.416   1.889
 5816TIP3    H217413   4.464   2.377   1.747
 5817TIP3   OH217414   1.377   2.543   5.335
 5817TIP3    H117415   1.376   2.581   5.423
 5817TIP3    H217416   1.331   2.460   5.344
 5818TIP3   OH217417   5.008   0.281   5.111
 5818TIP3    H117418   5.100   0.300   5.092
 5818TIP3    H217419   4.961   0.356   5.074
 5819TIP3   OH217420   3.730   0.679   5.030
 5819TIP3    H117421   3.820   0.676   4.998
 5819TIP3    H217422   3.723   0.763   5.075
 5820TIP3   OH217423   3.380   2.425   1.226
 5820TIP3    H117424   3.294   2.415   1.266
 5820TIP3    H217425   3.425   2.343   1.245
 5821TIP3   OH217426   0.019   5.941   3.348
 5821TIP3    H117427   0.034   5.970   3.258
 5821TIP3    H217428   0.063   6.007   3.402
 5822TIP3   OH217429   1.600   6.754   0.919
 5822TIP3    H117430   1.557   6.833   0.886
 5822TIP3    H217431   1.553   6.682   0.878
 5823TIP3   OH217432   2.295   3.472   0.913
 5823TIP3    H117433   2.363   3.521   0.866
 5823TIP3    H217434   2.304   3.500   1.004
 5824TIP3   OH217435   0.392   5.693   1.013
 5824TIP3    H117436   0.396   5.606   1.053
 5824TIP3    H217437   0.393   5.676   0.919
 5825TIP3   OH217438   0.948   5.783   2.058
 5825TIP3    H117439   1.011   5.817   2.121
 5825TIP3    H217440   0.886   5.854   2.044
 5826TIP3   OH217441   4.117   6.632   4.175
 5826TIP3    H117442   4.111   6.693   4.102
 5826TIP3    H217443   4.200   6.652   4.217
 5827TIP3   OH217444   5.265   6.645   1.039
 5827TIP3    H117445   5.295   6.556   1.054
 5827TIP3    H217446   5.344   6.699   1.050
 5828TIP3   OH217447   1.195   5.689   2.736
 5828TIP3    H117448   1.289   5.686   2.719
 5828TIP3    H217449   1.184   5.642   2.818
 5829TIP3   OH217450   5.543   6.351   3.471
 5829TIP3    H117451   5.593   6.433   3.468
 5829TIP3    H217452   5.460   6.375   3.513
 5830TIP3   OH217453   1.184   6.383   1.088
 5830TIP3    H117454   1.214   6.400   1.177
 5830TIP3    H217455   1.248   6.322   1.052
 5831TIP3   OH217456   4.448   5.796   0.159
 5831TIP3    H117457   4.478   5.787   0.249
 5831TIP3    H217458   4.509   5.858   0.120
 5832TIP3   OH217459   0.546   2.622   5.679
 5832TIP3    H117460   0.457   2.602   5.706
 5832TIP3    H217461   0.552   2.718   5.686
 5833TIP3   OH217462   2.471   2.764   2.658
 5833TIP3    H117463   2.541   2.807   2.708
 5833TIP3    H217464   2.507   2.755   2.570
 5834TIP3   OH217465   0.143   1.898   1.926
 5834TIP3    H117466   0.220   1.910   1.871
 5834TIP3    H217467   0.169   1.833   1.991
 5835TIP3   OH217468   6.858   5.617   2.147
 5835TIP3    H117469   6.898   5.538   2.182
 5835TIP3    H217470   6.931   5.677   2.132
 5836TIP3   OH217471   1.585   0.509   5.149
 5836TIP3    H117472   1.643   0.483   5.078
 5836TIP3    H217473   1.598   0.442   5.217
 5837TIP3   OH217474   0.444   2.941   1.334
 5837TIP3    H117475   0.431   2.914   1.243
 5837TIP3    H217476   0.536   2.968   1.338
 5838TIP3   OH217477   4.050   6.675   3.072
 5838TIP3    H117478   4.094   6.696   2.990
 5838TIP3    H217479   4.065   6.752   3.127
 5839TIP3   OH217480   5.611   2.733   2.067
 5839TIP3    H117481   5.695   2.748   2.109
 5839TIP3    H217482   5.582   2.820   2.038
 5840TIP3   OH217483   6.479   1.706   0.971
 5840TIP3    H117484   6.562   1.684   0.928
 5840TIP3    H217485   6.428   1.625   0.969
 5841TIP3   OH217486   1.219   1.332   5.441
 5841TIP3    H117487   1.186   1.416   5.475
 5841TIP3    H217488   1.302   1.319   5.486
 5842TIP3   OH217489   1.318   4.992   4.800
 5842TIP3    H117490   1.228   5.026   4.807
 5842TIP3    H217491   1.332   4.946   4.883
 5843TIP3   OH217492   0.963   5.831   0.493
 5843TIP3    H117493   0.983   5.906   0.438
 5843TIP3    H217494   0.954   5.868   0.581
 5844TIP3   OH217495   1.682   4.182   0.742
 5844TIP3    H117496   1.750   4.180   0.674
 5844TIP3    H217497   1.631   4.102   0.727
 5845TIP3   OH217498   6.947   0.537   2.745
 5845TIP3    H117499   6.957   0.489   2.663
 5845TIP3    H217500   6.870   0.592   2.732
 5846TIP3   OH217501   5.428   4.577   3.477
 5846TIP3    H117502   5.510   4.614   3.444
 5846TIP3    H217503   5.362   4.642   3.454
 5847TIP3   OH217504   4.707   0.439   5.313
 5847TIP3    H117505   4.800   0.430   5.292
 5847TIP3    H217506   4.702   0.514   5.372
 5848TIP3   OH217507   6.391   3.378   2.634
 5848TIP3    H117508   6.367   3.446   2.697
 5848TIP3    H217509   6.435   3.425   2.564
 5849TIP3   OH217510   1.942   1.713   3.877
 5849TIP3    H117511   1.976   1.799   3.850
 5849TIP3    H217512   2.020   1.659   3.886
 5850TIP3   OH217513   0.860   5.451   1.029
 5850TIP3    H117514   0.768   5.470   1.046
 5850TIP3    H217515   0.907   5.491   1.102
 5851TIP3   OH217516   3.305   5.079   4.928
 5851TIP3    H117517   3.296   5.110   5.018
 5851TIP3    H217518   3.385   5.121   4.896
 5852TIP3   OH217519   2.568   2.434   2.382
 5852TIP3    H117520   2.595   2.414   2.471
 5852TIP3    H217521   2.473   2.431   2.384
 5853TIP3   OH217522   5.732   5.074   0.995
 5853TIP3    H117523   5.765   5.072   0.905
 5853TIP3    H217524   5.692   5.160   1.003
 5854TIP3   OH217525   2.625   3.033   1.309
 5854TIP3    H117526   2.638   3.126   1.328
 5854TIP3    H217527   2.679   3.016   1.232
 5855TIP3   OH217528   2.462   2.639   4.938
 5855TIP3    H117529   2.375   2.669   4.912
 5855TIP3    H217530   2.520   2.712   4.917
 5856TIP3   OH217531   4.811   0.506   1.851
 5856TIP3    H117532   4.788   0.597   1.868
 5856TIP3    H217533   4.753   0.479   1.781
 5857TIP3   OH217534   0.414   1.652   1.516
 5857TIP3    H117535   0.389   1.560   1.507
 5857TIP3    H217536   0.465   1.671   1.437
 5858TIP3   OH217537   2.042   2.103   3.310
 5858TIP3    H117538   1.958   2.141   3.336
 5858TIP3    H217539   2.100   2.179   3.301
 5859TIP3   OH217540   3.940   5.467   2.912
 5859TIP3    H117541   3.943   5.526   2.837
 5859TIP3    H217542   4.031   5.460   2.940
 5860TIP3   OH217543   3.888   3.161   5.869
 5860TIP3    H117544   3.847   3.122   5.792
 5860TIP3    H217545   3.970   3.112   5.880
 5861TIP3   OH217546   2.171   3.393   4.205
 5861TIP3    H117547   2.212   3.468   4.163
 5861TIP3    H217548   2.194   3.318   4.150
 5862TIP3   OH217549   6.125   0.445   5.302
 5862TIP3    H117550   6.140   0.399   5.384
 5862TIP3    H217551   6.130   0.377   5.235
 5863TIP3   OH217552   1.893   0.506   4.161
 5863TIP3    H117553   1.955   0.458   4.217
 5863TIP3    H217554   1.938   0.588   4.140
 5864TIP3   OH217555   1.222   6.239   0.365
 5864TIP3    H117556   1.268   6.296   0.304
 5864TIP3    H217557   1.276   6.239   0.444
 5865TIP3   OH217558   0.508   3.368   4.155
 5865TIP3    H117559   0.537   3.281   4.130
 5865TIP3    H217560   0.415   3.371   4.131
 5866TIP3   OH217561   3.754   6.723   3.288
 5866TIP3    H117562   3.825   6.683   3.238
 5866TIP3    H217563   3.737   6.806   3.243
 5867TIP3   OH217564   0.495   4.108   3.395
 5867TIP3    H117565   0.429   4.091   3.328
 5867TIP3    H217566   0.449   4.096   3.478
 5868TIP3   OH217567   6.931   6.127   3.512
 5868TIP3    H117568   6.908   6.219   3.500
 5868TIP3    H217569   6.927   6.113   3.607
 5869TIP3   OH217570   2.474   4.097   5.136
 5869TIP3    H117571   2.505   4.172   5.187
 5869TIP3    H217572   2.381   4.091   5.156
 5870TIP3   OH217573   1.339   1.167   0.385
 5870TIP3    H117574   1.412   1.121   0.345
 5870TIP3    H217575   1.266   1.154   0.324
 5871TIP3   OH217576   5.488   5.926   4.509
 5871TIP3    H117577   5.552   5.994   4.531
 5871TIP3    H217578   5.483   5.928   4.413
 5872TIP3   OH217579   5.719   2.385   5.079
 5872TIP3    H117580   5.780   2.436   5.025
 5872TIP3    H217581   5.768   2.308   5.105
 5873TIP3   OH217582   1.534   5.772   0.608
 5873TIP3    H117583   1.526   5.699   0.547
 5873TIP3    H217584   1.626   5.772   0.634
 5874TIP3   OH217585   1.018   4.648   0.941
 5874TIP3    H117586   1.103   4.606   0.927
 5874TIP3    H217587   0.958   4.600   0.884
 5875TIP3   OH217588   2.096   2.690   5.852
 5875TIP3    H117589   2.040   2.763   5.878
 5875TIP3    H217590   2.046   2.646   5.783
 5876TIP3   OH217591   1.768   1.438   4.900
 5876TIP3    H117592   1.721   1.389   4.833
 5876TIP3    H217593   1.859   1.409   4.891
 5877TIP3   OH217594   4.897   2.406   4.698
 5877TIP3    H117595   4.958   2.337   4.671
 5877TIP3    H217596   4.811   2.363   4.698
 5878TIP3   OH217597   2.681   1.127   2.861
 5878TIP3    H117598   2.712   1.086   2.941
 5878TIP3    H217599   2.669   1.220   2.884
 5879TIP3   OH217600   1.913   6.074   0.192
 5879TIP3    H117601   1.982   6.045   0.133
 5879TIP3    H217602   1.852   6.122   0.137
 5880TIP3   OH217603   4.462   2.942   2.464
 5880TIP3    H117604   4.542   2.960   2.414
 5880TIP3    H217605   4.392   2.941   2.399
 5881TIP3   OH217606   4.583   3.901   0.310
 5881TIP3    H117607   4.555   3.838   0.376
 5881TIP3    H217608   4.581   3.986   0.354
 5882TIP3   OH217609   6.081   3.955   0.433
 5882TIP3    H117610   6.120   4.041   0.447
 5882TIP3    H217611   6.148   3.905   0.386
 5883TIP3   OH217612   5.208   3.286   5.697
 5883TIP3    H117613   5.113   3.279   5.684
 5883TIP3    H217614   5.234   3.361   5.643
 5884TIP3   OH217615   3.354   2.525   3.547
 5884TIP3    H117616   3.409   2.473   3.489
 5884TIP3    H217617   3.289   2.565   3.489
 5885TIP3   OH217618   4.500   3.093   4.920
 5885TIP3    H117619   4.409   3.064   4.930
 5885TIP3    H217620   4.494   3.187   4.904
 5886TIP3   OH217621   0.734   0.196   1.369
 5886TIP3    H117622   0.809   0.155   1.412
 5886TIP3    H217623   0.680   0.228   1.442
 5887TIP3   OH217624   3.930   1.090   4.385
 5887TIP3    H117625   3.909   1.024   4.318
 5887TIP3    H217626   3.903   1.050   4.467
 5888TIP3   OH217627   2.582   1.718   0.691
 5888TIP3    H117628   2.621   1.800   0.721
 5888TIP3    H217629   2.522   1.744   0.621
 5889TIP3   OH217630   1.515   6.381   2.587
 5889TIP3    H117631   1.557   6.425   2.513
 5889TIP3    H217632   1.450   6.442   2.619
 5890TIP3   OH217633   2.633   6.057   0.917
 5890TIP3    H117634   2.576   6.032   0.990
 5890TIP3    H217635   2.718   6.073   0.958
 5891TIP3   OH217636   2.055   0.242   4.668
 5891TIP3    H117637   2.078   0.335   4.665
 5891TIP3    H217638   2.136   0.199   4.697
 5892TIP3   OH217639   2.984   5.442   0.988
 5892TIP3    H117640   3.054   5.504   1.008
 5892TIP3    H217641   2.995   5.423   0.895
 5893TIP3   OH217642   5.650   0.129   4.392
 5893TIP3    H117643   5.583   0.147   4.458
 5893TIP3    H217644   5.611   0.160   4.310
 5894TIP3   OH217645   6.899   6.244   0.456
 5894TIP3    H117646   6.968   6.177   0.460
 5894TIP3    H217647   6.946   6.327   0.459
 5895TIP3   OH217648   6.329   5.570   3.546
 5895TIP3    H117649   6.330   5.550   3.453
 5895TIP3    H217650   6.401   5.518   3.583
 5896TIP3   OH217651   0.691   0.215   4.353
 5896TIP3    H117652   0.740   0.294   4.327
 5896TIP3    H217653   0.599   0.244   4.355
 5897TIP3   OH217654   0.121   1.514   2.526
 5897TIP3    H117655   0.033   1.544   2.549
 5897TIP3    H217656   0.111   1.475   2.439
 5898TIP3   OH217657   5.205   6.228   5.753
 5898TIP3    H117658   5.140   6.169   5.716
 5898TIP3    H217659   5.189   6.312   5.711
 5899TIP3   OH217660   2.839   6.686   0.709
 5899TIP3    H117661   2.871   6.610   0.661
 5899TIP3    H217662   2.880   6.679   0.796
 5900TIP3   OH217663   4.290   4.268   5.652
 5900TIP3    H117664   4.279   4.192   5.595
 5900TIP3    H217665   4.208   4.273   5.702
 5901TIP3   OH217666   5.359   4.982   0.255
 5901TIP3    H117667   5.303   4.914   0.290
 5901TIP3    H217668   5.330   5.062   0.299
 5902TIP3   OH217669   2.791   4.707   4.213
 5902TIP3    H117670   2.818   4.797   4.200
 5902TIP3    H217671   2.838   4.657   4.146
 5903TIP3   OH217672   3.668   2.383   4.537
 5903TIP3    H117673   3.628   2.391   4.451
 5903TIP3    H217674   3.746   2.439   4.532
 5904TIP3   OH217675   2.407   0.310   0.937
 5904TIP3    H117676   2.362   0.240   0.985
 5904TIP3    H217677   2.429   0.375   1.003
 5905TIP3   OH217678   6.206   5.744   1.564
 5905TIP3    H117679   6.299   5.761   1.574
 5905TIP3    H217680   6.202   5.668   1.506
 5906TIP3   OH217681   3.535   1.335   4.566
 5906TIP3    H117682   3.592   1.271   4.609
 5906TIP3    H217683   3.593   1.409   4.547
 5907TIP3   OH217684   5.010   3.111   3.340
 5907TIP3    H117685   5.066   3.187   3.324
 5907TIP3    H217686   5.068   3.036   3.329
 5908TIP3   OH217687   5.045   3.997   5.763
 5908TIP3    H117688   5.036   4.093   5.763
 5908TIP3    H217689   5.046   3.973   5.855
 5909TIP3   OH217690   1.463   5.431   3.252
 5909TIP3    H117691   1.548   5.404   3.286
 5909TIP3    H217692   1.428   5.488   3.320
 5910TIP3   OH217693   5.349   5.384   3.724
 5910TIP3    H117694   5.278   5.341   3.772
 5910TIP3    H217695   5.419   5.319   3.723
 5911TIP3   OH217696   6.356   3.641   5.030
 5911TIP3    H117697   6.394   3.573   4.974
 5911TIP3    H217698   6.298   3.690   4.972
 5912TIP3   OH217699   6.529   5.158   1.364
 5912TIP3    H117700   6.508   5.125   1.277
 5912TIP3    H217701   6.444   5.162   1.409
 5913TIP3   OH217702   1.240   4.555   5.506
 5913TIP3    H117703   1.321   4.506   5.491
 5913TIP3    H217704   1.189   4.543   5.427
 5914TIP3   OH217705   2.212   6.622   2.751
 5914TIP3    H117706   2.172   6.535   2.746
 5914TIP3    H217707   2.153   6.673   2.807
 5915TIP3   OH217708   1.646   1.870   0.633
 5915TIP3    H117709   1.675   1.857   0.543
 5915TIP3    H217710   1.566   1.817   0.640
 5916TIP3   OH217711   5.025   5.179   0.568
 5916TIP3    H117712   4.968   5.245   0.530
 5916TIP3    H217713   5.042   5.210   0.657
 5917TIP3   OH217714   6.328   1.670   1.353
 5917TIP3    H117715   6.344   1.752   1.308
 5917TIP3    H217716   6.414   1.646   1.388
 5918TIP3   OH217717   4.941   2.722   4.880
 5918TIP3    H117718   4.913   2.802   4.836
 5918TIP3    H217719   4.927   2.740   4.973
 5919TIP3   OH217720   3.092   6.080   2.306
 5919TIP3    H117721   3.007   6.036   2.312
 5919TIP3    H217722   3.151   6.013   2.271
 5920TIP3   OH217723   4.429   0.160   2.054
 5920TIP3    H117724   4.386   0.159   2.139
 5920TIP3    H217725   4.510   0.111   2.066
 5921TIP3   OH217726   2.124   5.570   5.518
 5921TIP3    H117727   2.197   5.583   5.457
 5921TIP3    H217728   2.068   5.505   5.475
 5922TIP3   OH217729   3.187   1.199   2.917
 5922TIP3    H117730   3.098   1.225   2.892
 5922TIP3    H217731   3.195   1.226   3.008
 5923TIP3   OH217732   1.787   4.857   5.427
 5923TIP3    H117733   1.743   4.923   5.372
 5923TIP3    H217734   1.877   4.889   5.435
 5924TIP3   OH217735   0.517   1.361   3.174
 5924TIP3    H117736   0.590   1.318   3.129
 5924TIP3    H217737   0.542   1.453   3.179
 5925TIP3   OH217738   6.207   0.214   3.943
 5925TIP3    H117739   6.196   0.181   4.032
 5925TIP3    H217740   6.152   0.156   3.890
 5926TIP3   OH217741   1.196   2.195   3.249
 5926TIP3    H117742   1.238   2.141   3.316
 5926TIP3    H217743   1.199   2.284   3.284
 5927TIP3   OH217744   5.401   2.512   1.622
 5927TIP3    H117745   5.476   2.454   1.607
 5927TIP3    H217746   5.347   2.466   1.686
 5928TIP3   OH217747   0.806   4.314   2.302
 5928TIP3    H117748   0.832   4.314   2.210
 5928TIP3    H217749   0.885   4.285   2.349
 5929TIP3   OH217750   4.374   2.477   1.121
 5929TIP3    H117751   4.448   2.518   1.166
 5929TIP3    H217752   4.302   2.481   1.185
 5930TIP3   OH217753   1.782   1.148   5.029
 5930TIP3    H117754   1.769   1.227   5.081
 5930TIP3    H217755   1.701   1.098   5.040
 5931TIP3   OH217756   7.189   5.308   2.846
 5931TIP3    H117757   7.255   5.309   2.777
 5931TIP3    H217758   7.120   5.366   2.813
 5932TIP3   OH217759   0.991   3.279   1.049
 5932TIP3    H117760   1.009   3.241   1.135
 5932TIP3    H217761   0.965   3.204   0.995
 5933TIP3   OH217762   4.964   3.245   2.088
 5933TIP3    H117763   4.971   3.252   1.993
 5933TIP3    H217764   5.053   3.226   2.117
 5934TIP3   OH217765   5.951   6.481   1.806
 5934TIP3    H117766   5.880   6.534   1.770
 5934TIP3    H217767   5.957   6.406   1.747
 5935TIP3   OH217768   5.192   1.506   5.486
 5935TIP3    H117769   5.103   1.485   5.514
 5935TIP3    H217770   5.241   1.425   5.496
 5936TIP3   OH217771   1.711   2.535   1.940
 5936TIP3    H117772   1.759   2.473   1.885
 5936TIP3    H217773   1.719   2.499   2.029
 5937TIP3   OH217774   6.854   2.293   2.114
 5937TIP3    H117775   6.789   2.235   2.153
 5937TIP3    H217776   6.872   2.256   2.027
 5938TIP3   OH217777   6.775   2.232   4.039
 5938TIP3    H117778   6.687   2.269   4.038
 5938TIP3    H217779   6.820   2.274   3.966
 5939TIP3   OH217780   0.796   3.657   0.657
 5939TIP3    H117781   0.799   3.566   0.685
 5939TIP3    H217782   0.885   3.674   0.624
 5940TIP3   OH217783   3.646   1.047   2.372
 5940TIP3    H117784   3.660   1.106   2.297
 5940TIP3    H217785   3.718   1.068   2.432
 5941TIP3   OH217786   6.270   6.718   0.996
 5941TIP3    H117787   6.240   6.807   0.980
 5941TIP3    H217788   6.328   6.725   1.072
 5942TIP3   OH217789   1.914   2.924   3.188
 5942TIP3    H117790   1.858   3.001   3.181
 5942TIP3    H217791   1.997   2.958   3.223
 5943TIP3   OH217792   5.144   3.029   5.889
 5943TIP3    H117793   5.182   3.028   5.801
 5943TIP3    H217794   5.052   3.055   5.875
 5944TIP3   OH217795   4.094   1.446   5.872
 5944TIP3    H117796   4.029   1.468   5.939
 5944TIP3    H217797   4.113   1.353   5.887
 5945TIP3   OH217798   3.126   4.591   3.491
 5945TIP3    H117799   3.087   4.523   3.436
 5945TIP3    H217800   3.104   4.673   3.448
 5946TIP3   OH217801   2.827   5.580   2.399
 5946TIP3    H117802   2.795   5.549   2.314
 5946TIP3    H217803   2.818   5.504   2.457
 5947TIP3   OH217804   3.044   0.209   2.328
 5947TIP3    H117805   3.019   0.268   2.399
 5947TIP3    H217806   3.133   0.182   2.349
 5948TIP3   OH217807   7.121   3.584   2.572
 5948TIP3    H117808   7.121   3.563   2.665
 5948TIP3    H217809   7.155   3.505   2.529
 5949TIP3   OH217810   5.577   0.726   4.405
 5949TIP3    H117811   5.519   0.749   4.333
 5949TIP3    H217812   5.618   0.809   4.431
 5950TIP3   OH217813   0.390   3.718   5.851
 5950TIP3    H117814   0.378   3.626   5.829
 5950TIP3    H217815   0.338   3.731   5.930
 5951TIP3   OH217816   1.035   4.161   2.385
 5951TIP3    H117817   1.075   4.157   2.472
 5951TIP3    H217818   1.103   4.199   2.330
 5952TIP3   OH217819   2.089   0.281   1.240
 5952TIP3    H117820   2.038   0.278   1.159
 5952TIP3    H217821   2.062   0.201   1.287
 5953TIP3   OH217822   2.723   3.517   2.496
 5953TIP3    H117823   2.778   3.513   2.574
 5953TIP3    H217824   2.638   3.484   2.525
 5954TIP3   OH217825   2.651   2.256   4.628
 5954TIP3    H117826   2.723   2.249   4.691
 5954TIP3    H217827   2.686   2.220   4.547
 5955TIP3   OH217828   5.928   5.253   2.031
 5955TIP3    H117829   5.873   5.321   2.069
 5955TIP3    H217830   5.880   5.223   1.954
 5956TIP3   OH217831   1.947   5.761   0.157
 5956TIP3    H117832   1.968   5.704   0.083
 5956TIP3    H217833   2.004   5.837   0.144
 5957TIP3   OH217834   0.888   5.511   1.990
 5957TIP3    H117835   0.889   5.605   2.006
 5957TIP3    H217836   0.939   5.500   1.910
 5958TIP3   OH217837   3.749   4.123   1.302
 5958TIP3    H117838   3.757   4.069   1.223
 5958TIP3    H217839   3.837   4.161   1.314
 5959TIP3   OH217840   1.450   0.977   2.965
 5959TIP3    H117841   1.374   0.967   2.908
 5959TIP3    H217842   1.502   1.046   2.923
 5960TIP3   OH217843   2.607   4.363   2.343
 5960TIP3    H117844   2.539   4.419   2.306
 5960TIP3    H217845   2.562   4.311   2.410
 5961TIP3   OH217846   4.588   1.334   0.653
 5961TIP3    H117847   4.635   1.265   0.701
 5961TIP3    H217848   4.591   1.305   0.562
 5962TIP3   OH217849   6.158   0.032   5.343
 5962TIP3    H117850   6.163  -0.004   5.431
 5962TIP3    H217851   6.185  -0.039   5.285
 5963TIP3   OH217852   2.967   1.514   4.537
 5963TIP3    H117853   2.886   1.529   4.585
 5963TIP3    H217854   3.002   1.433   4.573
 5964TIP3   OH217855   2.239   0.574   3.491
 5964TIP3    H117856   2.163   0.602   3.543
 5964TIP3    H217857   2.236   0.629   3.413
 5965TIP3   OH217858   3.018   4.911   3.093
 5965TIP3    H117859   2.998   4.818   3.108
 5965TIP3    H217860   3.005   4.923   2.999
 5966TIP3   OH217861   2.059   6.254   3.364
 5966TIP3    H117862   1.975   6.208   3.366
 5966TIP3    H217863   2.036   6.347   3.367
 5967TIP3   OH217864   2.543   1.175   3.627
 5967TIP3    H117865   2.595   1.211   3.699
 5967TIP3    H217866   2.507   1.093   3.662
 5968TIP3   OH217867   0.605   2.786   4.704
 5968TIP3    H117868   0.682   2.732   4.722
 5968TIP3    H217869   0.579   2.763   4.615
 5969TIP3   OH217870   0.014   0.004   4.109
 5969TIP3    H117871   0.059  -0.031   4.186
 5969TIP3    H217872   0.085   0.036   4.053
 5970TIP3   OH217873   6.875   4.319   5.337
 5970TIP3    H117874   6.841   4.237   5.300
 5970TIP3    H217875   6.808   4.384   5.318
 5971TIP3   OH217876   2.018   2.618   1.030
 5971TIP3    H117877   2.070   2.681   1.080
 5971TIP3    H217878   1.943   2.668   0.998
 5972TIP3   OH217879   6.905   1.721   1.173
 5972TIP3    H117880   6.932   1.682   1.256
 5972TIP3    H217881   6.968   1.687   1.109
 5973TIP3   OH217882   4.713   5.919   2.122
 5973TIP3    H117883   4.785   5.901   2.061
 5973TIP3    H217884   4.746   5.891   2.207
 5974TIP3   OH217885   6.889   2.688   1.854
 5974TIP3    H117886   6.891   2.628   1.929
 5974TIP3    H217887   6.864   2.633   1.780
 5975TIP3   OH217888   0.800   4.140   0.921
 5975TIP3    H117889   0.820   4.051   0.892
 5975TIP3    H217890   0.847   4.196   0.859
 5976TIP3   OH217891   4.860   5.096   3.892
 5976TIP3    H117892   4.804   5.026   3.926
 5976TIP3    H217893   4.948   5.058   3.890
 5977TIP3   OH217894   1.274   2.927   2.955
 5977TIP3    H117895   1.326   2.853   2.986
 5977TIP3    H217896   1.337   2.998   2.946
 5978TIP3   OH217897   6.412   1.953   2.419
 5978TIP3    H117898   6.336   2.008   2.400
 5978TIP3    H217899   6.454   1.939   2.335
 5979TIP3   OH217900   4.501   5.285   1.153
 5979TIP3    H117901   4.532   5.255   1.068
 5979TIP3    H217902   4.495   5.381   1.145
 5980TIP3   OH217903   5.135   1.928   1.005
 5980TIP3    H117904   5.205   1.919   1.070
 5980TIP3    H217905   5.066   1.977   1.050
 5981TIP3   OH217906   5.219   0.133   0.338
 5981TIP3    H117907   5.207   0.043   0.369
 5981TIP3    H217908   5.161   0.186   0.393
 5982TIP3   OH217909   1.341   2.260   0.025
 5982TIP3    H117910   1.383   2.193   0.078
 5982TIP3    H217911   1.408   2.327   0.014
 5983TIP3   OH217912   7.148   6.729   3.965
 5983TIP3    H117913   7.229   6.702   4.008
 5983TIP3    H217914   7.119   6.806   4.014
 5984TIP3   OH217915   0.824   3.882   3.123
 5984TIP3    H117916   0.918   3.871   3.138
 5984TIP3    H217917   0.802   3.964   3.168
 5985TIP3   OH217918   0.485   6.296   5.646
 5985TIP3    H117919   0.452   6.364   5.705
 5985TIP3    H217920   0.423   6.295   5.573
 5986TIP3   OH217921   1.348   3.972   3.030
 5986TIP3    H117922   1.403   3.915   2.978
 5986TIP3    H217923   1.361   4.059   2.993
 5987TIP3   OH217924   2.328   5.487   1.560
 5987TIP3    H117925   2.347   5.532   1.478
 5987TIP3    H217926   2.364   5.545   1.628
 5988TIP3   OH217927   1.929   0.086   5.814
 5988TIP3    H117928   2.024   0.088   5.825
 5988TIP3    H217929   1.900   0.171   5.847
 5989TIP3   OH217930   1.954   2.468   2.792
 5989TIP3    H117931   1.941   2.519   2.712
 5989TIP3    H217932   1.980   2.532   2.857
 5990TIP3   OH217933   2.620   3.770   4.139
 5990TIP3    H117934   2.610   3.743   4.048
 5990TIP3    H217935   2.544   3.734   4.184
 5991TIP3   OH217936   5.152   1.207   0.183
 5991TIP3    H117937   5.190   1.155   0.113
 5991TIP3    H217938   5.058   1.202   0.170
 5992TIP3   OH217939   3.982   6.572   5.275
 5992TIP3    H117940   3.981   6.476   5.273
 5992TIP3    H217941   4.012   6.594   5.363
 5993TIP3   OH217942   0.034   1.085   1.287
 5993TIP3    H117943   0.123   1.068   1.256
 5993TIP3    H217944   0.004   1.159   1.235
 5994TIP3   OH217945   1.536   2.672   0.356
 5994TIP3    H117946   1.606   2.724   0.316
 5994TIP3    H217947   1.470   2.737   0.380
 5995TIP3   OH217948   4.672   0.711   4.822
 5995TIP3    H117949   4.729   0.748   4.889
 5995TIP3    H217950   4.726   0.705   4.743
 5996TIP3   OH217951   4.649   2.531   4.490
 5996TIP3    H117952   4.653   2.588   4.413
 5996TIP3    H217953   4.715   2.464   4.474
 5997TIP3   OH217954   5.279   5.615   0.976
 5997TIP3    H117955   5.299   5.597   0.885
 5997TIP3    H217956   5.314   5.540   1.024
 5998TIP3   OH217957   4.620   3.734   0.897
 5998TIP3    H117958   4.645   3.660   0.841
 5998TIP3    H217959   4.661   3.810   0.857
 5999TIP3   OH217960   5.600   0.198   1.413
 5999TIP3    H117961   5.648   0.259   1.468
 5999TIP3    H217962   5.656   0.120   1.409
 6000TIP3   OH217963   5.243   0.354   4.671
 6000TIP3    H117964   5.316   0.298   4.646
 6000TIP3    H217965   5.196   0.370   4.589
 6001TIP3   OH217966   2.994   6.727   4.336
 6001TIP3    H117967   2.911   6.681   4.353
 6001TIP3    H217968   3.000   6.792   4.406
 6002TIP3   OH217969   4.869   1.427   4.507
 6002TIP3    H117970   4.892   1.424   4.600
 6002TIP3    H217971   4.774   1.440   4.507
 6003TIP3   OH217972   0.602   2.917   2.548
 6003TIP3    H117973   0.674   2.888   2.492
 6003TIP3    H217974   0.638   2.991   2.596
 6004TIP3   OH217975   2.249   5.617   1.339
 6004TIP3    H117976   2.212   5.557   1.274
 6004TIP3    H217977   2.333   5.643   1.301
 6005TIP3   OH217978   6.956   0.200   4.927
 6005TIP3    H117979   6.988   0.225   4.841
 6005TIP3    H217980   7.013   0.128   4.954
 6006TIP3   OH217981   2.534   2.286   5.323
 6006TIP3    H117982   2.573   2.216   5.375
 6006TIP3    H217983   2.566   2.272   5.234
 6007TIP3   OH217984   2.802   4.339   5.740
 6007TIP3    H117985   2.784   4.256   5.695
 6007TIP3    H217986   2.729   4.396   5.715
 6008TIP3   OH217987   1.081   0.783   0.978
 6008TIP3    H117988   1.099   0.761   0.887
 6008TIP3    H217989   1.090   0.878   0.983
 6009TIP3   OH217990   0.178   2.429   4.633
 6009TIP3    H117991   0.112   2.454   4.568
 6009TIP3    H217992   0.149   2.345   4.666
 6010TIP3   OH217993   0.616   3.479   3.604
 6010TIP3    H117994   0.631   3.470   3.699
 6010TIP3    H217995   0.703   3.469   3.565
 6011TIP3   OH217996   0.964   4.904   1.854
 6011TIP3    H117997   0.939   4.828   1.907
 6011TIP3    H217998   1.059   4.909   1.862
 6012TIP3   OH217999   6.052   3.810   5.594
 6012TIP3    H118000   5.976   3.818   5.537
 6012TIP3    H218001   6.118   3.868   5.555
 6013TIP3   OH218002   1.195   2.148   3.641
 6013TIP3    H118003   1.194   2.110   3.553
 6013TIP3    H218004   1.283   2.184   3.650
 6014TIP3   OH218005   4.546   0.416   4.863
 6014TIP3    H118006   4.596   0.497   4.861
 6014TIP3    H218007   4.530   0.395   4.771
 6015TIP3   OH218008   6.838   5.892   3.376
 6015TIP3    H118009   6.877   5.963   3.427
 6015TIP3    H218010   6.864   5.911   3.285
 6016TIP3   OH218011   2.836   2.426   1.939
 6016TIP3    H118012   2.753   2.444   1.893
 6016TIP3    H218013   2.821   2.458   2.028
 6017TIP3   OH218014   4.525   4.425   4.251
 6017TIP3    H118015   4.494   4.502   4.202
 6017TIP3    H218016   4.607   4.454   4.291
 6018TIP3   OH218017   3.019   5.752   2.384
 6018TIP3    H118018   2.955   5.685   2.409
 6018TIP3    H218019   2.979   5.834   2.413
 6019TIP3   OH218020   0.914   4.155   0.339
 6019TIP3    H118021   0.875   4.092   0.399
 6019TIP3    H218022   0.986   4.194   0.390
 6020TIP3   OH218023   3.437   4.383   3.975
 6020TIP3    H118024   3.417   4.476   3.984
 6020TIP3    H218025   3.391   4.342   4.047
 6021TIP3   OH218026   1.016   1.462   0.898
 6021TIP3    H118027   1.036   1.501   0.984
 6021TIP3    H218028   1.065   1.380   0.897
 6022TIP3   OH218029   4.834   4.440   4.200
 6022TIP3    H118030   4.815   4.532   4.181
 6022TIP3    H218031   4.773   4.391   4.144
 6023TIP3   OH218032   1.479   5.378   3.971
 6023TIP3    H118033   1.572   5.400   3.974
 6023TIP3    H218034   1.468   5.330   3.889
 6024TIP3   OH218035   1.453   0.051   2.213
 6024TIP3    H118036   1.407   0.135   2.227
 6024TIP3    H218037   1.529   0.074   2.160
 6025TIP3   OH218038   4.376   1.312   5.324
 6025TIP3    H118039   4.426   1.272   5.253
 6025TIP3    H218040   4.284   1.302   5.297
 6026TIP3   OH218041   6.078   6.692   0.087
 6026TIP3    H118042   6.164   6.651   0.084
 6026TIP3    H218043   6.078   6.742   0.169
 6027TIP3   OH218044   3.048   3.282   2.724
 6027TIP3    H118045   3.069   3.354   2.784
 6027TIP3    H218046   3.066   3.318   2.637
 6028TIP3   OH218047   4.945   2.419   3.839
 6028TIP3    H118048   4.883   2.346   3.833
 6028TIP3    H218049   5.029   2.381   3.814
 6029TIP3   OH218050   7.197   2.668   5.162
 6029TIP3    H118051   7.104   2.653   5.145
 6029TIP3    H218052   7.242   2.618   5.094
 6030TIP3   OH218053   6.691   2.206   5.394
 6030TIP3    H118054   6.757   2.193   5.326
 6030TIP3    H218055   6.723   2.281   5.444
 6031TIP3   OH218056   4.242   3.157   1.356
 6031TIP3    H118057   4.293   3.078   1.376
 6031TIP3    H218058   4.194   3.175   1.436
 6032TIP3   OH218059   4.201   2.232   5.187
 6032TIP3    H118060   4.182   2.163   5.251
 6032TIP3    H218061   4.179   2.313   5.233
 6033TIP3   OH218062   2.491   6.593   0.564
 6033TIP3    H118063   2.454   6.506   0.546
 6033TIP3    H218064   2.500   6.595   0.659
 6034TIP3   OH218065   1.671   2.605   4.992
 6034TIP3    H118066   1.586   2.640   5.021
 6034TIP3    H218067   1.666   2.605   4.897
 6035TIP3   OH218068   3.205   4.491   1.616
 6035TIP3    H118069   3.223   4.580   1.646
 6035TIP3    H218070   3.197   4.440   1.697
 6036TIP3   OH218071   2.317   1.480   0.316
 6036TIP3    H118072   2.227   1.503   0.294
 6036TIP3    H218073   2.367   1.500   0.237
 6037TIP3   OH218074   6.785   1.782   2.505
 6037TIP3    H118075   6.855   1.789   2.440
 6037TIP3    H218076   6.713   1.833   2.468
 6038TIP3   OH218077   3.929   1.087   2.207
 6038TIP3    H118078   3.895   1.069   2.119
 6038TIP3    H218079   3.972   1.006   2.233
 6039TIP3   OH218080   2.851   0.417   3.088
 6039TIP3    H118081   2.872   0.486   3.151
 6039TIP3    H218082   2.853   0.337   3.139
 6040TIP3   OH218083   6.049   5.113   0.705
 6040TIP3    H118084   6.131   5.102   0.754
 6040TIP3    H218085   6.076   5.124   0.614
 6041TIP3   OH218086   1.734   5.244   4.760
 6041TIP3    H118087   1.658   5.223   4.815
 6041TIP3    H218088   1.696   5.283   4.681
 6042TIP3   OH218089   6.692   3.740   3.233
 6042TIP3    H118090   6.646   3.696   3.304
 6042TIP3    H218091   6.623   3.791   3.189
 6043TIP3   OH218092   0.173   6.543   2.811
 6043TIP3    H118093   0.146   6.465   2.859
 6043TIP3    H218094   0.244   6.512   2.754
 6044TIP3   OH218095   5.981   3.495   2.755
 6044TIP3    H118096   5.966   3.574   2.808
 6044TIP3    H218097   6.074   3.476   2.766
 6045TIP3   OH218098   0.256   6.667   5.699
 6045TIP3    H118099   0.226   6.758   5.706
 6045TIP3    H218100   0.242   6.645   5.607
 6046TIP3   OH218101   0.881   4.798   1.145
 6046TIP3    H118102   0.955   4.788   1.086
 6046TIP3    H218103   0.910   4.863   1.209
 6047TIP3   OH218104   6.357   5.874   1.959
 6047TIP3    H118105   6.386   5.783   1.958
 6047TIP3    H218106   6.415   5.919   1.898
 6048TIP3   OH218107   2.514   4.728   5.765
 6048TIP3    H118108   2.538   4.766   5.680
 6048TIP3    H218109   2.469   4.798   5.811
 6049TIP3   OH218110   3.686   3.276   4.720
 6049TIP3    H118111   3.635   3.226   4.656
 6049TIP3    H218112   3.624   3.290   4.792
 6050TIP3   OH218113   0.790   3.818   3.972
 6050TIP3    H118114   0.730   3.784   4.038
 6050TIP3    H218115   0.877   3.798   4.006
 6051TIP3   OH218116   5.743   2.110   4.914
 6051TIP3    H118117   5.802   2.174   4.875
 6051TIP3    H218118   5.656   2.135   4.882
 6052TIP3   OH218119   5.243   4.355   2.390
 6052TIP3    H118120   5.319   4.319   2.345
 6052TIP3    H218121   5.232   4.443   2.354
 6053TIP3   OH218122   6.373   1.080   2.748
 6053TIP3    H118123   6.285   1.109   2.725
 6053TIP3    H218124   6.359   1.003   2.804
 6054TIP3   OH218125   5.515   2.016   2.361
 6054TIP3    H118126   5.559   1.964   2.293
 6054TIP3    H218127   5.427   1.981   2.364
 6055TIP3   OH218128   2.637   0.919   0.666
 6055TIP3    H118129   2.589   0.917   0.583
 6055TIP3    H218130   2.701   0.989   0.655
 6056TIP3   OH218131   4.455   4.480   2.760
 6056TIP3    H118132   4.434   4.390   2.786
 6056TIP3    H218133   4.536   4.472   2.710
 6057TIP3   OH218134   3.819   2.412   0.084
 6057TIP3    H118135   3.850   2.474   0.019
 6057TIP3    H218136   3.892   2.351   0.096
 6058TIP3   OH218137   4.435   2.463   2.248
 6058TIP3    H118138   4.458   2.382   2.293
 6058TIP3    H218139   4.489   2.530   2.291
 6059TIP3   OH218140   5.781   2.517   0.237
 6059TIP3    H118141   5.806   2.438   0.284
 6059TIP3    H218142   5.718   2.487   0.171
 6060TIP3   OH218143   1.635   1.676   4.077
 6060TIP3    H118144   1.595   1.712   3.998
 6060TIP3    H218145   1.581   1.709   4.148
 6061TIP3   OH218146   6.731   4.309   3.080
 6061TIP3    H118147   6.761   4.333   3.168
 6061TIP3    H218148   6.663   4.374   3.059
 6062TIP3   OH218149   7.164   6.534   0.125
 6062TIP3    H118150   7.226   6.606   0.110
 6062TIP3    H218151   7.180   6.507   0.215
 6063TIP3   OH218152   4.160   4.112   4.362
 6063TIP3    H118153   4.150   4.151   4.449
 6063TIP3    H218154   4.164   4.018   4.379
 6064TIP3   OH218155   5.713   2.489   4.399
 6064TIP3    H118156   5.697   2.426   4.329
 6064TIP3    H218157   5.653   2.561   4.380
 6065TIP3   OH218158   5.507   0.467   4.301
 6065TIP3    H118159   5.425   0.513   4.281
 6065TIP3    H218160   5.561   0.532   4.345
 6066TIP3   OH218161   4.131   1.613   0.321
 6066TIP3    H118162   4.068   1.684   0.329
 6066TIP3    H218163   4.199   1.633   0.386
 6067TIP3   OH218164   0.285   5.888   1.209
 6067TIP3    H118165   0.317   5.840   1.132
 6067TIP3    H218166   0.363   5.903   1.262
 6068TIP3   OH218167   3.310   3.614   4.297
 6068TIP3    H118168   3.225   3.588   4.262
 6068TIP3    H218169   3.296   3.621   4.392
 6069TIP3   OH218170   3.981   2.191   3.748
 6069TIP3    H118171   4.017   2.103   3.756
 6069TIP3    H218172   3.886   2.178   3.753
 6070TIP3   OH218173   6.316   1.198   1.514
 6070TIP3    H118174   6.250   1.146   1.558
 6070TIP3    H218175   6.267   1.251   1.450
 6071TIP3   OH218176   6.400   5.402   4.973
 6071TIP3    H118177   6.471   5.371   5.029
 6071TIP3    H218178   6.389   5.333   4.908
 6072TIP3   OH218179   6.327   2.116   1.847
 6072TIP3    H118180   6.400   2.159   1.892
 6072TIP3    H218181   6.249   2.144   1.895
 6073TIP3   OH218182   5.697   4.822   3.931
 6073TIP3    H118183   5.645   4.800   3.853
 6073TIP3    H218184   5.761   4.885   3.899
 6074TIP3   OH218185   4.435   5.771   4.641
 6074TIP3    H118186   4.420   5.755   4.734
 6074TIP3    H218187   4.523   5.736   4.625
 6075TIP3   OH218188   3.244   2.303   1.007
 6075TIP3    H118189   3.310   2.269   1.067
 6075TIP3    H218190   3.224   2.230   0.949
 6076TIP3   OH218191   3.322   5.320   0.354
 6076TIP3    H118192   3.326   5.226   0.368
 6076TIP3    H218193   3.289   5.331   0.265
 6077TIP3   OH218194   4.665   3.443   3.703
 6077TIP3    H118195   4.669   3.465   3.796
 6077TIP3    H218196   4.675   3.527   3.659
 6078TIP3   OH218197   6.449   5.189   3.834
 6078TIP3    H118198   6.425   5.145   3.916
 6078TIP3    H218199   6.536   5.225   3.850
 6079TIP3   OH218200   4.789   2.218   5.194
 6079TIP3    H118201   4.762   2.159   5.123
 6079TIP3    H218202   4.706   2.244   5.235
 6080TIP3   OH218203   6.488   4.051   0.046
 6080TIP3    H118204   6.531   4.071  -0.038
 6080TIP3    H218205   6.513   4.123   0.104
 6081TIP3   OH218206   2.785   4.180   0.538
 6081TIP3    H118207   2.726   4.171   0.612
 6081TIP3    H218208   2.732   4.222   0.470
 6082TIP3   OH218209   3.885   3.059   5.629
 6082TIP3    H118210   3.843   2.992   5.575
 6082TIP3    H218211   3.975   3.029   5.639
 6083TIP3   OH218212   4.882   4.608   3.598
 6083TIP3    H118213   4.811   4.545   3.587
 6083TIP3    H218214   4.962   4.555   3.602
 6084TIP3   OH218215   6.916   1.637   3.227
 6084TIP3    H118216   6.988   1.630   3.290
 6084TIP3    H218217   6.881   1.548   3.221
 6085TIP3   OH218218   5.053   0.761   0.779
 6085TIP3    H118219   4.980   0.741   0.839
 6085TIP3    H218220   5.024   0.729   0.694
 6086TIP3   OH218221   6.797   2.458   0.431
 6086TIP3    H118222   6.815   2.373   0.471
 6086TIP3    H218223   6.787   2.518   0.505
 6087TIP3   OH218224   2.775   3.419   5.363
 6087TIP3    H118225   2.772   3.514   5.374
 6087TIP3    H218226   2.856   3.393   5.407
 6088TIP3   OH218227   4.369   4.008   0.571
 6088TIP3    H118228   4.379   4.071   0.642
 6088TIP3    H218229   4.457   3.998   0.534
 6089TIP3   OH218230   5.438   1.018   5.620
 6089TIP3    H118231   5.351   1.040   5.586
 6089TIP3    H218232   5.452   1.079   5.691
 6090TIP3   OH218233   2.936   5.000   5.687
 6090TIP3    H118234   2.937   4.968   5.597
 6090TIP3    H218235   2.992   5.078   5.685
 6091TIP3   OH218236   5.310   1.039   0.383
 6091TIP3    H118237   5.224   1.080   0.372
 6091TIP3    H218238   5.293   0.945   0.374
 6092TIP3   OH218239   6.898   4.932   4.459
 6092TIP3    H118240   6.955   4.997   4.419
 6092TIP3    H218241   6.912   4.853   4.406
 6093TIP3   OH218242   3.562   3.101   0.244
 6093TIP3    H118243   3.634   3.163   0.246
 6093TIP3    H218244   3.598   3.024   0.199
 6094TIP3   OH218245   5.712   1.987   0.145
 6094TIP3    H118246   5.664   1.955   0.068
 6094TIP3    H218247   5.698   1.919   0.212
 6095TIP3   OH218248   5.993   3.162   2.896
 6095TIP3    H118249   5.951   3.101   2.834
 6095TIP3    H218250   6.074   3.188   2.852
 6096TIP3   OH218251   3.918   6.175   0.605
 6096TIP3    H118252   3.901   6.185   0.699
 6096TIP3    H218253   4.011   6.156   0.600
 6097TIP3   OH218254   1.217   6.039   1.388
 6097TIP3    H118255   1.142   6.049   1.330
 6097TIP3    H218256   1.182   6.057   1.475
 6098TIP3   OH218257   2.441   1.335   1.482
 6098TIP3    H118258   2.410   1.248   1.455
 6098TIP3    H218259   2.503   1.317   1.553
 6099TIP3   OH218260   0.197   5.257   1.469
 6099TIP3    H118261   0.232   5.333   1.516
 6099TIP3    H218262   0.209   5.279   1.377
 6100TIP3   OH218263   1.515   6.775   3.892
 6100TIP3    H118264   1.424   6.776   3.861
 6100TIP3    H218265   1.520   6.701   3.951
 6101TIP3   OH218266   5.462   6.559   0.473
 6101TIP3    H118267   5.409   6.622   0.522
 6101TIP3    H218268   5.418   6.476   0.485
 6102TIP3   OH218269   0.523   0.691   0.716
 6102TIP3    H118270   0.615   0.713   0.704
 6102TIP3    H218271   0.475   0.750   0.657
 6103TIP3   OH218272   2.063   4.405   3.283
 6103TIP3    H118273   2.126   4.345   3.323
 6103TIP3    H218274   2.113   4.486   3.270
 6104TIP3   OH218275   0.085   3.192   2.779
 6104TIP3    H118276   0.019   3.124   2.789
 6104TIP3    H218277   0.035   3.273   2.773
 6105TIP3   OH218278   4.012   2.165   1.439
 6105TIP3    H118279   3.958   2.172   1.518
 6105TIP3    H218280   3.984   2.237   1.384
 6106TIP3   OH218281   3.230   6.731   0.036
 6106TIP3    H118282   3.140   6.708   0.011
 6106TIP3    H218283   3.263   6.652   0.079
 6107TIP3   OH218284   3.046   0.662   3.815
 6107TIP3    H118285   3.066   0.672   3.722
 6107TIP3    H218286   3.048   0.752   3.849
 6108TIP3   OH218287   4.436   2.575   3.816
 6108TIP3    H118288   4.456   2.517   3.743
 6108TIP3    H218289   4.341   2.570   3.825
 6109TIP3   OH218290   0.104   4.512   0.695
 6109TIP3    H118291   0.071   4.430   0.660
 6109TIP3    H218292   0.194   4.493   0.722
 6110TIP3   OH218293   3.088   4.746   2.739
 6110TIP3    H118294   3.002   4.708   2.753
 6110TIP3    H218295   3.149   4.681   2.775
 6111TIP3   OH218296   3.362   2.552   5.061
 6111TIP3    H118297   3.356   2.499   4.982
 6111TIP3    H218298   3.441   2.521   5.106
 6112TIP3   OH218299   2.100   1.925   3.512
 6112TIP3    H118300   2.066   1.984   3.445
 6112TIP3    H218301   2.181   1.966   3.542
 6113TIP3   OH218302   5.427   0.384   3.171
 6113TIP3    H118303   5.378   0.466   3.161
 6113TIP3    H218304   5.517   0.407   3.145
 6114TIP3   OH218305   7.111   0.678   4.598
 6114TIP3    H118306   7.186   0.684   4.539
 6114TIP3    H218307   7.081   0.769   4.608
 6115TIP3   OH218308   3.467   0.167   0.459
 6115TIP3    H118309   3.544   0.110   0.463
 6115TIP3    H218310   3.502   0.254   0.443
 6116TIP3   OH218311   4.608   4.959   4.306
 6116TIP3    H118312   4.552   4.976   4.382
 6116TIP3    H218313   4.697   4.956   4.342
 6117TIP3   OH218314   6.590   5.131   4.592
 6117TIP3    H118315   6.627   5.065   4.650
 6117TIP3    H218316   6.543   5.081   4.524
 6118TIP3   OH218317   2.758   3.123   1.101
 6118TIP3    H118318   2.702   3.200   1.111
 6118TIP3    H218319   2.758   3.104   1.007
 6119TIP3   OH218320   6.875   3.875   1.478
 6119TIP3    H118321   6.870   3.970   1.464
 6119TIP3    H218322   6.913   3.866   1.566
 6120TIP3   OH218323   0.214   3.853   2.610
 6120TIP3    H118324   0.304   3.875   2.583
 6120TIP3    H218325   0.218   3.761   2.634
 6121TIP3   OH218326   5.006   6.072   2.432
 6121TIP3    H118327   5.097   6.102   2.433
 6121TIP3    H218328   4.959   6.135   2.487
 6122TIP3   OH218329   3.340   3.653   2.384
 6122TIP3    H118330   3.290   3.655   2.465
 6122TIP3    H218331   3.399   3.578   2.395
 6123TIP3   OH218332   7.024   3.354   0.841
 6123TIP3    H118333   6.988   3.438   0.815
 6123TIP3    H218334   6.972   3.289   0.794
 6124TIP3   OH218335   2.821   6.506   2.989
 6124TIP3    H118336   2.810   6.592   3.027
 6124TIP3    H218337   2.916   6.493   2.985
 6125TIP3   OH218338   6.804   5.563   5.560
 6125TIP3    H118339   6.804   5.645   5.511
 6125TIP3    H218340   6.774   5.587   5.647
 6126TIP3   OH218341   0.000   2.265   5.645
 6126TIP3    H118342   0.016   2.244   5.737
 6126TIP3    H218343   0.046   2.348   5.632
 6127TIP3   OH218344   6.244   3.642   3.033
 6127TIP3    H118345   6.251   3.586   3.110
 6127TIP3    H218346   6.186   3.713   3.060
 6128TIP3   OH218347   2.653   2.452   5.842
 6128TIP3    H118348   2.633   2.430   5.751
 6128TIP3    H218349   2.738   2.496   5.837
 6129TIP3   OH218350   5.776   3.991   3.252
 6129TIP3    H118351   5.692   4.025   3.283
 6129TIP3    H218352   5.783   4.023   3.162
 6130TIP3   OH218353   3.605   2.048   4.287
 6130TIP3    H118354   3.603   2.058   4.382
 6130TIP3    H218355   3.622   2.136   4.254
 6131TIP3   OH218356   4.289   6.567   3.934
 6131TIP3    H118357   4.368   6.522   3.962
 6131TIP3    H218358   4.255   6.609   4.013
 6132TIP3   OH218359   6.229   1.666   5.335
 6132TIP3    H118360   6.169   1.725   5.381
 6132TIP3    H218361   6.241   1.706   5.249
 6133TIP3   OH218362   6.133   0.583   4.676
 6133TIP3    H118363   6.173   0.497   4.671
 6133TIP3    H218364   6.067   0.575   4.745
 6134TIP3   OH218365   2.691   6.065   5.295
 6134TIP3    H118366   2.679   6.159   5.290
 6134TIP3    H218367   2.730   6.040   5.211
 6135TIP3   OH218368   5.757   5.456   0.430
 6135TIP3    H118369   5.755   5.540   0.477
 6135TIP3    H218370   5.758   5.390   0.499
 6136TIP3   OH218371   6.734   6.758   0.815
 6136TIP3    H118372   6.738   6.828   0.750
 6136TIP3    H218373   6.699   6.683   0.766
 6137TIP3   OH218374   4.619   6.023   2.668
 6137TIP3    H118375   4.540   6.069   2.641
 6137TIP3    H218376   4.689   6.087   2.658
 6138TIP3   OH218377   2.786   6.614   2.271
 6138TIP3    H118378   2.811   6.531   2.230
 6138TIP3    H218379   2.783   6.676   2.198
 6139TIP3   OH218380   2.774   0.409   2.804
 6139TIP3    H118381   2.772   0.402   2.899
 6139TIP3    H218382   2.697   0.463   2.783
 6140TIP3   OH218383   1.080   3.764   3.593
 6140TIP3    H118384   0.988   3.785   3.579
 6140TIP3    H218385   1.120   3.847   3.620
 6141TIP3   OH218386   1.038   3.434   4.505
 6141TIP3    H118387   1.074   3.381   4.576
 6141TIP3    H218388   1.068   3.391   4.425
 6142TIP3   OH218389   2.199   1.075   0.484
 6142TIP3    H118390   2.272   1.042   0.535
 6142TIP3    H218391   2.132   1.096   0.549
 6143TIP3   OH218392   4.202   3.993   1.368
 6143TIP3    H118393   4.234   3.903   1.358
 6143TIP3    H218394   4.256   4.030   1.438
 6144TIP3   OH218395   6.113   0.104   4.186
 6144TIP3    H118396   6.046   0.143   4.242
 6144TIP3    H218397   6.067   0.037   4.136
 6145TIP3   OH218398   6.363   2.128   5.176
 6145TIP3    H118399   6.455   2.115   5.152
 6145TIP3    H218400   6.325   2.175   5.102
 6146TIP3   OH218401   0.921   5.712   4.091
 6146TIP3    H118402   0.967   5.733   4.172
 6146TIP3    H218403   0.970   5.757   4.022
 6147TIP3   OH218404   3.078   6.221   4.602
 6147TIP3    H118405   2.983   6.231   4.592
 6147TIP3    H218406   3.106   6.299   4.648
 6148TIP3   OH218407   5.773   2.844   2.902
 6148TIP3    H118408   5.715   2.841   2.979
 6148TIP3    H218409   5.715   2.831   2.828
 6149TIP3   OH218410   1.454   4.857   5.753
 6149TIP3    H118411   1.468   4.878   5.846
 6149TIP3    H218412   1.436   4.942   5.712
 6150TIP3   OH218413   6.461   4.312   5.731
 6150TIP3    H118414   6.377   4.289   5.771
 6150TIP3    H218415   6.469   4.252   5.656
 6151TIP3   OH218416   6.921   3.833   3.121
 6151TIP3    H118417   6.897   3.926   3.120
 6151TIP3    H218418   6.842   3.788   3.148
 6152TIP3   OH218419   2.426   3.442   1.510
 6152TIP3    H118420   2.379   3.438   1.594
 6152TIP3    H218421   2.367   3.400   1.448
 6153TIP3   OH218422   0.298   5.884   2.932
 6153TIP3    H118423   0.315   5.815   2.997
 6153TIP3    H218424   0.379   5.934   2.928
 6154TIP3   OH218425   2.272   0.333   5.444
 6154TIP3    H118426   2.289   0.394   5.515
 6154TIP3    H218427   2.196   0.281   5.473
 6155TIP3   OH218428   5.875   1.973   5.690
 6155TIP3    H118429   5.815   1.930   5.750
 6155TIP3    H218430   5.873   2.065   5.716
 6156TIP3   OH218431   3.216   1.474   4.402
 6156TIP3    H118432   3.245   1.389   4.436
 6156TIP3    H218433   3.139   1.495   4.455
 6157TIP3   OH218434   6.386   6.461   3.248
 6157TIP3    H118435   6.426   6.517   3.182
 6157TIP3    H218436   6.292   6.475   3.236
 6158TIP3   OH218437   5.723   3.743   2.369
 6158TIP3    H118438   5.785   3.721   2.439
 6158TIP3    H218439   5.646   3.777   2.414
 6159TIP3   OH218440   4.301   0.042   4.265
 6159TIP3    H118441   4.386   0.024   4.305
 6159TIP3    H218442   4.295  -0.022   4.193
 6160TIP3   OH218443   7.084   4.481   2.363
 6160TIP3    H118444   7.108   4.393   2.392
 6160TIP3    H218445   7.168   4.526   2.351
 6161TIP3   OH218446   6.931   6.112   2.681
 6161TIP3    H118447   6.889   6.025   2.677
 6161TIP3    H218448   6.857   6.173   2.681
 6162TIP3   OH218449   1.433   0.234   2.583
 6162TIP3    H118450   1.437   0.329   2.572
 6162TIP3    H218451   1.518   0.210   2.620
 6163TIP3   OH218452   5.713   3.987   0.988
 6163TIP3    H118453   5.782   3.944   0.937
 6163TIP3    H218454   5.654   3.915   1.013
 6164TIP3   OH218455   3.957   5.848   5.023
 6164TIP3    H118456   3.895   5.852   5.096
 6164TIP3    H218457   3.903   5.862   4.945
 6165TIP3   OH218458   3.463   3.346   3.216
 6165TIP3    H118459   3.437   3.436   3.197
 6165TIP3    H218460   3.431   3.329   3.304
 6166TIP3   OH218461   1.785   6.342   4.536
 6166TIP3    H118462   1.709   6.301   4.494
 6166TIP3    H218463   1.748   6.410   4.592
 6167TIP3   OH218464   3.893   1.046   3.214
 6167TIP3    H118465   3.889   1.054   3.309
 6167TIP3    H218466   3.968   1.101   3.189
 6168TIP3   OH218467   4.748   5.996   3.240
 6168TIP3    H118468   4.691   6.041   3.178
 6168TIP3    H218469   4.819   6.057   3.257
 6169TIP3   OH218470   3.744   3.172   5.049
 6169TIP3    H118471   3.775   3.261   5.069
 6169TIP3    H218472   3.785   3.151   4.966
 6170TIP3   OH218473   5.324   0.064   2.468
 6170TIP3    H118474   5.241   0.023   2.495
 6170TIP3    H218475   5.310   0.089   2.377
 6171TIP3   OH218476   6.637   3.081   5.282
 6171TIP3    H118477   6.631   3.080   5.377
 6171TIP3    H218478   6.601   3.165   5.256
 6172TIP3   OH218479   1.640   0.448   2.325
 6172TIP3    H118480   1.731   0.458   2.355
 6172TIP3    H218481   1.587   0.469   2.402
 6173TIP3   OH218482   5.923   3.209   3.157
 6173TIP3    H118483   5.892   3.125   3.192
 6173TIP3    H218484   5.924   3.196   3.062
 6174TIP3   OH218485   6.845   5.425   4.170
 6174TIP3    H118486   6.763   5.375   4.164
 6174TIP3    H218487   6.912   5.360   4.189
 6175TIP3   OH218488   3.827   5.279   1.887
 6175TIP3    H118489   3.808   5.239   1.802
 6175TIP3    H218490   3.911   5.242   1.913
 6176TIP3   OH218491   5.441   4.623   0.870
 6176TIP3    H118492   5.469   4.706   0.830
 6176TIP3    H218493   5.522   4.572   0.878
 6177TIP3   OH218494   3.416   5.871   5.577
 6177TIP3    H118495   3.481   5.811   5.541
 6177TIP3    H218496   3.342   5.865   5.516
 6178TIP3   OH218497   1.243   0.740   0.341
 6178TIP3    H118498   1.265   0.738   0.434
 6178TIP3    H218499   1.327   0.732   0.296
 6179TIP3   OH218500   1.912   2.249   5.253
 6179TIP3    H118501   1.907   2.206   5.167
 6179TIP3    H218502   1.964   2.189   5.306
 6180TIP3   OH218503   4.610   3.573   5.772
 6180TIP3    H118504   4.698   3.543   5.748
 6180TIP3    H218505   4.621   3.667   5.790
 6181TIP3   OH218506   3.078   5.397   2.205
 6181TIP3    H118507   3.128   5.416   2.284
 6181TIP3    H218508   3.011   5.334   2.234
 6182TIP3   OH218509   1.576   0.784   2.693
 6182TIP3    H118510   1.567   0.780   2.788
 6182TIP3    H218511   1.670   0.800   2.678
 6183TIP3   OH218512   3.048   0.930   3.891
 6183TIP3    H118513   3.021   1.022   3.898
 6183TIP3    H218514   3.141   0.931   3.912
 6184TIP3   OH218515   0.775   4.143   4.547
 6184TIP3    H118516   0.732   4.135   4.632
 6184TIP3    H218517   0.717   4.200   4.496
 6185TIP3   OH218518   1.481   4.671   1.260
 6185TIP3    H118519   1.564   4.632   1.286
 6185TIP3    H218520   1.415   4.621   1.308
 6186TIP3   OH218521   3.366   1.668   1.473
 6186TIP3    H118522   3.355   1.735   1.539
 6186TIP3    H218523   3.392   1.590   1.522
 6187TIP3   OH218524   1.492   0.658   5.752
 6187TIP3    H118525   1.425   0.705   5.702
 6187TIP3    H218526   1.481   0.689   5.842
 6188TIP3   OH218527   5.077   5.195   5.307
 6188TIP3    H118528   5.168   5.172   5.289
 6188TIP3    H218529   5.026   5.120   5.275
 6189TIP3   OH218530   4.022   0.626   2.367
 6189TIP3    H118531   4.057   0.612   2.455
 6189TIP3    H218532   4.065   0.558   2.314
 6190TIP3   OH218533   4.566   0.732   0.041
 6190TIP3    H118534   4.601   0.702  -0.043
 6190TIP3    H218535   4.600   0.821   0.051
 6191TIP3   OH218536   4.570   3.246   1.338
 6191TIP3    H118537   4.550   3.318   1.398
 6191TIP3    H218538   4.494   3.188   1.343
 6192TIP3   OH218539   0.035   4.905   2.422
 6192TIP3    H118540   0.060   4.926   2.332
 6192TIP3    H218541  -0.013   4.822   2.414
 6193TIP3   OH218542   5.231   6.567   2.604
 6193TIP3    H118543   5.301   6.628   2.628
 6193TIP3    H218544   5.172   6.619   2.549
 6194TIP3   OH218545   5.001   5.309   0.814
 6194TIP3    H118546   4.943   5.382   0.796
 6194TIP3    H218547   4.946   5.244   0.857
 6195TIP3   OH218548   0.721   0.781   5.736
 6195TIP3    H118549   0.769   0.811   5.659
 6195TIP3    H218550   0.765   0.700   5.761
 6196TIP3   OH218551   7.182   6.154   1.748
 6196TIP3    H118552   7.107   6.142   1.806
 6196TIP3    H218553   7.242   6.208   1.798
 6197TIP3   OH218554   2.373   4.119   4.526
 6197TIP3    H118555   2.397   4.135   4.434
 6197TIP3    H218556   2.388   4.026   4.539
 6198TIP3   OH218557   6.223   5.090   3.542
 6198TIP3    H118558   6.304   5.140   3.531
 6198TIP3    H218559   6.243   5.027   3.611
 6199TIP3   OH218560   4.161   2.244   0.541
 6199TIP3    H118561   4.120   2.162   0.513
 6199TIP3    H218562   4.087   2.297   0.572
 6200TIP3   OH218563   3.524   1.664   1.225
 6200TIP3    H118564   3.458   1.624   1.168
 6200TIP3    H218565   3.476   1.688   1.304
 6201TIP3   OH218566   0.900   1.877   3.095
 6201TIP3    H118567   0.885   1.934   3.019
 6201TIP3    H218568   0.813   1.853   3.125
 6202TIP3   OH218569   5.717   6.564   2.717
 6202TIP3    H118570   5.678   6.611   2.791
 6202TIP3    H218571   5.801   6.533   2.749
 6203TIP3   OH218572   2.049   2.591   5.583
 6203TIP3    H118573   2.033   2.686   5.575
 6203TIP3    H218574   2.077   2.564   5.496
 6204TIP3   OH218575   5.293   5.251   2.786
 6204TIP3    H118576   5.309   5.157   2.795
 6204TIP3    H218577   5.301   5.267   2.692
 6205TIP3   OH218578   6.639   4.191   1.943
 6205TIP3    H118579   6.631   4.275   1.988
 6205TIP3    H218580   6.719   4.152   1.978
 6206TIP3   OH218581   7.104   3.164   4.325
 6206TIP3    H118582   7.060   3.178   4.241
 6206TIP3    H218583   7.190   3.129   4.301
 6207TIP3   OH218584   0.379   5.134   5.540
 6207TIP3    H118585   0.377   5.071   5.612
 6207TIP3    H218586   0.443   5.099   5.479
 6208TIP3   OH218587   0.347   3.420   3.927
 6208TIP3    H118588   0.257   3.387   3.933
 6208TIP3    H218589   0.338   3.507   3.889
 6209TIP3   OH218590   0.140   5.359   3.821
 6209TIP3    H118591   0.129   5.341   3.727
 6209TIP3    H218592   0.191   5.285   3.853
 6210TIP3   OH218593   1.152   3.611   1.464
 6210TIP3    H118594   1.167   3.517   1.455
 6210TIP3    H218595   1.069   3.627   1.419
 6211TIP3   OH218596   5.032   1.753   4.772
 6211TIP3    H118597   4.964   1.771   4.836
 6211TIP3    H218598   5.022   1.822   4.706
 6212TIP3   OH218599   2.203   1.959   0.768
 6212TIP3    H118600   2.234   1.973   0.857
 6212TIP3    H218601   2.202   2.046   0.729
 6213TIP3   OH218602   3.059   3.001   0.354
 6213TIP3    H118603   3.107   2.919   0.363
 6213TIP3    H218604   3.092   3.040   0.273
 6214TIP3   OH218605   1.240   4.341   3.344
 6214TIP3    H118606   1.225   4.388   3.426
 6214TIP3    H218607   1.261   4.252   3.371
 6215TIP3   OH218608   4.209   6.046   5.785
 6215TIP3    H118609   4.210   5.958   5.749
 6215TIP3    H218610   4.255   6.039   5.869
 6216TIP3   OH218611   2.394   0.226   2.480
 6216TIP3    H118612   2.327   0.159   2.493
 6216TIP3    H218613   2.442   0.227   2.563
 6217TIP3   OH218614   5.037   3.669   4.915
 6217TIP3    H118615   5.128   3.677   4.887
 6217TIP3    H218616   5.031   3.726   4.991
 6218TIP3   OH218617   4.228   0.348   3.626
 6218TIP3    H118618   4.140   0.361   3.590
 6218TIP3    H218619   4.282   0.413   3.581
 6219TIP3   OH218620   5.866   6.094   4.504
 6219TIP3    H118621   5.954   6.125   4.525
 6219TIP3    H218622   5.811   6.172   4.511
 6220TIP3   OH218623   4.418   6.624   5.253
 6220TIP3    H118624   4.428   6.543   5.203
 6220TIP3    H218625   4.461   6.606   5.336
 6221TIP3   OH218626   2.425   4.101   1.174
 6221TIP3    H118627   2.486   4.098   1.248
 6221TIP3    H218628   2.356   4.161   1.203
 6222TIP3   OH218629   2.289   2.985   2.756
 6222TIP3    H118630   2.328   2.983   2.844
 6222TIP3    H218631   2.358   2.954   2.698
 6223TIP3   OH218632   5.767   3.652   4.069
 6223TIP3    H118633   5.747   3.738   4.030
 6223TIP3    H218634   5.687   3.629   4.116
 6224TIP3   OH218635   2.753   3.750   1.698
 6224TIP3    H118636   2.761   3.728   1.605
 6224TIP3    H218637   2.801   3.832   1.708
 6225TIP3   OH218638   4.594   6.260   0.891
 6225TIP3    H118639   4.637   6.186   0.848
 6225TIP3    H218640   4.646   6.337   0.866
 6226TIP3   OH218641   3.542   5.204   4.887
 6226TIP3    H118642   3.581   5.267   4.827
 6226TIP3    H218643   3.550   5.245   4.973
 6227TIP3   OH218644   0.137   2.197   2.559
 6227TIP3    H118645   0.226   2.231   2.560
 6227TIP3    H218646   0.133   2.143   2.480
 6228TIP3   OH218647   3.505   0.915   5.422
 6228TIP3    H118648   3.529   0.824   5.404
 6228TIP3    H218649   3.568   0.944   5.488
 6229TIP3   OH218650   7.148   4.587   3.546
 6229TIP3    H118651   7.192   4.502   3.554
 6229TIP3    H218652   7.219   4.651   3.550
 6230TIP3   OH218653   2.253   5.123   0.391
 6230TIP3    H118654   2.200   5.150   0.316
 6230TIP3    H218655   2.232   5.186   0.460
 6231TIP3   OH218656   3.285   4.974   5.431
 6231TIP3    H118657   3.355   4.927   5.476
 6231TIP3    H218658   3.214   4.911   5.423
 6232TIP3   OH218659   1.820   1.927   0.321
 6232TIP3    H118660   1.791   1.837   0.333
 6232TIP3    H218661   1.870   1.946   0.400
 6233TIP3   OH218662   1.808   4.214   3.962
 6233TIP3    H118663   1.754   4.137   3.943
 6233TIP3    H218664   1.856   4.191   4.042
 6234TIP3   OH218665   2.539   4.540   0.173
 6234TIP3    H118666   2.569   4.607   0.235
 6234TIP3    H218667   2.468   4.496   0.219
 6235TIP3   OH218668   6.420   6.753   4.263
 6235TIP3    H118669   6.445   6.712   4.181
 6235TIP3    H218670   6.476   6.712   4.329
 6236TIP3   OH218671   4.846   4.118   1.635
 6236TIP3    H118672   4.937   4.148   1.627
 6236TIP3    H218673   4.811   4.169   1.708
 6237TIP3   OH218674   6.651   6.015   0.195
 6237TIP3    H118675   6.621   6.087   0.250
 6237TIP3    H218676   6.595   6.018   0.118
 6238TIP3   OH218677   2.120   6.796   0.505
 6238TIP3    H118678   2.149   6.820   0.593
 6238TIP3    H218679   2.025   6.809   0.507
 6239TIP3   OH218680   0.530   5.671   2.954
 6239TIP3    H118681   0.498   5.693   2.867
 6239TIP3    H218682   0.452   5.640   3.001
 6240TIP3   OH218683   0.521   1.449   2.197
 6240TIP3    H118684   0.544   1.505   2.123
 6240TIP3    H218685   0.489   1.509   2.264
 6241TIP3   OH218686   3.491   4.720   1.460
 6241TIP3    H118687   3.523   4.760   1.379
 6241TIP3    H218688   3.488   4.626   1.440
 6242TIP3   OH218689   5.406   4.748   3.770
 6242TIP3    H118690   5.351   4.731   3.693
 6242TIP3    H218691   5.416   4.663   3.812
 6243TIP3   OH218692   0.954   3.416   1.627
 6243TIP3    H118693   0.932   3.461   1.546
 6243TIP3    H218694   1.049   3.404   1.622
 6244TIP3   OH218695   6.618   2.575   5.246
 6244TIP3    H118696   6.541   2.561   5.300
 6244TIP3    H218697   6.598   2.654   5.196
 6245TIP3   OH218698   4.837   5.918   4.240
 6245TIP3    H118699   4.908   5.941   4.301
 6245TIP3    H218700   4.873   5.937   4.154
 6246TIP3   OH218701   1.041   0.071   2.147
 6246TIP3    H118702   1.074   0.080   2.237
 6246TIP3    H218703   1.113   0.101   2.092
 6247TIP3   OH218704   1.221   0.656   5.414
 6247TIP3    H118705   1.289   0.697   5.468
 6247TIP3    H218706   1.261   0.648   5.327
 6248TIP3   OH218707   2.879   1.239   4.315
 6248TIP3    H118708   2.872   1.327   4.277
 6248TIP3    H218709   2.874   1.254   4.409
 6249TIP3   OH218710   3.564   4.713   3.048
 6249TIP3    H118711   3.474   4.693   3.025
 6249TIP3    H218712   3.581   4.797   3.005
 6250TIP3   OH218713   0.464   2.008   1.827
 6250TIP3    H118714   0.465   2.104   1.817
 6250TIP3    H218715   0.539   1.978   1.776
 6251TIP3   OH218716   5.965   6.256   2.265
 6251TIP3    H118717   5.943   6.163   2.268
 6251TIP3    H218718   5.955   6.281   2.173
 6252TIP3   OH218719   0.629   5.133   2.317
 6252TIP3    H118720   0.699   5.157   2.377
 6252TIP3    H218721   0.670   5.132   2.231
 6253TIP3   OH218722   2.970   6.407   1.764
 6253TIP3    H118723   2.985   6.437   1.854
 6253TIP3    H218724   2.876   6.411   1.752
 6254TIP3   OH218725   0.352   2.667   4.228
 6254TIP3    H118726   0.259   2.688   4.238
 6254TIP3    H218727   0.353   2.576   4.199
 6255TIP3   OH218728   1.910   6.428   5.311
 6255TIP3    H118729   1.939   6.339   5.289
 6255TIP3    H218730   1.974   6.486   5.270
 6256TIP3   OH218731   1.321   5.065   5.256
 6256TIP3    H118732   1.277   5.148   5.237
 6256TIP3    H218733   1.259   5.015   5.309
 6257TIP3   OH218734   3.227   0.644   0.747
 6257TIP3    H118735   3.184   0.670   0.665
 6257TIP3    H218736   3.178   0.566   0.775
 6258TIP3   OH218737   4.573   4.848   0.067
 6258TIP3    H118738   4.534   4.901   0.136
 6258TIP3    H218739   4.664   4.835   0.095
 6259TIP3   OH218740   3.451   0.884   1.432
 6259TIP3    H118741   3.498   0.805   1.458
 6259TIP3    H218742   3.412   0.917   1.513
 6260TIP3   OH218743   1.585   5.056   4.397
 6260TIP3    H118744   1.648   5.049   4.468
 6260TIP3    H218745   1.504   5.084   4.440
 6261TIP3   OH218746   7.016   6.623   1.928
 6261TIP3    H118747   7.071   6.554   1.965
 6261TIP3    H218748   7.032   6.617   1.834
 6262TIP3   OH218749   3.482   4.209   3.378
 6262TIP3    H118750   3.402   4.175   3.418
 6262TIP3    H218751   3.477   4.304   3.393
 6263TIP3   OH218752   2.864   5.326   1.993
 6263TIP3    H118753   2.797   5.261   1.974
 6263TIP3    H218754   2.943   5.292   1.951
 6264TIP3   OH218755   5.765   6.226   2.891
 6264TIP3    H118756   5.682   6.182   2.908
 6264TIP3    H218757   5.807   6.173   2.823
 6265TIP3   OH218758   2.936   5.784   4.358
 6265TIP3    H118759   2.952   5.789   4.453
 6265TIP3    H218760   2.981   5.861   4.322
 6266TIP3   OH218761   3.368   0.764   5.165
 6266TIP3    H118762   3.296   0.764   5.228
 6266TIP3    H218763   3.365   0.852   5.126
 6267TIP3   OH218764   5.027   5.731   5.590
 6267TIP3    H118765   4.999   5.789   5.660
 6267TIP3    H218766   5.041   5.646   5.632
 6268TIP3   OH218767   5.497   6.601   0.133
 6268TIP3    H118768   5.448   6.611   0.052
 6268TIP3    H218769   5.575   6.656   0.121
 6269TIP3   OH218770   3.523   4.728   1.778
 6269TIP3    H118771   3.480   4.720   1.863
 6269TIP3    H218772   3.550   4.639   1.756
 6270TIP3   OH218773   2.105   5.737   3.684
 6270TIP3    H118774   2.087   5.778   3.599
 6270TIP3    H218775   2.043   5.777   3.744
 6271TIP3   OH218776   3.220   0.299   0.504
 6271TIP3    H118777   3.288   0.234   0.487
 6271TIP3    H218778   3.225   0.314   0.598
 6272TIP3   OH218779   2.535   1.021   5.777
 6272TIP3    H118780   2.551   1.041   5.869
 6272TIP3    H218781   2.530   1.107   5.735
 6273TIP3   OH218782   4.877   2.024   1.059
 6273TIP3    H118783   4.822   2.096   1.031
 6273TIP3    H218784   4.818   1.948   1.065
 6274TIP3   OH218785   1.290   0.652   3.033
 6274TIP3    H118786   1.380   0.681   3.022
 6274TIP3    H218787   1.297   0.562   3.065
 6275TIP3   OH218788   6.716   3.966   4.243
 6275TIP3    H118789   6.714   3.891   4.302
 6275TIP3    H218790   6.803   4.003   4.254
 6276TIP3   OH218791   6.077   2.399   0.099
 6276TIP3    H118792   6.007   2.349   0.056
 6276TIP3    H218793   6.108   2.342   0.168
 6277TIP3   OH218794   2.496   3.677   0.475
 6277TIP3    H118795   2.567   3.718   0.425
 6277TIP3    H218796   2.507   3.584   0.460
 6278TIP3   OH218797   3.241   0.474   5.443
 6278TIP3    H118798   3.333   0.449   5.433
 6278TIP3    H218799   3.205   0.408   5.503
 6279TIP3   OH218800   0.762   5.017   3.001
 6279TIP3    H118801   0.738   5.039   2.911
 6279TIP3    H218802   0.678   5.002   3.045
 6280TIP3   OH218803   4.043   4.778   3.587
 6280TIP3    H118804   3.964   4.761   3.637
 6280TIP3    H218805   4.087   4.850   3.634
 6281TIP3   OH218806   5.527   0.229   2.569
 6281TIP3    H118807   5.457   0.181   2.526
 6281TIP3    H218808   5.581   0.161   2.611
 6282TIP3   OH218809   7.137   6.111   0.194
 6282TIP3    H118810   7.083   6.043   0.234
 6282TIP3    H218811   7.075   6.169   0.149
 6283TIP3   OH218812   2.230   3.048   1.516
 6283TIP3    H118813   2.187   3.017   1.596
 6283TIP3    H218814   2.158   3.061   1.454
 6284TIP3   OH218815   4.676   6.286   5.075
 6284TIP3    H118816   4.594   6.269   5.122
 6284TIP3    H218817   4.744   6.249   5.131
 6285TIP3   OH218818   5.558   0.507   5.735
 6285TIP3    H118819   5.503   0.483   5.809
 6285TIP3    H218820   5.515   0.468   5.659
 6286TIP3   OH218821   2.871   5.151   3.015
 6286TIP3    H118822   2.872   5.247   3.021
 6286TIP3    H218823   2.865   5.121   3.106
 6287TIP3   OH218824   2.807   3.864   3.865
 6287TIP3    H118825   2.740   3.797   3.877
 6287TIP3    H218826   2.877   3.820   3.818
 6288TIP3   OH218827   5.148   4.955   0.902
 6288TIP3    H118828   5.170   4.918   0.817
 6288TIP3    H218829   5.168   5.048   0.894
 6289TIP3   OH218830   3.741   3.936   1.502
 6289TIP3    H118831   3.701   3.987   1.432
 6289TIP3    H218832   3.800   3.875   1.457
 6290TIP3   OH218833   0.519   0.208   0.113
 6290TIP3    H118834   0.460   0.237   0.044
 6290TIP3    H218835   0.475   0.133   0.153
 6291TIP3   OH218836   6.025   4.644   4.452
 6291TIP3    H118837   5.955   4.620   4.513
 6291TIP3    H218838   6.014   4.583   4.378
 6292TIP3   OH218839   6.221   4.801   2.560
 6292TIP3    H118840   6.184   4.800   2.649
 6292TIP3    H218841   6.228   4.709   2.536
 6293TIP3   OH218842   2.670   5.226   4.412
 6293TIP3    H118843   2.657   5.320   4.401
 6293TIP3    H218844   2.735   5.219   4.482
 6294TIP3   OH218845   2.595   5.291   5.303
 6294TIP3    H118846   2.651   5.368   5.313
 6294TIP3    H218847   2.603   5.268   5.211
 6295TIP3   OH218848   6.686   2.840   5.168
 6295TIP3    H118849   6.678   2.843   5.072
 6295TIP3    H218850   6.679   2.932   5.195
 6296TIP3   OH218851   6.776   0.399   4.770
 6296TIP3    H118852   6.858   0.387   4.819
 6296TIP3    H218853   6.732   0.472   4.815
 6297TIP3   OH218854   5.818   5.547   2.348
 6297TIP3    H118855   5.829   5.631   2.393
 6297TIP3    H218856   5.893   5.540   2.290
 6298TIP3   OH218857   0.143   4.198   2.656
 6298TIP3    H118858   0.150   4.290   2.684
 6298TIP3    H218859   0.213   4.186   2.593
 6299TIP3   OH218860   2.598   4.704   5.244
 6299TIP3    H118861   2.589   4.639   5.175
 6299TIP3    H218862   2.560   4.784   5.207
 6300TIP3   OH218863   6.393   6.697   1.226
 6300TIP3    H118864   6.387   6.671   1.318
 6300TIP3    H218865   6.458   6.638   1.188
 6301TIP3   OH218866   4.091   6.742   2.768
 6301TIP3    H118867   4.021   6.795   2.731
 6301TIP3    H218868   4.171   6.789   2.746
 6302TIP3   OH218869   2.278   2.501   0.368
 6302TIP3    H118870   2.221   2.574   0.392
 6302TIP3    H218871   2.362   2.522   0.409
 6303TIP3   OH218872   1.418   0.201   1.629
 6303TIP3    H118873   1.354   0.270   1.648
 6303TIP3    H218874   1.394   0.129   1.688
 6304TIP3   OH218875   2.285   2.024   2.875
 6304TIP3    H118876   2.283   2.028   2.971
 6304TIP3    H218877   2.353   2.087   2.851
 6305TIP3   OH218878   3.767   5.236   1.620
 6305TIP3    H118879   3.770   5.220   1.525
 6305TIP3    H218880   3.684   5.281   1.634
 6306TIP3   OH218881   4.986   2.834   1.960
 6306TIP3    H118882   4.972   2.739   1.960
 6306TIP3    H218883   4.948   2.864   1.877
 6307TIP3   OH218884   4.239   6.256   1.550
 6307TIP3    H118885   4.233   6.177   1.604
 6307TIP3    H218886   4.163   6.251   1.492
 6308TIP3   OH218887   3.282   0.458   3.215
 6308TIP3    H118888   3.233   0.539   3.229
 6308TIP3    H218889   3.367   0.475   3.255
 6309TIP3   OH218890   0.959   5.113   5.249
 6309TIP3    H118891   1.007   5.196   5.238
 6309TIP3    H218892   0.882   5.136   5.300
 6310TIP3   OH218893   5.205   0.240   3.251
 6310TIP3    H118894   5.254   0.163   3.281
 6310TIP3    H218895   5.272   0.300   3.218
 6311TIP3   OH218896   4.453   5.043   5.067
 6311TIP3    H118897   4.417   5.115   5.118
 6311TIP3    H218898   4.460   5.077   4.978
 6312TIP3   OH218899   1.080   5.255   0.186
 6312TIP3    H118900   1.015   5.304   0.137
 6312TIP3    H218901   1.146   5.320   0.211
 6313TIP3   OH218902   4.398   2.205   5.683
 6313TIP3    H118903   4.324   2.169   5.732
 6313TIP3    H218904   4.366   2.287   5.648
 6314TIP3   OH218905   1.510   3.459   4.542
 6314TIP3    H118906   1.438   3.495   4.490
 6314TIP3    H218907   1.548   3.392   4.486
 6315TIP3   OH218908   1.392   5.952   3.002
 6315TIP3    H118909   1.390   6.001   2.920
 6315TIP3    H218910   1.332   5.879   2.988
 6316TIP3   OH218911   2.095   2.353   1.272
 6316TIP3    H118912   2.164   2.368   1.208
 6316TIP3    H218913   2.015   2.347   1.221
 6317TIP3   OH218914   3.486   1.470   2.723
 6317TIP3    H118915   3.404   1.441   2.683
 6317TIP3    H218916   3.546   1.480   2.649
 6318TIP3   OH218917   0.554   2.712   4.440
 6318TIP3    H118918   0.602   2.640   4.401
 6318TIP3    H218919   0.508   2.753   4.367
 6319TIP3   OH218920   2.704   4.709   1.186
 6319TIP3    H118921   2.649   4.725   1.109
 6319TIP3    H218922   2.720   4.796   1.223
 6320TIP3   OH218923   6.547   0.331   4.318
 6320TIP3    H118924   6.488   0.257   4.303
 6320TIP3    H218925   6.595   0.308   4.397
 6321TIP3   OH218926   3.409   3.928   3.958
 6321TIP3    H118927   3.410   3.853   4.017
 6321TIP3    H218928   3.485   3.980   3.985
 6322TIP3   OH218929   4.722   1.903   4.732
 6322TIP3    H118930   4.637   1.924   4.694
 6322TIP3    H218931   4.711   1.816   4.770
 6323TIP3   OH218932   6.744   0.900   3.429
 6323TIP3    H118933   6.830   0.859   3.414
 6323TIP3    H218934   6.696   0.885   3.348
 6324TIP3   OH218935   2.269   6.665   1.680
 6324TIP3    H118936   2.177   6.661   1.708
 6324TIP3    H218937   2.273   6.613   1.600
 6325TIP3   OH218938   1.708   1.425   1.094
 6325TIP3    H118939   1.785   1.454   1.045
 6325TIP3    H218940   1.743   1.389   1.175
 6326TIP3   OH218941   1.602   2.930   1.816
 6326TIP3    H118942   1.587   2.944   1.723
 6326TIP3    H218943   1.687   2.887   1.821
 6327TIP3   OH218944   6.431   4.479   5.429
 6327TIP3    H118945   6.394   4.437   5.506
 6327TIP3    H218946   6.379   4.560   5.419
 6328TIP3   OH218947   5.167   3.856   3.006
 6328TIP3    H118948   5.088   3.804   2.989
 6328TIP3    H218949   5.223   3.841   2.930
 6329TIP3   OH218950   1.891   4.355   2.741
 6329TIP3    H118951   1.985   4.350   2.727
 6329TIP3    H218952   1.852   4.313   2.664
 6330TIP3   OH218953   1.706   1.671   4.751
 6330TIP3    H118954   1.728   1.597   4.807
 6330TIP3    H218955   1.639   1.719   4.800
 6331TIP3   OH218956   0.448   0.813   0.454
 6331TIP3    H118957   0.399   0.879   0.407
 6331TIP3    H218958   0.408   0.730   0.429
 6332TIP3   OH218959   6.155   0.954   2.199
 6332TIP3    H118960   6.128   0.862   2.202
 6332TIP3    H218961   6.244   0.953   2.236
 6333TIP3   OH218962   4.894   5.604   1.602
 6333TIP3    H118963   4.858   5.597   1.513
 6333TIP3    H218964   4.973   5.551   1.600
 6334TIP3   OH218965   3.905   2.129   2.949
 6334TIP3    H118966   3.987   2.082   2.930
 6334TIP3    H218967   3.924   2.220   2.927
 6335TIP3   OH218968   3.049   4.715   1.984
 6335TIP3    H118969   3.142   4.708   2.005
 6335TIP3    H218970   3.014   4.628   2.001
 6336TIP3   OH218971   5.599   1.243   0.573
 6336TIP3    H118972   5.565   1.243   0.484
 6336TIP3    H218973   5.589   1.334   0.603
 6337TIP3   OH218974   0.863   0.043   4.524
 6337TIP3    H118975   0.772   0.068   4.506
 6337TIP3    H218976   0.910   0.063   4.443
 6338TIP3   OH218977   2.786   1.439   2.588
 6338TIP3    H118978   2.828   1.414   2.506
 6338TIP3    H218979   2.723   1.507   2.562
 6339TIP3   OH218980   6.408   1.246   4.738
 6339TIP3    H118981   6.332   1.299   4.712
 6339TIP3    H218982   6.426   1.272   4.828
 6340TIP3   OH218983   6.807   0.934   5.456
 6340TIP3    H118984   6.852   1.017   5.468
 6340TIP3    H218985   6.850   0.893   5.381
 6341TIP3   OH218986   2.955   3.830   0.662
 6341TIP3    H118987   3.007   3.815   0.742
 6341TIP3    H218988   2.864   3.830   0.692
 6342TIP3   OH218989   1.419   1.773   5.215
 6342TIP3    H118990   1.512   1.785   5.198
 6342TIP3    H218991   1.398   1.688   5.177
 6343TIP3   OH218992   7.186   2.515   2.743
 6343TIP3    H118993   7.275   2.497   2.712
 6343TIP3    H218994   7.151   2.429   2.765
 6344TIP3   OH218995   5.365   2.246   3.449
 6344TIP3    H118996   5.310   2.176   3.485
 6344TIP3    H218997   5.425   2.269   3.520
 6345TIP3   OH218998   5.200   3.230   3.605
 6345TIP3    H118999   5.231   3.159   3.547
 6345TIP3    H219000   5.249   3.307   3.577
 6346TIP3   OH219001   3.929   3.333   4.005
 6346TIP3    H119002   3.935   3.239   4.025
 6346TIP3    H219003   4.018   3.366   4.019
 6347TIP3   OH219004   5.313   4.393   4.305
 6347TIP3    H119005   5.380   4.331   4.276
 6347TIP3    H219006   5.231   4.355   4.274
 6348TIP3   OH219007   0.994   3.722   4.903
 6348TIP3    H119008   0.939   3.650   4.935
 6348TIP3    H219009   0.941   3.800   4.916
 6349TIP3   OH219010   4.325   0.460   1.172
 6349TIP3    H119011   4.269   0.397   1.218
 6349TIP3    H219012   4.278   0.543   1.177
 6350TIP3   OH219013   6.830   1.020   3.659
 6350TIP3    H119014   6.846   0.937   3.705
 6350TIP3    H219015   6.773   0.996   3.586
 6351TIP3   OH219016   4.620   1.198   2.213
 6351TIP3    H119017   4.593   1.189   2.305
 6351TIP3    H219018   4.598   1.114   2.173
 6352TIP3   OH219019   6.430   3.769   5.605
 6352TIP3    H119020   6.364   3.806   5.546
 6352TIP3    H219021   6.465   3.845   5.652
 6353TIP3   OH219022   2.251   4.043   4.848
 6353TIP3    H119023   2.315   3.993   4.900
 6353TIP3    H219024   2.283   4.036   4.758
 6354TIP3   OH219025   5.693   3.397   1.474
 6354TIP3    H119026   5.789   3.398   1.465
 6354TIP3    H219027   5.661   3.409   1.385
 6355TIP3   OH219028   1.246   4.800   0.041
 6355TIP3    H119029   1.313   4.769   0.102
 6355TIP3    H219030   1.251   4.895   0.046
 6356TIP3   OH219031   5.716   0.893   4.102
 6356TIP3    H119032   5.768   0.867   4.026
 6356TIP3    H219033   5.637   0.839   4.097
 6357TIP3   OH219034   3.569   6.385   4.031
 6357TIP3    H119035   3.531   6.374   3.944
 6357TIP3    H219036   3.582   6.479   4.040
 6358TIP3   OH219037   2.610   4.405   2.633
 6358TIP3    H119038   2.629   4.372   2.545
 6358TIP3    H219039   2.561   4.335   2.675
 6359TIP3   OH219040   5.266   0.917   1.612
 6359TIP3    H119041   5.210   0.991   1.635
 6359TIP3    H219042   5.211   0.840   1.625
 6360TIP3   OH219043   7.078   3.601   1.789
 6360TIP3    H119044   7.138   3.646   1.849
 6360TIP3    H219045   7.083   3.652   1.708
 6361TIP3   OH219046   3.815   4.736   3.851
 6361TIP3    H119047   3.734   4.740   3.802
 6361TIP3    H219048   3.807   4.656   3.904
 6362TIP3   OH219049   0.100   4.790   0.538
 6362TIP3    H119050   0.133   4.706   0.570
 6362TIP3    H219051   0.014   4.771   0.502
 6363TIP3   OH219052   2.785   6.257   2.861
 6363TIP3    H119053   2.763   6.343   2.895
 6363TIP3    H219054   2.700   6.220   2.835
 6364TIP3   OH219055   1.020   2.695   0.440
 6364TIP3    H119056   0.954   2.655   0.497
 6364TIP3    H219057   0.979   2.696   0.354
 6365TIP3   OH219058   0.385   3.086   1.884
 6365TIP3    H119059   0.295   3.104   1.911
 6365TIP3    H219060   0.378   3.060   1.793
 6366TIP3   OH219061   6.317   5.868   1.270
 6366TIP3    H119062   6.263   5.941   1.239
 6366TIP3    H219063   6.348   5.896   1.356
 6367TIP3   OH219064   1.454   0.267   0.165
 6367TIP3    H119065   1.496   0.324   0.230
 6367TIP3    H219066   1.441   0.184   0.210
 6368TIP3   OH219067   2.033   4.804   0.662
 6368TIP3    H119068   2.000   4.854   0.587
 6368TIP3    H219069   1.955   4.781   0.711
 6369TIP3   OH219070   6.006   3.931   5.096
 6369TIP3    H119071   5.962   3.989   5.034
 6369TIP3    H219072   6.086   3.904   5.052
 6370TIP3   OH219073   6.841   5.841   3.943
 6370TIP3    H119074   6.760   5.886   3.916
 6370TIP3    H219075   6.911   5.901   3.915
 6371TIP3   OH219076   3.278   5.008   1.510
 6371TIP3    H119077   3.209   5.072   1.527
 6371TIP3    H219078   3.331   5.047   1.441
 6372TIP3   OH219079   3.027   1.686   5.348
 6372TIP3    H119080   3.111   1.665   5.307
 6372TIP3    H219081   2.976   1.606   5.339
 6373TIP3   OH219082   4.407   6.318   2.686
 6373TIP3    H119083   4.336   6.375   2.656
 6373TIP3    H219084   4.396   6.238   2.634
 6374TIP3   OH219085   1.162   0.489   2.853
 6374TIP3    H119086   1.172   0.520   2.763
 6374TIP3    H219087   1.186   0.564   2.907
 6375TIP3   OH219088   4.251   5.157   0.357
 6375TIP3    H119089   4.207   5.203   0.285
 6375TIP3    H219090   4.259   5.067   0.327
 6376TIP3   OH219091   5.394   1.544   3.410
 6376TIP3    H119092   5.406   1.451   3.392
 6376TIP3    H219093   5.478   1.572   3.447
 6377TIP3   OH219094   4.230   4.071   0.925
 6377TIP3    H119095   4.237   4.144   0.987
 6377TIP3    H219096   4.312   4.023   0.936
 6378TIP3   OH219097   6.051   3.809   3.125
 6378TIP3    H119098   5.985   3.783   3.190
 6378TIP3    H219099   6.095   3.884   3.165
 6379TIP3   OH219100   2.578   0.115   5.638
 6379TIP3    H119101   2.579   0.203   5.677
 6379TIP3    H219102   2.514   0.120   5.567
 6380TIP3   OH219103   6.677   0.931   4.180
 6380TIP3    H119104   6.619   0.917   4.255
 6380TIP3    H219105   6.629   0.897   4.105
 6381TIP3   OH219106   5.455   2.288   4.666
 6381TIP3    H119107   5.411   2.257   4.587
 6381TIP3    H219108   5.426   2.227   4.735
 6382TIP3   OH219109   4.719   1.432   1.828
 6382TIP3    H119110   4.766   1.511   1.856
 6382TIP3    H219111   4.748   1.364   1.889
 6383TIP3   OH219112   6.959   3.061   1.877
 6383TIP3    H119113   6.982   3.037   1.787
 6383TIP3    H219114   6.993   3.150   1.888
 6384TIP3   OH219115   3.918   5.909   5.898
 6384TIP3    H119116   3.972   5.880   5.824
 6384TIP3    H219117   3.974   5.898   5.975
 6385TIP3   OH219118   4.399   0.660   4.397
 6385TIP3    H119119   4.307   0.660   4.424
 6385TIP3    H219120   4.414   0.570   4.367
 6386TIP3   OH219121   1.211   1.628   2.087
 6386TIP3    H119122   1.290   1.681   2.099
 6386TIP3    H219123   1.204   1.616   1.993
 6387TIP3   OH219124   7.150   2.320   5.184
 6387TIP3    H119125   7.180   2.293   5.097
 6387TIP3    H219126   7.229   2.354   5.226
 6388TIP3   OH219127   1.255   2.655   0.926
 6388TIP3    H119128   1.299   2.570   0.922
 6388TIP3    H219129   1.326   2.719   0.922
 6389TIP3   OH219130   5.108   3.334   3.923
 6389TIP3    H119131   5.062   3.385   3.856
 6389TIP3    H219132   5.172   3.394   3.960
 6390TIP3   OH219133   5.318   0.142   0.690
 6390TIP3    H119134   5.269   0.061   0.682
 6390TIP3    H219135   5.286   0.183   0.770
 6391TIP3   OH219136   2.866   2.543   3.406
 6391TIP3    H119137   2.863   2.639   3.409
 6391TIP3    H219138   2.795   2.515   3.464
 6392TIP3   OH219139   2.924   0.472   5.754
 6392TIP3    H119140   2.977   0.544   5.721
 6392TIP3    H219141   2.950   0.463   5.846
 6393TIP3   OH219142   6.035   5.376   4.543
 6393TIP3    H119143   6.124   5.369   4.579
 6393TIP3    H219144   5.978   5.364   4.619
 6394TIP3   OH219145   0.476   3.167   0.678
 6394TIP3    H119146   0.393   3.183   0.633
 6394TIP3    H219147   0.451   3.159   0.771
 6395TIP3   OH219148   1.371   2.304   3.800
 6395TIP3    H119149   1.399   2.392   3.823
 6395TIP3    H219150   1.433   2.246   3.844
 6396TIP3   OH219151   6.259   0.404   1.701
 6396TIP3    H119152   6.330   0.414   1.637
 6396TIP3    H219153   6.274   0.318   1.740
 6397TIP3   OH219154   4.373   5.895   4.360
 6397TIP3    H119155   4.399   5.986   4.350
 6397TIP3    H219156   4.415   5.867   4.441
 6398TIP3   OH219157   0.185   2.084   2.266
 6398TIP3    H119158   0.108   2.083   2.209
 6398TIP3    H219159   0.238   2.157   2.235
 6399TIP3   OH219160   5.517   0.431   2.381
 6399TIP3    H119161   5.511   0.367   2.453
 6399TIP3    H219162   5.611   0.437   2.363
 6400TIP3   OH219163   4.121   3.464   0.938
 6400TIP3    H119164   4.036   3.484   0.977
 6400TIP3    H219165   4.183   3.522   0.983
 6401TIP3   OH219166   0.571   3.741   3.566
 6401TIP3    H119167   0.576   3.646   3.570
 6401TIP3    H219168   0.564   3.761   3.473
 6402TIP3   OH219169   4.555   2.406   0.420
 6402TIP3    H119170   4.593   2.424   0.506
 6402TIP3    H219171   4.590   2.321   0.396
 6403TIP3   OH219172   1.953   6.288  -0.008
 6403TIP3    H119173   1.869   6.330   0.011
 6403TIP3    H219174   2.019   6.347   0.031
 6404TIP3   OH219175   6.415   1.451   2.681
 6404TIP3    H119176   6.387   1.536   2.647
 6404TIP3    H219177   6.510   1.450   2.670
 6405TIP3   OH219178   6.351   1.348   2.948
 6405TIP3    H119179   6.383   1.261   2.924
 6405TIP3    H219180   6.353   1.397   2.866
 6406TIP3   OH219181   6.049   5.076   5.198
 6406TIP3    H119182   5.989   5.151   5.198
 6406TIP3    H219183   6.136   5.115   5.197
 6407TIP3   OH219184   5.369   5.782   2.216
 6407TIP3    H119185   5.402   5.827   2.138
 6407TIP3    H219186   5.320   5.849   2.263
 6408TIP3   OH219187   2.705   1.401   2.872
 6408TIP3    H119188   2.781   1.374   2.923
 6408TIP3    H219189   2.738   1.410   2.783
 6409TIP3   OH219190   3.075   1.284   4.620
 6409TIP3    H119191   3.128   1.212   4.586
 6409TIP3    H219192   3.138   1.339   4.667
 6410TIP3   OH219193   3.162   1.861   5.617
 6410TIP3    H119194   3.139   1.785   5.563
 6410TIP3    H219195   3.224   1.826   5.681
 6411TIP3   OH219196   0.349   6.576   2.203
 6411TIP3    H119197   0.259   6.607   2.218
 6411TIP3    H219198   0.395   6.652   2.168
 6412TIP3   OH219199   2.202   6.108   2.474
 6412TIP3    H119200   2.186   6.077   2.564
 6412TIP3    H219201   2.176   6.200   2.475
 6413TIP3   OH219202   6.565   5.685   3.374
 6413TIP3    H119203   6.505   5.620   3.336
 6413TIP3    H219204   6.639   5.688   3.314
 6414TIP3   OH219205   4.953   1.865   0.800
 6414TIP3    H119206   4.899   1.891   0.874
 6414TIP3    H219207   5.033   1.829   0.838
 6415TIP3   OH219208   1.580   4.888   2.487
 6415TIP3    H119209   1.512   4.943   2.526
 6415TIP3    H219210   1.596   4.819   2.551
 6416TIP3   OH219211   4.408   5.424   2.215
 6416TIP3    H119212   4.371   5.461   2.295
 6416TIP3    H219213   4.503   5.440   2.222
 6417TIP3   OH219214   3.713   5.987   4.619
 6417TIP3    H119215   3.765   5.915   4.583
 6417TIP3    H219216   3.629   5.981   4.573
 6418TIP3   OH219217   2.790   5.816   2.072
 6418TIP3    H119218   2.715   5.768   2.108
 6418TIP3    H219219   2.864   5.755   2.079
 6419TIP3   OH219220   5.498   6.068   2.241
 6419TIP3    H119221   5.566   6.128   2.213
 6419TIP3    H219222   5.540   6.016   2.311
 6420TIP3   OH219223   3.882   1.125   4.976
 6420TIP3    H119224   3.964   1.149   5.018
 6420TIP3    H219225   3.865   1.036   5.006
 6421TIP3   OH219226   1.290   2.010   3.042
 6421TIP3    H119227   1.369   2.013   3.096
 6421TIP3    H219228   1.226   2.061   3.091
 6422TIP3   OH219229   3.647   0.871   3.719
 6422TIP3    H119230   3.619   0.782   3.700
 6422TIP3    H219231   3.594   0.898   3.794
 6423TIP3   OH219232   2.500   2.040   5.119
 6423TIP3    H119233   2.473   2.032   5.027
 6423TIP3    H219234   2.589   2.003   5.121
 6424TIP3   OH219235   0.916   5.282   0.824
 6424TIP3    H119236   1.012   5.292   0.821
 6424TIP3    H219237   0.887   5.349   0.886
 6425TIP3   OH219238   0.910   0.098   5.810
 6425TIP3    H119239   0.943   0.044   5.882
 6425TIP3    H219240   0.835   0.049   5.776
 6426TIP3   OH219241   1.674   0.154   5.036
 6426TIP3    H119242   1.620   0.149   4.957
 6426TIP3    H219243   1.724   0.235   5.025
 6427TIP3   OH219244   5.168   5.646   2.657
 6427TIP3    H119245   5.255   5.620   2.630
 6427TIP3    H219246   5.181   5.688   2.742
 6428TIP3   OH219247   1.372   1.278   4.852
 6428TIP3    H119248   1.342   1.319   4.770
 6428TIP3    H219249   1.464   1.256   4.836
 6429TIP3   OH219250   1.294   4.592   2.988
 6429TIP3    H119251   1.208   4.604   3.029
 6429TIP3    H219252   1.302   4.665   2.927
 6430TIP3   OH219253   5.962   4.025   3.496
 6430TIP3    H119254   5.924   3.978   3.421
 6430TIP3    H219255   5.961   4.117   3.470
 6431TIP3   OH219256   6.319   6.277   5.246
 6431TIP3    H119257   6.402   6.314   5.214
 6431TIP3    H219258   6.314   6.191   5.204
 6432TIP3   OH219259   7.002   0.667   0.926
 6432TIP3    H119260   7.007   0.571   0.932
 6432TIP3    H219261   7.093   0.695   0.913
 6433TIP3   OH219262   2.057   3.977   0.743
 6433TIP3    H119263   1.966   3.950   0.730
 6433TIP3    H219264   2.080   3.945   0.831
 6434TIP3   OH219265   2.239   6.596   3.184
 6434TIP3    H119266   2.261   6.664   3.247
 6434TIP3    H219267   2.267   6.514   3.225
 6435TIP3   OH219268   0.685   0.079   0.380
 6435TIP3    H119269   0.616   0.066   0.315
 6435TIP3    H219270   0.654   0.033   0.458
 6436TIP3   OH219271   0.459   1.000   5.127
 6436TIP3    H119272   0.419   0.999   5.214
 6436TIP3    H219273   0.538   1.052   5.138
 6437TIP3   OH219274   5.000   3.369   5.125
 6437TIP3    H119275   4.927   3.356   5.065
 6437TIP3    H219276   4.972   3.324   5.205
 6438TIP3   OH219277   4.732   0.172   4.934
 6438TIP3    H119278   4.810   0.211   4.973
 6438TIP3    H219279   4.702   0.237   4.870
 6439TIP3   OH219280   1.678   6.680   0.065
 6439TIP3    H119281   1.587   6.706   0.049
 6439TIP3    H219282   1.728   6.761   0.054
 6440TIP3   OH219283   0.734   0.919   1.606
 6440TIP3    H119284   0.679   0.940   1.530
 6440TIP3    H219285   0.690   0.961   1.680
 6441TIP3   OH219286   4.965   4.315   2.351
 6441TIP3    H119287   4.959   4.261   2.430
 6441TIP3    H219288   5.056   4.343   2.349
 6442TIP3   OH219289   2.745   2.140   5.530
 6442TIP3    H119290   2.765   2.115   5.439
 6442TIP3    H219291   2.781   2.069   5.583
 6443TIP3   OH219292   4.433   0.553   2.444
 6443TIP3    H119293   4.448   0.629   2.500
 6443TIP3    H219294   4.521   0.518   2.427
 6444TIP3   OH219295   3.390   2.893   4.469
 6444TIP3    H119296   3.307   2.845   4.478
 6444TIP3    H219297   3.458   2.827   4.485
 6445TIP3   OH219298   5.176   2.887   3.312
 6445TIP3    H119299   5.127   2.824   3.259
 6445TIP3    H219300   5.254   2.907   3.260
 6446TIP3   OH219301   6.151   4.808   1.401
 6446TIP3    H119302   6.092   4.870   1.443
 6446TIP3    H219303   6.109   4.788   1.317
 6447TIP3   OH219304   5.983   4.891   3.411
 6447TIP3    H119305   5.999   4.985   3.396
 6447TIP3    H219306   6.070   4.853   3.418
 6448TIP3   OH219307   2.962   0.567   0.947
 6448TIP3    H119308   2.963   0.636   1.014
 6448TIP3    H219309   3.005   0.493   0.989
 6449TIP3   OH219310   5.566   5.532   0.044
 6449TIP3    H119311   5.571   5.449   0.091
 6449TIP3    H219312   5.656   5.564   0.040
 6450TIP3   OH219313   5.912   4.969   3.812
 6450TIP3    H119314   5.988   4.938   3.763
 6450TIP3    H219315   5.945   4.986   3.900
 6451TIP3   OH219316   4.687   3.306   5.159
 6451TIP3    H119317   4.762   3.293   5.216
 6451TIP3    H219318   4.622   3.243   5.190
 6452TIP3   OH219319   2.391   6.532   5.205
 6452TIP3    H119320   2.296   6.526   5.215
 6452TIP3    H219321   2.407   6.622   5.176
 6453TIP3   OH219322   0.495   6.571   1.230
 6453TIP3    H119323   0.550   6.499   1.199
 6453TIP3    H219324   0.442   6.596   1.154
 6454TIP3   OH219325   0.551   4.946   0.434
 6454TIP3    H119326   0.578   5.018   0.377
 6454TIP3    H219327   0.456   4.955   0.441
 6455TIP3   OH219328   2.557   1.587   0.374
 6455TIP3    H119329   2.477   1.538   0.392
 6455TIP3    H219330   2.528   1.678   0.369
 6456TIP3   OH219331   5.554   4.218   5.369
 6456TIP3    H119332   5.581   4.252   5.454
 6456TIP3    H219333   5.459   4.210   5.375
 6457TIP3   OH219334   4.093   4.642  -0.012
 6457TIP3    H119335   4.063   4.555   0.015
 6457TIP3    H219336   4.188   4.640   0.003
 6458TIP3   OH219337   4.001   4.106   0.129
 6458TIP3    H119338   4.026   4.019   0.162
 6458TIP3    H219339   3.962   4.150   0.205
 6459TIP3   OH219340   3.823   2.495   0.977
 6459TIP3    H119341   3.734   2.515   1.006
 6459TIP3    H219342   3.871   2.577   0.989
 6460TIP3   OH219343   3.681   4.646   5.375
 6460TIP3    H119344   3.711   4.657   5.285
 6460TIP3    H219345   3.756   4.670   5.429
 6461TIP3   OH219346   6.108   0.130   3.124
 6461TIP3    H119347   6.169   0.142   3.051
 6461TIP3    H219348   6.021   0.147   3.086
 6462TIP3   OH219349   4.109   4.871   1.433
 6462TIP3    H119350   4.014   4.883   1.446
 6462TIP3    H219351   4.149   4.929   1.498
 6463TIP3   OH219352   3.345   3.502   2.109
 6463TIP3    H119353   3.343   3.407   2.124
 6463TIP3    H219354   3.272   3.536   2.161
 6464TIP3   OH219355   4.724   4.303   1.851
 6464TIP3    H119356   4.752   4.380   1.901
 6464TIP3    H219357   4.668   4.255   1.912
 6465TIP3   OH219358   0.715   6.068   0.526
 6465TIP3    H119359   0.768   6.009   0.473
 6465TIP3    H219360   0.646   6.012   0.563
 6466TIP3   OH219361   3.812   3.805   2.958
 6466TIP3    H119362   3.789   3.898   2.951
 6466TIP3    H219363   3.764   3.762   2.887
 6467TIP3   OH219364   1.311   5.402   4.971
 6467TIP3    H119365   1.293   5.493   4.993
 6467TIP3    H219366   1.226   5.367   4.943
 6468TIP3   OH219367   5.172   0.660   3.400
 6468TIP3    H119368   5.219   0.639   3.319
 6468TIP3    H219369   5.172   0.755   3.404
 6469TIP3   OH219370   3.608   0.656   1.493
 6469TIP3    H119371   3.671   0.591   1.524
 6469TIP3    H219372   3.655   0.706   1.427
 6470TIP3   OH219373   2.974   5.966   0.644
 6470TIP3    H119374   2.992   6.054   0.677
 6470TIP3    H219375   2.905   5.933   0.700
 6471TIP3   OH219376   1.722   6.332   0.110
 6471TIP3    H119377   1.636   6.297   0.085
 6471TIP3    H219378   1.704   6.384   0.189
 6472TIP3   OH219379   6.126   6.305   1.251
 6472TIP3    H119380   6.208   6.336   1.214
 6472TIP3    H219381   6.107   6.365   1.323
 6473TIP3   OH219382   0.786   3.602   2.603
 6473TIP3    H119383   0.867   3.553   2.614
 6473TIP3    H219384   0.718   3.534   2.594
 6474TIP3   OH219385   6.486   1.856   1.183
 6474TIP3    H119386   6.575   1.889   1.175
 6474TIP3    H219387   6.472   1.805   1.103
 6475TIP3   OH219388   6.703   3.305   2.378
 6475TIP3    H119389   6.686   3.222   2.333
 6475TIP3    H219390   6.799   3.310   2.382
 6476TIP3   OH219391   6.106   0.486   2.094
 6476TIP3    H119392   6.017   0.453   2.079
 6476TIP3    H219393   6.103   0.577   2.063
 6477TIP3   OH219394   1.799   3.708   5.007
 6477TIP3    H119395   1.739   3.728   4.936
 6477TIP3    H219396   1.841   3.791   5.027
 6478TIP3   OH219397   2.585   3.415   4.952
 6478TIP3    H119398   2.597   3.326   4.921
 6478TIP3    H219399   2.659   3.431   5.010
 6479TIP3   OH219400   2.781   0.091   2.561
 6479TIP3    H119401   2.875   0.081   2.553
 6479TIP3    H219402   2.762   0.069   2.652
 6480TIP3   OH219403   2.906   3.128   0.573
 6480TIP3    H119404   2.935   3.218   0.581
 6480TIP3    H219405   2.971   3.086   0.516
 6481TIP3   OH219406   1.978   1.652   1.533
 6481TIP3    H119407   2.018   1.671   1.618
 6481TIP3    H219408   2.052   1.633   1.476
 6482TIP3   OH219409   1.277   2.371   5.078
 6482TIP3    H119410   1.333   2.409   5.010
 6482TIP3    H219411   1.190   2.406   5.061
 6483TIP3   OH219412   1.403   3.175   3.042
 6483TIP3    H119413   1.406   3.236   3.116
 6483TIP3    H219414   1.493   3.146   3.031
 6484TIP3   OH219415   6.254   1.815   4.243
 6484TIP3    H119416   6.267   1.721   4.251
 6484TIP3    H219417   6.204   1.839   4.321
 6485TIP3   OH219418   5.196   5.220   3.889
 6485TIP3    H119419   5.185   5.125   3.892
 6485TIP3    H219420   5.271   5.237   3.946
 6486TIP3   OH219421   0.527   1.464   1.110
 6486TIP3    H119422   0.521   1.390   1.050
 6486TIP3    H219423   0.601   1.443   1.167
 6487TIP3   OH219424   5.901   1.055   0.984
 6487TIP3    H119425   5.954   1.090   0.912
 6487TIP3    H219426   5.816   1.098   0.974
 6488TIP3   OH219427   3.052   6.579   1.101
 6488TIP3    H119428   2.991   6.599   1.171
 6488TIP3    H219429   3.015   6.502   1.058
 6489TIP3   OH219430   1.514   2.000   3.229
 6489TIP3    H119431   1.580   1.937   3.198
 6489TIP3    H219432   1.511   1.986   3.324
 6490TIP3   OH219433   3.272   4.921   2.651
 6490TIP3    H119434   3.196   4.871   2.680
 6490TIP3    H219435   3.270   5.000   2.706
 6491TIP3   OH219436   3.124   0.560   4.065
 6491TIP3    H119437   3.080   0.588   3.985
 6491TIP3    H219438   3.165   0.640   4.099
 6492TIP3   OH219439   5.290   1.682   1.777
 6492TIP3    H119440   5.231   1.671   1.851
 6492TIP3    H219441   5.296   1.594   1.738
 6493TIP3   OH219442   6.429   6.590   0.428
 6493TIP3    H119443   6.487   6.635   0.367
 6493TIP3    H219444   6.350   6.644   0.431
 6494TIP3   OH219445   6.991   4.213   3.324
 6494TIP3    H119446   7.029   4.257   3.248
 6494TIP3    H219447   6.920   4.270   3.352
 6495TIP3   OH219448   5.825   6.303   3.810
 6495TIP3    H119449   5.843   6.363   3.883
 6495TIP3    H219450   5.902   6.246   3.806
 6496TIP3   OH219451   5.885   3.557   5.148
 6496TIP3    H119452   5.956   3.494   5.135
 6496TIP3    H219453   5.877   3.602   5.064
 6497TIP3   OH219454   3.100   0.696   3.519
 6497TIP3    H119455   3.064   0.784   3.508
 6497TIP3    H219456   3.109   0.662   3.430
 6498TIP3   OH219457   5.175   3.299   0.992
 6498TIP3    H119458   5.218   3.213   0.987
 6498TIP3    H219459   5.239   3.360   0.955
 6499TIP3   OH219460   1.674   1.576   5.822
 6499TIP3    H119461   1.581   1.556   5.823
 6499TIP3    H219462   1.716   1.497   5.857
 6500TIP3   OH219463   5.846   6.715   1.050
 6500TIP3    H119464   5.931   6.698   1.092
 6500TIP3    H219465   5.857   6.684   0.960
 6501TIP3   OH219466   2.836   2.372   3.762
 6501TIP3    H119467   2.911   2.376   3.821
 6501TIP3    H219468   2.820   2.278   3.749
 6502TIP3   OH219469   4.160   5.944   0.900
 6502TIP3    H119470   4.156   5.883   0.974
 6502TIP3    H219471   4.217   6.014   0.929
 6503TIP3   OH219472   1.212   3.856   4.156
 6503TIP3    H119473   1.158   3.784   4.124
 6503TIP3    H219474   1.150   3.922   4.186
 6504TIP3   OH219475   5.509   1.659   5.305
 6504TIP3    H119476   5.530   1.667   5.398
 6504TIP3    H219477   5.594   1.656   5.261
 6505TIP3   OH219478   3.612   4.857   3.438
 6505TIP3    H119479   3.661   4.940   3.438
 6505TIP3    H219480   3.678   4.790   3.420
 6506TIP3   OH219481   3.640   1.276   1.073
 6506TIP3    H119482   3.650   1.185   1.099
 6506TIP3    H219483   3.673   1.326   1.147
 6507TIP3   OH219484   3.924   6.510   0.684
 6507TIP3    H119485   3.995   6.494   0.746
 6507TIP3    H219486   3.955   6.582   0.629
 6508TIP3   OH219487   6.962   3.351   4.532
 6508TIP3    H119488   6.998   3.271   4.493
 6508TIP3    H219489   7.028   3.419   4.512
 6509TIP3   OH219490   2.866   6.086   3.531
 6509TIP3    H119491   2.832   6.132   3.455
 6509TIP3    H219492   2.948   6.046   3.500
 6510TIP3   OH219493   1.087   0.602   1.700
 6510TIP3    H119494   1.106   0.618   1.608
 6510TIP3    H219495   0.992   0.601   1.705
 6511TIP3   OH219496   1.126   4.717   2.231
 6511TIP3    H119497   1.213   4.678   2.231
 6511TIP3    H219498   1.071   4.653   2.186
 6512TIP3   OH219499   6.326   5.243   0.625
 6512TIP3    H119500   6.381   5.191   0.566
 6512TIP3    H219501   6.313   5.187   0.701
 6513TIP3   OH219502   4.260   2.997   5.032
 6513TIP3    H119503   4.225   2.976   5.118
 6513TIP3    H219504   4.250   2.917   4.981
 6514TIP3   OH219505   3.285   3.340   5.062
 6514TIP3    H119506   3.228   3.411   5.032
 6514TIP3    H219507   3.329   3.375   5.139
 6515TIP3   OH219508   3.096   2.776   2.867
 6515TIP3    H119509   3.091   2.759   2.961
 6515TIP3    H219510   3.032   2.716   2.828
 6516TIP3   OH219511   7.228   1.752   1.128
 6516TIP3    H119512   7.263   1.666   1.149
 6516TIP3    H219513   7.174   1.739   1.050
 6517TIP3   OH219514   5.102   0.035   4.475
 6517TIP3    H119515   5.079   0.058   4.565
 6517TIP3    H219516   5.128   0.117   4.435
 6518TIP3   OH219517   1.722   0.740   4.304
 6518TIP3    H119518   1.685   0.662   4.263
 6518TIP3    H219519   1.694   0.735   4.395
 6519TIP3   OH219520   5.263   1.818   1.507
 6519TIP3    H119521   5.265   1.734   1.553
 6519TIP3    H219522   5.265   1.884   1.576
 6520TIP3   OH219523   2.885   6.300   2.456
 6520TIP3    H119524   2.893   6.312   2.362
 6520TIP3    H219525   2.852   6.385   2.488
 6521TIP3   OH219526   5.527   5.286   0.762
 6521TIP3    H119527   5.587   5.297   0.835
 6521TIP3    H219528   5.530   5.369   0.715
 6522TIP3   OH219529   2.534   3.165   2.903
 6522TIP3    H119530   2.617   3.174   2.951
 6522TIP3    H219531   2.555   3.193   2.814
 6523TIP3   OH219532   1.351   3.604   2.615
 6523TIP3    H119533   1.318   3.691   2.592
 6523TIP3    H219534   1.361   3.606   2.710
 6524TIP3   OH219535   2.988   3.573   4.009
 6524TIP3    H119536   2.903   3.595   3.970
 6524TIP3    H219537   3.050   3.633   3.967
 6525TIP3   OH219538   7.086   6.753   3.614
 6525TIP3    H119539   7.113   6.801   3.535
 6525TIP3    H219540   7.123   6.805   3.686
 6526TIP3   OH219541   5.569   1.174   1.646
 6526TIP3    H119542   5.513   1.251   1.645
 6526TIP3    H219543   5.600   1.167   1.736
 6527TIP3   OH219544   5.809   4.046   2.965
 6527TIP3    H119545   5.887   4.097   2.985
 6527TIP3    H219546   5.747   4.110   2.930
 6528TIP3   OH219547   3.462   5.068   0.688
 6528TIP3    H119548   3.498   5.007   0.624
 6528TIP3    H219549   3.440   5.146   0.636
 6529TIP3   OH219550   3.423   2.155   2.350
 6529TIP3    H119551   3.443   2.065   2.375
 6529TIP3    H219552   3.505   2.203   2.363
 6530TIP3   OH219553   3.311   2.172   3.048
 6530TIP3    H119554   3.239   2.210   2.998
 6530TIP3    H219555   3.388   2.186   2.994
 6531TIP3   OH219556   1.941   6.575   5.556
 6531TIP3    H119557   1.864   6.525   5.584
 6531TIP3    H219558   1.985   6.518   5.492
 6532TIP3   OH219559   2.189   5.388   1.173
 6532TIP3    H119560   2.198   5.410   1.080
 6532TIP3    H219561   2.247   5.313   1.185
 6533TIP3   OH219562   3.091   2.069   4.888
 6533TIP3    H119563   3.056   1.987   4.923
 6533TIP3    H219564   3.106   2.124   4.964
 6534TIP3   OH219565   1.846   6.448   0.549
 6534TIP3    H119566   1.866   6.492   0.466
 6534TIP3    H219567   1.839   6.355   0.526
 6535TIP3   OH219568   3.644   4.070   4.039
 6535TIP3    H119569   3.692   4.010   4.097
 6535TIP3    H219570   3.712   4.123   3.998
 6536TIP3   OH219571   5.235   1.311   2.873
 6536TIP3    H119572   5.261   1.401   2.888
 6536TIP3    H219573   5.317   1.265   2.854
 6537TIP3   OH219574   4.199   1.404   4.854
 6537TIP3    H119575   4.153   1.487   4.836
 6537TIP3    H219576   4.289   1.431   4.870
 6538TIP3   OH219577   2.908   6.258   0.226
 6538TIP3    H119578   2.918   6.353   0.231
 6538TIP3    H219579   2.827   6.240   0.273
 6539TIP3   OH219580   4.707   0.490   2.959
 6539TIP3    H119581   4.679   0.405   2.994
 6539TIP3    H219582   4.627   0.543   2.959
 6540TIP3   OH219583   6.198   4.078   3.161
 6540TIP3    H119584   6.259   4.145   3.193
 6540TIP3    H219585   6.137   4.127   3.106
 6541TIP3   OH219586   5.244   0.492   2.356
 6541TIP3    H119587   5.265   0.434   2.430
 6541TIP3    H219588   5.329   0.526   2.327
 6542TIP3   OH219589   5.659   5.337   1.037
 6542TIP3    H119590   5.580   5.371   1.080
 6542TIP3    H219591   5.730   5.389   1.074
 6543TIP3   OH219592   7.020   2.327   0.926
 6543TIP3    H119593   6.959   2.306   0.996
 6543TIP3    H219594   6.966   2.329   0.847
 6544TIP3   OH219595   1.057   2.903   3.149
 6544TIP3    H119596   0.983   2.960   3.126
 6544TIP3    H219597   1.098   2.883   3.066
 6545TIP3   OH219598   5.743   3.723   1.262
 6545TIP3    H119599   5.791   3.804   1.277
 6545TIP3    H219600   5.806   3.665   1.218
 6546TIP3   OH219601   6.168   2.578   5.757
 6546TIP3    H119602   6.203   2.503   5.805
 6546TIP3    H219603   6.124   2.631   5.824
 6547TIP3   OH219604   6.844   5.799   4.850
 6547TIP3    H119605   6.907   5.868   4.873
 6547TIP3    H219606   6.783   5.842   4.790
 6548TIP3   OH219607   0.319   3.306   5.871
 6548TIP3    H119608   0.240   3.259   5.898
 6548TIP3    H219609   0.286   3.387   5.833
 6549TIP3   OH219610   6.571   3.140   4.690
 6549TIP3    H119611   6.599   3.163   4.779
 6549TIP3    H219612   6.648   3.102   4.649
 6550TIP3   OH219613   6.103   5.957   4.737
 6550TIP3    H119614   6.136   5.974   4.648
 6550TIP3    H219615   6.061   6.039   4.762
 6551TIP3   OH219616   4.238   0.842   0.229
 6551TIP3    H119617   4.261   0.814   0.317
 6551TIP3    H219618   4.233   0.761   0.178
 6552TIP3   OH219619   1.832   0.689   2.095
 6552TIP3    H119620   1.878   0.697   2.178
 6552TIP3    H219621   1.891   0.638   2.040
 6553TIP3   OH219622   5.566   0.414   4.946
 6553TIP3    H119623   5.620   0.461   5.009
 6553TIP3    H219624   5.477   0.441   4.965
 6554TIP3   OH219625   4.723   5.547   5.336
 6554TIP3    H119626   4.763   5.476   5.387
 6554TIP3    H219627   4.736   5.625   5.390
 6555TIP3   OH219628   3.097   4.932   3.901
 6555TIP3    H119629   3.077   4.879   3.824
 6555TIP3    H219630   3.135   5.012   3.867
 6556TIP3   OH219631   0.849   5.157   1.224
 6556TIP3    H119632   0.799   5.202   1.292
 6556TIP3    H219633   0.853   5.219   1.152
 6557TIP3   OH219634   2.699   3.940   2.326
 6557TIP3    H119635   2.624   3.992   2.297
 6557TIP3    H219636   2.669   3.849   2.320
 6558TIP3   OH219637   3.247   6.458   3.956
 6558TIP3    H119638   3.156   6.457   3.929
 6558TIP3    H219639   3.294   6.497   3.882
 6559TIP3   OH219640   2.310   1.158   1.912
 6559TIP3    H119641   2.249   1.139   1.983
 6559TIP3    H219642   2.360   1.077   1.901
 6560TIP3   OH219643   1.216   3.439   1.076
 6560TIP3    H119644   1.129   3.401   1.061
 6560TIP3    H219645   1.198   3.521   1.123
 6561TIP3   OH219646   4.997   0.259   0.513
 6561TIP3    H119647   5.025   0.321   0.580
 6561TIP3    H219648   4.946   0.193   0.559
 6562TIP3   OH219649   0.145   4.817   2.741
 6562TIP3    H119650   0.059   4.859   2.745
 6562TIP3    H219651   0.195   4.869   2.678
 6563TIP3   OH219652   3.684   6.432   0.744
 6563TIP3    H119653   3.627   6.467   0.676
 6563TIP3    H219654   3.772   6.442   0.710
 6564TIP3   OH219655   3.238   1.126   3.441
 6564TIP3    H119656   3.172   1.096   3.503
 6564TIP3    H219657   3.317   1.138   3.494
 6565TIP3   OH219658   1.350   1.398   1.772
 6565TIP3    H119659   1.433   1.374   1.731
 6565TIP3    H219660   1.365   1.386   1.866
 6566TIP3   OH219661   3.260   6.102   3.634
 6566TIP3    H119662   3.286   6.193   3.623
 6566TIP3    H219663   3.193   6.087   3.567
 6567TIP3   OH219664   1.426   5.345   3.578
 6567TIP3    H119665   1.505   5.337   3.631
 6567TIP3    H219666   1.434   5.276   3.512
 6568TIP3   OH219667   5.466   6.131   4.753
 6568TIP3    H119668   5.535   6.189   4.784
 6568TIP3    H219669   5.511   6.049   4.732
 6569TIP3   OH219670   2.472   0.397   3.507
 6569TIP3    H119671   2.398   0.452   3.482
 6569TIP3    H219672   2.487   0.417   3.599
 6570TIP3   OH219673   6.134   4.958   5.442
 6570TIP3    H119674   6.125   4.948   5.347
 6570TIP3    H219675   6.065   4.903   5.479
 6571TIP3   OH219676   1.932   5.605   2.990
 6571TIP3    H119677   1.979   5.688   2.991
 6571TIP3    H219678   1.968   5.557   2.916
 6572TIP3   OH219679   5.029   3.131   4.522
 6572TIP3    H119680   5.124   3.139   4.516
 6572TIP3    H219681   4.998   3.220   4.539
 6573TIP3   OH219682   2.366   5.890   3.960
 6573TIP3    H119683   2.358   5.937   3.877
 6573TIP3    H219684   2.300   5.929   4.017
 6574TIP3   OH219685   1.948   4.638   1.455
 6574TIP3    H119686   2.001   4.714   1.432
 6574TIP3    H219687   1.901   4.617   1.374
 6575TIP3   OH219688   6.152   5.681   1.100
 6575TIP3    H119689   6.068   5.656   1.140
 6575TIP3    H219690   6.205   5.714   1.173
 6576TIP3   OH219691   4.562   2.204   2.610
 6576TIP3    H119692   4.538   2.264   2.681
 6576TIP3    H219693   4.586   2.122   2.654
 6577TIP3   OH219694   1.426   2.349   2.933
 6577TIP3    H119695   1.503   2.354   2.877
 6577TIP3    H219696   1.460   2.320   3.018
 6578TIP3   OH219697   5.069   0.475   1.721
 6578TIP3    H119698   4.986   0.492   1.765
 6578TIP3    H219699   5.072   0.538   1.649
 6579TIP3   OH219700   4.941   2.176   2.207
 6579TIP3    H119701   4.899   2.214   2.284
 6579TIP3    H219702   4.991   2.102   2.240
 6580TIP3   OH219703   0.616   1.052   0.925
 6580TIP3    H119704   0.659   0.980   0.879
 6580TIP3    H219705   0.531   1.016   0.951
 6581TIP3   OH219706   6.662   0.841   2.505
 6581TIP3    H119707   6.646   0.935   2.512
 6581TIP3    H219708   6.575   0.801   2.512
 6582TIP3   OH219709   0.292   0.603   4.103
 6582TIP3    H119710   0.225   0.552   4.058
 6582TIP3    H219711   0.322   0.546   4.173
 6583TIP3   OH219712   5.858   5.326   0.652
 6583TIP3    H119713   5.923   5.259   0.671
 6583TIP3    H219714   5.844   5.371   0.736
 6584TIP3   OH219715   6.707   3.405   3.215
 6584TIP3    H119716   6.641   3.475   3.223
 6584TIP3    H219717   6.656   3.324   3.218
 6585TIP3   OH219718   4.930   1.385   4.789
 6585TIP3    H119719   5.002   1.381   4.852
 6585TIP3    H219720   4.871   1.315   4.817
 6586TIP3   OH219721   0.494   3.719   0.938
 6586TIP3    H119722   0.431   3.667   0.888
 6586TIP3    H219723   0.497   3.677   1.024
 6587TIP3   OH219724   0.357   6.453   5.087
 6587TIP3    H119725   0.399   6.469   5.171
 6587TIP3    H219726   0.428   6.453   5.024
 6588TIP3   OH219727   2.394   3.419   5.749
 6588TIP3    H119728   2.315   3.371   5.774
 6588TIP3    H219729   2.380   3.508   5.780
 6589TIP3   OH219730   0.414   0.528   5.380
 6589TIP3    H119731   0.351   0.546   5.450
 6589TIP3    H219732   0.497   0.560   5.414
 6590TIP3   OH219733   6.412   1.679   5.584
 6590TIP3    H119734   6.446   1.756   5.629
 6590TIP3    H219735   6.346   1.714   5.524
 6591TIP3   OH219736   0.242   5.344   0.721
 6591TIP3    H119737   0.182   5.383   0.785
 6591TIP3    H219738   0.198   5.356   0.637
 6592TIP3   OH219739   0.280   5.215   4.013
 6592TIP3    H119740   0.266   5.288   4.073
 6592TIP3    H219741   0.361   5.174   4.044
 6593TIP3   OH219742   6.365   4.272   2.257
 6593TIP3    H119743   6.311   4.209   2.208
 6593TIP3    H219744   6.446   4.224   2.275
 6594TIP3   OH219745   5.737   6.059   0.676
 6594TIP3    H119746   5.805   6.008   0.631
 6594TIP3    H219747   5.783   6.135   0.710
 6595TIP3   OH219748   3.257   4.707   5.767
 6595TIP3    H119749   3.169   4.674   5.751
 6595TIP3    H219750   3.292   4.650   5.836
 6596TIP3   OH219751   6.494   4.257   0.203
 6596TIP3    H119752   6.507   4.335   0.149
 6596TIP3    H219753   6.403   4.261   0.230
 6597TIP3   OH219754   5.073   0.709   1.576
 6597TIP3    H119755   5.105   0.705   1.486
 6597TIP3    H219756   4.988   0.752   1.570
 6598TIP3   OH219757   5.267   2.565   0.477
 6598TIP3    H119758   5.252   2.567   0.382
 6598TIP3    H219759   5.293   2.474   0.495
 6599TIP3   OH219760   0.780   0.479   2.684
 6599TIP3    H119761   0.730   0.493   2.604
 6599TIP3    H219762   0.757   0.552   2.741
 6600TIP3   OH219763   3.795   0.423   0.177
 6600TIP3    H119764   3.787   0.518   0.175
 6600TIP3    H219765   3.721   0.394   0.230
 6601TIP3   OH219766   3.743   3.913   0.326
 6601TIP3    H119767   3.799   3.986   0.355
 6601TIP3    H219768   3.804   3.843   0.303
 6602TIP3   OH219769   4.713   3.559   0.697
 6602TIP3    H119770   4.691   3.473   0.731
 6602TIP3    H219771   4.807   3.555   0.680
 6603TIP3   OH219772   1.012   6.141   3.785
 6603TIP3    H119773   1.017   6.127   3.690
 6603TIP3    H219774   0.924   6.176   3.800
 6604TIP3   OH219775   6.720   6.332   2.730
 6604TIP3    H119776   6.644   6.284   2.700
 6604TIP3    H219777   6.694   6.424   2.723
 6605TIP3   OH219778   6.505   3.714   2.769
 6605TIP3    H119779   6.588   3.671   2.788
 6605TIP3    H219780   6.444   3.642   2.753
 6606TIP3   OH219781   1.505   3.168   4.616
 6606TIP3    H119782   1.505   3.242   4.677
 6606TIP3    H219783   1.594   3.167   4.579
 6607TIP3   OH219784   7.081   5.311   5.169
 6607TIP3    H119785   7.015   5.245   5.149
 6607TIP3    H219786   7.057   5.386   5.115
 6608TIP3   OH219787   2.749   0.977   4.107
 6608TIP3    H119788   2.824   0.920   4.126
 6608TIP3    H219789   2.781   1.065   4.126
 6609TIP3   OH219790   3.978   0.359   4.263
 6609TIP3    H119791   4.018   0.352   4.349
 6609TIP3    H219792   4.049   0.340   4.202
 6610TIP3   OH219793   3.190   4.484   0.406
 6610TIP3    H119794   3.134   4.561   0.412
 6610TIP3    H219795   3.130   4.411   0.393
 6611TIP3   OH219796   0.250   4.507   4.555
 6611TIP3    H119797   0.310   4.537   4.486
 6611TIP3    H219798   0.306   4.463   4.619
 6612TIP3   OH219799   3.568   6.282   3.618
 6612TIP3    H119800   3.613   6.363   3.637
 6612TIP3    H219801   3.484   6.309   3.581
 6613TIP3   OH219802   2.856   0.172   4.568
 6613TIP3    H119803   2.796   0.135   4.502
 6613TIP3    H219804   2.925   0.107   4.575
 6614TIP3   OH219805   5.460   3.236   4.695
 6614TIP3    H119806   5.544   3.196   4.673
 6614TIP3    H219807   5.434   3.194   4.777
 6615TIP3   OH219808   3.008   4.624   3.116
 6615TIP3    H119809   2.966   4.576   3.045
 6615TIP3    H219810   3.007   4.565   3.190
 6616TIP3   OH219811   5.282   2.520   0.797
 6616TIP3    H119812   5.324   2.521   0.884
 6616TIP3    H219813   5.323   2.593   0.750
 6617TIP3   OH219814   1.158   5.637   0.472
 6617TIP3    H119815   1.199   5.634   0.559
 6617TIP3    H219816   1.077   5.686   0.486
 6618TIP3   OH219817   6.473   2.353   4.308
 6618TIP3    H119818   6.451   2.425   4.248
 6618TIP3    H219819   6.434   2.378   4.392
 6619TIP3   OH219820   4.055   1.870   3.097
 6619TIP3    H119821   4.030   1.803   3.160
 6619TIP3    H219822   3.981   1.931   3.095
 6620TIP3   OH219823   4.479   3.820   2.279
 6620TIP3    H119824   4.431   3.831   2.362
 6620TIP3    H219825   4.450   3.894   2.225
 6621TIP3   OH219826   6.173   6.576   2.814
 6621TIP3    H119827   6.215   6.658   2.789
 6621TIP3    H219828   6.245   6.513   2.818
 6622TIP3   OH219829   3.893   4.171   3.206
 6622TIP3    H119830   3.886   4.266   3.194
 6622TIP3    H219831   3.981   4.158   3.241
 6623TIP3   OH219832   2.457   3.993   0.397
 6623TIP3    H119833   2.436   4.086   0.390
 6623TIP3    H219834   2.397   3.959   0.463
 6624TIP3   OH219835   4.322   2.416   4.925
 6624TIP3    H119836   4.351   2.466   4.848
 6624TIP3    H219837   4.386   2.345   4.932
 6625TIP3   OH219838   2.503   4.775   3.738
 6625TIP3    H119839   2.551   4.827   3.802
 6625TIP3    H219840   2.410   4.792   3.757
 6626TIP3   OH219841   4.180   5.742   0.655
 6626TIP3    H119842   4.178   5.838   0.655
 6626TIP3    H219843   4.090   5.716   0.671
 6627TIP3   OH219844   6.375   4.811   0.614
 6627TIP3    H119845   6.444   4.749   0.637
 6627TIP3    H219846   6.350   4.852   0.697
 6628TIP3   OH219847   2.767   3.230   0.359
 6628TIP3    H119848   2.716   3.157   0.325
 6628TIP3    H219849   2.808   3.197   0.439
 6629TIP3   OH219850   6.693   4.759   0.623
 6629TIP3    H119851   6.754   4.829   0.646
 6629TIP3    H219852   6.708   4.743   0.530
 6630TIP3   OH219853   0.352   6.711   1.684
 6630TIP3    H119854   0.422   6.696   1.747
 6630TIP3    H219855   0.279   6.745   1.737
 6631TIP3   OH219856   6.489   6.100   1.162
 6631TIP3    H119857   6.498   6.072   1.070
 6631TIP3    H219858   6.569   6.070   1.204
 6632TIP3   OH219859   0.655   5.184   3.296
 6632TIP3    H119860   0.575   5.172   3.348
 6632TIP3    H219861   0.688   5.095   3.283
 6633TIP3   OH219862   2.128   1.518   5.635
 6633TIP3    H119863   2.182   1.449   5.674
 6633TIP3    H219864   2.173   1.600   5.657
 6634TIP3   OH219865   1.650   5.290   3.751
 6634TIP3    H119866   1.731   5.338   3.772
 6634TIP3    H219867   1.679   5.200   3.736
 6635TIP3   OH219868   6.622   1.065   2.646
 6635TIP3    H119869   6.628   1.112   2.563
 6635TIP3    H219870   6.530   1.073   2.672
 6636TIP3   OH219871   1.078   0.191   5.021
 6636TIP3    H119872   1.155   0.173   4.968
 6636TIP3    H219873   1.005   0.187   4.959
 6637TIP3   OH219874   0.844   0.546   0.872
 6637TIP3    H119875   0.926   0.513   0.836
 6637TIP3    H219876   0.863   0.637   0.897
 6638TIP3   OH219877   4.685   0.370   4.397
 6638TIP3    H119878   4.753   0.437   4.391
 6638TIP3    H219879   4.603   0.418   4.384
 6639TIP3   OH219880   5.584   6.751   4.230
 6639TIP3    H119881   5.624   6.738   4.144
 6639TIP3    H219882   5.591   6.846   4.245
 6640TIP3   OH219883   5.183   1.321   4.150
 6640TIP3    H119884   5.118   1.369   4.200
 6640TIP3    H219885   5.224   1.386   4.093
 6641TIP3   OH219886   0.809   5.374   5.173
 6641TIP3    H119887   0.729   5.423   5.154
 6641TIP3    H219888   0.812   5.368   5.269
 6642TIP3   OH219889   2.439   6.261   4.408
 6642TIP3    H119890   2.514   6.210   4.379
 6642TIP3    H219891   2.429   6.329   4.341
 6643TIP3   OH219892   4.388   1.663   5.770
 6643TIP3    H119893   4.386   1.567   5.773
 6643TIP3    H219894   4.299   1.688   5.745
 6644TIP3   OH219895   6.964   5.763   2.499
 6644TIP3    H119896   7.027   5.799   2.437
 6644TIP3    H219897   6.914   5.839   2.530
 6645TIP3   OH219898   6.876   6.373   2.172
 6645TIP3    H119899   6.822   6.449   2.191
 6645TIP3    H219900   6.828   6.299   2.211
 6646TIP3   OH219901   6.073   1.390   0.717
 6646TIP3    H119902   6.029   1.421   0.797
 6646TIP3    H219903   6.093   1.298   0.734
 6647TIP3   OH219904   0.265   3.630   4.926
 6647TIP3    H119905   0.268   3.584   4.842
 6647TIP3    H219906   0.303   3.716   4.908
 6648TIP3   OH219907   5.435   3.139   3.459
 6648TIP3    H119908   5.507   3.122   3.399
 6648TIP3    H219909   5.471   3.122   3.546
 6649TIP3   OH219910   3.591   2.342   4.244
 6649TIP3    H119911   3.517   2.349   4.183
 6649TIP3    H219912   3.657   2.401   4.208
 6650TIP3   OH219913   0.469   3.268   0.374
 6650TIP3    H119914   0.511   3.194   0.331
 6650TIP3    H219915   0.413   3.306   0.307
 6651TIP3   OH219916   6.040   2.415   0.652
 6651TIP3    H119917   6.101   2.477   0.691
 6651TIP3    H219918   5.953   2.448   0.676
 6652TIP3   OH219919   3.986   5.678   2.675
 6652TIP3    H119920   4.064   5.732   2.678
 6652TIP3    H219921   3.915   5.735   2.703
 6653TIP3   OH219922   4.008   4.854   5.846
 6653TIP3    H119923   4.095   4.819   5.828
 6653TIP3    H219924   3.950   4.778   5.843
 6654TIP3   OH219925   1.150   1.768   3.058
 6654TIP3    H119926   1.215   1.838   3.054
 6654TIP3    H219927   1.071   1.810   3.091
 6655TIP3   OH219928   4.548   6.787   3.341
 6655TIP3    H119929   4.614   6.768   3.274
 6655TIP3    H219930   4.500   6.705   3.351
 6656TIP3   OH219931   6.709   0.916   5.801
 6656TIP3    H119932   6.799   0.894   5.824
 6656TIP3    H219933   6.717   0.978   5.728
 6657TIP3   OH219934   0.147   3.781   1.938
 6657TIP3    H119935   0.204   3.792   1.862
 6657TIP3    H219936   0.179   3.844   2.001
 6658TIP3   OH219937   5.191   2.116   1.263
 6658TIP3    H119938   5.254   2.138   1.332
 6658TIP3    H219939   5.215   2.173   1.190
 6659TIP3   OH219940   5.290   4.805   1.066
 6659TIP3    H119941   5.330   4.729   1.023
 6659TIP3    H219942   5.251   4.855   0.994
 6660TIP3   OH219943   1.443   0.206   4.049
 6660TIP3    H119944   1.389   0.213   3.971
 6660TIP3    H219945   1.501   0.131   4.033
 6661TIP3   OH219946   4.187   1.384   5.610
 6661TIP3    H119947   4.223   1.467   5.579
 6661TIP3    H219948   4.166   1.399   5.702
 6662TIP3   OH219949   1.509   3.155   4.098
 6662TIP3    H119950   1.554   3.159   4.183
 6662TIP3    H219951   1.473   3.067   4.095
 6663TIP3   OH219952   5.291   5.910   1.564
 6663TIP3    H119953   5.291   6.005   1.562
 6663TIP3    H219954   5.383   5.886   1.579
 6664TIP3   OH219955   1.005   1.388   1.201
 6664TIP3    H119956   1.072   1.321   1.212
 6664TIP3    H219957   0.938   1.348   1.145
 6665TIP3   OH219958   3.506   6.633   4.307
 6665TIP3    H119959   3.503   6.702   4.373
 6665TIP3    H219960   3.599   6.611   4.299
 6666TIP3   OH219961   2.665   3.630   2.049
 6666TIP3    H119962   2.756   3.659   2.056
 6666TIP3    H219963   2.624   3.660   2.130
 6667TIP3   OH219964   2.715   6.718   0.448
 6667TIP3    H119965   2.785   6.737   0.509
 6667TIP3    H219966   2.658   6.656   0.494
 6668TIP3   OH219967   4.641   6.114   3.000
 6668TIP3    H119968   4.584   6.187   3.024
 6668TIP3    H219969   4.581   6.040   2.988
 6669TIP3   OH219970   2.169   5.934   1.626
 6669TIP3    H119971   2.181   5.942   1.531
 6669TIP3    H219972   2.250   5.896   1.658
 6670TIP3   OH219973   2.355   3.577   1.141
 6670TIP3    H119974   2.312   3.517   1.201
 6670TIP3    H219975   2.308   3.660   1.150
 6671TIP3   OH219976   0.850   2.330   1.116
 6671TIP3    H119977   0.921   2.329   1.053
 6671TIP3    H219978   0.856   2.244   1.159
 6672TIP3   OH219979   4.900   4.602   0.390
 6672TIP3    H119980   4.977   4.595   0.446
 6672TIP3    H219981   4.846   4.669   0.432
 6673TIP3   OH219982   5.146   2.466   5.282
 6673TIP3    H119983   5.201   2.455   5.204
 6673TIP3    H219984   5.110   2.554   5.275
 6674TIP3   OH219985   0.578   5.381   5.383
 6674TIP3    H119986   0.578   5.475   5.365
 6674TIP3    H219987   0.490   5.363   5.417
 6675TIP3   OH219988   2.393   3.082   1.148
 6675TIP3    H119989   2.441   3.090   1.066
 6675TIP3    H219990   2.460   3.063   1.213
 6676TIP3   OH219991   3.013   2.824   2.298
 6676TIP3    H119992   2.941   2.841   2.238
 6676TIP3    H219993   3.078   2.778   2.245
 6677TIP3   OH219994   6.205   5.177   5.622
 6677TIP3    H119995   6.170   5.119   5.555
 6677TIP3    H219996   6.292   5.202   5.590
 6678TIP3   OH219997   5.404   5.970   2.641
 6678TIP3    H119998   5.372   5.896   2.590
 6678TIP3    H219999   5.496   5.977   2.618
 6679TIP3   OH220000   1.337   1.297   2.447
 6679TIP3    H120001   1.321   1.300   2.541
 6679TIP3    H220002   1.302   1.380   2.414
 6680TIP3   OH220003   1.448   6.638   4.339
 6680TIP3    H120004   1.398   6.650   4.420
 6680TIP3    H220005   1.538   6.626   4.368
 6681TIP3   OH220006   6.611   3.161   5.550
 6681TIP3    H120007   6.674   3.176   5.620
 6681TIP3    H220008   6.562   3.243   5.544
 6682TIP3   OH220009   4.175   0.572   2.919
 6682TIP3    H120010   4.127   0.602   2.996
 6682TIP3    H220011   4.114   0.581   2.847
 6683TIP3   OH220012   2.034   5.601   4.072
 6683TIP3    H120013   2.103   5.563   4.128
 6683TIP3    H220014   2.074   5.606   3.985
 6684TIP3   OH220015   2.275   5.216   3.672
 6684TIP3    H120016   2.343   5.182   3.731
 6684TIP3    H220017   2.195   5.211   3.723
 6685TIP3   OH220018   1.548   3.543   3.636
 6685TIP3    H120019   1.517   3.617   3.687
 6685TIP3    H220020   1.635   3.568   3.608
 6686TIP3   OH220021   1.796   3.628   0.141
 6686TIP3    H120022   1.786   3.576   0.061
 6686TIP3    H220023   1.890   3.649   0.143
 6687TIP3   OH220024   0.042   2.177   2.867
 6687TIP3    H120025   0.072   2.173   2.776
 6687TIP3    H220026  -0.054   2.184   2.860
 6688TIP3   OH220027   6.044   2.402   2.762
 6688TIP3    H120028   5.964   2.440   2.799
 6688TIP3    H220029   6.088   2.475   2.720
 6689TIP3   OH220030   5.644   6.067   2.504
 6689TIP3    H120031   5.629   6.156   2.474
 6689TIP3    H220032   5.719   6.075   2.564
 6690TIP3   OH220033   4.024   3.148   4.547
 6690TIP3    H120034   3.973   3.069   4.532
 6690TIP3    H220035   4.112   3.126   4.517
 6691TIP3   OH220036   5.738   5.716   0.518
 6691TIP3    H120037   5.659   5.770   0.510
 6691TIP3    H220038   5.792   5.762   0.582
 6692TIP3   OH220039   3.317   0.193   2.339
 6692TIP3    H120040   3.351   0.238   2.261
 6692TIP3    H220041   3.362   0.235   2.412
 6693TIP3   OH220042   0.912   5.363   1.680
 6693TIP3    H120043   0.867   5.316   1.611
 6693TIP3    H220044   0.849   5.429   1.710
 6694TIP3   OH220045   1.788   0.027   2.483
 6694TIP3    H120046   1.826  -0.041   2.539
 6694TIP3    H220047   1.787   0.105   2.538
 6695TIP3   OH220048   6.390   4.083   1.892
 6695TIP3    H120049   6.402   3.990   1.868
 6695TIP3    H220050   6.479   4.118   1.892
 6696TIP3   OH220051   5.578   3.414   1.212
 6696TIP3    H120052   5.509   3.478   1.229
 6696TIP3    H220053   5.629   3.452   1.140
 6697TIP3   OH220054   2.206   5.993   2.988
 6697TIP3    H120055   2.297   5.991   3.018
 6697TIP3    H220056   2.210   5.963   2.897
 6698TIP3   OH220057   3.696   2.219   3.705
 6698TIP3    H120058   3.665   2.179   3.786
 6698TIP3    H220059   3.618   2.229   3.651
 6699TIP3   OH220060   0.473   0.455   1.723
 6699TIP3    H120061   0.554   0.445   1.773
 6699TIP3    H220062   0.405   0.419   1.780
 6700TIP3   OH220063   6.201   5.993   5.129
 6700TIP3    H120064   6.109   5.970   5.141
 6700TIP3    H220065   6.222   5.965   5.040
 6701TIP3   OH220066   4.693   5.585   5.854
 6701TIP3    H120067   4.723   5.501   5.818
 6701TIP3    H220068   4.602   5.592   5.826
 6702TIP3   OH220069   3.201   5.324   2.440
 6702TIP3    H120070   3.282   5.274   2.425
 6702TIP3    H220071   3.214   5.364   2.527
 6703TIP3   OH220072   4.320   3.468   0.224
 6703TIP3    H120073   4.388   3.427   0.171
 6703TIP3    H220074   4.358   3.553   0.249
 6704TIP3   OH220075   7.156   6.188   1.276
 6704TIP3    H120076   7.251   6.195   1.274
 6704TIP3    H220077   7.132   6.151   1.191
 6705TIP3   OH220078   0.090   1.872   4.737
 6705TIP3    H120079   0.010   1.853   4.689
 6705TIP3    H220080   0.138   1.789   4.738
 6706TIP3   OH220081   4.295   2.026   3.199
 6706TIP3    H120082   4.318   2.028   3.292
 6706TIP3    H220083   4.212   1.979   3.195
 6707TIP3   OH220084   0.887   3.381   3.543
 6707TIP3    H120085   0.869   3.302   3.594
 6707TIP3    H220086   0.909   3.447   3.609
 6708TIP3   OH220087   2.970   1.913   1.750
 6708TIP3    H120088   2.922   1.992   1.728
 6708TIP3    H220089   2.923   1.876   1.825
 6709TIP3   OH220090   5.974   4.364   1.901
 6709TIP3    H120091   6.005   4.313   1.826
 6709TIP3    H220092   5.880   4.348   1.904
 6710TIP3   OH220093   2.110   3.193   0.550
 6710TIP3    H120094   2.174   3.223   0.615
 6710TIP3    H220095   2.078   3.110   0.585
 6711TIP3   OH220096   2.327   3.303   1.272
 6711TIP3    H120097   2.361   3.224   1.230
 6711TIP3    H220098   2.232   3.289   1.277
 6712TIP3   OH220099   6.495   2.564   2.254
 6712TIP3    H120100   6.431   2.510   2.208
 6712TIP3    H220101   6.507   2.641   2.198
 6713TIP3   OH220102   7.244   0.164   5.481
 6713TIP3    H120103   7.167   0.132   5.434
 6713TIP3    H220104   7.209   0.228   5.543
 6714TIP3   OH220105   6.120   1.111   2.996
 6714TIP3    H120106   6.126   1.159   2.914
 6714TIP3    H220107   6.129   1.178   3.064
 6715TIP3   OH220108   3.363   2.538   0.924
 6715TIP3    H120109   3.440   2.564   0.976
 6715TIP3    H220110   3.317   2.475   0.979
 6716TIP3   OH220111   4.908   3.923   4.619
 6716TIP3    H120112   4.852   3.915   4.542
 6716TIP3    H220113   4.847   3.933   4.692
 6717TIP3   OH220114   6.868   5.762   0.586
 6717TIP3    H120115   6.807   5.816   0.535
 6717TIP3    H220116   6.816   5.728   0.658
 6718TIP3   OH220117   2.190   4.581   5.142
 6718TIP3    H120118   2.107   4.555   5.180
 6718TIP3    H220119   2.236   4.498   5.126
 6719TIP3   OH220120   3.861   3.464   0.928
 6719TIP3    H120121   3.843   3.495   0.840
 6719TIP3    H220122   3.805   3.386   0.938
 6720TIP3   OH220123   4.610   6.409   2.500
 6720TIP3    H120124   4.561   6.363   2.568
 6720TIP3    H220125   4.702   6.388   2.518
 6721TIP3   OH220126   3.270   2.733   0.771
 6721TIP3    H120127   3.342   2.766   0.716
 6721TIP3    H220128   3.295   2.644   0.793
 6722TIP3   OH220129   0.711   2.457   0.057
 6722TIP3    H120130   0.715   2.502  -0.027
 6722TIP3    H220131   0.732   2.366   0.036
 6723TIP3   OH220132   6.152   0.518   3.264
 6723TIP3    H120133   6.107   0.597   3.294
 6723TIP3    H220134   6.144   0.521   3.168
 6724TIP3   OH220135   1.987   6.536   0.902
 6724TIP3    H120136   2.006   6.460   0.848
 6724TIP3    H220137   2.065   6.547   0.956
 6725TIP3   OH220138   6.701   0.871   0.568
 6725TIP3    H120139   6.650   0.845   0.645
 6725TIP3    H220140   6.792   0.860   0.595
 6726TIP3   OH220141   0.765   5.062   2.718
 6726TIP3    H120142   0.680   5.085   2.680
 6726TIP3    H220143   0.829   5.101   2.659
 6727TIP3   OH220144   5.791   5.950   5.624
 6727TIP3    H120145   5.846   6.018   5.661
 6727TIP3    H220146   5.850   5.876   5.608
 6728TIP3   OH220147   1.785   6.143   2.137
 6728TIP3    H120148   1.695   6.116   2.120
 6728TIP3    H220149   1.819   6.078   2.198
 6729TIP3   OH220150   7.109   2.997   3.890
 6729TIP3    H120151   7.110   2.993   3.794
 6729TIP3    H220152   7.113   2.906   3.918
 6730TIP3   OH220153   2.198   3.741   2.913
 6730TIP3    H120154   2.275   3.702   2.955
 6730TIP3    H220155   2.230   3.825   2.879
 6731TIP3   OH220156   3.229   1.584   2.543
 6731TIP3    H120157   3.318   1.582   2.507
 6731TIP3    H220158   3.178   1.527   2.485
 6732TIP3   OH220159   5.971   0.503   4.073
 6732TIP3    H120160   5.994   0.489   3.982
 6732TIP3    H220161   5.876   0.502   4.075
 6733TIP3   OH220162   7.099   1.992   1.240
 6733TIP3    H120163   7.133   1.907   1.214
 6733TIP3    H220164   7.100   1.990   1.336
 6734TIP3   OH220165   6.069   6.074   3.488
 6734TIP3    H120166   6.148   6.027   3.514
 6734TIP3    H220167   6.099   6.136   3.422
 6735TIP3   OH220168   2.287   3.210   1.863
 6735TIP3    H120169   2.354   3.275   1.883
 6735TIP3    H220170   2.241   3.197   1.946
 6736TIP3   OH220171   0.758   6.514   3.603
 6736TIP3    H120172   0.812   6.446   3.562
 6736TIP3    H220173   0.746   6.484   3.693
 6737TIP3   OH220174   1.183   6.232   2.839
 6737TIP3    H120175   1.240   6.256   2.912
 6737TIP3    H220176   1.186   6.136   2.838
 6738TIP3   OH220177   3.196   2.092   3.957
 6738TIP3    H120178   3.116   2.143   3.967
 6738TIP3    H220179   3.241   2.102   4.041
 6739TIP3   OH220180   5.581   2.708   0.301
 6739TIP3    H120181   5.496   2.682   0.264
 6739TIP3    H220182   5.645   2.659   0.250
 6740TIP3   OH220183   4.450   2.572   2.737
 6740TIP3    H120184   4.385   2.639   2.715
 6740TIP3    H220185   4.525   2.593   2.682
 6741TIP3   OH220186   2.877   5.943   1.531
 6741TIP3    H120187   2.791   5.983   1.521
 6741TIP3    H220188   2.939   6.011   1.506
 6742TIP3   OH220189   2.526   2.035   3.751
 6742TIP3    H120190   2.617   2.031   3.722
 6742TIP3    H220191   2.528   2.091   3.829
 6743TIP3   OH220192   4.940   1.762   2.338
 6743TIP3    H120193   4.971   1.792   2.252
 6743TIP3    H220194   5.008   1.791   2.399
 6744TIP3   OH220195   0.690   6.379   1.180
 6744TIP3    H120196   0.692   6.305   1.119
 6744TIP3    H220197   0.782   6.400   1.195
 6745TIP3   OH220198   3.903   6.228   0.886
 6745TIP3    H120199   3.949   6.312   0.890
 6745TIP3    H220200   3.906   6.195   0.976
 6746TIP3   OH220201   4.354   3.515   4.871
 6746TIP3    H120202   4.448   3.500   4.859
 6746TIP3    H220203   4.319   3.429   4.892
 6747TIP3   OH220204   3.282   6.371   0.937
 6747TIP3    H120205   3.247   6.369   0.848
 6747TIP3    H220206   3.334   6.451   0.940
 6748TIP3   OH220207   5.962   6.684   3.882
 6748TIP3    H120208   6.057   6.690   3.880
 6748TIP3    H220209   5.936   6.740   3.955
 6749TIP3   OH220210   0.943   0.776   2.749
 6749TIP3    H120211   0.973   0.698   2.701
 6749TIP3    H220212   0.945   0.846   2.684
 6750TIP3   OH220213   1.694   2.695   4.105
 6750TIP3    H120214   1.762   2.672   4.168
 6750TIP3    H220215   1.697   2.625   4.040
 6751TIP3   OH220216   3.112   3.104   4.087
 6751TIP3    H120217   3.102   3.109   3.992
 6751TIP3    H220218   3.068   3.182   4.121
 6752TIP3   OH220219   0.573   0.752   1.887
 6752TIP3    H120220   0.541   0.742   1.798
 6752TIP3    H220221   0.518   0.820   1.925
 6753TIP3   OH220222   6.893   4.088   3.033
 6753TIP3    H120223   6.846   4.169   3.052
 6753TIP3    H220224   6.955   4.112   2.964
 6754TIP3   OH220225   5.802   4.705   3.395
 6754TIP3    H120226   5.852   4.783   3.418
 6754TIP3    H220227   5.712   4.727   3.419
 6755TIP3   OH220228   5.007   6.188   4.737
 6755TIP3    H120229   4.914   6.171   4.751
 6755TIP3    H220230   5.045   6.103   4.715
 6756TIP3   OH220231   3.218   4.084   3.108
 6756TIP3    H120232   3.131   4.047   3.125
 6756TIP3    H220233   3.212   4.175   3.137
 6757TIP3   OH220234   4.977   2.955   0.378
 6757TIP3    H120235   5.032   2.883   0.346
 6757TIP3    H220236   5.032   2.999   0.443
 6758TIP3   OH220237   3.005   4.963   2.106
 6758TIP3    H120238   3.000   5.009   2.022
 6758TIP3    H220239   3.000   4.870   2.082
 6759TIP3   OH220240   1.653   0.214   3.310
 6759TIP3    H120241   1.694   0.248   3.230
 6759TIP3    H220242   1.607   0.135   3.282
 6760TIP3   OH220243   2.431   4.861   2.562
 6760TIP3    H120244   2.337   4.881   2.558
 6760TIP3    H220245   2.473   4.933   2.515
 6761TIP3   OH220246   5.976   3.894   1.548
 6761TIP3    H120247   5.956   3.843   1.469
 6761TIP3    H220248   5.901   3.952   1.559
 6762TIP3   OH220249   4.342   3.647   3.148
 6762TIP3    H120250   4.422   3.663   3.199
 6762TIP3    H220251   4.271   3.667   3.208
 6763TIP3   OH220252   1.806   5.744   4.151
 6763TIP3    H120253   1.817   5.830   4.191
 6763TIP3    H220254   1.894   5.719   4.123
 6764TIP3   OH220255   6.212   4.259   0.648
 6764TIP3    H120256   6.199   4.181   0.701
 6764TIP3    H220257   6.199   4.332   0.710
 6765TIP3   OH220258   5.398   2.678   3.327
 6765TIP3    H120259   5.383   2.711   3.239
 6765TIP3    H220260   5.383   2.584   3.321
 6766TIP3   OH220261   6.749   3.682   0.277
 6766TIP3    H120262   6.813   3.619   0.311
 6766TIP3    H220263   6.702   3.633   0.209
 6767TIP3   OH220264   4.335   2.270   3.089
 6767TIP3    H120265   4.420   2.309   3.073
 6767TIP3    H220266   4.350   2.176   3.083
 6768TIP3   OH220267   4.858   4.998   5.298
 6768TIP3    H120268   4.820   4.988   5.211
 6768TIP3    H220269   4.823   4.924   5.348
 6769TIP3   OH220270   4.161   5.119   3.442
 6769TIP3    H120271   4.223   5.189   3.422
 6769TIP3    H220272   4.170   5.057   3.369
 6770TIP3   OH220273   2.357   0.816   4.268
 6770TIP3    H120274   2.385   0.724   4.269
 6770TIP3    H220275   2.433   0.864   4.303
 6771TIP3   OH220276   4.463   3.702   5.566
 6771TIP3    H120277   4.402   3.643   5.523
 6771TIP3    H220278   4.498   3.651   5.639
 6772TIP3   OH220279   2.526   4.438   1.081
 6772TIP3    H120280   2.536   4.449   0.986
 6772TIP3    H220281   2.595   4.493   1.119
 6773TIP3   OH220282   3.866   0.755   2.690
 6773TIP3    H120283   3.802   0.714   2.748
 6773TIP3    H220284   3.819   0.828   2.650
 6774TIP3   OH220285   0.021   1.301   5.149
 6774TIP3    H120286   0.116   1.312   5.145
 6774TIP3    H220287   0.006   1.246   5.226
 6775TIP3   OH220288   6.092   0.159   1.709
 6775TIP3    H120289   6.164   0.181   1.649
 6775TIP3    H220290   6.133   0.105   1.777
 6776TIP3   OH220291   0.586   4.195   0.022
 6776TIP3    H120292   0.617   4.227  -0.062
 6776TIP3    H220293   0.534   4.267   0.058
 6777TIP3   OH220294   1.877   2.604   4.541
 6777TIP3    H120295   1.831   2.556   4.472
 6777TIP3    H220296   1.955   2.551   4.559
 6778TIP3   OH220297   7.192   1.028   0.791
 6778TIP3    H120298   7.111   1.024   0.740
 6778TIP3    H220299   7.224   0.938   0.789
 6779TIP3   OH220300   3.550   4.460   4.511
 6779TIP3    H120301   3.458   4.480   4.492
 6779TIP3    H220302   3.597   4.482   4.430
 6780TIP3   OH220303   1.869   1.333   3.736
 6780TIP3    H120304   1.930   1.386   3.788
 6780TIP3    H220305   1.844   1.390   3.664
 6781TIP3   OH220306   0.764   0.846   4.392
 6781TIP3    H120307   0.724   0.899   4.323
 6781TIP3    H220308   0.735   0.886   4.473
 6782TIP3   OH220309   5.611   2.916   0.840
 6782TIP3    H120310   5.580   2.994   0.886
 6782TIP3    H220311   5.678   2.948   0.780
 6783TIP3   OH220312   5.955   3.820   0.895
 6783TIP3    H120313   6.013   3.751   0.928
 6783TIP3    H220314   5.945   3.801   0.802
 6784TIP3   OH220315   0.407   2.787   3.694
 6784TIP3    H120316   0.385   2.698   3.719
 6784TIP3    H220317   0.360   2.842   3.757
 6785TIP3   OH220318   4.814   6.313   0.697
 6785TIP3    H120319   4.845   6.364   0.772
 6785TIP3    H220320   4.873   6.338   0.626
 6786TIP3   OH220321   0.355   0.897   4.429
 6786TIP3    H120322   0.361   0.919   4.336
 6786TIP3    H220323   0.409   0.819   4.439
 6787TIP3   OH220324   0.976   2.160   5.013
 6787TIP3    H120325   1.046   2.134   4.953
 6787TIP3    H220326   0.928   2.079   5.030
 6788TIP3   OH220327   1.985   2.282   3.773
 6788TIP3    H120328   2.062   2.266   3.719
 6788TIP3    H220329   1.995   2.373   3.803
 6789TIP3   OH220330   6.183   3.838   1.328
 6789TIP3    H120331   6.161   3.887   1.407
 6789TIP3    H220332   6.163   3.898   1.256
 6790TIP3   OH220333   5.589   5.961   0.435
 6790TIP3    H120334   5.662   5.947   0.375
 6790TIP3    H220335   5.600   6.052   0.465
 6791TIP3   OH220336   0.932   6.693   1.161
 6791TIP3    H120337   0.870   6.765   1.152
 6791TIP3    H220338   0.938   6.678   1.255
 6792TIP3   OH220339   5.687   3.352   4.065
 6792TIP3    H120340   5.751   3.423   4.067
 6792TIP3    H220341   5.635   3.364   4.145
 6793TIP3   OH220342   0.644   3.829   5.774
 6793TIP3    H120343   0.555   3.796   5.773
 6793TIP3    H220344   0.645   3.895   5.844
 6794TIP3   OH220345   1.817   5.611   0.623
 6794TIP3    H120346   1.782   5.522   0.621
 6794TIP3    H220347   1.875   5.615   0.547
 6795TIP3   OH220348   4.674   0.885   2.824
 6795TIP3    H120349   4.661   0.835   2.905
 6795TIP3    H220350   4.769   0.883   2.810
 6796TIP3   OH220351   6.839   0.014   0.136
 6796TIP3    H120352   6.864   0.092   0.185
 6796TIP3    H220353   6.792   0.049   0.060
 6797TIP3   OH220354   3.838   4.782   5.573
 6797TIP3    H120355   3.886   4.826   5.503
 6797TIP3    H220356   3.795   4.854   5.621
 6798TIP3   OH220357   0.197   4.517   2.695
 6798TIP3    H120358   0.192   4.606   2.730
 6798TIP3    H220359   0.241   4.467   2.765
 6799TIP3   OH220360   0.327   2.410   4.391
 6799TIP3    H120361   0.310   2.415   4.485
 6799TIP3    H220362   0.241   2.425   4.350
 6800TIP3   OH220363   6.888   4.153   4.456
 6800TIP3    H120364   6.903   4.067   4.494
 6800TIP3    H220365   6.927   4.148   4.369
 6801TIP3   OH220366   6.871   1.388   2.749
 6801TIP3    H120367   6.873   1.465   2.805
 6801TIP3    H220368   6.823   1.322   2.800
 6802TIP3   OH220369   2.231   0.505   4.559
 6802TIP3    H120370   2.259   0.570   4.624
 6802TIP3    H220371   2.152   0.543   4.520
 6803TIP3   OH220372   0.077   5.221   2.580
 6803TIP3    H120373   0.154   5.277   2.567
 6803TIP3    H220374   0.113   5.135   2.601
 6804TIP3   OH220375   5.138   6.711   4.850
 6804TIP3    H120376   5.113   6.619   4.840
 6804TIP3    H220377   5.077   6.759   4.793
 6805TIP3   OH220378   5.573   4.345   2.645
 6805TIP3    H120379   5.638   4.322   2.711
 6805TIP3    H220380   5.557   4.439   2.658
 6806TIP3   OH220381   1.656   2.373   1.383
 6806TIP3    H120382   1.712   2.390   1.459
 6806TIP3    H220383   1.668   2.450   1.328
 6807TIP3   OH220384   4.727   3.954   0.782
 6807TIP3    H120385   4.702   4.045   0.769
 6807TIP3    H220386   4.797   3.957   0.847
 6808TIP3   OH220387   6.990   1.878   2.361
 6808TIP3    H120388   6.971   1.960   2.407
 6808TIP3    H220389   6.987   1.901   2.269
 6809TIP3   OH220390   1.045   2.209   4.371
 6809TIP3    H120391   1.002   2.164   4.297
 6809TIP3    H220392   0.979   2.210   4.440
 6810TIP3   OH220393   5.646   0.707   5.442
 6810TIP3    H120394   5.646   0.729   5.535
 6810TIP3    H220395   5.621   0.615   5.439
 6811TIP3   OH220396   1.403   0.576   4.175
 6811TIP3    H120397   1.424   0.661   4.213
 6811TIP3    H220398   1.349   0.597   4.098
 6812TIP3   OH220399   0.643   1.494   4.419
 6812TIP3    H120400   0.551   1.517   4.427
 6812TIP3    H220401   0.647   1.401   4.441
 6813TIP3   OH220402   2.125   6.203   2.204
 6813TIP3    H120403   2.121   6.270   2.273
 6813TIP3    H220404   2.089   6.124   2.244
 6814TIP3   OH220405   6.297   0.960   2.497
 6814TIP3    H120406   6.270   0.871   2.519
 6814TIP3    H220407   6.355   0.949   2.421
 6815TIP3   OH220408   5.113   0.211   0.899
 6815TIP3    H120409   5.150   0.288   0.943
 6815TIP3    H220410   5.025   0.203   0.936
 6816TIP3   OH220411   2.398   6.735   4.228
 6816TIP3    H120412   2.383   6.670   4.160
 6816TIP3    H220413   2.346   6.705   4.302
 6817TIP3   OH220414   1.316   2.967   4.177
 6817TIP3    H120415   1.350   2.878   4.167
 6817TIP3    H220416   1.254   2.978   4.105
 6818TIP3   OH220417   4.818   1.171   1.695
 6818TIP3    H120418   4.810   1.211   1.781
 6818TIP3    H220419   4.796   1.242   1.634
 6819TIP3   OH220420   4.475   4.590   0.311
 6819TIP3    H120421   4.477   4.577   0.406
 6819TIP3    H220422   4.421   4.669   0.299
 6820TIP3   OH220423   4.286   4.526   2.241
 6820TIP3    H120424   4.315   4.469   2.312
 6820TIP3    H220425   4.345   4.506   2.168
 6821TIP3   OH220426   5.775   4.264   3.590
 6821TIP3    H120427   5.757   4.340   3.646
 6821TIP3    H220428   5.844   4.216   3.636
 6822TIP3   OH220429   3.069   0.050   0.479
 6822TIP3    H120430   3.109   0.021   0.397
 6822TIP3    H220431   3.116   0.131   0.501
 6823TIP3   OH220432   2.923   5.553   1.821
 6823TIP3    H120433   2.922   5.532   1.914
 6823TIP3    H220434   2.949   5.645   1.817
 6824TIP3   OH220435   4.462   1.388   5.767
 6824TIP3    H120436   4.484   1.352   5.680
 6824TIP3    H220437   4.382   1.342   5.792
 6825TIP3   OH220438   4.481   1.031   1.388
 6825TIP3    H120439   4.465   1.114   1.432
 6825TIP3    H220440   4.404   1.017   1.333
 6826TIP3   OH220441   5.748   4.286   2.414
 6826TIP3    H120442   5.813   4.233   2.460
 6826TIP3    H220443   5.690   4.319   2.484
 6827TIP3   OH220444   1.369   6.421   0.570
 6827TIP3    H120445   1.461   6.417   0.597
 6827TIP3    H220446   1.325   6.358   0.628
 6828TIP3   OH220447   0.525   1.088   5.638
 6828TIP3    H120448   0.489   1.114   5.723
 6828TIP3    H220449   0.598   1.148   5.624
 6829TIP3   OH220450   5.331   4.251   0.882
 6829TIP3    H120451   5.356   4.195   0.956
 6829TIP3    H220452   5.412   4.299   0.860
 6830TIP3   OH220453   3.969   5.237   4.119
 6830TIP3    H120454   3.962   5.261   4.026
 6830TIP3    H220455   3.905   5.167   4.130
 6831TIP3   OH220456   0.907   1.479   3.194
 6831TIP3    H120457   0.826   1.530   3.199
 6831TIP3    H220458   0.929   1.459   3.285
 6832TIP3   OH220459   7.021   0.997   1.840
 6832TIP3    H120460   7.057   1.069   1.891
 6832TIP3    H220461   6.965   1.039   1.774
 6833TIP3   OH220462   0.065   3.375   0.745
 6833TIP3    H120463  -0.021   3.346   0.776
 6833TIP3    H220464   0.070   3.467   0.769
 6834TIP3   OH220465   4.584   2.196   0.713
 6834TIP3    H120466   4.661   2.164   0.760
 6834TIP3    H220467   4.514   2.195   0.779
 6835TIP3   OH220468   6.687   5.280   3.950
 6835TIP3    H120469   6.772   5.298   3.909
 6835TIP3    H220470   6.698   5.193   3.990
 6836TIP3   OH220471   4.305   5.148   5.559
 6836TIP3    H120472   4.300   5.183   5.470
 6836TIP3    H220473   4.265   5.061   5.554
 6837TIP3   OH220474   4.623   2.556   0.726
 6837TIP3    H120475   4.667   2.637   0.699
 6837TIP3    H220476   4.674   2.527   0.802
 6838TIP3   OH220477   2.555   0.910   2.240
 6838TIP3    H120478   2.530   1.002   2.249
 6838TIP3    H220479   2.628   0.898   2.301
 6839TIP3   OH220480   6.128   3.570   0.805
 6839TIP3    H120481   6.182   3.643   0.774
 6839TIP3    H220482   6.081   3.540   0.727
 6840TIP3   OH220483   0.347   3.434   3.527
 6840TIP3    H120484   0.443   3.437   3.524
 6840TIP3    H220485   0.323   3.496   3.597
 6841TIP3   OH220486   4.175   4.723   4.131
 6841TIP3    H120487   4.157   4.765   4.047
 6841TIP3    H220488   4.152   4.631   4.117
 6842TIP3   OH220489   1.966   4.477   0.774
 6842TIP3    H120490   1.975   4.562   0.816
 6842TIP3    H220491   1.909   4.493   0.698
 6843TIP3   OH220492   0.874   0.102   4.798
 6843TIP3    H120493   0.813   0.037   4.832
 6843TIP3    H220494   0.896   0.070   4.710
 6844TIP3   OH220495   3.613   2.717   5.655
 6844TIP3    H120496   3.586   2.628   5.636
 6844TIP3    H220497   3.556   2.772   5.600
 6845TIP3   OH220498   4.040   3.301   4.793
 6845TIP3    H120499   3.953   3.341   4.799
 6845TIP3    H220500   4.040   3.256   4.708
 6846TIP3   OH220501   7.066   0.529   3.085
 6846TIP3    H120502   6.992   0.505   3.141
 6846TIP3    H220503   7.143   0.498   3.133
 6847TIP3   OH220504   0.188   3.345   1.190
 6847TIP3    H120505   0.228   3.369   1.274
 6847TIP3    H220506   0.135   3.420   1.166
 6848TIP3   OH220507   6.360   2.879   0.714
 6848TIP3    H120508   6.306   2.955   0.733
 6848TIP3    H220509   6.448   2.904   0.743
 6849TIP3   OH220510   6.231   1.626   3.016
 6849TIP3    H120511   6.278   1.709   3.023
 6849TIP3    H220512   6.299   1.559   3.022
 6850TIP3   OH220513   6.137   5.288   3.220
 6850TIP3    H120514   6.137   5.384   3.225
 6850TIP3    H220515   6.225   5.266   3.189
 6851TIP3   OH220516   1.519   1.443   3.816
 6851TIP3    H120517   1.573   1.518   3.788
 6851TIP3    H220518   1.558   1.368   3.772
 6852TIP3   OH220519   5.372   2.101   5.752
 6852TIP3    H120520   5.277   2.099   5.748
 6852TIP3    H220521   5.400   2.114   5.662
 6853TIP3   OH220522   5.286   3.521   5.558
 6853TIP3    H120523   5.335   3.576   5.619
 6853TIP3    H220524   5.237   3.582   5.505
 6854TIP3   OH220525   4.604   3.739   4.655
 6854TIP3    H120526   4.629   3.742   4.747
 6854TIP3    H220527   4.551   3.660   4.646
 6855TIP3   OH220528   5.460   5.802   0.639
 6855TIP3    H120529   5.369   5.772   0.627
 6855TIP3    H220530   5.482   5.846   0.557
 6856TIP3   OH220531   5.711   4.129   0.060
 6856TIP3    H120532   5.682   4.047   0.100
 6856TIP3    H220533   5.763   4.172   0.128
 6857TIP3   OH220534   6.272   5.445   0.446
 6857TIP3    H120535   6.363   5.426   0.423
 6857TIP3    H220536   6.261   5.406   0.532
 6858TIP3   OH220537   0.929   2.037   2.874
 6858TIP3    H120538   0.983   2.027   2.796
 6858TIP3    H220539   0.973   2.105   2.926
 6859TIP3   OH220540   2.265   4.634   5.451
 6859TIP3    H120541   2.227   4.648   5.364
 6859TIP3    H220542   2.285   4.721   5.484
 6860TIP3   OH220543   2.038   1.498   5.151
 6860TIP3    H120544   2.105   1.485   5.217
 6860TIP3    H220545   1.955   1.499   5.199
 6861TIP3   OH220546   6.875   4.755   2.682
 6861TIP3    H120547   6.792   4.795   2.706
 6861TIP3    H220548   6.886   4.683   2.744
 6862TIP3   OH220549   0.991   4.896   2.391
 6862TIP3    H120550   0.964   4.972   2.339
 6862TIP3    H220551   1.036   4.839   2.329
 6863TIP3   OH220552   3.917   0.672   1.633
 6863TIP3    H120553   3.898   0.590   1.678
 6863TIP3    H220554   3.853   0.734   1.668
 6864TIP3   OH220555   5.059   1.091   1.612
 6864TIP3    H120556   4.965   1.096   1.633
 6864TIP3    H220557   5.075   1.170   1.561
 6865TIP3   OH220558   2.014   3.944   5.739
 6865TIP3    H120559   2.080   3.937   5.671
 6865TIP3    H220560   2.062   3.936   5.821
 6866TIP3   OH220561   5.564   4.568   2.307
 6866TIP3    H120562   5.624   4.520   2.364
 6866TIP3    H220563   5.541   4.646   2.357
 6867TIP3   OH220564   6.669   0.176   2.220
 6867TIP3    H120565   6.666   0.109   2.288
 6867TIP3    H220566   6.763   0.190   2.203
 6868TIP3   OH220567   0.217   1.286   2.085
 6868TIP3    H120568   0.304   1.250   2.098
 6868TIP3    H220569   0.206   1.288   1.989
 6869TIP3   OH220570   2.557   2.089   0.270
 6869TIP3    H120571   2.610   2.118   0.344
 6869TIP3    H220572   2.501   2.164   0.250
 6870TIP3   OH220573   5.423   1.334   4.876
 6870TIP3    H120574   5.428   1.280   4.955
 6870TIP3    H220575   5.340   1.380   4.885
 6871TIP3   OH220576   3.858   6.239   4.215
 6871TIP3    H120577   3.805   6.160   4.226
 6871TIP3    H220578   3.945   6.206   4.190
 6872TIP3   OH220579   4.072   4.593   1.504
 6872TIP3    H120580   4.101   4.676   1.467
 6872TIP3    H220581   4.045   4.614   1.593
 6873TIP3   OH220582   0.613   4.965   0.711
 6873TIP3    H120583   0.523   4.977   0.740
 6873TIP3    H220584   0.606   4.956   0.615
 6874TIP3   OH220585   2.897   2.926   1.745
 6874TIP3    H120586   2.822   2.905   1.689
 6874TIP3    H220587   2.889   2.866   1.819
 6875TIP3   OH220588   5.896   0.388   4.562
 6875TIP3    H120589   5.925   0.330   4.492
 6875TIP3    H220590   5.885   0.331   4.638
 6876TIP3   OH220591   2.719   1.116   1.538
 6876TIP3    H120592   2.691   1.031   1.504
 6876TIP3    H220593   2.767   1.157   1.466
 6877TIP3   OH220594   6.508   1.219   5.501
 6877TIP3    H120595   6.513   1.306   5.462
 6877TIP3    H220596   6.596   1.202   5.535
 6878TIP3   OH220597   6.948   4.407   2.013
 6878TIP3    H120598   6.917   4.452   1.934
 6878TIP3    H220599   7.011   4.467   2.052
 6879TIP3   OH220600   0.729   0.316   4.043
 6879TIP3    H120601   0.809   0.368   4.032
 6879TIP3    H220602   0.731   0.253   3.971
 6880TIP3   OH220603   1.308   2.267   5.422
 6880TIP3    H120604   1.339   2.254   5.332
 6880TIP3    H220605   1.375   2.225   5.477
 6881TIP3   OH220606   0.805   2.453   1.547
 6881TIP3    H120607   0.734   2.391   1.535
 6881TIP3    H220608   0.822   2.487   1.459
 6882TIP3   OH220609   0.663   5.777   1.245
 6882TIP3    H120610   0.724   5.804   1.314
 6882TIP3    H220611   0.661   5.851   1.184
 6883TIP3   OH220612   3.908   1.344   3.677
 6883TIP3    H120613   3.951   1.277   3.730
 6883TIP3    H220614   3.912   1.310   3.588
 6884TIP3   OH220615   0.143   3.304   5.168
 6884TIP3    H120616   0.195   3.244   5.222
 6884TIP3    H220617   0.054   3.270   5.174
 6885TIP3   OH220618   2.590   6.621   0.804
 6885TIP3    H120619   2.595   6.566   0.883
 6885TIP3    H220620   2.680   6.649   0.789
 6886TIP3   OH220621   3.510   0.428   5.455
 6886TIP3    H120622   3.540   0.505   5.407
 6886TIP3    H220623   3.562   0.428   5.535
 6887TIP3   OH220624   4.030   3.448   5.215
 6887TIP3    H120625   3.942   3.450   5.176
 6887TIP3    H220626   4.070   3.530   5.189
 6888TIP3   OH220627   1.659   4.823   4.827
 6888TIP3    H120628   1.625   4.815   4.738
 6888TIP3    H220629   1.751   4.795   4.820
 6889TIP3   OH220630   6.757   0.147   5.769
 6889TIP3    H120631   6.801   0.077   5.720
 6889TIP3    H220632   6.666   0.118   5.776
 6890TIP3   OH220633   0.688   4.090   5.603
 6890TIP3    H120634   0.608   4.133   5.573
 6890TIP3    H220635   0.661   4.001   5.623
 6891TIP3   OH220636   1.313   1.545   4.152
 6891TIP3    H120637   1.394   1.586   4.183
 6891TIP3    H220638   1.261   1.530   4.231
 6892TIP3   OH220639   2.664   5.014   0.086
 6892TIP3    H120640   2.745   4.979   0.124
 6892TIP3    H220641   2.659   4.974  -0.001
 6893TIP3   OH220642   0.455   0.000   3.941
 6893TIP3    H120643   0.531   0.023   3.888
 6893TIP3    H220644   0.489  -0.061   4.006
 6894TIP3   OH220645   0.147   5.119   2.055
 6894TIP3    H120646   0.209   5.062   2.100
 6894TIP3    H220647   0.078   5.135   2.119
 6895TIP3   OH220648   2.360   4.952   4.774
 6895TIP3    H120649   2.284   4.965   4.716
 6895TIP3    H220650   2.330   4.887   4.838
 6896TIP3   OH220651   6.380   0.950   4.036
 6896TIP3    H120652   6.316   0.889   4.072
 6896TIP3    H220653   6.380   0.933   3.942
 6897TIP3   OH220654   5.921   6.753   4.162
 6897TIP3    H120655   5.962   6.701   4.232
 6897TIP3    H220656   5.880   6.827   4.208
 6898TIP3   OH220657   3.602   4.430   5.603
 6898TIP3    H120658   3.612   4.455   5.511
 6898TIP3    H220659   3.514   4.394   5.609
 6899TIP3   OH220660   2.149   6.491   0.055
 6899TIP3    H120661   2.180   6.555   0.120
 6899TIP3    H220662   2.217   6.423   0.055
 6900TIP3   OH220663   4.656   3.507   2.815
 6900TIP3    H120664   4.704   3.467   2.887
 6900TIP3    H220665   4.711   3.491   2.738
 6901TIP3   OH220666   0.058   1.400   2.906
 6901TIP3    H120667   0.003   1.328   2.874
 6901TIP3    H220668   0.138   1.357   2.938
 6902TIP3   OH220669   2.963   0.372   3.799
 6902TIP3    H120670   2.923   0.356   3.884
 6902TIP3    H220671   3.007   0.456   3.808
 6903TIP3   OH220672   6.960   6.570   2.609
 6903TIP3    H120673   6.995   6.502   2.551
 6903TIP3    H220674   7.036   6.625   2.629
 6904TIP3   OH220675   2.831   6.759   0.982
 6904TIP3    H120676   2.790   6.840   0.953
 6904TIP3    H220677   2.901   6.787   1.042
 6905TIP3   OH220678   4.853   3.225   3.650
 6905TIP3    H120679   4.794   3.150   3.644
 6905TIP3    H220680   4.799   3.295   3.686
 6906TIP3   OH220681   0.067   3.868   4.544
 6906TIP3    H120682   0.080   3.941   4.484
 6906TIP3    H220683   0.091   3.903   4.630
 6907TIP3   OH220684   6.574   3.270   3.477
 6907TIP3    H120685   6.638   3.340   3.466
 6907TIP3    H220686   6.527   3.267   3.394
 6908TIP3   OH220687   5.269   4.313   5.708
 6908TIP3    H120688   5.305   4.279   5.790
 6908TIP3    H220689   5.307   4.257   5.640
 6909TIP3   OH220690   1.895   4.140   1.167
 6909TIP3    H120691   1.872   4.198   1.095
 6909TIP3    H220692   1.935   4.197   1.232
 6910TIP3   OH220693   6.697   4.077   5.876
 6910TIP3    H120694   6.713   3.996   5.828
 6910TIP3    H220695   6.783   4.120   5.879
 6911TIP3   OH220696   3.754   5.464   5.491
 6911TIP3    H120697   3.732   5.393   5.429
 6911TIP3    H220698   3.848   5.474   5.482
 6912TIP3   OH220699   3.143   6.653   3.313
 6912TIP3    H120700   3.105   6.630   3.398
 6912TIP3    H220701   3.073   6.699   3.267
 6913TIP3   OH220702   4.397   2.923   1.373
 6913TIP3    H120703   4.470   2.907   1.313
 6913TIP3    H220704   4.321   2.890   1.327
 6914TIP3   OH220705   0.624   3.513   3.002
 6914TIP3    H120706   0.647   3.602   3.031
 6914TIP3    H220707   0.691   3.457   3.041
 6915TIP3   OH220708   4.628   4.787   3.406
 6915TIP3    H120709   4.640   4.842   3.329
 6915TIP3    H220710   4.608   4.700   3.371
 6916TIP3   OH220711   0.425   6.542   0.524
 6916TIP3    H120712   0.516   6.552   0.497
 6916TIP3    H220713   0.375   6.541   0.442
 6917TIP3   OH220714   4.764   1.600   0.602
 6917TIP3    H120715   4.763   1.525   0.543
 6917TIP3    H220716   4.708   1.665   0.559
 6918TIP3   OH220717   3.278   4.120   5.390
 6918TIP3    H120718   3.275   4.111   5.295
 6918TIP3    H220719   3.326   4.201   5.406
 6919TIP3   OH220720   4.361   3.634   0.743
 6919TIP3    H120721   4.277   3.592   0.759
 6919TIP3    H220722   4.378   3.684   0.823
 6920TIP3   OH220723   3.680   4.930   1.007
 6920TIP3    H120724   3.678   4.903   0.915
 6920TIP3    H220725   3.628   5.010   1.010
 6921TIP3   OH220726   1.955   0.140   3.441
 6921TIP3    H120727   1.880   0.163   3.496
 6921TIP3    H220728   2.030   0.177   3.487
 6922TIP3   OH220729   3.446   6.110   5.388
 6922TIP3    H120730   3.478   6.173   5.323
 6922TIP3    H220731   3.525   6.065   5.419
 6923TIP3   OH220732   7.162   1.181   2.761
 6923TIP3    H120733   7.078   1.156   2.722
 6923TIP3    H220734   7.225   1.173   2.690
 6924TIP3   OH220735   6.516   6.395   2.146
 6924TIP3    H120736   6.542   6.463   2.208
 6924TIP3    H220737   6.570   6.319   2.169
 6925TIP3   OH220738   2.659   6.699   1.214
 6925TIP3    H120739   2.690   6.736   1.131
 6925TIP3    H220740   2.567   6.679   1.198
 6926TIP3   OH220741   3.480   0.677   1.720
 6926TIP3    H120742   3.531   0.605   1.758
 6926TIP3    H220743   3.489   0.664   1.625
 6927TIP3   OH220744   4.224   5.052   4.888
 6927TIP3    H120745   4.309   5.095   4.875
 6927TIP3    H220746   4.220   4.987   4.819
 6928TIP3   OH220747   1.804   3.744   0.406
 6928TIP3    H120748   1.811   3.705   0.318
 6928TIP3    H220749   1.833   3.835   0.394
 6929TIP3   OH220750   3.485   2.481   2.540
 6929TIP3    H120751   3.494   2.395   2.580
 6929TIP3    H220752   3.541   2.538   2.592
 6930TIP3   OH220753   4.779   4.003   4.138
 6930TIP3    H120754   4.735   3.926   4.101
 6930TIP3    H220755   4.872   3.985   4.124
 6931TIP3   OH220756   0.276   1.309   3.085
 6931TIP3    H120757   0.357   1.310   3.137
 6931TIP3    H220758   0.291   1.243   3.018
 6932TIP3   OH220759   6.622   2.763   3.692
 6932TIP3    H120760   6.580   2.776   3.607
 6932TIP3    H220761   6.677   2.840   3.704
 6933TIP3   OH220762   6.943   5.482   2.461
 6933TIP3    H120763   6.953   5.471   2.367
 6933TIP3    H220764   6.938   5.577   2.474
 6934TIP3   OH220765   0.205   0.925   2.561
 6934TIP3    H120766   0.183   1.012   2.529
 6934TIP3    H220767   0.255   0.942   2.642
 6935TIP3   OH220768   3.414   1.211   0.662
 6935TIP3    H120769   3.490   1.160   0.691
 6935TIP3    H220770   3.376   1.245   0.743
 6936TIP3   OH220771   6.498   0.052   0.702
 6936TIP3    H120772   6.465   0.011   0.622
 6936TIP3    H220773   6.544  -0.019   0.748
 6937TIP3   OH220774   3.437   4.602   3.358
 6937TIP3    H120775   3.429   4.624   3.265
 6937TIP3    H220776   3.530   4.585   3.370
 6938TIP3   OH220777   0.993   0.538   5.513
 6938TIP3    H120778   1.088   0.540   5.500
 6938TIP3    H220779   0.956   0.561   5.428
 6939TIP3   OH220780   1.853   5.972   2.349
 6939TIP3    H120781   1.802   5.925   2.414
 6939TIP3    H220782   1.911   5.905   2.311
 6940TIP3   OH220783   5.721   4.998   3.616
 6940TIP3    H120784   5.799   5.001   3.672
 6940TIP3    H220785   5.648   4.986   3.676
 6941TIP3   OH220786   1.123   5.184   4.756
 6941TIP3    H120787   1.046   5.128   4.762
 6941TIP3    H220788   1.094   5.268   4.791
 6942TIP3   OH220789   4.655   5.900   4.786
 6942TIP3    H120790   4.675   5.859   4.701
 6942TIP3    H220791   4.646   5.993   4.766
 6943TIP3   OH220792   4.885   2.550   3.596
 6943TIP3    H120793   4.980   2.551   3.581
 6943TIP3    H220794   4.875   2.517   3.685
 6944TIP3   OH220795   1.175   1.138   0.612
 6944TIP3    H120796   1.174   1.042   0.605
 6944TIP3    H220797   1.234   1.167   0.542
 6945TIP3   OH220798   6.426   6.761   5.219
 6945TIP3    H120799   6.488   6.826   5.187
 6945TIP3    H220800   6.476   6.680   5.225
 6946TIP3   OH220801   3.278   1.158   5.727
 6946TIP3    H120802   3.352   1.207   5.692
 6946TIP3    H220803   3.287   1.070   5.689
 6947TIP3   OH220804   5.841   1.721   4.969
 6947TIP3    H120805   5.778   1.788   4.996
 6947TIP3    H220806   5.795   1.638   4.982
 6948TIP3   OH220807   2.542   5.810   1.347
 6948TIP3    H120808   2.572   5.727   1.309
 6948TIP3    H220809   2.621   5.853   1.376
 6949TIP3   OH220810   3.400   1.044   2.514
 6949TIP3    H120811   3.363   1.132   2.524
 6949TIP3    H220812   3.484   1.058   2.470
 6950TIP3   OH220813   6.148   2.680   4.972
 6950TIP3    H120814   6.218   2.722   4.923
 6950TIP3    H220815   6.193   2.628   5.039
 6951TIP3   OH220816   5.595   3.788   4.939
 6951TIP3    H120817   5.555   3.711   4.899
 6951TIP3    H220818   5.529   3.857   4.929
 6952TIP3   OH220819   0.026   5.558   4.398
 6952TIP3    H120820   0.094   5.617   4.428
 6952TIP3    H220821  -0.055   5.596   4.430
 6953TIP3   OH220822   0.146   2.310   3.700
 6953TIP3    H120823   0.199   2.231   3.697
 6953TIP3    H220824   0.208   2.380   3.720
 6954TIP3   OH220825   2.448   4.495   1.436
 6954TIP3    H120826   2.421   4.559   1.370
 6954TIP3    H220827   2.512   4.542   1.490
 6955TIP3   OH220828   6.078   4.220   2.939
 6955TIP3    H120829   6.095   4.282   2.869
 6955TIP3    H220830   6.019   4.266   2.999
 6956TIP3   OH220831   3.822   3.294   3.223
 6956TIP3    H120832   3.768   3.220   3.249
 6956TIP3    H220833   3.912   3.265   3.238
 6957TIP3   OH220834   1.627   3.680   4.790
 6957TIP3    H120835   1.613   3.588   4.769
 6957TIP3    H220836   1.542   3.711   4.819
 6958TIP3   OH220837   0.636   6.107   2.647
 6958TIP3    H120838   0.670   6.190   2.612
 6958TIP3    H220839   0.595   6.065   2.572
 6959TIP3   OH220840   3.528   1.445   3.922
 6959TIP3    H120841   3.502   1.517   3.978
 6959TIP3    H220842   3.604   1.477   3.873
 6960TIP3   OH220843   0.384   3.128   4.009
 6960TIP3    H120844   0.468   3.083   4.000
 6960TIP3    H220845   0.368   3.131   4.103
 6961TIP3   OH220846   6.222   1.605   4.522
 6961TIP3    H120847   6.168   1.552   4.580
 6961TIP3    H220848   6.158   1.654   4.469
 6962TIP3   OH220849   3.392   4.452   3.110
 6962TIP3    H120850   3.320   4.511   3.091
 6962TIP3    H220851   3.432   4.434   3.024
 6963TIP3   OH220852   0.891   3.711   0.165
 6963TIP3    H120853   0.843   3.647   0.112
 6963TIP3    H220854   0.958   3.747   0.107
 6964TIP3   OH220855   6.232   0.262   3.360
 6964TIP3    H120856   6.246   0.193   3.295
 6964TIP3    H220857   6.226   0.343   3.309
 6965TIP3   OH220858   0.266   2.258   0.328
 6965TIP3    H120859   0.356   2.267   0.295
 6965TIP3    H220860   0.238   2.172   0.298
 6966TIP3   OH220861   5.917   3.800   0.638
 6966TIP3    H120862   5.965   3.867   0.589
 6966TIP3    H220863   5.877   3.746   0.570
 6967TIP3   OH220864   3.366   4.444   3.585
 6967TIP3    H120865   3.422   4.494   3.526
 6967TIP3    H220866   3.277   4.472   3.562
 6968TIP3   OH220867   2.841   5.246   1.393
 6968TIP3    H120868   2.831   5.298   1.472
 6968TIP3    H220869   2.925   5.274   1.356
 6969TIP3   OH220870   2.574   3.191   5.704
 6969TIP3    H120871   2.502   3.246   5.734
 6969TIP3    H220872   2.640   3.252   5.673
 6970TIP3   OH220873   0.584   2.950   2.035
 6970TIP3    H120874   0.520   2.987   1.974
 6970TIP3    H220875   0.567   2.996   2.118
 6971TIP3   OH220876   6.801   0.003   1.720
 6971TIP3    H120877   6.829   0.086   1.758
 6971TIP3    H220878   6.855  -0.008   1.642
 6972TIP3   OH220879   6.673   6.586   5.536
 6972TIP3    H120880   6.737   6.639   5.488
 6972TIP3    H220881   6.660   6.509   5.481
 6973TIP3   OH220882   0.346   1.087   2.937
 6973TIP3    H120883   0.334   0.994   2.958
 6973TIP3    H220884   0.370   1.087   2.844
 6974TIP3   OH220885   2.676   3.474   5.675
 6974TIP3    H120886   2.581   3.469   5.672
 6974TIP3    H220887   2.694   3.558   5.717
 6975TIP3   OH220888   1.279   6.094   4.823
 6975TIP3    H120889   1.373   6.082   4.839
 6975TIP3    H220890   1.241   6.007   4.835
 6976TIP3   OH220891   1.246   1.639   1.815
 6976TIP3    H120892   1.281   1.555   1.783
 6976TIP3    H220893   1.230   1.689   1.735
 6977TIP3   OH220894   2.087   1.026   0.936
 6977TIP3    H120895   2.180   1.019   0.955
 6977TIP3    H220896   2.082   1.032   0.841
 6978TIP3   OH220897   0.793   3.056   1.026
 6978TIP3    H120898   0.779   2.967   1.056
 6978TIP3    H220899   0.839   3.046   0.942
 6979TIP3   OH220900   7.008   5.528   5.885
 6979TIP3    H120901   6.990   5.474   5.808
 6979TIP3    H220902   7.102   5.549   5.879
 6980TIP3   OH220903   0.714   1.218   3.069
 6980TIP3    H120904   0.794   1.220   3.120
 6980TIP3    H220905   0.662   1.147   3.108
 6981TIP3   OH220906   1.376   3.334   3.307
 6981TIP3    H120907   1.295   3.297   3.343
 6981TIP3    H220908   1.351   3.419   3.273
 6982TIP3   OH220909   6.713   5.397   2.592
 6982TIP3    H120910   6.697   5.310   2.556
 6982TIP3    H220911   6.791   5.429   2.545
 6983TIP3   OH220912   1.068   2.766   4.339
 6983TIP3    H120913   1.004   2.794   4.274
 6983TIP3    H220914   1.085   2.674   4.318
 6984TIP3   OH220915   7.040   5.831   2.154
 6984TIP3    H120916   7.097   5.853   2.228
 6984TIP3    H220917   7.100   5.815   2.081
 6985TIP3   OH220918   5.012   0.982   5.792
 6985TIP3    H120919   4.960   0.947   5.864
 6985TIP3    H220920   4.992   0.925   5.717
 6986TIP3   OH220921   1.256   1.557   2.380
 6986TIP3    H120922   1.215   1.572   2.295
 6986TIP3    H220923   1.210   1.616   2.440
 6987TIP3   OH220924   1.576   6.073   4.816
 6987TIP3    H120925   1.662   6.087   4.779
 6987TIP3    H220926   1.586   6.094   4.909
 6988TIP3   OH220927   3.916   1.132   3.946
 6988TIP3    H120928   3.951   1.047   3.974
 6988TIP3    H220929   3.857   1.158   4.017
 6989TIP3   OH220930   4.133   3.925   3.837
 6989TIP3    H120931   4.111   3.837   3.869
 6989TIP3    H220932   4.052   3.956   3.796
 6990TIP3   OH220933   0.427   2.149   1.110
 6990TIP3    H120934   0.344   2.189   1.086
 6990TIP3    H220935   0.431   2.158   1.205
 6991TIP3   OH220936   6.920   2.191   5.207
 6991TIP3    H120937   6.990   2.234   5.255
 6991TIP3    H220938   6.929   2.222   5.117
 6992TIP3   OH220939   4.292   0.882   5.118
 6992TIP3    H120940   4.323   0.964   5.156
 6992TIP3    H220941   4.371   0.830   5.104
 6993TIP3   OH220942   6.204   0.567   0.951
 6993TIP3    H120943   6.194   0.521   1.034
 6993TIP3    H220944   6.115   0.594   0.928
 6994TIP3   OH220945   4.467   1.095   3.032
 6994TIP3    H120946   4.454   1.179   3.075
 6994TIP3    H220947   4.386   1.080   2.983
 6995TIP3   OH220948   6.536   4.912   3.238
 6995TIP3    H120949   6.512   4.849   3.307
 6995TIP3    H220950   6.624   4.940   3.262
 6996TIP3   OH220951   1.785   4.294   3.197
 6996TIP3    H120952   1.757   4.224   3.254
 6996TIP3    H220953   1.868   4.325   3.234
 6997TIP3   OH220954   5.752   4.919   4.492
 6997TIP3    H120955   5.707   4.955   4.568
 6997TIP3    H220956   5.814   4.988   4.466
 6998TIP3   OH220957   3.149   1.866   2.195
 6998TIP3    H120958   3.176   1.865   2.103
 6998TIP3    H220959   3.172   1.779   2.228
 6999TIP3   OH220960   3.958   0.364   2.744
 6999TIP3    H120961   3.863   0.377   2.751
 6999TIP3    H220962   3.990   0.445   2.704
 7000TIP3   OH220963   1.019   3.599   2.882
 7000TIP3    H120964   0.982   3.511   2.875
 7000TIP3    H220965   1.080   3.594   2.955
 7001TIP3   OH220966   0.526   3.300   1.434
 7001TIP3    H120967   0.590   3.289   1.504
 7001TIP3    H220968   0.578   3.307   1.354
 7002TIP3   OH220969   1.375   4.033   5.017
 7002TIP3    H120970   1.368   3.938   5.020
 7002TIP3    H220971   1.468   4.049   4.998
 7003TIP3   OH220972   3.056   1.605   0.362
 7003TIP3    H120973   2.968   1.580   0.392
 7003TIP3    H220974   3.088   1.529   0.316
 7004TIP3   OH220975   2.319   2.080   1.701
 7004TIP3    H120976   2.281   2.019   1.638
 7004TIP3    H220977   2.305   2.039   1.786
 7005TIP3   OH220978   6.135   1.850   1.843
 7005TIP3    H120979   6.085   1.773   1.815
 7005TIP3    H220980   6.157   1.895   1.761
 7006TIP3   OH220981   4.731   0.199   2.889
 7006TIP3    H120982   4.638   0.191   2.906
 7006TIP3    H220983   4.774   0.167   2.969
 7007TIP3   OH220984   7.112   2.048   3.951
 7007TIP3    H120985   7.153   1.984   3.893
 7007TIP3    H220986   7.153   2.131   3.928
 7008TIP3   OH220987   5.744   0.832   4.658
 7008TIP3    H120988   5.833   0.844   4.626
 7008TIP3    H220989   5.709   0.921   4.665
 7009TIP3   OH220990   0.239   5.006   0.487
 7009TIP3    H120991   0.200   4.920   0.499
 7009TIP3    H220992   0.266   5.033   0.575
 7010TIP3   OH220993   2.181   6.254   1.201
 7010TIP3    H120994   2.221   6.238   1.286
 7010TIP3    H220995   2.109   6.190   1.195
 7011TIP3   OH220996   4.155   3.719   3.433
 7011TIP3    H120997   4.081   3.702   3.491
 7011TIP3    H220998   4.116   3.756   3.354
 7012TIP3   OH220999   5.692   1.934   5.100
 7012TIP3    H121000   5.614   1.891   5.064
 7012TIP3    H221001   5.703   2.013   5.046
 7013TIP3   OH221002   4.444   5.014   4.528
 7013TIP3    H121003   4.387   4.938   4.541
 7013TIP3    H221004   4.384   5.084   4.504
 7014TIP3   OH221005   5.516   6.592   1.496
 7014TIP3    H121006   5.567   6.606   1.416
 7014TIP3    H221007   5.432   6.634   1.478
 7015TIP3   OH221008   1.750   1.365   2.381
 7015TIP3    H121009   1.798   1.395   2.459
 7015TIP3    H221010   1.687   1.436   2.364
 7016TIP3   OH221011   6.542   0.760   4.818
 7016TIP3    H121012   6.550   0.847   4.778
 7016TIP3    H221013   6.534   0.700   4.744
 7017TIP3   OH221014   2.257   1.055   1.502
 7017TIP3    H121015   2.205   0.979   1.530
 7017TIP3    H221016   2.343   1.040   1.540
 7018TIP3   OH221017   1.927   0.498   3.236
 7018TIP3    H121018   1.913   0.422   3.179
 7018TIP3    H221019   1.909   0.466   3.324
 7019TIP3   OH221020   6.855   3.754   3.455
 7019TIP3    H121021   6.816   3.782   3.372
 7019TIP3    H221022   6.831   3.822   3.517
 7020TIP3   OH221023   4.908   4.341   3.308
 7020TIP3    H121024   4.906   4.310   3.398
 7020TIP3    H221025   4.946   4.268   3.258
 7021TIP3   OH221026   4.153   0.474   2.168
 7021TIP3    H121027   4.210   0.398   2.179
 7021TIP3    H221028   4.130   0.474   2.075
 7022TIP3   OH221029   4.403   4.462   3.197
 7022TIP3    H121030   4.487   4.487   3.236
 7022TIP3    H221031   4.416   4.372   3.168
 7023TIP3   OH221032   3.572   4.461   1.202
 7023TIP3    H121033   3.512   4.451   1.276
 7023TIP3    H221034   3.649   4.504   1.238
 7024TIP3   OH221035   3.290   6.693   4.106
 7024TIP3    H121036   3.342   6.667   4.182
 7024TIP3    H221037   3.258   6.610   4.070
 7025TIP3   OH221038   1.411   1.723   3.851
 7025TIP3    H121039   1.329   1.756   3.887
 7025TIP3    H221040   1.392   1.633   3.827
 7026TIP3   OH221041   5.617   5.342   0.217
 7026TIP3    H121042   5.621   5.249   0.239
 7026TIP3    H221043   5.656   5.386   0.292
 7027TIP3   OH221044   0.060   5.759   0.935
 7027TIP3    H121045   0.094   5.790   0.851
 7027TIP3    H221046   0.112   5.682   0.955
 7028TIP3   OH221047   3.357   1.802   5.778
 7028TIP3    H121048   3.386   1.716   5.810
 7028TIP3    H221049   3.377   1.862   5.850
 7029TIP3   OH221050   5.852   2.247   5.756
 7029TIP3    H121051   5.915   2.258   5.827
 7029TIP3    H221052   5.769   2.276   5.793
 7030TIP3   OH221053   1.542   1.159   0.002
 7030TIP3    H121054   1.451   1.145  -0.022
 7030TIP3    H221055   1.553   1.114   0.086
 7031TIP3   OH221056   3.275   2.841   0.329
 7031TIP3    H121057   3.211   2.773   0.307
 7031TIP3    H221058   3.349   2.794   0.367
 7032TIP3   OH221059   3.676   3.501   0.703
 7032TIP3    H121060   3.712   3.428   0.653
 7032TIP3    H221061   3.664   3.570   0.638
 7033TIP3   OH221062   1.146   0.708   1.945
 7033TIP3    H121063   1.104   0.685   1.862
 7033TIP3    H221064   1.104   0.651   2.009
 7034TIP3   OH221065   4.298   5.930   1.910
 7034TIP3    H121066   4.373   5.933   1.849
 7034TIP3    H221067   4.305   5.845   1.952
 7035TIP3   OH221068   1.886   0.676   4.893
 7035TIP3    H121069   1.848   0.757   4.928
 7035TIP3    H221070   1.944   0.644   4.962
 7036TIP3   OH221071   3.851   6.462   3.602
 7036TIP3    H121072   3.933   6.424   3.635
 7036TIP3    H221073   3.864   6.465   3.507
 7037TIP3   OH221074   6.406   5.514   2.802
 7037TIP3    H121075   6.418   5.423   2.829
 7037TIP3    H221076   6.322   5.515   2.758
 7038TIP3   OH221077   0.823   5.135   0.608
 7038TIP3    H121078   0.849   5.181   0.688
 7038TIP3    H221079   0.744   5.087   0.633
 7039TIP3   OH221080   5.835   5.057   2.710
 7039TIP3    H121081   5.842   5.129   2.648
 7039TIP3    H221082   5.816   4.981   2.655
 7040TIP3   OH221083   1.649   4.108   3.591
 7040TIP3    H121084   1.677   4.084   3.679
 7040TIP3    H221085   1.626   4.025   3.549
 7041TIP3   OH221086   5.617   5.577   3.568
 7041TIP3    H121087   5.612   5.636   3.493
 7041TIP3    H221088   5.700   5.599   3.609
 7042TIP3   OH221089   0.064   0.377   5.053
 7042TIP3    H121090   0.152   0.416   5.058
 7042TIP3    H221091   0.013   0.437   5.000
 7043TIP3   OH221092   1.166   1.597   3.739
 7043TIP3    H121093   1.159   1.548   3.821
 7043TIP3    H221094   1.161   1.689   3.766
 7044TIP3   OH221095   5.656   5.476   4.127
 7044TIP3    H121096   5.743   5.516   4.120
 7044TIP3    H221097   5.669   5.385   4.100
 7045TIP3   OH221098   5.914   5.144   3.281
 7045TIP3    H121099   5.973   5.167   3.209
 7045TIP3    H221100   5.961   5.167   3.360
 7046TIP3   OH221101   7.009   4.089   4.221
 7046TIP3    H121102   7.077   4.137   4.173
 7046TIP3    H221103   7.023   3.997   4.197
 7047TIP3   OH221104   2.270   2.093   3.134
 7047TIP3    H121105   2.261   2.041   3.214
 7047TIP3    H221106   2.264   2.184   3.164
 7048TIP3   OH221107   5.896   3.370   1.736
 7048TIP3    H121108   5.834   3.433   1.699
 7048TIP3    H221109   5.976   3.384   1.686
 7049TIP3   OH221110   0.363   2.280   5.747
 7049TIP3    H121111   0.335   2.223   5.676
 7049TIP3    H221112   0.376   2.221   5.821
 7050TIP3   OH221113   2.712   6.384   1.739
 7050TIP3    H121114   2.648   6.448   1.706
 7050TIP3    H221115   2.692   6.376   1.832
 7051TIP3   OH221116   5.007   2.723   5.364
 7051TIP3    H121117   5.071   2.789   5.390
 7051TIP3    H221118   4.995   2.669   5.443
 7052TIP3   OH221119   2.984   4.125   2.833
 7052TIP3    H121120   2.893   4.123   2.803
 7052TIP3    H221121   3.025   4.051   2.788
 7053TIP3   OH221122   0.063   0.623   2.983
 7053TIP3    H121123  -0.025   0.620   3.019
 7053TIP3    H221124   0.075   0.712   2.952
 7054TIP3   OH221125   2.528   0.398   3.060
 7054TIP3    H121126   2.449   0.445   3.086
 7054TIP3    H221127   2.588   0.409   3.134
 7055TIP3   OH221128   1.420   3.061   0.087
 7055TIP3    H121129   1.390   3.071   0.177
 7055TIP3    H221130   1.442   2.968   0.078
 7056TIP3   OH221131   4.019   3.369   0.516
 7056TIP3    H121132   4.080   3.302   0.545
 7056TIP3    H221133   4.046   3.389   0.426
 7057TIP3   OH221134   0.766   5.612   3.427
 7057TIP3    H121135   0.774   5.517   3.412
 7057TIP3    H221136   0.827   5.651   3.365
 7058TIP3   OH221137   0.283   6.189   5.123
 7058TIP3    H121138   0.313   6.128   5.056
 7058TIP3    H221139   0.312   6.274   5.092
 7059TIP3   OH221140   7.001   0.639   0.392
 7059TIP3    H121141   6.990   0.660   0.300
 7059TIP3    H221142   6.915   0.610   0.421
 7060TIP3   OH221143   7.030   0.202   2.156
 7060TIP3    H121144   7.017   0.289   2.194
 7060TIP3    H221145   7.027   0.143   2.230
 7061TIP3   OH221146   0.239   5.104   3.212
 7061TIP3    H121147   0.286   5.096   3.296
 7061TIP3    H221148   0.286   5.174   3.166
 7062TIP3   OH221149   6.350   3.983   4.143
 7062TIP3    H121150   6.313   3.946   4.223
 7062TIP3    H221151   6.283   3.969   4.077
 7063TIP3   OH221152   3.541   2.785   4.151
 7063TIP3    H121153   3.453   2.822   4.143
 7063TIP3    H221154   3.570   2.772   4.060
 7064TIP3   OH221155   0.725   5.835   5.072
 7064TIP3    H121156   0.641   5.871   5.042
 7064TIP3    H221157   0.770   5.909   5.111
 7065TIP3   OH221158   4.528   0.891   4.466
 7065TIP3    H121159   4.484   0.824   4.415
 7065TIP3    H221160   4.543   0.851   4.551
 7066TIP3   OH221161   6.877   5.149   5.105
 7066TIP3    H121162   6.885   5.054   5.107
 7066TIP3    H221163   6.788   5.167   5.136
 7067TIP3   OH221164   3.183   1.211   5.473
 7067TIP3    H121165   3.168   1.130   5.424
 7067TIP3    H221166   3.189   1.183   5.564
 7068TIP3   OH221167   2.488   6.312   1.148
 7068TIP3    H121168   2.413   6.332   1.092
 7068TIP3    H221169   2.482   6.217   1.164
 7069TIP3   OH221170   0.857   5.361   3.419
 7069TIP3    H121171   0.807   5.301   3.363
 7069TIP3    H221172   0.869   5.312   3.500
 7070TIP3   OH221173   1.695   2.822   5.906
 7070TIP3    H121174   1.638   2.825   5.830
 7070TIP3    H221175   1.729   2.732   5.907
 7071TIP3   OH221176   6.233   6.561   3.830
 7071TIP3    H121177   6.254   6.629   3.766
 7071TIP3    H221178   6.188   6.493   3.780
 7072TIP3   OH221179   4.920   6.230   3.620
 7072TIP3    H121180   5.003   6.262   3.584
 7072TIP3    H221181   4.945   6.164   3.685
 7073TIP3   OH221182   4.704   5.450   2.596
 7073TIP3    H121183   4.733   5.405   2.517
 7073TIP3    H221184   4.684   5.539   2.567
 7074TIP3   OH221185   6.385   6.441   2.475
 7074TIP3    H121186   6.382   6.520   2.421
 7074TIP3    H221187   6.329   6.378   2.428
 7075TIP3   OH221188   3.795   0.301   5.729
 7075TIP3    H121189   3.796   0.376   5.669
 7075TIP3    H221190   3.888   0.283   5.746
 7076TIP3   OH221191   2.970   4.831   5.422
 7076TIP3    H121192   2.936   4.782   5.497
 7076TIP3    H221193   2.964   4.769   5.349
 7077TIP3   OH221194   3.302   5.478   2.682
 7077TIP3    H121195   3.307   5.530   2.602
 7077TIP3    H221196   3.365   5.518   2.741
 7078TIP3   OH221197   3.740   1.712   0.419
 7078TIP3    H121198   3.695   1.646   0.365
 7078TIP3    H221199   3.806   1.662   0.467
 7079TIP3   OH221200   5.359   5.981   4.250
 7079TIP3    H121201   5.412   6.054   4.282
 7079TIP3    H221202   5.314   6.016   4.173
 7080TIP3   OH221203   3.554   1.561   4.209
 7080TIP3    H121204   3.637   1.596   4.243
 7080TIP3    H221205   3.568   1.466   4.207
 7081TIP3   OH221206   2.002   1.698   3.369
 7081TIP3    H121207   2.073   1.637   3.388
 7081TIP3    H221208   2.028   1.779   3.412
 7082TIP3   OH221209   2.385   0.080   5.446
 7082TIP3    H121210   2.344   0.167   5.447
 7082TIP3    H221211   2.322   0.023   5.490
 7083TIP3   OH221212   2.212   2.478   0.708
 7083TIP3    H121213   2.227   2.552   0.767
 7083TIP3    H221214   2.177   2.518   0.629
 7084TIP3   OH221215   0.507   4.284   2.715
 7084TIP3    H121216   0.458   4.366   2.717
 7084TIP3    H221217   0.450   4.224   2.668
 7085TIP3   OH221218   4.607   5.796   4.117
 7085TIP3    H121219   4.620   5.701   4.120
 7085TIP3    H221220   4.677   5.832   4.172
 7086TIP3   OH221221   4.232   2.112   1.890
 7086TIP3    H121222   4.261   2.131   1.979
 7086TIP3    H221223   4.236   2.017   1.883
 7087TIP3   OH221224   2.281   4.367   3.053
 7087TIP3    H121225   2.278   4.425   3.130
 7087TIP3    H221226   2.305   4.426   2.981
 7088TIP3   OH221227   3.802   5.404   3.621
 7088TIP3    H121228   3.815   5.400   3.526
 7088TIP3    H221229   3.772   5.317   3.645
 7089TIP3   OH221230   0.595   1.738   2.380
 7089TIP3    H121231   0.525   1.675   2.395
 7089TIP3    H221232   0.594   1.794   2.458
 7090TIP3   OH221233   0.118   0.306   4.644
 7090TIP3    H121234   0.144   0.331   4.555
 7090TIP3    H221235   0.198   0.316   4.696
 7091TIP3   OH221236   0.336   2.363   2.468
 7091TIP3    H121237   0.325   2.413   2.387
 7091TIP3    H221238   0.382   2.284   2.441
 7092TIP3   OH221239   3.374   5.593   4.763
 7092TIP3    H121240   3.457   5.635   4.785
 7092TIP3    H221241   3.350   5.629   4.678
 7093TIP3   OH221242   3.215   4.260   4.544
 7093TIP3    H121243   3.224   4.245   4.450
 7093TIP3    H221244   3.247   4.179   4.584
 7094TIP3   OH221245   0.999   6.058   1.208
 7094TIP3    H121246   1.044   6.007   1.141
 7094TIP3    H221247   0.906   6.050   1.185
 7095TIP3   OH221248   4.965   0.332   5.739
 7095TIP3    H121249   4.886   0.373   5.773
 7095TIP3    H221250   4.946   0.238   5.739
 7096TIP3   OH221251   6.973   3.458   0.167
 7096TIP3    H121252   7.030   3.470   0.244
 7096TIP3    H221253   7.018   3.392   0.114
 7097TIP3   OH221254   5.232   6.107   1.910
 7097TIP3    H121255   5.206   6.123   1.819
 7097TIP3    H221256   5.158   6.138   1.962
 7098TIP3   OH221257   4.733   5.801   3.666
 7098TIP3    H121258   4.683   5.864   3.613
 7098TIP3    H221259   4.728   5.719   3.617
 7099TIP3   OH221260   6.987   0.796   4.317
 7099TIP3    H121261   6.965   0.802   4.410
 7099TIP3    H221262   7.082   0.801   4.314
 7100TIP3   OH221263   0.141   4.209   5.852
 7100TIP3    H121264   0.063   4.203   5.797
 7100TIP3    H221265   0.208   4.247   5.795
 7101TIP3   OH221266   6.339   3.537   3.549
 7101TIP3    H121267   6.385   3.514   3.630
 7101TIP3    H221268   6.385   3.614   3.517
 7102TIP3   OH221269   4.337   0.251   4.966
 7102TIP3    H121270   4.293   0.318   5.018
 7102TIP3    H221271   4.409   0.297   4.923
 7103TIP3   OH221272   4.611   5.391   1.927
 7103TIP3    H121273   4.662   5.389   1.846
 7103TIP3    H221274   4.537   5.448   1.908
 7104TIP3   OH221275   1.074   1.692   5.018
 7104TIP3    H121276   1.161   1.662   5.043
 7104TIP3    H221277   1.049   1.636   4.945
 7105TIP3   OH221278   6.895   4.144   1.684
 7105TIP3    H121279   6.948   4.167   1.761
 7105TIP3    H221280   6.911   4.051   1.671
 7106TIP3   OH221281   1.725   6.750   5.767
 7106TIP3    H121282   1.703   6.661   5.793
 7106TIP3    H221283   1.696   6.757   5.676
 7107TIP3   OH221284   4.089   6.019   4.654
 7107TIP3    H121285   4.173   5.974   4.668
 7107TIP3    H221286   4.048   5.973   4.582
 7108TIP3   OH221287   3.220   6.765   2.700
 7108TIP3    H121288   3.271   6.779   2.620
 7108TIP3    H221289   3.285   6.766   2.770
 7109TIP3   OH221290   1.803   0.924   2.884
 7109TIP3    H121291   1.881   0.977   2.869
 7109TIP3    H221292   1.730   0.985   2.881
 7110TIP3   OH221293   0.562   5.920   1.011
 7110TIP3    H121294   0.504   5.968   0.952
 7110TIP3    H221295   0.550   5.828   0.988
 7111TIP3   OH221296   6.366   1.717   0.298
 7111TIP3    H121297   6.346   1.770   0.375
 7111TIP3    H221298   6.434   1.657   0.328
 7112TIP3   OH221299   4.433   1.499   4.965
 7112TIP3    H121300   4.516   1.479   5.008
 7112TIP3    H221301   4.397   1.572   5.015
 7113TIP3   OH221302   1.360   5.910   2.444
 7113TIP3    H121303   1.277   5.953   2.464
 7113TIP3    H221304   1.335   5.825   2.410
 7114TIP3   OH221305   1.574   2.854   5.394
 7114TIP3    H121306   1.549   2.850   5.486
 7114TIP3    H221307   1.634   2.929   5.389
 7115TIP3   OH221308   1.475   2.389   2.639
 7115TIP3    H121309   1.470   2.485   2.636
 7115TIP3    H221310   1.384   2.360   2.650
 7116TIP3   OH221311   1.065   5.396   4.089
 7116TIP3    H121312   1.141   5.453   4.074
 7116TIP3    H221313   1.022   5.434   4.165
 7117TIP3   OH221314   2.600   4.537   3.159
 7117TIP3    H121315   2.609   4.453   3.205
 7117TIP3    H221316   2.623   4.602   3.225
 7118TIP3   OH221317   3.543   4.062   5.393
 7118TIP3    H121318   3.454   4.028   5.382
 7118TIP3    H221319   3.600   3.991   5.364
 7119TIP3   OH221320   0.595   5.750   1.595
 7119TIP3    H121321   0.663   5.791   1.542
 7119TIP3    H221322   0.556   5.822   1.644
 7120TIP3   OH221323   3.887   4.400   0.041
 7120TIP3    H121324   3.823   4.329   0.037
 7120TIP3    H221325   3.972   4.356   0.038
 7121TIP3   OH221326   0.542   5.815   3.613
 7121TIP3    H121327   0.635   5.831   3.596
 7121TIP3    H221328   0.516   5.750   3.548
 7122TIP3   OH221329   2.950   2.542   1.588
 7122TIP3    H121330   2.865   2.587   1.589
 7122TIP3    H221331   2.960   2.514   1.497
 7123TIP3   OH221332   0.143   0.437   0.619
 7123TIP3    H121333   0.071   0.376   0.638
 7123TIP3    H221334   0.209   0.382   0.577
 7124TIP3   OH221335   2.073   3.062   4.841
 7124TIP3    H121336   2.072   2.971   4.810
 7124TIP3    H221337   2.121   3.110   4.773
 7125TIP3   OH221338   2.275   3.121   5.588
 7125TIP3    H121339   2.234   3.188   5.643
 7125TIP3    H221340   2.278   3.043   5.643
 7126TIP3   OH221341   1.496   5.979   4.252
 7126TIP3    H121342   1.514   5.921   4.178
 7126TIP3    H221343   1.427   5.936   4.301
 7127TIP3   OH221344   5.160   6.276   5.334
 7127TIP3    H121345   5.241   6.328   5.331
 7127TIP3    H221346   5.189   6.188   5.359
 7128TIP3   OH221347   2.716   1.939   3.487
 7128TIP3    H121348   2.657   1.960   3.415
 7128TIP3    H221349   2.778   2.012   3.490
 7129TIP3   OH221350   0.160   6.830   4.685
 7129TIP3    H121351   0.162   6.847   4.590
 7129TIP3    H221352   0.215   6.753   4.696
 7130TIP3   OH221353   0.202   0.102   3.950
 7130TIP3    H121354   0.191   0.162   3.876
 7130TIP3    H221355   0.288   0.062   3.936
 7131TIP3   OH221356   2.488   4.081   4.265
 7131TIP3    H121357   2.569   4.053   4.308
 7131TIP3    H221358   2.513   4.094   4.173
 7132TIP3   OH221359   2.195   3.836   2.083
 7132TIP3    H121360   2.138   3.903   2.044
 7132TIP3    H221361   2.216   3.778   2.010
 7133TIP3   OH221362   6.248   2.396   4.575
 7133TIP3    H121363   6.156   2.419   4.563
 7133TIP3    H221364   6.281   2.459   4.639
 7134TIP3   OH221365   4.739   3.078   4.167
 7134TIP3    H121366   4.810   3.023   4.201
 7134TIP3    H221367   4.770   3.108   4.082
 7135TIP3   OH221368   3.897   2.748   1.012
 7135TIP3    H121369   3.913   2.759   1.106
 7135TIP3    H221370   3.881   2.837   0.979
 7136TIP3   OH221371   3.537   6.574   3.141
 7136TIP3    H121372   3.615   6.564   3.195
 7136TIP3    H221373   3.562   6.541   3.055
 7137TIP3   OH221374   0.081   6.748   5.060
 7137TIP3    H121375   0.079   6.667   5.111
 7137TIP3    H221376   0.147   6.802   5.103
 7138TIP3   OH221377   5.638   5.576   2.885
 7138TIP3    H121378   5.594   5.544   2.964
 7138TIP3    H221379   5.722   5.609   2.916
 7139TIP3   OH221380   6.369   6.100   3.577
 7139TIP3    H121381   6.373   6.169   3.644
 7139TIP3    H221382   6.449   6.049   3.590
 7140TIP3   OH221383   6.637   1.885   4.490
 7140TIP3    H121384   6.580   1.943   4.440
 7140TIP3    H221385   6.720   1.932   4.496
 7141TIP3   OH221386   6.025   4.115   4.872
 7141TIP3    H121387   6.064   4.106   4.785
 7141TIP3    H221388   6.028   4.209   4.889
 7142TIP3   OH221389   1.789   6.131   1.520
 7142TIP3    H121390   1.815   6.051   1.473
 7142TIP3    H221391   1.829   6.122   1.606
 7143TIP3   OH221392   1.516   3.192   1.278
 7143TIP3    H121393   1.472   3.234   1.205
 7143TIP3    H221394   1.533   3.263   1.340
 7144TIP3   OH221395   4.840   5.073   0.063
 7144TIP3    H121396   4.924   5.117   0.052
 7144TIP3    H221397   4.811   5.097   0.151
 7145TIP3   OH221398   5.365   2.082   1.710
 7145TIP3    H121399   5.428   2.014   1.731
 7145TIP3    H221400   5.391   2.114   1.623
 7146TIP3   OH221401   4.525   5.025   0.257
 7146TIP3    H121402   4.506   5.084   0.184
 7146TIP3    H221403   4.596   5.069   0.304
 7147TIP3   OH221404   1.981   3.253   2.981
 7147TIP3    H121405   1.914   3.196   3.017
 7147TIP3    H221406   1.948   3.342   2.995
 7148TIP3   OH221407   1.979   4.568   5.302
 7148TIP3    H121408   1.904   4.579   5.243
 7148TIP3    H221409   1.952   4.609   5.384
 7149TIP3   OH221410   5.420   3.352   5.409
 7149TIP3    H121411   5.497   3.353   5.466
 7149TIP3    H221412   5.352   3.398   5.459
 7150TIP3   OH221413   0.690   4.193   2.946
 7150TIP3    H121414   0.639   4.270   2.972
 7150TIP3    H221415   0.626   4.136   2.903
 7151TIP3   OH221416   0.402   0.017   4.394
 7151TIP3    H121417   0.462  -0.022   4.457
 7151TIP3    H221418   0.420   0.111   4.399
 7152TIP3   OH221419   0.349   4.990   4.841
 7152TIP3    H121420   0.355   4.968   4.748
 7152TIP3    H221421   0.423   4.943   4.882
 7153TIP3   OH221422   2.405   6.664   1.128
 7153TIP3    H121423   2.343   6.721   1.083
 7153TIP3    H221424   2.384   6.576   1.097
 7154TIP3   OH221425   5.650   2.719   2.422
 7154TIP3    H121426   5.581   2.655   2.406
 7154TIP3    H221427   5.731   2.668   2.427
 7155TIP3   OH221428   0.485   1.534   2.612
 7155TIP3    H121429   0.506   1.525   2.705
 7155TIP3    H221430   0.451   1.623   2.604
 7156TIP3   OH221431   2.115   4.966   1.136
 7156TIP3    H121432   2.024   4.959   1.165
 7156TIP3    H221433   2.110   4.956   1.041
 7157TIP3   OH221434   4.070   0.881   5.582
 7157TIP3    H121435   4.137   0.950   5.582
 7157TIP3    H221436   4.110   0.809   5.630
 7158TIP3   OH221437   5.981   5.466   2.590
 7158TIP3    H121438   5.983   5.410   2.668
 7158TIP3    H221439   5.978   5.555   2.626
 7159TIP3   OH221440   4.496   4.567   3.806
 7159TIP3    H121441   4.503   4.660   3.829
 7159TIP3    H221442   4.402   4.549   3.810
 7160TIP3   OH221443   2.274   0.812   3.928
 7160TIP3    H121444   2.300   0.788   4.017
 7160TIP3    H221445   2.357   0.823   3.881
 7161TIP3   OH221446   4.245   5.053   0.709
 7161TIP3    H121447   4.283   5.009   0.633
 7161TIP3    H221448   4.171   5.102   0.675
 7162TIP3   OH221449   2.228   1.751   2.837
 7162TIP3    H121450   2.180   1.707   2.907
 7162TIP3    H221451   2.243   1.840   2.870
 7163TIP3   OH221452   6.482   6.132   4.278
 7163TIP3    H121453   6.525   6.164   4.199
 7163TIP3    H221454   6.394   6.108   4.250
 7164TIP3   OH221455   3.284   2.046   4.228
 7164TIP3    H121456   3.271   1.962   4.271
 7164TIP3    H221457   3.321   2.102   4.295
 7165TIP3   OH221458   3.700   2.165   2.433
 7165TIP3    H121459   3.743   2.098   2.487
 7165TIP3    H221460   3.760   2.178   2.360
 7166TIP3   OH221461   5.251   6.335   0.786
 7166TIP3    H121462   5.216   6.246   0.784
 7166TIP3    H221463   5.268   6.352   0.878
 7167TIP3   OH221464   1.119   2.304   0.980
 7167TIP3    H121465   1.198   2.324   1.030
 7167TIP3    H221466   1.104   2.211   0.995
 7168TIP3   OH221467   2.496   1.460   3.841
 7168TIP3    H121468   2.547   1.502   3.910
 7168TIP3    H221469   2.438   1.400   3.888
 7169TIP3   OH221470   0.621   0.437   4.772
 7169TIP3    H121471   0.700   0.403   4.729
 7169TIP3    H221472   0.604   0.520   4.729
 7170TIP3   OH221473   1.672   0.279   1.908
 7170TIP3    H121474   1.758   0.278   1.867
 7170TIP3    H221475   1.675   0.352   1.969
 7171TIP3   OH221476   7.054   2.921   2.530
 7171TIP3    H121477   7.075   2.844   2.476
 7171TIP3    H221478   7.104   2.907   2.611
 7172TIP3   OH221479   5.032   0.038   3.751
 7172TIP3    H121480   5.091   0.104   3.787
 7172TIP3    H221481   5.013   0.068   3.662
 7173TIP3   OH221482   1.706   0.030   2.108
 7173TIP3    H121483   1.750   0.081   2.040
 7173TIP3    H221484   1.766   0.033   2.183
 7174TIP3   OH221485   6.465   4.505   4.076
 7174TIP3    H121486   6.526   4.457   4.132
 7174TIP3    H221487   6.417   4.562   4.137
 7175TIP3   OH221488   1.364   0.046   0.297
 7175TIP3    H121489   1.283   0.097   0.301
 7175TIP3    H221490   1.370   0.005   0.384
 7176TIP3   OH221491   1.079   2.565   2.850
 7176TIP3    H121492   1.022   2.636   2.880
 7176TIP3    H221493   1.153   2.566   2.910
 7177TIP3   OH221494   2.206   5.102   1.377
 7177TIP3    H121495   2.259   5.111   1.298
 7177TIP3    H221496   2.142   5.033   1.356
 7178TIP3   OH221497   6.339   1.723   2.611
 7178TIP3    H121498   6.365   1.758   2.696
 7178TIP3    H221499   6.357   1.793   2.549
 7179TIP3   OH221500   6.137   4.691   3.846
 7179TIP3    H121501   6.054   4.644   3.842
 7179TIP3    H221502   6.204   4.623   3.846
 7180TIP3   OH221503   5.137   6.174   1.672
 7180TIP3    H121504   5.044   6.195   1.682
 7180TIP3    H221505   5.176   6.253   1.636
 7181TIP3   OH221506   0.206   6.046   4.355
 7181TIP3    H121507   0.233   6.004   4.273
 7181TIP3    H221508   0.286   6.084   4.391
 7182TIP3   OH221509   0.963   4.354   4.481
 7182TIP3    H121510   0.904   4.313   4.544
 7182TIP3    H221511   1.050   4.336   4.514
 7183TIP3   OH221512   6.383   2.585   3.042
 7183TIP3    H121513   6.431   2.540   3.111
 7183TIP3    H221514   6.356   2.668   3.082
 7184TIP3   OH221515   1.183   0.593   3.965
 7184TIP3    H121516   1.240   0.557   3.897
 7184TIP3    H221517   1.164   0.683   3.936
 7185TIP3   OH221518   3.753   0.536   3.483
 7185TIP3    H121519   3.830   0.490   3.517
 7185TIP3    H221520   3.790   0.609   3.433
 7186TIP3   OH221521   3.510   5.575   3.640
 7186TIP3    H121522   3.602   5.549   3.649
 7186TIP3    H221523   3.511   5.646   3.576
 7187TIP3   OH221524   0.853   5.639   4.918
 7187TIP3    H121525   0.793   5.687   4.977
 7187TIP3    H221526   0.905   5.708   4.876
 7188TIP3   OH221527   2.905   3.306   5.820
 7188TIP3    H121528   2.844   3.371   5.783
 7188TIP3    H221529   2.881   3.301   5.912
 7189TIP3   OH221530   2.729   5.121   3.272
 7189TIP3    H121531   2.639   5.135   3.241
 7189TIP3    H221532   2.718   5.096   3.364
 7190TIP3   OH221533   0.192   5.387   3.355
 7190TIP3    H121534   0.215   5.355   3.268
 7190TIP3    H221535   0.162   5.476   3.341
 7191TIP3   OH221536   0.732   3.836   4.697
 7191TIP3    H121537   0.784   3.764   4.662
 7191TIP3    H221538   0.761   3.845   4.788
 7192TIP3   OH221539   4.761   2.271   1.155
 7192TIP3    H121540   4.669   2.269   1.182
 7192TIP3    H221541   4.787   2.362   1.170
 7193TIP3   OH221542   4.737   1.738   5.450
 7193TIP3    H121543   4.815   1.735   5.395
 7193TIP3    H221544   4.750   1.669   5.515
 7194TIP3   OH221545   1.632   1.345   3.490
 7194TIP3    H121546   1.663   1.273   3.544
 7194TIP3    H221547   1.699   1.413   3.500
 7195TIP3   OH221548   6.531   3.318   5.220
 7195TIP3    H121549   6.494   3.372   5.151
 7195TIP3    H221550   6.546   3.379   5.293
 7196TIP3   OH221551   5.522   0.788   3.149
 7196TIP3    H121552   5.533   0.750   3.237
 7196TIP3    H221553   5.537   0.714   3.090
 7197TIP3   OH221554   5.777   4.965   0.056
 7197TIP3    H121555   5.749   4.876   0.035
 7197TIP3    H221556   5.722   4.990   0.130
 7198TIP3   OH221557   2.069   4.642   0.011
 7198TIP3    H121558   1.977   4.623   0.030
 7198TIP3    H221559   2.116   4.614   0.090
 7199TIP3   OH221560   6.139   1.879   3.979
 7199TIP3    H121561   6.183   1.837   4.053
 7199TIP3    H221562   6.173   1.968   3.978
 7200TIP3   OH221563   0.740   4.636   4.103
 7200TIP3    H121564   0.750   4.729   4.081
 7200TIP3    H221565   0.819   4.614   4.152
 7201TIP3   OH221566   7.057   4.277   4.855
 7201TIP3    H121567   7.136   4.331   4.848
 7201TIP3    H221568   6.993   4.320   4.799
 7202TIP3   OH221569   5.431   3.645   1.762
 7202TIP3    H121570   5.513   3.694   1.752
 7202TIP3    H221571   5.459   3.554   1.773
 7203TIP3   OH221572   1.225   4.073   1.695
 7203TIP3    H121573   1.217   4.042   1.785
 7203TIP3    H221574   1.194   4.164   1.698
 7204TIP3   OH221575   6.428   2.347   0.477
 7204TIP3    H121576   6.468   2.397   0.548
 7204TIP3    H221577   6.453   2.393   0.397
 7205TIP3   OH221578   3.927   1.788   5.598
 7205TIP3    H121579   3.848   1.752   5.558
 7205TIP3    H221580   3.988   1.800   5.525
 7206TIP3   OH221581   2.006   2.611   1.665
 7206TIP3    H121582   2.053   2.575   1.740
 7206TIP3    H221583   1.922   2.564   1.663
 7207TIP3   OH221584   3.713   0.313   5.026
 7207TIP3    H121585   3.769   0.314   5.104
 7207TIP3    H221586   3.631   0.274   5.057
 7208TIP3   OH221587   2.950   0.598   1.587
 7208TIP3    H121588   3.037   0.597   1.626
 7208TIP3    H221589   2.901   0.531   1.635
 7209TIP3   OH221590   3.643   6.007   2.926
 7209TIP3    H121591   3.642   5.944   2.998
 7209TIP3    H221592   3.553   6.038   2.920
 7210TIP3   OH221593   6.663   0.702   0.147
 7210TIP3    H121594   6.649   0.611   0.120
 7210TIP3    H221595   6.626   0.754   0.075
 7211TIP3   OH221596   0.748   2.554   3.717
 7211TIP3    H121597   0.812   2.617   3.750
 7211TIP3    H221598   0.732   2.495   3.791
 7212TIP3   OH221599   6.825   6.390   4.304
 7212TIP3    H121600   6.912   6.358   4.329
 7212TIP3    H221601   6.832   6.410   4.211
 7213TIP3   OH221602   6.779   2.548   1.256
 7213TIP3    H121603   6.862   2.502   1.269
 7213TIP3    H221604   6.799   2.616   1.191
 7214TIP3   OH221605   1.819   0.896   0.804
 7214TIP3    H121606   1.723   0.895   0.799
 7214TIP3    H221607   1.839   0.883   0.896
 7215TIP3   OH221608   1.835   2.239   1.846
 7215TIP3    H121609   1.865   2.150   1.828
 7215TIP3    H221610   1.871   2.260   1.932
 7216TIP3   OH221611   5.643   2.254   1.156
 7216TIP3    H121612   5.736   2.263   1.177
 7216TIP3    H221613   5.639   2.176   1.100
 7217TIP3   OH221614   0.261   6.472   4.449
 7217TIP3    H121615   0.325   6.482   4.379
 7217TIP3    H221616   0.302   6.513   4.525
 7218TIP3   OH221617   2.740   6.329   0.439
 7218TIP3    H121618   2.784   6.401   0.482
 7218TIP3    H221619   2.720   6.267   0.509
 7219TIP3   OH221620   4.659   0.250   0.588
 7219TIP3    H121621   4.713   0.172   0.597
 7219TIP3    H221622   4.638   0.256   0.495
 7220TIP3   OH221623   2.673   1.780   5.858
 7220TIP3    H121624   2.655   1.872   5.839
 7220TIP3    H221625   2.768   1.773   5.858
 7221TIP3   OH221626   1.934   5.735   5.648
 7221TIP3    H121627   1.848   5.694   5.640
 7221TIP3    H221628   1.989   5.689   5.585
 7222TIP3   OH221629   1.100   4.044   3.666
 7222TIP3    H121630   1.064   4.049   3.755
 7222TIP3    H221631   1.024   4.058   3.609
 7223TIP3   OH221632   3.332   3.195   4.316
 7223TIP3    H121633   3.277   3.220   4.241
 7223TIP3    H221634   3.270   3.157   4.379
 7224TIP3   OH221635   1.787   4.294   5.850
 7224TIP3    H121636   1.790   4.337   5.765
 7224TIP3    H221637   1.861   4.330   5.898
 7225TIP3   OH221638   3.993   0.407   4.898
 7225TIP3    H121639   4.026   0.353   4.970
 7225TIP3    H221640   3.920   0.356   4.862
 7226TIP3   OH221641   7.094   2.981   2.792
 7226TIP3    H121642   7.145   2.899   2.798
 7226TIP3    H221643   7.060   2.993   2.881
 7227TIP3   OH221644   4.000   2.640   3.158
 7227TIP3    H121645   4.013   2.551   3.190
 7227TIP3    H221646   4.061   2.648   3.085
 7228TIP3   OH221647   4.876   0.821   5.259
 7228TIP3    H121648   4.846   0.870   5.336
 7228TIP3    H221649   4.894   0.734   5.293
 7229TIP3   OH221650   1.780   4.541   4.266
 7229TIP3    H121651   1.758   4.496   4.184
 7229TIP3    H221652   1.797   4.470   4.328
 7230TIP3   OH221653   2.140   5.298   4.000
 7230TIP3    H121654   2.170   5.331   4.085
 7230TIP3    H221655   2.161   5.369   3.939
 7231TIP3   OH221656   5.829   6.300   0.834
 7231TIP3    H121657   5.854   6.305   0.926
 7231TIP3    H221658   5.911   6.308   0.786
 7232TIP3   OH221659   1.681   5.372   3.383
 7232TIP3    H121660   1.749   5.340   3.324
 7232TIP3    H221661   1.722   5.445   3.430
 7233TIP3   OH221662   5.120   5.190   1.952
 7233TIP3    H121663   5.148   5.147   2.033
 7233TIP3    H221664   5.115   5.283   1.975
 7234TIP3   OH221665   1.058   1.039   4.797
 7234TIP3    H121666   1.153   1.037   4.807
 7234TIP3    H221667   1.027   1.092   4.870
 7235TIP3   OH221668   5.729   4.191   4.028
 7235TIP3    H121669   5.645   4.227   3.999
 7235TIP3    H221670   5.785   4.268   4.038
 7236TIP3   OH221671   0.890   2.912   2.104
 7236TIP3    H121672   0.905   2.840   2.166
 7236TIP3    H221673   0.794   2.922   2.103
 7237TIP3   OH221674   0.861   0.487   3.257
 7237TIP3    H121675   0.940   0.540   3.269
 7237TIP3    H221676   0.805   0.539   3.200
 7238TIP3   OH221677   5.843   6.636   0.775
 7238TIP3    H121678   5.928   6.593   0.774
 7238TIP3    H221679   5.828   6.662   0.684
 7239TIP3   OH221680   0.222   5.093   0.076
 7239TIP3    H121681   0.252   5.015   0.123
 7239TIP3    H221682   0.161   5.135   0.137
 7240TIP3   OH221683   4.719   0.444   5.724
 7240TIP3    H121684   4.694   0.359   5.760
 7240TIP3    H221685   4.639   0.496   5.728
 7241TIP3   OH221686   5.602   3.077   3.671
 7241TIP3    H121687   5.679   3.029   3.642
 7241TIP3    H221688   5.637   3.159   3.707
 7242TIP3   OH221689   2.115   2.284   5.731
 7242TIP3    H121690   2.033   2.319   5.697
 7242TIP3    H221691   2.091   2.202   5.774
 7243TIP3   OH221692   4.627   0.026   3.607
 7243TIP3    H121693   4.593  -0.054   3.648
 7243TIP3    H221694   4.654   0.081   3.680
 7244TIP3   OH221695   3.164   3.723   5.159
 7244TIP3    H121696   3.141   3.661   5.090
 7244TIP3    H221697   3.113   3.802   5.139
 7245TIP3   OH221698   4.887   5.399   0.401
 7245TIP3    H121699   4.851   5.486   0.416
 7245TIP3    H221700   4.968   5.414   0.352
 7246TIP3   OH221701   0.106   0.534   2.647
 7246TIP3    H121702   0.074   0.461   2.700
 7246TIP3    H221703   0.064   0.521   2.562
 7247TIP3   OH221704   3.071   5.197   1.580
 7247TIP3    H121705   3.135   5.267   1.593
 7247TIP3    H221706   2.989   5.233   1.615
 7248TIP3   OH221707   0.567   6.737   3.519
 7248TIP3    H121708   0.522   6.719   3.601
 7248TIP3    H221709   0.634   6.669   3.511
 7249TIP3   OH221710   6.245   0.173   1.269
 7249TIP3    H121711   6.326   0.170   1.217
 7249TIP3    H221712   6.206   0.258   1.248
 7250TIP3   OH221713   0.245   0.055   0.578
 7250TIP3    H121714   0.211   0.051   0.668
 7250TIP3    H221715   0.222  -0.030   0.540
 7251TIP3   OH221716   2.829   3.929   4.131
 7251TIP3    H121717   2.836   3.917   4.037
 7251TIP3    H221718   2.766   3.862   4.159
 7252TIP3   OH221719   5.557   3.608   4.246
 7252TIP3    H121720   5.494   3.672   4.279
 7252TIP3    H221721   5.522   3.523   4.271
 7253TIP3   OH221722   6.941   4.680   4.758
 7253TIP3    H121723   7.028   4.670   4.720
 7253TIP3    H221724   6.956   4.702   4.850
 7254TIP3   OH221725   0.079   3.176   5.503
 7254TIP3    H121726   0.045   3.170   5.413
 7254TIP3    H221727   0.022   3.119   5.554
 7255TIP3   OH221728   3.520   4.529   0.375
 7255TIP3    H121729   3.606   4.524   0.332
 7255TIP3    H221730   3.520   4.455   0.436
 7256TIP3   OH221731   0.072   3.711   0.192
 7256TIP3    H121732   0.039   3.657   0.263
 7256TIP3    H221733   0.155   3.746   0.225
 7257TIP3   OH221734   5.740   5.971   4.909
 7257TIP3    H121735   5.792   5.981   4.830
 7257TIP3    H221736   5.786   6.022   4.975
 7258TIP3   OH221737   5.578   6.567   5.485
 7258TIP3    H121738   5.513   6.634   5.468
 7258TIP3    H221739   5.631   6.602   5.556
 7259TIP3   OH221740   1.051   3.410   5.335
 7259TIP3    H121741   1.049   3.329   5.283
 7259TIP3    H221742   1.098   3.472   5.280
 7260TIP3   OH221743   5.100   1.999   5.760
 7260TIP3    H121744   5.125   1.907   5.765
 7260TIP3    H221745   5.090   2.026   5.851
 7261TIP3   OH221746   4.678   3.219   2.139
 7261TIP3    H121747   4.662   3.202   2.046
 7261TIP3    H221748   4.773   3.214   2.148
 7262TIP3   OH221749   3.235   1.687   4.962
 7262TIP3    H121750   3.324   1.692   4.927
 7262TIP3    H221751   3.230   1.602   5.005
 7263TIP3   OH221752   0.655   3.751   0.376
 7263TIP3    H121753   0.729   3.748   0.315
 7263TIP3    H221754   0.688   3.710   0.456
 7264TIP3   OH221755   7.191   3.028   2.196
 7264TIP3    H121756   7.102   3.012   2.228
 7264TIP3    H221757   7.178   3.083   2.118
 7265TIP3   OH221758   2.914   3.278   4.771
 7265TIP3    H121759   2.866   3.274   4.853
 7265TIP3    H221760   2.936   3.186   4.752
 7266TIP3   OH221761   3.832   0.093   4.142
 7266TIP3    H121762   3.895   0.084   4.070
 7266TIP3    H221763   3.843   0.184   4.172
 7267TIP3   OH221764   5.178   6.523   2.905
 7267TIP3    H121765   5.250   6.488   2.957
 7267TIP3    H221766   5.169   6.462   2.832
 7268TIP3   OH221767   0.234   1.880   5.871
 7268TIP3    H121768   0.284   1.803   5.899
 7268TIP3    H221769   0.266   1.898   5.783
 7269TIP3   OH221770   1.518   3.748   1.013
 7269TIP3    H121771   1.499   3.753   1.106
 7269TIP3    H221772   1.606   3.784   1.004
 7270TIP3   OH221773   3.176   0.115   5.266
 7270TIP3    H121774   3.112   0.048   5.290
 7270TIP3    H221775   3.251   0.098   5.323
 7271TIP3   OH221776   4.307   2.150   0.756
 7271TIP3    H121777   4.263   2.212   0.697
 7271TIP3    H221778   4.313   2.196   0.840
 7272TIP3   OH221779   4.741   4.359   2.221
 7272TIP3    H121780   4.670   4.315   2.268
 7272TIP3    H221781   4.821   4.318   2.254
 7273TIP3   OH221782   4.735   0.638   0.247
 7273TIP3    H121783   4.681   0.677   0.179
 7273TIP3    H221784   4.676   0.625   0.321
 7274TIP3   OH221785   6.706   0.118   2.714
 7274TIP3    H121786   6.800   0.116   2.729
 7274TIP3    H221787   6.693   0.068   2.634
 7275TIP3   OH221788   0.940   0.540   4.091
 7275TIP3    H121789   1.022   0.550   4.043
 7275TIP3    H221790   0.939   0.614   4.152
 7276TIP3   OH221791   4.520   1.828   3.210
 7276TIP3    H121792   4.462   1.753   3.194
 7276TIP3    H221793   4.466   1.905   3.192
 7277TIP3   OH221794   0.350   4.393   0.787
 7277TIP3    H121795   0.405   4.345   0.849
 7277TIP3    H221796   0.332   4.331   0.717
 7278TIP3   OH221797   2.648   0.772   5.736
 7278TIP3    H121798   2.617   0.735   5.653
 7278TIP3    H221799   2.575   0.827   5.765
 7279TIP3   OH221800   4.293   1.059   4.176
 7279TIP3    H121801   4.313   1.072   4.268
 7279TIP3    H221802   4.378   1.038   4.135
 7280TIP3   OH221803   4.492   2.689   0.416
 7280TIP3    H121804   4.477   2.595   0.413
 7280TIP3    H221805   4.587   2.699   0.416
 7281TIP3   OH221806   0.781   4.672   2.292
 7281TIP3    H121807   0.844   4.700   2.359
 7281TIP3    H221808   0.714   4.625   2.341
 7282TIP3   OH221809   3.607   2.124   3.937
 7282TIP3    H121810   3.525   2.167   3.957
 7282TIP3    H221811   3.605   2.042   3.987
 7283TIP3   OH221812   5.635   2.203   3.210
 7283TIP3    H121813   5.554   2.248   3.236
 7283TIP3    H221814   5.605   2.128   3.158
 7284TIP3   OH221815   5.131   0.463   0.199
 7284TIP3    H121816   5.119   0.471   0.293
 7284TIP3    H221817   5.049   0.495   0.161
 7285TIP3   OH221818   0.049   4.520   2.039
 7285TIP3    H121819   0.124   4.577   2.054
 7285TIP3    H221820   0.059   4.450   2.103
 7286TIP3   OH221821   3.928   0.103   0.252
 7286TIP3    H121822   3.943   0.136   0.163
 7286TIP3    H221823   3.846   0.054   0.245
 7287TIP3   OH221824   1.607   0.475   4.312
 7287TIP3    H121825   1.549   0.500   4.240
 7287TIP3    H221826   1.589   0.382   4.326
 7288TIP3   OH221827   0.585   1.481   2.864
 7288TIP3    H121828   0.629   1.516   2.941
 7288TIP3    H221829   0.603   1.387   2.866
 7289TIP3   OH221830   4.971   0.300   5.435
 7289TIP3    H121831   4.922   0.218   5.442
 7289TIP3    H221832   5.004   0.316   5.523
 7290TIP3   OH221833   4.436   3.684   2.766
 7290TIP3    H121834   4.467   3.681   2.676
 7290TIP3    H221835   4.480   3.610   2.809
 7291TIP3   OH221836   6.900   4.274   2.668
 7291TIP3    H121837   6.965   4.218   2.711
 7291TIP3    H221838   6.943   4.359   2.660
 7292TIP3   OH221839   1.261   5.979   1.713
 7292TIP3    H121840   1.288   6.027   1.791
 7292TIP3    H221841   1.335   5.986   1.653
 7293TIP3   OH221842   4.830   4.152   1.318
 7293TIP3    H121843   4.761   4.098   1.356
 7293TIP3    H221844   4.911   4.104   1.336
 7294TIP3   OH221845   4.158   0.594   3.910
 7294TIP3    H121846   4.232   0.612   3.968
 7294TIP3    H221847   4.084   0.579   3.969
 7295TIP3   OH221848   0.135   1.224   4.895
 7295TIP3    H121849   0.195   1.281   4.943
 7295TIP3    H221850   0.066   1.203   4.958
 7296TIP3   OH221851   6.414   0.165   1.055
 7296TIP3    H121852   6.429   0.257   1.031
 7296TIP3    H221853   6.488   0.143   1.111
 7297TIP3   OH221854   1.171   5.233   0.522
 7297TIP3    H121855   1.171   5.240   0.618
 7297TIP3    H221856   1.080   5.216   0.499
 7298TIP3   OH221857   1.148   4.832   0.701
 7298TIP3    H121858   1.112   4.900   0.645
 7298TIP3    H221859   1.096   4.837   0.782
 7299TIP3   OH221860   3.093   2.873   1.064
 7299TIP3    H121861   3.068   2.906   1.150
 7299TIP3    H221862   3.189   2.868   1.067
 7300TIP3   OH221863   5.516   5.816   4.825
 7300TIP3    H121864   5.597   5.847   4.866
 7300TIP3    H221865   5.459   5.793   4.899
 7301TIP3   OH221866   4.596   0.448   1.349
 7301TIP3    H121867   4.526   0.457   1.285
 7301TIP3    H221868   4.582   0.361   1.388
 7302TIP3   OH221869   7.236   5.495   0.256
 7302TIP3    H121870   7.213   5.421   0.199
 7302TIP3    H221871   7.153   5.539   0.274
 7303TIP3   OH221872   0.048   5.424   0.884
 7303TIP3    H121873   0.055   5.409   0.979
 7303TIP3    H221874  -0.046   5.434   0.868
 7304TIP3   OH221875   0.072   3.581   2.115
 7304TIP3    H121876   0.094   3.649   2.052
 7304TIP3    H221877   0.047   3.630   2.194
 7305TIP3   OH221878   1.078  -0.049   0.532
 7305TIP3    H121879   1.038   0.023   0.581
 7305TIP3    H221880   1.031  -0.051   0.449
 7306TIP3   OH221881   5.348   2.734   3.074
 7306TIP3    H121882   5.356   2.677   2.998
 7306TIP3    H221883   5.289   2.804   3.046
 7307TIP3   OH221884   4.778   3.514   2.156
 7307TIP3    H121885   4.843   3.469   2.210
 7307TIP3    H221886   4.823   3.528   2.072
 7308TIP3   OH221887   6.130   0.654   1.722
 7308TIP3    H121888   6.069   0.631   1.792
 7308TIP3    H221889   6.172   0.571   1.699
 7309TIP3   OH221890   3.998   5.542   5.041
 7309TIP3    H121891   4.040   5.464   5.004
 7309TIP3    H221892   4.047   5.616   5.003
 7310TIP3   OH221893   3.808   6.812   5.620
 7310TIP3    H121894   3.899   6.782   5.617
 7310TIP3    H221895   3.764   6.749   5.677
 7311TIP3   OH221896   0.959   6.535   0.620
 7311TIP3    H121897   1.041   6.531   0.669
 7311TIP3    H221898   0.917   6.616   0.650
 7312TIP3   OH221899   0.113   2.096   3.350
 7312TIP3    H121900   0.160   2.172   3.384
 7312TIP3    H221901   0.021   2.114   3.368
 7313TIP3   OH221902   2.420   2.176   4.735
 7313TIP3    H121903   2.438   2.230   4.811
 7313TIP3    H221904   2.489   2.198   4.673
 7314TIP3   OH221905   2.912   2.375   0.654
 7314TIP3    H121906   2.919   2.354   0.748
 7314TIP3    H221907   2.983   2.438   0.639
 7315TIP3   OH221908   2.284   0.232   4.483
 7315TIP3    H121909   2.297   0.228   4.578
 7315TIP3    H221910   2.360   0.280   4.450
 7316TIP3   OH221911   1.458   1.619   1.277
 7316TIP3    H121912   1.545   1.647   1.304
 7316TIP3    H221913   1.464   1.523   1.269
 7317TIP3   OH221914   1.887   1.719   1.103
 7317TIP3    H121915   1.967   1.692   1.148
 7317TIP3    H221916   1.887   1.669   1.021
 7318TIP3   OH221917   1.894   0.380   5.635
 7318TIP3    H121918   1.860   0.367   5.724
 7318TIP3    H221919   1.957   0.451   5.644
 7319TIP3   OH221920   3.985   4.549   3.457
 7319TIP3    H121921   4.006   4.478   3.518
 7319TIP3    H221922   4.023   4.627   3.497
 7320TIP3   OH221923   5.213   1.134   5.071
 7320TIP3    H121924   5.297   1.101   5.101
 7320TIP3    H221925   5.184   1.069   5.007
 7321TIP3   OH221926   3.865   2.179   1.674
 7321TIP3    H121927   3.908   2.143   1.752
 7321TIP3    H221928   3.832   2.265   1.703
 7322TIP3   OH221929   3.721   1.807   4.276
 7322TIP3    H121930   3.711   1.901   4.291
 7322TIP3    H221931   3.656   1.786   4.209
 7323TIP3   OH221932   5.226   2.929   5.106
 7323TIP3    H121933   5.281   2.978   5.167
 7323TIP3    H221934   5.278   2.852   5.082
 7324TIP3   OH221935   6.296   2.629   1.315
 7324TIP3    H121936   6.374   2.576   1.333
 7324TIP3    H221937   6.322   2.687   1.244
 7325TIP3   OH221938   6.876   3.797   1.044
 7325TIP3    H121939   6.932   3.733   1.000
 7325TIP3    H221940   6.903   3.792   1.136
 7326TIP3   OH221941   2.486   1.213   3.249
 7326TIP3    H121942   2.546   1.254   3.310
 7326TIP3    H221943   2.403   1.209   3.296
 7327TIP3   OH221944   3.232   5.027   0.843
 7327TIP3    H121945   3.172   5.088   0.800
 7327TIP3    H221946   3.317   5.044   0.802
 7328TIP3   OH221947   1.576   4.030   4.598
 7328TIP3    H121948   1.507   4.090   4.569
 7328TIP3    H221949   1.535   3.943   4.594
 7329TIP3   OH221950   2.646   0.661   2.003
 7329TIP3    H121951   2.616   0.725   1.938
 7329TIP3    H221952   2.721   0.703   2.045
 7330TIP3   OH221953   1.255   3.260   0.543
 7330TIP3    H121954   1.298   3.319   0.605
 7330TIP3    H221955   1.172   3.238   0.585
 7331TIP3   OH221956   0.133   1.287   3.814
 7331TIP3    H121957   0.082   1.331   3.747
 7331TIP3    H221958   0.130   1.194   3.790
 7332TIP3   OH221959   5.947   3.746   2.885
 7332TIP3    H121960   5.909   3.832   2.866
 7332TIP3    H221961   5.986   3.756   2.972
 7333TIP3   OH221962   0.466   4.747   3.864
 7333TIP3    H121963   0.436   4.774   3.778
 7333TIP3    H221964   0.558   4.723   3.852
 7334TIP3   OH221965   2.333   2.653   4.201
 7334TIP3    H121966   2.283   2.626   4.124
 7334TIP3    H221967   2.397   2.716   4.167
 7335TIP3   OH221968   0.366   3.500   0.809
 7335TIP3    H121969   0.272   3.512   0.814
 7335TIP3    H221970   0.382   3.472   0.719
 7336TIP3   OH221971   4.269   4.401   2.467
 7336TIP3    H121972   4.189   4.454   2.468
 7336TIP3    H221973   4.269   4.356   2.552
 7337TIP3   OH221974   2.975   4.298   3.078
 7337TIP3    H121975   2.962   4.222   3.021
 7337TIP3    H221976   2.928   4.369   3.035
 7338TIP3   OH221977   6.719   6.247   4.536
 7338TIP3    H121978   6.761   6.167   4.504
 7338TIP3    H221979   6.735   6.311   4.467
 7339TIP3   OH221980   0.180   3.334   2.165
 7339TIP3    H121981   0.271   3.363   2.155
 7339TIP3    H221982   0.128   3.412   2.145
 7340TIP3   OH221983   0.935   1.468   5.720
 7340TIP3    H121984   0.893   1.525   5.784
 7340TIP3    H221985   0.963   1.526   5.650
 7341TIP3   OH221986   7.070   6.179   2.140
 7341TIP3    H121987   7.058   6.145   2.052
 7341TIP3    H221988   7.002   6.246   2.150
 7342TIP3   OH221989   2.642   5.197   1.736
 7342TIP3    H121990   2.636   5.102   1.749
 7342TIP3    H221991   2.567   5.233   1.783
 7343TIP3   OH221992   4.991   0.569   5.330
 7343TIP3    H121993   4.978   0.476   5.348
 7343TIP3    H221994   5.062   0.571   5.266
 7344TIP3   OH221995   1.396   2.387   0.506
 7344TIP3    H121996   1.469   2.326   0.520
 7344TIP3    H221997   1.320   2.330   0.494
 7345TIP3   OH221998   1.291   0.343   4.231
 7345TIP3    H121999   1.339   0.295   4.163
 7345TIP3    H222000   1.347   0.418   4.251
 7346TIP3   OH222001   6.283   5.363   1.283
 7346TIP3    H122002   6.272   5.280   1.330
 7346TIP3    H222003   6.346   5.413   1.335
 7347TIP3   OH222004   3.593   3.661   0.909
 7347TIP3    H122005   3.608   3.578   0.864
 7347TIP3    H222006   3.537   3.711   0.850
 7348TIP3   OH222007   4.175   6.060   0.549
 7348TIP3    H122008   4.159   6.091   0.460
 7348TIP3    H222009   4.268   6.077   0.565
 7349TIP3   OH222010   0.693   3.115   4.211
 7349TIP3    H122011   0.700   3.019   4.211
 7349TIP3    H222012   0.711   3.140   4.302
 7350TIP3   OH222013   3.909   1.856   0.865
 7350TIP3    H122014   3.877   1.940   0.831
 7350TIP3    H222015   3.840   1.826   0.924
 7351TIP3   OH222016   0.414   4.927   4.533
 7351TIP3    H122017   0.396   4.957   4.444
 7351TIP3    H222018   0.329   4.895   4.565
 7352TIP3   OH222019   3.445   1.175   2.853
 7352TIP3    H122020   3.353   1.164   2.878
 7352TIP3    H222021   3.442   1.231   2.776
 7353TIP3   OH222022   4.886   2.559   0.124
 7353TIP3    H122023   4.925   2.647   0.116
 7353TIP3    H222024   4.796   2.570   0.093
 7354TIP3   OH222025   5.216   3.959   1.581
 7354TIP3    H122026   5.188   4.045   1.549
 7354TIP3    H222027   5.244   3.974   1.671
 7355TIP3   OH222028   3.948   6.026   1.773
 7355TIP3    H122029   3.871   5.971   1.767
 7355TIP3    H222030   3.996   6.010   1.691
 7356TIP3   OH222031   7.199   2.635   1.962
 7356TIP3    H122032   7.231   2.716   1.922
 7356TIP3    H222033   7.105   2.650   1.973
 7357TIP3   OH222034   5.264   5.919   5.572
 7357TIP3    H122035   5.211   5.839   5.570
 7357TIP3    H222036   5.317   5.910   5.652
 7358TIP3   OH222037   0.561   1.499   5.290
 7358TIP3    H122038   0.579   1.437   5.220
 7358TIP3    H222039   0.480   1.468   5.330
 7359TIP3   OH222040   0.404   0.204   3.404
 7359TIP3    H122041   0.436   0.279   3.454
 7359TIP3    H222042   0.480   0.173   3.355
 7360TIP3   OH222043   6.625   0.276   1.731
 7360TIP3    H122044   6.711   0.280   1.773
 7360TIP3    H222045   6.565   0.315   1.796
 7361TIP3   OH222046   5.625   5.537   0.708
 7361TIP3    H122047   5.610   5.584   0.790
 7361TIP3    H222048   5.648   5.606   0.645
 7362TIP3   OH222049   4.841   2.224   1.957
 7362TIP3    H122050   4.878   2.243   2.044
 7362TIP3    H222051   4.892   2.278   1.897
 7363TIP3   OH222052   4.477   2.768   5.700
 7363TIP3    H122053   4.390   2.730   5.693
 7363TIP3    H222054   4.532   2.696   5.731
 7364TIP3   OH222055   6.842   2.857   2.062
 7364TIP3    H122056   6.863   2.787   2.000
 7364TIP3    H222057   6.861   2.938   2.015
 7365TIP3   OH222058   6.009   2.249   4.199
 7365TIP3    H122059   5.928   2.202   4.177
 7365TIP3    H222060   6.016   2.242   4.294
 7366TIP3   OH222061   5.467   4.926   5.443
 7366TIP3    H122062   5.480   5.018   5.467
 7366TIP3    H222063   5.505   4.918   5.356
 7367TIP3   OH222064   2.411   2.328   0.176
 7367TIP3    H122065   2.357   2.273   0.119
 7367TIP3    H222066   2.351   2.355   0.246
 7368TIP3   OH222067   1.509   1.253   2.235
 7368TIP3    H122068   1.464   1.241   2.318
 7368TIP3    H222069   1.586   1.305   2.256
 7369TIP3   OH222070   1.957   6.269   4.955
 7369TIP3    H122071   2.000   6.348   4.986
 7369TIP3    H222072   2.004   6.197   4.999
 7370TIP3   OH222073   2.543   6.633   4.669
 7370TIP3    H122074   2.583   6.679   4.596
 7370TIP3    H222075   2.559   6.690   4.745
 7371TIP3   OH222076   1.473   2.917   4.800
 7371TIP3    H122077   1.565   2.913   4.825
 7371TIP3    H222078   1.470   2.988   4.735
 7372TIP3   OH222079   6.053   1.780   0.829
 7372TIP3    H122080   6.023   1.692   0.850
 7372TIP3    H222081   6.107   1.805   0.904
 7373TIP3   OH222082   4.484   6.789   1.444
 7373TIP3    H122083   4.414   6.744   1.395
 7373TIP3    H222084   4.548   6.720   1.462
 7374TIP3   OH222085   0.134   1.035   2.249
 7374TIP3    H122086   0.140   1.114   2.196
 7374TIP3    H222087   0.216   1.033   2.299
 7375TIP3   OH222088   0.138   2.930   2.371
 7375TIP3    H122089   0.172   3.007   2.417
 7375TIP3    H222090   0.077   2.966   2.306
 7376TIP3   OH222091   2.264   6.443   0.999
 7376TIP3    H122092   2.222   6.406   1.077
 7376TIP3    H222093   2.283   6.367   0.944
 7377TIP3   OH222094   6.874   3.138   1.080
 7377TIP3    H122095   6.934   3.066   1.098
 7377TIP3    H222096   6.929   3.216   1.085
 7378TIP3   OH222097   4.124   1.210   3.194
 7378TIP3    H122098   4.130   1.301   3.224
 7378TIP3    H222099   4.189   1.163   3.246
 7379TIP3   OH222100   0.667   1.373   5.050
 7379TIP3    H122101   0.652   1.291   5.097
 7379TIP3    H222102   0.622   1.362   4.966
 7380TIP3   OH222103   6.368   1.408   5.908
 7380TIP3    H122104   6.387   1.501   5.898
 7380TIP3    H222105   6.344   1.380   5.819
 7381TIP3   OH222106   7.092   1.442   1.932
 7381TIP3    H122107   7.059   1.514   1.986
 7381TIP3    H222108   7.068   1.363   1.979
 7382TIP3   OH222109   5.374   3.515   0.681
 7382TIP3    H122110   5.436   3.529   0.609
 7382TIP3    H222111   5.343   3.603   0.703
 7383TIP3   OH222112   3.218   3.927   2.313
 7383TIP3    H122113   3.293   3.868   2.311
 7383TIP3    H222114   3.147   3.876   2.352
 7384TIP3   OH222115   2.290   0.529   3.067
 7384TIP3    H122116   2.255   0.596   3.126
 7384TIP3    H222117   2.284   0.569   2.980
 7385TIP3   OH222118   5.623   1.733   5.547
 7385TIP3    H122119   5.663   1.781   5.474
 7385TIP3    H222120   5.688   1.737   5.617
 7386TIP3   OH222121   1.492   3.306   3.877
 7386TIP3    H122122   1.575   3.350   3.862
 7386TIP3    H222123   1.506   3.253   3.955
 7387TIP3   OH222124   5.341   4.975   2.789
 7387TIP3    H122125   5.407   4.918   2.748
 7387TIP3    H222126   5.334   4.942   2.879
 7388TIP3   OH222127   2.332   2.801   0.210
 7388TIP3    H122128   2.253   2.846   0.240
 7388TIP3    H222129   2.401   2.867   0.220
 7389TIP3   OH222130   3.018   1.828   0.182
 7389TIP3    H122131   3.038   1.796   0.269
 7389TIP3    H222132   2.964   1.760   0.142
 7390TIP3   OH222133   6.613   2.108   4.342
 7390TIP3    H122134   6.596   2.197   4.311
 7390TIP3    H222135   6.597   2.053   4.265
 7391TIP3   OH222136   6.153   6.652   4.870
 7391TIP3    H122137   6.214   6.582   4.849
 7391TIP3    H222138   6.176   6.680   4.958
 7392TIP3   OH222139   4.862   6.772   2.218
 7392TIP3    H122140   4.851   6.745   2.309
 7392TIP3    H222141   4.918   6.849   2.222
 7393TIP3   OH222142   6.761   5.341   2.860
 7393TIP3    H122143   6.807   5.257   2.853
 7393TIP3    H222144   6.736   5.363   2.770
 7394TIP3   OH222145   5.473   3.919   1.429
 7394TIP3    H122146   5.403   3.956   1.482
 7394TIP3    H222147   5.492   3.835   1.470
 7395TIP3   OH222148   4.803   0.540   2.722
 7395TIP3    H122149   4.737   0.585   2.669
 7395TIP3    H222150   4.773   0.550   2.812
 7396TIP3   OH222151   5.236   5.186   0.381
 7396TIP3    H122152   5.223   5.276   0.353
 7396TIP3    H222153   5.160   5.166   0.436
 7397TIP3   OH222154   1.943   3.148   5.738
 7397TIP3    H122155   1.938   3.052   5.745
 7397TIP3    H222156   1.909   3.168   5.651
 7398TIP3   OH222157   0.540   0.681   3.933
 7398TIP3    H122158   0.488   0.761   3.928
 7398TIP3    H222159   0.484   0.619   3.981
 7399TIP3   OH222160   5.342   3.228   4.148
 7399TIP3    H122161   5.419   3.216   4.203
 7399TIP3    H222162   5.375   3.269   4.068
 7400TIP3   OH222163   3.725   0.368   4.194
 7400TIP3    H122164   3.818   0.389   4.206
 7400TIP3    H222165   3.684   0.387   4.278
 7401TIP3   OH222166   1.821   5.978   4.286
 7401TIP3    H122167   1.834   6.066   4.251
 7401TIP3    H222168   1.727   5.971   4.302
 7402TIP3   OH222169   2.033   2.505   2.294
 7402TIP3    H122170   2.025   2.416   2.260
 7402TIP3    H222171   1.989   2.559   2.228
 7403TIP3   OH222172   6.335   1.495   4.231
 7403TIP3    H122173   6.429   1.473   4.234
 7403TIP3    H222174   6.299   1.458   4.311
 7404TIP3   OH222175   4.793   0.047   1.475
 7404TIP3    H122176   4.885   0.073   1.465
 7404TIP3    H222177   4.794  -0.024   1.539
 7405TIP3   OH222178   6.569   5.100   0.580
 7405TIP3    H122179   6.578   5.064   0.668
 7405TIP3    H222180   6.658   5.124   0.555
 7406TIP3   OH222181   3.460   0.710   0.901
 7406TIP3    H122182   3.373   0.690   0.866
 7406TIP3    H222183   3.519   0.651   0.853
 7407TIP3   OH222184   6.852   4.104   2.138
 7407TIP3    H122185   6.927   4.089   2.196
 7407TIP3    H222186   6.794   4.161   2.188
 7408TIP3   OH222187   5.673   0.991   4.366
 7408TIP3    H122188   5.678   0.944   4.282
 7408TIP3    H222189   5.706   1.078   4.347
 7409TIP3   OH222190   4.978   2.730   2.684
 7409TIP3    H122191   4.940   2.772   2.761
 7409TIP3    H222192   4.953   2.638   2.692
 7410TIP3   OH222193   1.620   3.617   2.174
 7410TIP3    H122194   1.605   3.582   2.086
 7410TIP3    H222195   1.695   3.674   2.165
 7411TIP3   OH222196   3.264   5.908   0.327
 7411TIP3    H122197   3.346   5.956   0.328
 7411TIP3    H222198   3.196   5.976   0.323
 7412TIP3   OH222199   3.040   0.020   3.853
 7412TIP3    H122200   3.133   0.029   3.836
 7412TIP3    H222201   3.022   0.078   3.927
 7413TIP3   OH222202   3.087   6.517   2.974
 7413TIP3    H122203   3.068   6.595   2.922
 7413TIP3    H222204   3.176   6.493   2.950
 7414TIP3   OH222205   5.358   1.275   3.767
 7414TIP3    H122206   5.299   1.351   3.760
 7414TIP3    H222207   5.320   1.223   3.838
 7415TIP3   OH222208   5.224   3.086   1.308
 7415TIP3    H122209   5.145   3.118   1.350
 7415TIP3    H222210   5.195   3.056   1.222
 7416TIP3   OH222211   2.672   2.212   3.062
 7416TIP3    H122212   2.641   2.130   3.099
 7416TIP3    H222213   2.758   2.225   3.102
 7417TIP3   OH222214   0.873   1.613   3.501
 7417TIP3    H122215   0.928   1.556   3.555
 7417TIP3    H222216   0.784   1.580   3.513
 7418TIP3   OH222217   1.581   5.955   1.628
 7418TIP3    H122218   1.635   6.028   1.595
 7418TIP3    H222219   1.644   5.895   1.667
 7419TIP3   OH222220   4.533   3.948   3.660
 7419TIP3    H122221   4.466   3.920   3.599
 7419TIP3    H222222   4.505   3.914   3.745
 7420TIP3   OH222223   2.033   3.685   0.228
 7420TIP3    H122224   2.071   3.669   0.315
 7420TIP3    H222225   2.100   3.735   0.182
 7421TIP3   OH222226   2.112   6.681   4.105
 7421TIP3    H122227   2.118   6.697   4.199
 7421TIP3    H222228   2.020   6.658   4.090
 7422TIP3   OH222229   0.370   4.697   4.113
 7422TIP3    H122230   0.426   4.624   4.138
 7422TIP3    H222231   0.396   4.717   4.023
 7423TIP3   OH222232   0.764   5.930   3.510
 7423TIP3    H122233   0.831   5.876   3.553
 7423TIP3    H222234   0.793   5.936   3.419
 7424TIP3   OH222235   4.718   5.572   4.328
 7424TIP3    H122236   4.810   5.597   4.335
 7424TIP3    H222237   4.674   5.620   4.398
 7425TIP3   OH222238   0.554   4.986   5.394
 7425TIP3    H122239   0.585   4.941   5.473
 7425TIP3    H222240   0.633   5.001   5.342
 7426TIP3   OH222241   0.647   4.823   4.778
 7426TIP3    H122242   0.674   4.911   4.752
 7426TIP3    H222243   0.641   4.826   4.873
 7427TIP3   OH222244   2.645   4.715   4.726
 7427TIP3    H122245   2.609   4.760   4.649
 7427TIP3    H222246   2.569   4.699   4.781
 7428TIP3   OH222247   2.457   4.151   3.082
 7428TIP3    H122248   2.396   4.204   3.033
 7428TIP3    H222249   2.534   4.207   3.094
 7429TIP3   OH222250   2.756   6.486   1.422
 7429TIP3    H122251   2.680   6.428   1.431
 7429TIP3    H222252   2.745   6.528   1.337
 7430TIP3   OH222253   6.510   3.418   5.504
 7430TIP3    H122254   6.452   3.479   5.458
 7430TIP3    H222255   6.519   3.456   5.592
 7431TIP3   OH222256   3.698   5.230   2.858
 7431TIP3    H122257   3.745   5.262   2.935
 7431TIP3    H222258   3.759   5.242   2.786
 7432TIP3   OH222259   2.405   4.596   2.531
 7432TIP3    H122260   2.411   4.690   2.543
 7432TIP3    H222261   2.472   4.560   2.590
 7433TIP3   OH222262   4.484   2.638   1.344
 7433TIP3    H122263   4.400   2.670   1.380
 7433TIP3    H222264   4.542   2.714   1.348
 7434TIP3   OH222265   1.380   0.843   5.546
 7434TIP3    H122266   1.293   0.882   5.560
 7434TIP3    H222267   1.441   0.912   5.572
 7435TIP3   OH222268   4.756   2.482   4.941
 7435TIP3    H122269   4.718   2.533   4.869
 7435TIP3    H222270   4.693   2.491   5.012
 7436TIP3   OH222271   5.897   2.732   1.068
 7436TIP3    H122272   5.931   2.755   0.981
 7436TIP3    H222273   5.903   2.813   1.118
 7437TIP3   OH222274   3.081   3.522   4.991
 7437TIP3    H122275   2.997   3.522   5.037
 7437TIP3    H222276   3.058   3.533   4.899
 7438TIP3   OH222277   2.375   2.511   3.389
 7438TIP3    H122278   2.447   2.464   3.348
 7438TIP3    H222279   2.400   2.603   3.384
 7439TIP3   OH222280   2.921   4.970   4.997
 7439TIP3    H122281   2.946   5.006   4.912
 7439TIP3    H222282   2.993   4.911   5.020
 7440TIP3   OH222283   1.349   0.511   0.849
 7440TIP3    H122284   1.393   0.547   0.926
 7440TIP3    H222285   1.418   0.470   0.798
 7441TIP3   OH222286   0.476   1.203   2.089
 7441TIP3    H122287   0.553   1.149   2.074
 7441TIP3    H222288   0.511   1.288   2.116
 7442TIP3   OH222289   6.534   1.402   1.178
 7442TIP3    H122290   6.446   1.425   1.148
 7442TIP3    H222291   6.559   1.474   1.236
 7443TIP3   OH222292   1.333   4.092   3.375
 7443TIP3    H122293   1.308   4.034   3.303
 7443TIP3    H222294   1.426   4.109   3.360
 7444TIP3   OH222295   2.522   6.178   1.701
 7444TIP3    H122296   2.578   6.188   1.778
 7444TIP3    H222297   2.436   6.209   1.729
 7445TIP3   OH222298   0.900   1.210   0.636
 7445TIP3    H122299   0.983   1.167   0.614
 7445TIP3    H222300   0.833   1.154   0.597
 7446TIP3   OH222301   6.131   1.581   0.250
 7446TIP3    H122302   6.217   1.623   0.253
 7446TIP3    H222303   6.098   1.587   0.339
 7447TIP3   OH222304   6.461   3.910   1.485
 7447TIP3    H122305   6.393   3.960   1.440
 7447TIP3    H222306   6.491   3.969   1.555
 7448TIP3   OH222307   4.708   6.618   3.624
 7448TIP3    H122308   4.787   6.608   3.677
 7448TIP3    H222309   4.695   6.713   3.618
 7449TIP3   OH222310   1.639   4.176   4.996
 7449TIP3    H122311   1.732   4.156   4.994
 7449TIP3    H222312   1.625   4.218   5.081
 7450TIP3   OH222313   0.406   5.122   3.438
 7450TIP3    H122314   0.404   5.177   3.517
 7450TIP3    H222315   0.389   5.033   3.471
 7451TIP3   OH222316   5.197   4.553   2.109
 7451TIP3    H122317   5.137   4.579   2.180
 7451TIP3    H222318   5.154   4.479   2.067
 7452TIP3   OH222319   3.587   2.899   4.947
 7452TIP3    H122320   3.656   2.960   4.921
 7452TIP3    H222321   3.562   2.927   5.036
 7453TIP3   OH222322   3.628   2.654   5.352
 7453TIP3    H122323   3.593   2.638   5.264
 7453TIP3    H222324   3.577   2.596   5.409
 7454TIP3   OH222325   2.842   1.922   0.742
 7454TIP3    H122326   2.834   1.990   0.809
 7454TIP3    H222327   2.884   1.966   0.668
 7455TIP3   OH222328   0.547   1.660   1.756
 7455TIP3    H122329   0.475   1.645   1.816
 7455TIP3    H222330   0.511   1.640   1.669
 7456TIP3   OH222331   2.209   5.485   4.732
 7456TIP3    H122332   2.232   5.567   4.776
 7456TIP3    H222333   2.117   5.471   4.753
 7457TIP3   OH222334   0.617   3.607   4.043
 7457TIP3    H122335   0.656   3.546   3.981
 7457TIP3    H222336   0.577   3.551   4.110
 7458TIP3   OH222337   5.945   3.281   3.555
 7458TIP3    H122338   5.904   3.195   3.557
 7458TIP3    H222339   5.875   3.342   3.532
 7459TIP3   OH222340   1.862   3.246   2.036
 7459TIP3    H122341   1.782   3.204   2.069
 7459TIP3    H222342   1.912   3.174   1.998
 7460TIP3   OH222343   2.561   1.236   4.357
 7460TIP3    H122344   2.631   1.269   4.300
 7460TIP3    H222345   2.488   1.296   4.344
 7461TIP3   OH222346   3.200   0.341   4.515
 7461TIP3    H122347   3.286   0.309   4.541
 7461TIP3    H222348   3.216   0.428   4.477
 7462TIP3   OH222349   1.632   3.857   5.443
 7462TIP3    H122350   1.656   3.914   5.516
 7462TIP3    H222351   1.537   3.862   5.439
 7463TIP3   OH222352   4.896   5.508   1.073
 7463TIP3    H122353   4.809   5.541   1.051
 7463TIP3    H222354   4.936   5.489   0.988
 7464TIP3   OH222355   5.692   1.364   0.293
 7464TIP3    H122356   5.664   1.453   0.270
 7464TIP3    H222357   5.611   1.313   0.292
 7465TIP3   OH222358   2.227   4.313   5.802
 7465TIP3    H122359   2.274   4.374   5.859
 7465TIP3    H222360   2.293   4.247   5.779
 7466TIP3   OH222361   0.258   5.886   4.147
 7466TIP3    H122362   0.307   5.804   4.151
 7466TIP3    H222363   0.168   5.862   4.167
 7467TIP3   OH222364   2.819   2.401   2.953
 7467TIP3    H122365   2.735   2.359   2.968
 7467TIP3    H222366   2.825   2.469   3.021
 7468TIP3   OH222367   6.068   0.922   0.561
 7468TIP3    H122368   6.069   0.926   0.465
 7468TIP3    H222369   6.142   0.866   0.584
 7469TIP3   OH222370   0.768   6.008   2.993
 7469TIP3    H122371   0.803   5.933   3.040
 7469TIP3    H222372   0.795   5.994   2.903
 7470TIP3   OH222373   5.657   1.000   2.939
 7470TIP3    H122374   5.726   1.032   2.997
 7470TIP3    H222375   5.648   0.907   2.961
 7471TIP3   OH222376   0.156   3.142   0.922
 7471TIP3    H122377   0.223   3.130   0.989
 7471TIP3    H222378   0.159   3.235   0.902
 7472TIP3   OH222379   5.327   3.992   5.365
 7472TIP3    H122380   5.252   3.959   5.315
 7472TIP3    H222381   5.338   4.082   5.336
 7473TIP3   OH222382   0.412   2.820   0.791
 7473TIP3    H122383   0.407   2.728   0.764
 7473TIP3    H222384   0.322   2.843   0.816
 7474TIP3   OH222385   7.011   1.309   0.848
 7474TIP3    H122386   6.989   1.253   0.773
 7474TIP3    H222387   7.092   1.272   0.882
 7475TIP3   OH222388   2.174   6.103   4.035
 7475TIP3    H122389   2.223   6.185   4.036
 7475TIP3    H222390   2.096   6.121   4.088
 7476TIP3   OH222391   1.192   2.862   0.132
 7476TIP3    H122392   1.212   2.929   0.066
 7476TIP3    H222393   1.212   2.779   0.089
 7477TIP3   OH222394   5.617   1.904   3.357
 7477TIP3    H122395   5.698   1.918   3.308
 7477TIP3    H222396   5.548   1.927   3.295
 7478TIP3   OH222397   1.457   1.428   2.956
 7478TIP3    H122398   1.431   1.407   3.045
 7478TIP3    H222399   1.380   1.471   2.918
 7479TIP3   OH222400   5.125   4.965   2.515
 7479TIP3    H122401   5.145   4.934   2.604
 7479TIP3    H222402   5.038   4.929   2.497
 7480TIP3   OH222403   3.102   1.912   4.595
 7480TIP3    H122404   3.170   1.900   4.662
 7480TIP3    H222405   3.111   2.003   4.568
 7481TIP3   OH222406   3.889   4.789   3.189
 7481TIP3    H122407   3.967   4.733   3.198
 7481TIP3    H222408   3.888   4.813   3.096
 7482TIP3   OH222409   5.775   0.992   3.309
 7482TIP3    H122410   5.833   1.068   3.310
 7482TIP3    H222411   5.732   0.993   3.394
 7483TIP3   OH222412   6.037   2.733   3.648
 7483TIP3    H122413   6.002   2.649   3.680
 7483TIP3    H222414   6.057   2.782   3.728
 7484TIP3   OH222415   6.557   1.321   1.602
 7484TIP3    H122416   6.545   1.310   1.697
 7484TIP3    H222417   6.471   1.300   1.565
 7485TIP3   OH222418   2.872   0.463   3.542
 7485TIP3    H122419   2.862   0.415   3.624
 7485TIP3    H222420   2.948   0.520   3.556
 7486TIP3   OH222421   6.567   6.497   1.714
 7486TIP3    H122422   6.526   6.548   1.784
 7486TIP3    H222423   6.652   6.472   1.750
 7487TIP3   OH222424   5.930   1.631   5.690
 7487TIP3    H122425   5.983   1.572   5.744
 7487TIP3    H222426   5.918   1.709   5.745
 7488TIP3   OH222427   1.176   6.804   1.897
 7488TIP3    H122428   1.249   6.789   1.956
 7488TIP3    H222429   1.121   6.868   1.942
 7489TIP3   OH222430   5.285   3.530   3.980
 7489TIP3    H122431   5.312   3.578   4.058
 7489TIP3    H222432   5.360   3.535   3.921
 7490TIP3   OH222433   2.203   2.343   3.252
 7490TIP3    H122434   2.237   2.392   3.178
 7490TIP3    H222435   2.227   2.395   3.329
 7491TIP3   OH222436   4.470   6.707   4.999
 7491TIP3    H122437   4.562   6.681   4.999
 7491TIP3    H222438   4.442   6.695   5.090
 7492TIP3   OH222439   4.985   1.167   0.613
 7492TIP3    H122440   4.970   1.076   0.586
 7492TIP3    H222441   4.931   1.177   0.692
 7493TIP3   OH222442   4.804   2.325   2.399
 7493TIP3    H122443   4.853   2.336   2.480
 7493TIP3    H222444   4.734   2.390   2.403
 7494TIP3   OH222445   5.480   5.939   1.968
 7494TIP3    H122446   5.398   5.978   1.938
 7494TIP3    H222447   5.505   5.991   2.044
 7495TIP3   OH222448   0.112   6.464   0.393
 7495TIP3    H122449   0.133   6.376   0.363
 7495TIP3    H222450   0.027   6.455   0.435
 7496TIP3   OH222451   7.213   1.208   5.565
 7496TIP3    H122452   7.224   1.150   5.640
 7496TIP3    H222453   7.182   1.152   5.495
 7497TIP3   OH222454   1.953   4.750   4.171
 7497TIP3    H122455   1.924   4.726   4.083
 7497TIP3    H222456   1.921   4.680   4.227
 7498TIP3   OH222457   5.757   6.407   1.316
 7498TIP3    H122458   5.783   6.384   1.227
 7498TIP3    H222459   5.840   6.412   1.364
 7499TIP3   OH222460   4.982   0.846   2.783
 7499TIP3    H122461   5.015   0.757   2.797
 7499TIP3    H222462   5.045   0.902   2.829
 7500TIP3   OH222463   3.121   3.843   3.932
 7500TIP3    H122464   3.096   3.858   4.023
 7500TIP3    H222465   3.193   3.903   3.916
 7501TIP3   OH222466   5.947   1.331   5.696
 7501TIP3    H122467   6.022   1.309   5.641
 7501TIP3    H222468   5.985   1.353   5.781
 7502TIP3   OH222469   6.579   1.559   0.055
 7502TIP3    H122470   6.655   1.501   0.069
 7502TIP3    H222471   6.595   1.598  -0.031
 7503TIP3   OH222472   2.404   5.742   0.922
 7503TIP3    H122473   2.356   5.736   0.839
 7503TIP3    H222474   2.353   5.805   0.974
 7504TIP3   OH222475   2.551   2.906   4.716
 7504TIP3    H122476   2.597   2.891   4.798
 7504TIP3    H222477   2.620   2.922   4.652
 7505TIP3   OH222478   1.035   1.810   3.347
 7505TIP3    H122479   0.990   1.750   3.406
 7505TIP3    H222480   0.971   1.827   3.277
 7506TIP3   OH222481   5.011   0.778   2.275
 7506TIP3    H122482   5.102   0.802   2.293
 7506TIP3    H222483   4.971   0.771   2.362
 7507TIP3   OH222484   0.524   4.895   5.034
 7507TIP3    H122485   0.592   4.949   5.076
 7507TIP3    H222486   0.442   4.929   5.070
 7508TIP3   OH222487   4.406   4.823   2.291
 7508TIP3    H122488   4.361   4.779   2.219
 7508TIP3    H222489   4.362   4.907   2.301
 7509TIP3   OH222490   2.675   5.346   3.550
 7509TIP3    H122491   2.597   5.304   3.586
 7509TIP3    H222492   2.645   5.388   3.470
 7510TIP3   OH222493   2.649   0.714   4.493
 7510TIP3    H122494   2.599   0.705   4.575
 7510TIP3    H222495   2.635   0.805   4.467
 7511TIP3   OH222496   7.109   0.885   2.233
 7511TIP3    H122497   7.175   0.950   2.211
 7511TIP3    H222498   7.033   0.908   2.179
 7512TIP3   OH222499   7.115   3.214   0.489
 7512TIP3    H122500   7.119   3.304   0.521
 7512TIP3    H222501   7.185   3.168   0.534
 7513TIP3   OH222502   1.058   2.163   5.360
 7513TIP3    H122503   1.129   2.217   5.396
 7513TIP3    H222504   1.004   2.225   5.310
 7514TIP3   OH222505   4.528   3.347   0.074
 7514TIP3    H122506   4.593   3.289   0.115
 7514TIP3    H222507   4.491   3.295   0.003
 7515TIP3   OH222508   1.355   1.228   3.464
 7515TIP3    H122509   1.443   1.257   3.490
 7515TIP3    H222510   1.333   1.161   3.528
 7516TIP3   OH222511   6.567   3.415   4.896
 7516TIP3    H122512   6.543   3.478   4.827
 7516TIP3    H222513   6.649   3.449   4.932
 7517TIP3   OH222514   1.414   6.313   1.640
 7517TIP3    H122515   1.373   6.399   1.646
 7517TIP3    H222516   1.452   6.311   1.552
 7518TIP3   OH222517   1.191   3.621   5.598
 7518TIP3    H122518   1.156   3.535   5.619
 7518TIP3    H222519   1.133   3.683   5.643
 7519TIP3   OH222520   0.062   5.108   0.310
 7519TIP3    H122521   0.126   5.057   0.360
 7519TIP3    H222522  -0.020   5.096   0.357
 7520TIP3   OH222523   4.722   4.841   3.667
 7520TIP3    H122524   4.677   4.859   3.584
 7520TIP3    H222525   4.780   4.767   3.646
 7521TIP3   OH222526   2.217   4.578   4.299
 7521TIP3    H122527   2.170   4.610   4.376
 7521TIP3    H222528   2.299   4.543   4.334
 7522TIP3   OH222529   1.488   3.739   5.728
 7522TIP3    H122530   1.395   3.736   5.749
 7522TIP3    H222531   1.507   3.652   5.692
 7523TIP3   OH222532   3.991   2.938   2.256
 7523TIP3    H122533   3.972   2.939   2.349
 7523TIP3    H222534   3.927   2.877   2.218
 7524TIP3   OH222535   5.651   3.407   5.031
 7524TIP3    H122536   5.709   3.415   5.107
 7524TIP3    H222537   5.579   3.467   5.049
 7525TIP3   OH222538   3.585   6.182   2.643
 7525TIP3    H122539   3.669   6.183   2.596
 7525TIP3    H222540   3.519   6.177   2.575
 7526TIP3   OH222541   3.170   4.940   0.094
 7526TIP3    H122542   3.199   4.938   0.185
 7526TIP3    H222543   3.121   5.021   0.086
 7527TIP3   OH222544   4.216   2.527   0.902
 7527TIP3    H122545   4.269   2.527   0.982
 7527TIP3    H222546   4.266   2.581   0.841
 7528TIP3   OH222547   2.026   3.423   1.225
 7528TIP3    H122548   1.990   3.511   1.237
 7528TIP3    H222549   2.012   3.380   1.309
 7529TIP3   OH222550   6.229   6.149   2.475
 7529TIP3    H122551   6.217   6.132   2.382
 7529TIP3    H222552   6.228   6.062   2.515
 7530TIP3   OH222553   5.985   6.432   1.477
 7530TIP3    H122554   6.005   6.382   1.556
 7530TIP3    H222555   6.009   6.522   1.499
 7531TIP3   OH222556   3.113   2.678   0.185
 7531TIP3    H122557   3.144   2.713   0.101
 7531TIP3    H222558   3.042   2.618   0.160
 7532TIP3   OH222559   3.420   6.514   2.384
 7532TIP3    H122560   3.339   6.543   2.426
 7532TIP3    H222561   3.488   6.536   2.447
 7533TIP3   OH222562   3.235   1.341   1.996
 7533TIP3    H122563   3.173   1.270   1.977
 7533TIP3    H222564   3.288   1.349   1.917
 7534TIP3   OH222565   5.946   5.422   0.911
 7534TIP3    H122566   5.896   5.431   0.993
 7534TIP3    H222567   6.030   5.387   0.938
 7535TIP3   OH222568   4.552   6.700   0.630
 7535TIP3    H122569   4.482   6.761   0.653
 7535TIP3    H222570   4.621   6.719   0.694
 7536TIP3   OH222571   0.325   0.366   5.710
 7536TIP3    H122572   0.420   0.370   5.717
 7536TIP3    H222573   0.299   0.453   5.679
 7537TIP3   OH222574   4.924   4.359   0.617
 7537TIP3    H122575   4.969   4.443   0.605
 7537TIP3    H222576   4.941   4.310   0.537
 7538TIP3   OH222577   1.005   4.034   5.099
 7538TIP3    H122578   1.066   3.961   5.085
 7538TIP3    H222579   1.001   4.044   5.194
 7539TIP3   OH222580   0.767   2.982   1.827
 7539TIP3    H122581   0.690   2.990   1.771
 7539TIP3    H222582   0.736   2.934   1.904
 7540TIP3   OH222583   5.410   4.467   4.774
 7540TIP3    H122584   5.338   4.467   4.711
 7540TIP3    H222585   5.489   4.470   4.721
 7541TIP3   OH222586   4.076   6.251   1.922
 7541TIP3    H122587   4.120   6.302   1.854
 7541TIP3    H222588   4.001   6.212   1.879
 7542TIP3   OH222589   3.295   5.692   2.030
 7542TIP3    H122590   3.202   5.690   2.052
 7542TIP3    H222591   3.335   5.626   2.086
 7543TIP3   OH222592   2.191   3.134   2.106
 7543TIP3    H122593   2.241   3.053   2.118
 7543TIP3    H222594   2.109   3.120   2.153
 7544TIP3   OH222595   6.918   0.672   1.778
 7544TIP3    H122596   7.004   0.707   1.799
 7544TIP3    H222597   6.925   0.644   1.686
 7545TIP3   OH222598   4.281   3.004   3.714
 7545TIP3    H122599   4.247   3.015   3.625
 7545TIP3    H222600   4.226   2.937   3.753
 7546TIP3   OH222601   3.306   5.694   4.524
 7546TIP3    H122602   3.323   5.624   4.461
 7546TIP3    H222603   3.251   5.756   4.476
 7547TIP3   OH222604   0.892   4.843   3.706
 7547TIP3    H122605   0.947   4.920   3.709
 7547TIP3    H222606   0.805   4.876   3.685
 7548TIP3   OH222607   2.546   4.756   1.654
 7548TIP3    H122608   2.624   4.701   1.660
 7548TIP3    H222609   2.560   4.808   1.575
 7549TIP3   OH222610   5.171   3.880   3.454
 7549TIP3    H122611   5.202   3.968   3.433
 7549TIP3    H222612   5.125   3.889   3.537
 7550TIP3   OH222613   3.523   4.763   1.183
 7550TIP3    H122614   3.570   4.823   1.124
 7550TIP3    H222615   3.541   4.676   1.148
 7551TIP3   OH222616   1.186   4.270   3.011
 7551TIP3    H122617   1.264   4.236   2.967
 7551TIP3    H222618   1.217   4.294   3.099
 7552TIP3   OH222619   4.393   5.526   1.405
 7552TIP3    H122620   4.466   5.566   1.451
 7552TIP3    H222621   4.378   5.582   1.329
 7553TIP3   OH222622   2.237   1.019   5.625
 7553TIP3    H122623   2.274   0.935   5.652
 7553TIP3    H222624   2.246   1.075   5.702
 7554TIP3   OH222625   1.281   6.635   5.396
 7554TIP3    H122626   1.323   6.717   5.424
 7554TIP3    H222627   1.253   6.652   5.306
 7555TIP3   OH222628   4.908   5.421   4.632
 7555TIP3    H122629   4.920   5.490   4.696
 7555TIP3    H222630   4.825   5.442   4.589
 7556TIP3   OH222631   4.592   5.462   2.863
 7556TIP3    H122632   4.631   5.470   2.775
 7556TIP3    H222633   4.530   5.390   2.855
 7557TIP3   OH222634   4.247   1.123   0.465
 7557TIP3    H122635   4.241   1.188   0.536
 7557TIP3    H222636   4.167   1.135   0.415
 7558TIP3   OH222637   6.829   0.971   4.977
 7558TIP3    H122638   6.870   0.889   4.949
 7558TIP3    H222639   6.834   1.028   4.900
 7559TIP3   OH222640   4.255   3.259   4.934
 7559TIP3    H122641   4.180   3.274   4.876
 7559TIP3    H222642   4.239   3.173   4.973
 7560TIP3   OH222643   6.280   6.427   1.460
 7560TIP3    H122644   6.265   6.337   1.432
 7560TIP3    H222645   6.267   6.425   1.555
 7561TIP3   OH222646   1.102   0.539   0.204
 7561TIP3    H122647   1.167   0.593   0.248
 7561TIP3    H222648   1.100   0.572   0.114
 7562TIP3   OH222649   5.659   2.435   2.524
 7562TIP3    H122650   5.614   2.376   2.464
 7562TIP3    H222651   5.746   2.396   2.535
 7563TIP3   OH222652   1.899   6.443   2.513
 7563TIP3    H122653   1.829   6.381   2.494
 7563TIP3    H222654   1.861   6.529   2.497
 7564TIP3   OH222655   4.192   4.753   0.961
 7564TIP3    H122656   4.192   4.732   1.055
 7564TIP3    H222657   4.125   4.821   0.952
 7565TIP3   OH222658   7.068   4.924   5.550
 7565TIP3    H122659   7.021   4.934   5.633
 7565TIP3    H222660   7.040   4.998   5.497
 7566TIP3   OH222661   1.275   4.591   0.825
 7566TIP3    H122662   1.218   4.634   0.761
 7566TIP3    H222663   1.325   4.528   0.774
 7567TIP3   OH222664   2.853   2.883   5.561
 7567TIP3    H122665   2.859   2.977   5.576
 7567TIP3    H222666   2.932   2.861   5.512
 7568TIP3   OH222667   3.180   4.985   3.628
 7568TIP3    H122668   3.213   4.901   3.658
 7568TIP3    H222669   3.245   5.015   3.564
 7569TIP3   OH222670   0.271   2.040   3.647
 7569TIP3    H122671   0.322   1.967   3.611
 7569TIP3    H222672   0.337   2.096   3.689
 7570TIP3   OH222673   2.479   1.695   1.824
 7570TIP3    H122674   2.426   1.638   1.769
 7570TIP3    H222675   2.543   1.637   1.865
 7571TIP3   OH222676   5.923   5.720   5.662
 7571TIP3    H122677   5.896   5.662   5.734
 7571TIP3    H222678   6.018   5.708   5.656
 7572TIP3   OH222679   5.225   1.785   5.481
 7572TIP3    H122680   5.260   1.699   5.456
 7572TIP3    H222681   5.212   1.778   5.576
 7573TIP3   OH222682   5.592   6.137   1.145
 7573TIP3    H122683   5.625   6.105   1.229
 7573TIP3    H222684   5.559   6.225   1.164
 7574TIP3   OH222685   3.452   0.834   2.692
 7574TIP3    H122686   3.417   0.871   2.773
 7574TIP3    H222687   3.452   0.907   2.630
 7575TIP3   OH222688   0.041   5.307   5.547
 7575TIP3    H122689  -0.012   5.240   5.504
 7575TIP3    H222690   0.021   5.387   5.500
 7576TIP3   OH222691   1.257   3.987   4.697
 7576TIP3    H122692   1.289   3.905   4.735
 7576TIP3    H222693   1.196   4.021   4.761
 7577TIP3   OH222694   2.572   0.601   1.541
 7577TIP3    H122695   2.625   0.530   1.575
 7577TIP3    H222696   2.568   0.586   1.447
 7578TIP3   OH222697   0.302   4.435   1.806
 7578TIP3    H122698   0.350   4.353   1.797
 7578TIP3    H222699   0.319   4.464   1.895
 7579TIP3   OH222700   4.117   0.883   2.384
 7579TIP3    H122701   4.072   0.799   2.383
 7579TIP3    H222702   4.168   0.884   2.303
 7580TIP3   OH222703   6.846   2.756   0.903
 7580TIP3    H122704   6.940   2.755   0.883
 7580TIP3    H222705   6.837   2.819   0.974
 7581TIP3   OH222706   7.272   4.627   3.267
 7581TIP3    H122707   7.229   4.623   3.352
 7581TIP3    H222708   7.308   4.539   3.254
 7582TIP3   OH222709   0.482   5.884   0.372
 7582TIP3    H122710   0.545   5.869   0.301
 7582TIP3    H222711   0.447   5.798   0.392
 7583TIP3   OH222712   4.241   4.949   4.258
 7583TIP3    H122713   4.281   4.986   4.180
 7583TIP3    H222714   4.217   4.860   4.233
 7584TIP3   OH222715   3.350   3.553   2.869
 7584TIP3    H122716   3.420   3.556   2.934
 7584TIP3    H222717   3.271   3.571   2.918
 7585TIP3   OH222718   0.423   6.492   5.810
 7585TIP3    H122719   0.387   6.479   5.898
 7585TIP3    H222720   0.360   6.550   5.767
 7586TIP3   OH222721   5.990   6.770   5.153
 7586TIP3    H122722   5.987   6.865   5.142
 7586TIP3    H222723   5.938   6.754   5.232
 7587TIP3   OH222724   4.955   2.963   2.230
 7587TIP3    H122725   4.989   2.884   2.272
 7587TIP3    H222726   4.945   2.939   2.138
 7588TIP3   OH222727   0.538   4.350   2.302
 7588TIP3    H122728   0.632   4.335   2.293
 7588TIP3    H222729   0.532   4.430   2.355
 7589TIP3   OH222730   0.353   4.318   4.252
 7589TIP3    H122731   0.404   4.244   4.217
 7589TIP3    H222732   0.413   4.392   4.250
 7590TIP3   OH222733   5.762   3.586   0.776
 7590TIP3    H122734   5.773   3.677   0.749
 7590TIP3    H222735   5.845   3.544   0.754
 7591TIP3   OH222736   4.943   4.995   2.250
 7591TIP3    H122737   4.915   4.946   2.327
 7591TIP3    H222738   5.038   4.994   2.254
 7592TIP3   OH222739   5.740   0.654   0.126
 7592TIP3    H122740   5.687   0.613   0.195
 7592TIP3    H222741   5.812   0.696   0.172
 7593TIP3   OH222742   5.288   3.716   4.298
 7593TIP3    H122743   5.273   3.622   4.304
 7593TIP3    H222744   5.273   3.749   4.387
 7594TIP3   OH222745   6.604   5.696   2.170
 7594TIP3    H122746   6.567   5.672   2.085
 7594TIP3    H222747   6.695   5.667   2.165
 7595TIP3   OH222748   0.339   3.959   3.871
 7595TIP3    H122749   0.435   3.967   3.870
 7595TIP3    H222750   0.313   3.998   3.954
 7596TIP3   OH222751   7.066   4.395   5.131
 7596TIP3    H122752   7.013   4.350   5.197
 7596TIP3    H222753   7.057   4.340   5.053
 7597TIP3   OH222754   5.029   5.847   1.473
 7597TIP3    H122755   5.120   5.872   1.491
 7597TIP3    H222756   5.013   5.771   1.529
 7598TIP3   OH222757   1.340   4.835   1.696
 7598TIP3    H122758   1.317   4.922   1.663
 7598TIP3    H222759   1.435   4.836   1.705
 7599TIP3   OH222760   6.461   2.486   0.714
 7599TIP3    H122761   6.490   2.516   0.801
 7599TIP3    H222762   6.377   2.530   0.701
 7600TIP3   OH222763   1.465   0.356   0.687
 7600TIP3    H122764   1.486   0.355   0.594
 7600TIP3    H222765   1.544   0.324   0.731
 7601TIP3   OH222766   5.583   3.929   5.728
 7601TIP3    H122767   5.505   3.918   5.674
 7601TIP3    H222768   5.642   3.981   5.673
 7602TIP3   OH222769   0.354   4.239   1.103
 7602TIP3    H122770   0.426   4.279   1.055
 7602TIP3    H222771   0.389   4.223   1.191
 7603TIP3   OH222772   5.638   6.453   2.990
 7603TIP3    H122773   5.665   6.426   3.078
 7603TIP3    H222774   5.681   6.391   2.932
 7604TIP3   OH222775   0.184   1.465   0.203
 7604TIP3    H122776   0.184   1.500   0.114
 7604TIP3    H222777   0.092   1.462   0.228
 7605TIP3   OH222778   4.524   5.261   0.116
 7605TIP3    H122779   4.576   5.242   0.194
 7605TIP3    H222780   4.507   5.355   0.121
 7606TIP3   OH222781   5.594   3.672   2.670
 7606TIP3    H122782   5.646   3.751   2.682
 7606TIP3    H222783   5.646   3.603   2.712
 7607TIP3   OH222784   2.213   3.725  -0.005
 7607TIP3    H122785   2.199   3.632   0.014
 7607TIP3    H222786   2.297   3.745   0.037
 7608TIP3   OH222787   0.202   1.450   1.005
 7608TIP3    H122788   0.185   1.492   1.090
 7608TIP3    H222789   0.283   1.401   1.019
 7609TIP3   OH222790   0.511   3.771   3.267
 7609TIP3    H122791   0.474   3.858   3.251
 7609TIP3    H222792   0.456   3.712   3.215
 7610TIP3   OH222793   3.216   3.629   4.568
 7610TIP3    H122794   3.127   3.602   4.593
 7610TIP3    H222795   3.269   3.551   4.579
 7611TIP3   OH222796   0.371   0.916   2.072
 7611TIP3    H122797   0.415   0.871   2.143
 7611TIP3    H222798   0.402   1.007   2.077
 7612TIP3   OH222799   1.138   2.380   1.310
 7612TIP3    H122800   1.138   2.383   1.406
 7612TIP3    H222801   1.053   2.341   1.288
 7613TIP3   OH222802   5.458   0.654   2.221
 7613TIP3    H122803   5.504   0.585   2.268
 7613TIP3    H222804   5.475   0.635   2.128
 7614TIP3   OH222805   5.427   0.101   1.160
 7614TIP3    H122806   5.490   0.146   1.103
 7614TIP3    H222807   5.480   0.043   1.214
 7615TIP3   OH222808   6.492   6.602   3.028
 7615TIP3    H122809   6.461   6.517   2.996
 7615TIP3    H222810   6.530   6.644   2.951
 7616TIP3   OH222811   3.303   5.954   2.134
 7616TIP3    H122812   3.385   5.939   2.181
 7616TIP3    H222813   3.277   5.868   2.102
 7617TIP3   OH222814   5.010   2.710   1.030
 7617TIP3    H122815   5.063   2.749   0.961
 7617TIP3    H222816   5.073   2.670   1.090
 7618TIP3   OH222817   2.187   5.858   3.299
 7618TIP3    H122818   2.146   5.914   3.365
 7618TIP3    H222819   2.192   5.912   3.220
 7619TIP3   OH222820   3.852   1.213   0.529
 7619TIP3    H122821   3.845   1.152   0.602
 7619TIP3    H222822   3.766   1.256   0.525
 7620TIP3   OH222823   2.919   4.977   4.118
 7620TIP3    H122824   2.965   5.019   4.191
 7620TIP3    H222825   2.983   4.975   4.047
 7621TIP3   OH222826   5.366   1.267   3.311
 7621TIP3    H122827   5.300   1.248   3.245
 7621TIP3    H222828   5.439   1.208   3.291
 7622TIP3   OH222829   5.203   6.099   2.783
 7622TIP3    H122830   5.262   6.035   2.745
 7622TIP3    H222831   5.199   6.169   2.718
 7623TIP3   OH222832   0.212   2.560   0.122
 7623TIP3    H122833   0.301   2.538   0.148
 7623TIP3    H222834   0.169   2.476   0.109
 7624TIP3   OH222835   7.137   3.110   4.604
 7624TIP3    H122836   7.228   3.079   4.596
 7624TIP3    H222837   7.110   3.128   4.514
 7625TIP3   OH222838   3.956   5.856   4.457
 7625TIP3    H122839   3.951   5.920   4.386
 7625TIP3    H222840   4.014   5.788   4.423
 7626TIP3   OH222841   4.150   6.704   0.955
 7626TIP3    H122842   4.210   6.776   0.938
 7626TIP3    H222843   4.114   6.722   1.042
 7627TIP3   OH222844   4.010   5.758   1.310
 7627TIP3    H122845   3.928   5.743   1.264
 7627TIP3    H222846   4.012   5.691   1.378
 7628TIP3   OH222847   4.450   0.664   5.510
 7628TIP3    H122848   4.427   0.587   5.458
 7628TIP3    H222849   4.545   0.658   5.522
 7629TIP3   OH222850   6.951   6.076   1.874
 7629TIP3    H122851   6.908   6.061   1.789
 7629TIP3    H222852   6.896   6.030   1.937
 7630TIP3   OH222853   5.467   4.068   2.670
 7630TIP3    H122854   5.470   4.159   2.700
 7630TIP3    H222855   5.441   4.073   2.578
 7631TIP3   OH222856   3.946   5.770   2.078
 7631TIP3    H122857   4.011   5.839   2.088
 7631TIP3    H222858   3.969   5.727   1.996
 7632TIP3   OH222859   1.638   1.321   5.287
 7632TIP3    H122860   1.721   1.352   5.323
 7632TIP3    H222861   1.630   1.231   5.318
 7633TIP3   OH222862   3.302   2.915   4.139
 7633TIP3    H122863   3.253   2.995   4.121
 7633TIP3    H222864   3.305   2.909   4.234
 7634TIP3   OH222865   5.092   5.971   5.151
 7634TIP3    H122866   5.136   6.004   5.073
 7634TIP3    H222867   5.164   5.950   5.211
 7635TIP3   OH222868   4.969   0.652   0.533
 7635TIP3    H122869   4.908   0.578   0.533
 7635TIP3    H222870   5.046   0.621   0.486
 7636TIP3   OH222871   1.357   0.998   2.448
 7636TIP3    H122872   1.385   1.080   2.488
 7636TIP3    H222873   1.437   0.946   2.443
 7637TIP3   OH222874   2.689   5.776   4.248
 7637TIP3    H122875   2.670   5.683   4.261
 7637TIP3    H222876   2.768   5.792   4.301
 7638TIP3   OH222877   4.141   6.448   1.719
 7638TIP3    H122878   4.184   6.407   1.644
 7638TIP3    H222879   4.066   6.494   1.681
 7639TIP3   OH222880   4.492   1.746   4.460
 7639TIP3    H122881   4.438   1.808   4.411
 7639TIP3    H222882   4.480   1.770   4.552
 7640TIP3   OH222883   2.035   1.433   4.894
 7640TIP3    H122884   2.100   1.364   4.911
 7640TIP3    H222885   2.031   1.483   4.976
 7641TIP3   OH222886   3.598   6.317   4.452
 7641TIP3    H122887   3.583   6.260   4.376
 7641TIP3    H222888   3.670   6.374   4.425
 7642TIP3   OH222889   0.631   2.225   1.582
 7642TIP3    H122890   0.606   2.254   1.670
 7642TIP3    H222891   0.568   2.156   1.561
 7643TIP3   OH222892   6.872   4.872   5.809
 7643TIP3    H122893   6.855   4.869   5.903
 7643TIP3    H222894   6.894   4.782   5.785
 7644TIP3   OH222895   1.188   5.353   1.094
 7644TIP3    H122896   1.189   5.268   1.051
 7644TIP3    H222897   1.280   5.372   1.112
 7645TIP3   OH222898   1.947   1.245   1.791
 7645TIP3    H122899   1.891   1.322   1.781
 7645TIP3    H222900   2.018   1.258   1.728
 7646TIP3   OH222901   5.222   5.640   4.661
 7646TIP3    H122902   5.193   5.720   4.705
 7646TIP3    H222903   5.303   5.616   4.707
 7647TIP3   OH222904   5.702   4.285   2.875
 7647TIP3    H122905   5.666   4.316   2.959
 7647TIP3    H222906   5.777   4.342   2.859
 7648TIP3   OH222907   0.801   5.910   1.491
 7648TIP3    H122908   0.809   6.000   1.461
 7648TIP3    H222909   0.846   5.909   1.576
 7649TIP3   OH222910   5.773   0.196   3.942
 7649TIP3    H122911   5.687   0.183   3.903
 7649TIP3    H222912   5.756   0.216   4.034
 7650TIP3   OH222913   0.230   3.879   5.507
 7650TIP3    H122914   0.189   3.800   5.470
 7650TIP3    H222915   0.243   3.857   5.599
 7651TIP3   OH222916   3.245   0.827   0.080
 7651TIP3    H122917   3.246   0.905   0.135
 7651TIP3    H222918   3.158   0.825   0.042
 7652TIP3   OH222919   6.211   2.703   3.405
 7652TIP3    H122920   6.165   2.619   3.408
 7652TIP3    H222921   6.191   2.745   3.489
 7653TIP3   OH222922   1.290   2.979   0.885
 7653TIP3    H122923   1.271   2.899   0.836
 7653TIP3    H222924   1.204   3.008   0.917
 7654TIP3   OH222925   2.809   1.582   0.771
 7654TIP3    H122926   2.723   1.625   0.765
 7654TIP3    H222927   2.858   1.635   0.834
 7655TIP3   OH222928   1.386   4.771   5.405
 7655TIP3    H122929   1.373   4.708   5.476
 7655TIP3    H222930   1.299   4.807   5.390
 7656TIP3   OH222931   1.077   5.150   3.160
 7656TIP3    H122932   1.170   5.140   3.177
 7656TIP3    H222933   1.035   5.107   3.234
 7657TIP3   OH222934   5.748   4.678   4.610
 7657TIP3    H122935   5.798   4.684   4.692
 7657TIP3    H222936   5.750   4.767   4.574
 7658TIP3   OH222937   5.114   5.458   3.441
 7658TIP3    H122938   5.207   5.442   3.425
 7658TIP3    H222939   5.085   5.508   3.365
 7659TIP3   OH222940   1.122   3.105   4.905
 7659TIP3    H122941   1.033   3.086   4.936
 7659TIP3    H222942   1.178   3.049   4.959
 7660TIP3   OH222943   1.798   3.102   1.277
 7660TIP3    H122944   1.779   3.196   1.273
 7660TIP3    H222945   1.712   3.060   1.268
 7661TIP3   OH222946   6.968   6.579   2.979
 7661TIP3    H122947   7.000   6.517   2.913
 7661TIP3    H222948   7.032   6.650   2.978
 7662TIP3   OH222949   3.610   2.439   1.671
 7662TIP3    H122950   3.694   2.462   1.710
 7662TIP3    H222951   3.581   2.518   1.627
 7663TIP3   OH222952   5.576   2.219   3.676
 7663TIP3    H122953   5.611   2.159   3.742
 7663TIP3    H222954   5.593   2.306   3.711
 7664TIP3   OH222955   2.174   4.440   2.504
 7664TIP3    H122956   2.257   4.486   2.515
 7664TIP3    H222957   2.154   4.403   2.590
 7665TIP3   OH222958   5.262   3.445   4.320
 7665TIP3    H122959   5.213   3.432   4.401
 7665TIP3    H222960   5.286   3.357   4.291
 7666TIP3   OH222961   3.122   6.816   0.404
 7666TIP3    H122962   3.098   6.784   0.491
 7666TIP3    H222963   3.162   6.741   0.361
 7667TIP3   OH222964   5.308   3.301   2.375
 7667TIP3    H122965   5.399   3.330   2.384
 7667TIP3    H222966   5.260   3.378   2.344
 7668TIP3   OH222967   1.386   1.404   0.545
 7668TIP3    H122968   1.355   1.374   0.631
 7668TIP3    H222969   1.417   1.325   0.502
 7669TIP3   OH222970   2.978   5.637   0.268
 7669TIP3    H122971   2.956   5.641   0.361
 7669TIP3    H222972   2.909   5.583   0.229
 7670TIP3   OH222973   5.768   5.644   1.935
 7670TIP3    H122974   5.717   5.703   1.990
 7670TIP3    H222975   5.716   5.634   1.855
 7671TIP3   OH222976   0.304   3.625   1.233
 7671TIP3    H122977   0.289   3.568   1.308
 7671TIP3    H222978   0.399   3.627   1.223
 7672TIP3   OH222979   0.173   2.013   3.054
 7672TIP3    H122980   0.124   2.063   2.988
 7672TIP3    H222981   0.179   2.072   3.129
 7673TIP3   OH222982   2.638   5.253   1.217
 7673TIP3    H122983   2.712   5.259   1.278
 7673TIP3    H222984   2.643   5.334   1.166
 7674TIP3   OH222985   4.645   2.761   2.572
 7674TIP3    H122986   4.565   2.810   2.554
 7674TIP3    H222987   4.704   2.826   2.610
 7675TIP3   OH222988   6.293   5.801   4.859
 7675TIP3    H122989   6.327   5.738   4.796
 7675TIP3    H222990   6.226   5.850   4.811
 7676TIP3   OH222991   0.332   4.110   3.637
 7676TIP3    H122992   0.359   4.192   3.678
 7676TIP3    H222993   0.337   4.045   3.707
 7677TIP3   OH222994   0.732   2.380   3.503
 7677TIP3    H122995   0.743   2.442   3.575
 7677TIP3    H222996   0.793   2.309   3.522
 7678TIP3   OH222997   6.075   4.504   5.230
 7678TIP3    H122998   5.991   4.480   5.192
 7678TIP3    H222999   6.078   4.600   5.223
 7679TIP3   OH223000   2.843   4.490   2.943
 7679TIP3    H123001   2.844   4.546   2.865
 7679TIP3    H223002   2.751   4.466   2.955
 7680TIP3   OH223003   2.958   2.709   0.438
 7680TIP3    H123004   2.872   2.743   0.464
 7680TIP3    H223005   2.960   2.718   0.343
 7681TIP3   OH223006   5.268   2.524   2.484
 7681TIP3    H123007   5.178   2.519   2.451
 7681TIP3    H223008   5.321   2.539   2.406
 7682TIP3   OH223009   0.832   6.242   0.881
 7682TIP3    H123010   0.864   6.329   0.858
 7682TIP3    H223011   0.899   6.183   0.846
 7683TIP3   OH223012   5.961   3.789   1.876
 7683TIP3    H123013   6.012   3.869   1.876
 7683TIP3    H223014   5.897   3.801   1.946
 7684TIP3   OH223015   5.116   3.733   1.776
 7684TIP3    H123016   5.198   3.773   1.803
 7684TIP3    H223017   5.119   3.645   1.812
 7685TIP3   OH223018   3.391   5.238   4.247
 7685TIP3    H123019   3.326   5.198   4.189
 7685TIP3    H223020   3.427   5.311   4.197
 7686TIP3   OH223021   3.194   6.011   1.856
 7686TIP3    H123022   3.270   5.954   1.847
 7686TIP3    H223023   3.190   6.031   1.949
 7687TIP3   OH223024   3.528   5.310   3.796
 7687TIP3    H123025   3.478   5.388   3.822
 7687TIP3    H223026   3.587   5.295   3.869
 7688TIP3   OH223027   6.921   0.910   4.588
 7688TIP3    H123028   6.827   0.919   4.577
 7688TIP3    H223029   6.944   0.976   4.654
 7689TIP3   OH223030   6.297   4.739   1.628
 7689TIP3    H123031   6.243   4.772   1.556
 7689TIP3    H223032   6.273   4.646   1.634
 7690TIP3   OH223033   4.749   2.216   5.770
 7690TIP3    H123034   4.656   2.206   5.790
 7690TIP3    H223035   4.756   2.200   5.676
 7691TIP3   OH223036   6.173   1.580   3.273
 7691TIP3    H123037   6.221   1.654   3.310
 7691TIP3    H223038   6.170   1.598   3.179
 7692TIP3   OH223039   6.972   1.775   5.734
 7692TIP3    H123040   6.926   1.760   5.651
 7692TIP3    H223041   6.978   1.688   5.774
 7693TIP3   OH223042   5.307   3.619   4.813
 7693TIP3    H123043   5.305   3.564   4.891
 7693TIP3    H223044   5.373   3.578   4.757
 7694TIP3   OH223045   3.553   2.240   2.929
 7694TIP3    H123046   3.500   2.235   2.849
 7694TIP3    H223047   3.632   2.286   2.902
 7695TIP3   OH223048   1.764   0.244   4.182
 7695TIP3    H123049   1.724   0.158   4.195
 7695TIP3    H223050   1.801   0.266   4.267
 7696TIP3   OH223051   6.611   1.664   5.880
 7696TIP3    H123052   6.621   1.744   5.829
 7696TIP3    H223053   6.621   1.593   5.817
 7697TIP3   OH223054   2.792   4.682   2.745
 7697TIP3    H123055   2.734   4.630   2.690
 7697TIP3    H223056   2.787   4.770   2.708
 7698TIP3   OH223057   3.723   4.132   0.704
 7698TIP3    H123058   3.793   4.163   0.761
 7698TIP3    H223059   3.653   4.107   0.764
 7699TIP3   OH223060   1.104   4.294   0.496
 7699TIP3    H123061   1.196   4.296   0.472
 7699TIP3    H223062   1.073   4.384   0.485
 7700TIP3   OH223063   5.282   3.066   1.821
 7700TIP3    H123064   5.355   3.005   1.813
 7700TIP3    H223065   5.224   3.027   1.886
 7701TIP3   OH223066   0.246   4.940   2.227
 7701TIP3    H123067   0.256   4.846   2.213
 7701TIP3    H223068   0.320   4.964   2.282
 7702TIP3   OH223069   5.943   1.084   0.350
 7702TIP3    H123070   5.856   1.049   0.331
 7702TIP3    H223071   5.933   1.132   0.431
 7703TIP3   OH223072   0.437   5.422   4.248
 7703TIP3    H123073   0.479   5.508   4.240
 7703TIP3    H223074   0.347   5.436   4.219
 7704TIP3   OH223075   3.485   3.579   4.807
 7704TIP3    H123076   3.460   3.487   4.814
 7704TIP3    H223077   3.539   3.583   4.728
 7705TIP3   OH223078   6.430   2.849   1.521
 7705TIP3    H123079   6.507   2.829   1.468
 7705TIP3    H223080   6.389   2.764   1.536
 7706TIP3   OH223081   0.292   1.652   0.847
 7706TIP3    H123082   0.243   1.589   0.900
 7706TIP3    H223083   0.316   1.721   0.908
 7707TIP3   OH223084   0.252   0.501   1.886
 7707TIP3    H123085   0.295   0.564   1.944
 7707TIP3    H223086   0.214   0.436   1.945
 7708TIP3   OH223087   2.826   6.497   3.290
 7708TIP3    H123088   2.744   6.466   3.251
 7708TIP3    H223089   2.845   6.578   3.243
 7709TIP3   OH223090   0.556   2.960   1.632
 7709TIP3    H123091   0.603   2.987   1.553
 7709TIP3    H223092   0.468   2.994   1.620
 7710TIP3   OH223093   4.074   5.387   5.515
 7710TIP3    H123094   4.024   5.444   5.456
 7710TIP3    H223095   4.049   5.298   5.489
 7711TIP3   OH223096   2.127   6.002   5.539
 7711TIP3    H123097   2.141   5.958   5.455
 7711TIP3    H223098   2.209   6.051   5.553
 7712TIP3   OH223099   4.799   2.329   5.517
 7712TIP3    H123100   4.826   2.404   5.569
 7712TIP3    H223101   4.876   2.307   5.465
 7713TIP3   OH223102   6.838   1.156   4.679
 7713TIP3    H123103   6.926   1.186   4.702
 7713TIP3    H223104   6.785   1.236   4.676
 7714TIP3   OH223105   0.072   5.455   1.160
 7714TIP3    H123106   0.012   5.401   1.211
 7714TIP3    H223107   0.062   5.543   1.196
 7715TIP3   OH223108   2.616   4.114   1.416
 7715TIP3    H123109   2.648   4.070   1.495
 7715TIP3    H223110   2.695   4.145   1.372
 7716TIP3   OH223111   3.230   6.407   1.252
 7716TIP3    H123112   3.245   6.454   1.169
 7716TIP3    H223113   3.169   6.463   1.300
 7717TIP3   OH223114   2.816   2.040   4.049
 7717TIP3    H123115   2.789   1.949   4.061
 7717TIP3    H223116   2.856   2.064   4.132
 7718TIP3   OH223117   3.921   1.684   4.419
 7718TIP3    H123118   3.997   1.650   4.374
 7718TIP3    H223119   3.865   1.719   4.350
 7719TIP3   OH223120   5.421   3.302   5.866
 7719TIP3    H123121   5.412   3.210   5.891
 7719TIP3    H223122   5.347   3.318   5.807
 7720TIP3   OH223123   3.921   5.716   2.329
 7720TIP3    H123124   3.904   5.731   2.236
 7720TIP3    H223125   3.845   5.754   2.374
 7721TIP3   OH223126   0.734   4.370   3.221
 7721TIP3    H123127   0.804   4.357   3.158
 7721TIP3    H223128   0.654   4.377   3.168
 7722TIP3   OH223129   5.408   0.954   3.973
 7722TIP3    H123130   5.329   1.006   3.957
 7722TIP3    H223131   5.480   1.017   3.965
 7723TIP3   OH223132   0.749   3.401   5.408
 7723TIP3    H123133   0.844   3.395   5.416
 7723TIP3    H223134   0.732   3.495   5.396
 7724TIP3   OH223135   1.609   1.022   1.215
 7724TIP3    H123136   1.597   0.977   1.298
 7724TIP3    H223137   1.704   1.032   1.207
 7725TIP3   OH223138   1.207   2.724   1.464
 7725TIP3    H123139   1.200   2.640   1.508
 7725TIP3    H223140   1.294   2.724   1.424
 7726TIP3   OH223141   2.207   1.267   1.660
 7726TIP3    H123142   2.194   1.199   1.595
 7726TIP3    H223143   2.251   1.223   1.733
 7727TIP3   OH223144   2.298   2.366   3.622
 7727TIP3    H123145   2.341   2.418   3.553
 7727TIP3    H223146   2.299   2.277   3.589
 7728TIP3   OH223147   1.036   2.480   5.053
 7728TIP3    H123148   1.040   2.575   5.048
 7728TIP3    H223149   1.011   2.461   5.143
 7729TIP3   OH223150   6.292   3.927   3.631
 7729TIP3    H123151   6.273   4.009   3.586
 7729TIP3    H223152   6.217   3.871   3.612
 7730TIP3   OH223153   0.542   2.906   5.694
 7730TIP3    H123154   0.479   2.971   5.662
 7730TIP3    H223155   0.591   2.951   5.763
 7731TIP3   OH223156   0.578   1.074   1.781
 7731TIP3    H123157   0.493   1.073   1.825
 7731TIP3    H223158   0.585   1.162   1.744
 7732TIP3   OH223159   4.551   5.567   0.362
 7732TIP3    H123160   4.583   5.601   0.446
 7732TIP3    H223161   4.479   5.509   0.386
 7733TIP3   OH223162   3.694   4.029   3.337
 7733TIP3    H123163   3.752   4.079   3.279
 7733TIP3    H223164   3.614   4.082   3.341
 7734TIP3   OH223165   5.725   6.468   0.537
 7734TIP3    H123166   5.649   6.500   0.489
 7734TIP3    H223167   5.775   6.418   0.473
 7735TIP3   OH223168   2.822   4.623   5.597
 7735TIP3    H123169   2.746   4.677   5.576
 7735TIP3    H223170   2.785   4.542   5.633
 7736TIP3   OH223171   4.552   0.324   1.048
 7736TIP3    H123172   4.587   0.393   0.992
 7736TIP3    H223173   4.464   0.355   1.071
 7737TIP3   OH223174   6.877   1.845   0.643
 7737TIP3    H123175   6.847   1.879   0.559
 7737TIP3    H223176   6.905   1.922   0.692
 7738TIP3   OH223177   1.120   1.530   4.369
 7738TIP3    H123178   1.039   1.545   4.321
 7738TIP3    H223179   1.163   1.616   4.371
 7739TIP3   OH223180   4.487   3.112   3.178
 7739TIP3    H123181   4.470   3.197   3.218
 7739TIP3    H223182   4.463   3.049   3.245
 7740TIP3   OH223183   3.739   3.932   5.651
 7740TIP3    H123184   3.702   3.899   5.733
 7740TIP3    H223185   3.696   3.880   5.583
 7741TIP3   OH223186   0.758   2.542   5.549
 7741TIP3    H123187   0.685   2.583   5.595
 7741TIP3    H223188   0.719   2.468   5.503
 7742TIP3   OH223189   4.329   4.985   2.609
 7742TIP3    H123190   4.364   4.962   2.522
 7742TIP3    H223191   4.340   4.905   2.661
 7743TIP3   OH223192   6.019   4.668   4.750
 7743TIP3    H123193   6.106   4.692   4.718
 7743TIP3    H223194   5.997   4.735   4.815
 7744TIP3   OH223195   4.318   0.724   4.108
 7744TIP3    H123196   4.341   0.718   4.201
 7744TIP3    H223197   4.395   0.763   4.067
 7745TIP3   OH223198   2.334   1.315   1.209
 7745TIP3    H123199   2.382   1.345   1.287
 7745TIP3    H223200   2.268   1.255   1.244
 7746TIP3   OH223201   2.046   4.523   3.604
 7746TIP3    H123202   2.141   4.521   3.599
 7746TIP3    H223203   2.023   4.466   3.677
 7747TIP3   OH223204   1.243   4.803   2.782
 7747TIP3    H123205   1.191   4.849   2.847
 7747TIP3    H223206   1.179   4.763   2.723
 7748TIP3   OH223207   7.162   1.478   4.551
 7748TIP3    H123208   7.139   1.474   4.459
 7748TIP3    H223209   7.218   1.401   4.565
 7749TIP3   OH223210   3.388   5.833   1.791
 7749TIP3    H123211   3.420   5.761   1.737
 7749TIP3    H223212   3.351   5.791   1.868
 7750TIP3   OH223213   7.180   1.896   0.505
 7750TIP3    H123214   7.088   1.906   0.530
 7750TIP3    H223215   7.226   1.880   0.587
 7751TIP3   OH223216   4.510   4.174   1.983
 7751TIP3    H123217   4.470   4.140   2.063
 7751TIP3    H223218   4.477   4.116   1.914
 7752TIP3   OH223219   4.655   5.224   3.306
 7752TIP3    H123220   4.735   5.213   3.255
 7752TIP3    H223221   4.656   5.151   3.368
 7753TIP3   OH223222   6.294   4.443   3.896
 7753TIP3    H123223   6.273   4.350   3.889
 7753TIP3    H223224   6.341   4.451   3.979
 7754TIP3   OH223225   3.436   5.586   4.274
 7754TIP3    H123226   3.465   5.618   4.188
 7754TIP3    H223227   3.341   5.574   4.264
 7755TIP3   OH223228   5.409   1.731   3.695
 7755TIP3    H123229   5.488   1.681   3.674
 7755TIP3    H223230   5.428   1.819   3.662
 7756TIP3   OH223231   6.274   0.187   0.188
 7756TIP3    H123232   6.196   0.228   0.150
 7756TIP3    H223233   6.337   0.185   0.116
 7757TIP3   OH223234   3.437   6.478   2.110
 7757TIP3    H123235   3.428   6.475   2.206
 7757TIP3    H223236   3.435   6.386   2.083
 7758TIP3   OH223237   6.544   6.814   3.515
 7758TIP3    H123238   6.462   6.767   3.533
 7758TIP3    H223239   6.537   6.839   3.423
 7759TIP3   OH223240   3.203   0.632   1.699
 7759TIP3    H123241   3.137   0.659   1.763
 7759TIP3    H223242   3.282   0.618   1.751
 7760TIP3   OH223243   4.045   0.656   0.263
 7760TIP3    H123244   3.963   0.648   0.214
 7760TIP3    H223245   4.057   0.751   0.274
 7761TIP3   OH223246   4.440   3.348   1.061
 7761TIP3    H123247   4.411   3.308   0.979
 7761TIP3    H223248   4.523   3.305   1.081
 7762TIP3   OH223249   1.654   0.680   5.512
 7762TIP3    H123250   1.666   0.587   5.489
 7762TIP3    H223251   1.608   0.678   5.596
 7763TIP3   OH223252   2.765   6.573   4.481
 7763TIP3    H123253   2.729   6.650   4.436
 7763TIP3    H223254   2.837   6.608   4.534
 7764TIP3   OH223255   3.379   5.051   0.402
 7764TIP3    H123256   3.317   4.982   0.377
 7764TIP3    H223257   3.465   5.013   0.384
 7765TIP3   OH223258   6.858   2.211   1.628
 7765TIP3    H123259   6.822   2.155   1.559
 7765TIP3    H223260   6.947   2.232   1.598
 7766TIP3   OH223261   1.873   4.571   0.513
 7766TIP3    H123262   1.781   4.552   0.530
 7766TIP3    H223263   1.875   4.665   0.495
 7767TIP3   OH223264   3.962   1.835   0.344
 7767TIP3    H123265   3.881   1.801   0.382
 7767TIP3    H223266   4.007   1.878   0.417
 7768TIP3   OH223267   3.021   1.555   1.452
 7768TIP3    H123268   3.038   1.525   1.363
 7768TIP3    H223269   3.023   1.650   1.447
 7769TIP3   OH223270   5.552   2.020   2.896
 7769TIP3    H123271   5.482   1.995   2.835
 7769TIP3    H223272   5.633   1.991   2.854
 7770TIP3   OH223273   3.382   3.285   1.700
 7770TIP3    H123274   3.465   3.305   1.743
 7770TIP3    H223275   3.327   3.248   1.769
 7771TIP3   OH223276   1.272   4.073   0.980
 7771TIP3    H123277   1.236   3.990   0.952
 7771TIP3    H223278   1.366   4.067   0.960
 7772TIP3   OH223279   2.158   6.386   2.404
 7772TIP3    H123280   2.213   6.433   2.342
 7772TIP3    H223281   2.088   6.448   2.426
 7773TIP3   OH223282   2.332   5.675   4.920
 7773TIP3    H123283   2.417   5.711   4.895
 7773TIP3    H223284   2.338   5.664   5.015
 7774TIP3   OH223285   6.722   1.253   3.571
 7774TIP3    H123286   6.659   1.262   3.643
 7774TIP3    H223287   6.769   1.172   3.589
 7775TIP3   OH223288   4.246   6.365   5.403
 7775TIP3    H123289   4.168   6.324   5.365
 7775TIP3    H223290   4.219   6.392   5.490
 7776TIP3   OH223291   6.094   6.365   0.159
 7776TIP3    H123292   6.043   6.377   0.079
 7776TIP3    H223293   6.066   6.437   0.216
 7777TIP3   OH223294   7.163   1.202   3.133
 7777TIP3    H123295   7.099   1.201   3.204
 7777TIP3    H223296   7.235   1.256   3.166
 7778TIP3   OH223297   4.862   4.598   2.258
 7778TIP3    H123298   4.826   4.510   2.264
 7778TIP3    H223299   4.792   4.655   2.291
 7779TIP3   OH223300   3.089   3.311   2.189
 7779TIP3    H123301   3.162   3.250   2.198
 7779TIP3    H223302   3.066   3.308   2.096
 7780TIP3   OH223303   6.430   2.285   2.991
 7780TIP3    H123304   6.505   2.344   2.994
 7780TIP3    H223305   6.373   2.323   2.924
 7781TIP3   OH223306   1.641   5.367   5.396
 7781TIP3    H123307   1.703   5.295   5.411
 7781TIP3    H223308   1.595   5.343   5.316
 7782TIP3   OH223309   1.432   4.457   3.185
 7782TIP3    H123310   1.361   4.421   3.238
 7782TIP3    H223311   1.390   4.490   3.106
 7783TIP3   OH223312   1.654   6.339   1.436
 7783TIP3    H123313   1.675   6.419   1.484
 7783TIP3    H223314   1.709   6.272   1.476
 7784TIP3   OH223315   3.580   0.426   0.463
 7784TIP3    H123316   3.505   0.479   0.436
 7784TIP3    H223317   3.616   0.471   0.539
 7785TIP3   OH223318   3.229   4.475   4.736
 7785TIP3    H123319   3.232   4.424   4.655
 7785TIP3    H223320   3.147   4.448   4.778
 7786TIP3   OH223321   0.080   4.117   3.468
 7786TIP3    H123322   0.158   4.114   3.524
 7786TIP3    H223323   0.053   4.025   3.460
 7787TIP3   OH223324   6.053   0.386   0.391
 7787TIP3    H123325   6.120   0.408   0.326
 7787TIP3    H223326   6.049   0.290   0.389
 7788TIP3   OH223327   4.040   4.682   2.713
 7788TIP3    H123328   4.051   4.674   2.618
 7788TIP3    H223329   3.945   4.688   2.726
 7789TIP3   OH223330   5.581   1.430   3.894
 7789TIP3    H123331   5.576   1.421   3.799
 7789TIP3    H223332   5.674   1.435   3.913
 7790TIP3   OH223333   5.264   5.212   0.897
 7790TIP3    H123334   5.211   5.269   0.841
 7790TIP3    H223335   5.355   5.235   0.874
 7791TIP3   OH223336   5.538   1.330   5.162
 7791TIP3    H123337   5.623   1.373   5.174
 7791TIP3    H223338   5.561   1.241   5.133
 7792TIP3   OH223339   4.316   0.043   3.547
 7792TIP3    H123340   4.264   0.102   3.601
 7792TIP3    H223341   4.401   0.087   3.539
 7793TIP3   OH223342   7.110   2.003   5.826
 7793TIP3    H123343   7.042   1.943   5.797
 7793TIP3    H223344   7.188   1.976   5.778
 7794TIP3   OH223345   0.472   3.896   4.593
 7794TIP3    H123346   0.566   3.882   4.599
 7794TIP3    H223347   0.442   3.830   4.530
 7795TIP3   OH223348   5.285   4.100   1.820
 7795TIP3    H123349   5.325   4.033   1.875
 7795TIP3    H223350   5.356   4.163   1.804
 7796TIP3   OH223351   3.622   4.620   4.243
 7796TIP3    H123352   3.699   4.570   4.216
 7796TIP3    H223353   3.656   4.706   4.267
 7797TIP3   OH223354   0.454   6.119   4.445
 7797TIP3    H123355   0.520   6.053   4.465
 7797TIP3    H223356   0.504   6.196   4.419
 7798TIP3   OH223357   6.706   1.427   2.352
 7798TIP3    H123358   6.743   1.503   2.307
 7798TIP3    H223359   6.721   1.444   2.444
 7799TIP3   OH223360   7.200   5.982   1.516
 7799TIP3    H123361   7.193   6.061   1.569
 7799TIP3    H223362   7.215   6.015   1.427
 7800TIP3   OH223363   5.680   5.216   4.356
 7800TIP3    H123364   5.775   5.211   4.368
 7800TIP3    H223365   5.662   5.159   4.281
 7801TIP3   OH223366  -0.025   4.586   5.799
 7801TIP3    H123367   0.042   4.627   5.744
 7801TIP3    H223368  -0.097   4.568   5.738
 7802TIP3   OH223369   4.860   6.490   5.797
 7802TIP3    H123370   4.889   6.485   5.706
 7802TIP3    H223371   4.823   6.578   5.806
 7803TIP3   OH223372   1.933   1.529   0.901
 7803TIP3    H123373   2.027   1.532   0.921
 7803TIP3    H223374   1.929   1.494   0.812
 7804TIP3   OH223375   4.337   1.306   1.187
 7804TIP3    H123376   4.326   1.226   1.238
 7804TIP3    H223377   4.270   1.365   1.220
 7805TIP3   OH223378   2.668   0.119   2.054
 7805TIP3    H123379   2.736   0.088   2.114
 7805TIP3    H223380   2.671   0.214   2.063
 7806TIP3   OH223381   0.783   5.166   3.994
 7806TIP3    H123382   0.830   5.231   4.046
 7806TIP3    H223383   0.708   5.213   3.959
 7807TIP3   OH223384   2.203   2.969   3.577
 7807TIP3    H123385   2.274   3.011   3.530
 7807TIP3    H223386   2.142   3.040   3.597
 7808TIP3   OH223387   1.521   6.622   2.412
 7808TIP3    H123388   1.491   6.540   2.372
 7808TIP3    H223389   1.582   6.659   2.347
 7809TIP3   OH223390   0.798   1.278   1.000
 7809TIP3    H123391   0.802   1.327   0.918
 7809TIP3    H223392   0.771   1.190   0.974
 7810TIP3   OH223393   3.885   2.024   2.618
 7810TIP3    H123394   3.818   1.997   2.681
 7810TIP3    H223395   3.955   2.060   2.672
 7811TIP3   OH223396   1.962   5.613   1.413
 7811TIP3    H123397   2.056   5.613   1.395
 7811TIP3    H223398   1.952   5.556   1.489
 7812TIP3   OH223399   3.502   6.798   0.701
 7812TIP3    H123400   3.453   6.859   0.646
 7812TIP3    H223401   3.528   6.727   0.642
 7813TIP3   OH223402   5.947   2.846   4.337
 7813TIP3    H123403   5.952   2.844   4.433
 7813TIP3    H223404   6.018   2.904   4.311
 7814TIP3   OH223405   0.089   4.373   4.857
 7814TIP3    H123406   0.115   4.305   4.919
 7814TIP3    H223407   0.172   4.410   4.827
 7815TIP3   OH223408   0.069   1.389   2.298
 7815TIP3    H123409   0.003   1.415   2.235
 7815TIP3    H223410   0.132   1.338   2.248
 7816TIP3   OH223411   1.808   3.804   2.087
 7816TIP3    H123412   1.874   3.772   2.149
 7816TIP3    H223413   1.853   3.871   2.036
 7817TIP3   OH223414   6.383   0.404   3.860
 7817TIP3    H123415   6.321   0.348   3.905
 7817TIP3    H223416   6.350   0.493   3.874
 7818TIP3   OH223417   5.070   3.702   0.359
 7818TIP3    H123418   5.145   3.733   0.408
 7818TIP3    H223419   5.024   3.781   0.332
 7819TIP3   OH223420   5.794   1.797   2.766
 7819TIP3    H123421   5.850   1.822   2.839
 7819TIP3    H223422   5.743   1.723   2.798
 7820TIP3   OH223423   6.117   5.435   1.951
 7820TIP3    H123424   6.203   5.402   1.978
 7820TIP3    H223425   6.056   5.366   1.976
 7821TIP3   OH223426   1.087   4.746   3.551
 7821TIP3    H123427   1.019   4.780   3.609
 7821TIP3    H223428   1.088   4.652   3.566
 7822TIP3   OH223429   5.680   3.240   3.017
 7822TIP3    H123430   5.676   3.198   3.102
 7822TIP3    H223431   5.611   3.198   2.966
 7823TIP3   OH223432   4.199   3.398   4.082
 7823TIP3    H123433   4.189   3.364   4.171
 7823TIP3    H223434   4.242   3.483   4.093
 7824TIP3   OH223435   3.082   3.833   0.091
 7824TIP3    H123436   3.048   3.757   0.139
 7824TIP3    H223437   3.049   3.821   0.001
 7825TIP3   OH223438   3.103   6.445   4.770
 7825TIP3    H123439   3.089   6.436   4.865
 7825TIP3    H223440   3.073   6.533   4.750
 7826TIP3   OH223441   0.752   5.179   5.434
 7826TIP3    H123442   0.726   5.140   5.517
 7826TIP3    H223443   0.687   5.247   5.418
 7827TIP3   OH223444   0.416   6.743   4.203
 7827TIP3    H123445   0.442   6.818   4.148
 7827TIP3    H223446   0.464   6.669   4.166
 7828TIP3   OH223447   2.793   2.499   5.401
 7828TIP3    H123448   2.875   2.462   5.433
 7828TIP3    H223449   2.815   2.536   5.316
 7829TIP3   OH223450   3.753   1.569   3.768
 7829TIP3    H123451   3.826   1.613   3.811
 7829TIP3    H223452   3.791   1.492   3.726
 7830TIP3   OH223453   2.981   3.776   3.691
 7830TIP3    H123454   2.980   3.870   3.676
 7830TIP3    H223455   3.055   3.761   3.749
 7831TIP3   OH223456   6.540   0.337   2.043
 7831TIP3    H123457   6.600   0.275   2.085
 7831TIP3    H223458   6.453   0.307   2.067
 7832TIP3   OH223459   5.766   2.495   5.648
 7832TIP3    H123460   5.803   2.407   5.642
 7832TIP3    H223461   5.674   2.481   5.673
 7833TIP3   OH223462   0.598   3.272   5.582
 7833TIP3    H123463   0.665   3.303   5.521
 7833TIP3    H223464   0.560   3.196   5.539
 7834TIP3   OH223465   1.860   0.355   5.226
 7834TIP3    H123466   1.854   0.399   5.141
 7834TIP3    H223467   1.903   0.419   5.283
 7835TIP3   OH223468   1.032   1.968   3.792
 7835TIP3    H123469   1.073   1.903   3.849
 7835TIP3    H223470   1.101   2.031   3.774
 7836TIP3   OH223471   6.319   5.981   3.904
 7836TIP3    H123472   6.284   6.067   3.880
 7836TIP3    H223473   6.253   5.919   3.872
 7837TIP3   OH223474   1.479   2.117   1.089
 7837TIP3    H123475   1.558   2.062   1.089
 7837TIP3    H223476   1.469   2.144   1.180
 7838TIP3   OH223477   6.535   1.564   3.860
 7838TIP3    H123478   6.540   1.652   3.822
 7838TIP3    H223479   6.626   1.539   3.874
 7839TIP3   OH223480   3.446   3.793   1.911
 7839TIP3    H123481   3.533   3.818   1.881
 7839TIP3    H223482   3.447   3.812   2.005
 7840TIP3   OH223483   6.250   1.455   5.160
 7840TIP3    H123484   6.330   1.485   5.117
 7840TIP3    H223485   6.237   1.516   5.232
 7841TIP3   OH223486   2.155   4.448   1.554
 7841TIP3    H123487   2.187   4.536   1.533
 7841TIP3    H223488   2.092   4.429   1.484
 7842TIP3   OH223489   0.290   2.577   1.051
 7842TIP3    H123490   0.196   2.572   1.070
 7842TIP3    H223491   0.294   2.605   0.960
 7843TIP3   OH223492   2.032   6.552   1.376
 7843TIP3    H123493   2.123   6.552   1.407
 7843TIP3    H223494   2.006   6.460   1.377
 7844TIP3   OH223495   4.420   4.219   5.190
 7844TIP3    H123496   4.364   4.142   5.179
 7844TIP3    H223497   4.458   4.208   5.277
 7845TIP3   OH223498   6.436   4.880   1.336
 7845TIP3    H123499   6.365   4.942   1.355
 7845TIP3    H223500   6.422   4.855   1.245
 7846TIP3   OH223501   3.842   6.754   1.426
 7846TIP3    H123502   3.760   6.706   1.440
 7846TIP3    H223503   3.824   6.810   1.350
 7847TIP3   OH223504   5.908   6.126   5.101
 7847TIP3    H123505   5.972   6.190   5.073
 7847TIP3    H223506   5.885   6.151   5.191
 7848TIP3   OH223507   6.578   2.516   3.228
 7848TIP3    H123508   6.566   2.434   3.276
 7848TIP3    H223509   6.636   2.493   3.155
 7849TIP3   OH223510   0.840   5.236   2.457
 7849TIP3    H123511   0.873   5.298   2.392
 7849TIP3    H223512   0.914   5.220   2.515
 7850TIP3   OH223513   1.810   1.933   1.831
 7850TIP3    H123514   1.849   1.917   1.745
 7850TIP3    H223515   1.824   1.852   1.879
 7851TIP3   OH223516   6.973   0.581   1.480
 7851TIP3    H123517   7.044   0.551   1.424
 7851TIP3    H223518   6.901   0.600   1.419
 7852TIP3   OH223519   6.708   0.483   2.443
 7852TIP3    H123520   6.619   0.516   2.452
 7852TIP3    H223521   6.760   0.560   2.421
 7853TIP3   OH223522   7.055   3.941   2.256
 7853TIP3    H123523   6.984   3.878   2.268
 7853TIP3    H223524   7.121   3.916   2.320
 7854TIP3   OH223525   1.245   1.575   2.873
 7854TIP3    H123526   1.226   1.660   2.913
 7854TIP3    H223527   1.161   1.531   2.870
 7855TIP3   OH223528   4.476   6.294   1.377
 7855TIP3    H123529   4.436   6.258   1.456
 7855TIP3    H223530   4.473   6.223   1.313
 7856TIP3   OH223531   6.895   0.889   3.957
 7856TIP3    H123532   6.897   0.805   3.910
 7856TIP3    H223533   6.876   0.866   4.047
 7857TIP3   OH223534   6.397   3.298   0.879
 7857TIP3    H123535   6.486   3.269   0.865
 7857TIP3    H223536   6.385   3.295   0.974
 7858TIP3   OH223537   4.022   4.551   5.269
 7858TIP3    H123538   4.113   4.539   5.242
 7858TIP3    H223539   4.021   4.527   5.361
 7859TIP3   OH223540   5.962   4.523   1.046
 7859TIP3    H123541   6.028   4.579   1.085
 7859TIP3    H223542   5.906   4.497   1.120
 7860TIP3   OH223543   3.494   5.161   0.959
 7860TIP3    H123544   3.495   5.255   0.942
 7860TIP3    H223545   3.484   5.121   0.872
 7861TIP3   OH223546   3.559   3.789   2.234
 7861TIP3    H123547   3.487   3.763   2.292
 7861TIP3    H223548   3.620   3.836   2.291
 7862TIP3   OH223549   3.326   6.458   0.103
 7862TIP3    H123550   3.406   6.412   0.127
 7862TIP3    H223551   3.260   6.390   0.097
 7863TIP3   OH223552   0.858   3.682   1.643
 7863TIP3    H123553   0.952   3.663   1.634
 7863TIP3    H223554   0.849   3.712   1.734
 7864TIP3   OH223555   3.179   5.613   1.579
 7864TIP3    H123556   3.118   5.629   1.651
 7864TIP3    H223557   3.196   5.700   1.543
 7865TIP3   OH223558   6.019   2.513   5.206
 7865TIP3    H123559   6.007   2.418   5.196
 7865TIP3    H223560   5.937   2.551   5.175
 7866TIP3   OH223561   5.519   3.353   1.675
 7866TIP3    H123562   5.574   3.371   1.599
 7866TIP3    H223563   5.459   3.285   1.644
 7867TIP3   OH223564   0.824   2.008   1.982
 7867TIP3    H123565   0.747   1.994   1.927
 7867TIP3    H223566   0.788   2.022   2.070
 7868TIP3   OH223567   3.377   3.002   0.041
 7868TIP3    H123568   3.432   3.032   0.113
 7868TIP3    H223569   3.410   2.915   0.020
 7869TIP3   OH223570   1.504   6.482   1.245
 7869TIP3    H123571   1.433   6.432   1.285
 7869TIP3    H223572   1.582   6.429   1.261
 7870TIP3   OH223573   4.490   6.656   2.976
 7870TIP3    H123574   4.429   6.719   3.014
 7870TIP3    H223575   4.496   6.680   2.884
 7871TIP3   OH223576   4.864   0.222   1.004
 7871TIP3    H123577   4.824   0.280   0.939
 7871TIP3    H223578   4.795   0.160   1.026
 7872TIP3   OH223579   1.033   5.157   2.624
 7872TIP3    H123580   1.056   5.205   2.704
 7872TIP3    H223581   1.117   5.132   2.586
 7873TIP3   OH223582   5.002   1.086   2.527
 7873TIP3    H123583   5.020   1.095   2.621
 7873TIP3    H223584   4.908   1.099   2.520
 7874TIP3   OH223585   2.378   1.837   3.399
 7874TIP3    H123586   2.384   1.764   3.337
 7874TIP3    H223587   2.375   1.795   3.485
 7875TIP3   OH223588   4.751   2.561   1.217
 7875TIP3    H123589   4.688   2.632   1.231
 7875TIP3    H223590   4.833   2.595   1.252
 7876TIP3   OH223591   0.507   2.377   3.119
 7876TIP3    H123592   0.421   2.384   3.078
 7876TIP3    H223593   0.510   2.448   3.182
 7877TIP3   OH223594   1.920   2.720   2.129
 7877TIP3    H123595   1.962   2.803   2.153
 7877TIP3    H223596   1.827   2.734   2.143
 7878TIP3   OH223597   4.319   2.989   4.713
 7878TIP3    H123598   4.332   2.994   4.618
 7878TIP3    H223599   4.327   3.080   4.743
 7879TIP3   OH223600   5.296   5.326   0.110
 7879TIP3    H123601   5.333   5.253   0.061
 7879TIP3    H223602   5.306   5.402   0.052
 7880TIP3   OH223603   6.878   3.037   3.054
 7880TIP3    H123604   6.928   3.116   3.034
 7880TIP3    H223605   6.792   3.053   3.015
 7881TIP3   OH223606   2.462   3.933   5.408
 7881TIP3    H123607   2.447   3.935   5.313
 7881TIP3    H223608   2.476   3.840   5.427
 7882TIP3   OH223609   1.552   0.965   0.206
 7882TIP3    H123610   1.620   0.932   0.147
 7882TIP3    H223611   1.548   0.900   0.276
 7883TIP3   OH223612   3.767   4.552   4.680
 7883TIP3    H123613   3.686   4.504   4.661
 7883TIP3    H223614   3.767   4.625   4.618
 7884TIP3   OH223615   5.301   1.121   2.571
 7884TIP3    H123616   5.293   1.066   2.493
 7884TIP3    H223617   5.225   1.180   2.566
 7885TIP3   OH223618   4.361   2.279   4.025
 7885TIP3    H123619   4.274   2.285   3.986
 7885TIP3    H223620   4.421   2.286   3.950
 7886TIP3   OH223621   4.970   5.028   2.809
 7886TIP3    H123622   5.026   5.086   2.862
 7886TIP3    H223623   4.894   5.081   2.787
 7887TIP3   OH223624   2.838   4.542   0.257
 7887TIP3    H123625   2.880   4.460   0.282
 7887TIP3    H223626   2.837   4.593   0.338
 7888TIP3   OH223627   4.703   5.796   2.853
 7888TIP3    H123628   4.658   5.780   2.936
 7888TIP3    H223629   4.667   5.880   2.822
 7889TIP3   OH223630   3.627   1.969   1.370
 7889TIP3    H123631   3.702   1.977   1.310
 7889TIP3    H223632   3.647   1.890   1.421
 7890TIP3   OH223633   2.906   3.462   3.725
 7890TIP3    H123634   2.946   3.509   3.651
 7890TIP3    H223635   2.854   3.529   3.770
 7891TIP3   OH223636   6.750   2.551   4.798
 7891TIP3    H123637   6.796   2.588   4.723
 7891TIP3    H223638   6.687   2.490   4.760
 7892TIP3   OH223639   0.178   1.841   2.841
 7892TIP3    H123640   0.232   1.762   2.835
 7892TIP3    H223641   0.156   1.849   2.934
 7893TIP3   OH223642   0.506   4.205   1.321
 7893TIP3    H123643   0.581   4.206   1.261
 7893TIP3    H223644   0.546   4.205   1.408
 7894TIP3   OH223645   6.720   3.984   0.906
 7894TIP3    H123646   6.777   3.924   0.954
 7894TIP3    H223647   6.700   4.054   0.968
 7895TIP3   OH223648   1.632   3.648   3.929
 7895TIP3    H123649   1.651   3.586   3.858
 7895TIP3    H223650   1.680   3.613   4.004
 7896TIP3   OH223651   1.309   2.203   4.447
 7896TIP3    H123652   1.230   2.201   4.393
 7896TIP3    H223653   1.279   2.233   4.532
 7897TIP3   OH223654   2.237   3.227   3.087
 7897TIP3    H123655   2.280   3.150   3.051
 7897TIP3    H223656   2.155   3.233   3.038
 7898TIP3   OH223657   5.682   4.482   3.077
 7898TIP3    H123658   5.614   4.541   3.045
 7898TIP3    H223659   5.655   4.458   3.165
 7899TIP3   OH223660   7.155   0.240   0.670
 7899TIP3    H123661   7.061   0.224   0.681
 7899TIP3    H223662   7.196   0.161   0.705
 7900TIP3   OH223663   2.853   0.232   5.489
 7900TIP3    H123664   2.804   0.163   5.444
 7900TIP3    H223665   2.869   0.298   5.421
 7901TIP3   OH223666   3.079  -0.005   1.061
 7901TIP3    H123667   3.031   0.010   0.980
 7901TIP3    H223668   3.114  -0.094   1.051
 7902TIP3   OH223669   3.655   2.374   4.798
 7902TIP3    H123670   3.651   2.375   4.702
 7902TIP3    H223671   3.746   2.357   4.818
 7903TIP3   OH223672   0.246   6.093   3.965
 7903TIP3    H123673   0.259   6.027   4.033
 7903TIP3    H223674   0.295   6.061   3.890
 7904TIP3   OH223675   5.522   3.128   1.305
 7904TIP3    H123676   5.464   3.107   1.231
 7904TIP3    H223677   5.559   3.213   1.282
 7905TIP3   OH223678   3.123   1.779   1.602
 7905TIP3    H123679   3.198   1.836   1.587
 7905TIP3    H223680   3.061   1.833   1.653
 7906TIP3   OH223681   7.056   3.857   4.076
 7906TIP3    H123682   6.992   3.852   4.004
 7906TIP3    H223683   7.123   3.793   4.053
 7907TIP3   OH223684   3.812   0.087   3.432
 7907TIP3    H123685   3.742   0.040   3.478
 7907TIP3    H223686   3.771   0.116   3.351
 7908TIP3   OH223687   1.122   3.617   0.590
 7908TIP3    H123688   1.179   3.548   0.625
 7908TIP3    H223689   1.117   3.599   0.496
 7909TIP3   OH223690   5.540   6.718   1.198
 7909TIP3    H123691   5.505   6.807   1.203
 7909TIP3    H223692   5.620   6.721   1.251
 7910TIP3   OH223693   5.910   2.106   3.675
 7910TIP3    H123694   5.881   2.094   3.585
 7910TIP3    H223695   5.941   2.019   3.702
 7911TIP3   OH223696   5.827   6.505   0.022
 7911TIP3    H123697   5.853   6.597   0.026
 7911TIP3    H223698   5.900   6.460  -0.021
 7912TIP3   OH223699   4.968   3.750   3.338
 7912TIP3    H123700   5.045   3.800   3.365
 7912TIP3    H223701   4.976   3.666   3.384
 7913TIP3   OH223702   2.299   1.652   4.108
 7913TIP3    H123703   2.287   1.731   4.162
 7913TIP3    H223704   2.356   1.681   4.036
 7914TIP3   OH223705   2.099   1.444   2.350
 7914TIP3    H123706   2.166   1.456   2.418
 7914TIP3    H223707   2.016   1.445   2.397
 7915TIP3   OH223708   1.174   3.408   0.072
 7915TIP3    H123709   1.220   3.448   0.145
 7915TIP3    H223710   1.158   3.481   0.011
 7916TIP3   OH223711   6.955   0.789   0.663
 7916TIP3    H123712   6.981   0.749   0.746
 7916TIP3    H223713   7.030   0.775   0.605
 7917TIP3   OH223714   0.730   0.520   1.268
 7917TIP3    H123715   0.796   0.535   1.200
 7917TIP3    H223716   0.651   0.496   1.220
 7918TIP3   OH223717   2.928   2.366   0.265
 7918TIP3    H123718   2.973   2.330   0.342
 7918TIP3    H223719   2.995   2.368   0.197
 7919TIP3   OH223720   3.075   1.425   0.898
 7919TIP3    H123721   2.994   1.459   0.935
 7919TIP3    H223722   3.107   1.495   0.841
 7920TIP3   OH223723   0.251   0.137   5.839
 7920TIP3    H123724   0.235   0.207   5.775
 7920TIP3    H223725   0.346   0.134   5.849
 7921TIP3   OH223726   4.456   3.430   1.523
 7921TIP3    H123727   4.397   3.495   1.562
 7921TIP3    H223728   4.430   3.347   1.564
 7922TIP3   OH223729   5.608   0.147   5.512
 7922TIP3    H123730   5.618   0.242   5.511
 7922TIP3    H223731   5.696   0.112   5.522
 7923TIP3   OH223732   5.382   0.881   0.049
 7923TIP3    H123733   5.352   0.962   0.008
 7923TIP3    H223734   5.471   0.869   0.016
 7924TIP3   OH223735   0.170   5.229   1.803
 7924TIP3    H123736   0.208   5.169   1.739
 7924TIP3    H223737   0.166   5.179   1.884
 7925TIP3   OH223738   6.372   2.776   3.862
 7925TIP3    H123739   6.420   2.726   3.795
 7925TIP3    H223740   6.376   2.866   3.831
 7926TIP3   OH223741   0.171   1.543   1.246
 7926TIP3    H123742   0.118   1.484   1.300
 7926TIP3    H223743   0.253   1.552   1.295
 7927TIP3   OH223744   2.513   0.884   0.126
 7927TIP3    H123745   2.520   0.979   0.137
 7927TIP3    H223746   2.528   0.869   0.033
 7928TIP3   OH223747   6.316   0.246   4.927
 7928TIP3    H123748   6.250   0.193   4.882
 7928TIP3    H223749   6.346   0.308   4.860
 7929TIP3   OH223750   0.885   6.482   0.015
 7929TIP3    H123751   0.838   6.557   0.053
 7929TIP3    H223752   0.941   6.450   0.086
 7930TIP3   OH223753   1.815   3.244   1.717
 7930TIP3    H123754   1.798   3.170   1.659
 7930TIP3    H223755   1.899   3.224   1.759
 7931TIP3   OH223756   3.818   3.392   3.683
 7931TIP3    H123757   3.852   3.353   3.763
 7931TIP3    H223758   3.847   3.333   3.613
 7932TIP3   OH223759   6.997   1.528   1.684
 7932TIP3    H123760   6.953   1.443   1.691
 7932TIP3    H223761   7.063   1.527   1.753
 7933TIP3   OH223762   7.074   1.252   1.578
 7933TIP3    H123763   6.994   1.289   1.542
 7933TIP3    H223764   7.072   1.159   1.553
 7934TIP3   OH223765   3.352   4.872   3.430
 7934TIP3    H123766   3.346   4.776   3.427
 7934TIP3    H223767   3.446   4.890   3.436
 7935TIP3   OH223768   4.604   5.548   3.603
 7935TIP3    H123769   4.591   5.541   3.698
 7935TIP3    H223770   4.516   5.541   3.566
 7936TIP3   OH223771   5.317   2.252   2.516
 7936TIP3    H123772   5.263   2.188   2.470
 7936TIP3    H223773   5.284   2.337   2.487
 7937TIP3   OH223774   2.850   0.954   2.734
 7937TIP3    H123775   2.941   0.978   2.752
 7937TIP3    H223776   2.798   1.023   2.775
 7938TIP3   OH223777   4.504   6.369   2.946
 7938TIP3    H123778   4.469   6.457   2.960
 7938TIP3    H223779   4.476   6.347   2.857
 7939TIP3   OH223780   0.512   4.520   5.838
 7939TIP3    H123781   0.559   4.566   5.908
 7939TIP3    H223782   0.511   4.581   5.765
 7940TIP3   OH223783   0.116   3.620   3.462
 7940TIP3    H123784   0.156   3.553   3.407
 7940TIP3    H223785   0.137   3.702   3.418
 7941TIP3   OH223786   2.336   0.163   4.721
 7941TIP3    H123787   2.431   0.167   4.707
 7941TIP3    H223788   2.325   0.096   4.788
 7942TIP3   OH223789   3.119   3.472   0.285
 7942TIP3    H123790   3.057   3.541   0.310
 7942TIP3    H223791   3.100   3.400   0.344
 7943TIP3   OH223792   6.388   6.254   0.049
 7943TIP3    H123793   6.301   6.264   0.088
 7943TIP3    H223794   6.440   6.324   0.090
 7944TIP3   OH223795   0.864   3.028   4.962
 7944TIP3    H123796   0.797   2.981   5.011
 7944TIP3    H223797   0.815   3.077   4.896
 7945TIP3   OH223798   1.155   1.793   3.954
 7945TIP3    H123799   1.129   1.713   4.000
 7945TIP3    H223800   1.202   1.845   4.019
 7946TIP3   OH223801   7.054   5.602   0.951
 7946TIP3    H123802   6.977   5.628   1.000
 7946TIP3    H223803   7.123   5.663   0.979
 7947TIP3   OH223804   4.388   6.126   2.513
 7947TIP3    H123805   4.337   6.165   2.441
 7947TIP3    H223806   4.338   6.049   2.539
 7948TIP3   OH223807   2.347   1.128   5.326
 7948TIP3    H123808   2.321   1.101   5.415
 7948TIP3    H223809   2.380   1.217   5.337
 7949TIP3   OH223810   6.621   2.333   5.087
 7949TIP3    H123811   6.543   2.385   5.106
 7949TIP3    H223812   6.692   2.381   5.128
 7950TIP3   OH223813   0.477   5.012   1.929
 7950TIP3    H123814   0.512   4.998   2.017
 7950TIP3    H223815   0.459   5.106   1.925
 7951TIP3   OH223816   0.643   0.093   1.882
 7951TIP3    H123817   0.679   0.013   1.920
 7951TIP3    H223818   0.705   0.162   1.907
 7952TIP3   OH223819   2.739   5.473   2.171
 7952TIP3    H123820   2.661   5.516   2.137
 7952TIP3    H223821   2.774   5.425   2.097
 7953TIP3   OH223822   6.348   3.780   1.745
 7953TIP3    H123823   6.432   3.777   1.791
 7953TIP3    H223824   6.345   3.868   1.706
 7954TIP3   OH223825   1.987   5.652   0.417
 7954TIP3    H123826   2.081   5.639   0.430
 7954TIP3    H223827   1.981   5.693   0.330
 7955TIP3   OH223828   1.000   1.197   0.082
 7955TIP3    H123829   0.941   1.233   0.149
 7955TIP3    H223830   1.067   1.150   0.131
 7956TIP3   OH223831   6.649   1.662   5.252
 7956TIP3    H123832   6.709   1.714   5.198
 7956TIP3    H223833   6.565   1.667   5.207
 7957TIP3   OH223834   1.656   6.101   3.035
 7957TIP3    H123835   1.573   6.105   2.988
 7957TIP3    H223836   1.682   6.193   3.043
 7958TIP3   OH223837   4.444   2.362   0.082
 7958TIP3    H123838   4.460   2.273   0.116
 7958TIP3    H223839   4.425   2.414   0.159
 7959TIP3   OH223840   6.883   3.522   1.425
 7959TIP3    H123841   6.875   3.473   1.343
 7959TIP3    H223842   6.953   3.585   1.409
 7960TIP3   OH223843   5.021   5.625   2.369
 7960TIP3    H123844   5.032   5.533   2.344
 7960TIP3    H223845   5.090   5.640   2.434
 7961TIP3   OH223846   3.625   5.374   4.690
 7961TIP3    H123847   3.635   5.354   4.597
 7961TIP3    H223848   3.678   5.453   4.703
 7962TIP3   OH223849   3.101   3.040   0.087
 7962TIP3    H123850   3.193   3.014   0.079
 7962TIP3    H223851   3.081   3.080   0.002
 7963TIP3   OH223852   6.017   2.949   0.189
 7963TIP3    H123853   6.018   2.853   0.194
 7963TIP3    H223854   5.959   2.969   0.116
 7964TIP3   OH223855   5.326   0.090   4.036
 7964TIP3    H123856   5.254   0.133   4.081
 7964TIP3    H223857   5.317  -0.003   4.060
 7965TIP3   OH223858   6.945   1.414   4.070
 7965TIP3    H123859   6.884   1.406   3.997
 7965TIP3    H223860   6.965   1.324   4.096
 7966TIP3   OH223861   1.569   5.849   4.023
 7966TIP3    H123862   1.556   5.831   3.930
 7966TIP3    H223863   1.645   5.796   4.048
 7967TIP3   OH223864   0.180   2.999   4.533
 7967TIP3    H123865   0.237   2.926   4.557
 7967TIP3    H223866   0.240   3.068   4.505
 7968TIP3   OH223867   0.697   0.512   2.393
 7968TIP3    H123868   0.740   0.450   2.333
 7968TIP3    H223869   0.744   0.594   2.381
 7969TIP3   OH223870   1.837   3.460   4.436
 7969TIP3    H123871   1.839   3.491   4.345
 7969TIP3    H223872   1.833   3.540   4.488
 7970TIP3   OH223873   1.096   6.433   5.830
 7970TIP3    H123874   1.121   6.422   5.738
 7970TIP3    H223875   1.002   6.416   5.831
 7971TIP3   OH223876   4.706   1.455   5.090
 7971TIP3    H123877   4.747   1.368   5.088
 7971TIP3    H223878   4.735   1.493   5.173
 7972TIP3   OH223879   6.802   4.068   5.530
 7972TIP3    H123880   6.853   4.146   5.551
 7972TIP3    H223881   6.833   4.002   5.593
 7973TIP3   OH223882   2.682   3.149   4.891
 7973TIP3    H123883   2.735   3.155   4.971
 7973TIP3    H223884   2.620   3.079   4.909
 7974TIP3   OH223885   3.850   0.679   4.697
 7974TIP3    H123886   3.846   0.585   4.682
 7974TIP3    H223887   3.877   0.688   4.788
 7975TIP3   OH223888   1.456   1.688   0.625
 7975TIP3    H123889   1.492   1.606   0.660
 7975TIP3    H223890   1.368   1.664   0.594
 7976TIP3   OH223891   1.543   1.576   3.358
 7976TIP3    H123892   1.581   1.492   3.381
 7976TIP3    H223893   1.455   1.574   3.398
 7977TIP3   OH223894   4.453   3.341   2.476
 7977TIP3    H123895   4.397   3.270   2.445
 7977TIP3    H223896   4.468   3.395   2.398
 7978TIP3   OH223897   6.671   1.224   2.918
 7978TIP3    H123898   6.653   1.167   2.993
 7978TIP3    H223899   6.693   1.164   2.847
 7979TIP3   OH223900   2.289   6.147   1.843
 7979TIP3    H123901   2.356   6.168   1.908
 7979TIP3    H223902   2.251   6.065   1.875
 7980TIP3   OH223903   2.532   4.731   3.468
 7980TIP3    H123904   2.622   4.712   3.442
 7980TIP3    H223905   2.537   4.747   3.562
 7981TIP3   OH223906   2.533   1.002   5.161
 7981TIP3    H123907   2.563   1.084   5.122
 7981TIP3    H223908   2.457   1.026   5.213
 7982TIP3   OH223909   2.592   4.492   5.664
 7982TIP3    H123910   2.557   4.568   5.711
 7982TIP3    H223911   2.522   4.468   5.603
 7983TIP3   OH223912   2.252   6.808   3.892
 7983TIP3    H123913   2.324   6.749   3.871
 7983TIP3    H223914   2.195   6.758   3.950
 7984TIP3   OH223915   1.102   2.507   3.682
 7984TIP3    H123916   1.184   2.511   3.730
 7984TIP3    H223917   1.055   2.432   3.720
 7985TIP3   OH223918   5.281   6.758   0.223
 7985TIP3    H123919   5.335   6.680   0.220
 7985TIP3    H223920   5.191   6.725   0.231
 7986TIP3   OH223921   6.672   5.675   1.787
 7986TIP3    H123922   6.749   5.642   1.835
 7986TIP3    H223923   6.701   5.759   1.751
 7987TIP3   OH223924   2.661   2.535   3.603
 7987TIP3    H123925   2.649   2.619   3.646
 7987TIP3    H223926   2.732   2.492   3.652
 7988TIP3   OH223927   5.864   2.763   2.152
 7988TIP3    H123928   5.881   2.735   2.242
 7988TIP3    H223929   5.897   2.853   2.149
 7989TIP3   OH223930   1.887   3.423   3.546
 7989TIP3    H123931   1.868   3.516   3.557
 7989TIP3    H223932   1.886   3.409   3.451
 7990TIP3   OH223933   3.886   3.977   3.770
 7990TIP3    H123934   3.808   3.924   3.752
 7990TIP3    H223935   3.854   4.052   3.820
 7991TIP3   OH223936   4.074   1.294   4.242
 7991TIP3    H123937   4.157   1.253   4.266
 7991TIP3    H223938   4.007   1.234   4.274
 7992TIP3   OH223939   4.122   6.307   3.493
 7992TIP3    H123940   4.192   6.315   3.429
 7992TIP3    H223941   4.044   6.341   3.448
 7993TIP3   OH223942   5.958   0.084   1.223
 7993TIP3    H123943   5.942   0.154   1.286
 7993TIP3    H223944   6.040   0.108   1.180
 7994TIP3   OH223945   2.879   0.695   3.168
 7994TIP3    H123946   2.903   0.786   3.186
 7994TIP3    H223947   2.818   0.700   3.095
 7995TIP3   OH223948   1.216   6.457   2.695
 7995TIP3    H123949   1.229   6.366   2.720
 7995TIP3    H223950   1.159   6.494   2.763
 7996TIP3   OH223951   4.451   2.827   4.301
 7996TIP3    H123952   4.530   2.781   4.328
 7996TIP3    H223953   4.482   2.910   4.266
 7997TIP3   OH223954   4.267   4.885   5.764
 7997TIP3    H123955   4.299   4.967   5.801
 7997TIP3    H223956   4.328   4.818   5.796
 7998TIP3   OH223957   5.943   3.493   3.866
 7998TIP3    H123958   5.880   3.564   3.872
 7998TIP3    H223959   6.029   3.536   3.870
 7999TIP3   OH223960   4.714   4.832   3.940
 7999TIP3    H123961   4.694   4.845   3.848
 7999TIP3    H223962   4.634   4.857   3.986
 8000TIP3   OH223963   4.360   5.195   3.216
 8000TIP3    H123964   4.431   5.182   3.153
 8000TIP3    H223965   4.401   5.183   3.302
 8001TIP3   OH223966   5.147   5.444   0.341
 8001TIP3    H123967   5.174   5.519   0.395
 8001TIP3    H223968   5.199   5.453   0.261
 8002TIP3   OH223969   7.179   3.439   2.823
 8002TIP3    H123970   7.117   3.483   2.881
 8002TIP3    H223971   7.250   3.411   2.881
 8003TIP3   OH223972   2.269   3.199   5.332
 8003TIP3    H123973   2.336   3.267   5.341
 8003TIP3    H223974   2.267   3.156   5.418
 8004TIP3   OH223975   3.579   0.019   0.842
 8004TIP3    H123976   3.660  -0.030   0.831
 8004TIP3    H223977   3.601   0.108   0.814
 8005TIP3   OH223978   2.824   5.822   5.456
 8005TIP3    H123979   2.816   5.820   5.551
 8005TIP3    H223980   2.798   5.911   5.431
 8006TIP3   OH223981   1.613   2.267   2.440
 8006TIP3    H123982   1.533   2.216   2.444
 8006TIP3    H223983   1.609   2.324   2.517
 8007TIP3   OH223984   4.913   6.655   3.823
 8007TIP3    H123985   4.936   6.744   3.851
 8007TIP3    H223986   4.887   6.611   3.904
 8008TIP3   OH223987   5.971   2.480   4.538
 8008TIP3    H123988   5.980   2.388   4.564
 8008TIP3    H223989   5.883   2.486   4.501
 8009TIP3   OH223990   5.632   3.149   4.914
 8009TIP3    H123991   5.632   3.239   4.945
 8009TIP3    H223992   5.713   3.111   4.948
 8010TIP3   OH223993   0.334   6.636   1.027
 8010TIP3    H123994   0.292   6.721   1.012
 8010TIP3    H223995   0.324   6.589   0.944
 8011TIP3   OH223996   0.202   1.872   1.289
 8011TIP3    H123997   0.147   1.804   1.252
 8011TIP3    H223998   0.291   1.849   1.261
 8012TIP3   OH223999   6.924   4.309   5.628
 8012TIP3    H124000   6.937   4.367   5.553
 8012TIP3    H224001   6.847   4.345   5.673
 8013TIP3   OH224002   6.627   2.659   1.477
 8013TIP3    H124003   6.693   2.645   1.545
 8013TIP3    H224004   6.669   2.626   1.397
 8014TIP3   OH224005   3.625   5.075   4.512
 8014TIP3    H124006   3.569   5.069   4.589
 8014TIP3    H224007   3.621   4.988   4.472
 8015TIP3   OH224008   5.811   1.629   0.055
 8015TIP3    H124009   5.806   1.658   0.146
 8015TIP3    H224010   5.882   1.681   0.017
 8016TIP3   OH224011   2.898   1.003   1.770
 8016TIP3    H124012   2.879   1.052   1.850
 8016TIP3    H224013   2.846   1.047   1.702
 8017TIP3   OH224014   5.696   4.085   1.560
 8017TIP3    H124015   5.678   4.162   1.505
 8017TIP3    H224016   5.645   4.015   1.520
 8018TIP3   OH224017   2.521   4.310   5.294
 8018TIP3    H124018   2.564   4.387   5.258
 8018TIP3    H224019   2.457   4.345   5.357
 8019TIP3   OH224020   4.979   1.746   1.275
 8019TIP3    H124021   4.929   1.719   1.199
 8019TIP3    H224022   4.939   1.699   1.348
 8020TIP3   OH224023   5.329   4.523   5.275
 8020TIP3    H124024   5.360   4.529   5.184
 8020TIP3    H224025   5.394   4.571   5.325
 8021TIP3   OH224026   7.073   4.372   3.110
 8021TIP3    H124027   7.099   4.338   3.025
 8021TIP3    H224028   7.038   4.459   3.091
 8022TIP3   OH224029   7.179   2.392   0.394
 8022TIP3    H124030   7.264   2.430   0.413
 8022TIP3    H224031   7.188   2.355   0.307
 8023TIP3   OH224032   4.420   2.902   0.251
 8023TIP3    H124033   4.341   2.925   0.299
 8023TIP3    H224034   4.447   2.818   0.289
 8024TIP3   OH224035   0.782   0.000   2.913
 8024TIP3    H124036   0.709   0.029   2.966
 8024TIP3    H224037   0.778   0.054   2.834
 8025TIP3   OH224038   6.182   6.012   1.699
 8025TIP3    H124039   6.273   6.004   1.728
 8025TIP3    H224040   6.163   5.927   1.658
 8026TIP3   OH224041   3.000   0.595   1.225
 8026TIP3    H124042   2.970   0.675   1.270
 8026TIP3    H224043   2.974   0.524   1.283
 8027TIP3   OH224044   2.075   5.923   4.406
 8027TIP3    H124045   1.993   5.938   4.358
 8027TIP3    H224046   2.048   5.922   4.498
 8028TIP3   OH224047   5.911   2.315   2.544
 8028TIP3    H124048   5.946   2.335   2.631
 8028TIP3    H224049   5.986   2.280   2.496
 8029TIP3   OH224050   3.194   1.559   3.418
 8029TIP3    H124051   3.237   1.612   3.350
 8029TIP3    H224052   3.257   1.490   3.438
 8030TIP3   OH224053   1.365   6.676   0.667
 8030TIP3    H124054   1.446   6.627   0.680
 8030TIP3    H224055   1.296   6.617   0.699
 8031TIP3   OH224056   1.336   5.584   3.489
 8031TIP3    H124057   1.387   5.510   3.521
 8031TIP3    H224058   1.254   5.547   3.459
 8032TIP3   OH224059   0.945   1.074   1.936
 8032TIP3    H124060   0.898   0.993   1.919
 8032TIP3    H224061   1.036   1.055   1.912
 8033TIP3   OH224062   0.643   0.632   5.484
 8033TIP3    H124063   0.722   0.623   5.430
 8033TIP3    H224064   0.631   0.727   5.492
 8034TIP3   OH224065   0.672   1.258   5.924
 8034TIP3    H124066   0.578   1.240   5.930
 8034TIP3    H224067   0.682   1.347   5.955
 8035TIP3   OH224068   0.364   2.001   5.619
 8035TIP3    H124069   0.420   2.031   5.547
 8035TIP3    H224070   0.395   1.912   5.638
 8036TIP3   OH224071   6.822   1.353   1.490
 8036TIP3    H124072   6.828   1.290   1.419
 8036TIP3    H224073   6.741   1.330   1.536
 8037TIP3   OH224074   1.765   4.942   3.455
 8037TIP3    H124075   1.704   5.011   3.430
 8037TIP3    H224076   1.722   4.897   3.528
 8038TIP3   OH224077   6.483   4.602   0.810
 8038TIP3    H124078   6.524   4.546   0.877
 8038TIP3    H224079   6.544   4.600   0.737
 8039TIP3   OH224080   2.912   6.209   5.505
 8039TIP3    H124081   2.894   6.176   5.417
 8039TIP3    H224082   3.007   6.200   5.515
 8040TIP3   OH224083   6.677   0.795   1.832
 8040TIP3    H124084   6.662   0.724   1.894
 8040TIP3    H224085   6.767   0.783   1.803
 8041TIP3   OH224086   5.716   2.295   4.597
 8041TIP3    H124087   5.720   2.353   4.522
 8041TIP3    H224088   5.622   2.280   4.611
 8042TIP3   OH224089   4.737   4.196   2.831
 8042TIP3    H124090   4.643   4.195   2.852
 8042TIP3    H224091   4.772   4.118   2.874
 8043TIP3   OH224092   3.811   2.350   5.744
 8043TIP3    H124093   3.815   2.439   5.779
 8043TIP3    H224094   3.746   2.306   5.798
 8044TIP3   OH224095   4.574   2.134   4.418
 8044TIP3    H124096   4.592   2.186   4.340
 8044TIP3    H224097   4.578   2.043   4.388
 8045TIP3   OH224098   2.561   5.037   3.539
 8045TIP3    H124099   2.466   5.043   3.528
 8045TIP3    H224100   2.576   5.048   3.633
 8046TIP3   OH224101   1.275   1.098   3.688
 8046TIP3    H124102   1.190   1.064   3.658
 8046TIP3    H224103   1.255   1.186   3.721
 8047TIP3   OH224104   3.091   1.224   3.900
 8047TIP3    H124105   3.171   1.267   3.932
 8047TIP3    H224106   3.020   1.275   3.939
 8048TIP3   OH224107   5.454   1.801   4.967
 8048TIP3    H124108   5.376   1.778   4.917
 8048TIP3    H224109   5.503   1.719   4.976
 8049TIP3   OH224110   1.284   0.514   3.675
 8049TIP3    H124111   1.358   0.470   3.718
 8049TIP3    H224112   1.222   0.443   3.656
 8050TIP3   OH224113   5.201   1.685   2.913
 8050TIP3    H124114   5.110   1.658   2.924
 8050TIP3    H224115   5.203   1.776   2.942
 8051TIP3   OH224116   1.676   2.810   2.222
 8051TIP3    H124117   1.652   2.871   2.152
 8051TIP3    H224118   1.690   2.866   2.299
 8052TIP3   OH224119   5.242   1.491   3.692
 8052TIP3    H124120   5.206   1.507   3.604
 8052TIP3    H224121   5.285   1.573   3.715
 8053TIP3   OH224122   2.644   6.600   4.082
 8053TIP3    H124123   2.623   6.673   4.139
 8053TIP3    H224124   2.739   6.595   4.082
 8054TIP3   OH224125   1.711   3.795   1.427
 8054TIP3    H124126   1.747   3.828   1.509
 8054TIP3    H224127   1.620   3.775   1.447
 8055TIP3   OH224128   6.685   5.373   2.184
 8055TIP3    H124129   6.625   5.435   2.226
 8055TIP3    H224130   6.682   5.295   2.238
 8056TIP3   OH224131   7.140   1.347   0.299
 8056TIP3    H124132   7.065   1.289   0.311
 8056TIP3    H224133   7.106   1.435   0.314
 8057TIP3   OH224134   1.023   1.646   1.175
 8057TIP3    H124135   0.965   1.673   1.104
 8057TIP3    H224136   1.001   1.554   1.191
 8058TIP3   OH224137   2.072   4.546   5.663
 8058TIP3    H124138   2.094   4.459   5.697
 8058TIP3    H224139   2.137   4.562   5.595
 8059TIP3   OH224140   0.612   1.307   1.627
 8059TIP3    H124141   0.696   1.299   1.580
 8059TIP3    H224142   0.546   1.285   1.562
 8060TIP3   OH224143   5.004   6.055   5.634
 8060TIP3    H124144   5.072   5.996   5.602
 8060TIP3    H224145   4.971   6.013   5.714
 8061TIP3   OH224146   3.110   1.855   3.369
 8061TIP3    H124147   3.132   1.775   3.418
 8061TIP3    H224148   3.165   1.849   3.291
 8062TIP3   OH224149   2.074   0.178   5.537
 8062TIP3    H124150   2.023   0.146   5.463
 8062TIP3    H224151   2.016   0.240   5.582
 8063TIP3   OH224152   1.806   1.355   1.362
 8063TIP3    H124153   1.898   1.364   1.386
 8063TIP3    H224154   1.766   1.309   1.436
 8064TIP3   OH224155   3.600   4.309   0.523
 8064TIP3    H124156   3.663   4.376   0.548
 8064TIP3    H224157   3.623   4.233   0.575
 8065TIP3   OH224158   4.564   3.573   5.180
 8065TIP3    H124159   4.619   3.497   5.164
 8065TIP3    H224160   4.620   3.648   5.157
 8066TIP3   OH224161   1.462   5.240   0.142
 8066TIP3    H124162   1.431   5.326   0.171
 8066TIP3    H224163   1.495   5.256   0.053
 8067TIP3   OH224164   1.728   1.183   0.868
 8067TIP3    H124165   1.761   1.163   0.956
 8067TIP3    H224166   1.771   1.265   0.845
 8068TIP3   OH224167   6.969   3.473   3.217
 8068TIP3    H124168   6.882   3.444   3.245
 8068TIP3    H224169   7.013   3.500   3.298
 8069TIP3   OH224170   5.998   1.605   1.735
 8069TIP3    H124171   6.039   1.599   1.648
 8069TIP3    H224172   6.003   1.515   1.769
 8070TIP3   OH224173   2.257   4.657   0.534
 8070TIP3    H124174   2.255   4.734   0.478
 8070TIP3    H224175   2.188   4.672   0.598
 8071TIP3   OH224176   0.224   1.534   3.224
 8071TIP3    H124177   0.253   1.604   3.165
 8071TIP3    H224178   0.223   1.456   3.169
 8072TIP3   OH224179   0.088   1.954   1.508
 8072TIP3    H124180   0.119   1.931   1.420
 8072TIP3    H224181   0.160   1.927   1.565
 8073TIP3   OH224182   0.613   4.268   4.357
 8073TIP3    H124183   0.601   4.359   4.330
 8073TIP3    H224184   0.526   4.229   4.350
 8074TIP3   OH224185   0.132   6.304   4.265
 8074TIP3    H124186   0.134   6.215   4.301
 8074TIP3    H224187   0.221   6.337   4.278
 8075TIP3   OH224188   0.146   3.359   4.912
 8075TIP3    H124189   0.202   3.289   4.878
 8075TIP3    H224190   0.162   3.360   5.006
 8076TIP3   OH224191   0.485   5.674   2.683
 8076TIP3    H124192   0.556   5.735   2.663
 8076TIP3    H224193   0.431   5.674   2.604
 8077TIP3   OH224194   1.126   3.750   5.170
 8077TIP3    H124195   1.055   3.764   5.232
 8077TIP3    H224196   1.083   3.721   5.090
 8078TIP3   OH224197   6.550   3.868   3.981
 8078TIP3    H124198   6.597   3.870   4.064
 8078TIP3    H224199   6.462   3.898   4.003
 8079TIP3   OH224200   7.052   1.521   4.296
 8079TIP3    H124201   6.999   1.496   4.220
 8079TIP3    H224202   7.056   1.617   4.293
 8080TIP3   OH224203   4.610   3.582   1.191
 8080TIP3    H124204   4.572   3.527   1.122
 8080TIP3    H224205   4.615   3.669   1.152
 8081TIP3   OH224206   3.893   3.738   1.356
 8081TIP3    H124207   3.841   3.674   1.308
 8081TIP3    H224208   3.943   3.686   1.419
 8082TIP3   OH224209   0.471   6.208   0.884
 8082TIP3    H124210   0.538   6.217   0.817
 8082TIP3    H224211   0.419   6.287   0.877
 8083TIP3   OH224212   0.085   5.749   2.777
 8083TIP3    H124213   0.139   5.823   2.802
 8083TIP3    H224214   0.135   5.704   2.710
 8084TIP3   OH224215   4.635   4.511   3.335
 8084TIP3    H124216   4.653   4.513   3.429
 8084TIP3    H224217   4.709   4.463   3.298
 8085TIP3   OH224218   5.466   2.186   2.040
 8085TIP3    H124219   5.530   2.257   2.046
 8085TIP3    H224220   5.519   2.108   2.023
 8086TIP3   OH224221   4.273   0.221   2.268
 8086TIP3    H124222   4.191   0.177   2.289
 8086TIP3    H224223   4.331   0.200   2.341
 8087TIP3   OH224224   1.089   3.959   2.878
 8087TIP3    H124225   1.168   3.937   2.829
 8087TIP3    H224226   1.119   3.964   2.969
 8088TIP3   OH224227   1.613   0.700   4.941
 8088TIP3    H124228   1.528   0.743   4.939
 8088TIP3    H224229   1.593   0.610   4.968
 8089TIP3   OH224230   0.312   5.388   5.611
 8089TIP3    H124231   0.217   5.386   5.619
 8089TIP3    H224232   0.336   5.299   5.585
 8090TIP3   OH224233   6.362   6.250   1.956
 8090TIP3    H124234   6.305   6.188   2.001
 8090TIP3    H224235   6.410   6.295   2.025
 8091TIP3   OH224236   4.412   2.629   3.427
 8091TIP3    H124237   4.429   2.652   3.335
 8091TIP3    H224238   4.425   2.534   3.430
 8092TIP3   OH224239   7.091   6.305   5.833
 8092TIP3    H124240   7.141   6.350   5.901
 8092TIP3    H224241   7.088   6.214   5.862
 8093TIP3   OH224242   5.883   2.167   2.995
 8093TIP3    H124243   5.956   2.228   2.997
 8093TIP3    H224244   5.837   2.187   2.914
 8094TIP3   OH224245   3.771   5.678   0.263
 8094TIP3    H124246   3.689   5.641   0.231
 8094TIP3    H224247   3.828   5.602   0.278
 8095TIP3   OH224248   6.361   6.800   3.161
 8095TIP3    H124249   6.303   6.834   3.093
 8095TIP3    H224250   6.402   6.722   3.121
 8096TIP3   OH224251   6.415   0.117   4.265
 8096TIP3    H124252   6.320   0.119   4.253
 8096TIP3    H224253   6.434   0.029   4.297
 8097TIP3   OH224254   3.399   2.202   4.516
 8097TIP3    H124255   3.409   2.295   4.536
 8097TIP3    H224256   3.473   2.160   4.559
 8098TIP3   OH224257   3.889   0.344   3.914
 8098TIP3    H124258   3.980   0.322   3.897
 8098TIP3    H224259   3.845   0.330   3.830
 8099TIP3   OH224260   5.274   6.300   2.553
 8099TIP3    H124261   5.359   6.288   2.595
 8099TIP3    H224262   5.249   6.389   2.576
 8100TIP3   OH224263   2.872   2.805   2.550
 8100TIP3    H124264   2.935   2.803   2.479
 8100TIP3    H224265   2.787   2.816   2.507
 8101TIP3   OH224266   1.349   5.192   1.406
 8101TIP3    H124267   1.434   5.235   1.396
 8101TIP3    H224268   1.364   5.104   1.370
 8102TIP3   OH224269   0.998   5.804   3.633
 8102TIP3    H124270   1.066   5.798   3.567
 8102TIP3    H224271   1.044   5.796   3.717
 8103TIP3   OH224272   1.881   6.615   3.145
 8103TIP3    H124273   1.960   6.619   3.091
 8103TIP3    H224274   1.913   6.622   3.235
 8104TIP3   OH224275   1.369   3.957   3.640
 8104TIP3    H124276   1.344   4.010   3.565
 8104TIP3    H224277   1.301   3.973   3.705
 8105TIP3   OH224278   4.275   3.303   5.225
 8105TIP3    H124279   4.321   3.323   5.144
 8105TIP3    H224280   4.185   3.332   5.210
 8106TIP3   OH224281   3.243   5.727   3.647
 8106TIP3    H124282   3.319   5.744   3.591
 8106TIP3    H224283   3.168   5.743   3.591
 8107TIP3   OH224284   2.067   4.476   4.062
 8107TIP3    H124285   2.106   4.533   4.128
 8107TIP3    H224286   2.008   4.533   4.013
 8108TIP3   OH224287   2.233   3.834   1.199
 8108TIP3    H124288   2.293   3.884   1.144
 8108TIP3    H224289   2.248   3.867   1.288
 8109TIP3   OH224290   4.747   5.161   0.349
 8109TIP3    H124291   4.822   5.104   0.367
 8109TIP3    H224292   4.781   5.249   0.362
 8110TIP3   OH224293   0.715   5.093   5.107
 8110TIP3    H124294   0.712   5.189   5.110
 8110TIP3    H224295   0.800   5.071   5.143
 8111TIP3   OH224296   5.878   5.288   5.109
 8111TIP3    H124297   5.913   5.325   5.029
 8111TIP3    H224298   5.830   5.360   5.151
 8112TIP3   OH224299   1.897   6.013   1.737
 8112TIP3    H124300   1.981   5.968   1.728
 8112TIP3    H224301   1.872   5.998   1.828
 8113TIP3   OH224302   1.914   2.352   4.222
 8113TIP3    H124303   1.954   2.438   4.233
 8113TIP3    H224304   1.974   2.291   4.265
 8114TIP3   OH224305   3.537   3.512   5.306
 8114TIP3    H124306   3.613   3.460   5.333
 8114TIP3    H224307   3.574   3.588   5.262
 8115TIP3   OH224308   1.469   4.289   4.818
 8115TIP3    H124309   1.490   4.374   4.855
 8115TIP3    H224310   1.521   4.227   4.868
 8116TIP3   OH224311   3.724   6.596   4.846
 8116TIP3    H124312   3.664   6.568   4.776
 8116TIP3    H224313   3.804   6.619   4.800
 8117TIP3   OH224314   3.409   3.270   2.788
 8117TIP3    H124315   3.352   3.331   2.836
 8117TIP3    H224316   3.368   3.263   2.702
 8118TIP3   OH224317   3.415   1.425   3.492
 8118TIP3    H124318   3.441   1.484   3.563
 8118TIP3    H224319   3.443   1.338   3.522
 8119TIP3   OH224320   5.267   4.281   2.726
 8119TIP3    H124321   5.312   4.307   2.645
 8119TIP3    H224322   5.196   4.224   2.696
 8120TIP3   OH224323   6.588   6.740   0.184
 8120TIP3    H124324   6.557   6.778   0.102
 8120TIP3    H224325   6.596   6.816   0.243
 8121TIP3   OH224326   1.732   6.692   2.934
 8121TIP3    H124327   1.795   6.675   3.003
 8121TIP3    H224328   1.717   6.787   2.938
 8122TIP3   OH224329   1.424   4.620   0.177
 8122TIP3    H124330   1.482   4.686   0.215
 8122TIP3    H224331   1.460   4.604   0.089
 8123TIP3   OH224332   0.002   0.200   2.478
 8123TIP3    H124333  -0.053   0.153   2.416
 8123TIP3    H224334  -0.032   0.290   2.477
 8124TIP3   OH224335   3.866   1.486   0.632
 8124TIP3    H124336   3.845   1.420   0.566
 8124TIP3    H224337   3.804   1.469   0.703
 8125TIP3   OH224338   2.095   0.313   2.401
 8125TIP3    H124339   2.151   0.278   2.331
 8125TIP3    H224340   2.010   0.325   2.359
 8126TIP3   OH224341   1.130   2.011   1.147
 8126TIP3    H124342   1.130   1.957   1.068
 8126TIP3    H224343   1.217   1.999   1.185
 8127TIP3   OH224344   6.501   0.593   4.599
 8127TIP3    H124345   6.459   0.509   4.615
 8127TIP3    H224346   6.565   0.575   4.531
 8128TIP3   OH224347   0.259   2.572   5.001
 8128TIP3    H124348   0.314   2.646   5.025
 8128TIP3    H224349   0.198   2.607   4.936
 8129TIP3   OH224350   2.192   5.149   2.834
 8129TIP3    H124351   2.180   5.071   2.888
 8129TIP3    H224352   2.130   5.139   2.762
 8130TIP3   OH224353   0.994   3.041   0.331
 8130TIP3    H124354   0.972   2.967   0.276
 8130TIP3    H224355   1.077   3.073   0.296
 8131TIP3   OH224356   1.695   4.493   1.363
 8131TIP3    H124357   1.732   4.500   1.275
 8131TIP3    H224358   1.654   4.406   1.365
 8132TIP3   OH224359   2.188   0.863   1.910
 8132TIP3    H124360   2.133   0.899   1.841
 8132TIP3    H224361   2.169   0.917   1.987
 8133TIP3   OH224362   1.063   1.800   1.435
 8133TIP3    H124363   1.060   1.758   1.348
 8133TIP3    H224364   1.134   1.863   1.429
 8134TIP3   OH224365   1.851   6.186   4.135
 8134TIP3    H124366   1.863   6.274   4.169
 8134TIP3    H224367   1.836   6.197   4.041
 8135TIP3   OH224368   3.315   0.084   3.915
 8135TIP3    H124369   3.305   0.041   4.000
 8135TIP3    H224370   3.325   0.177   3.935
 8136TIP3   OH224371   4.132   2.958   2.803
 8136TIP3    H124372   4.046   2.952   2.843
 8136TIP3    H224373   4.169   3.039   2.836
 8137TIP3   OH224374   0.604   6.587   2.492
 8137TIP3    H124375   0.607   6.668   2.542
 8137TIP3    H224376   0.530   6.538   2.530
 8138TIP3   OH224377   0.385   3.197   4.530
 8138TIP3    H124378   0.417   3.279   4.493
 8138TIP3    H224379   0.383   3.213   4.624
 8139TIP3   OH224380   2.823   3.657   5.020
 8139TIP3    H124381   2.807   3.694   4.933
 8139TIP3    H224382   2.753   3.694   5.074
 8140TIP3   OH224383   5.122   4.655   2.376
 8140TIP3    H124384   5.145   4.634   2.467
 8140TIP3    H224385   5.027   4.653   2.374
 8141TIP3   OH224386   5.015   1.139   2.805
 8141TIP3    H124387   5.086   1.204   2.804
 8141TIP3    H224388   5.011   1.109   2.896
 8142TIP3   OH224389   0.830   1.247   1.484
 8142TIP3    H124390   0.816   1.189   1.409
 8142TIP3    H224391   0.920   1.229   1.512
 8143TIP3   OH224392   4.989   6.427   2.555
 8143TIP3    H124393   4.984   6.430   2.460
 8143TIP3    H224394   5.069   6.475   2.577
 8144TIP3   OH224395   6.121   0.261   5.114
 8144TIP3    H124396   6.204   0.258   5.067
 8144TIP3    H224397   6.072   0.185   5.081
 8145TIP3   OH224398   4.235   2.778   1.202
 8145TIP3    H124399   4.295   2.835   1.154
 8145TIP3    H224400   4.157   2.773   1.146
 8146TIP3   OH224401   2.833   1.364   4.027
 8146TIP3    H124402   2.782   1.444   4.019
 8146TIP3    H224403   2.915   1.391   4.067
 8147TIP3   OH224404   2.973   4.921   1.608
 8147TIP3    H124405   2.907   4.927   1.539
 8147TIP3    H224406   3.016   5.006   1.607
 8148TIP3   OH224407   3.562   3.102   4.548
 8148TIP3    H124408   3.580   3.140   4.461
 8148TIP3    H224409   3.491   3.040   4.532
 8149TIP3   OH224410   2.500   6.258   3.834
 8149TIP3    H124411   2.468   6.245   3.923
 8149TIP3    H224412   2.551   6.179   3.814
 8150TIP3   OH224413   2.919   0.392   4.067
 8150TIP3    H124414   2.862   0.431   4.134
 8150TIP3    H224415   3.001   0.441   4.075
 8151TIP3   OH224416   5.513   4.521   1.389
 8151TIP3    H124417   5.573   4.496   1.459
 8151TIP3    H224418   5.460   4.592   1.427
 8152TIP3   OH224419   6.885   4.397   1.134
 8152TIP3    H124420   6.954   4.386   1.200
 8152TIP3    H224421   6.822   4.455   1.176
 8153TIP3   OH224422   4.432   1.036   3.797
 8153TIP3    H124423   4.390   0.990   3.725
 8153TIP3    H224424   4.361   1.088   3.837
 8154TIP3   OH224425   2.305   0.693   0.491
 8154TIP3    H124426   2.214   0.690   0.462
 8154TIP3    H224427   2.309   0.633   0.565
 8155TIP3   OH224428   2.131   1.127   3.239
 8155TIP3    H124429   2.158   1.036   3.247
 8155TIP3    H224430   2.190   1.176   3.296
 8156TIP3   OH224431   1.960   4.940   2.773
 8156TIP3    H124432   1.974   4.847   2.758
 8156TIP3    H224433   1.869   4.955   2.750
 8157TIP3   OH224434   2.036   3.401   2.689
 8157TIP3    H124435   2.048   3.306   2.695
 8157TIP3    H224436   2.098   3.438   2.753
 8158TIP3   OH224437   4.518   1.908   3.734
 8158TIP3    H124438   4.494   1.828   3.688
 8158TIP3    H224439   4.439   1.933   3.782
 8159TIP3   OH224440   1.300   5.648   4.734
 8159TIP3    H124441   1.352   5.673   4.810
 8159TIP3    H224442   1.342   5.568   4.701
 8160TIP3   OH224443   5.345   6.410   4.316
 8160TIP3    H124444   5.406   6.337   4.330
 8160TIP3    H224445   5.366   6.472   4.386
 8161TIP3   OH224446   5.045   0.078   4.755
 8161TIP3    H124447   5.131   0.086   4.797
 8161TIP3    H224448   4.987   0.051   4.826
 8162TIP3   OH224449   1.372   4.698   3.431
 8162TIP3    H124450   1.383   4.766   3.497
 8162TIP3    H224451   1.353   4.619   3.481
 8163TIP3   OH224452   4.628   6.376   4.357
 8163TIP3    H124453   4.630   6.466   4.325
 8163TIP3    H224454   4.719   6.346   4.348
 8164TIP3   OH224455   2.307   0.678   2.090
 8164TIP3    H124456   2.233   0.722   2.049
 8164TIP3    H224457   2.328   0.606   2.031
 8165TIP3   OH224458   0.827   4.778   3.006
 8165TIP3    H124459   0.783   4.767   2.921
 8165TIP3    H224460   0.823   4.872   3.023
 8166TIP3   OH224461   3.381   4.240   0.346
 8166TIP3    H124462   3.454   4.247   0.408
 8166TIP3    H224463   3.413   4.179   0.279
 8167TIP3   OH224464   6.372   1.370   3.504
 8167TIP3    H124465   6.463   1.376   3.477
 8167TIP3    H224466   6.324   1.423   3.440
 8168TIP3   OH224467   6.331   1.950   5.632
 8168TIP3    H124468   6.290   1.978   5.713
 8168TIP3    H224469   6.327   2.026   5.574
 8169TIP3   OH224470   1.552   0.234   3.580
 8169TIP3    H124471   1.563   0.183   3.500
 8169TIP3    H224472   1.540   0.324   3.550
 8170TIP3   OH224473   6.190   1.234   0.470
 8170TIP3    H124474   6.127   1.298   0.504
 8170TIP3    H224475   6.274   1.259   0.509
 8171TIP3   OH224476   4.654   2.612   1.712
 8171TIP3    H124477   4.637   2.704   1.691
 8171TIP3    H224478   4.597   2.593   1.786
 8172TIP3   OH224479   3.629   3.992   3.625
 8172TIP3    H124480   3.678   3.991   3.542
 8172TIP3    H224481   3.607   4.084   3.638
 8173TIP3   OH224482   6.979   4.123   1.350
 8173TIP3    H124483   7.055   4.119   1.408
 8173TIP3    H224484   7.015   4.111   1.262
 8174TIP3   OH224485   1.790   5.214   1.289
 8174TIP3    H124486   1.712   5.227   1.342
 8174TIP3    H224487   1.862   5.246   1.343
 8175TIP3   OH224488   3.898   6.133   3.350
 8175TIP3    H124489   3.927   6.114   3.439
 8175TIP3    H224490   3.813   6.176   3.361
 8176TIP3   OH224491   4.400   5.734   2.559
 8176TIP3    H124492   4.489   5.716   2.529
 8176TIP3    H224493   4.345   5.672   2.511
 8177TIP3   OH224494   0.143   3.100   5.938
 8177TIP3    H124495   0.125   3.082   6.030
 8177TIP3    H224496   0.165   3.015   5.901
 8178TIP3   OH224497   3.598   4.241   2.625
 8178TIP3    H124498   3.606   4.280   2.713
 8178TIP3    H224499   3.571   4.314   2.569
 8179TIP3   OH224500   4.212   2.210   2.691
 8179TIP3    H124501   4.199   2.297   2.729
 8179TIP3    H224502   4.202   2.150   2.765
 8180TIP3   OH224503   6.388   5.590   5.798
 8180TIP3    H124504   6.475   5.557   5.774
 8180TIP3    H224505   6.378   5.566   5.890
 8181TIP3   OH224506   5.075   4.159   5.033
 8181TIP3    H124507   5.034   4.232   5.079
 8181TIP3    H224508   5.094   4.194   4.945
 8182TIP3   OH224509   1.922   5.570   4.779
 8182TIP3    H124510   1.897   5.539   4.692
 8182TIP3    H224511   1.861   5.525   4.838
 8183TIP3   OH224512   6.847   1.913   0.351
 8183TIP3    H124513   6.810   1.891   0.265
 8183TIP3    H224514   6.866   2.007   0.345
 8184TIP3   OH224515   3.823   6.269   1.709
 8184TIP3    H124516   3.865   6.189   1.741
 8184TIP3    H224517   3.752   6.237   1.654
 8185TIP3   OH224518   7.048   6.304   3.770
 8185TIP3    H124519   7.024   6.396   3.772
 8185TIP3    H224520   7.104   6.292   3.846
 8186TIP3   OH224521   5.308   5.649   1.443
 8186TIP3    H124522   5.266   5.720   1.492
 8186TIP3    H224523   5.245   5.577   1.445
 8187TIP3   OH224524   6.981   0.471   5.275
 8187TIP3    H124525   6.904   0.474   5.332
 8187TIP3    H224526   7.014   0.382   5.284
 8188TIP3   OH224527   3.131   0.503   0.316
 8188TIP3    H124528   3.195   0.475   0.251
 8188TIP3    H224529   3.141   0.441   0.388
 8189TIP3   OH224530   4.689   3.031   2.340
 8189TIP3    H124531   4.666   3.099   2.278
 8189TIP3    H224532   4.773   2.998   2.310
 8190TIP3   OH224533   4.652   2.853   1.274
 8190TIP3    H124534   4.674   2.862   1.181
 8190TIP3    H224535   4.697   2.926   1.316
 8191TIP3   OH224536   3.227   2.339   2.237
 8191TIP3    H124537   3.196   2.293   2.159
 8191TIP3    H224538   3.274   2.273   2.287
 8192TIP3   OH224539   4.159   0.082   1.384
 8192TIP3    H124540   4.224   0.048   1.446
 8192TIP3    H224541   4.163   0.022   1.310
 8193TIP3   OH224542   4.456   3.369   3.302
 8193TIP3    H124543   4.408   3.402   3.378
 8193TIP3    H224544   4.410   3.407   3.227
 8194TIP3   OH224545   2.108   0.950   3.769
 8194TIP3    H124546   2.031   0.971   3.822
 8194TIP3    H224547   2.167   0.906   3.829
 8195TIP3   OH224548   0.863   0.479   0.328
 8195TIP3    H124549   0.939   0.512   0.281
 8195TIP3    H224550   0.802   0.451   0.260
 8196TIP3   OH224551   2.303   6.216   2.759
 8196TIP3    H124552   2.237   6.206   2.690
 8196TIP3    H224553   2.265   6.279   2.820
 8197TIP3   OH224554   1.997   2.277   4.932
 8197TIP3    H124555   2.077   2.230   4.956
 8197TIP3    H224556   2.023   2.333   4.860
 8198TIP3   OH224557   3.158   2.099   0.815
 8198TIP3    H124558   3.064   2.101   0.829
 8198TIP3    H224559   3.170   2.132   0.725
 8199TIP3   OH224560   5.548   1.120   1.907
 8199TIP3    H124561   5.561   1.114   2.001
 8199TIP3    H224562   5.453   1.120   1.895
 8200TIP3   OH224563   5.024   3.130   2.450
 8200TIP3    H124564   4.996   3.221   2.438
 8200TIP3    H224565   5.007   3.088   2.365
 8201TIP3   OH224566   4.664   4.371   3.974
 8201TIP3    H124567   4.630   4.284   3.956
 8201TIP3    H224568   4.586   4.426   3.982
 8202TIP3   OH224569   1.255   1.304   4.433
 8202TIP3    H124570   1.181   1.355   4.398
 8202TIP3    H224571   1.223   1.215   4.437
 8203TIP3   OH224572   0.612   4.750   3.472
 8203TIP3    H124573   0.663   4.770   3.394
 8203TIP3    H224574   0.522   4.741   3.440
 8204TIP3   OH224575   2.540   3.002   2.261
 8204TIP3    H124576   2.490   3.065   2.312
 8204TIP3    H224577   2.628   3.042   2.253
 8205TIP3   OH224578   2.009   6.269   2.687
 8205TIP3    H124579   1.937   6.208   2.701
 8205TIP3    H224580   1.979   6.324   2.614
 8206TIP3   OH224581   0.034   3.272   3.617
 8206TIP3    H124582   0.074   3.188   3.596
 8206TIP3    H224583  -0.058   3.251   3.633
 8207TIP3   OH224584   6.087   2.623   1.702
 8207TIP3    H124585   6.113   2.663   1.619
 8207TIP3    H224586   6.169   2.610   1.750
 8208TIP3   OH224587   5.478   5.205   5.470
 8208TIP3    H124588   5.444   5.267   5.536
 8208TIP3    H224589   5.550   5.252   5.428
 8209TIP3   OH224590   5.635   6.401   0.263
 8209TIP3    H124591   5.553   6.449   0.251
 8209TIP3    H224592   5.692   6.432   0.192
 8210TIP3   OH224593   3.918   5.796   0.830
 8210TIP3    H124594   3.964   5.876   0.855
 8210TIP3    H224595   3.893   5.756   0.913
 8211TIP3   OH224596   4.207   5.054   1.117
 8211TIP3    H124597   4.231   4.973   1.162
 8211TIP3    H224598   4.256   5.122   1.163
 8212TIP3   OH224599   2.240   4.056   1.798
 8212TIP3    H124600   2.316   4.038   1.854
 8212TIP3    H224601   2.264   4.135   1.750
 8213TIP3   OH224602   5.591   1.943   4.710
 8213TIP3    H124603   5.610   1.971   4.799
 8213TIP3    H224604   5.499   1.919   4.710
 8214TIP3   OH224605   4.691   4.319   4.677
 8214TIP3    H124606   4.761   4.312   4.742
 8214TIP3    H224607   4.632   4.386   4.713
 8215TIP3   OH224608   5.364   4.825   2.337
 8215TIP3    H124609   5.279   4.782   2.330
 8215TIP3    H224610   5.398   4.799   2.423
 8216TIP3   OH224611   6.219   0.457   2.989
 8216TIP3    H124612   6.287   0.499   2.935
 8216TIP3    H224613   6.234   0.363   2.978
 8217TIP3   OH224614   7.021   6.353   2.798
 8217TIP3    H124615   6.999   6.261   2.788
 8217TIP3    H224616   6.970   6.398   2.731
 8218TIP3   OH224617   3.184   3.664   5.890
 8218TIP3    H124618   3.111   3.665   5.952
 8218TIP3    H224619   3.143   3.646   5.805
 8219TIP3   OH224620   5.558   2.176   2.593
 8219TIP3    H124621   5.549   2.104   2.531
 8219TIP3    H224622   5.480   2.229   2.579
 8220TIP3   OH224623   5.258   4.252   5.312
 8220TIP3    H124624   5.270   4.346   5.295
 8220TIP3    H224625   5.182   4.228   5.259
 8221TIP3   OH224626   0.825   1.301   2.742
 8221TIP3    H124627   0.877   1.226   2.772
 8221TIP3    H224628   0.857   1.375   2.794
 8222TIP3   OH224629   0.761   0.047   5.392
 8222TIP3    H124630   0.695   0.065   5.325
 8222TIP3    H224631   0.773   0.131   5.437
 8223TIP3   OH224632   3.847   3.539   4.776
 8223TIP3    H124633   3.914   3.606   4.762
 8223TIP3    H224634   3.780   3.559   4.710
 8224TIP3   OH224635   0.109   5.204   5.782
 8224TIP3    H124636   0.049   5.218   5.709
 8224TIP3    H224637   0.062   5.145   5.841
 8225TIP3   OH224638   6.488   0.918   1.988
 8225TIP3    H124639   6.400   0.886   1.968
 8225TIP3    H224640   6.539   0.901   1.909
 8226TIP3   OH224641   4.263   1.129   5.548
 8226TIP3    H124642   4.200   1.113   5.478
 8226TIP3    H224643   4.245   1.219   5.576
 8227TIP3   OH224644   0.125   4.356   2.235
 8227TIP3    H124645   0.082   4.298   2.298
 8227TIP3    H224646   0.173   4.418   2.289
 8228TIP3   OH224647   0.904   4.808   5.797
 8228TIP3    H124648   0.984   4.769   5.763
 8228TIP3    H224649   0.934   4.885   5.845
 8229TIP3   OH224650   1.628   3.451   5.896
 8229TIP3    H124651   1.599   3.438   5.806
 8229TIP3    H224652   1.724   3.451   5.890
 8230TIP3   OH224653   3.475   3.052   3.442
 8230TIP3    H124654   3.449   3.094   3.525
 8230TIP3    H224655   3.393   3.044   3.393
 8231TIP3   OH224656   6.767   0.390   4.149
 8231TIP3    H124657   6.701   0.421   4.212
 8231TIP3    H224658   6.828   0.464   4.142
 8232TIP3   OH224659   6.217   2.428   3.684
 8232TIP3    H124660   6.126   2.427   3.656
 8232TIP3    H224661   6.219   2.482   3.762
 8233TIP3   OH224662   3.358   6.126   3.314
 8233TIP3    H124663   3.272   6.093   3.340
 8233TIP3    H224664   3.344   6.220   3.300
 8234TIP3   OH224665   2.963   6.746   3.651
 8234TIP3    H124666   2.984   6.675   3.591
 8234TIP3    H224667   2.867   6.742   3.660
 8235TIP3   OH224668   7.044   5.983   0.496
 8235TIP3    H124669   7.061   5.959   0.587
 8235TIP3    H224670   6.987   5.913   0.463
 8236TIP3   OH224671   1.260   5.852   3.525
 8236TIP3    H124672   1.279   5.764   3.493
 8236TIP3    H224673   1.346   5.893   3.536
 8237TIP3   OH224674   0.916   5.370   4.316
 8237TIP3    H124675   0.996   5.328   4.347
 8237TIP3    H224676   0.847   5.332   4.370
 8238TIP3   OH224677   6.734   1.926   1.121
 8238TIP3    H124678   6.741   1.943   1.027
 8238TIP3    H224679   6.794   1.852   1.136
 8239TIP3   OH224680   1.220   5.278   0.795
 8239TIP3    H124681   1.251   5.368   0.786
 8239TIP3    H224682   1.237   5.257   0.887
 8240TIP3   OH224683   4.734   2.099   3.080
 8240TIP3    H124684   4.781   2.016   3.087
 8240TIP3    H224685   4.734   2.135   3.169
 8241TIP3   OH224686   7.014   1.614   1.419
 8241TIP3    H124687   7.056   1.692   1.456
 8241TIP3    H224688   6.991   1.561   1.495
 8242TIP3   OH224689   1.393   1.312   4.057
 8242TIP3    H124690   1.373   1.388   4.111
 8242TIP3    H224691   1.407   1.348   3.969
 8243TIP3   OH224692   4.055   1.518   2.628
 8243TIP3    H124693   4.083   1.584   2.565
 8243TIP3    H224694   4.134   1.467   2.646
 8244TIP3   OH224695   3.208   5.389   0.124
 8244TIP3    H124696   3.238   5.398   0.033
 8244TIP3    H224697   3.146   5.462   0.136
 8245TIP3   OH224698   1.266   0.146   0.737
 8245TIP3    H124699   1.171   0.140   0.735
 8245TIP3    H224700   1.285   0.239   0.731
 8246TIP3   OH224701   4.472   0.668   3.215
 8246TIP3    H124702   4.507   0.697   3.299
 8246TIP3    H224703   4.377   0.676   3.225
 8247TIP3   OH224704   0.487   1.077   4.634
 8247TIP3    H124705   0.444   1.024   4.566
 8247TIP3    H224706   0.431   1.067   4.711
 8248TIP3   OH224707   4.031   6.765   4.542
 8248TIP3    H124708   4.117   6.806   4.544
 8248TIP3    H224709   4.041   6.684   4.591
 8249TIP3   OH224710   4.040   0.360   1.470
 8249TIP3    H124711   4.084   0.280   1.440
 8249TIP3    H224712   4.091   0.390   1.545
 8250TIP3   OH224713   2.479   6.019   1.121
 8250TIP3    H124714   2.494   5.940   1.173
 8250TIP3    H224715   2.396   6.002   1.075
 8251TIP3   OH224716   6.259   5.256   5.265
 8251TIP3    H124717   6.353   5.249   5.249
 8251TIP3    H224718   6.250   5.336   5.317
 8252TIP3   OH224719   5.944   0.433   3.813
 8252TIP3    H124720   5.973   0.404   3.726
 8252TIP3    H224721   5.896   0.358   3.848
 8253TIP3   OH224722   6.315   3.284   1.409
 8253TIP3    H124723   6.359   3.225   1.471
 8253TIP3    H224724   6.235   3.311   1.454
 8254TIP3   OH224725   2.730   1.862   1.073
 8254TIP3    H124726   2.759   1.795   1.135
 8254TIP3    H224727   2.809   1.885   1.024
 8255TIP3   OH224728   4.423   4.013   0.126
 8255TIP3    H124729   4.416   4.096   0.173
 8255TIP3    H224730   4.476   3.957   0.183
 8256TIP3   OH224731   5.982   2.210   4.485
 8256TIP3    H124732   6.057   2.151   4.493
 8256TIP3    H224733   5.915   2.171   4.541
 8257TIP3   OH224734   6.259   0.543   0.279
 8257TIP3    H124735   6.243   0.605   0.350
 8257TIP3    H224736   6.340   0.498   0.304
 8258TIP3   OH224737   4.431   4.961   0.493
 8258TIP3    H124738   4.427   4.876   0.537
 8258TIP3    H224739   4.464   4.941   0.405
 8259TIP3   OH224740   4.192   5.334   2.558
 8259TIP3    H124741   4.237   5.337   2.642
 8259TIP3    H224742   4.115   5.390   2.570
 8260TIP3   OH224743   0.867   6.778   0.298
 8260TIP3    H124744   0.957   6.770   0.328
 8260TIP3    H224745   0.829   6.691   0.312
 8261TIP3   OH224746   0.307   4.805   1.820
 8261TIP3    H124747   0.318   4.823   1.727
 8261TIP3    H224748   0.370   4.863   1.863
 8262TIP3   OH224749   0.258   1.564   5.710
 8262TIP3    H124750   0.169   1.597   5.705
 8262TIP3    H224751   0.261   1.492   5.648
 8263TIP3   OH224752   2.669   4.972   5.807
 8263TIP3    H124753   2.653   5.006   5.718
 8263TIP3    H224754   2.753   4.927   5.800
 8264TIP3   OH224755   0.541   5.208   4.398
 8264TIP3    H124756   0.494   5.245   4.324
 8264TIP3    H224757   0.498   5.245   4.475
 8265TIP3   OH224758   0.441   4.409   3.890
 8265TIP3    H124759   0.472   4.499   3.874
 8265TIP3    H224760   0.521   4.356   3.888
 8266TIP3   OH224761   3.278   5.350   3.560
 8266TIP3    H124762   3.328   5.430   3.577
 8266TIP3    H224763   3.338   5.295   3.510
 8267TIP3   OH224764   2.401   4.288   0.573
 8267TIP3    H124765   2.367   4.305   0.485
 8267TIP3    H224766   2.341   4.224   0.610
 8268TIP3   OH224767   3.700   6.530   0.074
 8268TIP3    H124768   3.715   6.451   0.021
 8268TIP3    H224769   3.695   6.601   0.010
 8269TIP3   OH224770   1.393   2.578   3.770
 8269TIP3    H124771   1.404   2.626   3.688
 8269TIP3    H224772   1.479   2.582   3.812
 8270TIP3   OH224773   0.395   4.193   4.853
 8270TIP3    H124774   0.329   4.134   4.888
 8270TIP3    H224775   0.381   4.193   4.759
 8271TIP3   OH224776   3.621   6.179   3.353
 8271TIP3    H124777   3.610   6.203   3.446
 8271TIP3    H224778   3.532   6.168   3.321
 8272TIP3   OH224779   6.181   4.497   1.638
 8272TIP3    H124780   6.142   4.417   1.604
 8272TIP3    H224781   6.239   4.468   1.708
 8273TIP3   OH224782   6.026   6.713   3.565
 8273TIP3    H124783   5.949   6.703   3.620
 8273TIP3    H224784   6.093   6.750   3.622
 8274TIP3   OH224785   1.414   4.854   0.667
 8274TIP3    H124786   1.426   4.776   0.613
 8274TIP3    H224787   1.320   4.858   0.684
 8275TIP3   OH224788   7.043   3.838   0.143
 8275TIP3    H124789   7.008   3.767   0.090
 8275TIP3    H224790   7.135   3.815   0.156
 8276TIP3   OH224791   0.362   3.308   1.699
 8276TIP3    H124792   0.456   3.320   1.713
 8276TIP3    H224793   0.354   3.223   1.656
 8277TIP3   OH224794   5.206   4.754   0.319
 8277TIP3    H124795   5.214   4.734   0.226
 8277TIP3    H224796   5.216   4.669   0.362
 8278TIP3   OH224797   1.178   5.332   2.329
 8278TIP3    H124798   1.199   5.393   2.400
 8278TIP3    H224799   1.191   5.245   2.366
 8279TIP3   OH224800   4.470   6.163   3.497
 8279TIP3    H124801   4.381   6.142   3.466
 8279TIP3    H224802   4.493   6.243   3.451
 8280TIP3   OH224803   1.202   6.229   0.705
 8280TIP3    H124804   1.127   6.179   0.736
 8280TIP3    H224805   1.246   6.173   0.642
 8281TIP3   OH224806   7.046   3.351   1.136
 8281TIP3    H124807   7.085   3.380   1.053
 8281TIP3    H224808   6.972   3.411   1.149
 8282TIP3   OH224809   2.635   1.193   0.118
 8282TIP3    H124810   2.653   1.287   0.112
 8282TIP3    H224811   2.693   1.162   0.188
 8283TIP3   OH224812   3.421   1.205   1.783
 8283TIP3    H124813   3.400   1.113   1.764
 8283TIP3    H224814   3.407   1.250   1.699
 8284TIP3   OH224815   1.188   5.531   2.974
 8284TIP3    H124816   1.150   5.585   3.043
 8284TIP3    H224817   1.281   5.527   2.996
 8285TIP3   OH224818   4.934   4.148   3.858
 8285TIP3    H124819   4.898   4.064   3.883
 8285TIP3    H224820   4.858   4.205   3.845
 8286TIP3   OH224821   6.899   0.454   0.119
 8286TIP3    H124822   6.906   0.549   0.128
 8286TIP3    H224823   6.808   0.440   0.095
 8287TIP3   OH224824   0.773   6.372   3.207
 8287TIP3    H124825   0.686   6.333   3.218
 8287TIP3    H224826   0.807   6.332   3.128
 8288TIP3   OH224827   4.019   1.396   3.964
 8288TIP3    H124828   4.026   1.403   4.060
 8288TIP3    H224829   3.994   1.305   3.949
 8289TIP3   OH224830   4.987   1.581   3.219
 8289TIP3    H124831   4.998   1.513   3.153
 8289TIP3    H224832   5.039   1.551   3.293
 8290TIP3   OH224833   6.471   3.137   1.567
 8290TIP3    H124834   6.466   3.042   1.557
 8290TIP3    H224835   6.547   3.152   1.624
 8291TIP3   OH224836   2.014   2.996   2.258
 8291TIP3    H124837   1.936   3.038   2.295
 8291TIP3    H224838   2.064   2.967   2.334
 8292TIP3   OH224839   1.660   0.471   1.655
 8292TIP3    H124840   1.632   0.429   1.736
 8292TIP3    H224841   1.637   0.407   1.587
 8293TIP3   OH224842   4.470   1.134   2.423
 8293TIP3    H124843   4.394   1.138   2.481
 8293TIP3    H224844   4.489   1.040   2.415
 8294TIP3   OH224845   1.666   2.504   3.879
 8294TIP3    H124846   1.704   2.419   3.902
 8294TIP3    H224847   1.687   2.516   3.786
 8295TIP3   OH224848   4.756   6.222   0.069
 8295TIP3    H124849   4.675   6.262   0.098
 8295TIP3    H224850   4.814   6.296   0.049
 8296TIP3   OH224851   6.799   3.343   2.073
 8296TIP3    H124852   6.876   3.319   2.022
 8296TIP3    H224853   6.764   3.260   2.105
 8297TIP3   OH224854   2.729   0.428   0.863
 8297TIP3    H124855   2.815   0.449   0.901
 8297TIP3    H224856   2.741   0.342   0.823
 8298TIP3   OH224857   4.412   6.527   1.804
 8298TIP3    H124858   4.420   6.606   1.750
 8298TIP3    H224859   4.323   6.497   1.790
 8299TIP3   OH224860   4.360   2.635   0.081
 8299TIP3    H124861   4.275   2.652   0.121
 8299TIP3    H224862   4.341   2.577   0.008
 8300TIP3   OH224863   0.943   5.058   3.375
 8300TIP3    H124864   0.998   5.108   3.435
 8300TIP3    H224865   0.942   4.970   3.413
 8301TIP3   OH224866   1.780   4.987   0.748
 8301TIP3    H124867   1.841   5.047   0.791
 8301TIP3    H224868   1.736   5.041   0.683
 8302TIP3   OH224869   3.652   6.489   1.164
 8302TIP3    H124870   3.580   6.552   1.162
 8302TIP3    H224871   3.717   6.524   1.104
 8303TIP3   OH224872   5.891   2.345   3.909
 8303TIP3    H124873   5.883   2.283   3.837
 8303TIP3    H224874   5.907   2.290   3.986
 8304TIP3   OH224875   6.451   0.998   3.197
 8304TIP3    H124876   6.494   1.081   3.218
 8304TIP3    H224877   6.519   0.946   3.155
 8305TIP3   OH224878   2.236   5.953   1.375
 8305TIP3    H124879   2.268   5.872   1.335
 8305TIP3    H224880   2.154   5.972   1.328
 8306TIP3   OH224881   6.706   6.453   3.154
 8306TIP3    H124882   6.663   6.423   3.234
 8306TIP3    H224883   6.634   6.478   3.096
 8307TIP3   OH224884   5.781   2.868   3.338
 8307TIP3    H124885   5.741   2.781   3.341
 8307TIP3    H224886   5.859   2.857   3.285
 8308TIP3   OH224887   4.596   3.814   4.045
 8308TIP3    H124888   4.617   3.724   4.067
 8308TIP3    H224889   4.518   3.808   3.990
 8309TIP3   OH224890   1.893   3.373   3.254
 8309TIP3    H124891   1.921   3.444   3.196
 8309TIP3    H224892   1.817   3.335   3.211
 8310TIP3   OH224893   1.819   2.893   2.833
 8310TIP3    H124894   1.738   2.921   2.791
 8310TIP3    H224895   1.824   2.944   2.913
 8311TIP3   OH224896   6.153   1.234   2.712
 8311TIP3    H124897   6.135   1.250   2.619
 8311TIP3    H224898   6.159   1.322   2.750
 8312TIP3   OH224899   4.081   6.447   4.410
 8312TIP3    H124900   4.060   6.484   4.324
 8312TIP3    H224901   4.065   6.353   4.401
 8313TIP3   OH224902   1.915   3.984   0.342
 8313TIP3    H124903   1.846   4.042   0.309
 8313TIP3    H224904   1.995   4.017   0.301
 8314TIP3   OH224905   4.952   2.039   2.508
 8314TIP3    H124906   4.969   2.124   2.549
 8314TIP3    H224907   4.858   2.025   2.518
 8315TIP3   OH224908   1.094   3.651   1.929
 8315TIP3    H124909   1.136   3.596   1.862
 8315TIP3    H224910   1.165   3.672   1.990
 8316TIP3   OH224911   5.455   2.725   0.740
 8316TIP3    H124912   5.511   2.784   0.791
 8316TIP3    H224913   5.511   2.697   0.668
 8317TIP3   OH224914   5.969   4.757   5.506
 8317TIP3    H124915   6.007   4.672   5.528
 8317TIP3    H224916   5.951   4.752   5.412
 8318TIP3   OH224917   2.108   5.666   1.748
 8318TIP3    H124918   2.126   5.737   1.686
 8318TIP3    H224919   2.045   5.610   1.702
 8319TIP3   OH224920   3.290   4.016   4.635
 8319TIP3    H124921   3.241   3.964   4.571
 8319TIP3    H224922   3.373   3.969   4.645
 8320TIP3   OH224923   0.658   6.689   4.358
 8320TIP3    H124924   0.566   6.684   4.333
 8320TIP3    H224925   0.685   6.778   4.336
 8321TIP3   OH224926   1.311   6.355   4.215
 8321TIP3    H124927   1.340   6.302   4.289
 8321TIP3    H224928   1.224   6.386   4.240
 8322TIP3   OH224929   1.746   0.533   0.278
 8322TIP3    H124930   1.779   0.531   0.188
 8322TIP3    H224931   1.698   0.616   0.284
 8323TIP3   OH224932   0.421   5.909   5.185
 8323TIP3    H124933   0.350   5.965   5.154
 8323TIP3    H224934   0.421   5.835   5.124
 8324TIP3   OH224935   2.195   0.406   3.949
 8324TIP3    H124936   2.148   0.472   4.000
 8324TIP3    H224937   2.146   0.325   3.965
 8325TIP3   OH224938   5.936   4.094   0.744
 8325TIP3    H124939   5.980   4.146   0.812
 8325TIP3    H224940   5.998   4.023   0.725
 8326TIP3   OH224941   1.337   6.192   1.864
 8326TIP3    H124942   1.333   6.272   1.918
 8326TIP3    H224943   1.368   6.222   1.779
 8327TIP3   OH224944   0.995   2.766   5.041
 8327TIP3    H124945   0.906   2.777   5.074
 8327TIP3    H224946   1.042   2.843   5.073
 8328TIP3   OH224947   2.340   3.453   2.230
 8328TIP3    H124948   2.341   3.525   2.293
 8328TIP3    H224949   2.313   3.377   2.281
 8329TIP3   OH224950   6.276   2.239   1.527
 8329TIP3    H124951   6.330   2.223   1.604
 8329TIP3    H224952   6.311   2.179   1.460
 8330TIP3   OH224953   4.867   4.547   3.889
 8330TIP3    H124954   4.832   4.459   3.900
 8330TIP3    H224955   4.790   4.605   3.898
 8331TIP3   OH224956   0.687   1.931   0.016
 8331TIP3    H124957   0.734   1.894   0.091
 8331TIP3    H224958   0.617   1.869  -0.002
 8332TIP3   OH224959   3.350   5.261   5.435
 8332TIP3    H124960   3.371   5.169   5.449
 8332TIP3    H224961   3.358   5.300   5.522
 8333TIP3   OH224962   5.904   1.630   3.297
 8333TIP3    H124963   5.998   1.622   3.312
 8333TIP3    H224964   5.871   1.674   3.375
 8334TIP3   OH224965   1.428   4.214   2.889
 8334TIP3    H124966   1.422   4.242   2.798
 8334TIP3    H224967   1.520   4.229   2.913
 8335TIP3   OH224968   1.315   2.810   0.382
 8335TIP3    H124969   1.275   2.839   0.300
 8335TIP3    H224970   1.249   2.756   0.424
 8336TIP3   OH224971   4.107   5.366   5.846
 8336TIP3    H124972   4.099   5.290   5.904
 8336TIP3    H224973   4.102   5.329   5.758
 8337TIP3   OH224974   6.269   5.967   5.740
 8337TIP3    H124975   6.280   5.968   5.645
 8337TIP3    H224976   6.274   6.059   5.766
 8338TIP3   OH224977   3.101   3.314   1.051
 8338TIP3    H124978   3.033   3.300   1.117
 8338TIP3    H224979   3.081   3.251   0.982
 8339TIP3   OH224980   2.793   2.528   2.224
 8339TIP3    H124981   2.862   2.542   2.288
 8339TIP3    H224982   2.722   2.488   2.274
 8340TIP3   OH224983   2.917   6.625   4.109
 8340TIP3    H124984   2.927   6.535   4.140
 8340TIP3    H224985   2.961   6.678   4.175
 8341TIP3   OH224986   2.756   1.063   3.132
 8341TIP3    H124987   2.726   1.075   3.222
 8341TIP3    H224988   2.835   1.010   3.140
 8342TIP3   OH224989   1.366   4.004   5.473
 8342TIP3    H124990   1.317   3.927   5.445
 8342TIP3    H224991   1.345   4.071   5.407
 8343TIP3   OH224992   4.417   0.374   1.874
 8343TIP3    H124993   4.405   0.299   1.933
 8343TIP3    H224994   4.445   0.445   1.932
 8344TIP3   OH224995   6.134   4.764   2.818
 8344TIP3    H124996   6.089   4.703   2.876
 8344TIP3    H224997   6.133   4.847   2.865
 8345TIP3   OH224998   6.171   3.915   3.939
 8345TIP3    H124999   6.194   3.824   3.955
 8345TIP3    H225000   6.112   3.912   3.864
 8346TIP3   OH225001   6.333   5.190   4.282
 8346TIP3    H125002   6.293   5.134   4.215
 8346TIP3    H225003   6.426   5.168   4.280
 8347TIP3   OH225004   5.129   6.026   3.651
 8347TIP3    H125005   5.103   5.957   3.590
 8347TIP3    H225006   5.136   6.105   3.598
 8348TIP3   OH225007   2.706   6.013   3.762
 8348TIP3    H125008   2.666   6.009   3.675
 8348TIP3    H225009   2.800   6.022   3.745
 8349TIP3   OH225010   1.777   2.062   2.362
 8349TIP3    H125011   1.725   2.142   2.359
 8349TIP3    H225012   1.819   2.064   2.448
 8350TIP3   OH225013   2.810   0.105   0.075
 8350TIP3    H125014   2.812   0.181   0.016
 8350TIP3    H225015   2.896   0.104   0.117
 8351TIP3   OH225016   5.626   5.580   1.439
 8351TIP3    H125017   5.591   5.649   1.381
 8351TIP3    H225018   5.652   5.510   1.379
 8352TIP3   OH225019   6.399   3.396   4.580
 8352TIP3    H125020   6.437   3.308   4.585
 8352TIP3    H225021   6.466   3.453   4.619
 8353TIP3   OH225022   6.974   2.594   5.707
 8353TIP3    H125023   7.002   2.660   5.644
 8353TIP3    H225024   6.879   2.604   5.712
 8354TIP3   OH225025   0.952   5.511   0.134
 8354TIP3    H125026   0.933   5.534   0.224
 8354TIP3    H225027   0.867   5.509   0.091
 8355TIP3   OH225028   5.823   0.397   0.081
 8355TIP3    H125029   5.750   0.352   0.037
 8355TIP3    H225030   5.803   0.490   0.071
 8356TIP3   OH225031   2.194   3.791   4.423
 8356TIP3    H125032   2.131   3.857   4.396
 8356TIP3    H225033   2.239   3.830   4.498
 8357TIP3   OH225034   4.493   5.278   0.401
 8357TIP3    H125035   4.566   5.217   0.405
 8357TIP3    H225036   4.416   5.225   0.418
 8358TIP3   OH225037   4.608   5.331   1.410
 8358TIP3    H125038   4.520   5.310   1.380
 8358TIP3    H225039   4.666   5.282   1.352
 8359TIP3   OH225040   7.155   1.060   0.119
 8359TIP3    H125041   7.247   1.087   0.132
 8359TIP3    H225042   7.105   1.141   0.128
 8360TIP3   OH225043   3.835   5.673   3.053
 8360TIP3    H125044   3.920   5.715   3.038
 8360TIP3    H225045   3.853   5.580   3.040
 8361TIP3   OH225046   4.098   3.074   1.092
 8361TIP3    H125047   4.139   3.073   1.178
 8361TIP3    H225048   4.127   3.157   1.052
 8362TIP3   OH225049   4.426   3.742   5.006
 8362TIP3    H125050   4.381   3.676   4.953
 8362TIP3    H225051   4.484   3.692   5.063
 8363TIP3   OH225052   0.632   1.944   3.268
 8363TIP3    H125053   0.648   1.859   3.228
 8363TIP3    H225054   0.569   1.986   3.210
 8364TIP3   OH225055   1.143   0.934   4.416
 8364TIP3    H125056   1.211   0.983   4.462
 8364TIP3    H225057   1.184   0.850   4.395
 8365TIP3   OH225058   0.465   0.373   3.925
 8365TIP3    H125059   0.429   0.312   3.989
 8365TIP3    H225060   0.560   0.366   3.935
 8366TIP3   OH225061   6.224   2.631   0.668
 8366TIP3    H125062   6.251   2.625   0.577
 8366TIP3    H225063   6.249   2.720   0.694
 8367TIP3   OH225064   3.080   2.515   1.082
 8367TIP3    H125065   3.133   2.445   1.045
 8367TIP3    H225066   3.032   2.551   1.007
 8368TIP3   OH225067   0.602   4.882   1.722
 8368TIP3    H125068   0.678   4.938   1.710
 8368TIP3    H225069   0.550   4.925   1.790
 8369TIP3   OH225070   2.816   0.341   0.419
 8369TIP3    H125071   2.795   0.248   0.417
 8369TIP3    H225072   2.827   0.365   0.327
 8370TIP3   OH225073   1.029   3.674   4.044
 8370TIP3    H125074   1.061   3.627   3.967
 8370TIP3    H225075   0.995   3.606   4.102
 8371TIP3   OH225076   1.993   6.119   3.078
 8371TIP3    H125077   1.990   6.203   3.031
 8371TIP3    H225078   2.076   6.080   3.052
 8372TIP3   OH225079   7.043   3.233   3.006
 8372TIP3    H125080   7.118   3.288   3.028
 8372TIP3    H225081   6.986   3.289   2.952
 8373TIP3   OH225082   6.447   6.350   2.933
 8373TIP3    H125083   6.407   6.273   2.974
 8373TIP3    H225084   6.403   6.357   2.848
 8374TIP3   OH225085   4.162   2.711   3.489
 8374TIP3    H125086   4.151   2.802   3.461
 8374TIP3    H225087   4.254   2.691   3.468
 8375TIP3   OH225088   4.770   1.437   2.205
 8375TIP3    H125089   4.719   1.357   2.194
 8375TIP3    H225090   4.793   1.463   2.116
 8376TIP3   OH225091   3.394   6.677   1.162
 8376TIP3    H125092   3.368   6.684   1.070
 8376TIP3    H225093   3.429   6.763   1.184
 8377TIP3   OH225094   4.412   4.159   4.196
 8377TIP3    H125095   4.326   4.168   4.238
 8377TIP3    H225096   4.454   4.244   4.208
 8378TIP3   OH225097   2.911   0.793   0.740
 8378TIP3    H125098   2.834   0.783   0.685
 8378TIP3    H225099   2.895   0.736   0.815
 8379TIP3   OH225100   1.746   3.378   3.809
 8379TIP3    H125101   1.836   3.359   3.838
 8379TIP3    H225102   1.755   3.407   3.718
 8380TIP3   OH225103   2.408   1.811   2.577
 8380TIP3    H125104   2.399   1.879   2.510
 8380TIP3    H225105   2.325   1.764   2.576
 8381TIP3   OH225106   5.508   5.465   5.461
 8381TIP3    H125107   5.591   5.508   5.440
 8381TIP3    H225108   5.467   5.522   5.526
 8382TIP3   OH225109   4.818   1.594   1.472
 8382TIP3    H125110   4.813   1.498   1.474
 8382TIP3    H225111   4.870   1.617   1.550
 8383TIP3   OH225112   5.675   1.123   5.262
 8383TIP3    H125113   5.645   1.089   5.347
 8383TIP3    H225114   5.749   1.068   5.239
 8384TIP3   OH225115   6.666   2.079   5.005
 8384TIP3    H125116   6.656   2.091   4.911
 8384TIP3    H225117   6.653   2.167   5.041
 8385TIP3   OH225118   2.720   0.937   2.462
 8385TIP3    H125119   2.751   1.026   2.448
 8385TIP3    H225120   2.769   0.906   2.539
 8386TIP3   OH225121   5.969   0.682   0.846
 8386TIP3    H125122   5.986   0.662   0.754
 8386TIP3    H225123   5.898   0.746   0.844
 8387TIP3   OH225124   3.511   0.486   3.865
 8387TIP3    H125125   3.431   0.477   3.813
 8387TIP3    H225126   3.578   0.511   3.802
 8388TIP3   OH225127   5.574   0.478   4.678
 8388TIP3    H125128   5.568   0.467   4.773
 8388TIP3    H225129   5.520   0.407   4.642
 8389TIP3   OH225130   4.935   0.343   4.667
 8389TIP3    H125131   4.993   0.270   4.692
 8389TIP3    H225132   4.957   0.361   4.576
 8390TIP3   OH225133   5.260   0.468   5.429
 8390TIP3    H125134   5.247   0.531   5.358
 8390TIP3    H225135   5.221   0.509   5.506
 8391TIP3   OH225136   4.065   2.463   4.919
 8391TIP3    H125137   4.022   2.381   4.896
 8391TIP3    H225138   4.157   2.439   4.930
 8392TIP3   OH225139   3.658   6.486   1.742
 8392TIP3    H125140   3.672   6.517   1.832
 8392TIP3    H225141   3.728   6.422   1.728
 8393TIP3   OH225142   5.335   3.101   3.811
 8393TIP3    H125143   5.385   3.169   3.855
 8393TIP3    H225144   5.256   3.145   3.779
 8394TIP3   OH225145   3.080   3.326   5.414
 8394TIP3    H125146   3.146   3.393   5.398
 8394TIP3    H225147   3.076   3.275   5.333
 8395TIP3   OH225148   1.525   1.615   4.542
 8395TIP3    H125149   1.475   1.535   4.559
 8395TIP3    H225150   1.578   1.627   4.621
 8396TIP3   OH225151   5.599   5.000   3.073
 8396TIP3    H125152   5.683   4.954   3.076
 8396TIP3    H225153   5.619   5.089   3.102
 8397TIP3   OH225154   6.178   1.759   2.310
 8397TIP3    H125155   6.119   1.712   2.251
 8397TIP3    H225156   6.121   1.799   2.375
 8398TIP3   OH225157   6.103   2.779   1.461
 8398TIP3    H125158   6.093   2.850   1.397
 8398TIP3    H225159   6.176   2.727   1.427
 8399TIP3   OH225160   3.778   6.198   5.710
 8399TIP3    H125161   3.701   6.253   5.727
 8399TIP3    H225162   3.809   6.174   5.797
 8400TIP3   OH225163   2.283   6.182   5.297
 8400TIP3    H125164   2.344   6.196   5.225
 8400TIP3    H225165   2.339   6.156   5.371
 8401TIP3   OH225166   0.504   4.337   0.331
 8401TIP3    H125167   0.416   4.339   0.295
 8401TIP3    H225168   0.533   4.246   0.319
 8402TIP3   OH225169   2.049   1.344   0.573
 8402TIP3    H125170   2.143   1.365   0.574
 8402TIP3    H225171   2.040   1.271   0.635
 8403TIP3   OH225172   6.909   2.418   0.167
 8403TIP3    H125173   6.922   2.448   0.257
 8403TIP3    H225174   6.955   2.334   0.163
 8404TIP3   OH225175   0.534   1.722   1.296
 8404TIP3    H125176   0.559   1.650   1.237
 8404TIP3    H225177   0.593   1.793   1.272
 8405TIP3   OH225178   1.141   1.043   1.037
 8405TIP3    H125179   1.166   1.088   1.118
 8405TIP3    H225180   1.195   1.083   0.970
 8406TIP3   OH225181   1.597   3.909   2.842
 8406TIP3    H125182   1.632   3.918   2.753
 8406TIP3    H225183   1.652   3.966   2.896
 8407TIP3   OH225184   5.318   5.698   2.929
 8407TIP3    H125185   5.349   5.652   2.851
 8407TIP3    H225186   5.295   5.628   2.990
 8408TIP3   OH225187   2.569   1.276   1.945
 8408TIP3    H125188   2.596   1.288   1.854
 8408TIP3    H225189   2.476   1.257   1.940
 8409TIP3   OH225190   1.439   6.648   3.167
 8409TIP3    H125191   1.532   6.628   3.170
 8409TIP3    H225192   1.427   6.696   3.085
 8410TIP3   OH225193   3.979   3.705   0.623
 8410TIP3    H125194   3.978   3.747   0.709
 8410TIP3    H225195   4.026   3.623   0.638
 8411TIP3   OH225196   2.285   6.784   4.604
 8411TIP3    H125197   2.299   6.868   4.649
 8411TIP3    H225198   2.353   6.727   4.640
 8412TIP3   OH225199   2.209   1.519   3.387
 8412TIP3    H125200   2.245   1.499   3.474
 8412TIP3    H225201   2.282   1.556   3.338
 8413TIP3   OH225202   4.126   4.298   0.481
 8413TIP3    H125203   4.045   4.248   0.494
 8413TIP3    H225204   4.188   4.235   0.445
 8414TIP3   OH225205   0.156   5.063   3.644
 8414TIP3    H125206   0.119   5.151   3.633
 8414TIP3    H225207   0.083   5.004   3.626
 8415TIP3   OH225208   0.842   5.408   5.766
 8415TIP3    H125209   0.763   5.437   5.719
 8415TIP3    H225210   0.845   5.314   5.751
 8416TIP3   OH225211   6.267   6.266   2.738
 8416TIP3    H125212   6.246   6.190   2.793
 8416TIP3    H225213   6.236   6.242   2.651
 8417TIP3   OH225214   7.227   0.329   4.349
 8417TIP3    H125215   7.211   0.332   4.255
 8417TIP3    H225216   7.139   0.330   4.388
 8418TIP3   OH225217   3.694   2.194   5.072
 8418TIP3    H125218   3.751   2.150   5.135
 8418TIP3    H225219   3.622   2.132   5.057
 8419TIP3   OH225220   3.259   6.691   5.752
 8419TIP3    H125221   3.215   6.762   5.797
 8419TIP3    H225222   3.342   6.729   5.722
 8420TIP3   OH225223   5.752   1.100   4.880
 8420TIP3    H125224   5.830   1.054   4.849
 8420TIP3    H225225   5.679   1.045   4.852
 8421TIP3   OH225226   7.122   5.358   0.568
 8421TIP3    H125227   7.167   5.441   0.585
 8421TIP3    H225228   7.050   5.356   0.631
 8422TIP3   OH225229   1.607   2.204   3.526
 8422TIP3    H125230   1.527   2.245   3.560
 8422TIP3    H225231   1.633   2.142   3.595
 8423TIP3   OH225232   6.579   2.427   0.249
 8423TIP3    H125233   6.673   2.439   0.264
 8423TIP3    H225234   6.569   2.333   0.233
 8424TIP3   OH225235   0.232   0.446   4.420
 8424TIP3    H125236   0.151   0.412   4.383
 8424TIP3    H225237   0.213   0.539   4.437
 8425TIP3   OH225238   0.027   0.394   1.463
 8425TIP3    H125239  -0.047   0.334   1.453
 8425TIP3    H225240   0.031   0.413   1.556
 8426TIP3   OH225241   5.090   1.658   3.919
 8426TIP3    H125242   5.176   1.619   3.935
 8426TIP3    H225243   5.107   1.730   3.859
 8427TIP3   OH225244   6.447   1.800   0.053
 8427TIP3    H125245   6.483   1.711   0.051
 8427TIP3    H225246   6.390   1.801   0.130
 8428TIP3   OH225247   5.379   3.964   4.915
 8428TIP3    H125248   5.383   4.060   4.922
 8428TIP3    H225249   5.294   3.947   4.874
 8429TIP3   OH225250   2.368   2.982   3.022
 8429TIP3    H125251   2.417   2.934   3.088
 8429TIP3    H225252   2.432   3.039   2.981
 8430TIP3   OH225253   4.102   2.759   1.731
 8430TIP3    H125254   4.017   2.799   1.711
 8430TIP3    H225255   4.097   2.737   1.824
 8431TIP3   OH225256   4.671   6.593   1.138
 8431TIP3    H125257   4.749   6.539   1.154
 8431TIP3    H225258   4.705   6.681   1.123
 8432TIP3   OH225259   3.802   1.871   1.756
 8432TIP3    H125260   3.842   1.903   1.675
 8432TIP3    H225261   3.838   1.927   1.825
 8433TIP3   OH225262   1.931   5.182   0.876
 8433TIP3    H125263   2.026   5.187   0.866
 8433TIP3    H225264   1.902   5.273   0.880
 8434TIP3   OH225265   1.302   6.544   1.524
 8434TIP3    H125266   1.239   6.602   1.566
 8434TIP3    H225267   1.359   6.603   1.474
 8435TIP3   OH225268   0.127   0.741   4.489
 8435TIP3    H125269   0.178   0.758   4.567
 8435TIP3    H225270   0.161   0.802   4.423
 8436TIP3   OH225271   6.810   5.798   3.627
 8436TIP3    H125272   6.903   5.807   3.649
 8436TIP3    H225273   6.807   5.807   3.532
 8437TIP3   OH225274   4.611   1.500   4.550
 8437TIP3    H125275   4.567   1.579   4.518
 8437TIP3    H225276   4.542   1.451   4.595
 8438TIP3   OH225277   6.434   1.637   1.763
 8438TIP3    H125278   6.427   1.545   1.740
 8438TIP3    H225279   6.420   1.640   1.858
 8439TIP3   OH225280   3.636   3.549   0.262
 8439TIP3    H125281   3.581   3.546   0.183
 8439TIP3    H225282   3.622   3.464   0.304
 8440TIP3   OH225283   3.288   1.630   2.243
 8440TIP3    H125284   3.276   1.578   2.323
 8440TIP3    H225285   3.354   1.582   2.193
 8441TIP3   OH225286   1.283   4.616   0.512
 8441TIP3    H125287   1.337   4.546   0.474
 8441TIP3    H225288   1.193   4.585   0.503
 8442TIP3   OH225289   6.697   5.157   2.347
 8442TIP3    H125290   6.746   5.104   2.410
 8442TIP3    H225291   6.623   5.101   2.323
 8443TIP3   OH225292   1.194   5.522   2.145
 8443TIP3    H125293   1.153   5.470   2.075
 8443TIP3    H225294   1.196   5.462   2.220
 8444TIP3   OH225295   3.267   4.100   1.788
 8444TIP3    H125296   3.275   4.089   1.883
 8444TIP3    H225297   3.354   4.127   1.759
 8445TIP3   OH225298   4.608   4.009   2.603
 8445TIP3    H125299   4.518   3.995   2.631
 8445TIP3    H225300   4.652   3.925   2.616
 8446TIP3   OH225301   2.597   6.219   1.961
 8446TIP3    H125302   2.674   6.174   1.997
 8446TIP3    H225303   2.532   6.215   2.031
 8447TIP3   OH225304   2.351   0.357   1.674
 8447TIP3    H125305   2.262   0.358   1.639
 8447TIP3    H225306   2.346   0.413   1.752
 8448TIP3   OH225307   5.974   5.065   1.336
 8448TIP3    H125308   5.913   5.041   1.407
 8448TIP3    H225309   5.930   5.037   1.256
 8449TIP3   OH225310   3.367   1.905   1.577
 8449TIP3    H125311   3.406   1.920   1.664
 8449TIP3    H225312   3.387   1.985   1.529
 8450TIP3   OH225313   4.842   3.012   0.162
 8450TIP3    H125314   4.891   3.080   0.117
 8450TIP3    H225315   4.882   3.007   0.249
 8451TIP3   OH225316   0.474   3.887   1.438
 8451TIP3    H125317   0.469   3.983   1.442
 8451TIP3    H225318   0.400   3.862   1.383
 8452TIP3   OH225319   0.092   6.728   1.279
 8452TIP3    H125320   0.186   6.747   1.286
 8452TIP3    H225321   0.088   6.635   1.257
 8453TIP3   OH225322   1.121   6.265   5.338
 8453TIP3    H125323   1.031   6.236   5.352
 8453TIP3    H225324   1.175   6.203   5.387
 8454TIP3   OH225325   0.532   6.594   1.870
 8454TIP3    H125326   0.552   6.585   1.963
 8454TIP3    H225327   0.552   6.508   1.833
 8455TIP3   OH225328   1.261   3.384   4.024
 8455TIP3    H125329   1.330   3.341   3.973
 8455TIP3    H225330   1.218   3.442   3.962
 8456TIP3   OH225331   5.238   0.464   3.924
 8456TIP3    H125332   5.323   0.425   3.941
 8456TIP3    H225333   5.214   0.507   4.006
 8457TIP3   OH225334   0.139   6.208   0.318
 8457TIP3    H125335   0.189   6.196   0.237
 8457TIP3    H225336   0.056   6.164   0.301
 8458TIP3   OH225337   6.731   1.524   1.898
 8458TIP3    H125338   6.768   1.578   1.828
 8458TIP3    H225339   6.636   1.533   1.887
 8459TIP3   OH225340   4.273   4.452   5.201
 8459TIP3    H125341   4.330   4.375   5.206
 8459TIP3    H225342   4.322   4.516   5.150
 8460TIP3   OH225343   2.071   1.678   1.794
 8460TIP3    H125344   2.135   1.748   1.802
 8460TIP3    H225345   2.016   1.686   1.872
 8461TIP3   OH225346   0.758   4.093   3.275
 8461TIP3    H125347   0.676   4.109   3.322
 8461TIP3    H225348   0.795   4.179   3.259
 8462TIP3   OH225349   5.882   6.630   4.416
 8462TIP3    H125350   5.922   6.589   4.492
 8462TIP3    H225351   5.790   6.640   4.439
 8463TIP3   OH225352   1.218   3.987   1.426
 8463TIP3    H125353   1.159   3.916   1.451
 8463TIP3    H225354   1.225   4.042   1.504
 8464TIP3   OH225355   7.144   5.232   1.598
 8464TIP3    H125356   7.137   5.281   1.517
 8464TIP3    H225357   7.230   5.191   1.595
 8465TIP3   OH225358   4.681   6.815   4.569
 8465TIP3    H125359   4.691   6.840   4.477
 8465TIP3    H225360   4.622   6.740   4.568
 8466TIP3   OH225361   4.592   2.280   3.860
 8466TIP3    H125362   4.591   2.343   3.788
 8466TIP3    H225363   4.666   2.223   3.841
 8467TIP3   OH225364   4.022   0.107   2.255
 8467TIP3    H125365   3.934   0.121   2.220
 8467TIP3    H225366   4.009   0.104   2.350
 8468TIP3   OH225367   2.530   4.662   2.085
 8468TIP3    H125368   2.548   4.751   2.114
 8468TIP3    H225369   2.596   4.644   2.018
 8469TIP3   OH225370   1.181   5.456   5.543
 8469TIP3    H125371   1.241   5.461   5.618
 8469TIP3    H225372   1.102   5.501   5.573
 8470TIP3   OH225373   2.614   1.953   1.794
 8470TIP3    H125374   2.551   1.886   1.822
 8470TIP3    H225375   2.692   1.936   1.847
 8471TIP3   OH225376   3.994   6.247   5.354
 8471TIP3    H125377   4.025   6.207   5.435
 8471TIP3    H225378   3.964   6.173   5.302
 8472TIP3   OH225379   2.803   2.649   4.109
 8472TIP3    H125380   2.740   2.589   4.069
 8472TIP3    H225381   2.829   2.708   4.038
 8473TIP3   OH225382   6.865   4.592   3.154
 8473TIP3    H125383   6.839   4.536   3.228
 8473TIP3    H225384   6.853   4.681   3.186
 8474TIP3   OH225385   6.891   1.645   2.821
 8474TIP3    H125386   6.965   1.649   2.881
 8474TIP3    H225387   6.843   1.727   2.836
 8475TIP3   OH225388   2.702   5.117   2.013
 8475TIP3    H125389   2.608   5.135   2.016
 8475TIP3    H225390   2.709   5.034   1.966
 8476TIP3   OH225391   0.793   4.675   5.077
 8476TIP3    H125392   0.845   4.666   4.997
 8476TIP3    H225393   0.759   4.587   5.094
 8477TIP3   OH225394   5.407   5.081   3.548
 8477TIP3    H125395   5.477   5.133   3.510
 8477TIP3    H225396   5.434   5.069   3.640
 8478TIP3   OH225397   2.491   5.215   3.824
 8478TIP3    H125398   2.483   5.280   3.894
 8478TIP3    H225399   2.585   5.198   3.818
 8479TIP3   OH225400   2.810   0.981   5.869
 8479TIP3    H125401   2.853   0.911   5.919
 8479TIP3    H225402   2.769   0.936   5.796
 8480TIP3   OH225403   2.066   6.295   0.345
 8480TIP3    H125404   1.991   6.253   0.302
 8480TIP3    H225405   2.058   6.388   0.322
 8481TIP3   OH225406   4.176   1.899   4.688
 8481TIP3    H125407   4.222   1.962   4.633
 8481TIP3    H225408   4.133   1.952   4.755
 8482TIP3   OH225409   2.493   6.143   5.476
 8482TIP3    H125410   2.572   6.094   5.499
 8482TIP3    H225411   2.525   6.212   5.418
 8483TIP3   OH225412   1.739   3.387   2.618
 8483TIP3    H125413   1.716   3.463   2.672
 8483TIP3    H225414   1.777   3.325   2.679
 8484TIP3   OH225415   5.684   1.612   4.690
 8484TIP3    H125416   5.589   1.620   4.678
 8484TIP3    H225417   5.719   1.599   4.602
 8485TIP3   OH225418   3.058   3.970   5.066
 8485TIP3    H125419   3.023   4.031   5.002
 8485TIP3    H225420   3.141   4.009   5.094
 8486TIP3   OH225421   0.410   4.658   5.007
 8486TIP3    H125422   0.482   4.721   5.014
 8486TIP3    H225423   0.405   4.618   5.093
 8487TIP3   OH225424   6.958   5.482   4.480
 8487TIP3    H125425   7.028   5.452   4.422
 8487TIP3    H225426   6.884   5.424   4.462
 8488TIP3   OH225427   0.232   5.625   2.564
 8488TIP3    H125428   0.234   5.684   2.488
 8488TIP3    H225429   0.234   5.538   2.526
 8489TIP3   OH225430   4.154   5.315   0.146
 8489TIP3    H125431   4.075   5.270   0.117
 8489TIP3    H225432   4.166   5.386   0.084
 8490TIP3   OH225433   4.562   1.395   2.734
 8490TIP3    H125434   4.511   1.317   2.756
 8490TIP3    H225435   4.543   1.410   2.641
 8491TIP3   OH225436   5.795   2.057   4.167
 8491TIP3    H125437   5.720   2.036   4.112
 8491TIP3    H225438   5.821   1.973   4.206
 8492TIP3   OH225439   6.197   3.187   2.734
 8492TIP3    H125440   6.246   3.232   2.665
 8492TIP3    H225441   6.263   3.137   2.781
 8493TIP3   OH225442   5.388   3.073   3.122
 8493TIP3    H125443   5.371   3.075   3.028
 8493TIP3    H225444   5.322   3.132   3.159
 8494TIP3   OH225445   3.431   1.511   5.243
 8494TIP3    H125446   3.441   1.422   5.278
 8494TIP3    H225447   3.388   1.498   5.159
 8495TIP3   OH225448   1.033   4.370   5.659
 8495TIP3    H125449   0.988   4.421   5.726
 8495TIP3    H225450   1.102   4.428   5.627
 8496TIP3   OH225451   1.260   4.549   4.040
 8496TIP3    H125452   1.306   4.614   3.987
 8496TIP3    H225453   1.263   4.583   4.129
 8497TIP3   OH225454   6.308   1.040   0.229
 8497TIP3    H125455   6.402   1.054   0.241
 8497TIP3    H225456   6.301   0.993   0.147
 8498TIP3   OH225457   0.132   1.971   0.291
 8498TIP3    H125458   0.192   1.962   0.365
 8498TIP3    H225459   0.057   1.917   0.314
 8499TIP3   OH225460   6.962   5.231   3.828
 8499TIP3    H125461   6.933   5.141   3.813
 8499TIP3    H225462   7.024   5.225   3.901
 8500TIP3   OH225463   5.106   1.404   1.759
 8500TIP3    H125464   5.089   1.344   1.831
 8500TIP3    H225465   5.160   1.354   1.697
 8501TIP3   OH225466   3.764   5.769   1.141
 8501TIP3    H125467   3.760   5.675   1.125
 8501TIP3    H225468   3.678   5.802   1.116
 8502TIP3   OH225469   1.198   0.282   1.218
 8502TIP3    H125470   1.103   0.295   1.222
 8502TIP3    H225471   1.217   0.226   1.293
 8503TIP3   OH225472   0.660   6.440   2.219
 8503TIP3    H125473   0.592   6.473   2.277
 8503TIP3    H225474   0.733   6.501   2.229
 8504TIP3   OH225475   6.834   3.993   0.203
 8504TIP3    H125476   6.848   4.066   0.263
 8504TIP3    H225477   6.912   3.938   0.214
 8505TIP3   OH225478   5.594   3.047   5.653
 8505TIP3    H125479   5.643   3.040   5.735
 8505TIP3    H225480   5.644   2.994   5.590
 8506TIP3   OH225481   3.466   1.720   4.553
 8506TIP3    H125482   3.438   1.670   4.476
 8506TIP3    H225483   3.427   1.806   4.542
 8507TIP3   OH225484   3.023   6.560   1.402
 8507TIP3    H125485   3.026   6.621   1.476
 8507TIP3    H225486   2.940   6.513   1.413
 8508TIP3   OH225487   0.019   4.374   4.470
 8508TIP3    H125488  -0.019   4.323   4.542
 8508TIP3    H225489   0.107   4.396   4.500
 8509TIP3   OH225490   1.366   2.122   0.853
 8509TIP3    H125491   1.413   2.123   0.936
 8509TIP3    H225492   1.328   2.034   0.848
 8510TIP3   OH225493   1.753   4.667   3.637
 8510TIP3    H125494   1.720   4.748   3.677
 8510TIP3    H225495   1.714   4.597   3.688
 8511TIP3   OH225496   2.961   6.167   2.692
 8511TIP3    H125497   2.903   6.200   2.761
 8511TIP3    H225498   2.914   6.187   2.611
 8512TIP3   OH225499   5.077   5.405   1.565
 8512TIP3    H125500   5.021   5.332   1.590
 8512TIP3    H225501   5.081   5.401   1.470
 8513TIP3   OH225502   1.557   5.138   5.565
 8513TIP3    H125503   1.589   5.205   5.626
 8513TIP3    H225504   1.463   5.131   5.584
 8514TIP3   OH225505   1.883   3.163   0.012
 8514TIP3    H125506   1.947   3.180   0.081
 8514TIP3    H225507   1.798   3.175   0.054
 8515TIP3   OH225508   6.707   4.189   3.383
 8515TIP3    H125509   6.645   4.212   3.452
 8515TIP3    H225510   6.739   4.102   3.407
 8516TIP3   OH225511   2.883   3.178   1.558
 8516TIP3    H125512   2.969   3.219   1.548
 8516TIP3    H225513   2.899   3.104   1.617
 8517TIP3   OH225514   1.319   2.604   2.991
 8517TIP3    H125515   1.364   2.521   2.977
 8517TIP3    H225516   1.373   2.650   3.055
 8518TIP3   OH225517   5.481   5.887   3.338
 8518TIP3    H125518   5.477   5.956   3.403
 8518TIP3    H225519   5.574   5.863   3.334
 8519TIP3   OH225520   5.252   3.124   2.156
 8519TIP3    H125521   5.284   3.152   2.241
 8519TIP3    H225522   5.247   3.028   2.163
 8520TIP3   OH225523   3.680   3.610   5.656
 8520TIP3    H125524   3.595   3.652   5.645
 8520TIP3    H225525   3.724   3.661   5.723
 8521TIP3   OH225526   3.063   3.048   3.176
 8521TIP3    H125527   3.072   3.129   3.227
 8521TIP3    H225528   3.107   3.066   3.093
 8522TIP3   OH225529   4.329   0.637   0.824
 8522TIP3    H125530   4.400   0.676   0.774
 8522TIP3    H225531   4.371   0.571   0.878
 8523TIP3   OH225532   0.294   2.298   2.137
 8523TIP3    H125533   0.258   2.327   2.053
 8523TIP3    H225534   0.300   2.377   2.190
 8524TIP3   OH225535   3.828   5.422   3.341
 8524TIP3    H125536   3.902   5.412   3.281
 8524TIP3    H225537   3.839   5.510   3.378
 8525TIP3   OH225538   6.539   3.816   0.699
 8525TIP3    H125539   6.562   3.819   0.792
 8525TIP3    H225540   6.567   3.901   0.665
 8526TIP3   OH225541   2.111   6.002   3.520
 8526TIP3    H125542   2.031   5.952   3.504
 8526TIP3    H225543   2.088   6.092   3.498
 8527TIP3   OH225544   1.837   1.931   5.644
 8527TIP3    H125545   1.809   1.949   5.555
 8527TIP3    H225546   1.845   1.836   5.649
 8528TIP3   OH225547   2.650   5.909   0.307
 8528TIP3    H125548   2.733   5.914   0.258
 8528TIP3    H225549   2.623   5.818   0.298
 8529TIP3   OH225550   5.899   3.997   4.457
 8529TIP3    H125551   5.967   3.991   4.524
 8529TIP3    H225552   5.844   3.920   4.470
 8530TIP3   OH225553   2.649   2.891   5.007
 8530TIP3    H125554   2.586   2.911   5.076
 8530TIP3    H225555   2.735   2.904   5.049
 8531TIP3   OH225556   1.380   3.576   4.226
 8531TIP3    H125557   1.337   3.545   4.147
 8531TIP3    H225558   1.470   3.542   4.219
 8532TIP3   OH225559   3.413   5.482   2.964
 8532TIP3    H125560   3.404   5.575   2.943
 8532TIP3    H225561   3.446   5.481   3.053
 8533TIP3   OH225562  -0.015   5.940   4.658
 8533TIP3    H125563   0.009   6.029   4.684
 8533TIP3    H225564  -0.076   5.911   4.725
 8534TIP3   OH225565   6.013   3.626   1.212
 8534TIP3    H125566   6.061   3.684   1.271
 8534TIP3    H225567   6.079   3.595   1.150
 8535TIP3   OH225568   6.983   4.733   3.946
 8535TIP3    H125569   6.902   4.754   3.993
 8535TIP3    H225570   7.020   4.660   3.995
 8536TIP3   OH225571   0.941   4.532   4.258
 8536TIP3    H125572   1.035   4.541   4.245
 8536TIP3    H225573   0.932   4.461   4.321
 8537TIP3   OH225574   6.254   1.411   1.752
 8537TIP3    H125575   6.192   1.456   1.810
 8537TIP3    H225576   6.198   1.362   1.692
 8538TIP3   OH225577   3.567   1.678   5.080
 8538TIP3    H125578   3.574   1.619   5.005
 8538TIP3    H225579   3.507   1.633   5.140
 8539TIP3   OH225580   0.786   3.877   3.672
 8539TIP3    H125581   0.782   3.841   3.760
 8539TIP3    H225582   0.726   3.823   3.621
 8540TIP3   OH225583   1.330   0.922   1.490
 8540TIP3    H125584   1.234   0.919   1.481
 8540TIP3    H225585   1.355   0.830   1.499
 8541TIP3   OH225586   0.750   3.222   3.038
 8541TIP3    H125587   0.734   3.131   3.061
 8541TIP3    H225588   0.739   3.270   3.120
 8542TIP3   OH225589   5.416   2.558   2.274
 8542TIP3    H125590   5.483   2.490   2.280
 8542TIP3    H225591   5.417   2.586   2.183
 8543TIP3   OH225592   0.798   6.530   5.198
 8543TIP3    H125593   0.703   6.523   5.192
 8543TIP3    H225594   0.818   6.504   5.288
 8544TIP3   OH225595   6.414   2.559   5.592
 8544TIP3    H125596   6.337   2.591   5.639
 8544TIP3    H225597   6.388   2.474   5.557
 8545TIP3   OH225598   6.877   4.883   0.402
 8545TIP3    H125599   6.946   4.945   0.427
 8545TIP3    H225600   6.805   4.938   0.371
 8546TIP3   OH225601   3.513   3.437   1.177
 8546TIP3    H125602   3.447   3.504   1.156
 8546TIP3    H225603   3.595   3.486   1.186
 8547TIP3   OH225604   4.356   2.710   1.713
 8547TIP3    H125605   4.263   2.733   1.713
 8547TIP3    H225606   4.360   2.629   1.763
 8548TIP3   OH225607   4.715   6.081   1.674
 8548TIP3    H125608   4.760   6.021   1.614
 8548TIP3    H225609   4.637   6.033   1.702
 8549TIP3   OH225610   5.694   1.764   3.836
 8549TIP3    H125611   5.710   1.687   3.891
 8549TIP3    H225612   5.650   1.730   3.759
 8550TIP3   OH225613   0.104   3.629   0.826
 8550TIP3    H125614   0.111   3.720   0.800
 8550TIP3    H225615   0.065   3.632   0.914
 8551TIP3   OH225616   3.059   4.668   4.460
 8551TIP3    H125617   3.013   4.590   4.429
 8551TIP3    H225618   3.021   4.685   4.546
 8552TIP3   OH225619   0.729   5.072   0.970
 8552TIP3    H125620   0.664   5.047   0.904
 8552TIP3    H225621   0.698   5.029   1.050
 8553TIP3   OH225622   4.945   2.984   5.477
 8553TIP3    H125623   4.905   2.906   5.515
 8553TIP3    H225624   5.038   2.963   5.469
 8554TIP3   OH225625   0.593   3.486   1.863
 8554TIP3    H125626   0.670   3.497   1.918
 8554TIP3    H225627   0.520   3.514   1.918
 8555TIP3   OH225628   2.284   2.756   3.768
 8555TIP3    H125629   2.245   2.821   3.711
 8555TIP3    H225630   2.298   2.680   3.712
 8556TIP3   OH225631   5.208   4.716   1.333
 8556TIP3    H125632   5.227   4.768   1.255
 8556TIP3    H225633   5.113   4.726   1.345
 8557TIP3   OH225634   1.371   4.182   5.691
 8557TIP3    H125635   1.341   4.129   5.764
 8557TIP3    H225636   1.358   4.127   5.614
 8558TIP3   OH225637   5.720   5.280   3.765
 8558TIP3    H125638   5.720   5.231   3.847
 8558TIP3    H225639   5.783   5.351   3.780
 8559TIP3   OH225640   5.596   0.500   2.043
 8559TIP3    H125641   5.614   0.529   1.954
 8559TIP3    H225642   5.527   0.435   2.035
 8560TIP3   OH225643   1.081   4.946   4.980
 8560TIP3    H125644   1.046   4.999   5.051
 8560TIP3    H225645   1.124   4.873   5.024
 8561TIP3   OH225646   1.147   5.676   2.399
 8561TIP3    H125647   1.220   5.624   2.367
 8561TIP3    H225648   1.139   5.748   2.337
 8562TIP3   OH225649   0.817   6.358   0.463
 8562TIP3    H125650   0.869   6.388   0.537
 8562TIP3    H225651   0.795   6.267   0.484
 8563TIP3   OH225652   4.045   5.962   1.526
 8563TIP3    H125653   4.006   5.889   1.478
 8563TIP3    H225654   4.021   6.040   1.475
 8564TIP3   OH225655   5.223   2.313   2.076
 8564TIP3    H125656   5.297   2.253   2.078
 8564TIP3    H225657   5.154   2.264   2.032
 8565TIP3   OH225658   6.568   2.059   0.622
 8565TIP3    H125659   6.492   2.026   0.670
 8565TIP3    H225660   6.540   2.061   0.531
 8566TIP3   OH225661   6.391   5.007   0.399
 8566TIP3    H125662   6.469   5.061   0.410
 8566TIP3    H225663   6.396   4.942   0.469
 8567TIP3   OH225664   4.595   5.285   5.320
 8567TIP3    H125665   4.500   5.287   5.321
 8567TIP3    H225666   4.620   5.252   5.406
 8568TIP3   OH225667   2.637   5.051   5.428
 8568TIP3    H125668   2.636   5.146   5.437
 8568TIP3    H225669   2.717   5.032   5.379
 8569TIP3   OH225670   4.180   2.374   2.158
 8569TIP3    H125671   4.218   2.286   2.166
 8569TIP3    H225672   4.246   2.432   2.194
 8570TIP3   OH225673   2.633   0.068   0.949
 8570TIP3    H125674   2.678   0.106   0.874
 8570TIP3    H225675   2.630   0.138   1.014
 8571TIP3   OH225676   6.776   4.640   0.212
 8571TIP3    H125677   6.748   4.626   0.121
 8571TIP3    H225678   6.793   4.734   0.217
 8572TIP3   OH225679   2.262   2.592   3.030
 8572TIP3    H125680   2.213   2.520   2.990
 8572TIP3    H225681   2.344   2.595   2.981
 8573TIP3   OH225682   2.804   3.180   2.220
 8573TIP3    H125683   2.886   3.217   2.254
 8573TIP3    H225684   2.749   3.257   2.203
 8574TIP3   OH225685   4.031   1.572   3.593
 8574TIP3    H125686   4.023   1.620   3.675
 8574TIP3    H225687   3.985   1.490   3.607
 8575TIP3   OH225688   3.491   5.653   4.026
 8575TIP3    H125689   3.421   5.622   3.968
 8575TIP3    H225690   3.493   5.747   4.014
 8576TIP3   OH225691   6.364   4.761   5.146
 8576TIP3    H125692   6.337   4.712   5.224
 8576TIP3    H225693   6.363   4.696   5.076
 8577TIP3   OH225694   4.879   0.570   4.348
 8577TIP3    H125695   4.853   0.627   4.275
 8577TIP3    H225696   4.972   0.556   4.335
 8578TIP3   OH225697   2.779   4.967   2.700
 8578TIP3    H125698   2.866   4.991   2.668
 8578TIP3    H225699   2.719   5.010   2.639
 8579TIP3   OH225700   0.350   3.425   2.948
 8579TIP3    H125701   0.440   3.448   2.968
 8579TIP3    H225702   0.354   3.333   2.922
 8580TIP3   OH225703   6.653   0.668   4.016
 8580TIP3    H125704   6.621   0.675   3.926
 8580TIP3    H225705   6.588   0.614   4.060
 8581TIP3   OH225706   1.835   0.627   0.667
 8581TIP3    H125707   1.828   0.553   0.728
 8581TIP3    H225708   1.880   0.695   0.717
 8582TIP3   OH225709   3.763   4.260   1.999
 8582TIP3    H125710   3.714   4.343   2.007
 8582TIP3    H225711   3.712   4.197   2.050
 8583TIP3   OH225712   2.260   0.347   4.923
 8583TIP3    H125713   2.308   0.305   4.852
 8583TIP3    H225714   2.250   0.279   4.989
 8584TIP3   OH225715   5.329   4.679   2.994
 8584TIP3    H125716   5.321   4.765   3.036
 8584TIP3    H225717   5.305   4.617   3.063
 8585TIP3   OH225718   6.557   2.722   3.440
 8585TIP3    H125719   6.500   2.665   3.390
 8585TIP3    H225720   6.566   2.801   3.387
 8586TIP3   OH225721   4.470   1.953   0.611
 8586TIP3    H125722   4.397   1.909   0.655
 8586TIP3    H225723   4.509   2.008   0.679
 8587TIP3   OH225724   1.985   1.675   0.048
 8587TIP3    H125725   2.000   1.769   0.051
 8587TIP3    H225726   2.045   1.644  -0.021
 8588TIP3   OH225727   6.497   1.458   3.163
 8588TIP3    H125728   6.442   1.424   3.093
 8588TIP3    H225729   6.587   1.446   3.132
 8589TIP3   OH225730   7.112   2.258   3.636
 8589TIP3    H125731   7.100   2.262   3.541
 8589TIP3    H225732   7.198   2.296   3.651
 8590TIP3   OH225733   5.244   1.074   4.282
 8590TIP3    H125734   5.246   1.168   4.268
 8590TIP3    H225735   5.295   1.037   4.209
 8591TIP3   OH225736   7.006   3.984   4.832
 8591TIP3    H125737   6.919   3.945   4.842
 8591TIP3    H225738   6.993   4.078   4.845
 8592TIP3   OH225739   4.443   0.161   3.953
 8592TIP3    H125740   4.530   0.128   3.929
 8592TIP3    H225741   4.461   0.233   4.014
 8593TIP3   OH225742   4.291   4.511   0.893
 8593TIP3    H125743   4.254   4.486   0.809
 8593TIP3    H225744   4.259   4.600   0.908
 8594TIP3   OH225745   0.739   4.391   4.858
 8594TIP3    H125746   0.698   4.309   4.832
 8594TIP3    H225747   0.739   4.389   4.953
 8595TIP3   OH225748   6.011   3.872   2.314
 8595TIP3    H125749   6.019   3.906   2.403
 8595TIP3    H225750   5.920   3.842   2.308
 8596TIP3   OH225751   7.263   3.711   3.012
 8596TIP3    H125752   7.192   3.648   3.022
 8596TIP3    H225753   7.221   3.797   3.016
 8597TIP3   OH225754   1.838   2.840   0.995
 8597TIP3    H125755   1.790   2.874   0.920
 8597TIP3    H225756   1.838   2.912   1.058
 8598TIP3   OH225757   6.002   5.356   3.852
 8598TIP3    H125758   5.965   5.417   3.915
 8598TIP3    H225759   6.084   5.326   3.892
 8599TIP3   OH225760   1.932   5.447   1.025
 8599TIP3    H125761   1.846   5.472   0.990
 8599TIP3    H225762   1.914   5.370   1.079
 8600TIP3   OH225763   2.372   2.742   1.660
 8600TIP3    H125764   2.405   2.828   1.687
 8600TIP3    H225765   2.371   2.691   1.741
 8601TIP3   OH225766   3.147   3.039   2.912
 8601TIP3    H125767   3.167   3.096   2.837
 8601TIP3    H225768   3.142   2.951   2.875
 8602TIP3   OH225769   2.003   5.260   4.862
 8602TIP3    H125770   1.919   5.261   4.817
 8602TIP3    H225771   2.067   5.241   4.793
 8603TIP3   OH225772   6.029   0.116   3.719
 8603TIP3    H125773   6.060   0.058   3.649
 8603TIP3    H225774   5.938   0.089   3.734
 8604TIP3   OH225775   4.771   3.888   1.203
 8604TIP3    H125776   4.809   3.896   1.291
 8604TIP3    H225777   4.773   3.795   1.184
 8605TIP3   OH225778   1.816   0.496   4.493
 8605TIP3    H125779   1.883   0.564   4.489
 8605TIP3    H225780   1.774   0.498   4.407
 8606TIP3   OH225781   1.514   2.449   1.712
 8606TIP3    H125782   1.421   2.433   1.698
 8606TIP3    H225783   1.517   2.515   1.782
 8607TIP3   OH225784   1.580   2.694   1.031
 8607TIP3    H125785   1.652   2.749   1.000
 8607TIP3    H225786   1.594   2.610   0.988
 8608TIP3   OH225787   2.370   4.546   2.865
 8608TIP3    H125788   2.426   4.623   2.860
 8608TIP3    H225789   2.285   4.576   2.833
 8609TIP3   OH225790   1.565   4.821   0.417
 8609TIP3    H125791   1.560   4.884   0.490
 8609TIP3    H225792   1.603   4.742   0.456
 8610TIP3   OH225793   2.567   4.806   0.966
 8610TIP3    H125794   2.594   4.877   1.025
 8610TIP3    H225795   2.493   4.843   0.918
 8611TIP3   OH225796   4.816   2.100   3.849
 8611TIP3    H125797   4.881   2.049   3.898
 8611TIP3    H225798   4.860   2.122   3.767
 8612TIP3   OH225799   6.680   6.162   2.234
 8612TIP3    H125800   6.728   6.090   2.194
 8612TIP3    H225801   6.589   6.132   2.237
 8613TIP3   OH225802   2.967   6.745   2.846
 8613TIP3    H125803   3.031   6.752   2.775
 8613TIP3    H225804   2.988   6.818   2.904
 8614TIP3   OH225805   0.640   4.847   2.129
 8614TIP3    H125806   0.616   4.780   2.064
 8614TIP3    H225807   0.676   4.797   2.202
 8615TIP3   OH225808   3.823   1.702   2.279
 8615TIP3    H125809   3.812   1.709   2.373
 8615TIP3    H225810   3.906   1.655   2.268
 8616TIP3   OH225811   3.451   0.136   4.185
 8616TIP3    H125812   3.488   0.048   4.187
 8616TIP3    H225813   3.499   0.181   4.116
 8617TIP3   OH225814   6.232   5.320   3.989
 8617TIP3    H125815   6.265   5.264   4.059
 8617TIP3    H225816   6.297   5.313   3.919
 8618TIP3   OH225817   6.405   6.281   3.779
 8618TIP3    H125818   6.496   6.276   3.808
 8618TIP3    H225819   6.393   6.372   3.751
 8619TIP3   OH225820   5.113   2.570   3.215
 8619TIP3    H125821   5.037   2.582   3.158
 8619TIP3    H225822   5.188   2.564   3.155
 8620TIP3   OH225823   2.973   5.628   4.680
 8620TIP3    H125824   3.019   5.616   4.763
 8620TIP3    H225825   3.014   5.706   4.641
 8621TIP3   OH225826   6.540   1.594   0.472
 8621TIP3    H125827   6.580   1.680   0.458
 8621TIP3    H225828   6.583   1.560   0.551
 8622TIP3   OH225829   5.875   6.325   3.505
 8622TIP3    H125830   5.836   6.300   3.588
 8622TIP3    H225831   5.940   6.257   3.487
 8623TIP3   OH225832   2.456   0.554   1.843
 8623TIP3    H125833   2.526   0.574   1.905
 8623TIP3    H225834   2.501   0.512   1.769
 8624TIP3   OH225835   4.885   2.804   3.434
 8624TIP3    H125836   4.962   2.856   3.457
 8624TIP3    H225837   4.883   2.733   3.498
 8625TIP3   OH225838   6.311   3.272   1.774
 8625TIP3    H125839   6.356   3.223   1.705
 8625TIP3    H225840   6.238   3.216   1.799
 8626TIP3   OH225841   4.110   3.354   4.342
 8626TIP3    H125842   4.077   3.434   4.299
 8626TIP3    H225843   4.037   3.324   4.396
 8627TIP3   OH225844   4.977   3.526   0.617
 8627TIP3    H125845   4.966   3.498   0.527
 8627TIP3    H225846   5.004   3.617   0.611
 8628TIP3   OH225847   6.998   0.185   5.336
 8628TIP3    H125848   6.941   0.177   5.413
 8628TIP3    H225849   6.956   0.132   5.269
 8629TIP3   OH225850   6.972   6.571   3.792
 8629TIP3    H125851   6.946   6.621   3.715
 8629TIP3    H225852   7.039   6.625   3.834
 8630TIP3   OH225853   6.235   5.617   5.066
 8630TIP3    H125854   6.255   5.664   4.985
 8630TIP3    H225855   6.286   5.537   5.060
 8631TIP3   OH225856   6.592   6.675   3.767
 8631TIP3    H125857   6.535   6.606   3.733
 8631TIP3    H225858   6.622   6.722   3.690
 8632TIP3   OH225859   4.586   2.141   2.054
 8632TIP3    H125860   4.579   2.191   2.135
 8632TIP3    H225861   4.668   2.172   2.014
 8633TIP3   OH225862   1.118   2.936   1.585
 8633TIP3    H125863   1.171   2.858   1.571
 8633TIP3    H225864   1.109   2.942   1.680
 8634TIP3   OH225865   3.224   0.598   2.823
 8634TIP3    H125866   3.170   0.551   2.886
 8634TIP3    H225867   3.311   0.600   2.862
 8635TIP3   OH225868   2.971   0.136   4.109
 8635TIP3    H125869   2.939   0.226   4.112
 8635TIP3    H225870   3.050   0.137   4.164
 8636TIP3   OH225871   4.318   4.724   2.715
 8636TIP3    H125872   4.353   4.638   2.735
 8636TIP3    H225873   4.223   4.712   2.716
 8637TIP3   OH225874   2.689   0.918   5.418
 8637TIP3    H125875   2.642   1.000   5.423
 8637TIP3    H225876   2.622   0.852   5.398
 8638TIP3   OH225877   5.727   0.871   1.949
 8638TIP3    H125878   5.700   0.962   1.941
 8638TIP3    H225879   5.761   0.864   2.038
 8639TIP3   OH225880   4.845   0.613   3.769
 8639TIP3    H125881   4.804   0.528   3.787
 8639TIP3    H225882   4.889   0.637   3.851
 8640TIP3   OH225883   5.404   3.618   2.096
 8640TIP3    H125884   5.474   3.593   2.157
 8640TIP3    H225885   5.394   3.541   2.040
 8641TIP3   OH225886   5.389   4.072   0.382
 8641TIP3    H125887   5.360   4.052   0.470
 8641TIP3    H225888   5.347   4.006   0.327
 8642TIP3   OH225889   6.787   2.554   2.673
 8642TIP3    H125890   6.804   2.648   2.674
 8642TIP3    H225891   6.793   2.527   2.764
 8643TIP3   OH225892   2.803   4.253   2.117
 8643TIP3    H125893   2.833   4.172   2.159
 8643TIP3    H225894   2.768   4.306   2.189
 8644TIP3   OH225895   7.100   4.103   5.710
 8644TIP3    H125896   7.148   4.070   5.634
 8644TIP3    H225897   7.058   4.183   5.679
 8645TIP3   OH225898   1.153   3.000   2.066
 8645TIP3    H125899   1.137   3.094   2.072
 8645TIP3    H225900   1.066   2.960   2.065
 8646TIP3   OH225901   4.913   1.879   4.015
 8646TIP3    H125902   4.818   1.872   4.006
 8646TIP3    H225903   4.946   1.793   3.992
 8647TIP3   OH225904   6.864   5.566   0.105
 8647TIP3    H125905   6.846   5.548   0.012
 8647TIP3    H225906   6.882   5.660   0.108
 8648TIP3   OH225907   4.266   3.365   2.226
 8648TIP3    H125908   4.344   3.402   2.186
 8648TIP3    H225909   4.219   3.323   2.154
 8649TIP3   OH225910   4.952   6.056   0.153
 8649TIP3    H125911   4.929   6.137   0.109
 8649TIP3    H225912   4.972   5.995   0.082
 8650TIP3   OH225913   6.485   4.705   2.303
 8650TIP3    H125914   6.569   4.692   2.259
 8650TIP3    H225915   6.507   4.739   2.389
 8651TIP3   OH225916   1.656   2.461   0.233
 8651TIP3    H125917   1.669   2.376   0.273
 8651TIP3    H225918   1.606   2.512   0.298
 8652TIP3   OH225919   0.233   1.698   4.042
 8652TIP3    H125920   0.190   1.657   4.118
 8652TIP3    H225921   0.275   1.626   3.996
 8653TIP3   OH225922   4.175   1.224   4.621
 8653TIP3    H125923   4.182   1.244   4.714
 8653TIP3    H225924   4.104   1.280   4.590
 8654TIP3   OH225925   1.976   1.946   3.103
 8654TIP3    H125926   2.019   2.003   3.167
 8654TIP3    H225927   1.931   1.880   3.156
 8655TIP3   OH225928   5.456   4.518   3.912
 8655TIP3    H125929   5.403   4.552   3.985
 8655TIP3    H225930   5.439   4.424   3.912
 8656TIP3   OH225931   0.396  -0.039   1.784
 8656TIP3    H125932   0.476   0.005   1.811
 8656TIP3    H225933   0.351  -0.060   1.866
 8657TIP3   OH225934   6.684   3.665   4.361
 8657TIP3    H125935   6.702   3.629   4.448
 8657TIP3    H225936   6.761   3.644   4.309
 8658TIP3   OH225937   2.949   0.782   4.543
 8658TIP3    H125938   2.911   0.865   4.572
 8658TIP3    H225939   2.875   0.736   4.503
 8659TIP3   OH225940   1.857   1.659   5.642
 8659TIP3    H125941   1.933   1.606   5.661
 8659TIP3    H225942   1.796   1.642   5.714
 8660TIP3   OH225943   0.287   6.081   3.150
 8660TIP3    H125944   0.263   6.017   3.083
 8660TIP3    H225945   0.206   6.127   3.170
 8661TIP3   OH225946   2.142   2.153   4.694
 8661TIP3    H125947   2.233   2.159   4.725
 8661TIP3    H225948   2.112   2.068   4.725
 8662TIP3   OH225949   7.056   5.639   4.702
 8662TIP3    H125950   7.027   5.730   4.697
 8662TIP3    H225951   7.015   5.597   4.626
 8663TIP3   OH225952   2.343   1.997   5.359
 8663TIP3    H125953   2.400   2.048   5.302
 8663TIP3    H225954   2.394   1.919   5.381
 8664TIP3   OH225955   3.400   3.407   4.503
 8664TIP3    H125956   3.361   3.342   4.445
 8664TIP3    H225957   3.399   3.367   4.590
 8665TIP3   OH225958   1.508   0.456   3.811
 8665TIP3    H125959   1.576   0.473   3.877
 8665TIP3    H225960   1.520   0.364   3.788
 8666TIP3   OH225961   3.649   0.127   0.118
 8666TIP3    H125962   3.560   0.154   0.140
 8666TIP3    H225963   3.683   0.197   0.063
 8667TIP3   OH225964   1.400   0.198   1.966
 8667TIP3    H125965   1.492   0.218   1.949
 8667TIP3    H225966   1.381   0.243   2.049
 8668TIP3   OH225967   0.110   2.875   1.231
 8668TIP3    H125968   0.179   2.912   1.177
 8668TIP3    H225969   0.126   2.780   1.229
 8669TIP3   OH225970   4.638   5.668   3.874
 8669TIP3    H125971   4.669   5.686   3.785
 8669TIP3    H225972   4.716   5.643   3.922
 8670TIP3   OH225973   1.899   0.900   0.297
 8670TIP3    H125974   1.981   0.905   0.247
 8670TIP3    H225975   1.852   0.826   0.259
 8671TIP3   OH225976   4.167   2.470   2.800
 8671TIP3    H125977   4.186   2.556   2.763
 8671TIP3    H225978   4.203   2.474   2.889
 8672TIP3   OH225979   6.229   0.443   2.359
 8672TIP3    H125980   6.257   0.533   2.373
 8672TIP3    H225981   6.234   0.431   2.264
 8673TIP3   OH225982   4.280   1.112   3.386
 8673TIP3    H125983   4.364   1.101   3.341
 8673TIP3    H225984   4.299   1.171   3.458
 8674TIP3   OH225985   1.268   3.477   0.365
 8674TIP3    H125986   1.361   3.472   0.345
 8674TIP3    H225987   1.253   3.409   0.430
 8675TIP3   OH225988   3.108   6.021   3.409
 8675TIP3    H125989   3.114   5.926   3.395
 8675TIP3    H225990   3.062   6.054   3.332
 8676TIP3   OH225991   6.239   5.330   0.998
 8676TIP3    H125992   6.260   5.237   1.003
 8676TIP3    H225993   6.246   5.361   1.088
 8677TIP3   OH225994   1.115   1.399   5.031
 8677TIP3    H125995   1.190   1.428   4.979
 8677TIP3    H225996   1.153   1.339   5.095
 8678TIP3   OH225997   0.793   3.160   3.633
 8678TIP3    H125998   0.698   3.170   3.632
 8678TIP3    H225999   0.812   3.101   3.560
 8679TIP3   OH226000   3.764   5.504   1.731
 8679TIP3    H126001   3.695   5.552   1.777
 8679TIP3    H226002   3.766   5.418   1.772
 8680TIP3   OH226003   1.258   2.567   4.529
 8680TIP3    H126004   1.278   2.589   4.620
 8680TIP3    H226005   1.177   2.517   4.533
 8681TIP3   OH226006   7.088   1.119   3.668
 8681TIP3    H126007   7.073   1.208   3.636
 8681TIP3    H226008   7.005   1.094   3.708
 8682TIP3   OH226009   2.434   5.860   1.672
 8682TIP3    H126010   2.457   5.892   1.585
 8682TIP3    H226011   2.508   5.888   1.727
 8683TIP3   OH226012   3.099   3.933   4.202
 8683TIP3    H126013   3.007   3.908   4.194
 8683TIP3    H226014   3.119   3.921   4.295
 8684TIP3   OH226015   2.889   0.648   2.338
 8684TIP3    H126016   2.837   0.639   2.417
 8684TIP3    H226017   2.949   0.573   2.340
 8685TIP3   OH226018   4.011   3.517   1.581
 8685TIP3    H126019   4.009   3.454   1.653
 8685TIP3    H226020   4.022   3.602   1.624
 8686TIP3   OH226021   1.764   5.536   3.580
 8686TIP3    H126022   1.716   5.614   3.609
 8686TIP3    H226023   1.805   5.502   3.659
 8687TIP3   OH226024   0.667   0.755   1.016
 8687TIP3    H126025   0.586   0.806   1.026
 8687TIP3    H226026   0.678   0.746   0.922
 8688TIP3   OH226027   1.195   0.083   1.411
 8688TIP3    H126028   1.258   0.012   1.407
 8688TIP3    H226029   1.148   0.069   1.493
 8689TIP3   OH226030   0.541   4.934   2.530
 8689TIP3    H126031   0.599   4.975   2.466
 8689TIP3    H226032   0.537   4.842   2.504
 8690TIP3   OH226033   1.204   5.042   2.151
 8690TIP3    H126034   1.223   4.965   2.098
 8690TIP3    H226035   1.109   5.039   2.163
 8691TIP3   OH226036   5.547   0.450   5.462
 8691TIP3    H126037   5.453   0.438   5.452
 8691TIP3    H226038   5.584   0.420   5.379
 8692TIP3   OH226039   4.887   6.141   2.890
 8692TIP3    H126040   4.798   6.122   2.920
 8692TIP3    H226041   4.922   6.203   2.955
 8693TIP3   OH226042   1.494   4.266   0.044
 8693TIP3    H126043   1.584   4.237   0.032
 8693TIP3    H226044   1.479   4.330  -0.026
 8694TIP3   OH226045   2.382   0.344   2.230
 8694TIP3    H126046   2.445   0.416   2.234
 8694TIP3    H226047   2.408   0.285   2.301
 8695TIP3   OH226048   2.146   4.916   4.582
 8695TIP3    H126049   2.118   4.826   4.565
 8695TIP3    H226050   2.166   4.951   4.495
 8696TIP3   OH226051   0.988   4.937   1.368
 8696TIP3    H126052   1.029   4.895   1.443
 8696TIP3    H226053   1.027   5.025   1.366
 8697TIP3   OH226054   0.748   1.494   3.823
 8697TIP3    H126055   0.792   1.481   3.739
 8697TIP3    H226056   0.670   1.440   3.818
 8698TIP3   OH226057   3.236   2.452   4.198
 8698TIP3    H126058   3.179   2.388   4.157
 8698TIP3    H226059   3.179   2.528   4.213
 8699TIP3   OH226060   3.649   1.970   0.496
 8699TIP3    H126061   3.625   1.884   0.462
 8699TIP3    H226062   3.630   1.964   0.590
 8700TIP3   OH226063   6.305   0.054   2.296
 8700TIP3    H126064   6.347   0.115   2.356
 8700TIP3    H226065   6.289   0.106   2.216
 8701TIP3   OH226066   3.688   0.340   2.815
 8701TIP3    H126067   3.696   0.255   2.772
 8701TIP3    H226068   3.600   0.341   2.852
 8702TIP3   OH226069   3.897   5.876   3.901
 8702TIP3    H126070   3.873   5.784   3.889
 8702TIP3    H226071   3.907   5.910   3.812
 8703TIP3   OH226072   6.042   6.774   3.222
 8703TIP3    H126073   6.082   6.694   3.187
 8703TIP3    H226074   5.952   6.771   3.192
 8704TIP3   OH226075   1.648   1.042   2.385
 8704TIP3    H126076   1.620   1.118   2.333
 8704TIP3    H226077   1.724   1.073   2.434
 8705TIP3   OH226078   1.651   5.514   0.986
 8705TIP3    H126079   1.566   5.517   1.030
 8705TIP3    H226080   1.648   5.433   0.934
 8706TIP3   OH226081   0.362   2.793   2.170
 8706TIP3    H126082   0.275   2.819   2.201
 8706TIP3    H226083   0.422   2.858   2.206
 8707TIP3   OH226084   5.967   5.342   0.053
 8707TIP3    H126085   6.035   5.383   0.000
 8707TIP3    H226086   5.968   5.390   0.136
 8708TIP3   OH226087   6.981   6.412   3.280
 8708TIP3    H126088   6.981   6.333   3.225
 8708TIP3    H226089   7.063   6.409   3.328
 8709TIP3   OH226090   0.660   0.971   4.160
 8709TIP3    H126091   0.659   1.066   4.153
 8709TIP3    H226092   0.596   0.942   4.094
 8710TIP3   OH226093   0.867   4.635   2.036
 8710TIP3    H126094   0.841   4.545   2.017
 8710TIP3    H226095   0.862   4.641   2.131
 8711TIP3   OH226096   6.373   5.592   1.963
 8711TIP3    H126097   6.280   5.571   1.957
 8711TIP3    H226098   6.416   5.527   1.907
 8712TIP3   OH226099   5.588   0.830   4.904
 8712TIP3    H126100   5.621   0.860   4.820
 8712TIP3    H226101   5.665   0.794   4.949
 8713TIP3   OH226102   4.647   4.737   2.387
 8713TIP3    H126103   4.559   4.765   2.362
 8713TIP3    H226104   4.633   4.670   2.454
 8714TIP3   OH226105   6.807   6.410   1.892
 8714TIP3    H126106   6.822   6.503   1.909
 8714TIP3    H226107   6.818   6.368   1.977
 8715TIP3   OH226108   1.409   4.945   3.563
 8715TIP3    H126109   1.340   4.988   3.615
 8715TIP3    H226110   1.409   4.993   3.480
 8716TIP3   OH226111   4.747   1.194   2.563
 8716TIP3    H126112   4.728   1.149   2.481
 8716TIP3    H226113   4.676   1.168   2.622
 8717TIP3   OH226114   3.029   4.186   5.478
 8717TIP3    H126115   3.030   4.256   5.543
 8717TIP3    H226116   3.119   4.155   5.473
 8718TIP3   OH226117   6.901   3.082   4.043
 8718TIP3    H126118   6.946   3.155   4.087
 8718TIP3    H226119   6.968   3.045   3.984
 8719TIP3   OH226120   5.711   1.981   1.123
 8719TIP3    H126121   5.806   1.995   1.115
 8719TIP3    H226122   5.699   1.950   1.213
 8720TIP3   OH226123   2.908   1.443   5.257
 8720TIP3    H126124   2.872   1.375   5.313
 8720TIP3    H226125   2.860   1.434   5.174
 8721TIP3   OH226126   1.657   5.923   5.705
 8721TIP3    H126127   1.613   6.007   5.719
 8721TIP3    H226128   1.626   5.868   5.776
 8722TIP3   OH226129   4.963   2.974   4.268
 8722TIP3    H126130   4.991   3.016   4.350
 8722TIP3    H226131   5.023   3.009   4.202
 8723TIP3   OH226132   5.648   5.847   0.167
 8723TIP3    H126133   5.696   5.922   0.133
 8723TIP3    H226134   5.562   5.881   0.190
 8724TIP3   OH226135   4.824   2.039   0.287
 8724TIP3    H126136   4.823   1.957   0.337
 8724TIP3    H226137   4.737   2.077   0.303
 8725TIP3   OH226138   1.852   2.529   3.354
 8725TIP3    H126139   1.937   2.536   3.310
 8725TIP3    H226140   1.788   2.561   3.290
 8726TIP3   OH226141   0.048   1.495   0.520
 8726TIP3    H126142   0.023   1.409   0.485
 8726TIP3    H226143  -0.020   1.515   0.584
 8727TIP3   OH226144   0.351   0.215   4.137
 8727TIP3    H126145   0.272   0.173   4.103
 8727TIP3    H226146   0.420   0.151   4.123
 8728TIP3   OH226147   0.855   2.305   5.215
 8728TIP3    H126148   0.884   2.250   5.143
 8728TIP3    H226149   0.805   2.375   5.173
 8729TIP3   OH226150   0.790   1.172   3.395
 8729TIP3    H126151   0.714   1.149   3.340
 8729TIP3    H226152   0.863   1.125   3.355
 8730TIP3   OH226153  -0.037   6.742   4.335
 8730TIP3    H126154  -0.076   6.816   4.289
 8730TIP3    H226155   0.043   6.778   4.375
 8731TIP3   OH226156   6.525   4.245   5.236
 8731TIP3    H126157   6.432   4.231   5.217
 8731TIP3    H226158   6.526   4.323   5.292
 8732TIP3   OH226159   6.460   5.712   3.849
 8732TIP3    H126160   6.467   5.804   3.873
 8732TIP3    H226161   6.550   5.687   3.825
 8733TIP3   OH226162   3.767   1.621   4.865
 8733TIP3    H126163   3.782   1.685   4.934
 8733TIP3    H226164   3.812   1.542   4.896
 8734TIP3   OH226165   3.496   4.751   0.536
 8734TIP3    H126166   3.412   4.769   0.578
 8734TIP3    H226167   3.486   4.663   0.499
 8735TIP3   OH226168   0.702   3.680   5.423
 8735TIP3    H126169   0.646   3.710   5.352
 8735TIP3    H226170   0.641   3.655   5.492
 8736TIP3   OH226171   4.009   2.936   4.332
 8736TIP3    H126172   4.034   2.869   4.395
 8736TIP3    H226173   3.913   2.933   4.332
 8737TIP3   OH226174   5.685   0.544   3.741
 8737TIP3    H126175   5.683   0.638   3.757
 8737TIP3    H226176   5.776   0.519   3.755
 8738TIP3   OH226177   5.420   2.776   5.320
 8738TIP3    H126178   5.482   2.707   5.343
 8738TIP3    H226179   5.382   2.748   5.237
 8739TIP3   OH226180   2.632   0.448   4.855
 8739TIP3    H126181   2.725   0.424   4.865
 8739TIP3    H226182   2.615   0.436   4.762
 8740TIP3   OH226183   2.733   1.110   3.427
 8740TIP3    H126184   2.737   1.205   3.430
 8740TIP3    H226185   2.693   1.085   3.510
 8741TIP3   OH226186   1.161   5.960   2.801
 8741TIP3    H126187   1.159   5.874   2.758
 8741TIP3    H226188   1.070   5.989   2.801
 8742TIP3   OH226189   5.184   2.483   4.698
 8742TIP3    H126190   5.170   2.539   4.622
 8742TIP3    H226191   5.133   2.405   4.680
 8743TIP3   OH226192   3.422   2.942   3.114
 8743TIP3    H126193   3.355   2.968   3.051
 8743TIP3    H226194   3.378   2.880   3.173
 8744TIP3   OH226195   1.938   5.819   3.421
 8744TIP3    H126196   1.844   5.823   3.436
 8744TIP3    H226197   1.949   5.753   3.352
 8745TIP3   OH226198   5.418   2.669   4.105
 8745TIP3    H126199   5.440   2.576   4.109
 8745TIP3    H226200   5.488   2.712   4.153
 8746TIP3   OH226201   2.431   2.584   1.252
 8746TIP3    H126202   2.518   2.619   1.231
 8746TIP3    H226203   2.424   2.504   1.201
 8747TIP3   OH226204   4.473   5.895   2.976
 8747TIP3    H126205   4.441   5.826   3.034
 8747TIP3    H226206   4.396   5.919   2.924
 8748TIP3   OH226207   3.453   0.892   4.718
 8748TIP3    H126208   3.477   0.816   4.770
 8748TIP3    H226209   3.358   0.892   4.717
 8749TIP3   OH226210   6.093   5.293   2.245
 8749TIP3    H126211   6.050   5.255   2.169
 8749TIP3    H226212   6.186   5.299   2.220
 8750TIP3   OH226213   5.172   2.702   1.743
 8750TIP3    H126214   5.149   2.662   1.827
 8750TIP3    H226215   5.105   2.671   1.683
 8751TIP3   OH226216   3.949   6.087   2.775
 8751TIP3    H126217   3.944   6.140   2.696
 8751TIP3    H226218   3.911   6.003   2.751
 8752TIP3   OH226219   4.125   1.904   4.282
 8752TIP3    H126220   4.158   1.932   4.367
 8752TIP3    H226221   4.203   1.875   4.234
 8753TIP3   OH226222   5.843   0.098   1.618
 8753TIP3    H126223   5.938   0.098   1.629
 8753TIP3    H226224   5.825   0.024   1.560
 8754TIP3   OH226225   6.234   0.200   5.837
 8754TIP3    H126226   6.174   0.142   5.790
 8754TIP3    H226227   6.178   0.251   5.895
 8755TIP3   OH226228   4.985   3.450   0.265
 8755TIP3    H126229   4.906   3.445   0.320
 8755TIP3    H226230   5.026   3.533   0.291
 8756TIP3   OH226231   7.156   3.142   5.279
 8756TIP3    H126232   7.131   3.069   5.222
 8756TIP3    H226233   7.077   3.162   5.329
 8757TIP3   OH226234   4.890   6.499   0.905
 8757TIP3    H126235   4.959   6.542   0.854
 8757TIP3    H226236   4.928   6.489   0.993
 8758TIP3   OH226237   4.081   5.340   3.176
 8758TIP3    H126238   4.106   5.433   3.178
 8758TIP3    H226239   4.163   5.294   3.160
 8759TIP3   OH226240   2.020   1.344   3.101
 8759TIP3    H126241   2.072   1.281   3.151
 8759TIP3    H226242   1.932   1.307   3.100
 8760TIP3   OH226243   4.900   6.581   4.772
 8760TIP3    H126244   4.831   6.517   4.792
 8760TIP3    H226245   4.866   6.664   4.805
 8761TIP3   OH226246   6.956   2.333   4.206
 8761TIP3    H126247   6.912   2.416   4.226
 8761TIP3    H226248   6.919   2.306   4.121
 8762TIP3   OH226249   4.763   6.439   2.977
 8762TIP3    H126250   4.759   6.497   2.901
 8762TIP3    H226251   4.681   6.389   2.974
 8763TIP3   OH226252   4.386   2.695   5.105
 8763TIP3    H126253   4.326   2.693   5.031
 8763TIP3    H226254   4.444   2.769   5.088
 8764TIP3   OH226255   3.448   0.187   3.671
 8764TIP3    H126256   3.359   0.221   3.679
 8764TIP3    H226257   3.444   0.099   3.711
 8765TIP3   OH226258   2.409   5.573   1.827
 8765TIP3    H126259   2.363   5.644   1.782
 8765TIP3    H226260   2.500   5.582   1.797
 8766TIP3   OH226261   0.001   0.103   4.988
 8766TIP3    H126262   0.029   0.084   4.898
 8766TIP3    H226263   0.033   0.191   5.005
 8767TIP3   OH226264   6.509   6.615   1.953
 8767TIP3    H126265   6.501   6.689   2.013
 8767TIP3    H226266   6.526   6.539   2.010
 8768TIP3   OH226267   6.735   3.535   2.784
 8768TIP3    H126268   6.785   3.454   2.788
 8768TIP3    H226269   6.791   3.599   2.828
 8769TIP3   OH226270   1.062   1.362   2.090
 8769TIP3    H126271   0.986   1.396   2.137
 8769TIP3    H226272   1.083   1.280   2.134
 8770TIP3   OH226273   7.125   1.770   1.880
 8770TIP3    H126274   7.186   1.841   1.896
 8770TIP3    H226275   7.125   1.720   1.961
 8771TIP3   OH226276   0.534   3.439   2.627
 8771TIP3    H126277   0.498   3.422   2.540
 8771TIP3    H226278   0.491   3.375   2.684
 8772TIP3   OH226279   3.713   1.466   0.862
 8772TIP3    H126280   3.700   1.410   0.938
 8772TIP3    H226281   3.625   1.485   0.829
 8773TIP3   OH226282   2.210   0.821   5.339
 8773TIP3    H126283   2.193   0.916   5.337
 8773TIP3    H226284   2.257   0.804   5.258
 8774TIP3   OH226285   4.265   3.448   1.254
 8774TIP3    H126286   4.210   3.371   1.267
 8774TIP3    H226287   4.329   3.422   1.189
 8775TIP3   OH226288   7.117   1.896   3.108
 8775TIP3    H126289   7.206   1.913   3.077
 8775TIP3    H226290   7.096   1.810   3.074
 8776TIP3   OH226291   3.181   0.371   5.196
 8776TIP3    H126292   3.204   0.418   5.276
 8776TIP3    H226293   3.182   0.279   5.220
 8777TIP3   OH226294   0.868   4.266   2.039
 8777TIP3    H126295   0.801   4.327   2.006
 8777TIP3    H226296   0.911   4.233   1.960
 8778TIP3   OH226297   5.328   2.326   1.821
 8778TIP3    H126298   5.352   2.254   1.763
 8778TIP3    H226299   5.378   2.311   1.901
 8779TIP3   OH226300   6.157   1.841   3.423
 8779TIP3    H126301   6.135   1.892   3.345
 8779TIP3    H226302   6.156   1.905   3.494
 8780TIP3   OH226303   6.993   5.804   5.740
 8780TIP3    H126304   6.940   5.785   5.818
 8780TIP3    H226305   7.071   5.749   5.750
 8781TIP3   OH226306   0.587   1.600   0.834
 8781TIP3    H126307   0.604   1.506   0.833
 8781TIP3    H226308   0.492   1.607   0.846
 8782TIP3   OH226309   1.758   6.731   2.141
 8782TIP3    H126310   1.797   6.711   2.226
 8782TIP3    H226311   1.714   6.815   2.154
 8783TIP3   OH226312   4.327   1.562   2.279
 8783TIP3    H126313   4.334   1.647   2.321
 8783TIP3    H226314   4.372   1.501   2.338
 8784TIP3   OH226315   4.066   2.716   2.011
 8784TIP3    H126316   4.020   2.644   2.056
 8784TIP3    H226317   4.157   2.706   2.037
 8785TIP3   OH226318   2.927   6.136   5.116
 8785TIP3    H126319   2.928   6.040   5.119
 8785TIP3    H226320   3.019   6.161   5.104
 8786TIP3   OH226321   5.983   6.085   3.776
 8786TIP3    H126322   6.016   6.096   3.687
 8786TIP3    H226323   6.030   6.008   3.809
 8787TIP3   OH226324   6.831   0.985   0.081
 8787TIP3    H126325   6.845   1.046   0.153
 8787TIP3    H226326   6.901   1.004   0.019
 8788TIP3   OH226327   1.950   6.314   1.996
 8788TIP3    H126328   2.016   6.286   2.059
 8788TIP3    H226329   1.867   6.282   2.032
 8789TIP3   OH226330   4.100   1.460   3.260
 8789TIP3    H126331   4.154   1.522   3.309
 8789TIP3    H226332   4.033   1.514   3.219
 8790TIP3   OH226333   6.342   6.019   3.293
 8790TIP3    H126334   6.334   6.067   3.375
 8790TIP3    H226335   6.436   6.020   3.274
 8791TIP3   OH226336   1.976   1.773   5.283
 8791TIP3    H126337   2.039   1.742   5.348
 8791TIP3    H226338   2.029   1.816   5.216
 8792TIP3   OH226339   4.536   3.124   4.334
 8792TIP3    H126340   4.605   3.093   4.274
 8792TIP3    H226341   4.577   3.123   4.420
 8793TIP3   OH226342   6.590   5.480   3.608
 8793TIP3    H126343   6.585   5.553   3.546
 8793TIP3    H226344   6.636   5.517   3.684
 8794TIP3   OH226345   4.488   3.990   5.587
 8794TIP3    H126346   4.422   4.013   5.522
 8794TIP3    H226347   4.498   3.895   5.580
 8795TIP3   OH226348   7.234   5.633   5.689
 8795TIP3    H126349   7.275   5.564   5.742
 8795TIP3    H226350   7.238   5.599   5.599
 8796TIP3   OH226351   3.348   4.705   4.814
 8796TIP3    H126352   3.319   4.628   4.764
 8796TIP3    H226353   3.424   4.674   4.862
 8797TIP3   OH226354   0.712   4.815   0.261
 8797TIP3    H126355   0.660   4.803   0.341
 8797TIP3    H226356   0.708   4.910   0.244
 8798TIP3   OH226357   1.676   2.203   0.384
 8798TIP3    H126358   1.693   2.120   0.339
 8798TIP3    H226359   1.618   2.180   0.456
 8799TIP3   OH226360   6.016   2.970   1.817
 8799TIP3    H126361   5.934   3.001   1.778
 8799TIP3    H226362   6.002   2.977   1.911
 8800TIP3   OH226363   1.258   2.275   2.410
 8800TIP3    H126364   1.223   2.205   2.355
 8800TIP3    H226365   1.209   2.267   2.492
 8801TIP3   OH226366   1.477   5.662   1.749
 8801TIP3    H126367   1.422   5.645   1.673
 8801TIP3    H226368   1.495   5.575   1.784
 8802TIP3   OH226369   7.105   4.933   2.694
 8802TIP3    H126370   7.136   4.958   2.607
 8802TIP3    H226371   7.029   4.877   2.678
 8803TIP3   OH226372   1.005   2.490   4.589
 8803TIP3    H126373   0.951   2.446   4.656
 8803TIP3    H226374   0.980   2.582   4.595
 8804TIP3   OH226375   2.587   0.281   3.952
 8804TIP3    H126376   2.658   0.225   3.922
 8804TIP3    H226377   2.606   0.296   4.045
 8805TIP3   OH226378   3.609   2.702   3.895
 8805TIP3    H126379   3.670   2.689   3.823
 8805TIP3    H226380   3.544   2.632   3.884
 8806TIP3   OH226381   5.978   4.131   2.143
 8806TIP3    H126382   5.987   4.220   2.179
 8806TIP3    H226383   6.063   4.090   2.160
 8807TIP3   OH226384   2.844   5.371   2.588
 8807TIP3    H126385   2.929   5.372   2.633
 8807TIP3    H226386   2.852   5.298   2.525
 8808TIP3   OH226387   6.595   5.729   4.110
 8808TIP3    H126388   6.580   5.647   4.064
 8808TIP3    H226389   6.630   5.788   4.043
 8809TIP3   OH226390   2.873   5.161   2.250
 8809TIP3    H126391   2.809   5.180   2.182
 8809TIP3    H226392   2.931   5.095   2.211
 8810TIP3   OH226393   2.540   1.813   2.132
 8810TIP3    H126394   2.581   1.815   2.218
 8810TIP3    H226395   2.536   1.720   2.109
 8811TIP3   OH226396   2.979   0.353   1.380
 8811TIP3    H126397   2.926   0.348   1.459
 8811TIP3    H226398   2.951   0.278   1.327
 8812TIP3   OH226399   5.658   0.291   0.327
 8812TIP3    H126400   5.706   0.239   0.392
 8812TIP3    H226401   5.726   0.326   0.269
 8813TIP3   OH226402   0.133   3.138   1.970
 8813TIP3    H126403   0.096   3.197   1.903
 8813TIP3    H226404   0.133   3.191   2.050
 8814TIP3   OH226405   1.659   4.040   1.290
 8814TIP3    H126406   1.750   4.061   1.270
 8814TIP3    H226407   1.664   3.963   1.346
 8815TIP3   OH226408   6.447   0.993   5.084
 8815TIP3    H126409   6.478   0.985   4.993
 8815TIP3    H226410   6.527   1.000   5.135
 8816TIP3   OH226411   6.326   4.462   2.082
 8816TIP3    H126412   6.420   4.480   2.081
 8816TIP3    H226413   6.317   4.390   2.146
 8817TIP3   OH226414   1.501   6.313   3.277
 8817TIP3    H126415   1.573   6.375   3.270
 8817TIP3    H226416   1.481   6.310   3.371
 8818TIP3   OH226417   3.708   5.556   5.068
 8818TIP3    H126418   3.651   5.479   5.070
 8818TIP3    H226419   3.796   5.521   5.053
 8819TIP3   OH226420   0.748   3.772   2.883
 8819TIP3    H126421   0.777   3.803   2.968
 8819TIP3    H226422   0.826   3.730   2.845
 8820TIP3   OH226423   0.080   2.776   2.734
 8820TIP3    H126424   0.040   2.690   2.749
 8820TIP3    H226425   0.110   2.772   2.643
 8821TIP3   OH226426   3.539   6.506   4.637
 8821TIP3    H126427   3.564   6.433   4.580
 8821TIP3    H226428   3.452   6.532   4.606
 8822TIP3   OH226429   0.787   4.397   5.134
 8822TIP3    H126430   0.872   4.356   5.118
 8822TIP3    H226431   0.769   4.379   5.226
 8823TIP3   OH226432   4.860   0.454   4.944
 8823TIP3    H126433   4.907   0.449   4.861
 8823TIP3    H226434   4.848   0.548   4.959
 8824TIP3   OH226435   3.409   5.874   0.711
 8824TIP3    H126436   3.406   5.967   0.732
 8824TIP3    H226437   3.322   5.855   0.674
 8825TIP3   OH226438   4.118   2.678   0.182
 8825TIP3    H126439   4.032   2.718   0.178
 8825TIP3    H226440   4.119   2.630   0.265
 8826TIP3   OH226441   5.175   2.523   5.544
 8826TIP3    H126442   5.189   2.471   5.465
 8826TIP3    H226443   5.257   2.572   5.556
 8827TIP3   OH226444   3.324   3.598   3.199
 8827TIP3    H126445   3.321   3.669   3.262
 8827TIP3    H226446   3.276   3.632   3.123
 8828TIP3   OH226447   0.252   0.619   0.785
 8828TIP3    H126448   0.345   0.617   0.760
 8828TIP3    H226449   0.212   0.549   0.733
 8829TIP3   OH226450   3.564   0.413   1.767
 8829TIP3    H126451   3.523   0.363   1.696
 8829TIP3    H226452   3.520   0.382   1.846
 8830TIP3   OH226453   4.404   3.112   0.866
 8830TIP3    H126454   4.477   3.061   0.833
 8830TIP3    H226455   4.358   3.142   0.788
 8831TIP3   OH226456   4.480   4.994   4.056
 8831TIP3    H126457   4.498   4.971   4.147
 8831TIP3    H226458   4.543   5.063   4.036
 8832TIP3   OH226459   1.179   5.314   5.280
 8832TIP3    H126460   1.153   5.394   5.235
 8832TIP3    H226461   1.187   5.340   5.372
 8833TIP3   OH226462   0.064   6.493   2.003
 8833TIP3    H126463   0.082   6.528   2.090
 8833TIP3    H226464   0.122   6.416   1.996
 8834TIP3   OH226465   2.082   6.707   2.989
 8834TIP3    H126466   2.083   6.800   2.969
 8834TIP3    H226467   2.157   6.693   3.047
 8835TIP3   OH226468   2.800   0.068   0.501
 8835TIP3    H126469   2.753  -0.006   0.463
 8835TIP3    H226470   2.890   0.056   0.473
 8836TIP3   OH226471   4.194   5.822   4.881
 8836TIP3    H126472   4.120   5.836   4.941
 8836TIP3    H226473   4.271   5.836   4.935
 8837TIP3   OH226474   3.033   4.089   0.160
 8837TIP3    H126475   3.068   4.001   0.175
 8837TIP3    H226476   3.013   4.091   0.066
 8838TIP3   OH226477   3.339   3.298   3.497
 8838TIP3    H126478   3.413   3.356   3.518
 8838TIP3    H226479   3.291   3.291   3.579
 8839TIP3   OH226480   0.734   5.581   3.967
 8839TIP3    H126481   0.769   5.601   3.880
 8839TIP3    H226482   0.799   5.617   4.027
 8840TIP3   OH226483   6.921   0.405   2.308
 8840TIP3    H126484   6.909   0.442   2.220
 8840TIP3    H226485   6.837   0.419   2.352
 8841TIP3   OH226486   4.893   0.790   2.535
 8841TIP3    H126487   4.909   0.700   2.564
 8841TIP3    H226488   4.924   0.845   2.607
 8842TIP3   OH226489   5.610   0.826   3.781
 8842TIP3    H126490   5.698   0.853   3.755
 8842TIP3    H226491   5.579   0.896   3.838
 8843TIP3   OH226492   2.947   4.439   1.943
 8843TIP3    H126493   2.900   4.386   2.008
 8843TIP3    H226494   2.983   4.375   1.882
 8844TIP3   OH226495   3.657   2.982   3.888
 8844TIP3    H126496   3.660   2.888   3.907
 8844TIP3    H226497   3.563   3.003   3.889
 8845TIP3   OH226498   4.679   5.827   0.457
 8845TIP3    H126499   4.678   5.861   0.546
 8845TIP3    H226500   4.713   5.899   0.404
 8846TIP3   OH226501   6.916   1.936   5.320
 8846TIP3    H126502   6.883   1.892   5.242
 8846TIP3    H226503   6.938   2.024   5.290
 8847TIP3   OH226504   4.919   4.942   0.392
 8847TIP3    H126505   5.012   4.941   0.413
 8847TIP3    H226506   4.879   4.884   0.457
 8848TIP3   OH226507   1.955   5.113   1.696
 8848TIP3    H126508   1.956   5.074   1.783
 8848TIP3    H226509   2.037   5.163   1.691
 8849TIP3   OH226510   3.329   3.857   1.610
 8849TIP3    H126511   3.281   3.922   1.661
 8849TIP3    H226512   3.378   3.807   1.676
 8850TIP3   OH226513   0.766   5.112   0.336
 8850TIP3    H126514   0.835   5.056   0.301
 8850TIP3    H226515   0.805   5.150   0.415
 8851TIP3   OH226516   3.961   2.764   4.080
 8851TIP3    H126517   3.952   2.823   4.154
 8851TIP3    H226518   4.016   2.693   4.112
 8852TIP3   OH226519   3.598   4.392   2.362
 8852TIP3    H126520   3.529   4.427   2.419
 8852TIP3    H226521   3.554   4.326   2.309
 8853TIP3   OH226522   1.213   3.587   3.432
 8853TIP3    H126523   1.234   3.532   3.508
 8853TIP3    H226524   1.179   3.668   3.469
 8854TIP3   OH226525   5.752   1.723   1.846
 8854TIP3    H126526   5.821   1.670   1.806
 8854TIP3    H226527   5.694   1.660   1.887
 8855TIP3   OH226528   5.952   0.210   5.768
 8855TIP3    H126529   5.952   0.208   5.672
 8855TIP3    H226530   5.896   0.284   5.791
 8856TIP3   OH226531   0.475   6.014   5.711
 8856TIP3    H126532   0.498   5.985   5.622
 8856TIP3    H226533   0.503   6.106   5.714
 8857TIP3   OH226534   3.157   0.861   4.704
 8857TIP3    H126535   3.093   0.813   4.651
 8857TIP3    H226536   3.116   0.869   4.790
 8858TIP3   OH226537   1.660   3.185   4.343
 8858TIP3    H126538   1.736   3.202   4.399
 8858TIP3    H226539   1.636   3.094   4.363
 8859TIP3   OH226540   6.673   4.326   4.820
 8859TIP3    H126541   6.692   4.380   4.898
 8859TIP3    H226542   6.617   4.256   4.853
 8860TIP3   OH226543   5.138   5.035   3.577
 8860TIP3    H126544   5.226   5.072   3.567
 8860TIP3    H226545   5.080   5.111   3.579
 8861TIP3   OH226546   3.770   4.553   1.608
 8861TIP3    H126547   3.696   4.511   1.653
 8861TIP3    H226548   3.833   4.483   1.594
 8862TIP3   OH226549   1.063   6.610   3.965
 8862TIP3    H126550   1.005   6.540   3.996
 8862TIP3    H226551   1.111   6.637   4.043
 8863TIP3   OH226552   4.027   3.266   2.575
 8863TIP3    H126553   4.063   3.334   2.519
 8863TIP3    H226554   4.099   3.244   2.635
 8864TIP3   OH226555   6.247   4.208   2.513
 8864TIP3    H126556   6.253   4.231   2.420
 8864TIP3    H226557   6.314   4.140   2.525
 8865TIP3   OH226558   1.084   3.725   1.152
 8865TIP3    H126559   1.029   3.658   1.192
 8865TIP3    H226560   1.029   3.803   1.150
 8866TIP3   OH226561   4.414   3.237   0.354
 8866TIP3    H126562   4.477   3.176   0.317
 8866TIP3    H226563   4.374   3.280   0.278
 8867TIP3   OH226564   1.868   1.452   5.388
 8867TIP3    H126565   1.867   1.543   5.417
 8867TIP3    H226566   1.840   1.401   5.464
 8868TIP3   OH226567   5.580   5.603   4.380
 8868TIP3    H126568   5.608   5.526   4.329
 8868TIP3    H226569   5.546   5.663   4.314
 8869TIP3   OH226570   6.846   3.099   2.644
 8869TIP3    H126571   6.814   3.046   2.716
 8869TIP3    H226572   6.902   3.040   2.593
 8870TIP3   OH226573   3.205   5.276   2.001
 8870TIP3    H126574   3.214   5.190   2.042
 8870TIP3    H226575   3.171   5.332   2.070
 8871TIP3   OH226576   3.079   3.907   5.712
 8871TIP3    H126577   3.055   3.999   5.718
 8871TIP3    H226578   3.155   3.898   5.770
 8872TIP3   OH226579   6.118   1.778   1.115
 8872TIP3    H126580   6.109   1.873   1.123
 8872TIP3    H226581   6.063   1.743   1.185
 8873TIP3   OH226582   5.729   6.543   3.769
 8873TIP3    H126583   5.716   6.448   3.776
 8873TIP3    H226584   5.820   6.556   3.795
 8874TIP3   OH226585   2.330   5.963   3.690
 8874TIP3    H126586   2.341   6.058   3.695
 8874TIP3    H226587   2.257   5.951   3.628
 8875TIP3   OH226588   5.582   5.580   1.701
 8875TIP3    H126589   5.581   5.561   1.607
 8875TIP3    H226590   5.516   5.521   1.738
 8876TIP3   OH226591   5.097   4.918   3.835
 8876TIP3    H126592   5.114   4.826   3.818
 8876TIP3    H226593   5.113   4.961   3.751
 8877TIP3   OH226594   4.302   2.739   2.195
 8877TIP3    H126595   4.291   2.834   2.183
 8877TIP3    H226596   4.396   2.725   2.181
 8878TIP3   OH226597   3.007   2.493   2.384
 8878TIP3    H126598   3.079   2.448   2.340
 8878TIP3    H226599   3.046   2.575   2.415
 8879TIP3   OH226600   5.901   0.955   1.510
 8879TIP3    H126601   5.915   0.970   1.603
 8879TIP3    H226602   5.889   0.861   1.502
 8880TIP3   OH226603   1.806   5.203   3.206
 8880TIP3    H126604   1.831   5.240   3.121
 8880TIP3    H226605   1.880   5.148   3.231
 8881TIP3   OH226606   1.336   0.346   5.169
 8881TIP3    H126607   1.255   0.313   5.131
 8881TIP3    H226608   1.326   0.441   5.167
 8882TIP3   OH226609   4.833   0.907   2.115
 8882TIP3    H126610   4.898   0.873   2.178
 8882TIP3    H226611   4.884   0.927   2.037
 8883TIP3   OH226612   6.081   1.125   5.544
 8883TIP3    H126613   6.136   1.176   5.484
 8883TIP3    H226614   6.141   1.063   5.584
 8884TIP3   OH226615   4.471   1.582   5.420
 8884TIP3    H126616   4.450   1.496   5.384
 8884TIP3    H226617   4.554   1.570   5.465
 8885TIP3   OH226618   1.652   5.669   3.249
 8885TIP3    H126619   1.727   5.616   3.279
 8885TIP3    H226620   1.693   5.744   3.207
 8886TIP3   OH226621   3.284   4.451   1.110
 8886TIP3    H126622   3.295   4.426   1.201
 8886TIP3    H226623   3.372   4.471   1.079
 8887TIP3   OH226624   6.260   0.163   2.902
 8887TIP3    H126625   6.186   0.191   2.849
 8887TIP3    H226626   6.335   0.168   2.843
 8888TIP3   OH226627   4.276   4.773   0.210
 8888TIP3    H126628   4.304   4.765   0.119
 8888TIP3    H226629   4.221   4.697   0.226
 8889TIP3   OH226630   6.845   6.596   5.766
 8889TIP3    H126631   6.841   6.502   5.784
 8889TIP3    H226632   6.791   6.606   5.687
 8890TIP3   OH226633   4.847   0.120   3.139
 8890TIP3    H126634   4.885   0.205   3.161
 8890TIP3    H226635   4.776   0.108   3.202
 8891TIP3   OH226636   0.989   3.073   5.692
 8891TIP3    H126637   0.922   3.005   5.683
 8891TIP3    H226638   0.986   3.097   5.785
 8892TIP3   OH226639   3.362   2.428   0.274
 8892TIP3    H126640   3.419   2.387   0.208
 8892TIP3    H226641   3.274   2.417   0.239
 8893TIP3   OH226642   5.354   0.810   1.320
 8893TIP3    H126643   5.297   0.884   1.339
 8893TIP3    H226644   5.430   0.822   1.378
 8894TIP3   OH226645   5.134   5.463   1.300
 8894TIP3    H126646   5.123   5.521   1.225
 8894TIP3    H226647   5.149   5.377   1.262
 8895TIP3   OH226648   1.736   5.203   0.213
 8895TIP3    H126649   1.651   5.221   0.171
 8895TIP3    H226650   1.793   5.178   0.140
 8896TIP3   OH226651   1.956   1.966   3.755
 8896TIP3    H126652   1.992   1.924   3.677
 8896TIP3    H226653   2.026   2.024   3.785
 8897TIP3   OH226654   0.264   4.480   2.436
 8897TIP3    H126655   0.353   4.516   2.438
 8897TIP3    H226656   0.231   4.495   2.525
 8898TIP3   OH226657   2.316   3.950   3.162
 8898TIP3    H126658   2.358   4.028   3.127
 8898TIP3    H226659   2.377   3.879   3.142
 8899TIP3   OH226660   0.152   5.783   4.518
 8899TIP3    H126661   0.166   5.851   4.452
 8899TIP3    H226662   0.109   5.827   4.590
 8900TIP3   OH226663   4.930   5.179   4.209
 8900TIP3    H126664   4.949   5.086   4.193
 8900TIP3    H226665   4.925   5.185   4.305
 8901TIP3   OH226666   6.210   6.554   5.168
 8901TIP3    H126667   6.275   6.587   5.230
 8901TIP3    H226668   6.144   6.623   5.164
 8902TIP3   OH226669   0.319   3.886   4.849
 8902TIP3    H126670   0.386   3.884   4.780
 8902TIP3    H226671   0.239   3.915   4.804
 8903TIP3   OH226672   2.834   1.780   1.976
 8903TIP3    H126673   2.752   1.731   1.967
 8903TIP3    H226674   2.895   1.718   2.016
 8904TIP3   OH226675   2.500   2.587   0.485
 8904TIP3    H126676   2.574   2.530   0.464
 8904TIP3    H226677   2.541   2.670   0.510
 8905TIP3   OH226678   5.213   2.233   4.136
 8905TIP3    H126679   5.239   2.236   4.044
 8905TIP3    H226680   5.201   2.140   4.155
 8906TIP3   OH226681   4.829   3.670   3.114
 8906TIP3    H126682   4.878   3.704   3.189
 8906TIP3    H226683   4.870   3.711   3.038
 8907TIP3   OH226684   3.958   4.177   4.202
 8907TIP3    H126685   3.930   4.094   4.164
 8907TIP3    H226686   4.052   4.166   4.216
 8908TIP3   OH226687   6.218   2.903   5.133
 8908TIP3    H126688   6.194   2.832   5.074
 8908TIP3    H226689   6.276   2.959   5.081
 8909TIP3   OH226690   2.798   1.777   4.205
 8909TIP3    H126691   2.892   1.768   4.196
 8909TIP3    H226692   2.783   1.785   4.299
 8910TIP3   OH226693   0.899   3.072   1.548
 8910TIP3    H126694   0.980   3.021   1.551
 8910TIP3    H226695   0.888   3.105   1.637
 8911TIP3   OH226696   5.722   3.457   2.830
 8911TIP3    H126697   5.813   3.443   2.807
 8911TIP3    H226698   5.701   3.384   2.889
 8912TIP3   OH226699   3.278   5.472   1.358
 8912TIP3    H126700   3.190   5.455   1.325
 8912TIP3    H226701   3.265   5.506   1.446
 8913TIP3   OH226702   5.156   2.353   3.683
 8913TIP3    H126703   5.136   2.414   3.612
 8913TIP3    H226704   5.247   2.372   3.706
 8914TIP3   OH226705   0.682   4.618   3.732
 8914TIP3    H126706   0.687   4.635   3.638
 8914TIP3    H226707   0.774   4.615   3.760
 8915TIP3   OH226708   3.763   4.230   5.361
 8915TIP3    H126709   3.673   4.221   5.391
 8915TIP3    H226710   3.764   4.190   5.274
 8916TIP3   OH226711   0.069   3.705   3.995
 8916TIP3    H126712   0.164   3.695   3.983
 8916TIP3    H226713   0.039   3.748   3.915
 8917TIP3   OH226714   2.690   5.708   1.016
 8917TIP3    H126715   2.595   5.715   1.005
 8917TIP3    H226716   2.704   5.615   1.033
 8918TIP3   OH226717   0.193   2.579   3.241
 8918TIP3    H126718   0.214   2.615   3.328
 8918TIP3    H226719   0.207   2.652   3.181
 8919TIP3   OH226720   0.445   0.784   5.775
 8919TIP3    H126721   0.406   0.871   5.771
 8919TIP3    H226722   0.537   0.798   5.750
 8920TIP3   OH226723   5.555   5.821   4.195
 8920TIP3    H126724   5.577   5.867   4.113
 8920TIP3    H226725   5.474   5.863   4.224
 8921TIP3   OH226726   1.179   2.848   5.312
 8921TIP3    H126727   1.247   2.785   5.334
 8921TIP3    H226728   1.111   2.833   5.377
 8922TIP3   OH226729   6.058   6.033   3.085
 8922TIP3    H126730   6.115   5.970   3.130
 8922TIP3    H226731   5.970   6.011   3.117
 8923TIP3   OH226732   5.513   3.002   2.055
 8923TIP3    H126733   5.431   2.972   2.094
 8923TIP3    H226734   5.561   3.041   2.127
 8924TIP3   OH226735   1.038   4.376   1.454
 8924TIP3    H126736   1.020   4.469   1.469
 8924TIP3    H226737   1.006   4.359   1.365
 8925TIP3   OH226738   3.442   0.104   4.791
 8925TIP3    H126739   3.476   0.190   4.765
 8925TIP3    H226740   3.357   0.122   4.832
 8926TIP3   OH226741   5.849   1.310   2.248
 8926TIP3    H126742   5.905   1.282   2.320
 8926TIP3    H226743   5.877   1.259   2.173
 8927TIP3   OH226744   5.470   2.670   4.414
 8927TIP3    H126745   5.408   2.602   4.389
 8927TIP3    H226746   5.435   2.750   4.375
 8928TIP3   OH226747   6.689   2.178   0.224
 8928TIP3    H126748   6.762   2.216   0.272
 8928TIP3    H226749   6.725   2.154   0.139
 8929TIP3   OH226750   5.439   2.799   1.783
 8929TIP3    H126751   5.364   2.779   1.726
 8929TIP3    H226752   5.471   2.713   1.811
 8930TIP3   OH226753   5.901   6.581   5.657
 8930TIP3    H126754   5.894   6.649   5.590
 8930TIP3    H226755   5.980   6.532   5.634
 8931TIP3   OH226756   4.406   0.545   3.557
 8931TIP3    H126757   4.480   0.488   3.576
 8931TIP3    H226758   4.445   0.625   3.523
 8932TIP3   OH226759   3.460   6.812   2.828
 8932TIP3    H126760   3.460   6.731   2.879
 8932TIP3    H226761   3.467   6.881   2.894
 8933TIP3   OH226762   0.286   1.995   4.077
 8933TIP3    H126763   0.356   1.934   4.102
 8933TIP3    H226764   0.267   1.974   3.986
 8934TIP3   OH226765   3.939   2.385   0.626
 8934TIP3    H126766   3.858   2.343   0.597
 8934TIP3    H226767   3.918   2.420   0.713
 8935TIP3   OH226768   4.804   1.492   3.473
 8935TIP3    H126769   4.897   1.507   3.455
 8935TIP3    H226770   4.764   1.484   3.387
 8936TIP3   OH226771   3.519   4.803   2.470
 8936TIP3    H126772   3.442   4.772   2.518
 8936TIP3    H226773   3.562   4.862   2.532
 8937TIP3   OH226774   0.427   3.631   2.030
 8937TIP3    H126775   0.372   3.600   2.102
 8937TIP3    H226776   0.504   3.669   2.073
 8938TIP3   OH226777   2.841   3.098   3.494
 8938TIP3    H126778   2.766   3.086   3.435
 8938TIP3    H226779   2.907   3.139   3.438
 8939TIP3   OH226780   2.888   2.223   4.754
 8939TIP3    H126781   2.934   2.300   4.722
 8939TIP3    H226782   2.955   2.170   4.797
 8940TIP3   OH226783   5.908   4.319   3.135
 8940TIP3    H126784   5.829   4.372   3.126
 8940TIP3    H226785   5.914   4.301   3.229
 8941TIP3   OH226786   3.077   2.132   2.092
 8941TIP3    H126787   3.109   2.045   2.116
 8941TIP3    H226788   2.985   2.132   2.118
 8942TIP3   OH226789   1.091   0.654   1.413
 8942TIP3    H126790   1.181   0.622   1.411
 8942TIP3    H226791   1.055   0.628   1.328
 8943TIP3   OH226792   1.533   3.965   0.666
 8943TIP3    H126793   1.509   3.980   0.574
 8943TIP3    H226794   1.603   3.900   0.662
 8944TIP3   OH226795   0.664   1.936   1.158
 8944TIP3    H126796   0.710   1.977   1.086
 8944TIP3    H226797   0.716   1.958   1.236
 8945TIP3   OH226798   0.376   1.030   5.408
 8945TIP3    H126799   0.288   0.999   5.426
 8945TIP3    H226800   0.416   1.041   5.494
 8946TIP3   OH226801   1.606   3.641   5.278
 8946TIP3    H126802   1.625   3.718   5.331
 8946TIP3    H226803   1.529   3.602   5.319
 8947TIP3   OH226804   2.314   2.191   1.372
 8947TIP3    H126805   2.253   2.117   1.375
 8947TIP3    H226806   2.263   2.262   1.332
 8948TIP3   OH226807   4.300   1.149   1.958
 8948TIP3    H126808   4.371   1.089   1.980
 8948TIP3    H226809   4.303   1.156   1.863
 8949TIP3   OH226810   5.168   1.361   0.693
 8949TIP3    H126811   5.238   1.308   0.731
 8949TIP3    H226812   5.112   1.297   0.648
 8950TIP3   OH226813   4.548   2.860   1.619
 8950TIP3    H126814   4.477   2.805   1.653
 8950TIP3    H226815   4.508   2.909   1.547
 8951TIP3   OH226816   3.013   0.311   1.041
 8951TIP3    H126817   3.090   0.255   1.041
 8951TIP3    H226818   2.956   0.273   1.109
 8952TIP3   OH226819   4.560   4.121   3.957
 8952TIP3    H126820   4.498   4.125   4.030
 8952TIP3    H226821   4.630   4.064   3.989
 8953TIP3   OH226822   2.588   2.438   3.250
 8953TIP3    H126823   2.619   2.395   3.170
 8953TIP3    H226824   2.642   2.516   3.257
 8954TIP3   OH226825   1.980   4.944   1.472
 8954TIP3    H126826   1.980   5.003   1.547
 8954TIP3    H226827   1.888   4.933   1.449
 8955TIP3   OH226828   5.709   6.122   0.149
 8955TIP3    H126829   5.773   6.085   0.209
 8955TIP3    H226830   5.670   6.194   0.198
 8956TIP3   OH226831   2.989   3.964   1.394
 8956TIP3    H126832   2.919   4.030   1.388
 8956TIP3    H226833   3.068   4.011   1.369
 8957TIP3   OH226834   1.778   1.289   5.611
 8957TIP3    H126835   1.830   1.209   5.604
 8957TIP3    H226836   1.760   1.298   5.705
 8958TIP3   OH226837   6.859   4.475   3.398
 8958TIP3    H126838   6.819   4.431   3.474
 8958TIP3    H226839   6.901   4.553   3.434
 8959TIP3   OH226840   3.937   3.913   2.134
 8959TIP3    H126841   3.911   3.901   2.226
 8959TIP3    H226842   3.861   3.955   2.093
 8960TIP3   OH226843   0.585   3.428   5.163
 8960TIP3    H126844   0.490   3.439   5.171
 8960TIP3    H226845   0.613   3.408   5.253
 8961TIP3   OH226846   0.643   1.978   2.221
 8961TIP3    H126847   0.626   1.904   2.280
 8961TIP3    H226848   0.709   2.030   2.266
 8962TIP3   OH226849   5.616   6.470   1.042
 8962TIP3    H126850   5.616   6.544   1.103
 8962TIP3    H226851   5.530   6.429   1.055
 8963TIP3   OH226852   1.629   3.238   0.115
 8963TIP3    H126853   1.574   3.160   0.122
 8963TIP3    H226854   1.603   3.292   0.190
 8964TIP3   OH226855   0.073   1.610   5.322
 8964TIP3    H126856   0.059   1.699   5.353
 8964TIP3    H226857  -0.004   1.590   5.268
 8965TIP3   OH226858   0.048   4.168   0.828
 8965TIP3    H126859   0.032   4.190   0.736
 8965TIP3    H226860  -0.027   4.114   0.852
 8966TIP3   OH226861   0.909   5.766   4.542
 8966TIP3    H126862   0.982   5.706   4.557
 8966TIP3    H226863   0.831   5.712   4.552
 8967TIP3   OH226864   3.974   6.210   4.491
 8967TIP3    H126865   3.917   6.152   4.439
 8967TIP3    H226866   4.007   6.154   4.561
 8968TIP3   OH226867   6.413   3.978   2.564
 8968TIP3    H126868   6.398   3.884   2.564
 8968TIP3    H226869   6.390   4.006   2.652
 8969TIP3   OH226870   1.246   4.629   1.449
 8969TIP3    H126871   1.268   4.666   1.535
 8969TIP3    H226872   1.154   4.651   1.436
 8970TIP3   OH226873   7.072   5.521   3.545
 8970TIP3    H126874   7.013   5.527   3.470
 8970TIP3    H226875   7.108   5.610   3.554
 8971TIP3   OH226876   4.254   0.790   3.729
 8971TIP3    H126877   4.301   0.740   3.663
 8971TIP3    H226878   4.243   0.729   3.802
 8972TIP3   OH226879   4.507   1.852   5.297
 8972TIP3    H126880   4.474   1.909   5.366
 8972TIP3    H226881   4.567   1.793   5.342
 8973TIP3   OH226882   4.966   0.248   2.474
 8973TIP3    H126883   4.905   0.256   2.547
 8973TIP3    H226884   5.002   0.159   2.483
 8974TIP3   OH226885   0.553   1.223   0.362
 8974TIP3    H126886   0.546   1.302   0.416
 8974TIP3    H226887   0.463   1.191   0.354
 8975TIP3   OH226888   1.656   5.368   1.643
 8975TIP3    H126889   1.659   5.273   1.627
 8975TIP3    H226890   1.600   5.378   1.720
 8976TIP3   OH226891   3.957   2.714   5.616
 8976TIP3    H126892   4.002   2.785   5.662
 8976TIP3    H226893   3.880   2.695   5.670
 8977TIP3   OH226894   5.591   2.732   4.674
 8977TIP3    H126895   5.566   2.720   4.583
 8977TIP3    H226896   5.543   2.664   4.722
 8978TIP3   OH226897   0.203   0.223   5.279
 8978TIP3    H126898   0.193   0.191   5.369
 8978TIP3    H226899   0.121   0.267   5.259
 8979TIP3   OH226900   3.980   5.521   0.316
 8979TIP3    H126901   4.031   5.441   0.311
 8979TIP3    H226902   4.044   5.591   0.304
 8980TIP3   OH226903   2.474   0.946   3.759
 8980TIP3    H126904   2.563   0.941   3.793
 8980TIP3    H226905   2.470   0.881   3.689
 8981TIP3   OH226906   3.162   4.767   2.350
 8981TIP3    H126907   3.173   4.765   2.445
 8981TIP3    H226908   3.188   4.856   2.325
 8982TIP3   OH226909   2.550   2.183   2.606
 8982TIP3    H126910   2.475   2.187   2.666
 8982TIP3    H226911   2.511   2.185   2.519
 8983TIP3   OH226912   1.442   5.828   3.761
 8983TIP3    H126913   1.423   5.921   3.771
 8983TIP3    H226914   1.356   5.788   3.745
 8984TIP3   OH226915   2.462   6.410   4.178
 8984TIP3    H126916   2.516   6.479   4.139
 8984TIP3    H226917   2.386   6.403   4.119
 8985TIP3   OH226918   0.759   6.432   1.906
 8985TIP3    H126919   0.787   6.512   1.861
 8985TIP3    H226920   0.768   6.453   1.999
 8986TIP3   OH226921   4.896   5.926   1.051
 8986TIP3    H126922   4.956   5.885   1.113
 8986TIP3    H226923   4.812   5.882   1.066
 8987TIP3   OH226924   0.746   1.148   2.442
 8987TIP3    H126925   0.664   1.183   2.478
 8987TIP3    H226926   0.793   1.225   2.412
 8988TIP3   OH226927   4.091   0.547   1.894
 8988TIP3    H126928   4.046   0.462   1.894
 8988TIP3    H226929   4.028   0.607   1.934
 8989TIP3   OH226930   0.518   1.901   0.794
 8989TIP3    H126931   0.557   1.865   0.714
 8989TIP3    H226932   0.592   1.927   0.847
 8990TIP3   OH226933   3.513   1.644   4.808
 8990TIP3    H126934   3.512   1.688   4.723
 8990TIP3    H226935   3.606   1.628   4.826
 8991TIP3   OH226936   5.774   5.951   1.047
 8991TIP3    H126937   5.713   6.023   1.064
 8991TIP3    H226938   5.722   5.886   1.001
 8992TIP3   OH226939   5.637   4.436   0.820
 8992TIP3    H126940   5.647   4.396   0.907
 8992TIP3    H226941   5.676   4.372   0.760
 8993TIP3   OH226942   4.984   2.977   3.623
 8993TIP3    H126943   4.995   3.071   3.612
 8993TIP3    H226944   4.956   2.966   3.714
 8994TIP3   OH226945   0.340   5.036   5.175
 8994TIP3    H126946   0.247   5.054   5.192
 8994TIP3    H226947   0.386   5.109   5.216
 8995TIP3   OH226948   4.210   3.221   5.473
 8995TIP3    H126949   4.281   3.179   5.521
 8995TIP3    H226950   4.244   3.229   5.384
 8996TIP3   OH226951   5.912   6.020   4.240
 8996TIP3    H126952   5.938   6.102   4.198
 8996TIP3    H226953   5.879   6.047   4.326
 8997TIP3   OH226954   4.668   6.063   0.688
 8997TIP3    H126955   4.726   6.137   0.670
 8997TIP3    H226956   4.581   6.095   0.665
 8998TIP3   OH226957   2.336   2.075   3.548
 8998TIP3    H126958   2.363   2.022   3.473
 8998TIP3    H226959   2.388   2.042   3.621
 8999TIP3   OH226960   6.365   2.142   4.763
 8999TIP3    H126961   6.350   2.054   4.729
 8999TIP3    H226962   6.460   2.153   4.760
 9000TIP3   OH226963   1.089   1.452   1.519
 9000TIP3    H126964   1.042   1.436   1.437
 9000TIP3    H226965   1.144   1.528   1.500
 9001TIP3   OH226966   0.037   3.305   3.350
 9001TIP3    H126967   0.014   3.358   3.427
 9001TIP3    H226968  -0.033   3.241   3.343
 9002TIP3   OH226969   0.358   4.739   3.364
 9002TIP3    H126970   0.268   4.764   3.344
 9002TIP3    H226971   0.364   4.647   3.338
 9003TIP3   OH226972   6.194   0.916   1.641
 9003TIP3    H126973   6.234   0.902   1.555
 9003TIP3    H226974   6.177   0.827   1.674
 9004TIP3   OH226975   3.323   1.314   2.245
 9004TIP3    H126976   3.302   1.345   2.157
 9004TIP3    H226977   3.416   1.290   2.241
 9005TIP3   OH226978   1.788   3.026   5.398
 9005TIP3    H126979   1.809   3.106   5.447
 9005TIP3    H226980   1.873   2.994   5.368
 9006TIP3   OH226981   0.756   6.184   0.120
 9006TIP3    H126982   0.846   6.180   0.087
 9006TIP3    H226983   0.702   6.195   0.041
 9007TIP3   OH226984   6.808   5.948   2.105
 9007TIP3    H126985   6.895   5.912   2.122
 9007TIP3    H226986   6.749   5.875   2.122
 9008TIP3   OH226987   4.529   5.348   4.300
 9008TIP3    H126988   4.607   5.403   4.310
 9008TIP3    H226989   4.549   5.290   4.227
 9009TIP3   OH226990   2.355   2.312   2.141
 9009TIP3    H126991   2.411   2.323   2.065
 9009TIP3    H226992   2.406   2.258   2.201
 9010TIP3   OH226993   2.974   0.221   2.818
 9010TIP3    H126994   3.030   0.264   2.883
 9010TIP3    H226995   2.925   0.293   2.777
 9011TIP3   OH226996   1.720   2.961   2.445
 9011TIP3    H126997   1.732   3.051   2.415
 9011TIP3    H226998   1.672   2.970   2.527
 9012TIP3   OH226999   6.665   5.836   5.480
 9012TIP3    H127000   6.639   5.865   5.568
 9012TIP3    H227001   6.664   5.915   5.427
 9013TIP3   OH227002   4.440   5.846   0.775
 9013TIP3    H127003   4.443   5.928   0.824
 9013TIP3    H227004   4.357   5.805   0.801
 9014TIP3   OH227005   2.774   5.380   3.200
 9014TIP3    H127006   2.683   5.394   3.226
 9014TIP3    H227007   2.789   5.286   3.212
 9015TIP3   OH227008   5.513   1.868   1.755
 9015TIP3    H127009   5.443   1.807   1.776
 9015TIP3    H227010   5.590   1.813   1.742
 9016TIP3   OH227011   5.603   2.563   0.530
 9016TIP3    H127012   5.594   2.611   0.448
 9016TIP3    H227013   5.584   2.472   0.507
 9017TIP3   OH227014   5.984   1.026   4.764
 9017TIP3    H127015   6.032   0.951   4.799
 9017TIP3    H227016   6.046   1.099   4.773
 9018TIP3   OH227017   6.456   5.910   0.565
 9018TIP3    H127018   6.507   5.985   0.595
 9018TIP3    H227019   6.507   5.874   0.491
 9019TIP3   OH227020   3.237   6.109   1.022
 9019TIP3    H127021   3.289   6.121   0.943
 9019TIP3    H227022   3.282   6.161   1.089
 9020TIP3   OH227023   5.229   3.681   1.516
 9020TIP3    H127024   5.213   3.775   1.510
 9020TIP3    H227025   5.312   3.673   1.564
 9021TIP3   OH227026   4.571   1.704   0.235
 9021TIP3    H127027   4.500   1.641   0.240
 9021TIP3    H227028   4.603   1.711   0.325
 9022TIP3   OH227029   1.032   2.411   0.273
 9022TIP3    H127030   0.990   2.492   0.245
 9022TIP3    H227031   1.125   2.432   0.277
 9023TIP3   OH227032   3.398   5.564   5.304
 9023TIP3    H127033   3.313   5.533   5.337
 9023TIP3    H227034   3.376   5.619   5.229
 9024TIP3   OH227035   0.629   4.914   5.647
 9024TIP3    H127036   0.574   4.923   5.725
 9024TIP3    H227037   0.640   4.820   5.636
 9025TIP3   OH227038   1.817   4.524   5.076
 9025TIP3    H127039   1.729   4.511   5.041
 9025TIP3    H227040   1.845   4.608   5.040
 9026TIP3   OH227041   4.550   3.118   5.352
 9026TIP3    H127042   4.538   3.209   5.378
 9026TIP3    H227043   4.607   3.081   5.420
 9027TIP3   OH227044   0.455   1.760   5.724
 9027TIP3    H127045   0.421   1.673   5.706
 9027TIP3    H227046   0.542   1.761   5.684
 9028TIP3   OH227047   1.528   2.161   0.614
 9028TIP3    H127048   1.478   2.164   0.695
 9028TIP3    H227049   1.602   2.103   0.632
 9029TIP3   OH227050   5.555   2.104   5.421
 9029TIP3    H127051   5.558   2.196   5.450
 9029TIP3    H227052   5.466   2.076   5.442
 9030TIP3   OH227053   6.843   3.011   4.959
 9030TIP3    H127054   6.779   3.079   4.979
 9030TIP3    H227055   6.888   3.043   4.881
 9031TIP3   OH227056   5.344   0.640   0.704
 9031TIP3    H127057   5.311   0.699   0.636
 9031TIP3    H227058   5.325   0.685   0.786
 9032TIP3   OH227059   4.660   6.352   1.732
 9032TIP3    H127060   4.676   6.261   1.707
 9032TIP3    H227061   4.599   6.347   1.805
 9033TIP3   OH227062   2.529   5.276   3.004
 9033TIP3    H127063   2.503   5.198   3.053
 9033TIP3    H227064   2.469   5.344   3.034
 9034TIP3   OH227065   6.400   5.960   0.062
 9034TIP3    H127066   6.387   6.050   0.032
 9034TIP3    H227067   6.337   5.948   0.133
 9035TIP3   OH227068   0.772   1.425   2.327
 9035TIP3    H127069   0.799   1.514   2.304
 9035TIP3    H227070   0.682   1.418   2.294
 9036TIP3   OH227071   1.285   1.041   4.965
 9036TIP3    H127072   1.346   1.112   4.942
 9036TIP3    H227073   1.245   1.070   5.047
 9037TIP3   OH227074   3.187   0.167   1.692
 9037TIP3    H127075   3.172   0.180   1.785
 9037TIP3    H227076   3.262   0.223   1.671
 9038TIP3   OH227077   6.917   4.856   0.838
 9038TIP3    H127078   6.960   4.771   0.831
 9038TIP3    H227079   6.852   4.843   0.907
 9039TIP3   OH227080   4.080   3.058   0.289
 9039TIP3    H127081   4.126   2.977   0.310
 9039TIP3    H227082   4.147   3.114   0.249
 9040TIP3   OH227083   1.922   1.395   2.839
 9040TIP3    H127084   1.935   1.414   2.932
 9040TIP3    H227085   1.828   1.408   2.825
 9041TIP3   OH227086   1.089   2.153   2.191
 9041TIP3    H127087   1.173   2.193   2.168
 9041TIP3    H227088   1.087   2.071   2.142
 9042TIP3   OH227089   5.799   1.282   5.450
 9042TIP3    H127090   5.761   1.248   5.368
 9042TIP3    H227091   5.844   1.362   5.423
 9043TIP3   OH227092   3.966   4.429   3.211
 9043TIP3    H127093   4.041   4.437   3.151
 9043TIP3    H227094   3.998   4.463   3.294
 9044TIP3   OH227095   6.111   2.405   1.387
 9044TIP3    H127096   6.179   2.345   1.416
 9044TIP3    H227097   6.158   2.484   1.360
 9045TIP3   OH227098   5.928   3.262   5.483
 9045TIP3    H127099   5.997   3.320   5.451
 9045TIP3    H227100   5.954   3.241   5.572
 9046TIP3   OH227101   4.314   6.817   4.638
 9046TIP3    H127102   4.273   6.773   4.713
 9046TIP3    H227103   4.388   6.760   4.614
 9047TIP3   OH227104   3.301   1.425   5.028
 9047TIP3    H127105   3.225   1.375   5.060
 9047TIP3    H227106   3.323   1.382   4.945
 9048TIP3   OH227107   2.045   3.599   2.513
 9048TIP3    H127108   2.037   3.516   2.559
 9048TIP3    H227109   2.005   3.663   2.572
 9049TIP3   OH227110   7.018   5.698   0.304
 9049TIP3    H127111   6.982   5.715   0.391
 9049TIP3    H227112   6.964   5.750   0.245
 9050TIP3   OH227113   6.734   4.651   2.164
 9050TIP3    H127114   6.758   4.717   2.098
 9050TIP3    H227115   6.793   4.668   2.237
 9051TIP3   OH227116   5.683   1.653   1.391
 9051TIP3    H127117   5.711   1.619   1.477
 9051TIP3    H227118   5.612   1.594   1.365
 9052TIP3   OH227119   0.675   5.771   2.496
 9052TIP3    H127120   0.715   5.706   2.554
 9052TIP3    H227121   0.708   5.749   2.409
 9053TIP3   OH227122   6.366   5.287   2.463
 9053TIP3    H127123   6.390   5.208   2.415
 9053TIP3    H227124   6.414   5.357   2.419
 9054TIP3   OH227125   5.528   3.646   5.701
 9054TIP3    H127126   5.612   3.602   5.712
 9054TIP3    H227127   5.538   3.696   5.620
 9055TIP3   OH227128   7.111   4.981   4.668
 9055TIP3    H127129   7.034   4.932   4.640
 9055TIP3    H227130   7.100   5.068   4.630
 9056TIP3   OH227131   2.014   1.068   5.185
 9056TIP3    H127132   1.931   1.081   5.140
 9056TIP3    H227133   2.055   1.155   5.185
 9057TIP3   OH227134   0.441   0.292   4.381
 9057TIP3    H127135   0.389   0.272   4.303
 9057TIP3    H227136   0.394   0.365   4.423
 9058TIP3   OH227137   0.710   5.543   1.708
 9058TIP3    H127138   0.676   5.573   1.792
 9058TIP3    H227139   0.664   5.595   1.643
 9059TIP3   OH227140   4.972   4.374   5.179
 9059TIP3    H127141   4.977   4.436   5.106
 9059TIP3    H227142   4.897   4.404   5.231
 9060TIP3   OH227143   5.712   0.561   0.981
 9060TIP3    H127144   5.795   0.574   0.936
 9060TIP3    H227145   5.674   0.482   0.941
 9061TIP3   OH227146   4.121   6.129   5.544
 9061TIP3    H127147   4.146   6.103   5.632
 9061TIP3    H227148   4.122   6.047   5.493
 9062TIP3   OH227149   6.434   2.680   0.501
 9062TIP3    H127150   6.487   2.641   0.570
 9062TIP3    H227151   6.409   2.766   0.536
 9063TIP3   OH227152   6.850   2.851   1.331
 9063TIP3    H127153   6.857   2.880   1.422
 9063TIP3    H227154   6.770   2.891   1.299
 9064TIP3   OH227155   4.783   4.562   1.436
 9064TIP3    H127156   4.780   4.470   1.462
 9064TIP3    H227157   4.715   4.604   1.488
 9065TIP3   OH227158   1.791   3.354   1.037
 9065TIP3    H127159   1.882   3.381   1.042
 9065TIP3    H227160   1.756   3.368   1.125
 9066TIP3   OH227161   3.636   0.312   0.806
 9066TIP3    H127162   3.703   0.369   0.768
 9066TIP3    H227163   3.608   0.357   0.885
 9067TIP3   OH227164   5.232   0.540   5.134
 9067TIP3    H127165   5.270   0.483   5.068
 9067TIP3    H227166   5.217   0.623   5.089
 9068TIP3   OH227167   0.932   5.515   1.282
 9068TIP3    H127168   0.916   5.574   1.356
 9068TIP3    H227169   0.977   5.440   1.320
 9069TIP3   OH227170   0.345   1.584   4.384
 9069TIP3    H127171   0.258   1.571   4.347
 9069TIP3    H227172   0.343   1.672   4.420
 9070TIP3   OH227173   4.486   4.666   4.129
 9070TIP3    H127174   4.418   4.696   4.188
 9070TIP3    H227175   4.454   4.690   4.042
 9071TIP3   OH227176   2.976  -0.007   5.104
 9071TIP3    H127177   3.059   0.018   5.064
 9071TIP3    H227178   2.912   0.051   5.064
 9072TIP3   OH227179   0.939   0.858   5.507
 9072TIP3    H127180   0.980   0.775   5.484
 9072TIP3    H227181   1.012   0.920   5.517
 9073TIP3   OH227182   4.813   0.589   1.507
 9073TIP3    H127183   4.772   0.658   1.559
 9073TIP3    H227184   4.748   0.519   1.505
 9074TIP3   OH227185   1.829   3.301   4.955
 9074TIP3    H127186   1.911   3.335   4.918
 9074TIP3    H227187   1.852   3.216   4.992
 9075TIP3   OH227188   4.412   4.067   2.215
 9075TIP3    H127189   4.316   4.064   2.218
 9075TIP3    H227190   4.436   4.128   2.285
 9076TIP3   OH227191   2.620   4.547   3.908
 9076TIP3    H127192   2.584   4.551   3.996
 9076TIP3    H227193   2.570   4.611   3.858
 9077TIP3   OH227194   4.232   6.204   3.738
 9077TIP3    H127195   4.191   6.252   3.810
 9077TIP3    H227196   4.185   6.232   3.660
 9078TIP3   OH227197   3.424   0.266   2.939
 9078TIP3    H127198   3.450   0.285   3.029
 9078TIP3    H227199   3.347   0.211   2.948
 9079TIP3   OH227200   6.926   6.004   5.532
 9079TIP3    H127201   6.966   5.992   5.446
 9079TIP3    H227202   6.942   5.922   5.578
 9080TIP3   OH227203   3.620   0.877   4.473
 9080TIP3    H127204   3.581   0.902   4.556
 9080TIP3    H227205   3.697   0.825   4.497
 9081TIP3   OH227206   2.748   1.044   1.141
 9081TIP3    H127207   2.804   1.103   1.191
 9081TIP3    H227208   2.660   1.063   1.172
 9082TIP3   OH227209   6.764   2.988   4.555
 9082TIP3    H127210   6.675   2.953   4.556
 9082TIP3    H227211   6.813   2.927   4.500
 9083TIP3   OH227212   0.354   0.563   0.422
 9083TIP3    H127213   0.261   0.543   0.428
 9083TIP3    H227214   0.393   0.486   0.381
 9084TIP3   OH227215   1.659   2.487   0.859
 9084TIP3    H127216   1.646   2.525   0.772
 9084TIP3    H227217   1.652   2.393   0.846
 9085TIP3   OH227218   3.736   1.061   2.918
 9085TIP3    H127219   3.698   1.098   2.998
 9085TIP3    H227220   3.766   1.137   2.868
 9086TIP3   OH227221   1.593   5.171   1.129
 9086TIP3    H127222   1.551   5.096   1.170
 9086TIP3    H227223   1.670   5.188   1.183
 9087TIP3   OH227224   5.824   4.603   2.399
 9087TIP3    H127225   5.860   4.619   2.312
 9087TIP3    H227226   5.872   4.527   2.431
 9088TIP3   OH227227   2.138   2.716   3.242
 9088TIP3    H127228   2.049   2.730   3.209
 9088TIP3    H227229   2.190   2.695   3.164
 9089TIP3   OH227230   1.523   1.076   5.627
 9089TIP3    H127231   1.498   1.165   5.601
 9089TIP3    H227232   1.542   1.083   5.721
 9090TIP3   OH227233   3.560  -0.091   2.467
 9090TIP3    H127234   3.625  -0.160   2.451
 9090TIP3    H227235   3.563  -0.037   2.388
 9091TIP3   OH227236   0.353   5.605   1.434
 9091TIP3    H127237   0.366   5.564   1.519
 9091TIP3    H227238   0.293   5.678   1.452
 9092TIP3   OH227239   4.954   6.859   0.861
 9092TIP3    H127240   4.964   6.764   0.855
 9092TIP3    H227241   4.969   6.879   0.953
 9093TIP3   OH227242   6.233   3.116   0.119
 9093TIP3    H127243   6.211   3.196   0.166
 9093TIP3    H227244   6.162   3.056   0.139
 9094TIP3   OH227245   1.037   0.334   0.004
 9094TIP3    H127246   0.943   0.319   0.012
 9094TIP3    H227247   1.049   0.367  -0.085
 9095TIP3   OH227248   0.595   5.508   1.143
 9095TIP3    H127249   0.510   5.491   1.183
 9095TIP3    H227250   0.616   5.598   1.166
 9096TIP3   OH227251   2.182   5.430   4.248
 9096TIP3    H127252   2.269   5.441   4.286
 9096TIP3    H227253   2.140   5.363   4.302
 9097TIP3   OH227254   0.174   0.559   3.232
 9097TIP3    H127255   0.151   0.607   3.153
 9097TIP3    H227256   0.197   0.627   3.296
 9098TIP3   OH227257   3.232   1.477   5.481
 9098TIP3    H127258   3.300   1.513   5.422
 9098TIP3    H227259   3.221   1.387   5.452
 9099TIP3   OH227260   5.768   0.059   3.639
 9099TIP3    H127261   5.783   0.086   3.548
 9099TIP3    H227262   5.694   0.112   3.668
 9100TIP3   OH227263   4.493   5.792   4.959
 9100TIP3    H127264   4.547   5.730   5.007
 9100TIP3    H227265   4.555   5.842   4.906
 9101TIP3   OH227266   2.009   4.897   0.129
 9101TIP3    H127267   1.971   4.961   0.070
 9101TIP3    H227268   2.045   4.829   0.072
 9102TIP3   OH227269   1.368   3.719   3.833
 9102TIP3    H127270   1.389   3.796   3.779
 9102TIP3    H227271   1.443   3.710   3.892
 9103TIP3   OH227272   2.920   3.792   4.562
 9103TIP3    H127273   2.895   3.832   4.646
 9103TIP3    H227274   2.838   3.782   4.514
 9104TIP3   OH227275   6.614   4.572   1.187
 9104TIP3    H127276   6.671   4.645   1.164
 9104TIP3    H227277   6.613   4.571   1.283
 9105TIP3   OH227278   2.809   1.119   0.649
 9105TIP3    H127279   2.846   1.111   0.738
 9105TIP3    H227280   2.878   1.084   0.592
 9106TIP3   OH227281   1.706   2.476   4.334
 9106TIP3    H127282   1.768   2.439   4.272
 9106TIP3    H227283   1.622   2.476   4.287
 9107TIP3   OH227284   3.429   3.918   3.213
 9107TIP3    H127285   3.452   3.940   3.303
 9107TIP3    H227286   3.346   3.963   3.198
 9108TIP3   OH227287   6.340   1.858   2.849
 9108TIP3    H127288   6.371   1.843   2.939
 9108TIP3    H227289   6.306   1.947   2.850
 9109TIP3   OH227290   4.995   4.272   5.739
 9109TIP3    H127291   5.073   4.312   5.701
 9109TIP3    H227292   4.929   4.277   5.670
 9110TIP3   OH227293   3.970   1.316   1.010
 9110TIP3    H127294   3.995   1.385   0.948
 9110TIP3    H227295   3.881   1.292   0.984
 9111TIP3   OH227296   5.084   1.871   3.727
 9111TIP3    H127297   5.057   1.825   3.647
 9111TIP3    H227298   5.003   1.904   3.765
 9112TIP3   OH227299   1.236   3.709   4.509
 9112TIP3    H127300   1.141   3.707   4.522
 9112TIP3    H227301   1.273   3.714   4.597
 9113TIP3   OH227302   5.491  -0.005   5.100
 9113TIP3    H127303   5.562  -0.054   5.143
 9113TIP3    H227304   5.505   0.086   5.126
 9114TIP3   OH227305   6.883   0.218   0.693
 9114TIP3    H127306   6.833   0.186   0.769
 9114TIP3    H227307   6.816   0.250   0.633
 9115TIP3   OH227308   5.878   5.701   0.864
 9115TIP3    H127309   5.913   5.613   0.877
 9115TIP3    H227310   5.788   5.696   0.897
 9116TIP3   OH227311   0.550   4.509   4.254
 9116TIP3    H127312   0.555   4.575   4.323
 9116TIP3    H227313   0.611   4.540   4.187
 9117TIP3   OH227314   4.333   4.509   1.796
 9117TIP3    H127315   4.411   4.498   1.742
 9117TIP3    H227316   4.260   4.510   1.733
 9118TIP3   OH227317   6.447   1.635   3.392
 9118TIP3    H127318   6.473   1.582   3.316
 9118TIP3    H227319   6.528   1.676   3.422
 9119TIP3   OH227320   4.461   1.182   5.106
 9119TIP3    H127321   4.530   1.116   5.115
 9119TIP3    H227322   4.465   1.208   5.014
 9120TIP3   OH227323   2.620   3.930   3.599
 9120TIP3    H127324   2.642   3.868   3.530
 9120TIP3    H227325   2.702   3.974   3.619
 9121TIP3   OH227326   3.756   2.636   3.520
 9121TIP3    H127327   3.754   2.732   3.513
 9121TIP3    H227328   3.708   2.606   3.443
 9122TIP3   OH227329   6.284   4.561   2.427
 9122TIP3    H127330   6.332   4.480   2.444
 9122TIP3    H227331   6.338   4.608   2.363
 9123TIP3   OH227332   6.529   5.534   5.356
 9123TIP3    H127333   6.602   5.536   5.418
 9123TIP3    H227334   6.558   5.474   5.287
 9124TIP3   OH227335   5.800   0.742   3.250
 9124TIP3    H127336   5.800   0.838   3.256
 9124TIP3    H227337   5.720   0.716   3.297
 9125TIP3   OH227338   1.978   0.209   0.630
 9125TIP3    H127339   2.061   0.169   0.655
 9125TIP3    H227340   2.002   0.289   0.584
 9126TIP3   OH227341   0.494   3.037   2.299
 9126TIP3    H127342   0.457   3.026   2.387
 9126TIP3    H227343   0.557   3.108   2.308
 9127TIP3   OH227344   1.795   0.022   2.866
 9127TIP3    H127345   1.802   0.094   2.929
 9127TIP3    H227346   1.770   0.065   2.784
 9128TIP3   OH227347   2.872   1.233   1.314
 9128TIP3    H127348   2.964   1.220   1.337
 9128TIP3    H227349   2.870   1.320   1.274
 9129TIP3   OH227350   6.543   1.859   1.643
 9129TIP3    H127351   6.486   1.785   1.664
 9129TIP3    H227352   6.625   1.819   1.614
 9130TIP3   OH227353   5.936   5.531   4.064
 9130TIP3    H127354   6.011   5.511   4.121
 9130TIP3    H227355   5.933   5.627   4.063
 9131TIP3   OH227356   6.117   4.741   0.559
 9131TIP3    H127357   6.064   4.715   0.634
 9131TIP3    H227358   6.193   4.785   0.598
 9132TIP3   OH227359   6.228   5.693   3.035
 9132TIP3    H127360   6.147   5.708   2.985
 9132TIP3    H227361   6.297   5.689   2.968
 9133TIP3   OH227362   3.753   1.678   5.442
 9133TIP3    H127363   3.690   1.729   5.392
 9133TIP3    H227364   3.810   1.639   5.376
 9134TIP3   OH227365   3.865   4.167   5.622
 9134TIP3    H127366   3.818   4.190   5.542
 9134TIP3    H227367   3.831   4.080   5.645
 9135TIP3   OH227368   6.540   5.399   0.763
 9135TIP3    H127369   6.448   5.400   0.789
 9135TIP3    H227370   6.546   5.328   0.699
 9136TIP3   OH227371   5.416   1.672   4.194
 9136TIP3    H127372   5.475   1.742   4.221
 9136TIP3    H227373   5.458   1.592   4.222
 9137TIP3   OH227374   7.041   3.128   3.311
 9137TIP3    H127375   6.995   3.159   3.233
 9137TIP3    H227376   6.983   3.061   3.347
 9138TIP3   OH227377   6.731   3.526   3.548
 9138TIP3    H127378   6.753   3.611   3.509
 9138TIP3    H227379   6.648   3.541   3.593
 9139TIP3   OH227380   5.044   4.276   0.880
 9139TIP3    H127381   5.001   4.303   0.799
 9139TIP3    H227382   5.135   4.260   0.855
 9140TIP3   OH227383   1.341   4.494   2.197
 9140TIP3    H127384   1.385   4.487   2.112
 9140TIP3    H227385   1.400   4.549   2.250
 9141TIP3   OH227386   0.810   3.404   4.764
 9141TIP3    H127387   0.904   3.413   4.756
 9141TIP3    H227388   0.793   3.311   4.749
 9142TIP3   OH227389   5.861   6.773   5.403
 9142TIP3    H127390   5.766   6.788   5.406
 9142TIP3    H227391   5.899   6.855   5.435
 9143TIP3   OH227392   2.177   0.973   0.215
 9143TIP3    H127393   2.186   0.999   0.307
 9143TIP3    H227394   2.251   1.015   0.171
 9144TIP3   OH227395   4.851   4.797   4.832
 9144TIP3    H127396   4.920   4.842   4.881
 9144TIP3    H227397   4.894   4.720   4.794
 9145TIP3   OH227398   3.604   5.006   5.514
 9145TIP3    H127399   3.551   4.927   5.505
 9145TIP3    H227400   3.633   5.005   5.605
 9146TIP3   OH227401   1.656   3.062   2.062
 9146TIP3    H127402   1.651   3.053   1.967
 9146TIP3    H227403   1.566   3.079   2.090
 9147TIP3   OH227404   4.730   0.621   5.517
 9147TIP3    H127405   4.746   0.548   5.577
 9147TIP3    H227406   4.812   0.670   5.517
 9148TIP3   OH227407   0.089   4.117   3.090
 9148TIP3    H127408   0.117   4.068   3.013
 9148TIP3    H227409   0.004   4.079   3.114
 9149TIP3   OH227410   4.211   6.497   0.408
 9149TIP3    H127411   4.268   6.485   0.484
 9149TIP3    H227412   4.184   6.408   0.384
 9150TIP3   OH227413   6.037   0.709   5.690
 9150TIP3    H127414   5.962   0.649   5.688
 9150TIP3    H227415   6.113   0.654   5.671
 9151TIP3   OH227416   0.657   6.284   4.198
 9151TIP3    H127417   0.642   6.199   4.157
 9151TIP3    H227418   0.694   6.263   4.284
 9152TIP3   OH227419   3.641   6.483   2.846
 9152TIP3    H127420   3.675   6.398   2.874
 9152TIP3    H227421   3.711   6.545   2.865
 9153TIP3   OH227422   3.006   2.301   5.486
 9153TIP3    H127423   2.948   2.246   5.433
 9153TIP3    H227424   3.050   2.239   5.544
 9154TIP3   OH227425   4.989   1.520   0.312
 9154TIP3    H127426   4.998   1.591   0.374
 9154TIP3    H227427   4.988   1.441   0.366
 9155TIP3   OH227428   4.207   3.480   2.471
 9155TIP3    H127429   4.193   3.467   2.377
 9155TIP3    H227430   4.289   3.433   2.489
 9156TIP3   OH227431   5.461   1.152   1.233
 9156TIP3    H127432   5.487   1.065   1.202
 9156TIP3    H227433   5.523   1.172   1.302
 9157TIP3   OH227434   5.042   4.069   2.143
 9157TIP3    H127435   4.968   4.079   2.203
 9157TIP3    H227436   5.002   4.047   2.059
 9158TIP3   OH227437   6.644   5.624   2.717
 9158TIP3    H127438   6.681   5.559   2.658
 9158TIP3    H227439   6.556   5.593   2.736
 9159TIP3   OH227440   0.005   1.693   0.330
 9159TIP3    H127441   0.067   1.644   0.384
 9159TIP3    H227442   0.003   1.781   0.368
 9160TIP3   OH227443   0.010   1.725   2.351
 9160TIP3    H127444   0.089   1.744   2.403
 9160TIP3    H227445  -0.046   1.801   2.363
 9161TIP3   OH227446   6.828   5.071   2.660
 9161TIP3    H127447   6.844   5.019   2.581
 9161TIP3    H227448   6.893   5.141   2.657
 9162TIP3   OH227449   1.014   0.166   4.307
 9162TIP3    H127450   0.974   0.250   4.330
 9162TIP3    H227451   1.073   0.147   4.380
 9163TIP3   OH227452   1.677   0.514   2.791
 9163TIP3    H127453   1.671   0.580   2.860
 9163TIP3    H227454   1.764   0.527   2.754
 9164TIP3   OH227455   0.108   1.342   1.817
 9164TIP3    H127456   0.090   1.383   1.732
 9164TIP3    H227457   0.030   1.363   1.870
 9165TIP3   OH227458   3.755   0.417   1.449
 9165TIP3    H127459   3.836   0.437   1.496
 9165TIP3    H227460   3.781   0.411   1.358
 9166TIP3   OH227461   3.053   0.292   4.780
 9166TIP3    H127462   3.025   0.379   4.808
 9166TIP3    H227463   3.047   0.294   4.684
 9167TIP3   OH227464   4.856   6.495   4.053
 9167TIP3    H127465   4.938   6.484   4.101
 9167TIP3    H227466   4.819   6.407   4.047
 9168TIP3   OH227467   3.934   5.787   5.521
 9168TIP3    H127468   4.011   5.831   5.485
 9168TIP3    H227469   3.883   5.763   5.444
 9169TIP3   OH227470   2.410   4.252   3.756
 9169TIP3    H127471   2.418   4.333   3.705
 9169TIP3    H227472   2.333   4.265   3.810
 9170TIP3   OH227473   1.414   2.622   0.663
 9170TIP3    H127474   1.418   2.542   0.609
 9170TIP3    H227475   1.349   2.677   0.620
 9171TIP3   OH227476   5.798   5.831   2.453
 9171TIP3    H127477   5.765   5.906   2.502
 9171TIP3    H227478   5.802   5.862   2.363
 9172TIP3   OH227479   1.875   1.086   3.916
 9172TIP3    H127480   1.819   1.074   3.993
 9172TIP3    H227481   1.882   1.181   3.907
 9173TIP3   OH227482   0.323   1.524   3.850
 9173TIP3    H127483   0.388   1.472   3.803
 9173TIP3    H227484   0.240   1.477   3.836
 9174TIP3   OH227485   0.508   5.334   2.911
 9174TIP3    H127486   0.517   5.266   2.845
 9174TIP3    H227487   0.450   5.399   2.871
 9175TIP3   OH227488   7.026   5.238   2.572
 9175TIP3    H127489   7.006   5.329   2.551
 9175TIP3    H227490   7.121   5.232   2.564
 9176TIP3   OH227491   1.256   1.215   1.201
 9176TIP3    H127492   1.293   1.277   1.263
 9176TIP3    H227493   1.331   1.165   1.169
 9177TIP3   OH227494   4.855   0.663   3.232
 9177TIP3    H127495   4.912   0.597   3.272
 9177TIP3    H227496   4.857   0.642   3.138
 9178TIP3   OH227497   6.134   3.094   1.073
 9178TIP3    H127498   6.102   3.181   1.094
 9178TIP3    H227499   6.127   3.087   0.978
 9179TIP3   OH227500   2.917   1.273   3.008
 9179TIP3    H127501   2.949   1.323   3.083
 9179TIP3    H227502   2.891   1.189   3.046
 9180TIP3   OH227503   3.090   6.257   5.821
 9180TIP3    H127504   3.010   6.304   5.800
 9180TIP3    H227505   3.087   6.247   5.917
 9181TIP3   OH227506   5.076   5.802   3.505
 9181TIP3    H127507   5.137   5.779   3.435
 9181TIP3    H227508   5.059   5.719   3.550
 9182TIP3   OH227509   2.680   0.539   5.158
 9182TIP3    H127510   2.690   0.632   5.137
 9182TIP3    H227511   2.605   0.511   5.107
 9183TIP3   OH227512   1.905   4.645   2.580
 9183TIP3    H127513   1.946   4.585   2.517
 9183TIP3    H227514   1.813   4.618   2.583
 9184TIP3   OH227515   3.759   6.723   3.549
 9184TIP3    H127516   3.757   6.737   3.454
 9184TIP3    H227517   3.809   6.642   3.560
 9185TIP3   OH227518   0.146   4.068   4.376
 9185TIP3    H127519   0.126   4.160   4.361
 9185TIP3    H227520   0.175   4.035   4.291
 9186TIP3   OH227521   0.446   0.949   3.991
 9186TIP3    H127522   0.366   0.945   4.044
 9186TIP3    H227523   0.424   1.008   3.919
 9187TIP3   OH227524   5.588   0.989   3.537
 9187TIP3    H127525   5.639   0.975   3.617
 9187TIP3    H227526   5.503   1.019   3.568
 9188TIP3   OH227527   4.297   2.728   4.105
 9188TIP3    H127528   4.314   2.782   4.028
 9188TIP3    H227529   4.340   2.775   4.176
 9189TIP3   OH227530   1.386   2.412   0.949
 9189TIP3    H127531   1.478   2.400   0.971
 9189TIP3    H227532   1.362   2.329   0.906
 9190TIP3   OH227533   5.090   5.954   4.376
 9190TIP3    H127534   5.169   5.920   4.334
 9190TIP3    H227535   5.116   6.039   4.412
 9191TIP3   OH227536   5.019   6.426   2.259
 9191TIP3    H127537   4.994   6.465   2.175
 9191TIP3    H227538   5.105   6.388   2.244
 9192TIP3   OH227539   7.111   3.026   5.648
 9192TIP3    H127540   7.104   3.116   5.679
 9192TIP3    H227541   7.022   3.001   5.625
 9193TIP3   OH227542   3.731   3.947   0.966
 9193TIP3    H127543   3.653   3.893   0.952
 9193TIP3    H227544   3.801   3.901   0.921
 9194TIP3   OH227545   1.669   5.718   2.898
 9194TIP3    H127546   1.696   5.700   2.808
 9194TIP3    H227547   1.750   5.716   2.949
 9195TIP3   OH227548   5.617   6.202   5.383
 9195TIP3    H127549   5.700   6.247   5.371
 9195TIP3    H227550   5.631   6.145   5.459
 9196TIP3   OH227551   2.159   1.221   3.748
 9196TIP3    H127552   2.102   1.246   3.820
 9196TIP3    H227553   2.151   1.125   3.743
 9197TIP3   OH227554   5.668   5.499   2.591
 9197TIP3    H127555   5.689   5.543   2.674
 9197TIP3    H227556   5.752   5.490   2.547
 9198TIP3   OH227557   0.828   4.228   5.835
 9198TIP3    H127558   0.884   4.173   5.889
 9198TIP3    H227559   0.795   4.170   5.767
 9199TIP3   OH227560   7.101   1.966   3.606
 9199TIP3    H127561   7.049   2.002   3.534
 9199TIP3    H227562   7.140   2.042   3.649
 9200TIP3   OH227563   6.261   2.115   1.058
 9200TIP3    H127564   6.176   2.115   1.102
 9200TIP3    H227565   6.288   2.207   1.058
 9201TIP3   OH227566   4.534   4.232   2.407
 9201TIP3    H127567   4.582   4.174   2.466
 9201TIP3    H227568   4.478   4.285   2.465
 9202TIP3   OH227569   5.273   1.456   0.285
 9202TIP3    H127570   5.229   1.387   0.234
 9202TIP3    H227571   5.206   1.524   0.296
 9203TIP3   OH227572   3.824   0.956   5.427
 9203TIP3    H127573   3.775   0.891   5.478
 9203TIP3    H227574   3.907   0.966   5.474
 9204TIP3   OH227575   0.050   4.892   1.285
 9204TIP3    H127576   0.106   4.856   1.216
 9204TIP3    H227577   0.077   4.844   1.364
 9205TIP3   OH227578   0.312   6.360   3.460
 9205TIP3    H127579   0.220   6.373   3.436
 9205TIP3    H227580   0.359   6.424   3.408
 9206TIP3   OH227581   2.235   0.632   0.966
 9206TIP3    H127582   2.235   0.556   1.024
 9206TIP3    H227583   2.327   0.653   0.953
 9207TIP3   OH227584   3.374   1.228   1.147
 9207TIP3    H127585   3.467   1.247   1.138
 9207TIP3    H227586   3.344   1.213   1.058
 9208TIP3   OH227587   0.933   2.768   1.716
 9208TIP3    H127588   0.974   2.808   1.639
 9208TIP3    H227589   0.907   2.842   1.771
 9209TIP3   OH227590   6.665   3.202   3.952
 9209TIP3    H127591   6.758   3.225   3.958
 9209TIP3    H227592   6.650   3.144   4.026
 9210TIP3   OH227593   6.560   4.071   2.962
 9210TIP3    H127594   6.584   4.121   2.884
 9210TIP3    H227595   6.613   4.110   3.032
 9211TIP3   OH227596   2.923   2.218   0.900
 9211TIP3    H127597   2.828   2.221   0.896
 9211TIP3    H227598   2.942   2.169   0.981
 9212TIP3   OH227599   4.116   0.618   1.297
 9212TIP3    H127600   4.062   0.632   1.375
 9212TIP3    H227601   4.057   0.637   1.223
 9213TIP3   OH227602   4.757   0.759   3.560
 9213TIP3    H127603   4.768   0.715   3.644
 9213TIP3    H227604   4.781   0.692   3.495
 9214TIP3   OH227605   5.856   5.665   1.577
 9214TIP3    H127606   5.857   5.747   1.527
 9214TIP3    H227607   5.781   5.617   1.542
 9215TIP3   OH227608   1.937   0.968   1.760
 9215TIP3    H127609   1.926   1.059   1.787
 9215TIP3    H227610   1.877   0.918   1.816
 9216TIP3   OH227611   1.202   6.012   4.143
 9216TIP3    H127612   1.179   5.951   4.213
 9216TIP3    H227613   1.298   6.015   4.146
 9217TIP3   OH227614   6.159   4.999   2.086
 9217TIP3    H127615   6.248   5.023   2.061
 9217TIP3    H227616   6.170   4.940   2.161
 9218TIP3   OH227617   3.240   5.883   5.361
 9218TIP3    H127618   3.317   5.892   5.305
 9218TIP3    H227619   3.200   5.800   5.333
 9219TIP3   OH227620   2.713   0.412   2.113
 9219TIP3    H127621   2.801   0.402   2.077
 9219TIP3    H227622   2.672   0.479   2.058
 9220TIP3   OH227623   1.239   1.994   3.436
 9220TIP3    H127624   1.318   1.944   3.456
 9220TIP3    H227625   1.180   1.931   3.394
 9221TIP3   OH227626   4.732   4.033   4.816
 9221TIP3    H127627   4.651   4.045   4.766
 9221TIP3    H227628   4.718   4.083   4.896
 9222TIP3   OH227629   5.144   2.596   3.524
 9222TIP3    H127630   5.158   2.608   3.430
 9222TIP3    H227631   5.196   2.666   3.565
 9223TIP3   OH227632   3.461   0.626   2.970
 9223TIP3    H127633   3.423   0.584   3.047
 9223TIP3    H227634   3.455   0.720   2.988
 9224TIP3   OH227635   5.826   0.016   2.124
 9224TIP3    H127636   5.893  -0.033   2.076
 9224TIP3    H227637   5.791   0.078   2.061
 9225TIP3   OH227638   1.363   1.008   2.105
 9225TIP3    H127639   1.408   0.924   2.112
 9225TIP3    H227640   1.432   1.073   2.122
 9226TIP3   OH227641   5.813   2.726   1.356
 9226TIP3    H127642   5.879   2.790   1.381
 9226TIP3    H227643   5.815   2.726   1.260
 9227TIP3   OH227644   3.749   3.113   2.435
 9227TIP3    H127645   3.707   3.105   2.520
 9227TIP3    H227646   3.761   3.207   2.423
 9228TIP3   OH227647   1.724   5.921   0.358
 9228TIP3    H127648   1.790   5.885   0.416
 9228TIP3    H227649   1.773   5.957   0.284
 9229TIP3   OH227650   6.321   0.667   5.242
 9229TIP3    H127651   6.231   0.638   5.254
 9229TIP3    H227652   6.372   0.613   5.302
 9230TIP3   OH227653   5.411   6.816   3.696
 9230TIP3    H127654   5.470   6.741   3.694
 9230TIP3    H227655   5.342   6.794   3.634
 9231TIP3   OH227656   5.690   3.887   0.201
 9231TIP3    H127657   5.749   3.912   0.272
 9231TIP3    H227658   5.675   3.793   0.214
 9232TIP3   OH227659   2.314   5.561   3.188
 9232TIP3    H127660   2.264   5.641   3.204
 9232TIP3    H227661   2.272   5.521   3.112
 9233TIP3   OH227662   3.813   0.145   3.019
 9233TIP3    H127663   3.750   0.183   3.079
 9233TIP3    H227664   3.765   0.076   2.973
 9234TIP3   OH227665   6.539   6.207   0.365
 9234TIP3    H127666   6.598   6.279   0.344
 9234TIP3    H227667   6.511   6.223   0.455
 9235TIP3   OH227668   5.068   3.434   1.460
 9235TIP3    H127669   5.123   3.512   1.471
 9235TIP3    H227670   4.980   3.468   1.447
 9236TIP3   OH227671   1.723   5.497   4.068
 9236TIP3    H127672   1.748   5.588   4.085
 9236TIP3    H227673   1.762   5.448   4.140
 9237TIP3   OH227674   1.198   1.785   4.335
 9237TIP3    H127675   1.236   1.837   4.264
 9237TIP3    H227676   1.117   1.831   4.357
 9238TIP3   OH227677   3.256   4.180   5.130
 9238TIP3    H127678   3.342   4.200   5.092
 9238TIP3    H227679   3.228   4.262   5.171
 9239TIP3   OH227680   2.822   4.199   1.261
 9239TIP3    H127681   2.915   4.213   1.246
 9239TIP3    H227682   2.783   4.286   1.260
 9240TIP3   OH227683   0.340   4.733   2.926
 9240TIP3    H127684   0.266   4.731   2.988
 9240TIP3    H227685   0.305   4.776   2.848
 9241TIP3   OH227686   0.395   1.842   4.516
 9241TIP3    H127687   0.367   1.927   4.481
 9241TIP3    H227688   0.364   1.842   4.607
 9242TIP3   OH227689   3.656   4.517   3.667
 9242TIP3    H127690   3.672   4.472   3.750
 9242TIP3    H227691   3.603   4.593   3.691
 9243TIP3   OH227692   3.784   5.074   3.663
 9243TIP3    H127693   3.697   5.068   3.625
 9243TIP3    H227694   3.842   5.041   3.593
 9244TIP3   OH227695   2.419   4.364   4.107
 9244TIP3    H127696   2.460   4.309   4.173
 9244TIP3    H227697   2.442   4.453   4.133
 9245TIP3   OH227698   4.089   2.341   3.945
 9245TIP3    H127699   4.069   2.273   4.009
 9245TIP3    H227700   4.049   2.310   3.864
 9246TIP3   OH227701   5.018   6.151   1.401
 9246TIP3    H127702   5.085   6.148   1.333
 9246TIP3    H227703   5.055   6.100   1.473
 9247TIP3   OH227704   4.949   2.318   2.642
 9247TIP3    H127705   5.033   2.329   2.687
 9247TIP3    H227706   4.884   2.313   2.712
 9248TIP3   OH227707   5.719   2.484   3.746
 9248TIP3    H127708   5.802   2.507   3.705
 9248TIP3    H227709   5.732   2.503   3.839
 9249TIP3   OH227710   4.685   2.675   4.776
 9249TIP3    H127711   4.727   2.667   4.691
 9249TIP3    H227712   4.716   2.759   4.811
 9250TIP3   OH227713   4.244   3.972   3.250
 9250TIP3    H127714   4.213   4.058   3.277
 9250TIP3    H227715   4.174   3.938   3.193
 9251TIP3   OH227716   5.795   6.405   3.219
 9251TIP3    H127717   5.868   6.417   3.159
 9251TIP3    H227718   5.836   6.379   3.302
 9252TIP3   OH227719   2.052   3.969   3.186
 9252TIP3    H127720   2.144   3.944   3.186
 9252TIP3    H227721   2.051   4.057   3.149
 9253TIP3   OH227722   2.132   2.216   2.394
 9253TIP3    H127723   2.089   2.178   2.318
 9253TIP3    H227724   2.089   2.175   2.469
 9254TIP3   OH227725   5.094   3.781   0.672
 9254TIP3    H127726   5.074   3.763   0.764
 9254TIP3    H227727   5.010   3.804   0.634
 9255TIP3   OH227728   0.708   1.777   4.476
 9255TIP3    H127729   0.625   1.797   4.432
 9255TIP3    H227730   0.721   1.684   4.461
 9256TIP3   OH227731   3.122   1.036   1.475
 9256TIP3    H127732   3.101   1.003   1.563
 9256TIP3    H227733   3.087   0.970   1.416
 9257TIP3   OH227734   1.660   1.339   0.282
 9257TIP3    H127735   1.566   1.350   0.300
 9257TIP3    H227736   1.674   1.387   0.200
 9258TIP3   OH227737   5.400   4.311   1.236
 9258TIP3    H127738   5.400   4.396   1.281
 9258TIP3    H227739   5.308   4.285   1.233
 9259TIP3   OH227740   4.070   1.291   2.921
 9259TIP3    H127741   4.101   1.381   2.927
 9259TIP3    H227742   4.077   1.257   3.011
 9260TIP3   OH227743   5.902   1.874   2.120
 9260TIP3    H127744   5.898   1.779   2.124
 9260TIP3    H227745   5.861   1.903   2.202
 9261TIP3   OH227746   6.078   5.634   4.722
 9261TIP3    H127747   6.161   5.652   4.678
 9261TIP3    H227748   6.012   5.677   4.667
 9262TIP3   OH227749   2.151   5.181   4.637
 9262TIP3    H127750   2.239   5.194   4.603
 9262TIP3    H227751   2.137   5.087   4.634
 9263TIP3   OH227752   5.620   0.908   1.212
 9263TIP3    H127753   5.598   0.821   1.177
 9263TIP3    H227754   5.715   0.906   1.220
 9264TIP3   OH227755   5.673   2.620   3.360
 9264TIP3    H127756   5.591   2.597   3.317
 9264TIP3    H227757   5.703   2.538   3.399
 9265TIP3   OH227758   4.358   1.823   2.343
 9265TIP3    H127759   4.430   1.853   2.288
 9265TIP3    H227760   4.340   1.896   2.402
 9266TIP3   OH227761   2.695   6.266   4.209
 9266TIP3    H127762   2.627   6.326   4.178
 9266TIP3    H227763   2.670   6.181   4.171
 9267TIP3   OH227764   5.973   5.622   2.083
 9267TIP3    H127765   5.903   5.641   2.021
 9267TIP3    H227766   6.024   5.552   2.041
 9268TIP3   OH227767   0.495   4.078   4.192
 9268TIP3    H127768   0.496   3.989   4.225
 9268TIP3    H227769   0.532   4.071   4.104
 9269TIP3   OH227770   0.028   0.342   2.009
 9269TIP3    H127771  -0.053   0.293   2.017
 9269TIP3    H227772   0.010   0.427   2.050
 9270TIP3   OH227773   2.423   6.338   4.909
 9270TIP3    H127774   2.489   6.347   4.978
 9270TIP3    H227775   2.470   6.361   4.828
 9271TIP3   OH227776   4.946   1.590   2.908
 9271TIP3    H127777   4.868   1.536   2.914
 9271TIP3    H227778   4.989   1.561   2.828
 9272TIP3   OH227779   4.625   1.363   3.650
 9272TIP3    H127780   4.666   1.277   3.666
 9272TIP3    H227781   4.686   1.407   3.590
 9273TIP3   OH227782   1.602   1.683   0.935
 9273TIP3    H127783   1.620   1.625   1.009
 9273TIP3    H227784   1.599   1.771   0.974
 9274TIP3   OH227785   2.988   2.636   1.305
 9274TIP3    H127786   3.060   2.683   1.346
 9274TIP3    H227787   3.027   2.593   1.229
 9275TIP3   OH227788   4.140   4.224   4.625
 9275TIP3    H127789   4.226   4.238   4.663
 9275TIP3    H227790   4.091   4.304   4.646
 9276TIP3   OH227791   5.097   1.257   1.020
 9276TIP3    H127792   5.009   1.257   0.983
 9276TIP3    H227793   5.140   1.182   0.980
 9277TIP3   OH227794   2.093   0.626   1.725
 9277TIP3    H127795   2.087   0.561   1.655
 9277TIP3    H227796   2.185   0.653   1.724
 9278TIP3   OH227797   6.766   4.912   4.683
 9278TIP3    H127798   6.779   4.821   4.708
 9278TIP3    H227799   6.820   4.923   4.605
 9279TIP3   OH227800   3.809   4.747   4.439
 9279TIP3    H127801   3.722   4.784   4.425
 9279TIP3    H227802   3.860   4.820   4.474
 9280TIP3   OH227803   4.798   0.722   0.877
 9280TIP3    H127804   4.797   0.652   0.942
 9280TIP3    H227805   4.790   0.802   0.929
 9281TIP3   OH227806   3.002   2.980   3.670
 9281TIP3    H127807   3.030   2.924   3.597
 9281TIP3    H227808   2.929   3.031   3.635
 9282TIP3   OH227809   1.374   0.678   1.573
 9282TIP3    H127810   1.321   0.654   1.649
 9282TIP3    H227811   1.456   0.630   1.585
 9283TIP3   OH227812   4.640   6.145   1.984
 9283TIP3    H127813   4.634   6.055   2.017
 9283TIP3    H227814   4.648   6.199   2.063
 9284TIP3   OH227815   5.822   5.638   0.092
 9284TIP3    H127816   5.755   5.698   0.128
 9284TIP3    H227817   5.904   5.669   0.130
 9285TIP3   OH227818   2.211   4.848   0.351
 9285TIP3    H127819   2.146   4.856   0.281
 9285TIP3    H227820   2.229   4.938   0.378
 9286TIP3   OH227821   1.040   2.061   0.879
 9286TIP3    H127822   1.049   2.106   0.795
 9286TIP3    H227823   1.111   1.997   0.879
 9287TIP3   OH227824   0.744   3.328   0.415
 9287TIP3    H127825   0.652   3.305   0.405
 9287TIP3    H227826   0.790   3.271   0.355
 9288TIP3   OH227827   4.523   2.268   1.266
 9288TIP3    H127828   4.565   2.273   1.352
 9288TIP3    H227829   4.430   2.281   1.284
 9289TIP3   OH227830   6.959   0.723   4.874
 9289TIP3    H127831   7.004   0.647   4.912
 9289TIP3    H227832   6.977   0.716   4.780
 9290TIP3   OH227833   1.480   4.657   2.350
 9290TIP3    H127834   1.545   4.591   2.376
 9290TIP3    H227835   1.520   4.740   2.375
 9291TIP3   OH227836   4.398   3.041   5.648
 9291TIP3    H127837   4.440   2.957   5.626
 9291TIP3    H227838   4.456   3.080   5.713
 9292TIP3   OH227839   1.746   0.386   0.790
 9292TIP3    H127840   1.774   0.400   0.880
 9292TIP3    H227841   1.815   0.332   0.751
 9293TIP3   OH227842   5.295   0.378   4.931
 9293TIP3    H127843   5.271   0.374   4.839
 9293TIP3    H227844   5.320   0.288   4.953
 9294TIP3   OH227845   3.377   4.132   0.077
 9294TIP3    H127846   3.347   4.216   0.042
 9294TIP3    H227847   3.364   4.070   0.005
 9295TIP3   OH227848   2.494   6.572   5.513
 9295TIP3    H127849   2.449   6.489   5.533
 9295TIP3    H227850   2.586   6.547   5.503
 9296TIP3   OH227851   7.188   5.271   0.089
 9296TIP3    H127852   7.136   5.190   0.086
 9296TIP3    H227853   7.203   5.293  -0.003
 9297TIP3   OH227854   1.395   6.168   3.748
 9297TIP3    H127855   1.331   6.194   3.815
 9297TIP3    H227856   1.383   6.232   3.677
 9298TIP3   OH227857   6.445   2.683   4.576
 9298TIP3    H127858   6.441   2.592   4.606
 9298TIP3    H227859   6.354   2.707   4.558
 9299TIP3   OH227860   6.682   2.157   5.753
 9299TIP3    H127861   6.765   2.176   5.711
 9299TIP3    H227862   6.618   2.210   5.705
 9300TIP3   OH227863   0.465   3.325   2.393
 9300TIP3    H127864   0.547   3.297   2.352
 9300TIP3    H227865   0.432   3.394   2.336
 9301TIP3   OH227866   2.486   4.911   1.424
 9301TIP3    H127867   2.423   4.964   1.471
 9301TIP3    H227868   2.441   4.886   1.343
 9302TIP3   OH227869   2.481   1.480   0.828
 9302TIP3    H127870   2.531   1.408   0.788
 9302TIP3    H227871   2.502   1.556   0.774
 9303TIP3   OH227872   1.513   1.366   4.343
 9303TIP3    H127873   1.506   1.360   4.248
 9303TIP3    H227874   1.428   1.337   4.376
 9304TIP3   OH227875   6.704   6.620   2.703
 9304TIP3    H127876   6.796   6.600   2.687
 9304TIP3    H227877   6.705   6.704   2.749
 9305TIP3   OH227878   2.025   5.673   5.222
 9305TIP3    H127879   2.039   5.628   5.139
 9305TIP3    H227880   1.993   5.604   5.281
 9306TIP3   OH227881   2.067   1.524   0.284
 9306TIP3    H127882   1.986   1.481   0.314
 9306TIP3    H227883   2.040   1.581   0.213
 9307TIP3   OH227884   4.579   5.712   2.012
 9307TIP3    H127885   4.605   5.802   2.034
 9307TIP3    H227886   4.619   5.696   1.927
 9308TIP3   OH227887   4.110   4.477   2.963
 9308TIP3    H127888   4.152   4.516   2.887
 9308TIP3    H227889   4.025   4.447   2.932
 9309TIP3   OH227890   5.983   4.690   0.813
 9309TIP3    H127891   6.006   4.776   0.849
 9309TIP3    H227892   5.941   4.644   0.885
 9310TIP3   OH227893   4.307   6.789   2.421
 9310TIP3    H127894   4.374   6.728   2.390
 9310TIP3    H227895   4.224   6.748   2.396
 9311TIP3   OH227896   0.932   2.764   4.598
 9311TIP3    H127897   0.932   2.858   4.618
 9311TIP3    H227898   0.972   2.759   4.511
 9312TIP3   OH227899   2.500   4.888   4.229
 9312TIP3    H127900   2.572   4.941   4.194
 9312TIP3    H227901   2.424   4.946   4.227
 9313TIP3   OH227902   4.100   6.262   0.313
 9313TIP3    H127903   4.113   6.253   0.218
 9313TIP3    H227904   4.005   6.266   0.323
 9314TIP3   OH227905   4.749   2.818   0.989
 9314TIP3    H127906   4.777   2.909   0.977
 9314TIP3    H227907   4.830   2.768   0.998
 9315TIP3   OH227908   0.923  -0.047   0.302
 9315TIP3    H127909   0.909  -0.044   0.207
 9315TIP3    H227910   0.848  -0.002   0.339
 9316TIP3   OH227911   0.427   1.969   1.501
 9316TIP3    H127912   0.374   1.907   1.452
 9316TIP3    H227913   0.517   1.938   1.488
 9317TIP3   OH227914   1.953   1.241   3.435
 9317TIP3    H127915   2.005   1.319   3.413
 9317TIP3    H227916   1.970   1.180   3.364
 9318TIP3   OH227917   6.431   1.682   5.086
 9318TIP3    H127918   6.352   1.735   5.101
 9318TIP3    H227919   6.460   1.707   4.998
 9319TIP3   OH227920   6.768   1.197   5.133
 9319TIP3    H127921   6.794   1.124   5.077
 9319TIP3    H227922   6.709   1.158   5.198
 9320TIP3   OH227923   0.840   1.855   0.232
 9320TIP3    H127924   0.919   1.880   0.184
 9320TIP3    H227925   0.817   1.769   0.197
 9321TIP3   OH227926   0.630   5.955   4.546
 9321TIP3    H127927   0.606   5.927   4.635
 9321TIP3    H227928   0.703   5.899   4.522
 9322TIP3   OH227929   4.570   2.792   3.223
 9322TIP3    H127930   4.529   2.821   3.141
 9322TIP3    H227931   4.556   2.865   3.283
 9323TIP3   OH227932   1.040   4.042   4.275
 9323TIP3    H127933   0.955   4.082   4.255
 9323TIP3    H227934   1.025   3.990   4.353
 9324TIP3   OH227935   6.832   2.580   4.160
 9324TIP3    H127936   6.887   2.637   4.105
 9324TIP3    H227937   6.762   2.551   4.101
 9325TIP3   OH227938   0.040   6.443   1.481
 9325TIP3    H127939   0.047   6.386   1.405
 9325TIP3    H227940  -0.054   6.462   1.489
 9326TIP3   OH227941   0.844   0.793   1.908
 9326TIP3    H127942   0.885   0.711   1.936
 9326TIP3    H227943   0.751   0.770   1.896
 9327TIP3   OH227944   1.112   4.332   0.980
 9327TIP3    H127945   1.176   4.261   0.977
 9327TIP3    H227946   1.049   4.311   0.911
 9328TIP3   OH227947   0.045   3.756   3.725
 9328TIP3    H127948   0.080   3.702   3.655
 9328TIP3    H227949   0.006   3.831   3.679
 9329TIP3   OH227950   2.984   0.531   4.868
 9329TIP3    H127951   3.043   0.605   4.851
 9329TIP3    H227952   2.957   0.543   4.959
 9330TIP3   OH227953   3.173   5.920   4.316
 9330TIP3    H127954   3.204   5.900   4.227
 9330TIP3    H227955   3.171   6.015   4.320
 9331TIP3   OH227956   4.259   5.470   0.401
 9331TIP3    H127957   4.259   5.380   0.370
 9331TIP3    H227958   4.252   5.523   0.322
 9332TIP3   OH227959   6.282   2.177   3.230
 9332TIP3    H127960   6.334   2.232   3.171
 9332TIP3    H227961   6.336   2.099   3.243
 9333TIP3   OH227962   3.647   5.653   1.981
 9333TIP3    H127963   3.559   5.691   1.988
 9333TIP3    H227964   3.704   5.717   2.025
 9334TIP3   OH227965   1.258   3.328   5.104
 9334TIP3    H127966   1.252   3.281   5.021
 9334TIP3    H227967   1.223   3.267   5.169
 9335TIP3   OH227968   7.132   4.969   0.737
 9335TIP3    H127969   7.189   4.896   0.712
 9335TIP3    H227970   7.067   4.929   0.795
 9336TIP3   OH227971   2.621   6.102   4.794
 9336TIP3    H127972   2.574   6.175   4.754
 9336TIP3    H227973   2.646   6.133   4.881
 9337TIP3   OH227974   1.620   1.258   4.741
 9337TIP3    H127975   1.634   1.276   4.648
 9337TIP3    H227976   1.636   1.164   4.750
 9338TIP3   OH227977   5.756   0.013   2.432
 9338TIP3    H127978   5.831   0.053   2.387
 9338TIP3    H227979   5.702  -0.023   2.362
 9339TIP3   OH227980   6.489   2.675   0.234
 9339TIP3    H127981   6.474   2.698   0.326
 9339TIP3    H227982   6.532   2.590   0.237
 9340TIP3   OH227983   3.077   1.749   2.887
 9340TIP3    H127984   3.001   1.792   2.849
 9340TIP3    H227985   3.043   1.709   2.967
 9341TIP3   OH227986   3.828   4.551   1.294
 9341TIP3    H127987   3.919   4.526   1.307
 9341TIP3    H227988   3.831   4.617   1.224
 9342TIP3   OH227989   4.185   1.606   5.437
 9342TIP3    H127990   4.146   1.689   5.465
 9342TIP3    H227991   4.279   1.623   5.438
 9343TIP3   OH227992   3.138   2.002   1.368
 9343TIP3    H127993   3.152   2.056   1.446
 9343TIP3    H227994   3.047   2.018   1.345
 9344TIP3   OH227995   2.046   2.309   0.926
 9344TIP3    H127996   2.075   2.363   0.852
 9344TIP3    H227997   1.957   2.341   0.945
 9345TIP3   OH227998   7.090   4.947   3.617
 9345TIP3    H127999   6.999   4.961   3.643
 9345TIP3    H228000   7.120   4.874   3.672
 9346TIP3   OH228001   3.441   0.919   2.974
 9346TIP3    H128002   3.346   0.929   2.975
 9346TIP3    H228003   3.474   1.008   2.962
 9347TIP3   OH228004   0.527   5.309   0.941
 9347TIP3    H128005   0.593   5.240   0.928
 9347TIP3    H228006   0.555   5.353   1.021
 9348TIP3   OH228007   0.424   1.606   4.712
 9348TIP3    H128008   0.423   1.678   4.649
 9348TIP3    H228009   0.333   1.578   4.718
 9349TIP3   OH228010   6.004   2.680   0.235
 9349TIP3    H128011   5.925   2.626   0.226
 9349TIP3    H228012   6.064   2.645   0.169
 9350TIP3   OH228013   3.264   1.240   3.177
 9350TIP3    H128014   3.321   1.163   3.183
 9350TIP3    H228015   3.234   1.254   3.267
 9351TIP3   OH228016   5.568   0.139   4.145
 9351TIP3    H128017   5.478   0.141   4.112
 9351TIP3    H228018   5.600   0.052   4.121
 9352TIP3   OH228019   4.762   2.648   0.384
 9352TIP3    H128020   4.780   2.575   0.324
 9352TIP3    H228021   4.844   2.658   0.434
 9353TIP3   OH228022   0.071   1.986   5.607
 9353TIP3    H128023   0.046   2.075   5.629
 9353TIP3    H228024   0.165   1.992   5.588
 9354TIP3   OH228025   5.325   0.704   4.591
 9354TIP3    H128026   5.293   0.768   4.528
 9354TIP3    H228027   5.414   0.683   4.561
 9355TIP3   OH228028   1.358   6.345   3.048
 9355TIP3    H128029   1.429   6.321   3.107
 9355TIP3    H228030   1.400   6.397   2.979
 9356TIP3   OH228031   2.001   0.215   4.000
 9356TIP3    H128032   2.021   0.130   4.039
 9356TIP3    H228033   1.951   0.261   4.067
 9357TIP3   OH228034   3.168   2.331   1.337
 9357TIP3    H128035   3.137   2.303   1.423
 9357TIP3    H228036   3.130   2.268   1.276
 9358TIP3   OH228037   0.697   1.889   1.777
 9358TIP3    H128038   0.783   1.869   1.742
 9358TIP3    H228039   0.650   1.805   1.776
 9359TIP3   OH228040   1.963   6.793   1.523
 9359TIP3    H128041   2.000   6.767   1.607
 9359TIP3    H228042   1.958   6.712   1.472
 9360TIP3   OH228043   3.609   2.807   2.935
 9360TIP3    H128044   3.532   2.775   2.888
 9360TIP3    H228045   3.574   2.846   3.014
 9361TIP3   OH228046   1.134   3.592   2.351
 9361TIP3    H128047   1.087   3.623   2.428
 9361TIP3    H228048   1.155   3.501   2.370
 9362TIP3   OH228049   3.950   6.215   5.947
 9362TIP3    H128050   3.930   6.129   5.910
 9362TIP3    H228051   4.039   6.207   5.981
 9363TIP3   OH228052   1.082   5.699   1.779
 9363TIP3    H128053   1.090   5.703   1.875
 9363TIP3    H228054   1.084   5.791   1.751
 9364TIP3   OH228055   2.463   0.522   4.033
 9364TIP3    H128056   2.524   0.523   4.107
 9364TIP3    H228057   2.467   0.432   4.000
 9365TIP3   OH228058   1.269   1.762   1.122
 9365TIP3    H128059   1.339   1.704   1.150
 9365TIP3    H228060   1.189   1.719   1.154
 9366TIP3   OH228061   1.770   2.766   3.723
 9366TIP3    H128062   1.737   2.700   3.662
 9366TIP3    H228063   1.746   2.850   3.684
 9367TIP3   OH228064   3.331   0.023   2.635
 9367TIP3    H128065   3.377  -0.033   2.699
 9367TIP3    H228066   3.378   0.009   2.553
 9368TIP3   OH228067   3.261   2.683   1.293
 9368TIP3    H128068   3.298   2.769   1.310
 9368TIP3    H228069   3.293   2.659   1.206
 9369TIP3   OH228070   2.128   3.959   4.046
 9369TIP3    H128071   2.146   4.051   4.025
 9369TIP3    H228072   2.203   3.912   4.010
 9370TIP3   OH228073   1.764   0.696   3.242
 9370TIP3    H128074   1.786   0.709   3.334
 9370TIP3    H228075   1.818   0.622   3.214
 9371TIP3   OH228076   7.035   5.782   4.425
 9371TIP3    H128077   7.002   5.762   4.337
 9371TIP3    H228078   6.998   5.868   4.446
 9372TIP3   OH228079   5.459   3.315   3.909
 9372TIP3    H128080   5.553   3.328   3.920
 9372TIP3    H228081   5.432   3.387   3.852
 9373TIP3   OH228082   7.135   0.307   0.156
 9373TIP3    H128083   7.051   0.341   0.127
 9373TIP3    H228084   7.114   0.248   0.228
 9374TIP3   OH228085   3.242   3.725   0.816
 9374TIP3    H128086   3.229   3.695   0.726
 9374TIP3    H228087   3.228   3.819   0.813
 9375TIP3   OH228088   3.808   4.785   5.131
 9375TIP3    H128089   3.838   4.875   5.143
 9375TIP3    H228090   3.845   4.758   5.047
 9376TIP3   OH228091   2.211   4.157   5.472
 9376TIP3    H128092   2.118   4.135   5.473
 9376TIP3    H228093   2.250   4.095   5.410
 9377TIP3   OH228094   4.479   3.379   0.755
 9377TIP3    H128095   4.427   3.315   0.707
 9377TIP3    H228096   4.448   3.464   0.723
 9378TIP3   OH228097   6.788   1.767   5.516
 9378TIP3    H128098   6.841   1.836   5.477
 9378TIP3    H228099   6.727   1.813   5.575
 9379TIP3   OH228100   2.393   5.124   0.051
 9379TIP3    H128101   2.482   5.156   0.067
 9379TIP3    H228102   2.389   5.111  -0.043
 9380TIP3   OH228103   5.917   3.146   1.442
 9380TIP3    H128104   5.919   3.234   1.405
 9380TIP3    H228105   5.873   3.156   1.526
 9381TIP3   OH228106   0.634   5.817   3.160
 9381TIP3    H128107   0.691   5.751   3.201
 9381TIP3    H228108   0.593   5.770   3.087
 9382TIP3   OH228109   5.805   4.663   1.891
 9382TIP3    H128110   5.717   4.650   1.856
 9382TIP3    H228111   5.863   4.646   1.816
 9383TIP3   OH228112   2.030   5.294   1.372
 9383TIP3    H128113   2.076   5.213   1.395
 9383TIP3    H228114   2.084   5.333   1.303
 9384TIP3   OH228115   3.976   3.867   4.394
 9384TIP3    H128116   4.065   3.853   4.426
 9384TIP3    H228117   3.955   3.956   4.421
 9385TIP3   OH228118   6.766   5.882   2.670
 9385TIP3    H128119   6.743   5.799   2.712
 9385TIP3    H228120   6.694   5.900   2.609
 9386TIP3   OH228121   6.451   5.243   3.561
 9386TIP3    H128122   6.454   5.241   3.657
 9386TIP3    H228123   6.502   5.320   3.537
 9387TIP3   OH228124   2.664   2.818   0.371
 9387TIP3    H128125   2.726   2.853   0.306
 9387TIP3    H228126   2.617   2.749   0.324
 9388TIP3   OH228127   1.162   6.421   5.125
 9388TIP3    H128128   1.229   6.361   5.091
 9388TIP3    H228129   1.139   6.386   5.210
 9389TIP3   OH228130   3.171   4.198   4.244
 9389TIP3    H128131   3.144   4.107   4.230
 9389TIP3    H228132   3.266   4.198   4.228
 9390TIP3   OH228133   0.345   3.182   4.806
 9390TIP3    H128134   0.344   3.096   4.762
 9390TIP3    H228135   0.398   3.168   4.885
 9391TIP3   OH228136   0.016   2.891   1.846
 9391TIP3    H128137   0.052   2.971   1.886
 9391TIP3    H228138   0.035   2.901   1.753
 9392TIP3   OH228139   2.576   0.039   3.681
 9392TIP3    H128140   2.578  -0.053   3.708
 9392TIP3    H228141   2.495   0.073   3.720
 9393TIP3   OH228142   5.806   0.390   2.340
 9393TIP3    H128143   5.822   0.366   2.248
 9393TIP3    H228144   5.875   0.345   2.388
 9394TIP3   OH228145   5.851   5.939   2.193
 9394TIP3    H128146   5.924   5.912   2.137
 9394TIP3    H228147   5.789   5.980   2.133
 9395TIP3   OH228148   2.379   2.871   2.089
 9395TIP3    H128149   2.337   2.802   2.141
 9395TIP3    H228150   2.435   2.917   2.151
 9396TIP3   OH228151   7.077   1.647   2.140
 9396TIP3    H128152   7.001   1.621   2.191
 9396TIP3    H228153   7.147   1.658   2.205
 9397TIP3   OH228154   1.568   2.939   3.317
 9397TIP3    H128155   1.637   3.003   3.301
 9397TIP3    H228156   1.503   2.984   3.370
 9398TIP3   OH228157   3.793   5.826   2.801
 9398TIP3    H128158   3.724   5.892   2.809
 9398TIP3    H228159   3.782   5.771   2.878
 9399TIP3   OH228160   5.260   6.289   2.270
 9399TIP3    H128161   5.264   6.283   2.365
 9399TIP3    H228162   5.326   6.227   2.239
 9400TIP3   OH228163   6.155   5.838   4.256
 9400TIP3    H128164   6.178   5.763   4.202
 9400TIP3    H228165   6.060   5.846   4.248
 9401TIP3   OH228166   0.942   3.047   0.815
 9401TIP3    H128167   0.916   2.981   0.751
 9401TIP3    H228168   0.975   3.120   0.762
 9402TIP3   OH228169   1.018   2.469   1.889
 9402TIP3    H128170   1.082   2.540   1.884
 9402TIP3    H228171   1.068   2.390   1.869
 9403TIP3   OH228172   1.314   0.555   1.222
 9403TIP3    H128173   1.382   0.580   1.159
 9403TIP3    H228174   1.309   0.460   1.214
 9404TIP3   OH228175   0.152   5.386   3.078
 9404TIP3    H128176   0.196   5.344   3.004
 9404TIP3    H228177   0.064   5.405   3.045
 9405TIP3   OH228178   1.084   1.039   4.176
 9405TIP3    H128179   1.086   1.010   4.267
 9405TIP3    H228180   1.174   1.030   4.145
 9406TIP3   OH228181   5.924   1.224   3.306
 9406TIP3    H128182   5.873   1.240   3.227
 9406TIP3    H228183   6.015   1.229   3.276
 9407TIP3   OH228184   4.069   2.797   4.581
 9407TIP3    H128185   4.117   2.853   4.642
 9407TIP3    H228186   3.977   2.822   4.592
 9408TIP3   OH228187   6.884   1.412   0.533
 9408TIP3    H128188   6.845   1.340   0.484
 9408TIP3    H228189   6.912   1.474   0.466
 9409TIP3   OH228190   5.431   4.559   5.041
 9409TIP3    H128191   5.397   4.524   4.958
 9409TIP3    H228192   5.479   4.487   5.081
 9410TIP3   OH228193   2.811   2.028   2.104
 9410TIP3    H128194   2.816   1.935   2.081
 9410TIP3    H228195   2.769   2.030   2.190
 9411TIP3   OH228196   4.014   6.535   1.457
 9411TIP3    H128197   3.941   6.477   1.436
 9411TIP3    H228198   3.976   6.623   1.456
 9412TIP3   OH228199   6.161   1.326   3.184
 9412TIP3    H128200   6.150   1.408   3.231
 9412TIP3    H228201   6.243   1.336   3.136
 9413TIP3   OH228202   3.953   6.022   3.059
 9413TIP3    H128203   3.927   6.011   2.968
 9413TIP3    H228204   3.942   6.116   3.076
 9414TIP3   OH228205   1.610   2.380   5.151
 9414TIP3    H128206   1.649   2.407   5.234
 9414TIP3    H228207   1.637   2.447   5.088
 9415TIP3   OH228208   3.603   3.181   4.263
 9415TIP3    H128209   3.509   3.200   4.270
 9415TIP3    H228210   3.627   3.213   4.176
 9416TIP3   OH228211   3.599   5.042   2.639
 9416TIP3    H128212   3.537   5.111   2.618
 9416TIP3    H228213   3.677   5.088   2.669
 9417TIP3   OH228214   3.822   2.908   4.577
 9417TIP3    H128215   3.766   2.984   4.569
 9417TIP3    H228216   3.783   2.843   4.518
 9418TIP3   OH228217   1.805   5.867   0.678
 9418TIP3    H128218   1.884   5.903   0.637
 9418TIP3    H228219   1.817   5.772   0.673
 9419TIP3   OH228220   6.961   3.341   4.136
 9419TIP3    H128221   6.877   3.375   4.104
 9419TIP3    H228222   6.971   3.378   4.223
 9420TIP3   OH228223   4.958   4.441   0.161
 9420TIP3    H128224   5.049   4.412   0.163
 9420TIP3    H228225   4.947   4.492   0.241
 9421TIP3   OH228226   1.675   3.109   0.993
 9421TIP3    H128227   1.672   3.199   1.025
 9421TIP3    H228228   1.617   3.108   0.917
 9422TIP3   OH228229   0.533   0.226   2.212
 9422TIP3    H128230   0.586   0.295   2.172
 9422TIP3    H228231   0.442   0.257   2.205
 9423TIP3   OH228232   1.781   5.879   3.150
 9423TIP3    H128233   1.872   5.894   3.124
 9423TIP3    H228234   1.730   5.941   3.097
 9424TIP3   OH228235   3.265   2.952   5.270
 9424TIP3    H128236   3.359   2.965   5.258
 9424TIP3    H228237   3.253   2.954   5.365
 9425TIP3   OH228238   4.781   3.115   1.185
 9425TIP3    H128239   4.816   3.169   1.115
 9425TIP3    H228240   4.726   3.174   1.236
 9426TIP3   OH228241   1.851   4.803   0.354
 9426TIP3    H128242   1.765   4.846   0.345
 9426TIP3    H228243   1.894   4.820   0.270
 9427TIP3   OH228244   6.371   4.075   4.846
 9427TIP3    H128245   6.319   4.047   4.771
 9427TIP3    H228246   6.342   4.165   4.863
 9428TIP3   OH228247   0.960   6.338   1.214
 9428TIP3    H128248   1.032   6.363   1.156
 9428TIP3    H228249   0.981   6.249   1.242
 9429TIP3   OH228250   7.085   2.297   2.277
 9429TIP3    H128251   7.067   2.319   2.369
 9429TIP3    H228252   7.004   2.321   2.231
 9430TIP3   OH228253   3.462   5.916   4.522
 9430TIP3    H128254   3.408   5.966   4.584
 9430TIP3    H228255   3.402   5.851   4.486
 9431TIP3   OH228256   3.261   4.922   4.114
 9431TIP3    H128257   3.201   4.881   4.053
 9431TIP3    H228258   3.267   5.013   4.085
 9432TIP3   OH228259   3.319   0.462   5.777
 9432TIP3    H128260   3.266   0.385   5.796
 9432TIP3    H228261   3.406   0.441   5.811
 9433TIP3   OH228262   5.200   6.376   0.107
 9433TIP3    H128263   5.259   6.376   0.031
 9433TIP3    H228264   5.240   6.314   0.168
 9434TIP3   OH228265   0.160   5.268   4.505
 9434TIP3    H128266   0.250   5.255   4.534
 9434TIP3    H228267   0.144   5.361   4.519
 9435TIP3   OH228268   1.639   4.040   3.279
 9435TIP3    H128269   1.709   3.989   3.320
 9435TIP3    H228270   1.594   3.977   3.223
 9436TIP3   OH228271   1.049   3.164   1.302
 9436TIP3    H128272   0.992   3.164   1.380
 9436TIP3    H228273   1.048   3.073   1.272
 9437TIP3   OH228274   1.701   2.551   0.569
 9437TIP3    H128275   1.782   2.573   0.523
 9437TIP3    H228276   1.634   2.606   0.527
 9438TIP3   OH228277   4.146  -0.017   4.707
 9438TIP3    H128278   4.194   0.061   4.679
 9438TIP3    H228279   4.091   0.013   4.779
 9439TIP3   OH228280   1.600   2.191   1.654
 9439TIP3    H128281   1.684   2.204   1.698
 9439TIP3    H228282   1.561   2.278   1.650
 9440TIP3   OH228283   3.061   6.029   3.131
 9440TIP3    H128284   3.060   6.124   3.118
 9440TIP3    H228285   2.974   6.000   3.103
 9441TIP3   OH228286   3.789   5.517   1.031
 9441TIP3    H128287   3.808   5.497   0.939
 9441TIP3    H228288   3.868   5.493   1.078
 9442TIP3   OH228289   0.701   4.342   0.625
 9442TIP3    H128290   0.680   4.406   0.557
 9442TIP3    H228291   0.622   4.289   0.634
 9443TIP3   OH228292   3.554   4.810   0.263
 9443TIP3    H128293   3.541   4.791   0.356
 9443TIP3    H228294   3.620   4.746   0.236
 9444TIP3   OH228295   6.466   0.349   0.339
 9444TIP3    H128296   6.416   0.276   0.303
 9444TIP3    H228297   6.464   0.335   0.433
 9445TIP3   OH228298   6.642   0.607   2.052
 9445TIP3    H128299   6.597   0.651   2.124
 9445TIP3    H228300   6.599   0.522   2.044
 9446TIP3   OH228301   6.619   0.261   4.587
 9446TIP3    H128302   6.688   0.324   4.607
 9446TIP3    H228303   6.660   0.176   4.603
 9447TIP3   OH228304   3.570   4.943   2.905
 9447TIP3    H128305   3.611   5.027   2.887
 9447TIP3    H228306   3.549   4.907   2.819
 9448TIP3   OH228307   5.778   2.127   2.355
 9448TIP3    H128308   5.851   2.180   2.389
 9448TIP3    H228309   5.767   2.057   2.420
 9449TIP3   OH228310   3.564   1.907   5.634
 9449TIP3    H128311   3.550   1.991   5.676
 9449TIP3    H228312   3.491   1.853   5.663
 9450TIP3   OH228313   6.619   1.190   4.354
 9450TIP3    H128314   6.631   1.119   4.290
 9450TIP3    H228315   6.531   1.223   4.337
 9451TIP3   OH228316   6.326   5.316   2.093
 9451TIP3    H128317   6.399   5.335   2.152
 9451TIP3    H228318   6.344   5.229   2.059
 9452TIP3   OH228319   4.951   1.382   5.524
 9452TIP3    H128320   4.930   1.332   5.445
 9452TIP3    H228321   4.970   1.315   5.590
 9453TIP3   OH228322   3.637   2.055   4.591
 9453TIP3    H128323   3.664   2.080   4.679
 9453TIP3    H228324   3.644   1.960   4.590
 9454TIP3   OH228325   6.066   1.851   4.441
 9454TIP3    H128326   6.010   1.867   4.365
 9454TIP3    H228327   6.010   1.868   4.517
 9455TIP3   OH228328   6.601   1.460   4.204
 9455TIP3    H128329   6.661   1.401   4.250
 9455TIP3    H228330   6.647   1.543   4.198
 9456TIP3   OH228331   5.558   4.625   1.745
 9456TIP3    H128332   5.503   4.655   1.817
 9456TIP3    H228333   5.504   4.637   1.667
 9457TIP3   OH228334   6.600   6.686   4.033
 9457TIP3    H128335   6.681   6.725   4.066
 9457TIP3    H228336   6.603   6.700   3.938
 9458TIP3   OH228337   5.758   5.120   5.328
 9458TIP3    H128338   5.722   5.038   5.293
 9458TIP3    H228339   5.769   5.176   5.251
 9459TIP3   OH228340   4.872   2.012   4.361
 9459TIP3    H128341   4.830   2.054   4.286
 9459TIP3    H228342   4.845   1.920   4.355
 9460TIP3   OH228343   2.581   4.389   2.933
 9460TIP3    H128344   2.570   4.466   2.989
 9460TIP3    H228345   2.516   4.400   2.863
 9461TIP3   OH228346   3.901   2.249   4.871
 9461TIP3    H128347   3.837   2.209   4.929
 9461TIP3    H228348   3.951   2.175   4.837
 9462TIP3   OH228349   0.107   3.707   5.929
 9462TIP3    H128350   0.063   3.689   5.846
 9462TIP3    H228351   0.119   3.802   5.931
 9463TIP3   OH228352   1.557   0.793   2.312
 9463TIP3    H128353   1.626   0.730   2.293
 9463TIP3    H228354   1.602   0.877   2.316
 9464TIP3   OH228355   3.191   0.876   2.861
 9464TIP3    H128356   3.216   0.794   2.818
 9464TIP3    H228357   3.185   0.939   2.789
 9465TIP3   OH228358   5.414   0.168   3.450
 9465TIP3    H128359   5.408   0.089   3.505
 9465TIP3    H228360   5.408   0.241   3.512
 9466TIP3   OH228361   1.188   5.887   2.206
 9466TIP3    H128362   1.256   5.869   2.142
 9466TIP3    H228363   1.163   5.979   2.189
 9467TIP3   OH228364   7.143   0.777   2.738
 9467TIP3    H128365   7.073   0.780   2.674
 9467TIP3    H228366   7.164   0.683   2.746
 9468TIP3   OH228367   5.203   0.956   2.375
 9468TIP3    H128368   5.127   0.976   2.430
 9468TIP3    H228369   5.251   0.888   2.423
 9469TIP3   OH228370   3.466   1.540   2.440
 9469TIP3    H128371   3.517   1.488   2.377
 9469TIP3    H228372   3.510   1.624   2.443
 9470TIP3   OH228373   3.782   1.917   5.791
 9470TIP3    H128374   3.852   1.864   5.752
 9470TIP3    H228375   3.704   1.893   5.743
 9471TIP3   OH228376   6.791   1.426   3.059
 9471TIP3    H128377   6.819   1.377   3.136
 9471TIP3    H228378   6.757   1.360   3.000
 9472TIP3   OH228379   0.752   3.385   0.706
 9472TIP3    H128380   0.722   3.386   0.615
 9472TIP3    H228381   0.694   3.322   0.750
 9473TIP3   OH228382   5.880   4.714   4.105
 9473TIP3    H128383   5.802   4.716   4.050
 9473TIP3    H228384   5.915   4.803   4.099
 9474TIP3   OH228385   7.003   3.758   1.284
 9474TIP3    H128386   7.084   3.808   1.299
 9474TIP3    H228387   6.942   3.792   1.349
 9475TIP3   OH228388   6.754   6.384   3.519
 9475TIP3    H128389   6.704   6.326   3.461
 9475TIP3    H228390   6.786   6.453   3.461
 9476TIP3   OH228391   0.997   2.561   5.831
 9476TIP3    H128392   0.904   2.549   5.849
 9476TIP3    H228393   1.041   2.502   5.893
 9477TIP3   OH228394   3.603   1.946   3.287
 9477TIP3    H128395   3.550   1.911   3.216
 9477TIP3    H228396   3.602   2.041   3.274
 9478TIP3   OH228397   0.539   1.493   3.445
 9478TIP3    H128398   0.560   1.577   3.404
 9478TIP3    H228399   0.546   1.429   3.374
 9479TIP3   OH228400   4.099   0.391   0.244
 9479TIP3    H128401   4.079   0.483   0.258
 9479TIP3    H228402   4.014   0.350   0.227
 9480TIP3   OH228403   5.631   5.829   2.769
 9480TIP3    H128404   5.558   5.890   2.785
 9480TIP3    H228405   5.612   5.754   2.825
 9481TIP3   OH228406   0.872   0.922   1.154
 9481TIP3    H128407   0.956   0.901   1.113
 9481TIP3    H228408   0.807   0.875   1.101
 9482TIP3   OH228409   6.939   1.623   0.391
 9482TIP3    H128410   7.002   1.661   0.329
 9482TIP3    H228411   6.877   1.694   0.408
 9483TIP3   OH228412   3.152   2.178   0.352
 9483TIP3    H128413   3.225   2.118   0.339
 9483TIP3    H228414   3.147   2.228   0.270
 9484TIP3   OH228415   2.379   2.640   1.915
 9484TIP3    H128416   2.400   2.719   1.965
 9484TIP3    H228417   2.293   2.613   1.948
 9485TIP3   OH228418   3.180   2.681   2.156
 9485TIP3    H128419   3.189   2.586   2.154
 9485TIP3    H228420   3.178   2.706   2.063
 9486TIP3   OH228421   3.222   4.831   0.350
 9486TIP3    H128422   3.263   4.747   0.368
 9486TIP3    H228423   3.138   4.827   0.395
 9487TIP3   OH228424   2.193   6.593   0.328
 9487TIP3    H128425   2.160   6.662   0.386
 9487TIP3    H228426   2.287   6.592   0.343
 9488TIP3   OH228427   3.408   0.623   0.313
 9488TIP3    H128428   3.439   0.650   0.227
 9488TIP3    H228429   3.312   0.622   0.305
 9489TIP3   OH228430   1.848   6.744   0.803
 9489TIP3    H128431   1.763   6.760   0.843
 9489TIP3    H228432   1.883   6.667   0.849
 9490TIP3   OH228433   6.429   5.918   2.309
 9490TIP3    H128434   6.466   5.854   2.248
 9490TIP3    H228435   6.338   5.929   2.280
 9491TIP3   OH228436   1.336   0.344   4.520
 9491TIP3    H128437   1.298   0.357   4.434
 9491TIP3    H228438   1.420   0.300   4.503
 9492TIP3   OH228439   5.962   3.922   2.602
 9492TIP3    H128440   5.873   3.925   2.637
 9492TIP3    H228441   6.005   4.000   2.637
 9493TIP3   OH228442   3.721   2.950   4.300
 9493TIP3    H128443   3.658   2.897   4.251
 9493TIP3    H228444   3.691   3.040   4.288
 9494TIP3   OH228445   0.678   6.570   0.346
 9494TIP3    H128446   0.720   6.486   0.363
 9494TIP3    H228447   0.666   6.573   0.251
 9495TIP3   OH228448   0.821   3.489   1.075
 9495TIP3    H128449   0.890   3.449   1.022
 9495TIP3    H228450   0.741   3.477   1.025
 9496TIP3   OH228451   5.984   1.415   4.050
 9496TIP3    H128452   5.922   1.367   3.995
 9496TIP3    H228453   6.058   1.433   3.992
 9497TIP3   OH228454   1.452   0.734   1.981
 9497TIP3    H128455   1.467   0.672   1.909
 9497TIP3    H228456   1.393   0.687   2.040
 9498TIP3   OH228457   4.716   5.787   0.752
 9498TIP3    H128458   4.763   5.870   0.755
 9498TIP3    H228459   4.623   5.812   0.744
 9499TIP3   OH228460   6.167   1.234   3.797
 9499TIP3    H128461   6.138   1.320   3.765
 9499TIP3    H228462   6.244   1.253   3.850
 9500TIP3   OH228463   3.481   6.692   5.549
 9500TIP3    H128464   3.463   6.671   5.457
 9500TIP3    H228465   3.567   6.653   5.567
 9501TIP3   OH228466   0.432   5.068   3.742
 9501TIP3    H128467   0.435   5.151   3.790
 9501TIP3    H228468   0.341   5.059   3.715
 9502TIP3   OH228469   4.041   4.534   5.566
 9502TIP3    H128470   3.965   4.476   5.558
 9502TIP3    H228471   4.018   4.594   5.637
 9503TIP3   OH228472   3.122   6.462   5.264
 9503TIP3    H128473   3.180   6.537   5.279
 9503TIP3    H228474   3.092   6.473   5.174
 9504TIP3   OH228475   0.464   2.889   5.265
 9504TIP3    H128476   0.414   2.846   5.334
 9504TIP3    H228477   0.406   2.886   5.189
 9505TIP3   OH228478   2.082   2.278   2.092
 9505TIP3    H128479   2.047   2.190   2.079
 9505TIP3    H228480   2.177   2.265   2.093
 9506TIP3   OH228481   2.336   5.631   4.031
 9506TIP3    H128482   2.306   5.664   4.116
 9506TIP3    H228483   2.381   5.706   3.991
 9507TIP3   OH228484   2.282   5.085   3.414
 9507TIP3    H128485   2.198   5.077   3.370
 9507TIP3    H228486   2.261   5.131   3.496
 9508TIP3   OH228487   6.275   3.749   2.163
 9508TIP3    H128488   6.247   3.706   2.082
 9508TIP3    H228489   6.195   3.757   2.215
 9509TIP3   OH228490   0.912   2.622   0.681
 9509TIP3    H128491   0.906   2.661   0.768
 9509TIP3    H228492   0.948   2.535   0.696
 9510TIP3   OH228493   3.968   3.313   5.534
 9510TIP3    H128494   4.059   3.286   5.519
 9510TIP3    H228495   3.920   3.232   5.547
 9511TIP3   OH228496   2.181   5.337   2.219
 9511TIP3    H128497   2.165   5.293   2.135
 9511TIP3    H228498   2.151   5.274   2.285
 9512TIP3   OH228499   2.621   4.315   1.668
 9512TIP3    H128500   2.613   4.315   1.763
 9512TIP3    H228501   2.531   4.317   1.636
 9513TIP3   OH228502   6.988   6.022   4.887
 9513TIP3    H128503   7.080   6.033   4.912
 9513TIP3    H228504   6.970   6.094   4.827
 9514TIP3   OH228505   4.120   5.860   4.049
 9514TIP3    H128506   4.185   5.839   3.982
 9514TIP3    H228507   4.037   5.862   4.002
 9515TIP3   OH228508   3.608   2.591   3.289
 9515TIP3    H128509   3.519   2.615   3.261
 9515TIP3    H228510   3.632   2.519   3.230
 9516TIP3   OH228511   6.283   4.684   4.207
 9516TIP3    H128512   6.284   4.724   4.294
 9516TIP3    H228513   6.311   4.754   4.148
 9517TIP3   OH228514   2.109   6.691   5.804
 9517TIP3    H128515   2.195   6.674   5.765
 9517TIP3    H228516   2.047   6.651   5.744
 9518TIP3   OH228517   5.240   2.131   3.874
 9518TIP3    H128518   5.169   2.121   3.810
 9518TIP3    H228519   5.267   2.042   3.894
 9519TIP3   OH228520   4.068   3.084   0.570
 9519TIP3    H128521   4.004   3.053   0.634
 9519TIP3    H228522   4.018   3.097   0.490
 9520TIP3   OH228523   0.502   3.528   5.579
 9520TIP3    H128524   0.411   3.526   5.607
 9520TIP3    H228525   0.531   3.437   5.585
 9521TIP3   OH228526   4.932   2.732   4.403
 9521TIP3    H128527   4.955   2.775   4.486
 9521TIP3    H228528   4.969   2.790   4.336
 9522TIP3   OH228529   5.077   4.072   0.527
 9522TIP3    H128530   5.126   3.995   0.557
 9522TIP3    H228531   5.122   4.146   0.568
 9523TIP3   OH228532   0.521   2.673   2.478
 9523TIP3    H128533   0.509   2.756   2.522
 9523TIP3    H228534   0.441   2.661   2.426
 9524TIP3   OH228535   6.394   3.340   1.154
 9524TIP3    H128536   6.478   3.384   1.165
 9524TIP3    H228537   6.370   3.312   1.242
 9525TIP3   OH228538   3.363   0.010   0.673
 9525TIP3    H128539   3.380   0.044   0.586
 9525TIP3    H228540   3.446   0.023   0.720
 9526TIP3   OH228541   1.568   2.962   2.668
 9526TIP3    H128542   1.525   2.879   2.692
 9526TIP3    H228543   1.504   3.029   2.691
 9527TIP3   OH228544   0.827   3.197   2.539
 9527TIP3    H128545   0.873   3.265   2.589
 9527TIP3    H228546   0.758   3.167   2.597
 9528TIP3   OH228547   1.672   0.419   5.472
 9528TIP3    H128548   1.646   0.340   5.424
 9528TIP3    H228549   1.752   0.393   5.518
 9529TIP3   OH228550   1.960   1.280   5.869
 9529TIP3    H128551   2.022   1.352   5.858
 9529TIP3    H228552   2.011   1.201   5.851
 9530TIP3   OH228553   6.190   6.043   0.240
 9530TIP3    H128554   6.232   6.129   0.248
 9530TIP3    H228555   6.158   6.024   0.328
 9531TIP3   OH228556   0.066   6.316   2.940
 9531TIP3    H128557  -0.023   6.328   2.905
 9531TIP3    H228558   0.052   6.282   3.029
 9532TIP3   OH228559   5.018   3.788   0.958
 9532TIP3    H128560   4.990   3.879   0.965
 9532TIP3    H228561   4.941   3.738   0.988
 9533TIP3   OH228562   3.840   4.238   3.904
 9533TIP3    H128563   3.783   4.313   3.921
 9533TIP3    H228564   3.907   4.244   3.972
 9534TIP3   OH228565   2.009   2.609   4.231
 9534TIP3    H128566   2.054   2.666   4.294
 9534TIP3    H228567   2.059   2.619   4.150
 9535TIP3   OH228568   3.745   2.287   2.723
 9535TIP3    H128569   3.682   2.253   2.660
 9535TIP3    H228570   3.807   2.337   2.670
 9536TIP3   OH228571   3.311   6.723   3.073
 9536TIP3    H128572   3.261   6.648   3.105
 9536TIP3    H228573   3.399   6.710   3.107
 9537TIP3   OH228574   2.357   3.456   1.845
 9537TIP3    H128575   2.295   3.474   1.915
 9537TIP3    H228576   2.411   3.535   1.839
 9538TIP3   OH228577   6.667   5.688   1.439
 9538TIP3    H128578   6.723   5.739   1.497
 9538TIP3    H228579   6.723   5.666   1.365
 9539TIP3   OH228580   0.359   2.746   1.864
 9539TIP3    H128581   0.347   2.729   1.957
 9539TIP3    H228582   0.389   2.837   1.860
 9540TIP3   OH228583   6.570   0.383   5.139
 9540TIP3    H128584   6.558   0.419   5.226
 9540TIP3    H228585   6.626   0.446   5.094
 9541TIP3   OH228586   5.931   5.130   2.953
 9541TIP3    H128587   5.904   5.103   2.865
 9541TIP3    H228588   5.893   5.063   3.011
 9542TIP3   OH228589   5.197   0.770   0.252
 9542TIP3    H128590   5.222   0.685   0.288
 9542TIP3    H228591   5.266   0.791   0.189
 9543TIP3   OH228592   6.898   5.875   3.114
 9543TIP3    H128593   6.837   5.829   3.056
 9543TIP3    H228594   6.957   5.921   3.055
 9544TIP3   OH228595   4.838   5.519   0.779
 9544TIP3    H128596   4.817   5.607   0.746
 9544TIP3    H228597   4.759   5.468   0.762
 9545TIP3   OH228598   1.393   6.795   1.375
 9545TIP3    H128599   1.450   6.821   1.303
 9545TIP3    H228600   1.312   6.766   1.333
 9546TIP3   OH228601   4.223   1.132   2.542
 9546TIP3    H128602   4.141   1.155   2.586
 9546TIP3    H228603   4.201   1.055   2.488
 9547TIP3   OH228604   1.598   3.399   1.728
 9547TIP3    H128605   1.644   3.319   1.752
 9547TIP3    H228606   1.665   3.467   1.734
 9548TIP3   OH228607   3.249   3.626   2.644
 9548TIP3    H128608   3.295   3.595   2.721
 9548TIP3    H228609   3.182   3.685   2.678
 9549TIP3   OH228610   2.416   2.862   1.369
 9549TIP3    H128611   2.498   2.908   1.349
 9549TIP3    H228612   2.374   2.916   1.436
 9550TIP3   OH228613   5.514   6.757   5.727
 9550TIP3    H128614   5.474   6.779   5.643
 9550TIP3    H228615   5.465   6.680   5.757
 9551TIP3   OH228616   1.121   1.144   1.447
 9551TIP3    H128617   1.182   1.130   1.375
 9551TIP3    H228618   1.073   1.062   1.454
 9552TIP3   OH228619   2.708   6.290   5.013
 9552TIP3    H128620   2.738   6.381   5.015
 9552TIP3    H228621   2.787   6.238   5.030
 9553TIP3   OH228622   1.904   2.562   0.382
 9553TIP3    H128623   1.911   2.471   0.352
 9553TIP3    H228624   1.858   2.607   0.311
 9554TIP3   OH228625   6.573   4.498   1.464
 9554TIP3    H128626   6.556   4.561   1.534
 9554TIP3    H228627   6.648   4.447   1.495
 9555TIP3   OH228628   5.381   1.914   2.646
 9555TIP3    H128629   5.407   1.826   2.619
 9555TIP3    H228630   5.346   1.954   2.566
 9556TIP3   OH228631   5.398   0.105   0.069
 9556TIP3    H128632   5.371   0.018   0.040
 9556TIP3    H228633   5.484   0.118   0.030
 9557TIP3   OH228634   0.835   6.686   1.762
 9557TIP3    H128635   0.903   6.752   1.779
 9557TIP3    H228636   0.766   6.734   1.717
 9558TIP3   OH228637   4.942   0.916   0.506
 9558TIP3    H128638   4.961   0.825   0.531
 9558TIP3    H228639   4.931   0.913   0.411
 9559TIP3   OH228640   6.556   0.358   0.874
 9559TIP3    H128641   6.541   0.400   0.959
 9559TIP3    H228642   6.500   0.406   0.813
 9560TIP3   OH228643   7.030   5.081   2.908
 9560TIP3    H128644   7.066   5.168   2.890
 9560TIP3    H228645   7.052   5.029   2.831
 9561TIP3   OH228646   6.868   1.572   3.638
 9561TIP3    H128647   6.959   1.601   3.650
 9561TIP3    H228648   6.863   1.489   3.685
 9562TIP3   OH228649   4.090   4.214   5.305
 9562TIP3    H128650   4.000   4.213   5.338
 9562TIP3    H228651   4.087   4.271   5.228
 9563TIP3   OH228652   5.376   3.812   2.802
 9563TIP3    H128653   5.432   3.743   2.766
 9563TIP3    H228654   5.406   3.892   2.759
 9564TIP3   OH228655   5.438   1.570   5.679
 9564TIP3    H128656   5.426   1.498   5.616
 9564TIP3    H228657   5.477   1.640   5.627
 9565TIP3   OH228658   3.988   5.860   3.271
 9565TIP3    H128659   3.958   5.902   3.191
 9565TIP3    H228660   4.009   5.932   3.330
 9566TIP3   OH228661   1.386   2.678   4.772
 9566TIP3    H128662   1.296   2.708   4.773
 9566TIP3    H228663   1.439   2.756   4.788
 9567TIP3   OH228664   5.256   2.638   1.427
 9567TIP3    H128665   5.305   2.588   1.492
 9567TIP3    H228666   5.313   2.712   1.405
 9568TIP3   OH228667   3.188   3.793   3.012
 9568TIP3    H128668   3.207   3.887   3.008
 9568TIP3    H228669   3.095   3.787   2.988
 9569TIP3   OH228670   1.108   0.766   3.570
 9569TIP3    H128671   1.166   0.789   3.497
 9569TIP3    H228672   1.138   0.679   3.598
 9570TIP3   OH228673   7.208   5.139   3.291
 9570TIP3    H128674   7.219   5.195   3.368
 9570TIP3    H228675   7.296   5.132   3.254
 9571TIP3   OH228676   5.881   5.693   2.683
 9571TIP3    H128677   5.812   5.730   2.738
 9571TIP3    H228678   5.857   5.718   2.594
 9572TIP3   OH228679   6.710   4.112   1.417
 9572TIP3    H128680   6.779   4.109   1.351
 9572TIP3    H228681   6.632   4.139   1.369
 9573TIP3   OH228682   7.215   0.945   4.255
 9573TIP3    H128683   7.257   1.021   4.295
 9573TIP3    H228684   7.150   0.982   4.195
 9574TIP3   OH228685   5.486   6.094   3.536
 9574TIP3    H128686   5.502   6.188   3.543
 9574TIP3    H228687   5.555   6.054   3.589
 9575TIP3   OH228688   4.767   2.214   2.816
 9575TIP3    H128689   4.679   2.243   2.841
 9575TIP3    H228690   4.791   2.149   2.883
 9576TIP3   OH228691   1.356   6.632   3.585
 9576TIP3    H128692   1.345   6.608   3.677
 9576TIP3    H228693   1.280   6.687   3.565
 9577TIP3   OH228694   1.968   1.208   2.274
 9577TIP3    H128695   2.013   1.290   2.252
 9577TIP3    H228696   1.896   1.204   2.210
 9578TIP3   OH228697   0.368   5.596   4.563
 9578TIP3    H128698   0.381   5.613   4.657
 9578TIP3    H228699   0.294   5.651   4.538
 9579TIP3   OH228700   3.114   2.185   4.500
 9579TIP3    H128701   3.203   2.186   4.464
 9579TIP3    H228702   3.122   2.232   4.583
 9580TIP3   OH228703   2.110   3.624   3.869
 9580TIP3    H128704   2.170   3.618   3.944
 9580TIP3    H228705   2.078   3.535   3.857
 9581TIP3   OH228706   2.614   6.635   1.715
 9581TIP3    H128707   2.554   6.691   1.764
 9581TIP3    H228708   2.696   6.685   1.710
 9582TIP3   OH228709   4.718   2.135   4.147
 9582TIP3    H128710   4.701   2.063   4.086
 9582TIP3    H228711   4.678   2.212   4.106
 9583TIP3   OH228712   4.169   1.216   5.060
 9583TIP3    H128713   4.262   1.195   5.063
 9583TIP3    H228714   4.160   1.273   4.984
 9584TIP3   OH228715   0.834   0.326   4.637
 9584TIP3    H128716   0.840   0.241   4.680
 9584TIP3    H228717   0.857   0.308   4.546
 9585TIP3   OH228718   5.305   6.476   3.570
 9585TIP3    H128719   5.309   6.484   3.665
 9585TIP3    H228720   5.299   6.566   3.538
 9586TIP3   OH228721   3.781   2.666   0.492
 9586TIP3    H128722   3.861   2.660   0.545
 9586TIP3    H228723   3.771   2.579   0.454
 9587TIP3   OH228724   7.090   2.291   1.545
 9587TIP3    H128725   7.124   2.380   1.552
 9587TIP3    H228726   7.168   2.235   1.546
 9588TIP3   OH228727   2.345   0.081   1.082
 9588TIP3    H128728   2.423   0.122   1.120
 9588TIP3    H228729   2.319   0.016   1.147
 9589TIP3   OH228730   0.332   5.025   5.798
 9589TIP3    H128731   0.293   5.111   5.810
 9589TIP3    H228732   0.275   4.965   5.846
 9590TIP3   OH228733   2.668   3.789   3.363
 9590TIP3    H128734   2.728   3.758   3.296
 9590TIP3    H228735   2.591   3.733   3.354
 9591TIP3   OH228736   6.307   1.384   5.633
 9591TIP3    H128737   6.374   1.448   5.611
 9591TIP3    H228738   6.253   1.376   5.554
 9592TIP3   OH228739   4.908   5.903   1.907
 9592TIP3    H128740   4.986   5.848   1.900
 9592TIP3    H228741   4.935   5.986   1.868
 9593TIP3   OH228742   6.993   2.784   0.124
 9593TIP3    H128743   7.078   2.755   0.157
 9593TIP3    H228744   6.997   2.880   0.128
 9594TIP3   OH228745   5.745   0.726   1.518
 9594TIP3    H128746   5.679   0.794   1.531
 9594TIP3    H228747   5.742   0.707   1.424
 9595TIP3   OH228748   6.214   1.846   5.110
 9595TIP3    H128749   6.140   1.876   5.058
 9595TIP3    H228750   6.256   1.926   5.141
 9596TIP3   OH228751   5.830   2.198   2.074
 9596TIP3    H128752   5.758   2.151   2.115
 9596TIP3    H228753   5.862   2.257   2.142
 9597TIP3   OH228754   2.093   2.525   1.963
 9597TIP3    H128755   2.070   2.594   2.026
 9597TIP3    H228756   2.080   2.443   2.011
 9598TIP3   OH228757   0.670   4.438   1.962
 9598TIP3    H128758   0.594   4.494   1.982
 9598TIP3    H228759   0.646   4.393   1.881
 9599TIP3   OH228760   3.057   5.124   4.760
 9599TIP3    H128761   3.102   5.193   4.809
 9599TIP3    H228762   3.124   5.089   4.701
 9600TIP3   OH228763   1.109   5.571   4.511
 9600TIP3    H128764   1.197   5.596   4.539
 9600TIP3    H228765   1.114   5.475   4.501
 9601TIP3   OH228766   5.604   4.278   1.983
 9601TIP3    H128767   5.675   4.216   1.966
 9601TIP3    H228768   5.644   4.348   2.034
 9602TIP3   OH228769   5.908   1.600   1.252
 9602TIP3    H128770   5.846   1.651   1.305
 9602TIP3    H228771   5.867   1.513   1.245
 9603TIP3   OH228772   3.776   6.564   4.362
 9603TIP3    H128773   3.811   6.520   4.439
 9603TIP3    H228774   3.847   6.620   4.331
 9604TIP3   OH228775   2.152   2.598   5.323
 9604TIP3    H128776   2.070   2.589   5.275
 9604TIP3    H228777   2.193   2.511   5.318
 9605TIP3   OH228778   1.949   5.281   5.752
 9605TIP3    H128779   1.980   5.246   5.836
 9605TIP3    H228780   1.891   5.212   5.718
 9606TIP3   OH228781   1.840   0.747   5.191
 9606TIP3    H128782   1.749   0.724   5.214
 9606TIP3    H228783   1.893   0.679   5.232
 9607TIP3   OH228784   0.146   2.888   5.594
 9607TIP3    H128785   0.159   2.854   5.683
 9607TIP3    H228786   0.078   2.955   5.603
 9608TIP3   OH228787   4.140   2.964   5.714
 9608TIP3    H128788   4.129   2.956   5.809
 9608TIP3    H228789   4.227   3.001   5.703
 9609TIP3   OH228790   2.585  -0.071   2.435
 9609TIP3    H128791   2.545   0.016   2.432
 9609TIP3    H228792   2.657  -0.063   2.498
 9610TIP3   OH228793   2.193   3.280   2.397
 9610TIP3    H128794   2.156   3.235   2.473
 9610TIP3    H228795   2.134   3.353   2.380
 9611TIP3   OH228796   3.551   1.444   3.242
 9611TIP3    H128797   3.475   1.469   3.294
 9611TIP3    H228798   3.626   1.463   3.298
 9612TIP3   OH228799   5.548   4.252   4.261
 9612TIP3    H128800   5.605   4.175   4.271
 9612TIP3    H228801   5.511   4.243   4.174
 9613TIP3   OH228802   4.627   5.740   1.392
 9613TIP3    H128803   4.691   5.671   1.373
 9613TIP3    H228804   4.674   5.822   1.376
 9614TIP3   OH228805   2.338   5.064   2.317
 9614TIP3    H128806   2.277   5.107   2.378
 9614TIP3    H228807   2.306   4.974   2.311
 9615TIP3   OH228808   3.765   1.384   1.279
 9615TIP3    H128809   3.836   1.443   1.252
 9615TIP3    H228810   3.741   1.414   1.367
 9616TIP3   OH228811   4.976   2.398   3.364
 9616TIP3    H128812   4.920   2.459   3.411
 9616TIP3    H228813   5.030   2.454   3.308
 9617TIP3   OH228814   4.278   1.003   1.228
 9617TIP3    H128815   4.299   0.916   1.193
 9617TIP3    H228816   4.184   1.013   1.213
 9618TIP3   OH228817   5.200   2.029   4.834
 9618TIP3    H128818   5.159   1.979   4.904
 9618TIP3    H228819   5.127   2.059   4.779
 9619TIP3   OH228820   4.981   2.644   1.372
 9619TIP3    H128821   5.074   2.631   1.386
 9619TIP3    H228822   4.973   2.735   1.344
 9620TIP3   OH228823   5.356   5.743   5.033
 9620TIP3    H128824   5.317   5.656   5.023
 9620TIP3    H228825   5.359   5.758   5.128
 9621TIP3   OH228826   3.907   6.502   4.613
 9621TIP3    H128827   3.924   6.415   4.647
 9621TIP3    H228828   3.971   6.514   4.543
 9622TIP3   OH228829   0.879   3.499   2.254
 9622TIP3    H128830   0.888   3.586   2.293
 9622TIP3    H228831   0.964   3.458   2.270
 9623TIP3   OH228832   5.513   0.378   3.894
 9623TIP3    H128833   5.552   0.445   3.837
 9623TIP3    H228834   5.512   0.299   3.841
 9624TIP3   OH228835   3.650   1.109   0.777
 9624TIP3    H128836   3.691   1.118   0.863
 9624TIP3    H228837   3.709   1.054   0.727
 9625TIP3   OH228838   6.536   4.835   3.858
 9625TIP3    H128839   6.553   4.741   3.855
 9625TIP3    H228840   6.522   4.854   3.950
 9626TIP3   OH228841   4.342   5.496   3.445
 9626TIP3    H128842   4.381   5.419   3.486
 9626TIP3    H228843   4.357   5.483   3.351
 9627TIP3   OH228844   4.373   1.280   0.904
 9627TIP3    H128845   4.372   1.184   0.897
 9627TIP3    H228846   4.368   1.297   0.998
 9628TIP3   OH228847   3.548   3.226   1.363
 9628TIP3    H128848   3.487   3.263   1.428
 9628TIP3    H228849   3.543   3.286   1.289
 9629TIP3   OH228850   4.522   6.127   4.374
 9629TIP3    H128851   4.593   6.067   4.397
 9629TIP3    H228852   4.554   6.214   4.399
 9630TIP3   OH228853   6.621   5.316   0.128
 9630TIP3    H128854   6.716   5.313   0.133
 9630TIP3    H228855   6.602   5.352   0.041
 9631TIP3   OH228856   1.027   5.887   5.786
 9631TIP3    H128857   0.941   5.910   5.821
 9631TIP3    H228858   1.009   5.821   5.719
 9632TIP3   OH228859   5.671   6.311   1.854
 9632TIP3    H128860   5.718   6.377   1.803
 9632TIP3    H228861   5.581   6.343   1.858
 9633TIP3   OH228862   0.667   5.013   3.613
 9633TIP3    H128863   0.586   5.032   3.661
 9633TIP3    H228864   0.642   4.945   3.550
 9634TIP3   OH228865   5.550   5.438   4.941
 9634TIP3    H128866   5.588   5.466   5.024
 9634TIP3    H228867   5.466   5.399   4.965
 9635TIP3   OH228868   0.601   4.607   0.866
 9635TIP3    H128869   0.516   4.603   0.822
 9635TIP3    H228870   0.662   4.629   0.796
 9636TIP3   OH228871   1.130   2.152   5.710
 9636TIP3    H128872   1.160   2.100   5.636
 9636TIP3    H228873   1.201   2.213   5.727
 9637TIP3   OH228874   2.404   5.166   4.204
 9637TIP3    H128875   2.492   5.141   4.232
 9637TIP3    H228876   2.418   5.214   4.122
 9638TIP3   OH228877   2.851   0.137   4.873
 9638TIP3    H128878   2.909   0.204   4.838
 9638TIP3    H228879   2.783   0.127   4.805
 9639TIP3   OH228880   3.055   2.808   3.469
 9639TIP3    H128881   2.971   2.804   3.423
 9639TIP3    H228882   3.109   2.742   3.425
 9640TIP3   OH228883   6.823   5.296   5.508
 9640TIP3    H128884   6.762   5.281   5.437
 9640TIP3    H228885   6.815   5.389   5.528
 9641TIP3   OH228886   1.703   2.137   5.048
 9641TIP3    H128887   1.642   2.131   4.975
 9641TIP3    H228888   1.664   2.202   5.107
 9642TIP3   OH228889   2.901   3.956   1.852
 9642TIP3    H128890   2.992   3.925   1.843
 9642TIP3    H228891   2.895   3.989   1.941
 9643TIP3   OH228892   4.606   6.265   2.220
 9643TIP3    H128893   4.513   6.246   2.224
 9643TIP3    H228894   4.636   6.259   2.311
 9644TIP3   OH228895   3.394   2.557   0.516
 9644TIP3    H128896   3.466   2.618   0.499
 9644TIP3    H228897   3.383   2.510   0.433
 9645TIP3   OH228898   5.725   1.383   1.237
 9645TIP3    H128899   5.649   1.436   1.262
 9645TIP3    H228900   5.714   1.302   1.287
 9646TIP3   OH228901   4.671   1.449   5.558
 9646TIP3    H128902   4.680   1.376   5.497
 9646TIP3    H228903   4.751   1.447   5.610
 9647TIP3   OH228904   7.113   5.215   4.541
 9647TIP3    H128905   7.076   5.236   4.627
 9647TIP3    H228906   7.207   5.233   4.551
 9648TIP3   OH228907   1.695   4.055   4.341
 9648TIP3    H128908   1.644   4.084   4.416
 9648TIP3    H228909   1.646   3.981   4.306
 9649TIP3   OH228910   2.319   4.816   0.083
 9649TIP3    H128911   2.324   4.745   0.147
 9649TIP3    H228912   2.342   4.894   0.132
 9650TIP3   OH228913   3.537   4.812   4.487
 9650TIP3    H128914   3.520   4.844   4.576
 9650TIP3    H228915   3.452   4.781   4.456
 9651TIP3   OH228916   3.332   1.278   4.033
 9651TIP3    H128917   3.399   1.339   4.003
 9651TIP3    H228918   3.322   1.297   4.126
 9652TIP3   OH228919   3.127   4.665   1.029
 9652TIP3    H128920   3.170   4.580   1.022
 9652TIP3    H228921   3.037   4.649   1.000
 9653TIP3   OH228922   1.442   6.377   3.553
 9653TIP3    H128923   1.514   6.398   3.612
 9653TIP3    H228924   1.411   6.462   3.522
 9654TIP3   OH228925   6.868   1.428   5.045
 9654TIP3    H128926   6.836   1.347   5.083
 9654TIP3    H228927   6.822   1.435   4.962
 9655TIP3   OH228928   7.084   4.761   0.042
 9655TIP3    H128929   7.016   4.733   0.103
 9655TIP3    H228930   7.038   4.775  -0.040
 9656TIP3   OH228931   5.833   3.415   1.077
 9656TIP3    H128932   5.918   3.451   1.053
 9656TIP3    H228933   5.851   3.357   1.152
 9657TIP3   OH228934   7.138   1.488   4.972
 9657TIP3    H128935   7.185   1.416   5.013
 9657TIP3    H228936   7.054   1.491   5.017
 9658TIP3   OH228937   5.271   4.592   4.114
 9658TIP3    H128938   5.272   4.539   4.194
 9658TIP3    H228939   5.251   4.681   4.145
 9659TIP3   OH228940   3.467   0.762   3.917
 9659TIP3    H128941   3.477   0.671   3.891
 9659TIP3    H228942   3.376   0.783   3.897
 9660TIP3   OH228943   1.027   4.625   4.552
 9660TIP3    H128944   1.009   4.533   4.537
 9660TIP3    H228945   0.941   4.667   4.554
 9661TIP3   OH228946   5.981   5.233   4.164
 9661TIP3    H128947   5.963   5.208   4.254
 9661TIP3    H228948   6.027   5.316   4.171
 9662TIP3   OH228949   3.082   1.752   4.144
 9662TIP3    H128950   3.064   1.754   4.238
 9662TIP3    H228951   3.178   1.751   4.137
 9663TIP3   OH228952   5.151   4.273   3.977
 9663TIP3    H128953   5.140   4.291   4.070
 9663TIP3    H228954   5.083   4.209   3.956
 9664TIP3   OH228955   6.135   3.223   3.738
 9664TIP3    H128956   6.209   3.201   3.681
 9664TIP3    H228957   6.069   3.257   3.678
 9665TIP3   OH228958   4.514   6.413   3.975
 9665TIP3    H128959   4.586   6.376   4.027
 9665TIP3    H228960   4.526   6.376   3.888
 9666TIP3   OH228961   5.067   0.432   0.731
 9666TIP3    H128962   5.018   0.470   0.804
 9666TIP3    H228963   5.159   0.437   0.759
 9667TIP3   OH228964   1.687   1.961   5.413
 9667TIP3    H128965   1.659   2.031   5.354
 9667TIP3    H228966   1.692   1.883   5.358
 9668TIP3   OH228967   6.897   5.105   1.574
 9668TIP3    H128968   6.980   5.151   1.584
 9668TIP3    H228969   6.877   5.072   1.662
 9669TIP3   OH228970   6.349   5.380   4.491
 9669TIP3    H128971   6.377   5.292   4.466
 9669TIP3    H228972   6.419   5.438   4.459
 9670TIP3   OH228973   5.239   0.094   5.608
 9670TIP3    H128974   5.206   0.113   5.520
 9670TIP3    H228975   5.302   0.023   5.595
 9671TIP3   OH228976   5.347   0.396   1.913
 9671TIP3    H128977   5.344   0.452   1.836
 9671TIP3    H228978   5.273   0.424   1.966
 9672TIP3   OH228979   0.786   1.636   1.501
 9672TIP3    H128980   0.876   1.662   1.523
 9672TIP3    H228981   0.741   1.633   1.585
 9673TIP3   OH228982   5.868   1.390   5.159
 9673TIP3    H128983   5.939   1.326   5.153
 9673TIP3    H228984   5.902   1.459   5.215
 9674TIP3   OH228985   3.875   1.585   1.881
 9674TIP3    H128986   3.857   1.672   1.845
 9674TIP3    H228987   3.951   1.598   1.937
 9675TIP3   OH228988   6.293   4.040   5.131
 9675TIP3    H128989   6.275   4.127   5.167
 9675TIP3    H228990   6.291   4.053   5.036
 9676TIP3   OH228991   5.349   6.354   1.053
 9676TIP3    H128992   5.261   6.324   1.072
 9676TIP3    H228993   5.401   6.327   1.129
 9677TIP3   OH228994   0.920   4.686   5.346
 9677TIP3    H128995   0.995   4.628   5.332
 9677TIP3    H228996   0.869   4.680   5.265
 9678TIP3   OH228997   2.674   2.590   4.431
 9678TIP3    H128998   2.661   2.683   4.415
 9678TIP3    H228999   2.654   2.548   4.347
 9679TIP3   OH229000   4.011   4.211   1.261
 9679TIP3    H129001   4.098   4.172   1.271
 9679TIP3    H229002   4.014   4.254   1.176
 9680TIP3   OH229003   3.822   1.076   1.949
 9680TIP3    H129004   3.863   1.129   1.880
 9680TIP3    H229005   3.730   1.105   1.950
 9681TIP3   OH229006   6.096   5.857   2.495
 9681TIP3    H129007   6.130   5.839   2.407
 9681TIP3    H229008   6.003   5.874   2.482
 9682TIP3   OH229009   4.552   6.455   5.454
 9682TIP3    H129010   4.495   6.426   5.526
 9682TIP3    H229011   4.533   6.394   5.383
 9683TIP3   OH229012   3.715   0.024   0.462
 9683TIP3    H129013   3.728  -0.024   0.544
 9683TIP3    H229014   3.771   0.101   0.470
 9684TIP3   OH229015   5.408   2.262   3.008
 9684TIP3    H129016   5.427   2.315   2.931
 9684TIP3    H229017   5.408   2.172   2.975
 9685TIP3   OH229018   0.734   3.252   1.212
 9685TIP3    H129019   0.816   3.299   1.197
 9685TIP3    H229020   0.743   3.172   1.162
 9686TIP3   OH229021   7.009   5.481   4.972
 9686TIP3    H129022   7.015   5.520   4.885
 9686TIP3    H229023   6.916   5.458   4.982
 9687TIP3   OH229024   6.635   4.209   2.740
 9687TIP3    H129025   6.729   4.217   2.723
 9687TIP3    H229026   6.600   4.295   2.717
 9688TIP3   OH229027   2.848   3.450   1.717
 9688TIP3    H129028   2.812   3.538   1.726
 9688TIP3    H229029   2.840   3.430   1.624
 9689TIP3   OH229030   1.249   0.608   5.123
 9689TIP3    H129031   1.290   0.667   5.060
 9689TIP3    H229032   1.156   0.608   5.099
 9690TIP3   OH229033   2.722   2.415   0.473
 9690TIP3    H129034   2.791   2.419   0.539
 9690TIP3    H229035   2.762   2.370   0.399
 9691TIP3   OH229036   2.009   4.357   0.382
 9691TIP3    H129037   2.100   4.332   0.394
 9691TIP3    H229038   1.997   4.433   0.439
 9692TIP3   OH229039   3.830   6.092   0.256
 9692TIP3    H129040   3.842   6.186   0.268
 9692TIP3    H229041   3.851   6.054   0.341
 9693TIP3   OH229042   5.951   2.005   1.473
 9693TIP3    H129043   5.944   2.066   1.547
 9693TIP3    H229044   6.015   1.940   1.502
 9694TIP3   OH229045   0.258   1.707   2.094
 9694TIP3    H129046   0.323   1.775   2.076
 9694TIP3    H229047   0.288   1.665   2.175
 9695TIP3   OH229048   5.917   1.164   3.904
 9695TIP3    H129049   5.919   1.098   3.834
 9695TIP3    H229050   6.006   1.166   3.939
 9696TIP3   OH229051   4.671   5.513   0.119
 9696TIP3    H129052   4.748   5.569   0.105
 9696TIP3    H229053   4.649   5.527   0.211
 9697TIP3   OH229054   5.518   6.309   2.691
 9697TIP3    H129055   5.536   6.390   2.738
 9697TIP3    H229056   5.559   6.321   2.606
 9698TIP3   OH229057   2.141   6.701   2.311
 9698TIP3    H129058   2.174   6.720   2.399
 9698TIP3    H229059   2.203   6.744   2.252
 9699TIP3   OH229060   5.744   1.897   5.371
 9699TIP3    H129061   5.743   1.919   5.277
 9699TIP3    H229062   5.708   1.975   5.413
 9700TIP3   OH229063   5.096   0.549   2.715
 9700TIP3    H129064   5.175   0.522   2.667
 9700TIP3    H229065   5.024   0.528   2.656
 9701TIP3   OH229066   0.975   2.891   2.732
 9701TIP3    H129067   0.907   2.831   2.700
 9701TIP3    H229068   0.951   2.906   2.824
 9702TIP3   OH229069   5.308   1.270   5.696
 9702TIP3    H129070   5.399   1.292   5.717
 9702TIP3    H229071   5.259   1.289   5.776
 9703TIP3   OH229072   1.791   2.448   1.652
 9703TIP3    H129073   1.698   2.439   1.674
 9703TIP3    H229074   1.828   2.362   1.672
 9704TIP3   OH229075   3.659   2.683   4.504
 9704TIP3    H129076   3.597   2.636   4.448
 9704TIP3    H229077   3.613   2.693   4.587
 9705TIP3   OH229078   5.085   0.381   4.435
 9705TIP3    H129079   5.133   0.442   4.378
 9705TIP3    H229080   5.034   0.327   4.375
 9706TIP3   OH229081   1.653   6.518   4.716
 9706TIP3    H129082   1.612   6.526   4.802
 9706TIP3    H229083   1.648   6.606   4.679
 9707TIP3   OH229084   0.653   4.089   2.552
 9707TIP3    H129085   0.651   4.184   2.535
 9707TIP3    H229086   0.715   4.079   2.624
 9708TIP3   OH229087   2.370   0.800   1.187
 9708TIP3    H129088   2.359   0.813   1.093
 9708TIP3    H229089   2.282   0.807   1.223
 9709TIP3   OH229090   1.453   3.707   1.478
 9709TIP3    H129091   1.438   3.735   1.388
 9709TIP3    H229092   1.460   3.788   1.528
 9710TIP3   OH229093   6.777   2.330   0.766
 9710TIP3    H129094   6.703   2.343   0.826
 9710TIP3    H229095   6.789   2.414   0.723
 9711TIP3   OH229096   0.274   4.321   0.538
 9711TIP3    H129097   0.247   4.299   0.449
 9711TIP3    H229098   0.327   4.246   0.567
 9712TIP3   OH229099   6.406   6.709   4.594
 9712TIP3    H129100   6.354   6.629   4.588
 9712TIP3    H229101   6.488   6.688   4.549
 9713TIP3   OH229102   5.678   0.967   2.340
 9713TIP3    H129103   5.626   0.949   2.419
 9713TIP3    H229104   5.618   1.015   2.283
 9714TIP3   OH229105   5.979   2.843   0.829
 9714TIP3    H129106   5.908   2.870   0.770
 9714TIP3    H229107   6.059   2.872   0.785
 9715TIP3   OH229108   0.415   2.333   1.795
 9715TIP3    H129109   0.342   2.314   1.735
 9715TIP3    H229110   0.373   2.372   1.871
 9716TIP3   OH229111   7.065   6.485   0.468
 9716TIP3    H129112   6.996   6.507   0.405
 9716TIP3    H229113   7.067   6.559   0.528
 9717TIP3   OH229114   3.714   6.051   5.498
 9717TIP3    H129115   3.731   6.110   5.571
 9717TIP3    H229116   3.698   5.966   5.539
 9718TIP3   OH229117   1.894   0.471   0.028
 9718TIP3    H129118   1.829   0.529  -0.012
 9718TIP3    H229119   1.888   0.390  -0.023
 9719TIP3   OH229120   4.563   2.208   1.787
 9719TIP3    H129121   4.544   2.170   1.872
 9719TIP3    H229122   4.658   2.211   1.782
 9720TIP3   OH229123   6.587   4.905   0.852
 9720TIP3    H129124   6.587   4.861   0.768
 9720TIP3    H229125   6.505   4.956   0.852
 9721TIP3   OH229126   6.372   5.237   2.772
 9721TIP3    H129127   6.444   5.176   2.791
 9721TIP3    H229128   6.358   5.229   2.678
 9722TIP3   OH229129   2.485   3.815   0.150
 9722TIP3    H129130   2.472   3.868   0.229
 9722TIP3    H229131   2.563   3.852   0.109
 9723TIP3   OH229132   5.508   1.333   0.057
 9723TIP3    H129133   5.460   1.413   0.079
 9723TIP3    H229134   5.583   1.364   0.006
 9724TIP3   OH229135   5.335   3.472   3.538
 9724TIP3    H129136   5.369   3.499   3.453
 9724TIP3    H229137   5.315   3.555   3.582
 9725TIP3   OH229138   3.645   0.063   2.250
 9725TIP3    H129139   3.609   0.147   2.224
 9725TIP3    H229140   3.692   0.032   2.173
 9726TIP3   OH229141   4.762   2.934   4.773
 9726TIP3    H129142   4.705   3.009   4.756
 9726TIP3    H229143   4.837   2.947   4.715
 9727TIP3   OH229144   6.927   3.073   0.136
 9727TIP3    H129145   6.899   3.127   0.063
 9727TIP3    H229146   6.874   3.103   0.210
 9728TIP3   OH229147   3.636   4.498   2.033
 9728TIP3    H129148   3.544   4.486   2.056
 9728TIP3    H229149   3.653   4.591   2.049
 9729TIP3   OH229150   3.544   3.512   2.599
 9729TIP3    H129151   3.518   3.455   2.527
 9729TIP3    H229152   3.465   3.522   2.652
 9730TIP3   OH229153   2.829   2.060   3.770
 9730TIP3    H129154   2.849   2.059   3.863
 9730TIP3    H229155   2.914   2.047   3.727
 9731TIP3   OH229156   1.989   1.780   2.680
 9731TIP3    H129157   2.072   1.750   2.717
 9731TIP3    H229158   1.942   1.817   2.754
 9732TIP3   OH229159   0.860   6.266   3.451
 9732TIP3    H129160   0.856   6.188   3.395
 9732TIP3    H229161   0.906   6.331   3.399
 9733TIP3   OH229162   1.451   3.416   2.452
 9733TIP3    H129163   1.543   3.405   2.476
 9733TIP3    H229164   1.425   3.497   2.494
 9734TIP3   OH229165   3.237   1.027   2.259
 9734TIP3    H129166   3.142   1.031   2.247
 9734TIP3    H229167   3.272   1.087   2.194
 9735TIP3   OH229168   4.629   6.268   3.766
 9735TIP3    H129169   4.603   6.176   3.764
 9735TIP3    H229170   4.717   6.270   3.727
 9736TIP3   OH229171   3.940   4.878   1.893
 9736TIP3    H129172   3.870   4.920   1.843
 9736TIP3    H229173   4.003   4.947   1.911
 9737TIP3   OH229174   7.262   2.030   0.945
 9737TIP3    H129175   7.297   2.102   0.998
 9737TIP3    H229176   7.271   1.952   1.001
 9738TIP3   OH229177   6.709   3.320   0.591
 9738TIP3    H129178   6.638   3.348   0.533
 9738TIP3    H229179   6.744   3.241   0.551
 9739TIP3   OH229180   0.602   1.297   2.614
 9739TIP3    H129181   0.565   1.385   2.608
 9739TIP3    H229182   0.688   1.310   2.653
 9740TIP3   OH229183   1.547   0.323   2.954
 9740TIP3    H129184   1.554   0.397   2.895
 9740TIP3    H229185   1.637   0.296   2.970
 9741TIP3   OH229186   0.946   5.879   0.105
 9741TIP3    H129187   0.998   5.959   0.105
 9741TIP3    H229188   0.905   5.877   0.018
 9742TIP3   OH229189   5.058   5.489   5.714
 9742TIP3    H129190   5.054   5.470   5.808
 9742TIP3    H229191   5.131   5.436   5.682
 9743TIP3   OH229192   3.530   2.690   4.769
 9743TIP3    H129193   3.543   2.763   4.828
 9743TIP3    H229194   3.592   2.623   4.799
 9744TIP3   OH229195   2.624   2.848   0.632
 9744TIP3    H129196   2.673   2.784   0.683
 9744TIP3    H229197   2.676   2.861   0.553
 9745TIP3   OH229198   0.731   3.000   4.463
 9745TIP3    H129199   0.714   2.906   4.452
 9745TIP3    H229200   0.822   3.012   4.437
 9746TIP3   OH229201   3.305   4.556   4.429
 9746TIP3    H129202   3.350   4.629   4.386
 9746TIP3    H229203   3.214   4.584   4.436
 9747TIP3   OH229204   0.832   2.763   2.485
 9747TIP3    H129205   0.798   2.675   2.499
 9747TIP3    H229206   0.903   2.751   2.422
 9748TIP3   OH229207   3.895   2.822   0.274
 9748TIP3    H129208   3.856   2.768   0.343
 9748TIP3    H229209   3.965   2.871   0.317
 9749TIP3   OH229210   4.104   4.679   4.852
 9749TIP3    H129211   4.043   4.752   4.847
 9749TIP3    H229212   4.143   4.685   4.940
   7.21697   6.80423   5.89262   0.00000   0.00000  -2.40566   0.00000  -2.40566  -3.40211
