Title t= 3580.00000 step= 1790000
19942
    1ASP      N    1   1.661   2.353   3.516
    1ASP    HT1    2   1.654   2.406   3.605
    1ASP    HT2    3   1.639   2.425   3.444
    1ASP    HT3    4   1.759   2.317   3.509
    1ASP     CA    5   1.563   2.242   3.512
    1ASP     HA    6   1.606   2.175   3.585
    1ASP     CB    7   1.427   2.295   3.560
    1ASP    HB1    8   1.376   2.342   3.473
    1ASP    HB2    9   1.439   2.371   3.640
    1ASP     CG   10   1.335   2.188   3.614
    1ASP    OD1   11   1.213   2.217   3.612
    1ASP    OD2   12   1.385   2.079   3.653
    1ASP      C   13   1.544   2.155   3.390
    1ASP      O   14   1.561   2.203   3.277
    2ALA      N   15   1.506   2.027   3.408
    2ALA     HN   16   1.479   1.989   3.497
    2ALA     CA   17   1.520   1.937   3.297
    2ALA     HA   18   1.552   1.989   3.208
    2ALA     CB   19   1.609   1.812   3.325
    2ALA    HB1   20   1.630   1.741   3.242
    2ALA    HB2   21   1.566   1.745   3.403
    2ALA    HB3   22   1.713   1.839   3.349
    2ALA      C   23   1.382   1.887   3.247
    2ALA      O   24   1.296   1.869   3.328
    3ASP      N   25   1.380   1.848   3.115
    3ASP     HN   26   1.463   1.821   3.068
    3ASP     CA   27   1.256   1.803   3.058
    3ASP     HA   28   1.166   1.834   3.108
    3ASP     CB   29   1.251   1.824   2.901
    3ASP    HB1   30   1.157   1.787   2.854
    3ASP    HB2   31   1.336   1.772   2.850
    3ASP     CG   32   1.273   1.973   2.862
    3ASP    OD1   33   1.311   2.000   2.743
    3ASP    OD2   34   1.240   2.058   2.941
    3ASP      C   35   1.242   1.649   3.073
    3ASP      O   36   1.341   1.583   3.092
    4GLY      N   37   1.117   1.603   3.071
    4GLY     HN   38   1.045   1.670   3.053
    4GLY     CA   39   1.078   1.466   3.080
    4GLY    HA1   40   0.972   1.470   3.101
    4GLY    HA2   41   1.145   1.413   3.147
    4GLY      C   42   1.088   1.395   2.942
    4GLY      O   43   1.140   1.452   2.843
    5PRO      N   44   1.043   1.268   2.921
    5PRO     CD   45   1.006   1.179   3.034
    5PRO    HD1   46   0.906   1.210   3.071
    5PRO    HD2   47   1.086   1.184   3.112
    5PRO     CA   48   1.012   1.212   2.789
    5PRO     HA   49   1.109   1.191   2.747
    5PRO     CB   50   0.939   1.079   2.829
    5PRO    HB1   51   0.975   0.998   2.762
    5PRO    HB2   52   0.829   1.097   2.830
    5PRO     CG   53   0.989   1.042   2.972
    5PRO    HG1   54   0.918   0.982   3.033
    5PRO    HG2   55   1.090   0.996   2.962
    5PRO      C   56   0.943   1.296   2.683
    5PRO      O   57   0.850   1.371   2.712
    6GLY      N   58   0.987   1.274   2.560
    6GLY     HN   59   1.064   1.211   2.548
    6GLY     CA   60   0.936   1.333   2.436
    6GLY    HA1   61   1.018   1.337   2.366
    6GLY    HA2   62   0.890   1.429   2.454
    6GLY      C   63   0.830   1.250   2.370
    6GLY      O   64   0.722   1.224   2.430
    7ASP      N   65   0.842   1.202   2.249
    7ASP     HN   66   0.927   1.227   2.203
    7ASP     CA   67   0.740   1.140   2.168
    7ASP     HA   68   0.644   1.143   2.218
    7ASP     CB   69   0.730   1.227   2.043
    7ASP    HB1   70   0.810   1.193   1.974
    7ASP    HB2   71   0.760   1.333   2.057
    7ASP     CG   72   0.597   1.211   1.972
    7ASP    OD1   73   0.576   1.298   1.887
    7ASP    OD2   74   0.515   1.118   1.986
    7ASP      C   75   0.779   0.994   2.132
    7ASP      O   76   0.892   0.963   2.090
    8PRO      N   77   0.690   0.889   2.144
    8PRO     CD   78   0.599   0.881   2.254
    8PRO    HD1   79   0.511   0.945   2.232
    8PRO    HD2   80   0.640   0.923   2.349
    8PRO     CA   81   0.704   0.757   2.082
    8PRO     HA   82   0.800   0.725   2.122
    8PRO     CB   83   0.588   0.685   2.131
    8PRO    HB1   84   0.599   0.575   2.130
    8PRO    HB2   85   0.498   0.711   2.071
    8PRO     CG   86   0.573   0.733   2.277
    8PRO    HG1   87   0.478   0.701   2.325
    8PRO    HG2   88   0.664   0.696   2.330
    8PRO      C   89   0.714   0.770   1.930
    8PRO      O   90   0.765   0.680   1.873
    9ASP      N   91   0.659   0.871   1.868
    9ASP     HN   92   0.603   0.942   1.910
    9ASP     CA   93   0.665   0.887   1.723
    9ASP     HA   94   0.629   0.794   1.682
    9ASP     CB   95   0.580   1.003   1.670
    9ASP    HB1   96   0.590   1.019   1.561
    9ASP    HB2   97   0.611   1.092   1.730
    9ASP     CG   98   0.432   0.972   1.693
    9ASP    OD1   99   0.363   1.074   1.725
    9ASP    OD2  100   0.373   0.864   1.680
    9ASP      C  101   0.808   0.899   1.660
    9ASP      O  102   0.826   0.872   1.544
   10ALA      N  103   0.913   0.935   1.743
   10ALA     HN  104   0.894   0.952   1.839
   10ALA     CA  105   1.054   0.942   1.702
   10ALA     HA  106   1.046   0.938   1.595
   10ALA     CB  107   1.115   1.078   1.746
   10ALA    HB1  108   1.222   1.087   1.718
   10ALA    HB2  109   1.100   1.091   1.856
   10ALA    HB3  110   1.060   1.162   1.699
   10ALA      C  111   1.138   0.833   1.756
   10ALA      O  112   1.142   0.805   1.872
   11GLY      N  113   1.204   0.759   1.669
   11GLY     HN  114   1.185   0.765   1.571
   11GLY     CA  115   1.277   0.643   1.706
   11GLY    HA1  116   1.309   0.588   1.619
   11GLY    HA2  117   1.222   0.577   1.771
   11GLY      C  118   1.411   0.663   1.773
   11GLY    OT1  119   1.502   0.726   1.711
   11GLY    OT2  120   1.430   0.610   1.887
   12LIT    LIT  121   4.840   4.856   2.744
   13LIT    LIT  122   1.031   2.447   2.987
   14LIT    LIT  123   0.932   5.344   2.702
   15LIT    LIT  124   0.083   1.218   5.182
   16LIT    LIT  125   4.246   5.682   3.069
   17LIT    LIT  126   3.910   4.915   4.675
   18LIT    LIT  127   2.084   0.154   3.107
   19LIT    LIT  128   0.428   1.214   1.829
   20LIT    LIT  129   3.110   1.932   4.100
   21LIT    LIT  130   3.950   0.317   2.437
   22LIT    LIT  131   4.085   3.832   0.513
   23LIT    LIT  132   1.535   1.926   1.851
   24LIT    LIT  133   5.045   2.865   1.079
   25LIT    LIT  134   1.390   5.538   0.406
   26LIT    LIT  135   2.334   0.820   4.756
   27LIT    LIT  136   0.449   0.497   3.668
   28LIT    LIT  137   2.089   1.357   4.560
   29LIT    LIT  138   2.696   4.564   1.800
   30LIT    LIT  139   2.475   1.693   1.490
   31LIT    LIT  140   5.868   3.615   4.626
   32LIT    LIT  141   4.348   5.862   1.517
   33LIT    LIT  142   4.287   1.445   0.854
   34CLA    CLA  143   2.661   1.826   2.962
   35CLA    CLA  144   4.269   5.998   4.586
   36CLA    CLA  145   2.465   1.240   4.959
   37CLA    CLA  146   6.322   3.728   4.446
   38CLA    CLA  147   1.254   3.561   4.221
   39CLA    CLA  148   5.105   3.667   3.745
   40CLA    CLA  149   1.283   1.308   3.907
   41CLA    CLA  150   0.270   3.617   1.282
   42CLA    CLA  151   3.734   3.347   1.819
   43CLA    CLA  152   1.286   2.945   1.197
   44CLA    CLA  153   1.226   5.807   0.008
   45CLA    CLA  154   3.668   0.607   3.080
   46CLA    CLA  155   1.581   0.600   2.648
   47CLA    CLA  156   2.390   0.692   4.573
   48CLA    CLA  157   2.753   5.073   4.120
   49CLA    CLA  158   5.961   4.715   0.353
   50CLA    CLA  159   1.626   1.986   0.704
   51CLA    CLA  160   1.362   5.722   1.408
   52TIP3   OH2  161   5.756   1.443   3.179
   52TIP3    H1  162   5.753   1.537   3.199
   52TIP3    H2  163   5.768   1.400   3.263
   53TIP3   OH2  164   0.927   3.182   4.627
   53TIP3    H1  165   0.902   3.254   4.569
   53TIP3    H2  166   0.846   3.161   4.675
   54TIP3   OH2  167   0.589   1.550   3.777
   54TIP3    H1  168   0.563   1.498   3.852
   54TIP3    H2  169   0.668   1.507   3.744
   55TIP3   OH2  170   4.852   3.360   1.685
   55TIP3    H1  171   4.907   3.297   1.638
   55TIP3    H2  172   4.900   3.443   1.678
   56TIP3   OH2  173   3.625   1.830   0.679
   56TIP3    H1  174   3.620   1.773   0.755
   56TIP3    H2  175   3.707   1.879   0.691
   57TIP3   OH2  176   2.896   1.312   0.262
   57TIP3    H1  177   2.857   1.395   0.234
   57TIP3    H2  178   2.824   1.249   0.257
   58TIP3   OH2  179   6.169   2.965   1.673
   58TIP3    H1  180   6.118   2.926   1.743
   58TIP3    H2  181   6.104   2.999   1.611
   59TIP3   OH2  182   2.519   3.801   2.758
   59TIP3    H1  183   2.605   3.820   2.793
   59TIP3    H2  184   2.467   3.880   2.774
   60TIP3   OH2  185   3.265   5.322   3.236
   60TIP3    H1  186   3.265   5.397   3.294
   60TIP3    H2  187   3.180   5.280   3.250
   61TIP3   OH2  188   4.315   1.697   2.684
   61TIP3    H1  189   4.321   1.640   2.607
   61TIP3    H2  190   4.222   1.718   2.691
   62TIP3   OH2  191   6.320   2.829   2.964
   62TIP3    H1  192   6.388   2.895   2.954
   62TIP3    H2  193   6.365   2.751   2.994
   63TIP3   OH2  194   3.305   3.220   1.589
   63TIP3    H1  195   3.321   3.129   1.563
   63TIP3    H2  196   3.390   3.262   1.583
   64TIP3   OH2  197   5.334   1.222   1.483
   64TIP3    H1  198   5.346   1.232   1.388
   64TIP3    H2  199   5.373   1.136   1.502
   65TIP3   OH2  200   3.931   0.921   1.183
   65TIP3    H1  201   3.905   0.830   1.169
   65TIP3    H2  202   3.855   0.972   1.155
   66TIP3   OH2  203   0.212   4.323   4.167
   66TIP3    H1  204   0.237   4.414   4.156
   66TIP3    H2  205   0.292   4.273   4.152
   67TIP3   OH2  206   3.379   0.139   0.408
   67TIP3    H1  207   3.410   0.097   0.489
   67TIP3    H2  208   3.438   0.105   0.340
   68TIP3   OH2  209   1.829   0.566   2.425
   68TIP3    H1  210   1.768   0.557   2.498
   68TIP3    H2  211   1.821   0.484   2.376
   69TIP3   OH2  212   4.317   4.198   0.919
   69TIP3    H1  213   4.325   4.221   0.827
   69TIP3    H2  214   4.227   4.168   0.928
   70TIP3   OH2  215   5.626   1.363   3.988
   70TIP3    H1  216   5.623   1.277   3.947
   70TIP3    H2  217   5.649   1.423   3.918
   71TIP3   OH2  218   5.655   3.347   1.033
   71TIP3    H1  219   5.650   3.326   0.940
   71TIP3    H2  220   5.669   3.441   1.037
   72TIP3   OH2  221   0.482   0.118   0.374
   72TIP3    H1  222   0.453   0.158   0.292
   72TIP3    H2  223   0.423   0.153   0.440
   73TIP3   OH2  224   0.603   5.510   1.816
   73TIP3    H1  225   0.545   5.459   1.759
   73TIP3    H2  226   0.689   5.470   1.805
   74TIP3   OH2  227   3.877   1.423   1.730
   74TIP3    H1  228   3.949   1.380   1.684
   74TIP3    H2  229   3.834   1.353   1.779
   75TIP3   OH2  230   6.261   1.694   2.363
   75TIP3    H1  231   6.200   1.676   2.435
   75TIP3    H2  232   6.337   1.733   2.406
   76TIP3   OH2  233   3.470   4.272   2.678
   76TIP3    H1  234   3.523   4.242   2.604
   76TIP3    H2  235   3.520   4.343   2.716
   77TIP3   OH2  236   1.255   2.617   2.714
   77TIP3    H1  237   1.257   2.526   2.746
   77TIP3    H2  238   1.193   2.614   2.640
   78TIP3   OH2  239   2.971   2.014   3.972
   78TIP3    H1  240   2.920   2.031   3.892
   78TIP3    H2  241   2.928   2.068   4.039
   79TIP3   OH2  242   5.765   0.326   1.344
   79TIP3    H1  243   5.816   0.261   1.296
   79TIP3    H2  244   5.749   0.396   1.281
   80TIP3   OH2  245   2.272   3.783   2.084
   80TIP3    H1  246   2.199   3.787   2.146
   80TIP3    H2  247   2.319   3.703   2.108
   81TIP3   OH2  248   2.725   3.676   3.893
   81TIP3    H1  249   2.654   3.615   3.871
   81TIP3    H2  250   2.746   3.719   3.810
   82TIP3   OH2  251   0.281   3.092   4.775
   82TIP3    H1  252   0.198   3.051   4.795
   82TIP3    H2  253   0.273   3.121   4.684
   83TIP3   OH2  254   6.188   2.924   4.048
   83TIP3    H1  255   6.098   2.946   4.070
   83TIP3    H2  256   6.221   2.876   4.124
   84TIP3   OH2  257   5.749   2.556   1.776
   84TIP3    H1  258   5.817   2.499   1.811
   84TIP3    H2  259   5.670   2.503   1.775
   85TIP3   OH2  260   6.105   1.943   5.058
   85TIP3    H1  261   6.060   1.990   4.987
   85TIP3    H2  262   6.149   2.011   5.108
   86TIP3   OH2  263   4.402   2.423   3.034
   86TIP3    H1  264   4.331   2.367   3.064
   86TIP3    H2  265   4.435   2.466   3.113
   87TIP3   OH2  266   6.006   4.576   3.956
   87TIP3    H1  267   5.956   4.525   4.020
   87TIP3    H2  268   5.992   4.667   3.982
   88TIP3   OH2  269   3.605   2.252   2.004
   88TIP3    H1  270   3.621   2.289   1.917
   88TIP3    H2  271   3.627   2.159   1.994
   89TIP3   OH2  272   4.814   2.325   4.913
   89TIP3    H1  273   4.879   2.256   4.901
   89TIP3    H2  274   4.865   2.405   4.928
   90TIP3   OH2  275   4.026   5.297   1.071
   90TIP3    H1  276   4.051   5.273   0.982
   90TIP3    H2  277   4.103   5.339   1.108
   91TIP3   OH2  278   0.058   0.409   4.348
   91TIP3    H1  279   0.107   0.328   4.361
   91TIP3    H2  280   0.058   0.423   4.253
   92TIP3   OH2  281   4.279   2.939   1.558
   92TIP3    H1  282   4.295   2.961   1.650
   92TIP3    H2  283   4.286   2.844   1.555
   93TIP3   OH2  284   5.071   5.080   3.141
   93TIP3    H1  285   5.000   5.089   3.077
   93TIP3    H2  286   5.140   5.033   3.094
   94TIP3   OH2  287   4.754   4.127   2.854
   94TIP3    H1  288   4.825   4.082   2.901
   94TIP3    H2  289   4.681   4.065   2.858
   95TIP3   OH2  290   3.190   0.543   3.619
   95TIP3    H1  291   3.161   0.502   3.538
   95TIP3    H2  292   3.164   0.634   3.610
   96TIP3   OH2  293   1.350   5.710   0.471
   96TIP3    H1  294   1.406   5.782   0.498
   96TIP3    H2  295   1.263   5.749   0.461
   97TIP3   OH2  296   4.179   5.080   0.069
   97TIP3    H1  297   4.135   5.024   0.132
   97TIP3    H2  298   4.217   5.151   0.121
   98TIP3   OH2  299   2.163   0.275   4.598
   98TIP3    H1  300   2.142   0.202   4.655
   98TIP3    H2  301   2.181   0.235   4.513
   99TIP3   OH2  302   6.290   3.688   1.297
   99TIP3    H1  303   6.254   3.670   1.211
   99TIP3    H2  304   6.384   3.671   1.288
  100TIP3   OH2  305   2.135   0.238   0.620
  100TIP3    H1  306   2.118   0.329   0.597
  100TIP3    H2  307   2.139   0.238   0.716
  101TIP3   OH2  308   1.846   1.090   1.282
  101TIP3    H1  309   1.923   1.105   1.336
  101TIP3    H2  310   1.775   1.135   1.329
  102TIP3   OH2  311   3.126   0.807   3.584
  102TIP3    H1  312   3.030   0.808   3.574
  102TIP3    H2  313   3.158   0.869   3.519
  103TIP3   OH2  314   2.834   4.282   2.282
  103TIP3    H1  315   2.782   4.274   2.362
  103TIP3    H2  316   2.780   4.240   2.214
  104TIP3   OH2  317   1.739   0.322   3.407
  104TIP3    H1  318   1.731   0.244   3.353
  104TIP3    H2  319   1.654   0.331   3.450
  105TIP3   OH2  320   3.471   5.724   4.622
  105TIP3    H1  321   3.558   5.725   4.660
  105TIP3    H2  322   3.483   5.686   4.535
  106TIP3   OH2  323   5.930   4.785   1.157
  106TIP3    H1  324   5.915   4.879   1.157
  106TIP3    H2  325   5.969   4.767   1.071
  107TIP3   OH2  326   4.962   1.562   0.876
  107TIP3    H1  327   4.867   1.555   0.876
  107TIP3    H2  328   4.993   1.471   0.873
  108TIP3   OH2  329   4.173   5.782   4.202
  108TIP3    H1  330   4.158   5.868   4.241
  108TIP3    H2  331   4.097   5.730   4.229
  109TIP3   OH2  332   2.656   3.068   3.736
  109TIP3    H1  333   2.585   3.119   3.697
  109TIP3    H2  334   2.616   3.025   3.812
  110TIP3   OH2  335   5.632   0.337   2.978
  110TIP3    H1  336   5.581   0.286   3.040
  110TIP3    H2  337   5.691   0.274   2.938
  111TIP3   OH2  338   4.858   4.054   3.200
  111TIP3    H1  339   4.802   4.079   3.273
  111TIP3    H2  340   4.808   3.986   3.154
  112TIP3   OH2  341   4.544   3.586   3.241
  112TIP3    H1  342   4.621   3.548   3.200
  112TIP3    H2  343   4.574   3.617   3.326
  113TIP3   OH2  344   0.270   5.331   3.258
  113TIP3    H1  345   0.284   5.417   3.218
  113TIP3    H2  346   0.292   5.269   3.189
  114TIP3   OH2  347   0.280   0.620   2.527
  114TIP3    H1  348   0.270   0.715   2.541
  114TIP3    H2  349   0.372   0.602   2.549
  115TIP3   OH2  350   1.474   5.983   3.363
  115TIP3    H1  351   1.555   5.974   3.414
  115TIP3    H2  352   1.454   6.076   3.366
  116TIP3   OH2  353   4.036   3.291   2.869
  116TIP3    H1  354   4.081   3.242   2.938
  116TIP3    H2  355   4.033   3.231   2.794
  117TIP3   OH2  356   2.788   4.591   2.276
  117TIP3    H1  357   2.808   4.683   2.294
  117TIP3    H2  358   2.743   4.560   2.355
  118TIP3   OH2  359   4.923   5.643   4.379
  118TIP3    H1  360   4.983   5.708   4.416
  118TIP3    H2  361   4.959   5.624   4.292
  119TIP3   OH2  362   1.231   3.264   1.566
  119TIP3    H1  363   1.225   3.299   1.655
  119TIP3    H2  364   1.149   3.292   1.525
  120TIP3   OH2  365   3.238   4.983   4.130
  120TIP3    H1  366   3.234   4.951   4.040
  120TIP3    H2  367   3.163   4.941   4.173
  121TIP3   OH2  368   0.031   1.581   4.664
  121TIP3    H1  369  -0.053   1.626   4.653
  121TIP3    H2  370   0.066   1.616   4.747
  122TIP3   OH2  371   0.031   3.214   2.948
  122TIP3    H1  372   0.072   3.299   2.939
  122TIP3    H2  373  -0.031   3.224   3.021
  123TIP3   OH2  374   2.591   1.032   4.297
  123TIP3    H1  375   2.686   1.029   4.286
  123TIP3    H2  376   2.558   0.962   4.241
  124TIP3   OH2  377   5.359   0.644   3.829
  124TIP3    H1  378   5.284   0.661   3.885
  124TIP3    H2  379   5.363   0.549   3.821
  125TIP3   OH2  380   1.407   0.773   0.919
  125TIP3    H1  381   1.432   0.847   0.974
  125TIP3    H2  382   1.415   0.807   0.830
  126TIP3   OH2  383   0.989   3.038   1.302
  126TIP3    H1  384   0.956   2.978   1.235
  126TIP3    H2  385   1.080   3.010   1.315
  127TIP3   OH2  386   5.027   2.254   0.008
  127TIP3    H1  387   5.043   2.323   0.072
  127TIP3    H2  388   4.932   2.243   0.008
  128TIP3   OH2  389   2.480   3.271   0.974
  128TIP3    H1  390   2.430   3.226   1.042
  128TIP3    H2  391   2.569   3.276   1.010
  129TIP3   OH2  392   5.106   2.705   1.568
  129TIP3    H1  393   5.159   2.677   1.492
  129TIP3    H2  394   5.169   2.715   1.639
  130TIP3   OH2  395   2.021   5.873   3.614
  130TIP3    H1  396   1.964   5.810   3.570
  130TIP3    H2  397   1.967   5.951   3.625
  131TIP3   OH2  398   4.009   3.077   0.249
  131TIP3    H1  399   4.070   3.148   0.229
  131TIP3    H2  400   4.013   3.019   0.173
  132TIP3   OH2  401   3.983   1.029   0.831
  132TIP3    H1  402   3.974   1.080   0.912
  132TIP3    H2  403   4.037   0.954   0.856
  133TIP3   OH2  404   4.571   0.117   2.297
  133TIP3    H1  405   4.522   0.134   2.378
  133TIP3    H2  406   4.654   0.164   2.309
  134TIP3   OH2  407   2.358   3.563   0.821
  134TIP3    H1  408   2.412   3.493   0.784
  134TIP3    H2  409   2.322   3.525   0.901
  135TIP3   OH2  410   1.896   1.864   2.274
  135TIP3    H1  411   1.866   1.791   2.327
  135TIP3    H2  412   1.818   1.918   2.260
  136TIP3   OH2  413   5.184   2.305   4.813
  136TIP3    H1  414   5.111   2.253   4.847
  136TIP3    H2  415   5.154   2.337   4.728
  137TIP3   OH2  416   3.854   4.295   4.980
  137TIP3    H1  417   3.796   4.222   4.960
  137TIP3    H2  418   3.925   4.257   5.031
  138TIP3   OH2  419   3.388   5.447   4.439
  138TIP3    H1  420   3.374   5.466   4.532
  138TIP3    H2  421   3.468   5.494   4.416
  139TIP3   OH2  422   5.335   0.855   1.299
  139TIP3    H1  423   5.307   0.882   1.387
  139TIP3    H2  424   5.426   0.827   1.311
  140TIP3   OH2  425   6.156   2.438   0.665
  140TIP3    H1  426   6.187   2.376   0.599
  140TIP3    H2  427   6.100   2.499   0.617
  141TIP3   OH2  428   5.455   1.867   3.839
  141TIP3    H1  429   5.432   1.837   3.927
  141TIP3    H2  430   5.392   1.824   3.781
  142TIP3   OH2  431   3.899   4.609   3.082
  142TIP3    H1  432   3.934   4.521   3.069
  142TIP3    H2  433   3.968   4.656   3.129
  143TIP3   OH2  434   5.203   1.879   3.122
  143TIP3    H1  435   5.146   1.862   3.197
  143TIP3    H2  436   5.289   1.898   3.161
  144TIP3   OH2  437   5.823   2.581   4.517
  144TIP3    H1  438   5.898   2.612   4.466
  144TIP3    H2  439   5.850   2.593   4.608
  145TIP3   OH2  440   5.441   3.546   2.722
  145TIP3    H1  441   5.386   3.613   2.763
  145TIP3    H2  442   5.451   3.575   2.632
  146TIP3   OH2  443   4.871   1.221   2.440
  146TIP3    H1  444   4.835   1.307   2.465
  146TIP3    H2  445   4.958   1.219   2.480
  147TIP3   OH2  446   6.345   2.610   1.715
  147TIP3    H1  447   6.274   2.628   1.654
  147TIP3    H2  448   6.325   2.524   1.752
  148TIP3   OH2  449   5.690   2.208   2.584
  148TIP3    H1  450   5.676   2.237   2.493
  148TIP3    H2  451   5.771   2.251   2.610
  149TIP3   OH2  452   5.168   4.209   3.403
  149TIP3    H1  453   5.245   4.266   3.397
  149TIP3    H2  454   5.177   4.167   3.489
  150TIP3   OH2  455   1.904   5.859   0.302
  150TIP3    H1  456   1.934   5.841   0.392
  150TIP3    H2  457   1.957   5.932   0.273
  151TIP3   OH2  458   2.887   1.112   2.457
  151TIP3    H1  459   2.918   1.077   2.374
  151TIP3    H2  460   2.855   1.200   2.436
  152TIP3   OH2  461   1.882   4.092   5.196
  152TIP3    H1  462   1.910   4.092   5.105
  152TIP3    H2  463   1.929   4.019   5.236
  153TIP3   OH2  464   1.106   3.235   3.146
  153TIP3    H1  465   1.035   3.208   3.204
  153TIP3    H2  466   1.126   3.325   3.173
  154TIP3   OH2  467   5.689   5.683   2.068
  154TIP3    H1  468   5.656   5.762   2.111
  154TIP3    H2  469   5.632   5.673   1.992
  155TIP3   OH2  470   5.958   5.933   4.609
  155TIP3    H1  471   5.974   6.024   4.583
  155TIP3    H2  472   5.967   5.934   4.705
  156TIP3   OH2  473   4.357   1.637   4.044
  156TIP3    H1  474   4.364   1.629   4.139
  156TIP3    H2  475   4.422   1.703   4.020
  157TIP3   OH2  476   6.232   3.002   2.129
  157TIP3    H1  477   6.176   3.022   2.055
  157TIP3    H2  478   6.311   2.964   2.090
  158TIP3   OH2  479   4.302   2.183   1.745
  158TIP3    H1  480   4.363   2.160   1.814
  158TIP3    H2  481   4.245   2.250   1.784
  159TIP3   OH2  482   0.007   4.010   4.314
  159TIP3    H1  483  -0.019   3.928   4.356
  159TIP3    H2  484  -0.057   4.023   4.245
  160TIP3   OH2  485   2.352   5.385   4.305
  160TIP3    H1  486   2.361   5.306   4.359
  160TIP3    H2  487   2.429   5.383   4.248
  161TIP3   OH2  488   4.661   1.234   1.804
  161TIP3    H1  489   4.730   1.215   1.740
  161TIP3    H2  490   4.606   1.156   1.803
  162TIP3   OH2  491   3.642   1.849   1.318
  162TIP3    H1  492   3.548   1.843   1.335
  162TIP3    H2  493   3.662   1.772   1.264
  163TIP3   OH2  494   1.473   1.548   3.620
  163TIP3    H1  495   1.555   1.533   3.574
  163TIP3    H2  496   1.498   1.595   3.700
  164TIP3   OH2  497   6.243   1.807   1.877
  164TIP3    H1  498   6.305   1.760   1.821
  164TIP3    H2  499   6.283   1.806   1.964
  165TIP3   OH2  500   5.027   3.433   1.012
  165TIP3    H1  501   5.036   3.507   0.952
  165TIP3    H2  502   5.116   3.419   1.046
  166TIP3   OH2  503   4.818   1.823   4.804
  166TIP3    H1  504   4.804   1.882   4.730
  166TIP3    H2  505   4.746   1.841   4.863
  167TIP3   OH2  506   3.410   4.906   0.747
  167TIP3    H1  507   3.354   4.942   0.679
  167TIP3    H2  508   3.487   4.963   0.747
  168TIP3   OH2  509   0.221   0.237   3.614
  168TIP3    H1  510   0.133   0.215   3.584
  168TIP3    H2  511   0.208   0.287   3.694
  169TIP3   OH2  512   4.440   0.425   4.226
  169TIP3    H1  513   4.481   0.412   4.311
  169TIP3    H2  514   4.348   0.400   4.239
  170TIP3   OH2  515   5.289   1.206   0.807
  170TIP3    H1  516   5.315   1.158   0.728
  170TIP3    H2  517   5.323   1.295   0.794
  171TIP3   OH2  518   3.090   4.414   1.034
  171TIP3    H1  519   3.014   4.372   0.992
  171TIP3    H2  520   3.122   4.349   1.096
  172TIP3   OH2  521   3.020   2.668   0.229
  172TIP3    H1  522   3.077   2.594   0.207
  172TIP3    H2  523   2.987   2.699   0.144
  173TIP3   OH2  524   1.053   5.207   0.598
  173TIP3    H1  525   1.042   5.237   0.508
  173TIP3    H2  526   1.055   5.287   0.651
  174TIP3   OH2  527   1.810   5.125   0.663
  174TIP3    H1  528   1.758   5.142   0.584
  174TIP3    H2  529   1.750   5.076   0.720
  175TIP3   OH2  530   1.849   2.766   1.286
  175TIP3    H1  531   1.899   2.835   1.331
  175TIP3    H2  532   1.829   2.803   1.200
  176TIP3   OH2  533   5.535   3.963   2.632
  176TIP3    H1  534   5.609   3.990   2.577
  176TIP3    H2  535   5.488   3.899   2.578
  177TIP3   OH2  536   3.858   4.873   3.425
  177TIP3    H1  537   3.784   4.929   3.452
  177TIP3    H2  538   3.926   4.935   3.399
  178TIP3   OH2  539   3.375   3.860   3.561
  178TIP3    H1  540   3.377   3.955   3.547
  178TIP3    H2  541   3.380   3.850   3.656
  179TIP3   OH2  542   3.784   0.317   0.944
  179TIP3    H1  543   3.708   0.346   0.995
  179TIP3    H2  544   3.842   0.276   1.009
  180TIP3   OH2  545   2.341   4.205   0.153
  180TIP3    H1  546   2.319   4.118   0.187
  180TIP3    H2  547   2.412   4.235   0.210
  181TIP3   OH2  548   0.876   5.015   3.095
  181TIP3    H1  549   0.890   5.109   3.079
  181TIP3    H2  550   0.797   4.995   3.044
  182TIP3   OH2  551   5.704   0.266   0.897
  182TIP3    H1  552   5.613   0.237   0.885
  182TIP3    H2  553   5.697   0.348   0.946
  183TIP3   OH2  554   5.506   1.248   1.824
  183TIP3    H1  555   5.428   1.287   1.863
  183TIP3    H2  556   5.512   1.286   1.737
  184TIP3   OH2  557   1.612   1.682   1.248
  184TIP3    H1  558   1.628   1.599   1.202
  184TIP3    H2  559   1.572   1.739   1.182
  185TIP3   OH2  560   1.946   3.044   3.915
  185TIP3    H1  561   2.039   3.065   3.905
  185TIP3    H2  562   1.914   3.036   3.825
  186TIP3   OH2  563   4.586   1.352   3.947
  186TIP3    H1  564   4.572   1.293   4.022
  186TIP3    H2  565   4.504   1.347   3.898
  187TIP3   OH2  566   3.308   4.984   2.089
  187TIP3    H1  567   3.348   4.902   2.120
  187TIP3    H2  568   3.369   5.052   2.118
  188TIP3   OH2  569   2.075   3.333   1.978
  188TIP3    H1  570   2.125   3.374   2.048
  188TIP3    H2  571   2.020   3.403   1.943
  189TIP3   OH2  572   0.694   4.245   1.644
  189TIP3    H1  573   0.663   4.162   1.608
  189TIP3    H2  574   0.660   4.246   1.734
  190TIP3   OH2  575   4.309   0.633   0.538
  190TIP3    H1  576   4.358   0.615   0.618
  190TIP3    H2  577   4.273   0.721   0.551
  191TIP3   OH2  578   4.387   2.643   1.524
  191TIP3    H1  579   4.449   2.712   1.501
  191TIP3    H2  580   4.377   2.592   1.443
  192TIP3   OH2  581   3.184   3.599   0.793
  192TIP3    H1  582   3.097   3.559   0.801
  192TIP3    H2  583   3.241   3.541   0.843
  193TIP3   OH2  584   5.064   3.161   3.587
  193TIP3    H1  585   4.993   3.109   3.624
  193TIP3    H2  586   5.040   3.173   3.495
  194TIP3   OH2  587   0.460   4.246   4.496
  194TIP3    H1  588   0.407   4.210   4.425
  194TIP3    H2  589   0.512   4.315   4.454
  195TIP3   OH2  590   3.332   0.893   0.022
  195TIP3    H1  591   3.315   0.811  -0.023
  195TIP3    H2  592   3.263   0.899   0.087
  196TIP3   OH2  593   2.611   2.205   0.817
  196TIP3    H1  594   2.547   2.207   0.745
  196TIP3    H2  595   2.584   2.275   0.876
  197TIP3   OH2  596   0.534   5.896   4.856
  197TIP3    H1  597   0.518   5.907   4.763
  197TIP3    H2  598   0.629   5.886   4.863
  198TIP3   OH2  599   1.856   0.381   4.679
  198TIP3    H1  600   1.880   0.332   4.758
  198TIP3    H2  601   1.820   0.314   4.620
  199TIP3   OH2  602   4.328   2.984   4.319
  199TIP3    H1  603   4.347   2.987   4.225
  199TIP3    H2  604   4.389   2.919   4.354
  200TIP3   OH2  605   0.403   2.750   0.084
  200TIP3    H1  606   0.319   2.759   0.129
  200TIP3    H2  607   0.451   2.684   0.135
  201TIP3   OH2  608   5.260   2.785   4.314
  201TIP3    H1  609   5.262   2.767   4.220
  201TIP3    H2  610   5.352   2.793   4.339
  202TIP3   OH2  611   5.846   5.914   1.054
  202TIP3    H1  612   5.939   5.919   1.034
  202TIP3    H2  613   5.841   5.908   1.149
  203TIP3   OH2  614   2.490   0.167   1.398
  203TIP3    H1  615   2.406   0.181   1.354
  203TIP3    H2  616   2.475   0.199   1.487
  204TIP3   OH2  617   4.829   4.794   1.896
  204TIP3    H1  618   4.830   4.883   1.859
  204TIP3    H2  619   4.892   4.745   1.843
  205TIP3   OH2  620   0.628   0.526   1.129
  205TIP3    H1  621   0.586   0.472   1.196
  205TIP3    H2  622   0.605   0.616   1.153
  206TIP3   OH2  623   3.747   1.984   4.007
  206TIP3    H1  624   3.765   2.045   4.079
  206TIP3    H2  625   3.815   2.002   3.942
  207TIP3   OH2  626   5.035   3.163   3.931
  207TIP3    H1  627   5.126   3.135   3.927
  207TIP3    H2  628   5.032   3.244   3.881
  208TIP3   OH2  629   4.516   2.106   4.622
  208TIP3    H1  630   4.522   2.190   4.577
  208TIP3    H2  631   4.436   2.067   4.588
  209TIP3   OH2  632   0.410   3.421   3.698
  209TIP3    H1  633   0.380   3.340   3.657
  209TIP3    H2  634   0.399   3.488   3.631
  210TIP3   OH2  635   0.478   1.225   2.816
  210TIP3    H1  636   0.532   1.304   2.806
  210TIP3    H2  637   0.456   1.223   2.910
  211TIP3   OH2  638   2.425   5.833   4.974
  211TIP3    H1  639   2.400   5.828   4.882
  211TIP3    H2  640   2.345   5.857   5.020
  212TIP3   OH2  641   2.103   1.246   0.912
  212TIP3    H1  642   2.050   1.195   0.974
  212TIP3    H2  643   2.045   1.315   0.882
  213TIP3   OH2  644   2.970   1.282   1.033
  213TIP3    H1  645   3.040   1.251   0.975
  213TIP3    H2  646   2.947   1.205   1.085
  214TIP3   OH2  647   3.668   1.755   4.993
  214TIP3    H1  648   3.655   1.833   4.940
  214TIP3    H2  649   3.628   1.684   4.943
  215TIP3   OH2  650   1.761   3.041   1.167
  215TIP3    H1  651   1.704   3.068   1.239
  215TIP3    H2  652   1.703   2.993   1.108
  216TIP3   OH2  653   6.073   2.718   2.921
  216TIP3    H1  654   6.030   2.736   2.837
  216TIP3    H2  655   6.165   2.742   2.907
  217TIP3   OH2  656   5.590   2.850   0.783
  217TIP3    H1  657   5.516   2.866   0.724
  217TIP3    H2  658   5.648   2.925   0.770
  218TIP3   OH2  659   4.318   1.814   3.352
  218TIP3    H1  660   4.267   1.732   3.353
  218TIP3    H2  661   4.361   1.813   3.266
  219TIP3   OH2  662   1.840   0.949   4.412
  219TIP3    H1  663   1.911   1.011   4.396
  219TIP3    H2  664   1.883   0.875   4.455
  220TIP3   OH2  665   4.346   2.100   3.783
  220TIP3    H1  666   4.386   2.082   3.698
  220TIP3    H2  667   4.295   2.021   3.803
  221TIP3   OH2  668   2.328   0.875   3.970
  221TIP3    H1  669   2.272   0.951   3.979
  221TIP3    H2  670   2.274   0.810   3.925
  222TIP3   OH2  671   2.398   4.781   0.266
  222TIP3    H1  672   2.391   4.686   0.257
  222TIP3    H2  673   2.492   4.797   0.264
  223TIP3   OH2  674   3.336   5.033   3.058
  223TIP3    H1  675   3.335   5.078   2.973
  223TIP3    H2  676   3.429   5.024   3.079
  224TIP3   OH2  677   2.593   1.469   2.432
  224TIP3    H1  678   2.628   1.558   2.420
  224TIP3    H2  679   2.508   1.483   2.474
  225TIP3   OH2  680   0.848   4.963   4.271
  225TIP3    H1  681   0.843   5.022   4.195
  225TIP3    H2  682   0.941   4.960   4.293
  226TIP3   OH2  683   4.649   2.476   2.213
  226TIP3    H1  684   4.586   2.511   2.149
  226TIP3    H2  685   4.696   2.408   2.165
  227TIP3   OH2  686   4.707   2.449   3.212
  227TIP3    H1  687   4.691   2.512   3.142
  227TIP3    H2  688   4.788   2.404   3.187
  228TIP3   OH2  689   4.414   3.706   4.600
  228TIP3    H1  690   4.486   3.766   4.580
  228TIP3    H2  691   4.375   3.741   4.680
  229TIP3   OH2  692   1.823   1.680   1.459
  229TIP3    H1  693   1.827   1.775   1.448
  229TIP3    H2  694   1.818   1.645   1.370
  230TIP3   OH2  695   4.303   2.969   4.793
  230TIP3    H1  696   4.297   3.057   4.829
  230TIP3    H2  697   4.389   2.937   4.821
  231TIP3   OH2  698   5.560   3.503   1.371
  231TIP3    H1  699   5.624   3.574   1.380
  231TIP3    H2  700   5.485   3.531   1.423
  232TIP3   OH2  701   3.114   4.194   4.477
  232TIP3    H1  702   3.137   4.272   4.526
  232TIP3    H2  703   3.075   4.135   4.542
  233TIP3   OH2  704   1.885   5.754   0.034
  233TIP3    H1  705   1.902   5.838  -0.010
  233TIP3    H2  706   1.907   5.771   0.125
  234TIP3   OH2  707   4.360   5.497   4.611
  234TIP3    H1  708   4.279   5.486   4.659
  234TIP3    H2  709   4.335   5.484   4.519
  235TIP3   OH2  710   5.114   1.124   0.051
  235TIP3    H1  711   5.137   1.114  -0.042
  235TIP3    H2  712   5.191   1.092   0.098
  236TIP3   OH2  713   6.170   0.260   3.820
  236TIP3    H1  714   6.124   0.239   3.902
  236TIP3    H2  715   6.105   0.243   3.751
  237TIP3   OH2  716   5.080   2.232   4.191
  237TIP3    H1  717   5.014   2.298   4.213
  237TIP3    H2  718   5.118   2.207   4.275
  238TIP3   OH2  719   3.884   5.773   1.696
  238TIP3    H1  720   3.795   5.772   1.659
  238TIP3    H2  721   3.941   5.751   1.622
  239TIP3   OH2  722   0.438   0.191   5.182
  239TIP3    H1  723   0.382   0.245   5.127
  239TIP3    H2  724   0.446   0.108   5.133
  240TIP3   OH2  725   2.117   0.565   2.403
  240TIP3    H1  726   2.024   0.587   2.405
  240TIP3    H2  727   2.139   0.567   2.310
  241TIP3   OH2  728   1.697   5.599   2.922
  241TIP3    H1  729   1.675   5.625   3.011
  241TIP3    H2  730   1.695   5.503   2.923
  242TIP3   OH2  731   3.499   3.850   3.141
  242TIP3    H1  732   3.487   3.828   3.049
  242TIP3    H2  733   3.480   3.768   3.188
  243TIP3   OH2  734   4.086   5.945   3.431
  243TIP3    H1  735   4.093   5.910   3.520
  243TIP3    H2  736   4.177   5.959   3.404
  244TIP3   OH2  737   3.579   5.592   2.603
  244TIP3    H1  738   3.673   5.583   2.613
  244TIP3    H2  739   3.548   5.503   2.584
  245TIP3   OH2  740   3.353   5.290   0.328
  245TIP3    H1  741   3.330   5.324   0.414
  245TIP3    H2  742   3.301   5.210   0.318
  246TIP3   OH2  743   3.888   0.725   2.575
  246TIP3    H1  744   3.838   0.736   2.656
  246TIP3    H2  745   3.979   0.717   2.604
  247TIP3   OH2  746   1.540   2.859   2.197
  247TIP3    H1  747   1.462   2.874   2.144
  247TIP3    H2  748   1.528   2.772   2.235
  248TIP3   OH2  749   1.468   3.689   4.435
  248TIP3    H1  750   1.447   3.782   4.438
  248TIP3    H2  751   1.394   3.648   4.389
  249TIP3   OH2  752   6.092   1.781   4.236
  249TIP3    H1  753   6.021   1.743   4.287
  249TIP3    H2  754   6.050   1.815   4.157
  250TIP3   OH2  755   4.560   4.449   3.231
  250TIP3    H1  756   4.499   4.375   3.232
  250TIP3    H2  757   4.542   4.495   3.313
  251TIP3   OH2  758   2.174   4.783   1.321
  251TIP3    H1  759   2.262   4.816   1.339
  251TIP3    H2  760   2.148   4.739   1.402
  252TIP3   OH2  761   0.509   1.417   4.382
  252TIP3    H1  762   0.543   1.506   4.387
  252TIP3    H2  763   0.419   1.424   4.413
  253TIP3   OH2  764   4.932   5.399   1.894
  253TIP3    H1  765   4.955   5.444   1.813
  253TIP3    H2  766   4.901   5.468   1.952
  254TIP3   OH2  767   0.314   4.480   1.864
  254TIP3    H1  768   0.347   4.442   1.945
  254TIP3    H2  769   0.333   4.574   1.871
  255TIP3   OH2  770   3.515   2.002   4.288
  255TIP3    H1  771   3.472   1.970   4.367
  255TIP3    H2  772   3.594   1.949   4.280
  256TIP3   OH2  773   1.187   5.976   3.358
  256TIP3    H1  774   1.149   5.902   3.312
  256TIP3    H2  775   1.281   5.964   3.350
  257TIP3   OH2  776   5.567   2.651   3.918
  257TIP3    H1  777   5.650   2.606   3.934
  257TIP3    H2  778   5.591   2.730   3.870
  258TIP3   OH2  779   3.681   5.620   4.751
  258TIP3    H1  780   3.591   5.610   4.783
  258TIP3    H2  781   3.730   5.549   4.794
  259TIP3   OH2  782   1.915   3.695   2.645
  259TIP3    H1  783   1.962   3.617   2.676
  259TIP3    H2  784   1.851   3.661   2.583
  260TIP3   OH2  785   3.932   4.716   2.431
  260TIP3    H1  786   3.895   4.764   2.506
  260TIP3    H2  787   4.026   4.714   2.448
  261TIP3   OH2  788   1.522   3.442   2.665
  261TIP3    H1  789   1.500   3.406   2.751
  261TIP3    H2  790   1.591   3.505   2.683
  262TIP3   OH2  791   4.825   5.468   0.955
  262TIP3    H1  792   4.798   5.557   0.933
  262TIP3    H2  793   4.820   5.464   1.051
  263TIP3   OH2  794   6.273   5.686   5.181
  263TIP3    H1  795   6.325   5.666   5.104
  263TIP3    H2  796   6.278   5.781   5.189
  264TIP3   OH2  797   3.426   4.135   0.116
  264TIP3    H1  798   3.427   4.110   0.209
  264TIP3    H2  799   3.389   4.223   0.116
  265TIP3   OH2  800   4.256   2.156   0.167
  265TIP3    H1  801   4.275   2.221   0.235
  265TIP3    H2  802   4.324   2.089   0.178
  266TIP3   OH2  803   2.871   3.565   0.797
  266TIP3    H1  804   2.819   3.622   0.853
  266TIP3    H2  805   2.839   3.582   0.708
  267TIP3   OH2  806   5.745   1.104   1.829
  267TIP3    H1  807   5.727   1.014   1.859
  267TIP3    H2  808   5.664   1.151   1.848
  268TIP3   OH2  809   3.263   0.552   2.425
  268TIP3    H1  810   3.220   0.634   2.403
  268TIP3    H2  811   3.249   0.496   2.349
  269TIP3   OH2  812   0.037   1.313   4.807
  269TIP3    H1  813   0.117   1.261   4.799
  269TIP3    H2  814   0.052   1.388   4.749
  270TIP3   OH2  815   3.731   3.643   2.303
  270TIP3    H1  816   3.675   3.720   2.291
  270TIP3    H2  817   3.807   3.660   2.248
  271TIP3   OH2  818   1.236   4.343   0.798
  271TIP3    H1  819   1.141   4.339   0.782
  271TIP3    H2  820   1.246   4.320   0.890
  272TIP3   OH2  821   5.079   2.741   3.637
  272TIP3    H1  822   5.117   2.666   3.591
  272TIP3    H2  823   5.153   2.797   3.656
  273TIP3   OH2  824   2.774   2.307   2.130
  273TIP3    H1  825   2.783   2.277   2.039
  273TIP3    H2  826   2.863   2.303   2.165
  274TIP3   OH2  827   4.897   4.627   1.496
  274TIP3    H1  828   4.915   4.558   1.432
  274TIP3    H2  829   4.822   4.674   1.461
  275TIP3   OH2  830   3.060   3.571   2.576
  275TIP3    H1  831   3.132   3.628   2.603
  275TIP3    H2  832   2.994   3.582   2.644
  276TIP3   OH2  833   5.292   3.893   4.648
  276TIP3    H1  834   5.338   3.966   4.689
  276TIP3    H2  835   5.338   3.815   4.679
  277TIP3   OH2  836   0.806   5.728   2.683
  277TIP3    H1  837   0.727   5.675   2.684
  277TIP3    H2  838   0.817   5.757   2.773
  278TIP3   OH2  839   2.910   2.169   4.432
  278TIP3    H1  840   3.002   2.195   4.435
  278TIP3    H2  841   2.896   2.116   4.510
  279TIP3   OH2  842   0.816   5.924   4.932
  279TIP3    H1  843   0.825   6.019   4.945
  279TIP3    H2  844   0.803   5.890   5.021
  280TIP3   OH2  845   0.845   1.994   0.910
  280TIP3    H1  846   0.776   2.059   0.924
  280TIP3    H2  847   0.886   1.984   0.995
  281TIP3   OH2  848   2.820   3.850   2.747
  281TIP3    H1  849   2.880   3.924   2.761
  281TIP3    H2  850   2.771   3.873   2.669
  282TIP3   OH2  851   3.528   5.542   3.963
  282TIP3    H1  852   3.510   5.465   4.017
  282TIP3    H2  853   3.518   5.511   3.873
  283TIP3   OH2  854   4.790   5.957   1.574
  283TIP3    H1  855   4.767   5.947   1.482
  283TIP3    H2  856   4.886   5.956   1.576
  284TIP3   OH2  857   2.178   0.562   2.131
  284TIP3    H1  858   2.263   0.545   2.090
  284TIP3    H2  859   2.117   0.568   2.057
  285TIP3   OH2  860   0.282   1.272   2.175
  285TIP3    H1  861   0.209   1.215   2.202
  285TIP3    H2  862   0.349   1.258   2.242
  286TIP3   OH2  863   5.084   1.956   3.665
  286TIP3    H1  864   5.042   1.994   3.587
  286TIP3    H2  865   5.011   1.919   3.715
  287TIP3   OH2  866   6.135   5.593   1.792
  287TIP3    H1  867   6.192   5.670   1.788
  287TIP3    H2  868   6.188   5.526   1.834
  288TIP3   OH2  869   4.989   3.637   4.309
  288TIP3    H1  870   5.024   3.555   4.344
  288TIP3    H2  871   4.912   3.611   4.258
  289TIP3   OH2  872   6.241   5.736   2.982
  289TIP3    H1  873   6.238   5.698   3.070
  289TIP3    H2  874   6.190   5.675   2.928
  290TIP3   OH2  875   6.064   3.461   2.874
  290TIP3    H1  876   5.985   3.456   2.819
  290TIP3    H2  877   6.136   3.445   2.813
  291TIP3   OH2  878   1.320   3.705   1.675
  291TIP3    H1  879   1.378   3.780   1.687
  291TIP3    H2  880   1.334   3.651   1.753
  292TIP3   OH2  881   1.143   1.673   2.508
  292TIP3    H1  882   1.134   1.768   2.503
  292TIP3    H2  883   1.107   1.650   2.594
  293TIP3   OH2  884   2.694   0.549   0.184
  293TIP3    H1  885   2.611   0.513   0.154
  293TIP3    H2  886   2.708   0.511   0.270
  294TIP3   OH2  887   6.086   3.045   3.356
  294TIP3    H1  888   5.997   3.021   3.334
  294TIP3    H2  889   6.098   3.014   3.446
  295TIP3   OH2  890   2.235   2.662   3.021
  295TIP3    H1  891   2.319   2.618   3.008
  295TIP3    H2  892   2.170   2.603   2.984
  296TIP3   OH2  893   5.664   1.980   3.655
  296TIP3    H1  894   5.696   1.900   3.613
  296TIP3    H2  895   5.591   1.950   3.710
  297TIP3   OH2  896   3.226   4.879   2.579
  297TIP3    H1  897   3.297   4.844   2.526
  297TIP3    H2  898   3.270   4.912   2.658
  298TIP3   OH2  899   3.074   3.844   2.392
  298TIP3    H1  900   3.004   3.782   2.414
  298TIP3    H2  901   3.029   3.923   2.363
  299TIP3   OH2  902   2.851   1.909   2.072
  299TIP3    H1  903   2.756   1.901   2.071
  299TIP3    H2  904   2.868   1.996   2.035
  300TIP3   OH2  905   5.222   0.713   0.643
  300TIP3    H1  906   5.187   0.750   0.724
  300TIP3    H2  907   5.308   0.755   0.633
  301TIP3   OH2  908   3.931   2.344   3.847
  301TIP3    H1  909   3.871   2.411   3.815
  301TIP3    H2  910   3.970   2.383   3.925
  302TIP3   OH2  911   3.616   5.407   2.296
  302TIP3    H1  912   3.677   5.422   2.223
  302TIP3    H2  913   3.580   5.494   2.315
  303TIP3   OH2  914   5.369   0.451   0.538
  303TIP3    H1  915   5.451   0.470   0.492
  303TIP3    H2  916   5.321   0.534   0.535
  304TIP3   OH2  917   0.305   3.134   2.299
  304TIP3    H1  918   0.281   3.224   2.317
  304TIP3    H2  919   0.379   3.140   2.238
  305TIP3   OH2  920   5.275   4.934   2.961
  305TIP3    H1  921   5.321   4.858   2.924
  305TIP3    H2  922   5.310   5.009   2.914
  306TIP3   OH2  923   3.921   1.758   4.195
  306TIP3    H1  924   3.947   1.814   4.121
  306TIP3    H2  925   3.926   1.669   4.161
  307TIP3   OH2  926   5.485   3.964   0.253
  307TIP3    H1  927   5.491   3.872   0.280
  307TIP3    H2  928   5.576   3.994   0.250
  308TIP3   OH2  929   2.257   5.127   4.103
  308TIP3    H1  930   2.310   5.139   4.182
  308TIP3    H2  931   2.279   5.203   4.048
  309TIP3   OH2  932   3.750   5.967   2.214
  309TIP3    H1  933   3.729   6.046   2.264
  309TIP3    H2  934   3.811   5.996   2.147
  310TIP3   OH2  935   5.575   5.404   2.727
  310TIP3    H1  936   5.628   5.475   2.691
  310TIP3    H2  937   5.529   5.444   2.801
  311TIP3   OH2  938   4.360   4.912   3.661
  311TIP3    H1  939   4.267   4.891   3.652
  311TIP3    H2  940   4.396   4.841   3.714
  312TIP3   OH2  941   4.201   5.260   1.518
  312TIP3    H1  942   4.216   5.280   1.426
  312TIP3    H2  943   4.213   5.165   1.525
  313TIP3   OH2  944   4.238   2.795   1.823
  313TIP3    H1  945   4.166   2.767   1.879
  313TIP3    H2  946   4.244   2.726   1.756
  314TIP3   OH2  947   6.027   3.036   1.456
  314TIP3    H1  948   6.086   3.079   1.394
  314TIP3    H2  949   6.008   2.951   1.416
  315TIP3   OH2  950   3.767   5.076   4.206
  315TIP3    H1  951   3.800   5.070   4.117
  315TIP3    H2  952   3.782   4.989   4.244
  316TIP3   OH2  953   6.080   0.562   4.636
  316TIP3    H1  954   6.162   0.573   4.588
  316TIP3    H2  955   6.012   0.569   4.569
  317TIP3   OH2  956   5.221   2.957   4.623
  317TIP3    H1  957   5.287   2.912   4.569
  317TIP3    H2  958   5.165   2.887   4.656
  318TIP3   OH2  959   5.594   4.741   3.675
  318TIP3    H1  960   5.597   4.693   3.592
  318TIP3    H2  961   5.621   4.676   3.740
  319TIP3   OH2  962   2.139   5.118   4.658
  319TIP3    H1  963   2.153   5.207   4.625
  319TIP3    H2  964   2.121   5.130   4.751
  320TIP3   OH2  965   4.647   3.993   4.919
  320TIP3    H1  966   4.603   4.071   4.885
  320TIP3    H2  967   4.740   4.010   4.908
  321TIP3   OH2  968   4.544   5.002   4.874
  321TIP3    H1  969   4.591   5.083   4.854
  321TIP3    H2  970   4.593   4.934   4.828
  322TIP3   OH2  971   3.642   0.018   4.865
  322TIP3    H1  972   3.648   0.113   4.858
  322TIP3    H2  973   3.556  -0.004   4.829
  323TIP3   OH2  974   2.719   3.497   2.171
  323TIP3    H1  975   2.791   3.553   2.143
  323TIP3    H2  976   2.670   3.478   2.092
  324TIP3   OH2  977   3.947   1.184   4.216
  324TIP3    H1  978   3.865   1.135   4.228
  324TIP3    H2  979   3.944   1.212   4.125
  325TIP3   OH2  980   6.333   5.067   2.316
  325TIP3    H1  981   6.352   5.050   2.224
  325TIP3    H2  982   6.240   5.048   2.326
  326TIP3   OH2  983   5.926   1.223   1.203
  326TIP3    H1  984   5.866   1.154   1.174
  326TIP3    H2  985   5.868   1.295   1.229
  327TIP3   OH2  986   4.603   3.612   1.969
  327TIP3    H1  987   4.596   3.683   2.033
  327TIP3    H2  988   4.638   3.539   2.019
  328TIP3   OH2  989   5.817   3.213   0.028
  328TIP3    H1  990   5.836   3.126  -0.009
  328TIP3    H2  991   5.881   3.223   0.098
  329TIP3   OH2  992   4.284   1.909   5.028
  329TIP3    H1  993   4.210   1.962   5.000
  329TIP3    H2  994   4.300   1.936   5.119
  330TIP3   OH2  995   0.753   3.253   0.786
  330TIP3    H1  996   0.701   3.302   0.850
  330TIP3    H2  997   0.824   3.313   0.762
  331TIP3   OH2  998   2.735   0.564   3.934
  331TIP3    H1  999   2.722   0.655   3.961
  331TIP3    H2 1000   2.666   0.548   3.870
  332TIP3   OH2 1001   0.137   2.424   1.252
  332TIP3    H1 1002   0.213   2.368   1.273
  332TIP3    H2 1003   0.152   2.451   1.162
  333TIP3   OH2 1004   2.009   2.196   4.731
  333TIP3    H1 1005   2.039   2.162   4.647
  333TIP3    H2 1006   1.922   2.232   4.713
  334TIP3   OH2 1007   4.951   2.691   1.058
  334TIP3    H1 1008   4.975   2.632   0.986
  334TIP3    H2 1009   4.933   2.633   1.131
  335TIP3   OH2 1010   3.515   4.938   0.386
  335TIP3    H1 1011   3.438   4.982   0.422
  335TIP3    H2 1012   3.520   4.970   0.295
  336TIP3   OH2 1013   1.893   4.446   2.095
  336TIP3    H1 1014   1.867   4.358   2.068
  336TIP3    H2 1015   1.861   4.502   2.025
  337TIP3   OH2 1016   6.266   1.421   0.846
  337TIP3    H1 1017   6.296   1.511   0.839
  337TIP3    H2 1018   6.233   1.414   0.936
  338TIP3   OH2 1019   3.563   2.651   4.454
  338TIP3    H1 1020   3.535   2.635   4.544
  338TIP3    H2 1021   3.655   2.624   4.453
  339TIP3   OH2 1022   2.524   2.555   3.924
  339TIP3    H1 1023   2.454   2.605   3.882
  339TIP3    H2 1024   2.536   2.478   3.868
  340TIP3   OH2 1025   4.206   5.749   0.224
  340TIP3    H1 1026   4.198   5.824   0.283
  340TIP3    H2 1027   4.159   5.678   0.268
  341TIP3   OH2 1028   3.517   2.238   0.982
  341TIP3    H1 1029   3.506   2.269   0.892
  341TIP3    H2 1030   3.566   2.156   0.973
  342TIP3   OH2 1031   0.681   2.867   1.502
  342TIP3    H1 1032   0.610   2.892   1.561
  342TIP3    H2 1033   0.643   2.874   1.415
  343TIP3   OH2 1034   2.184   0.009   1.186
  343TIP3    H1 1035   2.275   0.031   1.167
  343TIP3    H2 1036   2.140   0.014   1.101
  344TIP3   OH2 1037   2.986   1.082   1.225
  344TIP3    H1 1038   2.894   1.061   1.243
  344TIP3    H2 1039   3.018   1.007   1.176
  345TIP3   OH2 1040   2.189   5.381   3.493
  345TIP3    H1 1041   2.242   5.306   3.465
  345TIP3    H2 1042   2.181   5.434   3.413
  346TIP3   OH2 1043   1.518   3.903   1.751
  346TIP3    H1 1044   1.606   3.876   1.779
  346TIP3    H2 1045   1.511   3.995   1.779
  347TIP3   OH2 1046   0.924   3.761   3.622
  347TIP3    H1 1047   0.883   3.680   3.592
  347TIP3    H2 1048   0.995   3.732   3.679
  348TIP3   OH2 1049   2.825   5.657   4.961
  348TIP3    H1 1050   2.732   5.634   4.952
  348TIP3    H2 1051   2.829   5.750   4.939
  349TIP3   OH2 1052   3.945   5.055   4.015
  349TIP3    H1 1053   4.020   5.113   4.001
  349TIP3    H2 1054   3.888   5.070   3.940
  350TIP3   OH2 1055   2.890   5.461   1.262
  350TIP3    H1 1056   2.850   5.487   1.345
  350TIP3    H2 1057   2.971   5.512   1.258
  351TIP3   OH2 1058   5.108   5.071   4.240
  351TIP3    H1 1059   5.147   4.989   4.207
  351TIP3    H2 1060   5.098   5.057   4.334
  352TIP3   OH2 1061   5.761   5.390   4.645
  352TIP3    H1 1062   5.821   5.369   4.574
  352TIP3    H2 1063   5.811   5.448   4.703
  353TIP3   OH2 1064   4.135   5.267   4.611
  353TIP3    H1 1065   4.202   5.266   4.544
  353TIP3    H2 1066   4.062   5.315   4.572
  354TIP3   OH2 1067   5.504   3.634   0.934
  354TIP3    H1 1068   5.576   3.681   0.893
  354TIP3    H2 1069   5.469   3.578   0.864
  355TIP3   OH2 1070   2.604   3.277   0.238
  355TIP3    H1 1071   2.570   3.235   0.159
  355TIP3    H2 1072   2.699   3.266   0.233
  356TIP3   OH2 1073   2.247   3.586   4.389
  356TIP3    H1 1074   2.312   3.647   4.355
  356TIP3    H2 1075   2.272   3.501   4.352
  357TIP3   OH2 1076   2.393   1.007   1.276
  357TIP3    H1 1077   2.434   1.053   1.349
  357TIP3    H2 1078   2.385   1.074   1.208
  358TIP3   OH2 1079   5.291   1.848   2.812
  358TIP3    H1 1080   5.368   1.795   2.831
  358TIP3    H2 1081   5.263   1.882   2.897
  359TIP3   OH2 1082   4.553   5.472   0.418
  359TIP3    H1 1083   4.610   5.399   0.396
  359TIP3    H2 1084   4.476   5.432   0.457
  360TIP3   OH2 1085   5.957   1.289   1.990
  360TIP3    H1 1086   5.872   1.312   1.954
  360TIP3    H2 1087   5.942   1.207   2.037
  361TIP3   OH2 1088   5.193   3.844   3.204
  361TIP3    H1 1089   5.201   3.938   3.188
  361TIP3    H2 1090   5.210   3.834   3.298
  362TIP3   OH2 1091   6.105   1.360   5.181
  362TIP3    H1 1092   6.012   1.375   5.198
  362TIP3    H2 1093   6.109   1.333   5.089
  363TIP3   OH2 1094   3.867   2.838   3.360
  363TIP3    H1 1095   3.871   2.758   3.309
  363TIP3    H2 1096   3.864   2.908   3.295
  364TIP3   OH2 1097   0.485   1.672   1.168
  364TIP3    H1 1098   0.569   1.638   1.197
  364TIP3    H2 1099   0.492   1.675   1.073
  365TIP3   OH2 1100   0.575   3.234   1.522
  365TIP3    H1 1101   0.666   3.228   1.493
  365TIP3    H2 1102   0.528   3.173   1.465
  366TIP3   OH2 1103   1.614   1.714   0.569
  366TIP3    H1 1104   1.524   1.694   0.594
  366TIP3    H2 1105   1.632   1.798   0.612
  367TIP3   OH2 1106   3.471   4.532   3.709
  367TIP3    H1 1107   3.463   4.627   3.723
  367TIP3    H2 1108   3.550   4.507   3.757
  368TIP3   OH2 1109   2.719   0.335   2.056
  368TIP3    H1 1110   2.728   0.420   2.014
  368TIP3    H2 1111   2.636   0.300   2.023
  369TIP3   OH2 1112   6.291   0.036   4.875
  369TIP3    H1 1113   6.377   0.023   4.917
  369TIP3    H2 1114   6.300  -0.007   4.790
  370TIP3   OH2 1115   5.388   2.538   1.975
  370TIP3    H1 1116   5.416   2.606   2.036
  370TIP3    H2 1117   5.304   2.507   2.009
  371TIP3   OH2 1118   0.375   2.085   2.444
  371TIP3    H1 1119   0.322   2.062   2.521
  371TIP3    H2 1120   0.418   2.003   2.420
  372TIP3   OH2 1121   4.853   3.825   2.572
  372TIP3    H1 1122   4.769   3.780   2.561
  372TIP3    H2 1123   4.890   3.788   2.653
  373TIP3   OH2 1124   3.252   0.465   1.676
  373TIP3    H1 1125   3.225   0.500   1.761
  373TIP3    H2 1126   3.173   0.426   1.639
  374TIP3   OH2 1127   4.016   5.046   4.756
  374TIP3    H1 1128   4.067   5.114   4.711
  374TIP3    H2 1129   4.041   5.054   4.848
  375TIP3   OH2 1130   2.714   5.231   1.289
  375TIP3    H1 1131   2.788   5.174   1.270
  375TIP3    H2 1132   2.740   5.316   1.254
  376TIP3   OH2 1133   5.661   0.790   1.664
  376TIP3    H1 1134   5.651   0.702   1.626
  376TIP3    H2 1135   5.709   0.839   1.598
  377TIP3   OH2 1136   5.264   5.461   1.017
  377TIP3    H1 1137   5.193   5.421   0.967
  377TIP3    H2 1138   5.312   5.387   1.056
  378TIP3   OH2 1139   3.133   5.126   0.299
  378TIP3    H1 1140   3.134   5.036   0.269
  378TIP3    H2 1141   3.081   5.125   0.379
  379TIP3   OH2 1142   4.199   4.433   2.439
  379TIP3    H1 1143   4.201   4.494   2.364
  379TIP3    H2 1144   4.290   4.406   2.450
  380TIP3   OH2 1145   1.084   0.063   1.534
  380TIP3    H1 1146   1.093   0.023   1.447
  380TIP3    H2 1147   1.119   0.152   1.522
  381TIP3   OH2 1148   1.977   3.488   5.035
  381TIP3    H1 1149   2.066   3.460   5.010
  381TIP3    H2 1150   1.927   3.482   4.954
  382TIP3   OH2 1151   3.305   2.179   3.847
  382TIP3    H1 1152   3.299   2.128   3.766
  382TIP3    H2 1153   3.399   2.186   3.864
  383TIP3   OH2 1154   5.327   2.923   2.500
  383TIP3    H1 1155   5.307   3.016   2.486
  383TIP3    H2 1156   5.361   2.919   2.589
  384TIP3   OH2 1157   0.819   2.055   0.122
  384TIP3    H1 1158   0.894   2.102   0.158
  384TIP3    H2 1159   0.850   1.965   0.112
  385TIP3   OH2 1160   5.384   4.219   0.379
  385TIP3    H1 1161   5.337   4.136   0.392
  385TIP3    H2 1162   5.408   4.219   0.287
  386TIP3   OH2 1163   3.049   4.455   2.228
  386TIP3    H1 1164   3.024   4.539   2.265
  386TIP3    H2 1165   2.985   4.393   2.265
  387TIP3   OH2 1166   3.405   3.843   3.851
  387TIP3    H1 1167   3.463   3.767   3.855
  387TIP3    H2 1168   3.407   3.879   3.939
  388TIP3   OH2 1169   0.765   5.753   0.576
  388TIP3    H1 1170   0.745   5.833   0.528
  388TIP3    H2 1171   0.852   5.768   0.613
  389TIP3   OH2 1172   0.480   0.787   2.717
  389TIP3    H1 1173   0.529   0.869   2.714
  389TIP3    H2 1174   0.544   0.720   2.693
  390TIP3   OH2 1175   6.252   1.097   3.490
  390TIP3    H1 1176   6.345   1.078   3.497
  390TIP3    H2 1177   6.221   1.097   3.580
  391TIP3   OH2 1178   1.883   2.208   1.734
  391TIP3    H1 1179   1.877   2.200   1.829
  391TIP3    H2 1180   1.797   2.241   1.707
  392TIP3   OH2 1181   3.604   3.948   5.030
  392TIP3    H1 1182   3.623   3.893   4.954
  392TIP3    H2 1183   3.687   3.992   5.048
  393TIP3   OH2 1184   3.021   4.436   1.939
  393TIP3    H1 1185   3.110   4.443   1.906
  393TIP3    H2 1186   3.031   4.435   2.035
  394TIP3   OH2 1187   0.732   4.342   0.255
  394TIP3    H1 1188   0.790   4.294   0.315
  394TIP3    H2 1189   0.651   4.291   0.254
  395TIP3   OH2 1190   0.698   3.508   0.638
  395TIP3    H1 1191   0.649   3.469   0.565
  395TIP3    H2 1192   0.782   3.461   0.637
  396TIP3   OH2 1193   5.690   2.139   1.003
  396TIP3    H1 1194   5.713   2.232   1.005
  396TIP3    H2 1195   5.768   2.096   0.968
  397TIP3   OH2 1196   4.171   0.873   3.203
  397TIP3    H1 1197   4.077   0.890   3.209
  397TIP3    H2 1198   4.211   0.959   3.220
  398TIP3   OH2 1199   5.560   4.358   2.556
  398TIP3    H1 1200   5.526   4.303   2.485
  398TIP3    H2 1201   5.595   4.296   2.620
  399TIP3   OH2 1202   2.588   1.491   3.759
  399TIP3    H1 1203   2.658   1.551   3.782
  399TIP3    H2 1204   2.529   1.492   3.834
  400TIP3   OH2 1205   0.649   4.985   0.484
  400TIP3    H1 1206   0.667   5.003   0.576
  400TIP3    H2 1207   0.558   4.955   0.483
  401TIP3   OH2 1208   4.930   0.447   3.218
  401TIP3    H1 1209   4.857   0.386   3.211
  401TIP3    H2 1210   4.948   0.453   3.312
  402TIP3   OH2 1211   5.055   1.134   1.396
  402TIP3    H1 1212   5.076   1.225   1.416
  402TIP3    H2 1213   5.131   1.085   1.425
  403TIP3   OH2 1214   2.472   1.409   3.498
  403TIP3    H1 1215   2.503   1.432   3.586
  403TIP3    H2 1216   2.390   1.363   3.513
  404TIP3   OH2 1217   5.670   5.822   1.758
  404TIP3    H1 1218   5.663   5.886   1.688
  404TIP3    H2 1219   5.763   5.822   1.782
  405TIP3   OH2 1220   2.033   4.587   1.177
  405TIP3    H1 1221   2.092   4.524   1.135
  405TIP3    H2 1222   2.091   4.646   1.224
  406TIP3   OH2 1223   1.982   1.247   0.339
  406TIP3    H1 1224   1.995   1.334   0.378
  406TIP3    H2 1225   2.052   1.193   0.377
  407TIP3   OH2 1226   1.184   1.356   0.034
  407TIP3    H1 1227   1.179   1.390   0.124
  407TIP3    H2 1228   1.094   1.329   0.014
  408TIP3   OH2 1229   0.784   0.889   3.283
  408TIP3    H1 1230   0.848   0.818   3.291
  408TIP3    H2 1231   0.703   0.844   3.257
  409TIP3   OH2 1232   1.253   3.106   4.827
  409TIP3    H1 1233   1.176   3.122   4.881
  409TIP3    H2 1234   1.219   3.096   4.738
  410TIP3   OH2 1235   0.645   5.636   4.594
  410TIP3    H1 1236   0.712   5.570   4.577
  410TIP3    H2 1237   0.562   5.588   4.591
  411TIP3   OH2 1238   3.093   0.853   4.732
  411TIP3    H1 1239   3.112   0.939   4.694
  411TIP3    H2 1240   3.157   0.843   4.802
  412TIP3   OH2 1241   4.390   5.233   3.062
  412TIP3    H1 1242   4.441   5.227   2.981
  412TIP3    H2 1243   4.456   5.247   3.131
  413TIP3   OH2 1244   3.779   4.564   4.962
  413TIP3    H1 1245   3.868   4.574   4.996
  413TIP3    H2 1246   3.767   4.469   4.952
  414TIP3   OH2 1247   2.615   1.663   1.337
  414TIP3    H1 1248   2.614   1.608   1.259
  414TIP3    H2 1249   2.685   1.627   1.391
  415TIP3   OH2 1250   1.710   3.612   2.474
  415TIP3    H1 1251   1.638   3.587   2.417
  415TIP3    H2 1252   1.668   3.654   2.549
  416TIP3   OH2 1253   4.734   2.737   4.633
  416TIP3    H1 1254   4.665   2.802   4.650
  416TIP3    H2 1255   4.690   2.669   4.581
  417TIP3   OH2 1256   0.484   3.470   3.952
  417TIP3    H1 1257   0.438   3.457   3.869
  417TIP3    H2 1258   0.519   3.383   3.973
  418TIP3   OH2 1259   5.929   4.665   4.587
  418TIP3    H1 1260   5.984   4.614   4.646
  418TIP3    H2 1261   5.967   4.753   4.588
  419TIP3   OH2 1262   0.855   5.614   4.841
  419TIP3    H1 1263   0.947   5.587   4.846
  419TIP3    H2 1264   0.858   5.709   4.856
  420TIP3   OH2 1265   2.383   4.036   3.287
  420TIP3    H1 1266   2.364   4.074   3.201
  420TIP3    H2 1267   2.400   4.111   3.343
  421TIP3   OH2 1268   5.379   3.306   3.281
  421TIP3    H1 1269   5.324   3.313   3.203
  421TIP3    H2 1270   5.332   3.244   3.337
  422TIP3   OH2 1271   0.401   5.814   4.146
  422TIP3    H1 1272   0.317   5.810   4.100
  422TIP3    H2 1273   0.458   5.864   4.088
  423TIP3   OH2 1274   1.628   5.445   4.939
  423TIP3    H1 1275   1.590   5.410   5.020
  423TIP3    H2 1276   1.576   5.523   4.920
  424TIP3   OH2 1277   5.220   3.957   1.094
  424TIP3    H1 1278   5.155   3.898   1.056
  424TIP3    H2 1279   5.173   4.039   1.108
  425TIP3   OH2 1280   2.869   2.196   2.621
  425TIP3    H1 1281   2.950   2.223   2.665
  425TIP3    H2 1282   2.850   2.109   2.656
  426TIP3   OH2 1283   2.148   2.284   0.848
  426TIP3    H1 1284   2.202   2.302   0.770
  426TIP3    H2 1285   2.088   2.215   0.819
  427TIP3   OH2 1286   5.840   3.489   1.609
  427TIP3    H1 1287   5.923   3.462   1.646
  427TIP3    H2 1288   5.804   3.410   1.569
  428TIP3   OH2 1289   3.609   5.016   3.155
  428TIP3    H1 1290   3.556   4.959   3.211
  428TIP3    H2 1291   3.669   4.957   3.110
  429TIP3   OH2 1292   4.658   3.874   3.097
  429TIP3    H1 1293   4.598   3.802   3.117
  429TIP3    H2 1294   4.601   3.950   3.085
  430TIP3   OH2 1295   5.900   4.613   3.634
  430TIP3    H1 1296   5.841   4.626   3.708
  430TIP3    H2 1297   5.987   4.611   3.673
  431TIP3   OH2 1298   5.834   3.230   2.339
  431TIP3    H1 1299   5.806   3.218   2.430
  431TIP3    H2 1300   5.878   3.148   2.317
  432TIP3   OH2 1301   3.641   4.248   2.463
  432TIP3    H1 1302   3.698   4.325   2.457
  432TIP3    H2 1303   3.702   4.176   2.478
  433TIP3   OH2 1304   0.673   2.581   1.170
  433TIP3    H1 1305   0.742   2.570   1.105
  433TIP3    H2 1306   0.709   2.541   1.250
  434TIP3   OH2 1307   1.778   3.890   4.577
  434TIP3    H1 1308   1.858   3.881   4.524
  434TIP3    H2 1309   1.795   3.965   4.633
  435TIP3   OH2 1310   5.358   1.368   4.161
  435TIP3    H1 1311   5.407   1.329   4.234
  435TIP3    H2 1312   5.421   1.373   4.090
  436TIP3   OH2 1313   0.102   0.381   1.826
  436TIP3    H1 1314   0.012   0.350   1.840
  436TIP3    H2 1315   0.124   0.350   1.738
  437TIP3   OH2 1316   5.252   1.208   3.037
  437TIP3    H1 1317   5.290   1.279   3.089
  437TIP3    H2 1318   5.285   1.222   2.949
  438TIP3   OH2 1319   5.056   2.460   3.480
  438TIP3    H1 1320   5.055   2.407   3.559
  438TIP3    H2 1321   4.964   2.472   3.458
  439TIP3   OH2 1322   0.435   5.280   4.326
  439TIP3    H1 1323   0.507   5.246   4.380
  439TIP3    H2 1324   0.377   5.323   4.388
  440TIP3   OH2 1325   5.432   4.102   3.131
  440TIP3    H1 1326   5.411   4.101   3.038
  440TIP3    H2 1327   5.491   4.028   3.143
  441TIP3   OH2 1328   4.212   1.361   2.205
  441TIP3    H1 1329   4.191   1.317   2.123
  441TIP3    H2 1330   4.162   1.314   2.271
  442TIP3   OH2 1331   4.554   2.692   4.130
  442TIP3    H1 1332   4.628   2.749   4.105
  442TIP3    H2 1333   4.552   2.625   4.062
  443TIP3   OH2 1334   4.693   2.111   2.741
  443TIP3    H1 1335   4.632   2.128   2.813
  443TIP3    H2 1336   4.645   2.140   2.663
  444TIP3   OH2 1337   4.128   1.589   3.371
  444TIP3    H1 1338   4.036   1.613   3.386
  444TIP3    H2 1339   4.145   1.522   3.437
  445TIP3   OH2 1340   0.278   3.363   0.891
  445TIP3    H1 1341   0.349   3.419   0.861
  445TIP3    H2 1342   0.226   3.421   0.948
  446TIP3   OH2 1343   1.266   2.721   2.389
  446TIP3    H1 1344   1.303   2.666   2.320
  446TIP3    H2 1345   1.205   2.664   2.435
  447TIP3   OH2 1346   5.119   4.378   1.477
  447TIP3    H1 1347   5.165   4.450   1.434
  447TIP3    H2 1348   5.039   4.366   1.426
  448TIP3   OH2 1349   4.285   3.454   3.282
  448TIP3    H1 1350   4.327   3.511   3.345
  448TIP3    H2 1351   4.341   3.458   3.204
  449TIP3   OH2 1352   0.150   4.596   1.670
  449TIP3    H1 1353   0.206   4.544   1.727
  449TIP3    H2 1354   0.089   4.533   1.633
  450TIP3   OH2 1355   6.131   4.208   0.219
  450TIP3    H1 1356   6.045   4.183   0.252
  450TIP3    H2 1357   6.187   4.211   0.296
  451TIP3   OH2 1358   4.118   3.299   2.215
  451TIP3    H1 1359   4.047   3.334   2.162
  451TIP3    H2 1360   4.107   3.340   2.301
  452TIP3   OH2 1361   1.782   4.467   1.313
  452TIP3    H1 1362   1.717   4.412   1.270
  452TIP3    H2 1363   1.843   4.491   1.244
  453TIP3   OH2 1364   4.589   1.886   1.222
  453TIP3    H1 1365   4.623   1.837   1.147
  453TIP3    H2 1366   4.564   1.970   1.185
  454TIP3   OH2 1367   3.196   3.062   4.073
  454TIP3    H1 1368   3.288   3.041   4.083
  454TIP3    H2 1369   3.186   3.082   3.979
  455TIP3   OH2 1370   1.467   2.309   5.014
  455TIP3    H1 1371   1.406   2.261   5.070
  455TIP3    H2 1372   1.528   2.350   5.075
  456TIP3   OH2 1373   1.640   5.093   3.854
  456TIP3    H1 1374   1.688   5.171   3.827
  456TIP3    H2 1375   1.574   5.124   3.915
  457TIP3   OH2 1376   4.381   3.806   0.068
  457TIP3    H1 1377   4.418   3.888   0.100
  457TIP3    H2 1378   4.426   3.738   0.119
  458TIP3   OH2 1379   5.071   4.485   3.414
  458TIP3    H1 1380   5.088   4.398   3.378
  458TIP3    H2 1381   5.094   4.478   3.506
  459TIP3   OH2 1382   2.433   4.705   3.793
  459TIP3    H1 1383   2.526   4.716   3.811
  459TIP3    H2 1384   2.389   4.743   3.870
  460TIP3   OH2 1385   0.125   0.207   3.224
  460TIP3    H1 1386   0.157   0.294   3.248
  460TIP3    H2 1387   0.058   0.224   3.158
  461TIP3   OH2 1388   0.225   0.042   4.174
  461TIP3    H1 1389   0.136   0.036   4.140
  461TIP3    H2 1390   0.271  -0.031   4.131
  462TIP3   OH2 1391   4.768   0.260   4.398
  462TIP3    H1 1392   4.673   0.252   4.408
  462TIP3    H2 1393   4.804   0.213   4.473
  463TIP3   OH2 1394   2.131   2.660   1.563
  463TIP3    H1 1395   2.043   2.624   1.570
  463TIP3    H2 1396   2.125   2.747   1.601
  464TIP3   OH2 1397   2.808   3.585   2.729
  464TIP3    H1 1398   2.819   3.678   2.707
  464TIP3    H2 1399   2.763   3.586   2.814
  465TIP3   OH2 1400   4.781   2.059   0.238
  465TIP3    H1 1401   4.729   2.025   0.165
  465TIP3    H2 1402   4.872   2.047   0.211
  466TIP3   OH2 1403   3.266   2.585   1.479
  466TIP3    H1 1404   3.214   2.650   1.433
  466TIP3    H2 1405   3.203   2.539   1.535
  467TIP3   OH2 1406   1.203   3.321   3.751
  467TIP3    H1 1407   1.230   3.329   3.843
  467TIP3    H2 1408   1.273   3.363   3.702
  468TIP3   OH2 1409   2.710   4.394   1.732
  468TIP3    H1 1410   2.672   4.358   1.652
  468TIP3    H2 1411   2.738   4.317   1.782
  469TIP3   OH2 1412   3.149   0.545   0.645
  469TIP3    H1 1413   3.149   0.625   0.593
  469TIP3    H2 1414   3.219   0.492   0.607
  470TIP3   OH2 1415   4.795   1.318   2.024
  470TIP3    H1 1416   4.754   1.404   2.032
  470TIP3    H2 1417   4.763   1.284   1.941
  471TIP3   OH2 1418   4.052   2.138   1.101
  471TIP3    H1 1419   4.027   2.197   1.029
  471TIP3    H2 1420   3.980   2.074   1.105
  472TIP3   OH2 1421   4.745   5.380   3.446
  472TIP3    H1 1422   4.824   5.412   3.402
  472TIP3    H2 1423   4.689   5.458   3.454
  473TIP3   OH2 1424   0.685   0.607   2.904
  473TIP3    H1 1425   0.664   0.652   2.986
  473TIP3    H2 1426   0.769   0.643   2.877
  474TIP3   OH2 1427   6.004   5.221   3.806
  474TIP3    H1 1428   6.056   5.166   3.747
  474TIP3    H2 1429   5.915   5.187   3.797
  475TIP3   OH2 1430   1.286   4.431   0.316
  475TIP3    H1 1431   1.209   4.449   0.370
  475TIP3    H2 1432   1.252   4.383   0.240
  476TIP3   OH2 1433   0.999   2.769   4.840
  476TIP3    H1 1434   0.953   2.713   4.777
  476TIP3    H2 1435   1.052   2.827   4.785
  477TIP3   OH2 1436   2.772   0.824   4.013
  477TIP3    H1 1437   2.844   0.802   4.072
  477TIP3    H2 1438   2.815   0.861   3.936
  478TIP3   OH2 1439   2.834   1.716   0.998
  478TIP3    H1 1440   2.756   1.730   1.052
  478TIP3    H2 1441   2.849   1.800   0.955
  479TIP3   OH2 1442   2.953   2.372   3.434
  479TIP3    H1 1443   3.013   2.298   3.441
  479TIP3    H2 1444   2.934   2.396   3.525
  480TIP3   OH2 1445   2.985   2.584   2.168
  480TIP3    H1 1446   2.953   2.652   2.229
  480TIP3    H2 1447   2.992   2.506   2.222
  481TIP3   OH2 1448   2.943   3.767   4.021
  481TIP3    H1 1449   2.863   3.738   3.978
  481TIP3    H2 1450   2.917   3.847   4.067
  482TIP3   OH2 1451   5.225   4.410   0.485
  482TIP3    H1 1452   5.269   4.457   0.414
  482TIP3    H2 1453   5.267   4.324   0.486
  483TIP3   OH2 1454   3.002   1.205   3.010
  483TIP3    H1 1455   3.062   1.151   2.959
  483TIP3    H2 1456   2.926   1.217   2.953
  484TIP3   OH2 1457   5.559   3.861   3.096
  484TIP3    H1 1458   5.613   3.881   3.019
  484TIP3    H2 1459   5.539   3.768   3.087
  485TIP3   OH2 1460   0.396   5.341   2.005
  485TIP3    H1 1461   0.371   5.391   1.927
  485TIP3    H2 1462   0.411   5.252   1.972
  486TIP3   OH2 1463   4.065   4.160   0.859
  486TIP3    H1 1464   3.981   4.128   0.826
  486TIP3    H2 1465   4.064   4.254   0.842
  487TIP3   OH2 1466   4.863   1.292   2.876
  487TIP3    H1 1467   4.857   1.372   2.823
  487TIP3    H2 1468   4.884   1.322   2.964
  488TIP3   OH2 1469   0.930   3.750   1.372
  488TIP3    H1 1470   0.957   3.821   1.313
  488TIP3    H2 1471   1.010   3.723   1.417
  489TIP3   OH2 1472   2.041   1.581   2.076
  489TIP3    H1 1473   1.953   1.592   2.041
  489TIP3    H2 1474   2.027   1.562   2.169
  490TIP3   OH2 1475   5.196   0.768   5.151
  490TIP3    H1 1476   5.292   0.771   5.154
  490TIP3    H2 1477   5.168   0.844   5.201
  491TIP3   OH2 1478   5.703   5.968   0.581
  491TIP3    H1 1479   5.695   5.873   0.573
  491TIP3    H2 1480   5.773   5.990   0.520
  492TIP3   OH2 1481   0.619   5.993   2.200
  492TIP3    H1 1482   0.602   6.086   2.214
  492TIP3    H2 1483   0.713   5.983   2.214
  493TIP3   OH2 1484   5.453   5.755   1.939
  493TIP3    H1 1485   5.364   5.790   1.930
  493TIP3    H2 1486   5.506   5.812   1.885
  494TIP3   OH2 1487   5.083   2.334   3.713
  494TIP3    H1 1488   5.033   2.265   3.757
  494TIP3    H2 1489   5.168   2.294   3.694
  495TIP3   OH2 1490   1.895   5.879   5.082
  495TIP3    H1 1491   1.852   5.867   5.166
  495TIP3    H2 1492   1.855   5.958   5.045
  496TIP3   OH2 1493   1.389   0.962   4.874
  496TIP3    H1 1494   1.397   0.869   4.853
  496TIP3    H2 1495   1.339   0.999   4.801
  497TIP3   OH2 1496   3.149   0.752   1.492
  497TIP3    H1 1497   3.130   0.669   1.537
  497TIP3    H2 1498   3.075   0.765   1.433
  498TIP3   OH2 1499   1.343   5.080   3.337
  498TIP3    H1 1500   1.421   5.099   3.286
  498TIP3    H2 1501   1.372   5.082   3.428
  499TIP3   OH2 1502   5.049   1.343   2.128
  499TIP3    H1 1503   4.954   1.347   2.119
  499TIP3    H2 1504   5.068   1.401   2.201
  500TIP3   OH2 1505   0.073   5.581   2.786
  500TIP3    H1 1506   0.039   5.515   2.847
  500TIP3    H2 1507  -0.005   5.613   2.740
  501TIP3   OH2 1508   5.381   2.688   0.184
  501TIP3    H1 1509   5.376   2.594   0.164
  501TIP3    H2 1510   5.385   2.730   0.098
  502TIP3   OH2 1511   3.746   0.628   3.640
  502TIP3    H1 1512   3.745   0.678   3.721
  502TIP3    H2 1513   3.656   0.597   3.631
  503TIP3   OH2 1514   3.942   3.864   4.854
  503TIP3    H1 1515   3.894   3.940   4.821
  503TIP3    H2 1516   3.901   3.844   4.938
  504TIP3   OH2 1517   0.987   4.920   0.581
  504TIP3    H1 1518   0.993   5.011   0.611
  504TIP3    H2 1519   0.957   4.871   0.658
  505TIP3   OH2 1520   1.446   3.388   1.985
  505TIP3    H1 1521   1.401   3.431   2.058
  505TIP3    H2 1522   1.512   3.332   2.027
  506TIP3   OH2 1523   5.754   2.704   0.454
  506TIP3    H1 1524   5.701   2.760   0.397
  506TIP3    H2 1525   5.731   2.615   0.428
  507TIP3   OH2 1526   3.762   3.188   3.331
  507TIP3    H1 1527   3.802   3.232   3.255
  507TIP3    H2 1528   3.825   3.202   3.402
  508TIP3   OH2 1529   2.050   2.509   2.907
  508TIP3    H1 1530   1.962   2.545   2.918
  508TIP3    H2 1531   2.062   2.501   2.813
  509TIP3   OH2 1532   2.052   3.063   2.131
  509TIP3    H1 1533   2.139   3.027   2.118
  509TIP3    H2 1534   2.056   3.151   2.095
  510TIP3   OH2 1535   2.863   3.633   0.065
  510TIP3    H1 1536   2.770   3.624   0.042
  510TIP3    H2 1537   2.907   3.568   0.011
  511TIP3   OH2 1538   4.601   5.641   0.209
  511TIP3    H1 1539   4.578   5.583   0.282
  511TIP3    H2 1540   4.589   5.729   0.244
  512TIP3   OH2 1541   3.375   3.796   2.024
  512TIP3    H1 1542   3.444   3.741   2.061
  512TIP3    H2 1543   3.342   3.846   2.099
  513TIP3   OH2 1544   2.574   0.991   3.679
  513TIP3    H1 1545   2.571   0.904   3.718
  513TIP3    H2 1546   2.635   0.983   3.605
  514TIP3   OH2 1547   0.631   3.884   3.902
  514TIP3    H1 1548   0.724   3.862   3.908
  514TIP3    H2 1549   0.629   3.977   3.881
  515TIP3   OH2 1550   3.695   4.603   1.993
  515TIP3    H1 1551   3.629   4.550   1.949
  515TIP3    H2 1552   3.777   4.557   1.977
  516TIP3   OH2 1553   1.423   0.780   3.539
  516TIP3    H1 1554   1.498   0.814   3.490
  516TIP3    H2 1555   1.421   0.831   3.620
  517TIP3   OH2 1556   1.669   5.648   4.029
  517TIP3    H1 1557   1.703   5.702   3.957
  517TIP3    H2 1558   1.741   5.645   4.092
  518TIP3   OH2 1559   4.822   5.570   5.089
  518TIP3    H1 1560   4.807   5.476   5.081
  518TIP3    H2 1561   4.736   5.607   5.108
  519TIP3   OH2 1562   4.936   3.071   4.826
  519TIP3    H1 1563   4.899   2.987   4.799
  519TIP3    H2 1564   4.870   3.109   4.885
  520TIP3   OH2 1565   5.899   1.528   0.221
  520TIP3    H1 1566   5.904   1.446   0.172
  520TIP3    H2 1567   5.878   1.502   0.310
  521TIP3   OH2 1568   1.445   1.433   0.353
  521TIP3    H1 1569   1.446   1.363   0.418
  521TIP3    H2 1570   1.463   1.388   0.270
  522TIP3   OH2 1571   3.864   3.992   3.477
  522TIP3    H1 1572   3.895   3.969   3.389
  522TIP3    H2 1573   3.782   3.943   3.486
  523TIP3   OH2 1574   4.156   4.427   0.801
  523TIP3    H1 1575   4.249   4.409   0.787
  523TIP3    H2 1576   4.151   4.522   0.811
  524TIP3   OH2 1577   0.672   4.033   1.481
  524TIP3    H1 1578   0.625   4.076   1.410
  524TIP3    H2 1579   0.762   4.024   1.449
  525TIP3   OH2 1580   5.667   4.939   5.102
  525TIP3    H1 1581   5.752   4.909   5.070
  525TIP3    H2 1582   5.661   4.901   5.190
  526TIP3   OH2 1583   1.346   5.416   1.947
  526TIP3    H1 1584   1.397   5.383   2.021
  526TIP3    H2 1585   1.336   5.510   1.965
  527TIP3   OH2 1586   4.814   0.246   3.950
  527TIP3    H1 1587   4.739   0.222   3.896
  527TIP3    H2 1588   4.859   0.163   3.967
  528TIP3   OH2 1589   5.880   3.820   1.015
  528TIP3    H1 1590   5.929   3.855   0.941
  528TIP3    H2 1591   5.897   3.882   1.087
  529TIP3   OH2 1592   6.107   1.480   3.089
  529TIP3    H1 1593   6.104   1.395   3.134
  529TIP3    H2 1594   6.033   1.476   3.028
  530TIP3   OH2 1595   2.776   4.874   2.037
  530TIP3    H1 1596   2.859   4.833   2.013
  530TIP3    H2 1597   2.767   4.857   2.131
  531TIP3   OH2 1598   5.193   2.984   1.563
  531TIP3    H1 1599   5.126   2.923   1.595
  531TIP3    H2 1600   5.254   2.993   1.636
  532TIP3   OH2 1601   3.731   3.324   0.884
  532TIP3    H1 1602   3.651   3.298   0.837
  532TIP3    H2 1603   3.712   3.307   0.976
  533TIP3   OH2 1604   3.174   0.541   4.450
  533TIP3    H1 1605   3.167   0.447   4.466
  533TIP3    H2 1606   3.084   0.573   4.453
  534TIP3   OH2 1607   4.411   1.050   0.908
  534TIP3    H1 1608   4.459   0.980   0.865
  534TIP3    H2 1609   4.327   1.010   0.930
  535TIP3   OH2 1610   0.390   3.666   3.211
  535TIP3    H1 1611   0.453   3.736   3.229
  535TIP3    H2 1612   0.313   3.690   3.263
  536TIP3   OH2 1613   3.520   0.853   2.067
  536TIP3    H1 1614   3.597   0.881   2.017
  536TIP3    H2 1615   3.546   0.864   2.158
  537TIP3   OH2 1616   0.009   0.717   3.759
  537TIP3    H1 1617  -0.039   0.709   3.842
  537TIP3    H2 1618   0.101   0.724   3.784
  538TIP3   OH2 1619   1.029   0.357   1.690
  538TIP3    H1 1620   1.114   0.313   1.695
  538TIP3    H2 1621   1.023   0.407   1.772
  539TIP3   OH2 1622   3.183   0.977   3.375
  539TIP3    H1 1623   3.098   1.000   3.337
  539TIP3    H2 1624   3.246   1.029   3.326
  540TIP3   OH2 1625   4.970   5.532   2.357
  540TIP3    H1 1626   5.033   5.460   2.348
  540TIP3    H2 1627   4.916   5.508   2.432
  541TIP3   OH2 1628   3.682   1.063   4.239
  541TIP3    H1 1629   3.613   1.119   4.274
  541TIP3    H2 1630   3.692   0.994   4.304
  542TIP3   OH2 1631   3.286   0.739   4.881
  542TIP3    H1 1632   3.261   0.722   4.971
  542TIP3    H2 1633   3.323   0.656   4.850
  543TIP3   OH2 1634   2.936   3.123   2.554
  543TIP3    H1 1635   2.944   3.214   2.526
  543TIP3    H2 1636   2.844   3.115   2.582
  544TIP3   OH2 1637   5.617   4.572   0.092
  544TIP3    H1 1638   5.527   4.543   0.105
  544TIP3    H2 1639   5.612   4.668   0.094
  545TIP3   OH2 1640   1.515   0.600   4.497
  545TIP3    H1 1641   1.431   0.645   4.495
  545TIP3    H2 1642   1.575   0.659   4.452
  546TIP3   OH2 1643   0.674   3.159   4.733
  546TIP3    H1 1644   0.659   3.247   4.767
  546TIP3    H2 1645   0.623   3.101   4.791
  547TIP3   OH2 1646   4.527   0.354   4.490
  547TIP3    H1 1647   4.595   0.409   4.528
  547TIP3    H2 1648   4.488   0.309   4.565
  548TIP3   OH2 1649   3.664   2.184   3.638
  548TIP3    H1 1650   3.630   2.097   3.661
  548TIP3    H2 1651   3.609   2.245   3.687
  549TIP3   OH2 1652   2.990   2.870   4.226
  549TIP3    H1 1653   3.044   2.944   4.197
  549TIP3    H2 1654   3.034   2.838   4.305
  550TIP3   OH2 1655   0.681   1.822   3.903
  550TIP3    H1 1656   0.733   1.749   3.869
  550TIP3    H2 1657   0.723   1.900   3.867
  551TIP3   OH2 1658   4.975   4.121   0.708
  551TIP3    H1 1659   4.931   4.165   0.781
  551TIP3    H2 1660   4.925   4.148   0.631
  552TIP3   OH2 1661   3.076   3.169   1.297
  552TIP3    H1 1662   2.984   3.164   1.271
  552TIP3    H2 1663   3.120   3.102   1.244
  553TIP3   OH2 1664   6.112   1.424   1.288
  553TIP3    H1 1665   6.100   1.517   1.303
  553TIP3    H2 1666   6.106   1.384   1.375
  554TIP3   OH2 1667   2.166   1.966   0.733
  554TIP3    H1 1668   2.164   1.948   0.827
  554TIP3    H2 1669   2.087   2.016   0.716
  555TIP3   OH2 1670   4.999   1.279   3.137
  555TIP3    H1 1671   5.075   1.224   3.117
  555TIP3    H2 1672   5.034   1.367   3.146
  556TIP3   OH2 1673   5.863   0.840   1.239
  556TIP3    H1 1674   5.900   0.912   1.188
  556TIP3    H2 1675   5.926   0.769   1.232
  557TIP3   OH2 1676   5.956   2.372   1.822
  557TIP3    H1 1677   6.005   2.325   1.754
  557TIP3    H2 1678   5.954   2.311   1.896
  558TIP3   OH2 1679   1.587   2.380   1.907
  558TIP3    H1 1680   1.493   2.390   1.920
  558TIP3    H2 1681   1.598   2.375   1.812
  559TIP3   OH2 1682   5.657   4.549   4.639
  559TIP3    H1 1683   5.595   4.622   4.644
  559TIP3    H2 1684   5.743   4.590   4.630
  560TIP3   OH2 1685   4.437   4.082   3.761
  560TIP3    H1 1686   4.501   4.052   3.826
  560TIP3    H2 1687   4.384   4.004   3.742
  561TIP3   OH2 1688   0.397   2.782   4.576
  561TIP3    H1 1689   0.447   2.732   4.511
  561TIP3    H2 1690   0.461   2.806   4.643
  562TIP3   OH2 1691   1.119   5.014   2.853
  562TIP3    H1 1692   1.135   5.003   2.947
  562TIP3    H2 1693   1.055   4.946   2.832
  563TIP3   OH2 1694   3.934   5.344   3.688
  563TIP3    H1 1695   3.897   5.432   3.687
  563TIP3    H2 1696   3.999   5.344   3.617
  564TIP3   OH2 1697   6.343   5.314   3.443
  564TIP3    H1 1698   6.414   5.363   3.484
  564TIP3    H2 1699   6.382   5.278   3.363
  565TIP3   OH2 1700   3.158   4.430   4.139
  565TIP3    H1 1701   3.083   4.450   4.194
  565TIP3    H2 1702   3.125   4.440   4.049
  566TIP3   OH2 1703   5.448   4.398   4.723
  566TIP3    H1 1704   5.522   4.446   4.686
  566TIP3    H2 1705   5.407   4.356   4.647
  567TIP3   OH2 1706   0.188   0.171   4.413
  567TIP3    H1 1707   0.221   0.124   4.337
  567TIP3    H2 1708   0.148   0.104   4.467
  568TIP3   OH2 1709   1.384   0.062   0.942
  568TIP3    H1 1710   1.442  -0.012   0.956
  568TIP3    H2 1711   1.441   0.132   0.911
  569TIP3   OH2 1712   0.826   5.097   1.216
  569TIP3    H1 1713   0.847   5.098   1.123
  569TIP3    H2 1714   0.826   5.004   1.240
  570TIP3   OH2 1715   2.551   2.312   1.694
  570TIP3    H1 1716   2.463   2.275   1.699
  570TIP3    H2 1717   2.537   2.407   1.702
  571TIP3   OH2 1718   4.094   5.142   5.007
  571TIP3    H1 1719   4.186   5.129   5.028
  571TIP3    H2 1720   4.071   5.224   5.050
  572TIP3   OH2 1721   1.348   0.820   0.024
  572TIP3    H1 1722   1.360   0.726   0.007
  572TIP3    H2 1723   1.355   0.861  -0.062
  573TIP3   OH2 1724   2.886   4.843   1.140
  573TIP3    H1 1725   2.942   4.783   1.189
  573TIP3    H2 1726   2.845   4.789   1.073
  574TIP3   OH2 1727   4.886   0.805   2.655
  574TIP3    H1 1728   4.942   0.815   2.732
  574TIP3    H2 1729   4.840   0.722   2.670
  575TIP3   OH2 1730   1.783   3.490   1.429
  575TIP3    H1 1731   1.801   3.399   1.452
  575TIP3    H2 1732   1.866   3.521   1.391
  576TIP3   OH2 1733   4.408   3.037   1.828
  576TIP3    H1 1734   4.485   3.002   1.784
  576TIP3    H2 1735   4.386   2.972   1.894
  577TIP3   OH2 1736   6.156   4.948   0.029
  577TIP3    H1 1737   6.233   4.921   0.079
  577TIP3    H2 1738   6.109   4.867   0.011
  578TIP3   OH2 1739   4.787   1.137   4.346
  578TIP3    H1 1740   4.798   1.084   4.425
  578TIP3    H2 1741   4.821   1.082   4.275
  579TIP3   OH2 1742   5.556   2.833   3.460
  579TIP3    H1 1743   5.582   2.753   3.413
  579TIP3    H2 1744   5.541   2.897   3.391
  580TIP3   OH2 1745   5.348   4.380   4.973
  580TIP3    H1 1746   5.355   4.289   5.003
  580TIP3    H2 1747   5.358   4.375   4.878
  581TIP3   OH2 1748   0.558   5.438   3.671
  581TIP3    H1 1749   0.534   5.379   3.599
  581TIP3    H2 1750   0.605   5.383   3.733
  582TIP3   OH2 1751   4.465   5.092   4.390
  582TIP3    H1 1752   4.536   5.156   4.394
  582TIP3    H2 1753   4.387   5.144   4.373
  583TIP3   OH2 1754   2.440   1.994   0.344
  583TIP3    H1 1755   2.523   1.947   0.352
  583TIP3    H2 1756   2.437   2.051   0.420
  584TIP3   OH2 1757   4.808   2.847   3.093
  584TIP3    H1 1758   4.874   2.780   3.075
  584TIP3    H2 1759   4.837   2.924   3.044
  585TIP3   OH2 1760   3.497   0.470   2.854
  585TIP3    H1 1761   3.554   0.516   2.915
  585TIP3    H2 1762   3.412   0.468   2.897
  586TIP3   OH2 1763   5.368   2.612   3.519
  586TIP3    H1 1764   5.418   2.692   3.501
  586TIP3    H2 1765   5.375   2.599   3.613
  587TIP3   OH2 1766   0.876   5.442   1.910
  587TIP3    H1 1767   0.907   5.414   1.824
  587TIP3    H2 1768   0.858   5.360   1.957
  588TIP3   OH2 1769   1.241   0.049   4.322
  588TIP3    H1 1770   1.311   0.082   4.379
  588TIP3    H2 1771   1.285   0.024   4.241
  589TIP3   OH2 1772   0.077   3.125   1.172
  589TIP3    H1 1773   0.083   3.220   1.183
  589TIP3    H2 1774   0.105   3.110   1.082
  590TIP3   OH2 1775   4.569   3.939   4.230
  590TIP3    H1 1776   4.489   3.990   4.241
  590TIP3    H2 1777   4.558   3.895   4.146
  591TIP3   OH2 1778   5.763   1.374   2.918
  591TIP3    H1 1779   5.747   1.371   3.012
  591TIP3    H2 1780   5.800   1.461   2.902
  592TIP3   OH2 1781   5.085   1.472   4.856
  592TIP3    H1 1782   4.993   1.475   4.881
  592TIP3    H2 1783   5.103   1.558   4.817
  593TIP3   OH2 1784   0.577   2.107   4.450
  593TIP3    H1 1785   0.512   2.097   4.520
  593TIP3    H2 1786   0.622   2.023   4.447
  594TIP3   OH2 1787   1.747   3.045   4.557
  594TIP3    H1 1788   1.742   3.126   4.608
  594TIP3    H2 1789   1.704   3.066   4.474
  595TIP3   OH2 1790   3.948   2.732   2.982
  595TIP3    H1 1791   4.020   2.676   2.954
  595TIP3    H2 1792   3.897   2.747   2.903
  596TIP3   OH2 1793   2.370   4.323   3.184
  596TIP3    H1 1794   2.350   4.336   3.277
  596TIP3    H2 1795   2.463   4.348   3.176
  597TIP3   OH2 1796   2.817   5.145   2.587
  597TIP3    H1 1797   2.785   5.205   2.654
  597TIP3    H2 1798   2.794   5.058   2.620
  598TIP3   OH2 1799   2.116   0.253   3.769
  598TIP3    H1 1800   2.031   0.276   3.731
  598TIP3    H2 1801   2.131   0.318   3.837
  599TIP3   OH2 1802   5.048   4.892   4.847
  599TIP3    H1 1803   5.044   4.849   4.932
  599TIP3    H2 1804   4.979   4.958   4.849
  600TIP3   OH2 1805   0.636   0.508   0.296
  600TIP3    H1 1806   0.725   0.541   0.286
  600TIP3    H2 1807   0.644   0.434   0.356
  601TIP3   OH2 1808   5.895   5.492   0.449
  601TIP3    H1 1809   5.910   5.411   0.400
  601TIP3    H2 1810   5.904   5.466   0.541
  602TIP3   OH2 1811   5.752   5.461   1.691
  602TIP3    H1 1812   5.695   5.536   1.675
  602TIP3    H2 1813   5.710   5.414   1.764
  603TIP3   OH2 1814   5.625   0.475   1.119
  603TIP3    H1 1815   5.577   0.469   1.202
  603TIP3    H2 1816   5.563   0.513   1.057
  604TIP3   OH2 1817   1.872   2.042   1.089
  604TIP3    H1 1818   1.858   2.130   1.055
  604TIP3    H2 1819   1.929   2.054   1.165
  605TIP3   OH2 1820   0.327   0.755   1.392
  605TIP3    H1 1821   0.337   0.773   1.485
  605TIP3    H2 1822   0.281   0.671   1.388
  606TIP3   OH2 1823   5.740   0.622   4.241
  606TIP3    H1 1824   5.770   0.581   4.322
  606TIP3    H2 1825   5.687   0.555   4.198
  607TIP3   OH2 1826   1.039   5.817   5.143
  607TIP3    H1 1827   0.956   5.831   5.190
  607TIP3    H2 1828   1.075   5.905   5.131
  608TIP3   OH2 1829   3.762   4.065   1.482
  608TIP3    H1 1830   3.809   3.981   1.482
  608TIP3    H2 1831   3.755   4.088   1.389
  609TIP3   OH2 1832   4.986   3.133   4.544
  609TIP3    H1 1833   4.942   3.136   4.629
  609TIP3    H2 1834   5.076   3.109   4.565
  610TIP3   OH2 1835   4.781   3.893   1.562
  610TIP3    H1 1836   4.784   3.853   1.475
  610TIP3    H2 1837   4.757   3.984   1.546
  611TIP3   OH2 1838   5.231   4.222   2.520
  611TIP3    H1 1839   5.241   4.171   2.439
  611TIP3    H2 1840   5.235   4.313   2.491
  612TIP3   OH2 1841   5.358   1.487   0.496
  612TIP3    H1 1842   5.290   1.516   0.557
  612TIP3    H2 1843   5.310   1.442   0.426
  613TIP3   OH2 1844   5.585   3.825   3.498
  613TIP3    H1 1845   5.640   3.850   3.424
  613TIP3    H2 1846   5.560   3.908   3.539
  614TIP3   OH2 1847   6.198   3.484   4.620
  614TIP3    H1 1848   6.227   3.571   4.592
  614TIP3    H2 1849   6.198   3.433   4.539
  615TIP3   OH2 1850   4.590   2.984   4.674
  615TIP3    H1 1851   4.603   3.072   4.639
  615TIP3    H2 1852   4.565   2.998   4.765
  616TIP3   OH2 1853   3.834   0.204   4.146
  616TIP3    H1 1854   3.901   0.163   4.200
  616TIP3    H2 1855   3.825   0.292   4.182
  617TIP3   OH2 1856   4.710   5.955   1.317
  617TIP3    H1 1857   4.728   6.045   1.288
  617TIP3    H2 1858   4.784   5.904   1.283
  618TIP3   OH2 1859   2.144   2.242   4.085
  618TIP3    H1 1860   2.116   2.328   4.055
  618TIP3    H2 1861   2.214   2.259   4.148
  619TIP3   OH2 1862   3.446   4.908   2.769
  619TIP3    H1 1863   3.453   4.978   2.834
  619TIP3    H2 1864   3.530   4.909   2.723
  620TIP3   OH2 1865   6.298   5.533   4.494
  620TIP3    H1 1866   6.355   5.517   4.569
  620TIP3    H2 1867   6.358   5.548   4.421
  621TIP3   OH2 1868   1.065   5.175   1.318
  621TIP3    H1 1869   0.972   5.173   1.295
  621TIP3    H2 1870   1.104   5.238   1.257
  622TIP3   OH2 1871   3.233   2.280   0.659
  622TIP3    H1 1872   3.238   2.188   0.632
  622TIP3    H2 1873   3.139   2.298   0.665
  623TIP3   OH2 1874   0.479   0.452   3.848
  623TIP3    H1 1875   0.548   0.468   3.912
  623TIP3    H2 1876   0.405   0.420   3.901
  624TIP3   OH2 1877   0.924   5.175   3.535
  624TIP3    H1 1878   0.957   5.123   3.461
  624TIP3    H2 1879   0.920   5.264   3.502
  625TIP3   OH2 1880   0.526   4.572   0.821
  625TIP3    H1 1881   0.431   4.559   0.822
  625TIP3    H2 1882   0.554   4.538   0.736
  626TIP3   OH2 1883   4.449   3.278   3.924
  626TIP3    H1 1884   4.461   3.329   4.004
  626TIP3    H2 1885   4.355   3.265   3.917
  627TIP3   OH2 1886   5.008   1.101   3.448
  627TIP3    H1 1887   4.942   1.130   3.384
  627TIP3    H2 1888   5.089   1.094   3.397
  628TIP3   OH2 1889   3.068   3.302   5.098
  628TIP3    H1 1890   3.060   3.282   5.191
  628TIP3    H2 1891   3.030   3.226   5.053
  629TIP3   OH2 1892   1.449   0.975   3.732
  629TIP3    H1 1893   1.502   1.033   3.677
  629TIP3    H2 1894   1.368   1.023   3.746
  630TIP3   OH2 1895   1.849   3.733   0.353
  630TIP3    H1 1896   1.839   3.652   0.303
  630TIP3    H2 1897   1.843   3.705   0.445
  631TIP3   OH2 1898   1.842   2.095   3.532
  631TIP3    H1 1899   1.917   2.142   3.569
  631TIP3    H2 1900   1.827   2.023   3.593
  632TIP3   OH2 1901   3.720   1.976   2.973
  632TIP3    H1 1902   3.746   1.993   3.063
  632TIP3    H2 1903   3.784   2.023   2.920
  633TIP3   OH2 1904   2.519   1.504   1.580
  633TIP3    H1 1905   2.601   1.455   1.576
  633TIP3    H2 1906   2.459   1.447   1.628
  634TIP3   OH2 1907   3.919   3.925   0.001
  634TIP3    H1 1908   3.864   3.976   0.061
  634TIP3    H2 1909   3.946   3.848   0.053
  635TIP3   OH2 1910   6.247   3.761   4.827
  635TIP3    H1 1911   6.262   3.761   4.733
  635TIP3    H2 1912   6.270   3.672   4.855
  636TIP3   OH2 1913   5.223   1.122   5.018
  636TIP3    H1 1914   5.247   1.119   5.111
  636TIP3    H2 1915   5.143   1.175   5.016
  637TIP3   OH2 1916   1.751   2.257   4.279
  637TIP3    H1 1917   1.791   2.330   4.232
  637TIP3    H2 1918   1.677   2.295   4.325
  638TIP3   OH2 1919   0.223   1.771   2.817
  638TIP3    H1 1920   0.235   1.680   2.844
  638TIP3    H2 1921   0.302   1.816   2.846
  639TIP3   OH2 1922   2.151   5.919   0.740
  639TIP3    H1 1923   2.058   5.937   0.749
  639TIP3    H2 1924   2.174   5.950   0.652
  640TIP3   OH2 1925   4.973   5.333   0.525
  640TIP3    H1 1926   4.906   5.382   0.478
  640TIP3    H2 1927   5.046   5.328   0.464
  641TIP3   OH2 1928   5.356   4.335   3.707
  641TIP3    H1 1929   5.378   4.372   3.792
  641TIP3    H2 1930   5.431   4.355   3.651
  642TIP3   OH2 1931   4.149   5.150   0.554
  642TIP3    H1 1932   4.210   5.196   0.496
  642TIP3    H2 1933   4.096   5.220   0.593
  643TIP3   OH2 1934   0.831   3.196   1.436
  643TIP3    H1 1935   0.878   3.115   1.415
  643TIP3    H2 1936   0.897   3.265   1.426
  644TIP3   OH2 1937   1.876   5.102   2.975
  644TIP3    H1 1938   1.916   5.056   3.049
  644TIP3    H2 1939   1.940   5.168   2.950
  645TIP3   OH2 1940   3.214   0.990   2.066
  645TIP3    H1 1941   3.290   1.028   2.110
  645TIP3    H2 1942   3.251   0.947   1.989
  646TIP3   OH2 1943   0.542   2.102   1.710
  646TIP3    H1 1944   0.462   2.130   1.756
  646TIP3    H2 1945   0.589   2.050   1.774
  647TIP3   OH2 1946   0.634   5.005   0.902
  647TIP3    H1 1947   0.575   4.950   0.851
  647TIP3    H2 1948   0.583   5.030   0.980
  648TIP3   OH2 1949   4.330   2.509   5.041
  648TIP3    H1 1950   4.291   2.425   5.018
  648TIP3    H2 1951   4.406   2.516   4.983
  649TIP3   OH2 1952   1.881   0.223   2.389
  649TIP3    H1 1953   1.786   0.227   2.380
  649TIP3    H2 1954   1.911   0.180   2.308
  650TIP3   OH2 1955   0.395   5.971   2.059
  650TIP3    H1 1956   0.463   5.981   2.125
  650TIP3    H2 1957   0.419   5.891   2.012
  651TIP3   OH2 1958   1.790   0.797   0.663
  651TIP3    H1 1959   1.813   0.888   0.646
  651TIP3    H2 1960   1.792   0.788   0.758
  652TIP3   OH2 1961   1.393   5.140   4.562
  652TIP3    H1 1962   1.454   5.116   4.632
  652TIP3    H2 1963   1.331   5.200   4.603
  653TIP3   OH2 1964   1.266   2.633   3.989
  653TIP3    H1 1965   1.226   2.716   4.014
  653TIP3    H2 1966   1.306   2.601   4.070
  654TIP3   OH2 1967   3.911   2.350   3.218
  654TIP3    H1 1968   3.917   2.286   3.290
  654TIP3    H2 1969   3.823   2.336   3.182
  655TIP3   OH2 1970   4.827   2.916   0.412
  655TIP3    H1 1971   4.770   2.951   0.480
  655TIP3    H2 1972   4.832   2.822   0.432
  656TIP3   OH2 1973   1.765   2.270   4.622
  656TIP3    H1 1974   1.726   2.191   4.661
  656TIP3    H2 1975   1.744   2.263   4.529
  657TIP3   OH2 1976   2.585   5.466   0.021
  657TIP3    H1 1977   2.633   5.534  -0.027
  657TIP3    H2 1978   2.625   5.384  -0.007
  658TIP3   OH2 1979   6.117   5.087   4.744
  658TIP3    H1 1980   6.138   5.100   4.837
  658TIP3    H2 1981   6.141   4.996   4.727
  659TIP3   OH2 1982   1.882   1.985   4.281
  659TIP3    H1 1983   1.840   2.070   4.266
  659TIP3    H2 1984   1.878   1.972   4.376
  660TIP3   OH2 1985   3.296   3.343   0.618
  660TIP3    H1 1986   3.303   3.436   0.596
  660TIP3    H2 1987   3.253   3.341   0.703
  661TIP3   OH2 1988   3.051   2.168   2.836
  661TIP3    H1 1989   3.042   2.245   2.892
  661TIP3    H2 1990   3.034   2.094   2.894
  662TIP3   OH2 1991   3.438   1.885   3.479
  662TIP3    H1 1992   3.421   1.801   3.523
  662TIP3    H2 1993   3.523   1.913   3.514
  663TIP3   OH2 1994   3.739   5.995   4.152
  663TIP3    H1 1995   3.798   5.971   4.223
  663TIP3    H2 1996   3.796   6.012   4.077
  664TIP3   OH2 1997   4.183   0.054   3.128
  664TIP3    H1 1998   4.236   0.132   3.110
  664TIP3    H2 1999   4.185   0.045   3.223
  665TIP3   OH2 2000   5.109   1.512   2.338
  665TIP3    H1 2001   5.162   1.507   2.418
  665TIP3    H2 2002   5.057   1.591   2.348
  666TIP3   OH2 2003   0.120   4.359   2.376
  666TIP3    H1 2004   0.133   4.446   2.341
  666TIP3    H2 2005   0.079   4.373   2.462
  667TIP3   OH2 2006   1.630   2.417   2.937
  667TIP3    H1 2007   1.555   2.470   2.963
  667TIP3    H2 2008   1.593   2.330   2.920
  668TIP3   OH2 2009   4.793   1.948   1.908
  668TIP3    H1 2010   4.786   1.904   1.993
  668TIP3    H2 2011   4.885   1.941   1.885
  669TIP3   OH2 2012   1.924   5.328   3.513
  669TIP3    H1 2013   2.012   5.355   3.539
  669TIP3    H2 2014   1.874   5.409   3.511
  670TIP3   OH2 2015   5.893   5.801   4.360
  670TIP3    H1 2016   5.901   5.851   4.441
  670TIP3    H2 2017   5.910   5.711   4.385
  671TIP3   OH2 2018   1.882   2.577   1.647
  671TIP3    H1 2019   1.841   2.622   1.721
  671TIP3    H2 2020   1.811   2.566   1.584
  672TIP3   OH2 2021   3.823   0.028   3.539
  672TIP3    H1 2022   3.772  -0.013   3.609
  672TIP3    H2 2023   3.828   0.121   3.563
  673TIP3   OH2 2024   2.946   1.321   1.396
  673TIP3    H1 2025   2.993   1.249   1.438
  673TIP3    H2 2026   2.936   1.293   1.305
  674TIP3   OH2 2027   0.528   3.446   3.268
  674TIP3    H1 2028   0.480   3.529   3.259
  674TIP3    H2 2029   0.601   3.455   3.206
  675TIP3   OH2 2030   5.947   1.196   1.672
  675TIP3    H1 2031   5.879   1.183   1.737
  675TIP3    H2 2032   6.000   1.117   1.676
  676TIP3   OH2 2033   3.635   4.696   0.442
  676TIP3    H1 2034   3.715   4.748   0.434
  676TIP3    H2 2035   3.565   4.760   0.432
  677TIP3   OH2 2036   5.094   5.931   1.581
  677TIP3    H1 2037   5.074   6.017   1.544
  677TIP3    H2 2038   5.187   5.936   1.604
  678TIP3   OH2 2039   2.639   2.433   0.544
  678TIP3    H1 2040   2.644   2.521   0.580
  678TIP3    H2 2041   2.718   2.389   0.576
  679TIP3   OH2 2042   4.549   1.079   0.011
  679TIP3    H1 2043   4.480   1.144   0.022
  679TIP3    H2 2044   4.502   0.995   0.009
  680TIP3   OH2 2045   5.980   1.584   2.360
  680TIP3    H1 2046   6.004   1.500   2.398
  680TIP3    H2 2047   6.007   1.578   2.268
  681TIP3   OH2 2048   2.687   1.085   3.407
  681TIP3    H1 2049   2.776   1.116   3.389
  681TIP3    H2 2050   2.632   1.133   3.346
  682TIP3   OH2 2051   5.084   1.270   0.572
  682TIP3    H1 2052   5.137   1.232   0.503
  682TIP3    H2 2053   5.116   1.229   0.652
  683TIP3   OH2 2054   2.512   2.293   3.117
  683TIP3    H1 2055   2.523   2.220   3.178
  683TIP3    H2 2056   2.554   2.368   3.161
  684TIP3   OH2 2057   2.217   3.551   2.531
  684TIP3    H1 2058   2.247   3.504   2.608
  684TIP3    H2 2059   2.122   3.557   2.542
  685TIP3   OH2 2060   0.445   4.273   2.809
  685TIP3    H1 2061   0.391   4.198   2.833
  685TIP3    H2 2062   0.482   4.303   2.892
  686TIP3   OH2 2063   3.516   5.861   3.085
  686TIP3    H1 2064   3.443   5.814   3.126
  686TIP3    H2 2065   3.530   5.816   3.002
  687TIP3   OH2 2066   2.445   4.445   1.957
  687TIP3    H1 2067   2.453   4.373   2.020
  687TIP3    H2 2068   2.472   4.523   2.006
  688TIP3   OH2 2069   4.777   3.195   3.977
  688TIP3    H1 2070   4.777   3.274   4.031
  688TIP3    H2 2071   4.870   3.179   3.958
  689TIP3   OH2 2072   2.577   0.836   2.115
  689TIP3    H1 2073   2.595   0.924   2.150
  689TIP3    H2 2074   2.661   0.791   2.118
  690TIP3   OH2 2075   3.969   4.286   2.383
  690TIP3    H1 2076   4.064   4.290   2.385
  690TIP3    H2 2077   3.947   4.249   2.298
  691TIP3   OH2 2078   2.875   0.955   3.786
  691TIP3    H1 2079   2.834   1.036   3.755
  691TIP3    H2 2080   2.879   0.899   3.709
  692TIP3   OH2 2081   2.100   4.164   2.788
  692TIP3    H1 2082   2.056   4.096   2.737
  692TIP3    H2 2083   2.119   4.233   2.724
  693TIP3   OH2 2084   6.063   5.443   2.317
  693TIP3    H1 2085   6.017   5.462   2.236
  693TIP3    H2 2086   5.995   5.420   2.380
  694TIP3   OH2 2087   0.014   2.532   3.461
  694TIP3    H1 2088  -0.063   2.588   3.461
  694TIP3    H2 2089  -0.004   2.467   3.393
  695TIP3   OH2 2090   1.730   0.342   1.913
  695TIP3    H1 2091   1.703   0.431   1.890
  695TIP3    H2 2092   1.737   0.297   1.828
  696TIP3   OH2 2093   5.199   5.676   1.209
  696TIP3    H1 2094   5.231   5.595   1.169
  696TIP3    H2 2095   5.217   5.744   1.144
  697TIP3   OH2 2096   1.880   3.792   3.934
  697TIP3    H1 2097   1.951   3.753   3.985
  697TIP3    H2 2098   1.822   3.830   3.999
  698TIP3   OH2 2099   3.752   0.776   4.339
  698TIP3    H1 2100   3.842   0.758   4.313
  698TIP3    H2 2101   3.760   0.848   4.403
  699TIP3   OH2 2102   3.759   2.517   4.576
  699TIP3    H1 2103   3.690   2.451   4.591
  699TIP3    H2 2104   3.761   2.568   4.657
  700TIP3   OH2 2105   0.278   5.250   2.430
  700TIP3    H1 2106   0.341   5.315   2.399
  700TIP3    H2 2107   0.297   5.172   2.378
  701TIP3   OH2 2108   0.363   4.275   2.309
  701TIP3    H1 2109   0.271   4.294   2.332
  701TIP3    H2 2110   0.402   4.247   2.392
  702TIP3   OH2 2111   5.211   0.259   3.405
  702TIP3    H1 2112   5.158   0.337   3.420
  702TIP3    H2 2113   5.161   0.209   3.340
  703TIP3   OH2 2114   3.344   4.960   3.524
  703TIP3    H1 2115   3.306   5.041   3.491
  703TIP3    H2 2116   3.281   4.892   3.501
  704TIP3   OH2 2117   3.428   5.799   0.274
  704TIP3    H1 2118   3.499   5.798   0.210
  704TIP3    H2 2119   3.350   5.773   0.225
  705TIP3   OH2 2120   3.368   2.939   4.385
  705TIP3    H1 2121   3.463   2.939   4.369
  705TIP3    H2 2122   3.343   3.031   4.374
  706TIP3   OH2 2123   6.256   2.376   1.358
  706TIP3    H1 2124   6.316   2.344   1.425
  706TIP3    H2 2125   6.310   2.389   1.280
  707TIP3   OH2 2126   4.793   4.067   1.200
  707TIP3    H1 2127   4.888   4.079   1.211
  707TIP3    H2 2128   4.777   3.977   1.228
  708TIP3   OH2 2129   4.967   3.150   1.549
  708TIP3    H1 2130   5.047   3.106   1.520
  708TIP3    H2 2131   4.896   3.098   1.512
  709TIP3   OH2 2132   6.083   0.979   4.917
  709TIP3    H1 2133   6.064   0.991   4.824
  709TIP3    H2 2134   5.998   0.988   4.960
  710TIP3   OH2 2135   0.990   1.303   1.023
  710TIP3    H1 2136   1.061   1.248   0.991
  710TIP3    H2 2137   0.927   1.241   1.060
  711TIP3   OH2 2138   4.533   5.585   2.650
  711TIP3    H1 2139   4.572   5.655   2.598
  711TIP3    H2 2140   4.583   5.585   2.732
  712TIP3   OH2 2141   5.705   2.455   0.743
  712TIP3    H1 2142   5.744   2.388   0.687
  712TIP3    H2 2143   5.638   2.496   0.688
  713TIP3   OH2 2144   5.472   1.455   0.169
  713TIP3    H1 2145   5.398   1.513   0.187
  713TIP3    H2 2146   5.544   1.513   0.145
  714TIP3   OH2 2147   3.205   4.257   2.582
  714TIP3    H1 2148   3.298   4.238   2.590
  714TIP3    H2 2149   3.200   4.353   2.585
  715TIP3   OH2 2150   1.411   5.602   1.675
  715TIP3    H1 2151   1.407   5.672   1.739
  715TIP3    H2 2152   1.417   5.647   1.590
  716TIP3   OH2 2153   2.652   0.159   3.948
  716TIP3    H1 2154   2.728   0.104   3.968
  716TIP3    H2 2155   2.678   0.247   3.977
  717TIP3   OH2 2156   2.744   1.682   5.144
  717TIP3    H1 2157   2.770   1.669   5.235
  717TIP3    H2 2158   2.649   1.686   5.147
  718TIP3   OH2 2159   4.565   5.746   0.524
  718TIP3    H1 2160   4.572   5.795   0.442
  718TIP3    H2 2161   4.536   5.658   0.497
  719TIP3   OH2 2162   0.214   4.126   0.456
  719TIP3    H1 2163   0.235   4.192   0.390
  719TIP3    H2 2164   0.256   4.156   0.536
  720TIP3   OH2 2165   3.817   2.716   2.729
  720TIP3    H1 2166   3.771   2.648   2.680
  720TIP3    H2 2167   3.891   2.739   2.674
  721TIP3   OH2 2168   0.969   3.841   0.473
  721TIP3    H1 2169   0.981   3.773   0.407
  721TIP3    H2 2170   0.993   3.798   0.555
  722TIP3   OH2 2171   0.839   4.598   1.446
  722TIP3    H1 2172   0.829   4.672   1.506
  722TIP3    H2 2173   0.749   4.569   1.428
  723TIP3   OH2 2174   2.138   0.030   3.250
  723TIP3    H1 2175   2.078  -0.009   3.313
  723TIP3    H2 2176   2.213  -0.029   3.249
  724TIP3   OH2 2177   2.369   5.521   1.094
  724TIP3    H1 2178   2.377   5.474   1.177
  724TIP3    H2 2179   2.434   5.479   1.037
  725TIP3   OH2 2180   1.007   5.300   5.092
  725TIP3    H1 2181   0.917   5.276   5.113
  725TIP3    H2 2182   1.060   5.258   5.160
  726TIP3   OH2 2183   4.851   1.174   1.599
  726TIP3    H1 2184   4.838   1.222   1.518
  726TIP3    H2 2185   4.910   1.102   1.576
  727TIP3   OH2 2186   3.681   3.984   2.746
  727TIP3    H1 2187   3.751   4.045   2.723
  727TIP3    H2 2188   3.686   3.915   2.680
  728TIP3   OH2 2189   5.071   2.442   1.720
  728TIP3    H1 2190   5.154   2.402   1.695
  728TIP3    H2 2191   5.073   2.528   1.678
  729TIP3   OH2 2192   1.737   1.660   2.507
  729TIP3    H1 2193   1.744   1.600   2.582
  729TIP3    H2 2194   1.664   1.624   2.455
  730TIP3   OH2 2195   0.521   5.612   1.240
  730TIP3    H1 2196   0.572   5.687   1.209
  730TIP3    H2 2197   0.570   5.536   1.209
  731TIP3   OH2 2198   2.331   4.275   3.481
  731TIP3    H1 2199   2.401   4.260   3.545
  731TIP3    H2 2200   2.294   4.360   3.506
  732TIP3   OH2 2201   1.621   0.512   4.759
  732TIP3    H1 2202   1.649   0.435   4.710
  732TIP3    H2 2203   1.682   0.581   4.732
  733TIP3   OH2 2204   0.490   4.273   0.878
  733TIP3    H1 2205   0.478   4.365   0.901
  733TIP3    H2 2206   0.451   4.225   0.951
  734TIP3   OH2 2207   0.106   0.951   4.337
  734TIP3    H1 2208   0.041   0.927   4.271
  734TIP3    H2 2209   0.075   0.910   4.418
  735TIP3   OH2 2210   4.411   2.917   2.075
  735TIP3    H1 2211   4.348   2.975   2.119
  735TIP3    H2 2212   4.480   2.903   2.139
  736TIP3   OH2 2213   0.397   2.202   0.633
  736TIP3    H1 2214   0.444   2.257   0.696
  736TIP3    H2 2215   0.465   2.168   0.576
  737TIP3   OH2 2216   3.997   4.873   4.504
  737TIP3    H1 2217   4.055   4.922   4.447
  737TIP3    H2 2218   3.927   4.841   4.447
  738TIP3   OH2 2219   3.866   1.902   2.051
  738TIP3    H1 2220   3.872   1.807   2.047
  738TIP3    H2 2221   3.772   1.920   2.056
  739TIP3   OH2 2222   2.415   0.042   3.943
  739TIP3    H1 2223   2.424  -0.052   3.933
  739TIP3    H2 2224   2.505   0.075   3.946
  740TIP3   OH2 2225   4.557   5.148   0.495
  740TIP3    H1 2226   4.506   5.211   0.546
  740TIP3    H2 2227   4.556   5.183   0.406
  741TIP3   OH2 2228   4.369   2.268   1.394
  741TIP3    H1 2229   4.369   2.363   1.378
  741TIP3    H2 2230   4.276   2.247   1.409
  742TIP3   OH2 2231   0.499   2.993   0.006
  742TIP3    H1 2232   0.486   2.898   0.014
  742TIP3    H2 2233   0.411   3.029   0.006
  743TIP3   OH2 2234   0.065   1.865   2.541
  743TIP3    H1 2235   0.104   1.862   2.454
  743TIP3    H2 2236   0.096   1.785   2.584
  744TIP3   OH2 2237   3.322   4.587   0.210
  744TIP3    H1 2238   3.306   4.494   0.225
  744TIP3    H2 2239   3.337   4.623   0.297
  745TIP3   OH2 2240   0.628   1.547   1.939
  745TIP3    H1 2241   0.618   1.452   1.945
  745TIP3    H2 2242   0.585   1.570   1.857
  746TIP3   OH2 2243   4.737   1.102   3.582
  746TIP3    H1 2244   4.764   1.104   3.490
  746TIP3    H2 2245   4.740   1.010   3.606
  747TIP3   OH2 2246   1.790   0.458   0.573
  747TIP3    H1 2247   1.804   0.384   0.514
  747TIP3    H2 2248   1.866   0.456   0.632
  748TIP3   OH2 2249   4.544   5.189   1.027
  748TIP3    H1 2250   4.566   5.103   1.061
  748TIP3    H2 2251   4.553   5.248   1.102
  749TIP3   OH2 2252   2.977   5.841   3.098
  749TIP3    H1 2253   2.934   5.757   3.082
  749TIP3    H2 2254   3.030   5.856   3.020
  750TIP3   OH2 2255   5.790   0.160   0.147
  750TIP3    H1 2256   5.730   0.229   0.119
  750TIP3    H2 2257   5.775   0.153   0.242
  751TIP3   OH2 2258   0.050   3.832   2.931
  751TIP3    H1 2259   0.028   3.795   3.016
  751TIP3    H2 2260  -0.033   3.869   2.898
  752TIP3   OH2 2261   4.084   5.438   0.236
  752TIP3    H1 2262   4.118   5.412   0.150
  752TIP3    H2 2263   3.989   5.429   0.228
  753TIP3   OH2 2264   2.663   2.402   2.668
  753TIP3    H1 2265   2.726   2.337   2.638
  753TIP3    H2 2266   2.676   2.407   2.762
  754TIP3   OH2 2267   1.694   1.525   2.141
  754TIP3    H1 2268   1.607   1.528   2.179
  754TIP3    H2 2269   1.726   1.436   2.160
  755TIP3   OH2 2270   3.453   2.020   3.165
  755TIP3    H1 2271   3.415   2.062   3.242
  755TIP3    H2 2272   3.399   1.942   3.151
  756TIP3   OH2 2273   1.224   0.204   1.128
  756TIP3    H1 2274   1.177   0.251   1.060
  756TIP3    H2 2275   1.300   0.167   1.084
  757TIP3   OH2 2276   2.274   2.553   0.241
  757TIP3    H1 2277   2.367   2.531   0.246
  757TIP3    H2 2278   2.230   2.468   0.240
  758TIP3   OH2 2279   4.256   5.140   2.603
  758TIP3    H1 2280   4.167   5.109   2.622
  758TIP3    H2 2281   4.245   5.231   2.576
  759TIP3   OH2 2282   4.847   4.575   3.750
  759TIP3    H1 2283   4.800   4.588   3.832
  759TIP3    H2 2284   4.803   4.632   3.687
  760TIP3   OH2 2285   0.316   5.452   2.701
  760TIP3    H1 2286   0.248   5.511   2.733
  760TIP3    H2 2287   0.275   5.405   2.629
  761TIP3   OH2 2288   0.434   1.822   2.515
  761TIP3    H1 2289   0.372   1.806   2.444
  761TIP3    H2 2290   0.380   1.838   2.592
  762TIP3   OH2 2291   1.853   3.140   0.267
  762TIP3    H1 2292   1.806   3.210   0.223
  762TIP3    H2 2293   1.879   3.178   0.351
  763TIP3   OH2 2294   1.520   0.511   3.437
  763TIP3    H1 2295   1.572   0.529   3.359
  763TIP3    H2 2296   1.487   0.596   3.464
  764TIP3   OH2 2297   0.780   3.970   3.065
  764TIP3    H1 2298   0.796   3.912   2.991
  764TIP3    H2 2299   0.867   3.987   3.101
  765TIP3   OH2 2300   1.374   0.368   4.715
  765TIP3    H1 2301   1.287   0.406   4.724
  765TIP3    H2 2302   1.434   0.443   4.714
  766TIP3   OH2 2303   1.265   1.011   2.609
  766TIP3    H1 2304   1.286   1.036   2.699
  766TIP3    H2 2305   1.296   0.921   2.602
  767TIP3   OH2 2306   6.001   2.188   2.478
  767TIP3    H1 2307   6.021   2.103   2.518
  767TIP3    H2 2308   6.087   2.225   2.457
  768TIP3   OH2 2309   3.590   4.578   1.015
  768TIP3    H1 2310   3.624   4.658   0.974
  768TIP3    H2 2311   3.498   4.596   1.032
  769TIP3   OH2 2312   5.574   4.284   3.550
  769TIP3    H1 2313   5.543   4.201   3.514
  769TIP3    H2 2314   5.638   4.259   3.616
  770TIP3   OH2 2315   1.564   1.692   4.653
  770TIP3    H1 2316   1.551   1.597   4.649
  770TIP3    H2 2317   1.492   1.728   4.601
  771TIP3   OH2 2318   3.326   0.113   4.114
  771TIP3    H1 2319   3.282   0.115   4.199
  771TIP3    H2 2320   3.403   0.168   4.126
  772TIP3   OH2 2321   3.965   3.889   3.184
  772TIP3    H1 2322   4.030   3.819   3.182
  772TIP3    H2 2323   3.948   3.909   3.092
  773TIP3   OH2 2324   0.367   3.126   4.062
  773TIP3    H1 2325   0.320   3.100   3.982
  773TIP3    H2 2326   0.315   3.090   4.133
  774TIP3   OH2 2327   0.835   2.134   0.458
  774TIP3    H1 2328   0.876   2.194   0.396
  774TIP3    H2 2329   0.745   2.125   0.426
  775TIP3   OH2 2330   0.862   0.445   2.168
  775TIP3    H1 2331   0.796   0.382   2.198
  775TIP3    H2 2332   0.837   0.465   2.078
  776TIP3   OH2 2333   2.425   5.024   1.678
  776TIP3    H1 2334   2.330   5.019   1.688
  776TIP3    H2 2335   2.459   4.995   1.762
  777TIP3   OH2 2336   1.829   2.838   2.787
  777TIP3    H1 2337   1.893   2.818   2.718
  777TIP3    H2 2338   1.826   2.759   2.841
  778TIP3   OH2 2339   0.920   0.491   0.306
  778TIP3    H1 2340   0.884   0.419   0.254
  778TIP3    H2 2341   1.009   0.501   0.274
  779TIP3   OH2 2342   5.877   5.855   4.097
  779TIP3    H1 2343   5.879   5.772   4.049
  779TIP3    H2 2344   5.886   5.829   4.189
  780TIP3   OH2 2345   5.797   5.600   1.354
  780TIP3    H1 2346   5.797   5.614   1.449
  780TIP3    H2 2347   5.874   5.546   1.338
  781TIP3   OH2 2348   1.057   5.777   1.915
  781TIP3    H1 2349   1.085   5.782   1.823
  781TIP3    H2 2350   1.084   5.691   1.944
  782TIP3   OH2 2351   2.338   0.980   3.539
  782TIP3    H1 2352   2.280   0.905   3.547
  782TIP3    H2 2353   2.404   0.966   3.607
  783TIP3   OH2 2354   1.147   3.290   2.540
  783TIP3    H1 2355   1.160   3.273   2.633
  783TIP3    H2 2356   1.235   3.285   2.502
  784TIP3   OH2 2357   5.390   1.931   1.196
  784TIP3    H1 2358   5.308   1.962   1.236
  784TIP3    H2 2359   5.369   1.844   1.163
  785TIP3   OH2 2360   6.158   4.904   0.854
  785TIP3    H1 2361   6.093   4.956   0.807
  785TIP3    H2 2362   6.240   4.922   0.809
  786TIP3   OH2 2363   1.441   1.854   2.007
  786TIP3    H1 2364   1.396   1.769   2.002
  786TIP3    H2 2365   1.441   1.876   2.100
  787TIP3   OH2 2366   0.715   2.609   0.084
  787TIP3    H1 2367   0.639   2.584   0.031
  787TIP3    H2 2368   0.745   2.527   0.124
  788TIP3   OH2 2369   3.877   4.968   5.013
  788TIP3    H1 2370   3.956   5.021   5.022
  788TIP3    H2 2371   3.816   5.024   4.966
  789TIP3   OH2 2372   2.031   1.887   3.279
  789TIP3    H1 2373   2.089   1.835   3.224
  789TIP3    H2 2374   1.984   1.944   3.218
  790TIP3   OH2 2375   1.062   4.381   4.121
  790TIP3    H1 2376   1.048   4.348   4.210
  790TIP3    H2 2377   0.990   4.443   4.106
  791TIP3   OH2 2378   4.131   5.562   4.416
  791TIP3    H1 2379   4.084   5.603   4.489
  791TIP3    H2 2380   4.070   5.569   4.342
  792TIP3   OH2 2381   5.198   2.766   3.145
  792TIP3    H1 2382   5.164   2.709   3.076
  792TIP3    H2 2383   5.268   2.715   3.185
  793TIP3   OH2 2384   6.331   0.202   3.533
  793TIP3    H1 2385   6.255   0.144   3.526
  793TIP3    H2 2386   6.317   0.268   3.465
  794TIP3   OH2 2387   2.249   0.104   2.456
  794TIP3    H1 2388   2.224   0.072   2.369
  794TIP3    H2 2389   2.263   0.198   2.444
  795TIP3   OH2 2390   4.289   4.843   4.202
  795TIP3    H1 2391   4.356   4.779   4.226
  795TIP3    H2 2392   4.296   4.912   4.268
  796TIP3   OH2 2393   5.293   2.327   4.052
  796TIP3    H1 2394   5.332   2.256   3.999
  796TIP3    H2 2395   5.242   2.281   4.119
  797TIP3   OH2 2396   1.550   5.328   2.855
  797TIP3    H1 2397   1.537   5.325   2.760
  797TIP3    H2 2398   1.512   5.247   2.887
  798TIP3   OH2 2399   3.734   4.975   4.607
  798TIP3    H1 2400   3.655   4.921   4.603
  798TIP3    H2 2401   3.703   5.063   4.582
  799TIP3   OH2 2402   3.297   4.451   1.853
  799TIP3    H1 2403   3.372   4.394   1.835
  799TIP3    H2 2404   3.277   4.492   1.768
  800TIP3   OH2 2405   2.696   1.862   4.934
  800TIP3    H1 2406   2.723   1.796   4.997
  800TIP3    H2 2407   2.713   1.946   4.977
  801TIP3   OH2 2408   4.569   5.348   3.231
  801TIP3    H1 2409   4.593   5.436   3.203
  801TIP3    H2 2410   4.621   5.333   3.310
  802TIP3   OH2 2411   5.463   2.446   0.337
  802TIP3    H1 2412   5.424   2.506   0.401
  802TIP3    H2 2413   5.545   2.419   0.378
  803TIP3   OH2 2414   2.276   3.662   3.463
  803TIP3    H1 2415   2.221   3.737   3.487
  803TIP3    H2 2416   2.232   3.586   3.502
  804TIP3   OH2 2417   4.979   4.393   0.143
  804TIP3    H1 2418   4.990   4.440   0.226
  804TIP3    H2 2419   4.884   4.383   0.133
  805TIP3   OH2 2420   2.029   0.591   1.206
  805TIP3    H1 2421   2.113   0.546   1.213
  805TIP3    H2 2422   2.044   0.678   1.243
  806TIP3   OH2 2423   5.150   3.423   1.812
  806TIP3    H1 2424   5.063   3.452   1.840
  806TIP3    H2 2425   5.155   3.331   1.837
  807TIP3   OH2 2426   4.877   1.982   3.216
  807TIP3    H1 2427   4.787   1.992   3.246
  807TIP3    H2 2428   4.879   2.025   3.130
  808TIP3   OH2 2429   5.933   0.598   1.680
  808TIP3    H1 2430   5.847   0.567   1.707
  808TIP3    H2 2431   5.952   0.671   1.739
  809TIP3   OH2 2432   0.173   0.941   2.943
  809TIP3    H1 2433   0.221   0.863   2.914
  809TIP3    H2 2434   0.197   1.009   2.880
  810TIP3   OH2 2435   1.972   5.818   1.712
  810TIP3    H1 2436   1.939   5.774   1.791
  810TIP3    H2 2437   1.961   5.754   1.642
  811TIP3   OH2 2438   4.866   4.196   0.467
  811TIP3    H1 2439   4.873   4.186   0.372
  811TIP3    H2 2440   4.772   4.195   0.485
  812TIP3   OH2 2441   2.001   4.027   3.286
  812TIP3    H1 2442   2.062   4.076   3.230
  812TIP3    H2 2443   1.920   4.079   3.285
  813TIP3   OH2 2444   3.310   0.416   2.676
  813TIP3    H1 2445   3.397   0.435   2.712
  813TIP3    H2 2446   3.308   0.464   2.594
  814TIP3   OH2 2447   3.078   3.537   3.543
  814TIP3    H1 2448   3.151   3.567   3.597
  814TIP3    H2 2449   3.006   3.595   3.566
  815TIP3   OH2 2450   5.924   1.101   0.277
  815TIP3    H1 2451   5.840   1.145   0.291
  815TIP3    H2 2452   5.920   1.069   0.187
  816TIP3   OH2 2453   5.362   2.521   3.783
  816TIP3    H1 2454   5.293   2.532   3.848
  816TIP3    H2 2455   5.439   2.561   3.822
  817TIP3   OH2 2456   3.480   1.493   1.483
  817TIP3    H1 2457   3.393   1.453   1.488
  817TIP3    H2 2458   3.467   1.571   1.429
  818TIP3   OH2 2459   1.063   1.637   3.668
  818TIP3    H1 2460   1.118   1.639   3.747
  818TIP3    H2 2461   1.125   1.644   3.596
  819TIP3   OH2 2462   3.318   1.879   0.654
  819TIP3    H1 2463   3.261   1.938   0.704
  819TIP3    H2 2464   3.407   1.905   0.679
  820TIP3   OH2 2465   5.480   2.408   3.211
  820TIP3    H1 2466   5.413   2.410   3.142
  820TIP3    H2 2467   5.431   2.393   3.292
  821TIP3   OH2 2468   6.256   0.035   2.981
  821TIP3    H1 2469   6.168   0.037   3.021
  821TIP3    H2 2470   6.302   0.108   3.022
  822TIP3   OH2 2471   0.423   1.228   1.015
  822TIP3    H1 2472   0.508   1.262   0.987
  822TIP3    H2 2473   0.379   1.202   0.934
  823TIP3   OH2 2474   5.793   5.359   4.300
  823TIP3    H1 2475   5.720   5.297   4.302
  823TIP3    H2 2476   5.845   5.332   4.224
  824TIP3   OH2 2477   4.535   1.447   1.996
  824TIP3    H1 2478   4.459   1.422   1.944
  824TIP3    H2 2479   4.512   1.531   2.034
  825TIP3   OH2 2480   5.186   5.972   0.037
  825TIP3    H1 2481   5.123   6.013  -0.022
  825TIP3    H2 2482   5.254   5.937  -0.020
  826TIP3   OH2 2483   5.606   3.567   4.996
  826TIP3    H1 2484   5.517   3.589   5.022
  826TIP3    H2 2485   5.628   3.632   4.930
  827TIP3   OH2 2486   5.040   5.485   4.904
  827TIP3    H1 2487   4.976   5.552   4.927
  827TIP3    H2 2488   5.029   5.418   4.971
  828TIP3   OH2 2489   3.539   3.285   2.052
  828TIP3    H1 2490   3.612   3.323   2.004
  828TIP3    H2 2491   3.489   3.236   1.986
  829TIP3   OH2 2492   2.185   2.980   1.006
  829TIP3    H1 2493   2.232   3.046   1.056
  829TIP3    H2 2494   2.244   2.905   1.002
  830TIP3   OH2 2495   5.140   2.532   3.974
  830TIP3    H1 2496   5.189   2.456   4.006
  830TIP3    H2 2497   5.056   2.529   4.020
  831TIP3   OH2 2498   1.189   2.423   4.705
  831TIP3    H1 2499   1.262   2.361   4.709
  831TIP3    H2 2500   1.203   2.481   4.780
  832TIP3   OH2 2501   0.027   4.961   4.536
  832TIP3    H1 2502  -0.011   5.049   4.536
  832TIP3    H2 2503  -0.048   4.902   4.538
  833TIP3   OH2 2504   5.251   0.086   1.280
  833TIP3    H1 2505   5.197   0.143   1.226
  833TIP3    H2 2506   5.191   0.018   1.312
  834TIP3   OH2 2507   5.584   4.086   4.542
  834TIP3    H1 2508   5.555   4.175   4.560
  834TIP3    H2 2509   5.516   4.050   4.485
  835TIP3   OH2 2510   0.211   1.606   4.015
  835TIP3    H1 2511   0.131   1.659   4.010
  835TIP3    H2 2512   0.282   1.667   3.996
  836TIP3   OH2 2513   0.435   1.482   2.621
  836TIP3    H1 2514   0.510   1.540   2.610
  836TIP3    H2 2515   0.443   1.448   2.710
  837TIP3   OH2 2516   0.284   1.875   1.675
  837TIP3    H1 2517   0.220   1.803   1.679
  837TIP3    H2 2518   0.324   1.867   1.589
  838TIP3   OH2 2519   0.230   1.029   3.548
  838TIP3    H1 2520   0.310   0.995   3.588
  838TIP3    H2 2521   0.193   1.088   3.615
  839TIP3   OH2 2522   3.596   1.698   3.803
  839TIP3    H1 2523   3.545   1.636   3.751
  839TIP3    H2 2524   3.682   1.658   3.811
  840TIP3   OH2 2525   4.788   0.004   3.769
  840TIP3    H1 2526   4.882   0.011   3.751
  840TIP3    H2 2527   4.780  -0.072   3.828
  841TIP3   OH2 2528   1.269   4.935   4.963
  841TIP3    H1 2529   1.213   4.998   4.918
  841TIP3    H2 2530   1.354   4.942   4.919
  842TIP3   OH2 2531   5.697   0.849   0.735
  842TIP3    H1 2532   5.670   0.884   0.820
  842TIP3    H2 2533   5.786   0.882   0.723
  843TIP3   OH2 2534   4.674   0.550   3.766
  843TIP3    H1 2535   4.590   0.505   3.776
  843TIP3    H2 2536   4.703   0.567   3.855
  844TIP3   OH2 2537   1.932   0.499   0.235
  844TIP3    H1 2538   1.841   0.529   0.240
  844TIP3    H2 2539   1.926   0.411   0.199
  845TIP3   OH2 2540   1.796   4.066   3.046
  845TIP3    H1 2541   1.883   4.028   3.031
  845TIP3    H2 2542   1.735   3.996   3.024
  846TIP3   OH2 2543   2.087   5.219   0.701
  846TIP3    H1 2544   1.997   5.192   0.683
  846TIP3    H2 2545   2.081   5.279   0.775
  847TIP3   OH2 2546   3.907   2.642   1.803
  847TIP3    H1 2547   3.857   2.603   1.732
  847TIP3    H2 2548   3.847   2.641   1.878
  848TIP3   OH2 2549   1.493   3.758   1.010
  848TIP3    H1 2550   1.547   3.701   1.065
  848TIP3    H2 2551   1.404   3.746   1.042
  849TIP3   OH2 2552   5.403   2.501   2.877
  849TIP3    H1 2553   5.494   2.519   2.900
  849TIP3    H2 2554   5.408   2.426   2.818
  850TIP3   OH2 2555   1.717   3.104   2.268
  850TIP3    H1 2556   1.692   3.151   2.189
  850TIP3    H2 2557   1.751   3.020   2.237
  851TIP3   OH2 2558   5.325   1.702   0.184
  851TIP3    H1 2559   5.339   1.794   0.205
  851TIP3    H2 2560   5.333   1.697   0.089
  852TIP3   OH2 2561   4.104   0.151   0.200
  852TIP3    H1 2562   4.125   0.202   0.277
  852TIP3    H2 2563   4.186   0.148   0.150
  853TIP3   OH2 2564   2.280   1.500   2.016
  853TIP3    H1 2565   2.307   1.463   2.100
  853TIP3    H2 2566   2.188   1.523   2.029
  854TIP3   OH2 2567   0.486   3.415   0.446
  854TIP3    H1 2568   0.446   3.394   0.361
  854TIP3    H2 2569   0.454   3.503   0.465
  855TIP3   OH2 2570   4.212   1.776   1.179
  855TIP3    H1 2571   4.200   1.819   1.264
  855TIP3    H2 2572   4.187   1.842   1.114
  856TIP3   OH2 2573   4.467   0.583   2.877
  856TIP3    H1 2574   4.474   0.672   2.843
  856TIP3    H2 2575   4.541   0.576   2.938
  857TIP3   OH2 2576   0.534   3.635   2.488
  857TIP3    H1 2577   0.465   3.651   2.423
  857TIP3    H2 2578   0.571   3.551   2.463
  858TIP3   OH2 2579   4.536   3.429   0.644
  858TIP3    H1 2580   4.626   3.396   0.636
  858TIP3    H2 2581   4.481   3.351   0.644
  859TIP3   OH2 2582   1.087   0.356   0.931
  859TIP3    H1 2583   1.170   0.390   0.897
  859TIP3    H2 2584   1.040   0.434   0.961
  860TIP3   OH2 2585   1.033   2.723   4.522
  860TIP3    H1 2586   0.963   2.675   4.566
  860TIP3    H2 2587   0.989   2.776   4.456
  861TIP3   OH2 2588   1.021   3.411   1.491
  861TIP3    H1 2589   1.073   3.490   1.478
  861TIP3    H2 2590   0.933   3.444   1.512
  862TIP3   OH2 2591   5.512   3.314   2.328
  862TIP3    H1 2592   5.451   3.388   2.328
  862TIP3    H2 2593   5.553   3.317   2.242
  863TIP3   OH2 2594   1.697   3.503   4.565
  863TIP3    H1 2595   1.759   3.565   4.604
  863TIP3    H2 2596   1.645   3.555   4.505
  864TIP3   OH2 2597   6.085   3.950   0.038
  864TIP3    H1 2598   6.164   3.910   0.002
  864TIP3    H2 2599   6.116   4.002   0.113
  865TIP3   OH2 2600   0.832   1.652   4.192
  865TIP3    H1 2601   0.917   1.695   4.195
  865TIP3    H2 2602   0.849   1.565   4.158
  866TIP3   OH2 2603   4.381   3.464   3.003
  866TIP3    H1 2604   4.404   3.385   2.954
  866TIP3    H2 2605   4.425   3.535   2.956
  867TIP3   OH2 2606   4.705   3.447   3.831
  867TIP3    H1 2607   4.742   3.455   3.919
  867TIP3    H2 2608   4.624   3.397   3.844
  868TIP3   OH2 2609   2.722   4.253   4.588
  868TIP3    H1 2610   2.695   4.162   4.585
  868TIP3    H2 2611   2.640   4.302   4.595
  869TIP3   OH2 2612   5.991   1.492   3.902
  869TIP3    H1 2613   6.048   1.562   3.934
  869TIP3    H2 2614   5.902   1.521   3.924
  870TIP3   OH2 2615   5.712   3.258   1.437
  870TIP3    H1 2616   5.753   3.215   1.362
  870TIP3    H2 2617   5.681   3.342   1.403
  871TIP3   OH2 2618   0.778   1.432   0.768
  871TIP3    H1 2619   0.716   1.433   0.696
  871TIP3    H2 2620   0.785   1.339   0.792
  872TIP3   OH2 2621   1.747   3.662   1.635
  872TIP3    H1 2622   1.759   3.593   1.569
  872TIP3    H2 2623   1.701   3.732   1.588
  873TIP3   OH2 2624   2.300   4.277   4.303
  873TIP3    H1 2625   2.382   4.236   4.274
  873TIP3    H2 2626   2.287   4.350   4.243
  874TIP3   OH2 2627   6.147   0.215   2.192
  874TIP3    H1 2628   6.141   0.219   2.288
  874TIP3    H2 2629   6.200   0.137   2.175
  875TIP3   OH2 2630   2.876   0.635   1.674
  875TIP3    H1 2631   2.872   0.540   1.683
  875TIP3    H2 2632   2.874   0.650   1.579
  876TIP3   OH2 2633   5.812   0.968   4.959
  876TIP3    H1 2634   5.745   0.900   4.947
  876TIP3    H2 2635   5.808   1.021   4.880
  877TIP3   OH2 2636   4.646   2.899   0.993
  877TIP3    H1 2637   4.569   2.866   0.947
  877TIP3    H2 2638   4.696   2.946   0.926
  878TIP3   OH2 2639   1.286   5.663   3.060
  878TIP3    H1 2640   1.197   5.690   3.082
  878TIP3    H2 2641   1.336   5.744   3.054
  879TIP3   OH2 2642   5.923   4.004   2.711
  879TIP3    H1 2643   5.948   3.997   2.619
  879TIP3    H2 2644   6.006   4.018   2.757
  880TIP3   OH2 2645   1.616   0.813   4.339
  880TIP3    H1 2646   1.561   0.878   4.383
  880TIP3    H2 2647   1.705   0.847   4.349
  881TIP3   OH2 2648   0.379   4.764   4.405
  881TIP3    H1 2649   0.463   4.725   4.429
  881TIP3    H2 2650   0.366   4.740   4.313
  882TIP3   OH2 2651   3.861   1.089   2.969
  882TIP3    H1 2652   3.836   1.159   2.909
  882TIP3    H2 2653   3.945   1.057   2.934
  883TIP3   OH2 2654   2.793   1.691   4.698
  883TIP3    H1 2655   2.748   1.633   4.759
  883TIP3    H2 2656   2.807   1.772   4.747
  884TIP3   OH2 2657   3.594   2.660   3.983
  884TIP3    H1 2658   3.525   2.693   4.040
  884TIP3    H2 2659   3.628   2.738   3.938
  885TIP3   OH2 2660   2.058   2.468   4.474
  885TIP3    H1 2661   1.977   2.451   4.427
  885TIP3    H2 2662   2.030   2.505   4.558
  886TIP3   OH2 2663   5.965   5.777   0.441
  886TIP3    H1 2664   6.044   5.728   0.420
  886TIP3    H2 2665   5.893   5.724   0.404
  887TIP3   OH2 2666   2.544   1.993   1.926
  887TIP3    H1 2667   2.510   1.918   1.975
  887TIP3    H2 2668   2.474   2.015   1.865
  888TIP3   OH2 2669   4.564   3.890   2.744
  888TIP3    H1 2670   4.545   3.930   2.658
  888TIP3    H2 2671   4.484   3.844   2.767
  889TIP3   OH2 2672   1.065   4.745   4.513
  889TIP3    H1 2673   1.103   4.813   4.458
  889TIP3    H2 2674   1.028   4.792   4.588
  890TIP3   OH2 2675   2.048   1.927   4.863
  890TIP3    H1 2676   2.032   2.018   4.841
  890TIP3    H2 2677   1.961   1.891   4.882
  891TIP3   OH2 2678   2.543   3.502   3.794
  891TIP3    H1 2679   2.546   3.507   3.698
  891TIP3    H2 2680   2.567   3.411   3.813
  892TIP3   OH2 2681   0.346   0.749   5.000
  892TIP3    H1 2682   0.338   0.726   4.907
  892TIP3    H2 2683   0.257   0.747   5.033
  893TIP3   OH2 2684   5.663   2.807   3.021
  893TIP3    H1 2685   5.592   2.871   3.021
  893TIP3    H2 2686   5.704   2.816   3.107
  894TIP3   OH2 2687   5.077   0.336   1.850
  894TIP3    H1 2688   5.029   0.267   1.803
  894TIP3    H2 2689   5.040   0.418   1.816
  895TIP3   OH2 2690   5.377   4.949   2.328
  895TIP3    H1 2691   5.441   4.895   2.375
  895TIP3    H2 2692   5.387   4.924   2.236
  896TIP3   OH2 2693   0.015   3.914   0.104
  896TIP3    H1 2694  -0.025   3.893   0.019
  896TIP3    H2 2695   0.016   3.830   0.151
  897TIP3   OH2 2696   0.065   5.763   3.656
  897TIP3    H1 2697   0.027   5.838   3.702
  897TIP3    H2 2698   0.136   5.801   3.604
  898TIP3   OH2 2699   3.683   3.489   3.213
  898TIP3    H1 2700   3.766   3.452   3.184
  898TIP3    H2 2701   3.628   3.490   3.135
  899TIP3   OH2 2702   2.596   0.519   2.669
  899TIP3    H1 2703   2.526   0.570   2.629
  899TIP3    H2 2704   2.561   0.430   2.674
  900TIP3   OH2 2705   3.342   3.806   1.359
  900TIP3    H1 2706   3.366   3.713   1.363
  900TIP3    H2 2707   3.265   3.808   1.303
  901TIP3   OH2 2708   1.592   0.647   3.859
  901TIP3    H1 2709   1.554   0.728   3.892
  901TIP3    H2 2710   1.619   0.667   3.770
  902TIP3   OH2 2711   2.709   0.669   1.195
  902TIP3    H1 2712   2.655   0.591   1.206
  902TIP3    H2 2713   2.654   0.729   1.144
  903TIP3   OH2 2714   5.625   3.888   1.026
  903TIP3    H1 2715   5.711   3.845   1.022
  903TIP3    H2 2716   5.569   3.826   1.072
  904TIP3   OH2 2717   2.867   0.296   1.214
  904TIP3    H1 2718   2.853   0.353   1.138
  904TIP3    H2 2719   2.849   0.208   1.182
  905TIP3   OH2 2720   0.765   2.907   4.632
  905TIP3    H1 2721   0.771   2.989   4.681
  905TIP3    H2 2722   0.822   2.920   4.556
  906TIP3   OH2 2723   1.321   3.405   2.229
  906TIP3    H1 2724   1.359   3.336   2.284
  906TIP3    H2 2725   1.368   3.485   2.254
  907TIP3   OH2 2726   4.088   0.157   3.625
  907TIP3    H1 2727   4.047   0.230   3.579
  907TIP3    H2 2728   4.086   0.183   3.717
  908TIP3   OH2 2729   3.397   5.396   4.706
  908TIP3    H1 2730   3.401   5.443   4.790
  908TIP3    H2 2731   3.326   5.333   4.718
  909TIP3   OH2 2732   2.673   3.345   2.869
  909TIP3    H1 2733   2.743   3.352   2.804
  909TIP3    H2 2734   2.607   3.408   2.839
  910TIP3   OH2 2735   4.261   0.895   3.930
  910TIP3    H1 2736   4.302   0.812   3.906
  910TIP3    H2 2737   4.169   0.875   3.942
  911TIP3   OH2 2738   2.823   2.802   2.973
  911TIP3    H1 2739   2.875   2.881   2.987
  911TIP3    H2 2740   2.852   2.769   2.888
  912TIP3   OH2 2741   6.238   5.077   1.704
  912TIP3    H1 2742   6.281   5.018   1.642
  912TIP3    H2 2743   6.171   5.023   1.746
  913TIP3   OH2 2744   2.163   5.952   4.552
  913TIP3    H1 2745   2.127   5.998   4.628
  913TIP3    H2 2746   2.086   5.915   4.508
  914TIP3   OH2 2747   1.901   3.206   4.200
  914TIP3    H1 2748   1.921   3.230   4.109
  914TIP3    H2 2749   1.900   3.110   4.199
  915TIP3   OH2 2750   3.810   0.364   2.949
  915TIP3    H1 2751   3.871   0.347   3.020
  915TIP3    H2 2752   3.767   0.446   2.972
  916TIP3   OH2 2753   2.380   5.997   0.891
  916TIP3    H1 2754   2.301   5.977   0.841
  916TIP3    H2 2755   2.404   5.913   0.931
  917TIP3   OH2 2756   3.455   3.582   1.790
  917TIP3    H1 2757   3.517   3.510   1.777
  917TIP3    H2 2758   3.463   3.635   1.710
  918TIP3   OH2 2759   3.266   5.772   5.005
  918TIP3    H1 2760   3.232   5.774   5.095
  918TIP3    H2 2761   3.334   5.839   5.004
  919TIP3   OH2 2762   5.439   5.732   4.598
  919TIP3    H1 2763   5.429   5.826   4.583
  919TIP3    H2 2764   5.364   5.708   4.653
  920TIP3   OH2 2765   4.749   5.147   4.767
  920TIP3    H1 2766   4.722   5.232   4.732
  920TIP3    H2 2767   4.841   5.139   4.741
  921TIP3   OH2 2768   0.548   0.197   3.349
  921TIP3    H1 2769   0.492   0.253   3.295
  921TIP3    H2 2770   0.637   0.224   3.326
  922TIP3   OH2 2771   2.401   5.992   4.342
  922TIP3    H1 2772   2.404   5.930   4.415
  922TIP3    H2 2773   2.455   5.952   4.274
  923TIP3   OH2 2774   5.084   5.128   3.508
  923TIP3    H1 2775   5.047   5.141   3.595
  923TIP3    H2 2776   5.149   5.059   3.521
  924TIP3   OH2 2777   4.326   3.903   2.199
  924TIP3    H1 2778   4.342   3.989   2.239
  924TIP3    H2 2779   4.317   3.922   2.106
  925TIP3   OH2 2780   1.513   4.026   3.879
  925TIP3    H1 2781   1.542   4.023   3.788
  925TIP3    H2 2782   1.480   3.938   3.897
  926TIP3   OH2 2783   4.714   4.729   4.814
  926TIP3    H1 2784   4.725   4.641   4.851
  926TIP3    H2 2785   4.759   4.725   4.730
  927TIP3   OH2 2786   4.050   1.136   3.502
  927TIP3    H1 2787   3.973   1.080   3.492
  927TIP3    H2 2788   4.107   1.088   3.562
  928TIP3   OH2 2789   6.370   3.845   3.219
  928TIP3    H1 2790   6.295   3.900   3.197
  928TIP3    H2 2791   6.332   3.770   3.265
  929TIP3   OH2 2792   2.124   0.483   0.423
  929TIP3    H1 2793   2.064   0.486   0.349
  929TIP3    H2 2794   2.087   0.542   0.488
  930TIP3   OH2 2795   6.353   1.434   3.666
  930TIP3    H1 2796   6.422   1.494   3.639
  930TIP3    H2 2797   6.325   1.393   3.584
  931TIP3   OH2 2798   3.055   1.218   2.656
  931TIP3    H1 2799   2.990   1.174   2.603
  931TIP3    H2 2800   3.028   1.310   2.654
  932TIP3   OH2 2801   2.023   4.526   4.467
  932TIP3    H1 2802   2.030   4.618   4.439
  932TIP3    H2 2803   1.948   4.493   4.417
  933TIP3   OH2 2804   1.584   2.887   4.741
  933TIP3    H1 2805   1.626   2.951   4.684
  933TIP3    H2 2806   1.548   2.821   4.682
  934TIP3   OH2 2807   2.945   1.176   3.355
  934TIP3    H1 2808   3.032   1.188   3.393
  934TIP3    H2 2809   2.920   1.263   3.324
  935TIP3   OH2 2810   2.797   0.800   4.861
  935TIP3    H1 2811   2.774   0.874   4.917
  935TIP3    H2 2812   2.890   0.813   4.841
  936TIP3   OH2 2813   2.636   4.804   0.615
  936TIP3    H1 2814   2.719   4.785   0.658
  936TIP3    H2 2815   2.600   4.878   0.662
  937TIP3   OH2 2816   1.119   0.718   0.934
  937TIP3    H1 2817   1.176   0.769   0.992
  937TIP3    H2 2818   1.051   0.684   0.991
  938TIP3   OH2 2819   3.022   3.497   1.131
  938TIP3    H1 2820   2.974   3.414   1.140
  938TIP3    H2 2821   3.113   3.473   1.144
  939TIP3   OH2 2822   1.499   1.545   2.879
  939TIP3    H1 2823   1.552   1.622   2.901
  939TIP3    H2 2824   1.427   1.547   2.942
  940TIP3   OH2 2825   0.280   2.718   2.676
  940TIP3    H1 2826   0.267   2.811   2.656
  940TIP3    H2 2827   0.313   2.717   2.766
  941TIP3   OH2 2828   4.795   5.657  -0.001
  941TIP3    H1 2829   4.872   5.648   0.054
  941TIP3    H2 2830   4.724   5.619   0.051
  942TIP3   OH2 2831   4.976   1.764   3.362
  942TIP3    H1 2832   4.910   1.774   3.430
  942TIP3    H2 2833   4.962   1.838   3.304
  943TIP3   OH2 2834   4.580   1.600   2.951
  943TIP3    H1 2835   4.506   1.564   2.904
  943TIP3    H2 2836   4.655   1.588   2.893
  944TIP3   OH2 2837   5.009   5.755   5.200
  944TIP3    H1 2838   5.046   5.773   5.113
  944TIP3    H2 2839   4.946   5.684   5.185
  945TIP3   OH2 2840   0.549   2.997   4.335
  945TIP3    H1 2841   0.536   3.091   4.323
  945TIP3    H2 2842   0.509   2.977   4.420
  946TIP3   OH2 2843   1.885   5.113   1.905
  946TIP3    H1 2844   1.887   5.207   1.921
  946TIP3    H2 2845   1.834   5.103   1.824
  947TIP3   OH2 2846   4.826   0.753   3.124
  947TIP3    H1 2847   4.833   0.839   3.084
  947TIP3    H2 2848   4.899   0.703   3.087
  948TIP3   OH2 2849   6.039   0.906   3.852
  948TIP3    H1 2850   5.991   0.823   3.859
  948TIP3    H2 2851   5.997   0.963   3.917
  949TIP3   OH2 2852   2.248   1.693   5.007
  949TIP3    H1 2853   2.298   1.759   5.054
  949TIP3    H2 2854   2.289   1.688   4.921
  950TIP3   OH2 2855   1.381   3.721   2.044
  950TIP3    H1 2856   1.358   3.808   2.010
  950TIP3    H2 2857   1.297   3.676   2.054
  951TIP3   OH2 2858   5.331   4.517   1.649
  951TIP3    H1 2859   5.269   4.585   1.677
  951TIP3    H2 2860   5.310   4.504   1.556
  952TIP3   OH2 2861   4.841   4.261   4.690
  952TIP3    H1 2862   4.924   4.307   4.677
  952TIP3    H2 2863   4.860   4.197   4.759
  953TIP3   OH2 2864   5.373   3.873   2.425
  953TIP3    H1 2865   5.283   3.841   2.423
  953TIP3    H2 2866   5.370   3.956   2.378
  954TIP3   OH2 2867   0.824   3.084   1.742
  954TIP3    H1 2868   0.797   3.061   1.654
  954TIP3    H2 2869   0.787   3.171   1.757
  955TIP3   OH2 2870   6.064   1.869   1.547
  955TIP3    H1 2871   6.070   1.964   1.533
  955TIP3    H2 2872   6.073   1.858   1.642
  956TIP3   OH2 2873   5.944   1.284   0.034
  956TIP3    H1 2874   6.013   1.231   0.074
  956TIP3    H2 2875   5.963   1.281  -0.060
  957TIP3   OH2 2876   1.488   5.314   5.148
  957TIP3    H1 2877   1.555   5.290   5.211
  957TIP3    H2 2878   1.413   5.258   5.169
  958TIP3   OH2 2879   3.966   5.833   5.065
  958TIP3    H1 2880   4.009   5.809   4.982
  958TIP3    H2 2881   3.884   5.875   5.038
  959TIP3   OH2 2882   3.525   0.581   2.486
  959TIP3    H1 2883   3.520   0.618   2.574
  959TIP3    H2 2884   3.443   0.607   2.444
  960TIP3   OH2 2885   5.543   5.618   2.508
  960TIP3    H1 2886   5.505   5.701   2.480
  960TIP3    H2 2887   5.604   5.641   2.578
  961TIP3   OH2 2888   0.034   0.988   0.556
  961TIP3    H1 2889   0.003   0.998   0.466
  961TIP3    H2 2890   0.017   1.073   0.597
  962TIP3   OH2 2891   1.918   1.502   1.138
  962TIP3    H1 2892   1.921   1.590   1.175
  962TIP3    H2 2893   1.986   1.454   1.185
  963TIP3   OH2 2894   4.698   0.516   4.657
  963TIP3    H1 2895   4.652   0.570   4.721
  963TIP3    H2 2896   4.777   0.487   4.702
  964TIP3   OH2 2897   5.947   5.630   1.589
  964TIP3    H1 2898   6.028   5.628   1.641
  964TIP3    H2 2899   5.897   5.555   1.621
  965TIP3   OH2 2900   2.029   1.002   3.231
  965TIP3    H1 2901   2.098   0.985   3.167
  965TIP3    H2 2902   2.063   0.966   3.313
  966TIP3   OH2 2903   0.135   5.469   2.223
  966TIP3    H1 2904   0.055   5.442   2.269
  966TIP3    H2 2905   0.201   5.475   2.292
  967TIP3   OH2 2906   0.471   0.288   1.563
  967TIP3    H1 2907   0.478   0.317   1.472
  967TIP3    H2 2908   0.398   0.227   1.563
  968TIP3   OH2 2909   3.139   2.092   3.110
  968TIP3    H1 2910   3.084   2.159   3.070
  968TIP3    H2 2911   3.086   2.012   3.107
  969TIP3   OH2 2912   1.248   4.611   0.959
  969TIP3    H1 2913   1.288   4.646   0.880
  969TIP3    H2 2914   1.282   4.522   0.967
  970TIP3   OH2 2915   0.632   3.778   4.232
  970TIP3    H1 2916   0.570   3.705   4.235
  970TIP3    H2 2917   0.606   3.828   4.154
  971TIP3   OH2 2918   5.879   5.407   3.384
  971TIP3    H1 2919   5.817   5.379   3.451
  971TIP3    H2 2920   5.838   5.483   3.343
  972TIP3   OH2 2921   0.541   4.082   2.170
  972TIP3    H1 2922   0.528   4.004   2.116
  972TIP3    H2 2923   0.462   4.134   2.155
  973TIP3   OH2 2924   0.852   3.124   2.712
  973TIP3    H1 2925   0.883   3.130   2.622
  973TIP3    H2 2926   0.760   3.096   2.705
  974TIP3   OH2 2927   0.970   3.656   4.327
  974TIP3    H1 2928   1.044   3.601   4.303
  974TIP3    H2 2929   1.009   3.743   4.340
  975TIP3   OH2 2930   5.671   4.542   3.850
  975TIP3    H1 2931   5.598   4.535   3.912
  975TIP3    H2 2932   5.731   4.473   3.876
  976TIP3   OH2 2933   1.891   2.136   3.227
  976TIP3    H1 2934   1.915   2.229   3.235
  976TIP3    H2 2935   1.878   2.107   3.317
  977TIP3   OH2 2936   5.533   5.190   2.212
  977TIP3    H1 2937   5.589   5.134   2.265
  977TIP3    H2 2938   5.444   5.163   2.234
  978TIP3   OH2 2939   5.775   0.922   0.083
  978TIP3    H1 2940   5.805   0.877   0.161
  978TIP3    H2 2941   5.679   0.919   0.088
  979TIP3   OH2 2942   1.531   3.964   4.428
  979TIP3    H1 2943   1.570   4.005   4.351
  979TIP3    H2 2944   1.605   3.930   4.478
  980TIP3   OH2 2945   1.437   2.094   1.820
  980TIP3    H1 2946   1.357   2.115   1.868
  980TIP3    H2 2947   1.418   2.119   1.730
  981TIP3   OH2 2948   2.316   2.132   1.710
  981TIP3    H1 2949   2.271   2.193   1.652
  981TIP3    H2 2950   2.245   2.082   1.751
  982TIP3   OH2 2951   2.748   4.648   0.978
  982TIP3    H1 2952   2.686   4.720   0.962
  982TIP3    H2 2953   2.714   4.576   0.925
  983TIP3   OH2 2954   5.340   3.181   1.889
  983TIP3    H1 2955   5.275   3.111   1.886
  983TIP3    H2 2956   5.421   3.140   1.859
  984TIP3   OH2 2957   0.549   2.389   4.646
  984TIP3    H1 2958   0.460   2.381   4.681
  984TIP3    H2 2959   0.538   2.427   4.559
  985TIP3   OH2 2960   2.582   5.344   4.143
  985TIP3    H1 2961   2.621   5.260   4.120
  985TIP3    H2 2962   2.653   5.394   4.182
  986TIP3   OH2 2963   0.454   3.006   0.390
  986TIP3    H1 2964   0.469   3.094   0.424
  986TIP3    H2 2965   0.523   2.952   0.429
  987TIP3   OH2 2966   5.609   4.184   4.947
  987TIP3    H1 2967   5.567   4.129   4.881
  987TIP3    H2 2968   5.548   4.183   5.021
  988TIP3   OH2 2969   1.890   3.253   1.538
  988TIP3    H1 2970   1.957   3.239   1.472
  988TIP3    H2 2971   1.938   3.259   1.620
  989TIP3   OH2 2972   0.391   4.849   0.012
  989TIP3    H1 2973   0.480   4.875   0.037
  989TIP3    H2 2974   0.334   4.896   0.073
  990TIP3   OH2 2975   4.289   1.913   2.446
  990TIP3    H1 2976   4.255   1.950   2.527
  990TIP3    H2 2977   4.211   1.896   2.393
  991TIP3   OH2 2978   4.272   5.693   2.394
  991TIP3    H1 2979   4.280   5.789   2.391
  991TIP3    H2 2980   4.355   5.661   2.358
  992TIP3   OH2 2981   4.423   0.634   1.759
  992TIP3    H1 2982   4.396   0.578   1.833
  992TIP3    H2 2983   4.517   0.647   1.771
  993TIP3   OH2 2984   5.969   5.734   1.984
  993TIP3    H1 2985   5.890   5.688   2.012
  993TIP3    H2 2986   6.011   5.673   1.923
  994TIP3   OH2 2987   5.514   0.197   5.173
  994TIP3    H1 2988   5.584   0.260   5.192
  994TIP3    H2 2989   5.439   0.251   5.148
  995TIP3   OH2 2990   1.507   0.517   2.943
  995TIP3    H1 2991   1.472   0.433   2.913
  995TIP3    H2 2992   1.518   0.568   2.862
  996TIP3   OH2 2993   0.277   0.438   5.132
  996TIP3    H1 2994   0.216   0.407   5.200
  996TIP3    H2 2995   0.220   0.474   5.064
  997TIP3   OH2 2996   5.560   5.811   1.299
  997TIP3    H1 2997   5.628   5.870   1.267
  997TIP3    H2 2998   5.606   5.728   1.313
  998TIP3   OH2 2999   2.587   0.126   4.424
  998TIP3    H1 3000   2.584   0.195   4.490
  998TIP3    H2 3001   2.562   0.169   4.342
  999TIP3   OH2 3002   2.360   3.899   4.776
  999TIP3    H1 3003   2.358   3.879   4.683
  999TIP3    H2 3004   2.267   3.898   4.802
 1000TIP3   OH2 3005   4.805   1.315   3.766
 1000TIP3    H1 3006   4.788   1.242   3.706
 1000TIP3    H2 3007   4.727   1.319   3.821
 1001TIP3   OH2 3008   3.612   5.191   1.065
 1001TIP3    H1 3009   3.640   5.109   1.105
 1001TIP3    H2 3010   3.565   5.165   0.986
 1002TIP3   OH2 3011   3.981   5.396   4.044
 1002TIP3    H1 3012   3.968   5.337   4.118
 1002TIP3    H2 3013   3.964   5.343   3.967
 1003TIP3   OH2 3014   0.450   4.592   2.358
 1003TIP3    H1 3015   0.457   4.518   2.298
 1003TIP3    H2 3016   0.522   4.650   2.333
 1004TIP3   OH2 3017   3.273   0.038   1.929
 1004TIP3    H1 3018   3.263  -0.057   1.924
 1004TIP3    H2 3019   3.305   0.054   2.017
 1005TIP3   OH2 3020   2.721   4.541   1.999
 1005TIP3    H1 3021   2.817   4.537   2.001
 1005TIP3    H2 3022   2.696   4.564   2.088
 1006TIP3   OH2 3023   0.695   0.332   2.445
 1006TIP3    H1 3024   0.647   0.313   2.365
 1006TIP3    H2 3025   0.733   0.248   2.471
 1007TIP3   OH2 3026   2.743   2.754   2.650
 1007TIP3    H1 3027   2.659   2.767   2.694
 1007TIP3    H2 3028   2.722   2.756   2.557
 1008TIP3   OH2 3029   2.548   4.698   1.779
 1008TIP3    H1 3030   2.503   4.742   1.707
 1008TIP3    H2 3031   2.526   4.751   1.856
 1009TIP3   OH2 3032   1.738   1.042   3.150
 1009TIP3    H1 3033   1.820   1.009   3.188
 1009TIP3    H2 3034   1.756   1.047   3.056
 1010TIP3   OH2 3035   4.331   3.060   0.109
 1010TIP3    H1 3036   4.304   3.028   0.195
 1010TIP3    H2 3037   4.264   3.124   0.085
 1011TIP3   OH2 3038   0.021   3.061   2.357
 1011TIP3    H1 3039   0.097   3.095   2.308
 1011TIP3    H2 3040  -0.036   3.023   2.290
 1012TIP3   OH2 3041   0.475   5.998   3.683
 1012TIP3    H1 3042   0.568   6.019   3.674
 1012TIP3    H2 3043   0.455   6.019   3.775
 1013TIP3   OH2 3044   2.747   1.801   3.544
 1013TIP3    H1 3045   2.706   1.783   3.459
 1013TIP3    H2 3046   2.677   1.786   3.608
 1014TIP3   OH2 3047   3.730   2.988   3.900
 1014TIP3    H1 3048   3.680   2.943   3.831
 1014TIP3    H2 3049   3.758   3.070   3.859
 1015TIP3   OH2 3050   6.289   0.820   4.522
 1015TIP3    H1 3051   6.214   0.856   4.474
 1015TIP3    H2 3052   6.286   0.726   4.505
 1016TIP3   OH2 3053   1.878   3.153   3.652
 1016TIP3    H1 3054   1.927   3.156   3.570
 1016TIP3    H2 3055   1.906   3.231   3.700
 1017TIP3   OH2 3056   5.594   1.087   2.980
 1017TIP3    H1 3057   5.590   1.080   3.075
 1017TIP3    H2 3058   5.503   1.093   2.952
 1018TIP3   OH2 3059   4.189   5.708   3.258
 1018TIP3    H1 3060   4.231   5.768   3.320
 1018TIP3    H2 3061   4.104   5.689   3.297
 1019TIP3   OH2 3062   3.805   5.392   1.187
 1019TIP3    H1 3063   3.753   5.313   1.182
 1019TIP3    H2 3064   3.890   5.368   1.150
 1020TIP3   OH2 3065   1.844   4.601   3.619
 1020TIP3    H1 3066   1.805   4.652   3.689
 1020TIP3    H2 3067   1.936   4.589   3.645
 1021TIP3   OH2 3068   5.514   2.595   1.493
 1021TIP3    H1 3069   5.571   2.660   1.535
 1021TIP3    H2 3070   5.492   2.534   1.564
 1022TIP3   OH2 3071   5.690   4.126   4.131
 1022TIP3    H1 3072   5.738   4.094   4.207
 1022TIP3    H2 3073   5.687   4.051   4.071
 1023TIP3   OH2 3074   1.774   0.825   1.554
 1023TIP3    H1 3075   1.812   0.748   1.598
 1023TIP3    H2 3076   1.709   0.789   1.494
 1024TIP3   OH2 3077   3.289   2.845   5.108
 1024TIP3    H1 3078   3.236   2.847   5.028
 1024TIP3    H2 3079   3.354   2.776   5.092
 1025TIP3   OH2 3080   5.930   4.713   3.151
 1025TIP3    H1 3081   5.954   4.627   3.118
 1025TIP3    H2 3082   5.976   4.721   3.235
 1026TIP3   OH2 3083   1.588   0.243   0.876
 1026TIP3    H1 3084   1.662   0.202   0.830
 1026TIP3    H2 3085   1.629   0.299   0.941
 1027TIP3   OH2 3086   6.301   1.016   3.775
 1027TIP3    H1 3087   6.386   1.023   3.819
 1027TIP3    H2 3088   6.255   0.947   3.823
 1028TIP3   OH2 3089   1.743   2.956   4.103
 1028TIP3    H1 3090   1.716   2.865   4.089
 1028TIP3    H2 3091   1.774   2.986   4.018
 1029TIP3   OH2 3092   2.388   5.326   3.951
 1029TIP3    H1 3093   2.391   5.385   3.875
 1029TIP3    H2 3094   2.465   5.349   4.003
 1030TIP3   OH2 3095   3.452   0.947   4.657
 1030TIP3    H1 3096   3.426   0.867   4.611
 1030TIP3    H2 3097   3.426   0.932   4.748
 1031TIP3   OH2 3098   1.685   3.790   5.107
 1031TIP3    H1 3099   1.626   3.725   5.069
 1031TIP3    H2 3100   1.627   3.845   5.161
 1032TIP3   OH2 3101   6.191   3.014   5.140
 1032TIP3    H1 3102   6.281   3.045   5.141
 1032TIP3    H2 3103   6.138   3.093   5.146
 1033TIP3   OH2 3104   1.064   1.786   4.252
 1033TIP3    H1 3105   1.016   1.850   4.306
 1033TIP3    H2 3106   1.140   1.834   4.220
 1034TIP3   OH2 3107   3.035   1.086   3.964
 1034TIP3    H1 3108   2.982   1.046   3.897
 1034TIP3    H2 3109   3.091   1.015   3.997
 1035TIP3   OH2 3110   2.585   4.539   0.527
 1035TIP3    H1 3111   2.581   4.629   0.558
 1035TIP3    H2 3112   2.498   4.503   0.545
 1036TIP3   OH2 3113   1.322   5.801   2.266
 1036TIP3    H1 3114   1.416   5.816   2.277
 1036TIP3    H2 3115   1.312   5.706   2.274
 1037TIP3   OH2 3116   3.029   0.670   3.891
 1037TIP3    H1 3117   3.027   0.765   3.901
 1037TIP3    H2 3118   2.939   0.646   3.870
 1038TIP3   OH2 3119   0.461   5.096   1.825
 1038TIP3    H1 3120   0.533   5.035   1.838
 1038TIP3    H2 3121   0.419   5.067   1.744
 1039TIP3   OH2 3122   5.780   4.843   0.086
 1039TIP3    H1 3123   5.811   4.799   0.007
 1039TIP3    H2 3124   5.843   4.819   0.154
 1040TIP3   OH2 3125   5.590   0.247   1.802
 1040TIP3    H1 3126   5.501   0.267   1.832
 1040TIP3    H2 3127   5.584   0.250   1.707
 1041TIP3   OH2 3128   5.951   5.583   4.713
 1041TIP3    H1 3129   6.045   5.585   4.733
 1041TIP3    H2 3130   5.946   5.606   4.620
 1042TIP3   OH2 3131   5.076   2.709   2.145
 1042TIP3    H1 3132   4.981   2.713   2.135
 1042TIP3    H2 3133   5.100   2.621   2.116
 1043TIP3   OH2 3134   0.775   4.318   2.039
 1043TIP3    H1 3135   0.851   4.281   1.994
 1043TIP3    H2 3136   0.701   4.265   2.010
 1044TIP3   OH2 3137   6.018   5.765   3.276
 1044TIP3    H1 3138   6.098   5.712   3.270
 1044TIP3    H2 3139   5.993   5.760   3.368
 1045TIP3   OH2 3140   1.386   3.581   0.590
 1045TIP3    H1 3141   1.340   3.606   0.670
 1045TIP3    H2 3142   1.461   3.529   0.620
 1046TIP3   OH2 3143   4.930   3.688   3.164
 1046TIP3    H1 3144   5.013   3.733   3.181
 1046TIP3    H2 3145   4.867   3.759   3.155
 1047TIP3   OH2 3146   3.093   5.767   3.373
 1047TIP3    H1 3147   3.104   5.800   3.463
 1047TIP3    H2 3148   2.999   5.768   3.359
 1048TIP3   OH2 3149   0.868   0.229   2.765
 1048TIP3    H1 3150   0.924   0.292   2.811
 1048TIP3    H2 3151   0.870   0.151   2.820
 1049TIP3   OH2 3152   1.789   0.001   3.663
 1049TIP3    H1 3153   1.875   0.039   3.645
 1049TIP3    H2 3154   1.730   0.044   3.602
 1050TIP3   OH2 3155   0.103   3.690   1.856
 1050TIP3    H1 3156   0.097   3.629   1.782
 1050TIP3    H2 3157   0.105   3.776   1.815
 1051TIP3   OH2 3158   4.389   1.449   2.841
 1051TIP3    H1 3159   4.349   1.491   2.764
 1051TIP3    H2 3160   4.366   1.356   2.832
 1052TIP3   OH2 3161   0.633   2.420   1.997
 1052TIP3    H1 3162   0.543   2.402   1.968
 1052TIP3    H2 3163   0.623   2.466   2.080
 1053TIP3   OH2 3164   4.414   3.642   4.317
 1053TIP3    H1 3165   4.365   3.705   4.265
 1053TIP3    H2 3166   4.393   3.664   4.408
 1054TIP3   OH2 3167   2.412   1.228   3.791
 1054TIP3    H1 3168   2.361   1.253   3.714
 1054TIP3    H2 3169   2.429   1.135   3.779
 1055TIP3   OH2 3170   5.993   2.180   0.817
 1055TIP3    H1 3171   6.042   2.115   0.767
 1055TIP3    H2 3172   6.046   2.196   0.895
 1056TIP3   OH2 3173   0.897   0.147   2.263
 1056TIP3    H1 3174   0.926   0.200   2.189
 1056TIP3    H2 3175   0.963   0.162   2.331
 1057TIP3   OH2 3176   3.955   5.255   4.275
 1057TIP3    H1 3177   3.938   5.306   4.354
 1057TIP3    H2 3178   3.876   5.203   4.262
 1058TIP3   OH2 3179   2.409   5.299   1.564
 1058TIP3    H1 3180   2.387   5.217   1.610
 1058TIP3    H2 3181   2.384   5.283   1.473
 1059TIP3   OH2 3182   4.157   2.570   2.877
 1059TIP3    H1 3183   4.218   2.615   2.818
 1059TIP3    H2 3184   4.125   2.496   2.826
 1060TIP3   OH2 3185   6.029   2.516   1.256
 1060TIP3    H1 3186   5.941   2.477   1.260
 1060TIP3    H2 3187   6.086   2.449   1.292
 1061TIP3   OH2 3188   3.006   0.212   0.064
 1061TIP3    H1 3189   2.998   0.227   0.158
 1061TIP3    H2 3190   3.081   0.153   0.055
 1062TIP3   OH2 3191   3.461   1.305   0.766
 1062TIP3    H1 3192   3.556   1.315   0.777
 1062TIP3    H2 3193   3.424   1.384   0.803
 1063TIP3   OH2 3194   4.953   3.579   1.926
 1063TIP3    H1 3195   4.873   3.545   1.966
 1063TIP3    H2 3196   4.923   3.627   1.849
 1064TIP3   OH2 3197   3.880   0.516   4.099
 1064TIP3    H1 3198   3.973   0.534   4.092
 1064TIP3    H2 3199   3.869   0.481   4.187
 1065TIP3   OH2 3200   1.900   3.964   1.168
 1065TIP3    H1 3201   1.857   4.009   1.095
 1065TIP3    H2 3202   1.992   3.991   1.162
 1066TIP3   OH2 3203   3.967   2.062   4.372
 1066TIP3    H1 3204   3.897   2.110   4.329
 1066TIP3    H2 3205   4.046   2.113   4.354
 1067TIP3   OH2 3206   2.710   4.733   1.446
 1067TIP3    H1 3207   2.685   4.811   1.495
 1067TIP3    H2 3208   2.805   4.741   1.435
 1068TIP3   OH2 3209   5.517   5.588   0.441
 1068TIP3    H1 3210   5.537   5.538   0.521
 1068TIP3    H2 3211   5.460   5.658   0.471
 1069TIP3   OH2 3212   3.266   4.681   4.120
 1069TIP3    H1 3213   3.232   4.592   4.125
 1069TIP3    H2 3214   3.288   4.704   4.210
 1070TIP3   OH2 3215   4.161   2.671   4.344
 1070TIP3    H1 3216   4.159   2.701   4.435
 1070TIP3    H2 3217   4.070   2.654   4.322
 1071TIP3   OH2 3218   0.891   4.765   3.222
 1071TIP3    H1 3219   0.979   4.743   3.190
 1071TIP3    H2 3220   0.853   4.820   3.154
 1072TIP3   OH2 3221   5.920   0.951   1.490
 1072TIP3    H1 3222   5.876   0.937   1.406
 1072TIP3    H2 3223   5.987   0.882   1.494
 1073TIP3   OH2 3224   1.351   0.354   2.664
 1073TIP3    H1 3225   1.315   0.336   2.577
 1073TIP3    H2 3226   1.412   0.426   2.651
 1074TIP3   OH2 3227   1.028   5.538   4.313
 1074TIP3    H1 3228   1.025   5.480   4.237
 1074TIP3    H2 3229   1.122   5.547   4.332
 1075TIP3   OH2 3230   4.612   3.026   0.548
 1075TIP3    H1 3231   4.520   3.051   0.555
 1075TIP3    H2 3232   4.644   3.029   0.638
 1076TIP3   OH2 3233   4.316   5.113   3.412
 1076TIP3    H1 3234   4.379   5.154   3.354
 1076TIP3    H2 3235   4.364   5.097   3.493
 1077TIP3   OH2 3236   4.530   0.538   0.709
 1077TIP3    H1 3237   4.625   0.531   0.699
 1077TIP3    H2 3238   4.500   0.447   0.719
 1078TIP3   OH2 3239   1.381   4.779   4.265
 1078TIP3    H1 3240   1.458   4.740   4.306
 1078TIP3    H2 3241   1.416   4.836   4.197
 1079TIP3   OH2 3242   4.529   4.187   1.802
 1079TIP3    H1 3243   4.612   4.198   1.756
 1079TIP3    H2 3244   4.462   4.208   1.737
 1080TIP3   OH2 3245   0.278   1.908   0.820
 1080TIP3    H1 3246   0.243   1.878   0.736
 1080TIP3    H2 3247   0.367   1.939   0.799
 1081TIP3   OH2 3248   5.116   3.206   3.168
 1081TIP3    H1 3249   5.089   3.125   3.211
 1081TIP3    H2 3250   5.055   3.272   3.202
 1082TIP3   OH2 3251   5.064   1.964   1.846
 1082TIP3    H1 3252   5.133   1.916   1.892
 1082TIP3    H2 3253   5.104   1.989   1.763
 1083TIP3   OH2 3254   2.337   5.673   4.746
 1083TIP3    H1 3255   2.345   5.594   4.694
 1083TIP3    H2 3256   2.272   5.652   4.813
 1084TIP3   OH2 3257   4.978   1.929   4.237
 1084TIP3    H1 3258   4.883   1.927   4.228
 1084TIP3    H2 3259   5.000   2.022   4.244
 1085TIP3   OH2 3260   3.715   3.987   3.023
 1085TIP3    H1 3261   3.647   3.944   3.074
 1085TIP3    H2 3262   3.691   3.971   2.932
 1086TIP3   OH2 3263   2.643   4.139   2.125
 1086TIP3    H1 3264   2.582   4.190   2.179
 1086TIP3    H2 3265   2.608   4.050   2.126
 1087TIP3   OH2 3266   1.437   2.926   3.758
 1087TIP3    H1 3267   1.508   2.974   3.714
 1087TIP3    H2 3268   1.429   2.845   3.707
 1088TIP3   OH2 3269   5.844   5.968   1.316
 1088TIP3    H1 3270   5.839   6.062   1.333
 1088TIP3    H2 3271   5.928   5.942   1.353
 1089TIP3   OH2 3272   3.738   0.568   1.542
 1089TIP3    H1 3273   3.705   0.650   1.507
 1089TIP3    H2 3274   3.665   0.531   1.592
 1090TIP3   OH2 3275   2.990   5.503   0.233
 1090TIP3    H1 3276   2.903   5.480   0.266
 1090TIP3    H2 3277   3.028   5.419   0.208
 1091TIP3   OH2 3278   0.539   1.669   1.703
 1091TIP3    H1 3279   0.529   1.617   1.624
 1091TIP3    H2 3280   0.553   1.758   1.672
 1092TIP3   OH2 3281   0.361   2.336   4.112
 1092TIP3    H1 3282   0.272   2.354   4.082
 1092TIP3    H2 3283   0.406   2.420   4.104
 1093TIP3   OH2 3284   3.712   1.300   4.480
 1093TIP3    H1 3285   3.799   1.340   4.478
 1093TIP3    H2 3286   3.729   1.206   4.471
 1094TIP3   OH2 3287   2.511   0.543   3.460
 1094TIP3    H1 3288   2.502   0.501   3.374
 1094TIP3    H2 3289   2.490   0.474   3.523
 1095TIP3   OH2 3290   0.807   4.525   3.524
 1095TIP3    H1 3291   0.800   4.531   3.428
 1095TIP3    H2 3292   0.718   4.543   3.555
 1096TIP3   OH2 3293   4.646   1.603   3.845
 1096TIP3    H1 3294   4.738   1.579   3.830
 1096TIP3    H2 3295   4.615   1.539   3.909
 1097TIP3   OH2 3296   1.390   5.196   3.960
 1097TIP3    H1 3297   1.341   5.185   3.879
 1097TIP3    H2 3298   1.425   5.285   3.956
 1098TIP3   OH2 3299   6.278   4.380   4.156
 1098TIP3    H1 3300   6.373   4.370   4.161
 1098TIP3    H2 3301   6.259   4.393   4.063
 1099TIP3   OH2 3302   4.674   4.110   3.393
 1099TIP3    H1 3303   4.704   4.079   3.479
 1099TIP3    H2 3304   4.713   4.198   3.385
 1100TIP3   OH2 3305   1.371   3.357   0.283
 1100TIP3    H1 3306   1.312   3.425   0.250
 1100TIP3    H2 3307   1.425   3.333   0.208
 1101TIP3   OH2 3308   2.957   4.866   2.603
 1101TIP3    H1 3309   3.052   4.869   2.588
 1101TIP3    H2 3310   2.947   4.880   2.697
 1102TIP3   OH2 3311   2.981   5.396   2.151
 1102TIP3    H1 3312   3.061   5.348   2.175
 1102TIP3    H2 3313   2.910   5.335   2.173
 1103TIP3   OH2 3314   0.226   4.228   3.101
 1103TIP3    H1 3315   0.233   4.193   3.012
 1103TIP3    H2 3316   0.253   4.156   3.157
 1104TIP3   OH2 3317   0.139   1.249   3.331
 1104TIP3    H1 3318   0.066   1.220   3.385
 1104TIP3    H2 3319   0.213   1.195   3.360
 1105TIP3   OH2 3320   0.130   2.124   4.046
 1105TIP3    H1 3321   0.090   2.153   3.964
 1105TIP3    H2 3322   0.057   2.118   4.108
 1106TIP3   OH2 3323   2.810   3.639   3.618
 1106TIP3    H1 3324   2.794   3.552   3.653
 1106TIP3    H2 3325   2.759   3.642   3.537
 1107TIP3   OH2 3326   6.010   1.500   4.794
 1107TIP3    H1 3327   6.051   1.431   4.845
 1107TIP3    H2 3328   6.028   1.476   4.703
 1108TIP3   OH2 3329   1.045   2.219   1.257
 1108TIP3    H1 3330   1.128   2.259   1.231
 1108TIP3    H2 3331   1.015   2.271   1.331
 1109TIP3   OH2 3332   2.354   2.440   4.178
 1109TIP3    H1 3333   2.446   2.411   4.172
 1109TIP3    H2 3334   2.353   2.503   4.250
 1110TIP3   OH2 3335   3.091   1.772   2.629
 1110TIP3    H1 3336   3.182   1.793   2.648
 1110TIP3    H2 3337   3.046   1.856   2.627
 1111TIP3   OH2 3338   3.328   5.334   0.626
 1111TIP3    H1 3339   3.396   5.402   0.629
 1111TIP3    H2 3340   3.323   5.301   0.716
 1112TIP3   OH2 3341   3.617   2.691   3.409
 1112TIP3    H1 3342   3.660   2.651   3.333
 1112TIP3    H2 3343   3.683   2.750   3.446
 1113TIP3   OH2 3344   5.355   3.188   4.652
 1113TIP3    H1 3345   5.423   3.172   4.718
 1113TIP3    H2 3346   5.338   3.102   4.613
 1114TIP3   OH2 3347   2.108   3.213   1.691
 1114TIP3    H1 3348   2.077   3.237   1.778
 1114TIP3    H2 3349   2.114   3.118   1.692
 1115TIP3   OH2 3350   5.216   5.176   0.986
 1115TIP3    H1 3351   5.200   5.083   0.972
 1115TIP3    H2 3352   5.161   5.220   0.921
 1116TIP3   OH2 3353   0.160   1.817   1.249
 1116TIP3    H1 3354   0.202   1.787   1.169
 1116TIP3    H2 3355   0.070   1.783   1.243
 1117TIP3   OH2 3356   5.069   0.344   4.204
 1117TIP3    H1 3357   5.061   0.293   4.285
 1117TIP3    H2 3358   5.161   0.337   4.180
 1118TIP3   OH2 3359   3.029   5.966   1.626
 1118TIP3    H1 3360   3.035   5.945   1.533
 1118TIP3    H2 3361   2.995   5.886   1.666
 1119TIP3   OH2 3362   4.060   1.580   2.492
 1119TIP3    H1 3363   4.029   1.650   2.550
 1119TIP3    H2 3364   3.990   1.572   2.426
 1120TIP3   OH2 3365   2.388   2.336   5.175
 1120TIP3    H1 3366   2.422   2.320   5.087
 1120TIP3    H2 3367   2.351   2.425   5.170
 1121TIP3   OH2 3368   1.343   1.658   0.627
 1121TIP3    H1 3369   1.299   1.641   0.543
 1121TIP3    H2 3370   1.279   1.634   0.693
 1122TIP3   OH2 3371   2.999   1.874   2.325
 1122TIP3    H1 3372   2.957   1.796   2.361
 1122TIP3    H2 3373   2.939   1.905   2.257
 1123TIP3   OH2 3374   5.283   5.281   4.218
 1123TIP3    H1 3375   5.214   5.346   4.234
 1123TIP3    H2 3376   5.236   5.198   4.211
 1124TIP3   OH2 3377   5.421   4.336   0.907
 1124TIP3    H1 3378   5.328   4.344   0.889
 1124TIP3    H2 3379   5.457   4.290   0.831
 1125TIP3   OH2 3380   4.320   1.449   2.553
 1125TIP3    H1 3381   4.336   1.355   2.555
 1125TIP3    H2 3382   4.226   1.457   2.540
 1126TIP3   OH2 3383   5.282   3.195   2.438
 1126TIP3    H1 3384   5.301   3.278   2.395
 1126TIP3    H2 3385   5.222   3.218   2.509
 1127TIP3   OH2 3386   2.333   3.106   2.433
 1127TIP3    H1 3387   2.286   3.084   2.514
 1127TIP3    H2 3388   2.356   3.198   2.443
 1128TIP3   OH2 3389   1.128   0.381   4.977
 1128TIP3    H1 3390   1.206   0.423   5.013
 1128TIP3    H2 3391   1.084   0.451   4.929
 1129TIP3   OH2 3392   4.700   1.500   0.826
 1129TIP3    H1 3393   4.679   1.422   0.878
 1129TIP3    H2 3394   4.674   1.477   0.737
 1130TIP3   OH2 3395   6.047   5.773   3.817
 1130TIP3    H1 3396   6.011   5.695   3.774
 1130TIP3    H2 3397   6.032   5.844   3.754
 1131TIP3   OH2 3398   1.160   2.806   2.007
 1131TIP3    H1 3399   1.111   2.866   2.064
 1131TIP3    H2 3400   1.161   2.850   1.922
 1132TIP3   OH2 3401   5.897   2.069   3.859
 1132TIP3    H1 3402   5.868   2.140   3.801
 1132TIP3    H2 3403   5.840   2.077   3.936
 1133TIP3   OH2 3404   6.178   5.085   2.780
 1133TIP3    H1 3405   6.239   5.073   2.707
 1133TIP3    H2 3406   6.230   5.067   2.858
 1134TIP3   OH2 3407   2.218   0.568   3.616
 1134TIP3    H1 3408   2.259   0.521   3.689
 1134TIP3    H2 3409   2.206   0.502   3.549
 1135TIP3   OH2 3410   6.299   0.573   0.567
 1135TIP3    H1 3411   6.230   0.624   0.526
 1135TIP3    H2 3412   6.341   0.633   0.628
 1136TIP3   OH2 3413   5.403   0.756   2.399
 1136TIP3    H1 3414   5.316   0.772   2.362
 1136TIP3    H2 3415   5.404   0.804   2.481
 1137TIP3   OH2 3416   2.947   0.189   4.932
 1137TIP3    H1 3417   2.931   0.222   5.021
 1137TIP3    H2 3418   2.869   0.215   4.883
 1138TIP3   OH2 3419   4.098   0.652   2.786
 1138TIP3    H1 3420   4.043   0.676   2.860
 1138TIP3    H2 3421   4.094   0.556   2.783
 1139TIP3   OH2 3422   5.229   0.128   2.477
 1139TIP3    H1 3423   5.171   0.072   2.427
 1139TIP3    H2 3424   5.220   0.214   2.437
 1140TIP3   OH2 3425   4.081   0.076   4.216
 1140TIP3    H1 3426   4.173   0.088   4.240
 1140TIP3    H2 3427   4.084   0.011   4.145
 1141TIP3   OH2 3428   1.404   3.991   0.413
 1141TIP3    H1 3429   1.430   4.070   0.366
 1141TIP3    H2 3430   1.430   4.007   0.504
 1142TIP3   OH2 3431   2.022   5.679   0.558
 1142TIP3    H1 3432   2.056   5.617   0.494
 1142TIP3    H2 3433   2.082   5.671   0.633
 1143TIP3   OH2 3434   0.262   4.575   0.853
 1143TIP3    H1 3435   0.170   4.551   0.841
 1143TIP3    H2 3436   0.270   4.589   0.948
 1144TIP3   OH2 3437   1.305   3.315   4.462
 1144TIP3    H1 3438   1.366   3.328   4.535
 1144TIP3    H2 3439   1.316   3.392   4.407
 1145TIP3   OH2 3440   2.841   4.985   3.411
 1145TIP3    H1 3441   2.798   4.933   3.343
 1145TIP3    H2 3442   2.856   4.924   3.483
 1146TIP3   OH2 3443   5.288   0.997   4.481
 1146TIP3    H1 3444   5.229   0.971   4.410
 1146TIP3    H2 3445   5.370   1.020   4.436
 1147TIP3   OH2 3446   5.774   0.894   4.535
 1147TIP3    H1 3447   5.774   0.965   4.600
 1147TIP3    H2 3448   5.768   0.814   4.588
 1148TIP3   OH2 3449   0.407   2.196   2.184
 1148TIP3    H1 3450   0.370   2.191   2.272
 1148TIP3    H2 3451   0.490   2.149   2.190
 1149TIP3   OH2 3452   2.666   2.392   4.683
 1149TIP3    H1 3453   2.634   2.346   4.605
 1149TIP3    H2 3454   2.655   2.484   4.662
 1150TIP3   OH2 3455   0.707   3.210   5.064
 1150TIP3    H1 3456   0.711   3.276   4.995
 1150TIP3    H2 3457   0.633   3.154   5.039
 1151TIP3   OH2 3458   2.809   2.567   3.933
 1151TIP3    H1 3459   2.727   2.602   3.898
 1151TIP3    H2 3460   2.876   2.627   3.903
 1152TIP3   OH2 3461   5.194   2.486   0.674
 1152TIP3    H1 3462   5.262   2.421   0.689
 1152TIP3    H2 3463   5.142   2.486   0.755
 1153TIP3   OH2 3464   5.803   5.870   3.066
 1153TIP3    H1 3465   5.794   5.785   3.023
 1153TIP3    H2 3466   5.889   5.867   3.108
 1154TIP3   OH2 3467   3.733   2.567   1.574
 1154TIP3    H1 3468   3.660   2.564   1.512
 1154TIP3    H2 3469   3.788   2.638   1.543
 1155TIP3   OH2 3470   4.316   3.536   4.868
 1155TIP3    H1 3471   4.344   3.608   4.925
 1155TIP3    H2 3472   4.395   3.508   4.822
 1156TIP3   OH2 3473   0.829   3.282   4.031
 1156TIP3    H1 3474   0.871   3.279   3.945
 1156TIP3    H2 3475   0.832   3.375   4.056
 1157TIP3   OH2 3476   5.797   3.431   5.194
 1157TIP3    H1 3477   5.751   3.347   5.198
 1157TIP3    H2 3478   5.739   3.488   5.144
 1158TIP3   OH2 3479   3.237   1.870   0.392
 1158TIP3    H1 3480   3.178   1.796   0.410
 1158TIP3    H2 3481   3.299   1.869   0.464
 1159TIP3   OH2 3482   1.897   4.610   1.552
 1159TIP3    H1 3483   1.816   4.654   1.579
 1159TIP3    H2 3484   1.873   4.563   1.472
 1160TIP3   OH2 3485   6.020   2.436   2.220
 1160TIP3    H1 3486   6.038   2.447   2.314
 1160TIP3    H2 3487   6.105   2.446   2.178
 1161TIP3   OH2 3488   5.515   3.526   4.496
 1161TIP3    H1 3489   5.486   3.596   4.437
 1161TIP3    H2 3490   5.441   3.512   4.555
 1162TIP3   OH2 3491   1.551   3.875   1.480
 1162TIP3    H1 3492   1.644   3.894   1.472
 1162TIP3    H2 3493   1.531   3.891   1.573
 1163TIP3   OH2 3494   3.098   0.423   3.383
 1163TIP3    H1 3495   3.075   0.348   3.328
 1163TIP3    H2 3496   3.138   0.485   3.322
 1164TIP3   OH2 3497   1.702   1.920   2.651
 1164TIP3    H1 3498   1.783   1.923   2.702
 1164TIP3    H2 3499   1.714   1.846   2.591
 1165TIP3   OH2 3500   1.717   1.941   1.907
 1165TIP3    H1 3501   1.766   1.859   1.909
 1165TIP3    H2 3502   1.771   2.003   1.956
 1166TIP3   OH2 3503   1.105   2.005   2.537
 1166TIP3    H1 3504   1.069   2.092   2.558
 1166TIP3    H2 3505   1.182   1.998   2.592
 1167TIP3   OH2 3506   4.150   0.564   4.131
 1167TIP3    H1 3507   4.229   0.582   4.081
 1167TIP3    H2 3508   4.182   0.534   4.216
 1168TIP3   OH2 3509   1.076   1.649   1.149
 1168TIP3    H1 3510   1.062   1.742   1.135
 1168TIP3    H2 3511   1.010   1.606   1.093
 1169TIP3   OH2 3512   2.321   0.349   2.395
 1169TIP3    H1 3513   2.241   0.399   2.379
 1169TIP3    H2 3514   2.390   0.402   2.355
 1170TIP3   OH2 3515   4.764   1.107   2.207
 1170TIP3    H1 3516   4.810   1.151   2.278
 1170TIP3    H2 3517   4.739   1.178   2.147
 1171TIP3   OH2 3518   4.142   5.547   1.323
 1171TIP3    H1 3519   4.079   5.511   1.385
 1171TIP3    H2 3520   4.180   5.470   1.280
 1172TIP3   OH2 3521   5.751   0.169   0.420
 1172TIP3    H1 3522   5.692   0.095   0.427
 1172TIP3    H2 3523   5.712   0.236   0.477
 1173TIP3   OH2 3524   4.128   4.163   4.571
 1173TIP3    H1 3525   4.171   4.229   4.516
 1173TIP3    H2 3526   4.196   4.097   4.586
 1174TIP3   OH2 3527   0.556   4.212   1.898
 1174TIP3    H1 3528   0.556   4.133   1.844
 1174TIP3    H2 3529   0.465   4.222   1.925
 1175TIP3   OH2 3530   4.987   2.400   2.561
 1175TIP3    H1 3531   5.014   2.371   2.649
 1175TIP3    H2 3532   5.046   2.353   2.502
 1176TIP3   OH2 3533   0.643   0.674   3.989
 1176TIP3    H1 3534   0.714   0.684   3.925
 1176TIP3    H2 3535   0.594   0.756   3.984
 1177TIP3   OH2 3536   6.288   4.537   2.187
 1177TIP3    H1 3537   6.364   4.577   2.227
 1177TIP3    H2 3538   6.321   4.498   2.106
 1178TIP3   OH2 3539   2.026   3.391   3.002
 1178TIP3    H1 3540   1.934   3.395   3.028
 1178TIP3    H2 3541   2.075   3.399   3.084
 1179TIP3   OH2 3542   0.754   4.189   4.063
 1179TIP3    H1 3543   0.811   4.149   3.998
 1179TIP3    H2 3544   0.777   4.146   4.145
 1180TIP3   OH2 3545   5.761   3.890   3.290
 1180TIP3    H1 3546   5.699   3.893   3.217
 1180TIP3    H2 3547   5.797   3.978   3.294
 1181TIP3   OH2 3548   6.324   4.190   0.428
 1181TIP3    H1 3549   6.291   4.175   0.516
 1181TIP3    H2 3550   6.416   4.166   0.432
 1182TIP3   OH2 3551   4.196   1.161   4.303
 1182TIP3    H1 3552   4.112   1.192   4.269
 1182TIP3    H2 3553   4.173   1.120   4.387
 1183TIP3   OH2 3554   3.464   0.478   3.261
 1183TIP3    H1 3555   3.529   0.493   3.192
 1183TIP3    H2 3556   3.418   0.562   3.269
 1184TIP3   OH2 3557   0.230   2.855   3.364
 1184TIP3    H1 3558   0.324   2.860   3.382
 1184TIP3    H2 3559   0.198   2.787   3.422
 1185TIP3   OH2 3560   0.345   3.854   0.625
 1185TIP3    H1 3561   0.438   3.846   0.647
 1185TIP3    H2 3562   0.325   3.947   0.638
 1186TIP3   OH2 3563   1.645   4.923   3.037
 1186TIP3    H1 3564   1.729   4.966   3.022
 1186TIP3    H2 3565   1.640   4.910   3.131
 1187TIP3   OH2 3566   3.000   4.530   1.314
 1187TIP3    H1 3567   3.019   4.509   1.223
 1187TIP3    H2 3568   3.067   4.484   1.364
 1188TIP3   OH2 3569   4.776   2.264   3.495
 1188TIP3    H1 3570   4.702   2.312   3.456
 1188TIP3    H2 3571   4.768   2.280   3.589
 1189TIP3   OH2 3572   2.433   1.015   0.718
 1189TIP3    H1 3573   2.341   0.991   0.725
 1189TIP3    H2 3574   2.437   1.077   0.645
 1190TIP3   OH2 3575   1.403   1.204   0.548
 1190TIP3    H1 3576   1.466   1.158   0.603
 1190TIP3    H2 3577   1.337   1.138   0.526
 1191TIP3   OH2 3578   4.736   3.682   3.732
 1191TIP3    H1 3579   4.727   3.596   3.774
 1191TIP3    H2 3580   4.830   3.699   3.733
 1192TIP3   OH2 3581   5.151   1.532   0.674
 1192TIP3    H1 3582   5.088   1.549   0.744
 1192TIP3    H2 3583   5.105   1.472   0.615
 1193TIP3   OH2 3584   2.626   3.858   1.708
 1193TIP3    H1 3585   2.665   3.895   1.628
 1193TIP3    H2 3586   2.677   3.897   1.779
 1194TIP3   OH2 3587   3.529   1.292   0.342
 1194TIP3    H1 3588   3.561   1.284   0.252
 1194TIP3    H2 3589   3.604   1.268   0.396
 1195TIP3   OH2 3590   4.282   4.526   2.189
 1195TIP3    H1 3591   4.369   4.550   2.221
 1195TIP3    H2 3592   4.297   4.501   2.097
 1196TIP3   OH2 3593   5.372   4.892   3.772
 1196TIP3    H1 3594   5.302   4.839   3.735
 1196TIP3    H2 3595   5.452   4.849   3.744
 1197TIP3   OH2 3596   0.595   4.937   1.388
 1197TIP3    H1 3597   0.552   4.888   1.318
 1197TIP3    H2 3598   0.689   4.925   1.373
 1198TIP3   OH2 3599   5.155   5.246   5.084
 1198TIP3    H1 3600   5.119   5.265   5.171
 1198TIP3    H2 3601   5.245   5.278   5.087
 1199TIP3   OH2 3602   6.192   0.388   2.522
 1199TIP3    H1 3603   6.184   0.436   2.440
 1199TIP3    H2 3604   6.164   0.450   2.589
 1200TIP3   OH2 3605   3.000   3.799   1.377
 1200TIP3    H1 3606   3.011   3.819   1.470
 1200TIP3    H2 3607   2.935   3.729   1.374
 1201TIP3   OH2 3608   3.484   3.346   0.343
 1201TIP3    H1 3609   3.433   3.423   0.368
 1201TIP3    H2 3610   3.445   3.316   0.262
 1202TIP3   OH2 3611   4.811   0.671   2.089
 1202TIP3    H1 3612   4.827   0.733   2.160
 1202TIP3    H2 3613   4.790   0.589   2.133
 1203TIP3   OH2 3614   5.781   0.730   3.470
 1203TIP3    H1 3615   5.737   0.672   3.533
 1203TIP3    H2 3616   5.751   0.818   3.493
 1204TIP3   OH2 3617   5.693   4.783   1.564
 1204TIP3    H1 3618   5.629   4.827   1.507
 1204TIP3    H2 3619   5.777   4.820   1.539
 1205TIP3   OH2 3620   5.368   3.135   5.141
 1205TIP3    H1 3621   5.327   3.141   5.055
 1205TIP3    H2 3622   5.378   3.041   5.156
 1206TIP3   OH2 3623   4.093   0.840   1.688
 1206TIP3    H1 3624   4.187   0.842   1.670
 1206TIP3    H2 3625   4.064   0.755   1.654
 1207TIP3   OH2 3626   3.542   5.608   3.364
 1207TIP3    H1 3627   3.450   5.585   3.368
 1207TIP3    H2 3628   3.567   5.592   3.273
 1208TIP3   OH2 3629   4.702   2.268   4.236
 1208TIP3    H1 3630   4.719   2.321   4.158
 1208TIP3    H2 3631   4.775   2.287   4.294
 1209TIP3   OH2 3632   2.414   0.801   0.458
 1209TIP3    H1 3633   2.378   0.782   0.545
 1209TIP3    H2 3634   2.339   0.793   0.399
 1210TIP3   OH2 3635   5.315   5.337   3.565
 1210TIP3    H1 3636   5.325   5.270   3.633
 1210TIP3    H2 3637   5.221   5.356   3.563
 1211TIP3   OH2 3638   3.944   5.258   2.979
 1211TIP3    H1 3639   3.952   5.340   2.931
 1211TIP3    H2 3640   3.872   5.273   3.041
 1212TIP3   OH2 3641   2.881   2.973   4.713
 1212TIP3    H1 3642   2.869   3.017   4.629
 1212TIP3    H2 3643   2.804   2.917   4.722
 1213TIP3   OH2 3644   5.741   3.202   4.741
 1213TIP3    H1 3645   5.722   3.110   4.726
 1213TIP3    H2 3646   5.716   3.217   4.832
 1214TIP3   OH2 3647   4.376   5.239   4.130
 1214TIP3    H1 3648   4.456   5.190   4.107
 1214TIP3    H2 3649   4.345   5.274   4.046
 1215TIP3   OH2 3650   2.129   2.332   1.634
 1215TIP3    H1 3651   2.091   2.255   1.675
 1215TIP3    H2 3652   2.067   2.357   1.566
 1216TIP3   OH2 3653   4.641   1.448   1.156
 1216TIP3    H1 3654   4.613   1.525   1.206
 1216TIP3    H2 3655   4.704   1.404   1.213
 1217TIP3   OH2 3656   0.008   4.062   3.641
 1217TIP3    H1 3657  -0.018   3.987   3.588
 1217TIP3    H2 3658   0.102   4.071   3.626
 1218TIP3   OH2 3659   5.503   1.284   2.203
 1218TIP3    H1 3660   5.591   1.309   2.233
 1218TIP3    H2 3661   5.460   1.368   2.187
 1219TIP3   OH2 3662   2.123   3.032   0.395
 1219TIP3    H1 3663   2.045   3.044   0.340
 1219TIP3    H2 3664   2.168   2.957   0.358
 1220TIP3   OH2 3665   0.244   2.203   4.438
 1220TIP3    H1 3666   0.164   2.175   4.392
 1220TIP3    H2 3667   0.220   2.202   4.530
 1221TIP3   OH2 3668   4.234   0.627   3.135
 1221TIP3    H1 3669   4.160   0.636   3.076
 1221TIP3    H2 3670   4.262   0.717   3.152
 1222TIP3   OH2 3671   2.976   2.854   1.949
 1222TIP3    H1 3672   3.059   2.856   1.996
 1222TIP3    H2 3673   2.998   2.818   1.863
 1223TIP3   OH2 3674   2.658   1.542   4.467
 1223TIP3    H1 3675   2.673   1.612   4.531
 1223TIP3    H2 3676   2.603   1.479   4.513
 1224TIP3   OH2 3677   2.286   4.407   1.723
 1224TIP3    H1 3678   2.351   4.413   1.793
 1224TIP3    H2 3679   2.270   4.313   1.714
 1225TIP3   OH2 3680   6.351   0.158   2.486
 1225TIP3    H1 3681   6.282   0.223   2.501
 1225TIP3    H2 3682   6.432   0.204   2.509
 1226TIP3   OH2 3683   3.938   3.384   4.025
 1226TIP3    H1 3684   3.859   3.361   3.976
 1226TIP3    H2 3685   3.943   3.480   4.019
 1227TIP3   OH2 3686   5.220   5.569   2.080
 1227TIP3    H1 3687   5.295   5.590   2.135
 1227TIP3    H2 3688   5.192   5.482   2.108
 1228TIP3   OH2 3689   2.394   2.988   1.907
 1228TIP3    H1 3690   2.464   3.051   1.889
 1228TIP3    H2 3691   2.402   2.970   2.001
 1229TIP3   OH2 3692   4.790   4.358   3.352
 1229TIP3    H1 3693   4.868   4.371   3.298
 1229TIP3    H2 3694   4.724   4.416   3.313
 1230TIP3   OH2 3695   1.201   1.258   5.082
 1230TIP3    H1 3696   1.260   1.210   5.140
 1230TIP3    H2 3697   1.216   1.220   4.996
 1231TIP3   OH2 3698   1.154   0.530   4.657
 1231TIP3    H1 3699   1.116   0.555   4.741
 1231TIP3    H2 3700   1.091   0.559   4.591
 1232TIP3   OH2 3701   1.285   2.979   1.500
 1232TIP3    H1 3702   1.277   3.073   1.512
 1232TIP3    H2 3703   1.317   2.969   1.410
 1233TIP3   OH2 3704   5.695   5.140   4.873
 1233TIP3    H1 3705   5.728   5.225   4.902
 1233TIP3    H2 3706   5.690   5.087   4.953
 1234TIP3   OH2 3707   6.258   1.301   4.128
 1234TIP3    H1 3708   6.308   1.347   4.061
 1234TIP3    H2 3709   6.215   1.230   4.081
 1235TIP3   OH2 3710   2.385   4.494   5.028
 1235TIP3    H1 3711   2.382   4.585   4.998
 1235TIP3    H2 3712   2.476   4.468   5.013
 1236TIP3   OH2 3713   4.053   2.798   3.698
 1236TIP3    H1 3714   4.073   2.710   3.730
 1236TIP3    H2 3715   4.103   2.806   3.617
 1237TIP3   OH2 3716   2.722   3.420   2.421
 1237TIP3    H1 3717   2.813   3.411   2.449
 1237TIP3    H2 3718   2.726   3.434   2.327
 1238TIP3   OH2 3719   3.642   3.145   3.697
 1238TIP3    H1 3720   3.623   3.220   3.641
 1238TIP3    H2 3721   3.643   3.070   3.638
 1239TIP3   OH2 3722   1.637   0.883   2.769
 1239TIP3    H1 3723   1.627   0.788   2.776
 1239TIP3    H2 3724   1.564   0.920   2.818
 1240TIP3   OH2 3725   0.576   0.448   4.685
 1240TIP3    H1 3726   0.636   0.409   4.748
 1240TIP3    H2 3727   0.528   0.374   4.648
 1241TIP3   OH2 3728   2.251   1.267   2.423
 1241TIP3    H1 3729   2.272   1.177   2.448
 1241TIP3    H2 3730   2.326   1.318   2.452
 1242TIP3   OH2 3731   5.652   2.610   3.355
 1242TIP3    H1 3732   5.581   2.546   3.345
 1242TIP3    H2 3733   5.719   2.582   3.293
 1243TIP3   OH2 3734   6.073   2.133   1.401
 1243TIP3    H1 3735   5.988   2.177   1.395
 1243TIP3    H2 3736   6.132   2.200   1.435
 1244TIP3   OH2 3737   1.084   5.547   2.075
 1244TIP3    H1 3738   1.023   5.511   2.010
 1244TIP3    H2 3739   1.027   5.583   2.143
 1245TIP3   OH2 3740   2.367   2.620   5.126
 1245TIP3    H1 3741   2.393   2.647   5.213
 1245TIP3    H2 3742   2.306   2.687   5.096
 1246TIP3   OH2 3743   0.755   1.040   4.162
 1246TIP3    H1 3744   0.795   1.078   4.084
 1246TIP3    H2 3745   0.683   1.100   4.183
 1247TIP3   OH2 3746   1.944   1.685   4.605
 1247TIP3    H1 3747   2.015   1.710   4.665
 1247TIP3    H2 3748   1.910   1.603   4.641
 1248TIP3   OH2 3749   0.835   3.358   4.422
 1248TIP3    H1 3750   0.883   3.329   4.344
 1248TIP3    H2 3751   0.851   3.452   4.427
 1249TIP3   OH2 3752   0.699   3.552   0.281
 1249TIP3    H1 3753   0.624   3.519   0.331
 1249TIP3    H2 3754   0.674   3.541   0.190
 1250TIP3   OH2 3755   2.286   2.317   4.473
 1250TIP3    H1 3756   2.219   2.384   4.463
 1250TIP3    H2 3757   2.237   2.235   4.481
 1251TIP3   OH2 3758   5.956   0.179   0.771
 1251TIP3    H1 3759   5.949   0.084   0.760
 1251TIP3    H2 3760   5.872   0.205   0.809
 1252TIP3   OH2 3761   1.403   2.131   1.551
 1252TIP3    H1 3762   1.345   2.069   1.508
 1252TIP3    H2 3763   1.387   2.215   1.507
 1253TIP3   OH2 3764   5.198   0.481   1.126
 1253TIP3    H1 3765   5.144   0.494   1.204
 1253TIP3    H2 3766   5.180   0.391   1.099
 1254TIP3   OH2 3767   0.431   4.802   0.444
 1254TIP3    H1 3768   0.371   4.730   0.459
 1254TIP3    H2 3769   0.465   4.823   0.531
 1255TIP3   OH2 3770   5.465   0.174   3.158
 1255TIP3    H1 3771   5.411   0.113   3.209
 1255TIP3    H2 3772   5.555   0.144   3.173
 1256TIP3   OH2 3773   1.291   5.303   0.103
 1256TIP3    H1 3774   1.323   5.347   0.024
 1256TIP3    H2 3775   1.348   5.227   0.113
 1257TIP3   OH2 3776   0.777   5.879   5.190
 1257TIP3    H1 3777   0.752   5.963   5.228
 1257TIP3    H2 3778   0.728   5.814   5.241
 1258TIP3   OH2 3779   3.584   5.624   0.428
 1258TIP3    H1 3780   3.526   5.678   0.376
 1258TIP3    H2 3781   3.631   5.570   0.365
 1259TIP3   OH2 3782   0.716   5.641   4.226
 1259TIP3    H1 3783   0.688   5.671   4.139
 1259TIP3    H2 3784   0.804   5.676   4.236
 1260TIP3   OH2 3785   2.523   4.260   0.339
 1260TIP3    H1 3786   2.483   4.277   0.425
 1260TIP3    H2 3787   2.588   4.192   0.355
 1261TIP3   OH2 3788   1.757   2.581   4.375
 1261TIP3    H1 3789   1.772   2.637   4.452
 1261TIP3    H2 3790   1.752   2.642   4.302
 1262TIP3   OH2 3791   4.539   0.918   2.045
 1262TIP3    H1 3792   4.610   0.916   1.981
 1262TIP3    H2 3793   4.536   1.009   2.075
 1263TIP3   OH2 3794   2.147   1.860   0.257
 1263TIP3    H1 3795   2.087   1.856   0.182
 1263TIP3    H2 3796   2.231   1.886   0.219
 1264TIP3   OH2 3797   0.581   4.422   0.591
 1264TIP3    H1 3798   0.608   4.331   0.578
 1264TIP3    H2 3799   0.513   4.436   0.525
 1265TIP3   OH2 3800   2.592   3.019   2.464
 1265TIP3    H1 3801   2.661   3.075   2.429
 1265TIP3    H2 3802   2.511   3.055   2.429
 1266TIP3   OH2 3803   4.984   4.521   0.427
 1266TIP3    H1 3804   4.990   4.604   0.475
 1266TIP3    H2 3805   5.051   4.465   0.466
 1267TIP3   OH2 3806   5.316   3.114   3.896
 1267TIP3    H1 3807   5.334   3.032   3.851
 1267TIP3    H2 3808   5.343   3.098   3.986
 1268TIP3   OH2 3809   6.324   3.565   3.612
 1268TIP3    H1 3810   6.312   3.477   3.647
 1268TIP3    H2 3811   6.407   3.595   3.650
 1269TIP3   OH2 3812   5.898   2.954   0.484
 1269TIP3    H1 3813   5.871   2.874   0.440
 1269TIP3    H2 3814   5.840   2.959   0.561
 1270TIP3   OH2 3815   5.435   2.271   0.095
 1270TIP3    H1 3816   5.493   2.196   0.108
 1270TIP3    H2 3817   5.419   2.304   0.183
 1271TIP3   OH2 3818   2.284   5.448   0.594
 1271TIP3    H1 3819   2.211   5.389   0.611
 1271TIP3    H2 3820   2.277   5.516   0.662
 1272TIP3   OH2 3821   2.402   5.814   1.643
 1272TIP3    H1 3822   2.428   5.731   1.604
 1272TIP3    H2 3823   2.378   5.793   1.733
 1273TIP3   OH2 3824   2.310   1.631   4.300
 1273TIP3    H1 3825   2.291   1.698   4.366
 1273TIP3    H2 3826   2.401   1.647   4.276
 1274TIP3   OH2 3827   3.311   3.047   0.721
 1274TIP3    H1 3828   3.363   3.012   0.649
 1274TIP3    H2 3829   3.272   3.127   0.687
 1275TIP3   OH2 3830   3.484   1.726   0.913
 1275TIP3    H1 3831   3.399   1.760   0.942
 1275TIP3    H2 3832   3.469   1.633   0.901
 1276TIP3   OH2 3833   5.525   5.555   4.919
 1276TIP3    H1 3834   5.488   5.586   5.002
 1276TIP3    H2 3835   5.588   5.622   4.894
 1277TIP3   OH2 3836   4.760   5.740   2.336
 1277TIP3    H1 3837   4.825   5.671   2.350
 1277TIP3    H2 3838   4.787   5.811   2.395
 1278TIP3   OH2 3839   3.776   1.631   1.157
 1278TIP3    H1 3840   3.856   1.616   1.107
 1278TIP3    H2 3841   3.719   1.557   1.134
 1279TIP3   OH2 3842   2.324   5.155   1.080
 1279TIP3    H1 3843   2.357   5.191   0.997
 1279TIP3    H2 3844   2.296   5.066   1.058
 1280TIP3   OH2 3845   1.246   1.418   1.169
 1280TIP3    H1 3846   1.195   1.373   1.236
 1280TIP3    H2 3847   1.191   1.493   1.143
 1281TIP3   OH2 3848   5.201   1.417   1.646
 1281TIP3    H1 3849   5.136   1.436   1.579
 1281TIP3    H2 3850   5.248   1.340   1.613
 1282TIP3   OH2 3851   0.676   0.585   4.267
 1282TIP3    H1 3852   0.687   0.583   4.172
 1282TIP3    H2 3853   0.635   0.501   4.289
 1283TIP3   OH2 3854   4.085   3.651   3.176
 1283TIP3    H1 3855   4.124   3.584   3.231
 1283TIP3    H2 3856   4.074   3.608   3.091
 1284TIP3   OH2 3857   3.322   3.220   4.554
 1284TIP3    H1 3858   3.282   3.157   4.614
 1284TIP3    H2 3859   3.280   3.202   4.470
 1285TIP3   OH2 3860   1.295   5.680   5.027
 1285TIP3    H1 3861   1.200   5.671   5.020
 1285TIP3    H2 3862   1.316   5.641   5.112
 1286TIP3   OH2 3863   1.664   3.288   4.344
 1286TIP3    H1 3864   1.736   3.269   4.283
 1286TIP3    H2 3865   1.610   3.209   4.341
 1287TIP3   OH2 3866   4.337   1.051   4.761
 1287TIP3    H1 3867   4.417   1.086   4.722
 1287TIP3    H2 3868   4.325   1.103   4.841
 1288TIP3   OH2 3869   4.520   2.152   1.195
 1288TIP3    H1 3870   4.505   2.194   1.111
 1288TIP3    H2 3871   4.460   2.197   1.255
 1289TIP3   OH2 3872   1.772   4.189   3.341
 1289TIP3    H1 3873   1.760   4.105   3.297
 1289TIP3    H2 3874   1.697   4.197   3.399
 1290TIP3   OH2 3875   2.510   2.222   2.114
 1290TIP3    H1 3876   2.527   2.150   2.052
 1290TIP3    H2 3877   2.592   2.271   2.117
 1291TIP3   OH2 3878   3.555   1.409   3.154
 1291TIP3    H1 3879   3.481   1.393   3.097
 1291TIP3    H2 3880   3.561   1.504   3.160
 1292TIP3   OH2 3881   1.981   5.879   2.466
 1292TIP3    H1 3882   1.969   5.809   2.402
 1292TIP3    H2 3883   2.074   5.900   2.462
 1293TIP3   OH2 3884   0.172   3.268   3.580
 1293TIP3    H1 3885   0.121   3.251   3.501
 1293TIP3    H2 3886   0.108   3.299   3.644
 1294TIP3   OH2 3887   4.532   5.796   4.652
 1294TIP3    H1 3888   4.493   5.709   4.643
 1294TIP3    H2 3889   4.475   5.853   4.600
 1295TIP3   OH2 3890   6.254   3.029   0.300
 1295TIP3    H1 3891   6.229   3.096   0.364
 1295TIP3    H2 3892   6.341   3.002   0.327
 1296TIP3   OH2 3893   0.972   3.263   1.090
 1296TIP3    H1 3894   0.890   3.229   1.125
 1296TIP3    H2 3895   1.013   3.188   1.047
 1297TIP3   OH2 3896   1.981   1.718   1.738
 1297TIP3    H1 3897   1.928   1.708   1.818
 1297TIP3    H2 3898   1.971   1.811   1.716
 1298TIP3   OH2 3899   5.888   0.555   1.016
 1298TIP3    H1 3900   5.804   0.586   1.049
 1298TIP3    H2 3901   5.949   0.567   1.089
 1299TIP3   OH2 3902   1.999   3.757   4.442
 1299TIP3    H1 3903   2.008   3.680   4.387
 1299TIP3    H2 3904   2.054   3.740   4.518
 1300TIP3   OH2 3905   2.511   0.879   2.549
 1300TIP3    H1 3906   2.476   0.790   2.538
 1300TIP3    H2 3907   2.596   0.867   2.590
 1301TIP3   OH2 3908   0.739   1.572   1.246
 1301TIP3    H1 3909   0.791   1.541   1.320
 1301TIP3    H2 3910   0.781   1.532   1.169
 1302TIP3   OH2 3911   6.160   5.263   0.585
 1302TIP3    H1 3912   6.077   5.305   0.607
 1302TIP3    H2 3913   6.136   5.175   0.556
 1303TIP3   OH2 3914   3.129   4.553   2.558
 1303TIP3    H1 3915   3.164   4.591   2.638
 1303TIP3    H2 3916   3.038   4.532   2.580
 1304TIP3   OH2 3917   2.425   5.607   2.963
 1304TIP3    H1 3918   2.330   5.613   2.971
 1304TIP3    H2 3919   2.458   5.685   3.007
 1305TIP3   OH2 3920   6.229   2.897   2.623
 1305TIP3    H1 3921   6.217   2.826   2.560
 1305TIP3    H2 3922   6.293   2.862   2.686
 1306TIP3   OH2 3923   5.888   2.728   0.066
 1306TIP3    H1 3924   5.969   2.681   0.088
 1306TIP3    H2 3925   5.823   2.659   0.053
 1307TIP3   OH2 3926   6.251   3.986   2.165
 1307TIP3    H1 3927   6.292   3.900   2.156
 1307TIP3    H2 3928   6.324   4.048   2.158
 1308TIP3   OH2 3929   0.211   0.423   0.813
 1308TIP3    H1 3930   0.236   0.442   0.723
 1308TIP3    H2 3931   0.291   0.388   0.853
 1309TIP3   OH2 3932   5.183   1.357   0.295
 1309TIP3    H1 3933   5.204   1.390   0.207
 1309TIP3    H2 3934   5.124   1.284   0.279
 1310TIP3   OH2 3935   1.136   3.547   3.274
 1310TIP3    H1 3936   1.181   3.501   3.345
 1310TIP3    H2 3937   1.156   3.639   3.289
 1311TIP3   OH2 3938   2.464   5.109   2.591
 1311TIP3    H1 3939   2.388   5.052   2.597
 1311TIP3    H2 3940   2.538   5.054   2.616
 1312TIP3   OH2 3941   3.768   4.064   4.792
 1312TIP3    H1 3942   3.796   4.150   4.760
 1312TIP3    H2 3943   3.715   4.028   4.720
 1313TIP3   OH2 3944   5.199   1.414   0.012
 1313TIP3    H1 3945   5.269   1.426  -0.052
 1313TIP3    H2 3946   5.171   1.323   0.001
 1314TIP3   OH2 3947   2.693   1.146   0.463
 1314TIP3    H1 3948   2.713   1.052   0.472
 1314TIP3    H2 3949   2.695   1.179   0.553
 1315TIP3   OH2 3950   5.017   4.924   2.796
 1315TIP3    H1 3951   5.096   4.870   2.793
 1315TIP3    H2 3952   5.049   5.014   2.788
 1316TIP3   OH2 3953   4.104   3.357   0.860
 1316TIP3    H1 3954   4.097   3.440   0.909
 1316TIP3    H2 3955   4.048   3.370   0.784
 1317TIP3   OH2 3956   6.346   3.392   1.860
 1317TIP3    H1 3957   6.374   3.384   1.952
 1317TIP3    H2 3958   6.428   3.399   1.811
 1318TIP3   OH2 3959   4.076   5.758   2.123
 1318TIP3    H1 3960   4.061   5.669   2.092
 1318TIP3    H2 3961   4.105   5.747   2.214
 1319TIP3   OH2 3962   6.083   2.352   4.060
 1319TIP3    H1 3963   6.165   2.320   4.022
 1319TIP3    H2 3964   6.018   2.338   3.992
 1320TIP3   OH2 3965   0.957   2.442   1.698
 1320TIP3    H1 3966   0.972   2.518   1.754
 1320TIP3    H2 3967   0.864   2.421   1.710
 1321TIP3   OH2 3968   0.708   3.275   1.195
 1321TIP3    H1 3969   0.747   3.250   1.278
 1321TIP3    H2 3970   0.624   3.314   1.218
 1322TIP3   OH2 3971   0.283   4.489   3.103
 1322TIP3    H1 3972   0.371   4.478   3.141
 1322TIP3    H2 3973   0.243   4.402   3.111
 1323TIP3   OH2 3974   5.205   0.133   0.772
 1323TIP3    H1 3975   5.254   0.210   0.800
 1323TIP3    H2 3976   5.123   0.169   0.736
 1324TIP3   OH2 3977   6.316   2.578   3.899
 1324TIP3    H1 3978   6.365   2.604   3.821
 1324TIP3    H2 3979   6.304   2.483   3.889
 1325TIP3   OH2 3980   5.352   0.348   0.804
 1325TIP3    H1 3981   5.389   0.405   0.871
 1325TIP3    H2 3982   5.388   0.381   0.722
 1326TIP3   OH2 3983   3.835   0.219   0.152
 1326TIP3    H1 3984   3.930   0.215   0.165
 1326TIP3    H2 3985   3.821   0.298   0.100
 1327TIP3   OH2 3986   0.088   0.586   4.970
 1327TIP3    H1 3987   0.022   0.606   5.036
 1327TIP3    H2 3988   0.049   0.615   4.887
 1328TIP3   OH2 3989   5.721   1.745   4.038
 1328TIP3    H1 3990   5.698   1.687   3.965
 1328TIP3    H2 3991   5.816   1.742   4.041
 1329TIP3   OH2 3992   0.074   1.361   3.916
 1329TIP3    H1 3993   0.051   1.388   3.827
 1329TIP3    H2 3994   0.126   1.434   3.951
 1330TIP3   OH2 3995   3.184   1.478   5.012
 1330TIP3    H1 3996   3.206   1.567   4.983
 1330TIP3    H2 3997   3.141   1.438   4.936
 1331TIP3   OH2 3998   0.375   3.015   3.593
 1331TIP3    H1 3999   0.293   2.980   3.560
 1331TIP3    H2 4000   0.396   2.960   3.669
 1332TIP3   OH2 4001   0.331   4.148   0.692
 1332TIP3    H1 4002   0.416   4.170   0.730
 1332TIP3    H2 4003   0.279   4.119   0.767
 1333TIP3   OH2 4004   1.538   2.491   3.313
 1333TIP3    H1 4005   1.518   2.425   3.247
 1333TIP3    H2 4006   1.464   2.552   3.309
 1334TIP3   OH2 4007   5.981   5.491   3.755
 1334TIP3    H1 4008   5.971   5.400   3.782
 1334TIP3    H2 4009   6.066   5.494   3.711
 1335TIP3   OH2 4010   3.846   4.122   0.731
 1335TIP3    H1 4011   3.756   4.102   0.758
 1335TIP3    H2 4012   3.838   4.197   0.673
 1336TIP3   OH2 4013   3.938   2.621   5.016
 1336TIP3    H1 4014   3.927   2.679   5.091
 1336TIP3    H2 4015   4.027   2.638   4.985
 1337TIP3   OH2 4016   1.013   5.291   0.344
 1337TIP3    H1 4017   1.040   5.226   0.279
 1337TIP3    H2 4018   0.952   5.348   0.298
 1338TIP3   OH2 4019   4.429   3.330   1.998
 1338TIP3    H1 4020   4.522   3.308   1.989
 1338TIP3    H2 4021   4.383   3.253   1.964
 1339TIP3   OH2 4022   5.207   5.182   2.834
 1339TIP3    H1 4023   5.283   5.241   2.842
 1339TIP3    H2 4024   5.135   5.232   2.871
 1340TIP3   OH2 4025   4.993   3.737   2.779
 1340TIP3    H1 4026   4.988   3.828   2.807
 1340TIP3    H2 4027   5.081   3.727   2.743
 1341TIP3   OH2 4028   2.719   3.025   2.724
 1341TIP3    H1 4029   2.634   3.055   2.690
 1341TIP3    H2 4030   2.731   2.938   2.685
 1342TIP3   OH2 4031   1.219   3.685   2.429
 1342TIP3    H1 4032   1.231   3.603   2.380
 1342TIP3    H2 4033   1.132   3.716   2.402
 1343TIP3   OH2 4034   4.149   1.887   3.740
 1343TIP3    H1 4035   4.129   1.888   3.646
 1343TIP3    H2 4036   4.084   1.946   3.778
 1344TIP3   OH2 4037   1.446   1.824   1.718
 1344TIP3    H1 4038   1.475   1.774   1.642
 1344TIP3    H2 4039   1.352   1.837   1.704
 1345TIP3   OH2 4040   5.460   2.453   1.711
 1345TIP3    H1 4041   5.445   2.468   1.804
 1345TIP3    H2 4042   5.401   2.381   1.688
 1346TIP3   OH2 4043   1.796   0.144   0.723
 1346TIP3    H1 4044   1.811   0.157   0.630
 1346TIP3    H2 4045   1.834   0.059   0.743
 1347TIP3   OH2 4046   1.521   5.285   2.581
 1347TIP3    H1 4047   1.484   5.252   2.499
 1347TIP3    H2 4048   1.595   5.226   2.599
 1348TIP3   OH2 4049   0.583   0.769   0.931
 1348TIP3    H1 4050   0.508   0.723   0.967
 1348TIP3    H2 4051   0.636   0.701   0.890
 1349TIP3   OH2 4052   6.250   4.987   1.122
 1349TIP3    H1 4053   6.207   4.946   1.047
 1349TIP3    H2 4054   6.180   5.032   1.169
 1350TIP3   OH2 4055   3.748   4.333   2.955
 1350TIP3    H1 4056   3.661   4.335   2.996
 1350TIP3    H2 4057   3.800   4.279   3.013
 1351TIP3   OH2 4058   0.661   0.348   0.057
 1351TIP3    H1 4059   0.756   0.349   0.069
 1351TIP3    H2 4060   0.626   0.395   0.134
 1352TIP3   OH2 4061   5.543   5.447   0.674
 1352TIP3    H1 4062   5.625   5.401   0.693
 1352TIP3    H2 4063   5.513   5.479   0.759
 1353TIP3   OH2 4064   2.885   5.808   0.285
 1353TIP3    H1 4065   2.910   5.854   0.365
 1353TIP3    H2 4066   2.831   5.735   0.316
 1354TIP3   OH2 4067   0.826   0.725   4.839
 1354TIP3    H1 4068   0.742   0.702   4.878
 1354TIP3    H2 4069   0.809   0.729   4.745
 1355TIP3   OH2 4070   6.229   5.496   2.585
 1355TIP3    H1 4071   6.244   5.416   2.534
 1355TIP3    H2 4072   6.221   5.565   2.519
 1356TIP3   OH2 4073   6.195   3.162   2.704
 1356TIP3    H1 4074   6.203   3.068   2.687
 1356TIP3    H2 4075   6.156   3.168   2.791
 1357TIP3   OH2 4076   6.120   1.678   0.246
 1357TIP3    H1 4077   6.179   1.637   0.310
 1357TIP3    H2 4078   6.038   1.631   0.256
 1358TIP3   OH2 4079   0.156   2.463   4.410
 1358TIP3    H1 4080   0.211   2.384   4.411
 1358TIP3    H2 4081   0.201   2.522   4.350
 1359TIP3   OH2 4082   6.048   2.986   4.747
 1359TIP3    H1 4083   6.035   3.079   4.728
 1359TIP3    H2 4084   6.054   2.945   4.661
 1360TIP3   OH2 4085   2.234   0.127   4.363
 1360TIP3    H1 4086   2.294   0.185   4.316
 1360TIP3    H2 4087   2.276   0.041   4.362
 1361TIP3   OH2 4088   4.684   0.150   0.764
 1361TIP3    H1 4089   4.636   0.196   0.695
 1361TIP3    H2 4090   4.617   0.100   0.811
 1362TIP3   OH2 4091   2.772   0.626   3.388
 1362TIP3    H1 4092   2.803   0.613   3.298
 1362TIP3    H2 4093   2.678   0.608   3.384
 1363TIP3   OH2 4094   0.601   1.964   1.177
 1363TIP3    H1 4095   0.650   2.034   1.220
 1363TIP3    H2 4096   0.521   2.008   1.147
 1364TIP3   OH2 4097   1.036   1.386   0.287
 1364TIP3    H1 4098   0.952   1.423   0.312
 1364TIP3    H2 4099   1.051   1.315   0.350
 1365TIP3   OH2 4100   2.331   5.443   4.596
 1365TIP3    H1 4101   2.417   5.414   4.565
 1365TIP3    H2 4102   2.328   5.413   4.687
 1366TIP3   OH2 4103   6.113   5.810   2.483
 1366TIP3    H1 4104   6.050   5.855   2.426
 1366TIP3    H2 4105   6.178   5.775   2.422
 1367TIP3   OH2 4106   4.086   4.023   0.516
 1367TIP3    H1 4107   4.147   4.096   0.506
 1367TIP3    H2 4108   4.001   4.065   0.530
 1368TIP3   OH2 4109   4.129   2.449   1.816
 1368TIP3    H1 4110   4.094   2.512   1.879
 1368TIP3    H2 4111   4.051   2.409   1.776
 1369TIP3   OH2 4112   1.571   2.549   2.204
 1369TIP3    H1 4113   1.623   2.494   2.145
 1369TIP3    H2 4114   1.487   2.558   2.160
 1370TIP3   OH2 4115   5.511   3.297   2.797
 1370TIP3    H1 4116   5.490   3.380   2.755
 1370TIP3    H2 4117   5.456   3.296   2.876
 1371TIP3   OH2 4118   6.177   4.814   4.734
 1371TIP3    H1 4119   6.228   4.792   4.812
 1371TIP3    H2 4120   6.228   4.777   4.661
 1372TIP3   OH2 4121   0.448   1.810   4.301
 1372TIP3    H1 4122   0.398   1.882   4.263
 1372TIP3    H2 4123   0.419   1.807   4.392
 1373TIP3   OH2 4124   3.494   5.244   1.366
 1373TIP3    H1 4125   3.510   5.304   1.293
 1373TIP3    H2 4126   3.442   5.295   1.428
 1374TIP3   OH2 4127   3.875   2.686   4.331
 1374TIP3    H1 4128   3.864   2.738   4.251
 1374TIP3    H2 4129   3.878   2.595   4.300
 1375TIP3   OH2 4130   1.797   5.921   3.160
 1375TIP3    H1 4131   1.881   5.967   3.166
 1375TIP3    H2 4132   1.732   5.990   3.153
 1376TIP3   OH2 4133   3.447   5.629   2.298
 1376TIP3    H1 4134   3.475   5.682   2.372
 1376TIP3    H2 4135   3.367   5.586   2.327
 1377TIP3   OH2 4136   4.180   3.500   3.722
 1377TIP3    H1 4137   4.197   3.417   3.767
 1377TIP3    H2 4138   4.087   3.495   3.698
 1378TIP3   OH2 4139   3.874   4.517   4.645
 1378TIP3    H1 4140   3.865   4.422   4.647
 1378TIP3    H2 4141   3.785   4.550   4.651
 1379TIP3   OH2 4142   5.794   1.975   3.380
 1379TIP3    H1 4143   5.860   1.982   3.449
 1379TIP3    H2 4144   5.711   1.992   3.424
 1380TIP3   OH2 4145   1.815   4.206   1.985
 1380TIP3    H1 4146   1.751   4.213   1.915
 1380TIP3    H2 4147   1.875   4.137   1.956
 1381TIP3   OH2 4148   1.079   4.624   0.106
 1381TIP3    H1 4149   1.135   4.669   0.169
 1381TIP3    H2 4150   1.090   4.531   0.125
 1382TIP3   OH2 4151   2.249   1.917   2.537
 1382TIP3    H1 4152   2.190   1.991   2.551
 1382TIP3    H2 4153   2.334   1.957   2.520
 1383TIP3   OH2 4154   5.949   4.627   0.672
 1383TIP3    H1 4155   5.954   4.631   0.577
 1383TIP3    H2 4156   5.879   4.688   0.695
 1384TIP3   OH2 4157   2.751   5.825   2.244
 1384TIP3    H1 4158   2.786   5.747   2.202
 1384TIP3    H2 4159   2.680   5.853   2.187
 1385TIP3   OH2 4160   0.515   4.753   1.608
 1385TIP3    H1 4161   0.593   4.802   1.581
 1385TIP3    H2 4162   0.524   4.667   1.565
 1386TIP3   OH2 4163   0.326   5.453   1.760
 1386TIP3    H1 4164   0.275   5.533   1.746
 1386TIP3    H2 4165   0.296   5.393   1.691
 1387TIP3   OH2 4166   0.135   3.685   1.557
 1387TIP3    H1 4167   0.053   3.733   1.544
 1387TIP3    H2 4168   0.165   3.665   1.468
 1388TIP3   OH2 4169   5.089   2.660   4.459
 1388TIP3    H1 4170   5.005   2.679   4.418
 1388TIP3    H2 4171   5.151   2.722   4.420
 1389TIP3   OH2 4172   2.301   4.524   4.546
 1389TIP3    H1 4173   2.208   4.520   4.522
 1389TIP3    H2 4174   2.333   4.604   4.505
 1390TIP3   OH2 4175   1.501   3.064   4.936
 1390TIP3    H1 4176   1.522   2.984   4.888
 1390TIP3    H2 4177   1.409   3.082   4.913
 1391TIP3   OH2 4178   2.484   2.575   2.965
 1391TIP3    H1 4179   2.484   2.479   2.964
 1391TIP3    H2 4180   2.574   2.599   2.983
 1392TIP3   OH2 4181   4.307   5.358   4.366
 1392TIP3    H1 4182   4.259   5.441   4.367
 1392TIP3    H2 4183   4.328   5.343   4.273
 1393TIP3   OH2 4184   0.426   2.528   1.031
 1393TIP3    H1 4185   0.509   2.542   1.076
 1393TIP3    H2 4186   0.412   2.433   1.035
 1394TIP3   OH2 4187   3.273   5.377   2.975
 1394TIP3    H1 4188   3.286   5.362   3.068
 1394TIP3    H2 4189   3.194   5.430   2.970
 1395TIP3   OH2 4190   4.367   2.969   4.034
 1395TIP3    H1 4191   4.279   2.957   3.999
 1395TIP3    H2 4192   4.423   2.914   3.978
 1396TIP3   OH2 4193   1.072   5.864   2.354
 1396TIP3    H1 4194   1.157   5.849   2.313
 1396TIP3    H2 4195   1.092   5.917   2.432
 1397TIP3   OH2 4196   0.769   4.893   3.947
 1397TIP3    H1 4197   0.789   4.906   3.855
 1397TIP3    H2 4198   0.677   4.866   3.948
 1398TIP3   OH2 4199   4.753   4.288   3.665
 1398TIP3    H1 4200   4.668   4.310   3.627
 1398TIP3    H2 4201   4.815   4.343   3.619
 1399TIP3   OH2 4202   5.275   0.886   1.866
 1399TIP3    H1 4203   5.320   0.939   1.931
 1399TIP3    H2 4204   5.187   0.923   1.862
 1400TIP3   OH2 4205   0.824   2.468   4.370
 1400TIP3    H1 4206   0.883   2.404   4.411
 1400TIP3    H2 4207   0.792   2.521   4.443
 1401TIP3   OH2 4208   4.386   0.360   1.248
 1401TIP3    H1 4209   4.478   0.372   1.223
 1401TIP3    H2 4210   4.365   0.439   1.299
 1402TIP3   OH2 4211   5.117   3.173   2.126
 1402TIP3    H1 4212   5.156   3.229   2.193
 1402TIP3    H2 4213   5.161   3.089   2.138
 1403TIP3   OH2 4214   4.202   0.353   2.131
 1403TIP3    H1 4215   4.229   0.267   2.161
 1403TIP3    H2 4216   4.160   0.337   2.046
 1404TIP3   OH2 4217   0.396   3.924   1.306
 1404TIP3    H1 4218   0.355   3.843   1.277
 1404TIP3    H2 4219   0.337   3.958   1.373
 1405TIP3   OH2 4220   1.970   2.954   1.456
 1405TIP3    H1 4221   1.956   3.042   1.422
 1405TIP3    H2 4222   2.036   2.965   1.524
 1406TIP3   OH2 4223   1.460   4.391   3.328
 1406TIP3    H1 4224   1.490   4.318   3.383
 1406TIP3    H2 4225   1.383   4.425   3.374
 1407TIP3   OH2 4226   4.431   0.783   0.799
 1407TIP3    H1 4227   4.391   0.739   0.874
 1407TIP3    H2 4228   4.472   0.713   0.749
 1408TIP3   OH2 4229   0.887   2.578   1.015
 1408TIP3    H1 4230   0.970   2.530   1.019
 1408TIP3    H2 4231   0.885   2.615   0.926
 1409TIP3   OH2 4232   2.024   3.775   2.212
 1409TIP3    H1 4233   1.938   3.751   2.177
 1409TIP3    H2 4234   2.061   3.692   2.243
 1410TIP3   OH2 4235   5.557   2.569   4.519
 1410TIP3    H1 4236   5.647   2.593   4.540
 1410TIP3    H2 4237   5.527   2.638   4.461
 1411TIP3   OH2 4238   1.987   1.841   0.476
 1411TIP3    H1 4239   2.057   1.850   0.412
 1411TIP3    H2 4240   1.907   1.835   0.423
 1412TIP3   OH2 4241   1.145   1.085   2.228
 1412TIP3    H1 4242   1.070   1.072   2.170
 1412TIP3    H2 4243   1.221   1.070   2.172
 1413TIP3   OH2 4244   1.716   0.126   2.878
 1413TIP3    H1 4245   1.711   0.170   2.793
 1413TIP3    H2 4246   1.643   0.164   2.928
 1414TIP3   OH2 4247   2.986   2.303   0.380
 1414TIP3    H1 4248   3.002   2.373   0.443
 1414TIP3    H2 4249   3.010   2.223   0.426
 1415TIP3   OH2 4250   2.713   0.141   3.313
 1415TIP3    H1 4251   2.755   0.179   3.235
 1415TIP3    H2 4252   2.759   0.181   3.386
 1416TIP3   OH2 4253   0.986   1.289   3.835
 1416TIP3    H1 4254   1.080   1.304   3.835
 1416TIP3    H2 4255   0.976   1.194   3.842
 1417TIP3   OH2 4256   2.831   3.749   5.077
 1417TIP3    H1 4257   2.744   3.789   5.067
 1417TIP3    H2 4258   2.814   3.655   5.085
 1418TIP3   OH2 4259   0.229   4.597   4.191
 1418TIP3    H1 4260   0.268   4.634   4.112
 1418TIP3    H2 4261   0.162   4.660   4.217
 1419TIP3   OH2 4262   5.740   1.307   2.309
 1419TIP3    H1 4263   5.721   1.227   2.358
 1419TIP3    H2 4264   5.802   1.354   2.363
 1420TIP3   OH2 4265   3.319   4.648   2.765
 1420TIP3    H1 4266   3.373   4.615   2.693
 1420TIP3    H2 4267   3.357   4.733   2.787
 1421TIP3   OH2 4268   0.464   3.025   2.934
 1421TIP3    H1 4269   0.514   2.996   3.011
 1421TIP3    H2 4270   0.374   3.029   2.965
 1422TIP3   OH2 4271   1.392   0.966   3.314
 1422TIP3    H1 4272   1.427   1.014   3.239
 1422TIP3    H2 4273   1.327   0.906   3.277
 1423TIP3   OH2 4274   1.565   1.279   0.170
 1423TIP3    H1 4275   1.541   1.321   0.088
 1423TIP3    H2 4276   1.544   1.186   0.157
 1424TIP3   OH2 4277   5.318   3.176   3.498
 1424TIP3    H1 4278   5.253   3.169   3.567
 1424TIP3    H2 4279   5.401   3.186   3.544
 1425TIP3   OH2 4280   2.935   0.179   4.017
 1425TIP3    H1 4281   3.020   0.220   4.001
 1425TIP3    H2 4282   2.955   0.086   4.029
 1426TIP3   OH2 4283   3.490   1.057   1.358
 1426TIP3    H1 4284   3.465   1.128   1.417
 1426TIP3    H2 4285   3.407   1.027   1.320
 1427TIP3   OH2 4286   4.977   3.022   0.216
 1427TIP3    H1 4287   5.068   3.022   0.245
 1427TIP3    H2 4288   4.928   2.986   0.291
 1428TIP3   OH2 4289   6.006   1.421   4.183
 1428TIP3    H1 4290   6.091   1.376   4.182
 1428TIP3    H2 4291   5.969   1.404   4.097
 1429TIP3   OH2 4292   2.163   2.791   3.248
 1429TIP3    H1 4293   2.203   2.760   3.167
 1429TIP3    H2 4294   2.180   2.722   3.312
 1430TIP3   OH2 4295   3.888   1.154   2.588
 1430TIP3    H1 4296   3.830   1.081   2.607
 1430TIP3    H2 4297   3.967   1.114   2.551
 1431TIP3   OH2 4298   2.636   2.675   0.676
 1431TIP3    H1 4299   2.598   2.762   0.688
 1431TIP3    H2 4300   2.668   2.651   0.763
 1432TIP3   OH2 4301   3.578   0.776   1.460
 1432TIP3    H1 4302   3.594   0.869   1.478
 1432TIP3    H2 4303   3.508   0.751   1.520
 1433TIP3   OH2 4304   2.070   4.258   2.380
 1433TIP3    H1 4305   1.984   4.216   2.370
 1433TIP3    H2 4306   2.089   4.295   2.294
 1434TIP3   OH2 4307   4.870   4.052   4.187
 1434TIP3    H1 4308   4.778   4.074   4.175
 1434TIP3    H2 4309   4.908   4.058   4.099
 1435TIP3   OH2 4310   3.615   1.970   2.015
 1435TIP3    H1 4311   3.525   1.982   2.045
 1435TIP3    H2 4312   3.607   1.912   1.939
 1436TIP3   OH2 4313   1.409   1.765   4.973
 1436TIP3    H1 4314   1.464   1.741   5.048
 1436TIP3    H2 4315   1.376   1.682   4.939
 1437TIP3   OH2 4316   1.982   3.038   4.927
 1437TIP3    H1 4317   1.987   3.049   4.832
 1437TIP3    H2 4318   1.923   2.964   4.939
 1438TIP3   OH2 4319   3.106   0.591   1.869
 1438TIP3    H1 4320   3.079   0.629   1.953
 1438TIP3    H2 4321   3.063   0.645   1.803
 1439TIP3   OH2 4322   2.320   2.445   0.555
 1439TIP3    H1 4323   2.349   2.475   0.641
 1439TIP3    H2 4324   2.378   2.372   0.534
 1440TIP3   OH2 4325   2.245   0.406   1.239
 1440TIP3    H1 4326   2.232   0.402   1.334
 1440TIP3    H2 4327   2.179   0.345   1.204
 1441TIP3   OH2 4328   2.510   1.777   0.118
 1441TIP3    H1 4329   2.468   1.793   0.203
 1441TIP3    H2 4330   2.604   1.779   0.138
 1442TIP3   OH2 4331   6.332   1.090   3.066
 1442TIP3    H1 4332   6.387   1.159   3.102
 1442TIP3    H2 4333   6.394   1.029   3.025
 1443TIP3   OH2 4334   1.965   5.047   1.346
 1443TIP3    H1 4335   1.964   5.091   1.431
 1443TIP3    H2 4336   1.882   5.000   1.342
 1444TIP3   OH2 4337   3.825   5.389   0.186
 1444TIP3    H1 4338   3.759   5.360   0.249
 1444TIP3    H2 4339   3.775   5.418   0.109
 1445TIP3   OH2 4340   1.290   3.358   3.405
 1445TIP3    H1 4341   1.224   3.296   3.437
 1445TIP3    H2 4342   1.373   3.321   3.432
 1446TIP3   OH2 4343   4.761   0.055   1.973
 1446TIP3    H1 4344   4.710   0.135   1.991
 1446TIP3    H2 4345   4.844   0.069   2.018
 1447TIP3   OH2 4346   1.207   3.577   0.171
 1447TIP3    H1 4347   1.247   3.641   0.230
 1447TIP3    H2 4348   1.114   3.582   0.190
 1448TIP3   OH2 4349   3.546   5.838   2.456
 1448TIP3    H1 4350   3.462   5.882   2.441
 1448TIP3    H2 4351   3.536   5.798   2.543
 1449TIP3   OH2 4352   4.031   4.380   3.091
 1449TIP3    H1 4353   4.003   4.290   3.107
 1449TIP3    H2 4354   4.081   4.375   3.009
 1450TIP3   OH2 4355   3.980   5.835   3.739
 1450TIP3    H1 4356   4.065   5.815   3.779
 1450TIP3    H2 4357   3.946   5.750   3.711
 1451TIP3   OH2 4358   0.364   0.891   1.961
 1451TIP3    H1 4359   0.413   0.967   1.994
 1451TIP3    H2 4360   0.370   0.898   1.866
 1452TIP3   OH2 4361   2.475   0.768   4.911
 1452TIP3    H1 4362   2.543   0.832   4.930
 1452TIP3    H2 4363   2.508   0.685   4.946
 1453TIP3   OH2 4364   3.838   1.914   1.112
 1453TIP3    H1 4365   3.898   1.839   1.122
 1453TIP3    H2 4366   3.773   1.901   1.180
 1454TIP3   OH2 4367   1.697   0.402   2.217
 1454TIP3    H1 4368   1.727   0.479   2.169
 1454TIP3    H2 4369   1.602   0.406   2.210
 1455TIP3   OH2 4370   2.449   2.749   3.564
 1455TIP3    H1 4371   2.385   2.697   3.517
 1455TIP3    H2 4372   2.528   2.695   3.568
 1456TIP3   OH2 4373   4.387   5.688   1.136
 1456TIP3    H1 4374   4.440   5.688   1.216
 1456TIP3    H2 4375   4.364   5.780   1.122
 1457TIP3   OH2 4376   5.006   0.665   0.472
 1457TIP3    H1 4377   4.933   0.639   0.529
 1457TIP3    H2 4378   5.080   0.677   0.532
 1458TIP3   OH2 4379   1.027   5.493   4.611
 1458TIP3    H1 4380   0.942   5.453   4.625
 1458TIP3    H2 4381   1.028   5.516   4.518
 1459TIP3   OH2 4382   1.779   2.028   3.006
 1459TIP3    H1 4383   1.773   2.117   2.972
 1459TIP3    H2 4384   1.835   2.036   3.084
 1460TIP3   OH2 4385   6.202   5.371   5.040
 1460TIP3    H1 4386   6.123   5.393   5.088
 1460TIP3    H2 4387   6.202   5.275   5.036
 1461TIP3   OH2 4388   4.536   2.353   4.500
 1461TIP3    H1 4389   4.549   2.417   4.430
 1461TIP3    H2 4390   4.484   2.400   4.565
 1462TIP3   OH2 4391   1.218   4.131   1.220
 1462TIP3    H1 4392   1.177   4.183   1.288
 1462TIP3    H2 4393   1.272   4.068   1.267
 1463TIP3   OH2 4394   4.600   4.205   2.580
 1463TIP3    H1 4395   4.535   4.188   2.648
 1463TIP3    H2 4396   4.683   4.215   2.626
 1464TIP3   OH2 4397   0.880   0.077   1.896
 1464TIP3    H1 4398   0.835   0.137   1.836
 1464TIP3    H2 4399   0.817   0.006   1.908
 1465TIP3   OH2 4400   4.303   5.490   3.033
 1465TIP3    H1 4401   4.280   5.428   3.101
 1465TIP3    H2 4402   4.351   5.439   2.968
 1466TIP3   OH2 4403   0.690   0.012   0.804
 1466TIP3    H1 4404   0.600   0.021   0.774
 1466TIP3    H2 4405   0.725   0.101   0.807
 1467TIP3   OH2 4406   4.852   1.025   3.080
 1467TIP3    H1 4407   4.910   1.051   3.009
 1467TIP3    H2 4408   4.859   1.097   3.144
 1468TIP3   OH2 4409   1.747   4.269   2.883
 1468TIP3    H1 4410   1.776   4.217   2.959
 1468TIP3    H2 4411   1.670   4.223   2.850
 1469TIP3   OH2 4412   4.825   2.647   4.314
 1469TIP3    H1 4413   4.847   2.739   4.328
 1469TIP3    H2 4414   4.732   2.642   4.337
 1470TIP3   OH2 4415   2.155   5.486   0.099
 1470TIP3    H1 4416   2.214   5.417   0.068
 1470TIP3    H2 4417   2.179   5.562   0.046
 1471TIP3   OH2 4418   4.404   5.800   3.026
 1471TIP3    H1 4419   4.416   5.792   2.932
 1471TIP3    H2 4420   4.421   5.893   3.045
 1472TIP3   OH2 4421   3.148   4.408   1.491
 1472TIP3    H1 4422   3.137   4.498   1.523
 1472TIP3    H2 4423   3.235   4.383   1.522
 1473TIP3   OH2 4424   4.548   2.088   1.910
 1473TIP3    H1 4425   4.627   2.034   1.910
 1473TIP3    H2 4426   4.483   2.035   1.957
 1474TIP3   OH2 4427   1.435   1.154   1.927
 1474TIP3    H1 4428   1.389   1.236   1.911
 1474TIP3    H2 4429   1.525   1.180   1.945
 1475TIP3   OH2 4430   1.772   5.319   4.551
 1475TIP3    H1 4431   1.736   5.338   4.465
 1475TIP3    H2 4432   1.838   5.252   4.535
 1476TIP3   OH2 4433   2.808   3.257   1.651
 1476TIP3    H1 4434   2.828   3.339   1.606
 1476TIP3    H2 4435   2.883   3.242   1.708
 1477TIP3   OH2 4436   3.077   2.831   0.463
 1477TIP3    H1 4437   2.997   2.787   0.492
 1477TIP3    H2 4438   3.091   2.801   0.373
 1478TIP3   OH2 4439   0.463   0.065   0.030
 1478TIP3    H1 4440   0.541   0.059   0.085
 1478TIP3    H2 4441   0.494   0.106  -0.051
 1479TIP3   OH2 4442   2.049   4.864   3.833
 1479TIP3    H1 4443   1.996   4.912   3.770
 1479TIP3    H2 4444   1.985   4.826   3.894
 1480TIP3   OH2 4445   2.023   1.950   4.035
 1480TIP3    H1 4446   1.983   1.868   4.005
 1480TIP3    H2 4447   1.967   1.978   4.108
 1481TIP3   OH2 4448   2.594   5.871   3.392
 1481TIP3    H1 4449   2.625   5.926   3.319
 1481TIP3    H2 4450   2.657   5.889   3.462
 1482TIP3   OH2 4451   1.935   2.357   3.417
 1482TIP3    H1 4452   1.965   2.383   3.503
 1482TIP3    H2 4453   1.978   2.418   3.357
 1483TIP3   OH2 4454   4.604   4.181   0.469
 1483TIP3    H1 4455   4.567   4.266   0.444
 1483TIP3    H2 4456   4.576   4.121   0.399
 1484TIP3   OH2 4457   3.740   0.988   5.045
 1484TIP3    H1 4458   3.672   0.921   5.051
 1484TIP3    H2 4459   3.811   0.955   5.099
 1485TIP3   OH2 4460   0.813   1.441   0.052
 1485TIP3    H1 4461   0.876   1.370   0.063
 1485TIP3    H2 4462   0.735   1.399   0.017
 1486TIP3   OH2 4463   2.449   0.000   0.034
 1486TIP3    H1 4464   2.498   0.076   0.063
 1486TIP3    H2 4465   2.405  -0.033   0.113
 1487TIP3   OH2 4466   0.527   5.073   4.883
 1487TIP3    H1 4467   0.623   5.083   4.885
 1487TIP3    H2 4468   0.512   5.004   4.818
 1488TIP3   OH2 4469   5.997   5.074   4.403
 1488TIP3    H1 4470   5.982   5.113   4.489
 1488TIP3    H2 4471   5.921   5.100   4.351
 1489TIP3   OH2 4472   3.330   0.921   2.631
 1489TIP3    H1 4473   3.400   0.982   2.607
 1489TIP3    H2 4474   3.291   0.896   2.547
 1490TIP3   OH2 4475   3.075   3.203   1.737
 1490TIP3    H1 4476   3.161   3.216   1.698
 1490TIP3    H2 4477   3.059   3.282   1.789
 1491TIP3   OH2 4478   3.265   0.400   0.050
 1491TIP3    H1 4479   3.226   0.314   0.033
 1491TIP3    H2 4480   3.357   0.380   0.070
 1492TIP3   OH2 4481   2.929   2.596   1.299
 1492TIP3    H1 4482   2.998   2.660   1.283
 1492TIP3    H2 4483   2.897   2.616   1.387
 1493TIP3   OH2 4484   2.306   4.526   2.383
 1493TIP3    H1 4485   2.232   4.529   2.323
 1493TIP3    H2 4486   2.322   4.618   2.406
 1494TIP3   OH2 4487   6.297   1.274   2.284
 1494TIP3    H1 4488   6.241   1.202   2.254
 1494TIP3    H2 4489   6.340   1.240   2.362
 1495TIP3   OH2 4490   2.433   0.126   1.102
 1495TIP3    H1 4491   2.464   0.196   1.044
 1495TIP3    H2 4492   2.514   0.084   1.133
 1496TIP3   OH2 4493   2.813   3.174   1.207
 1496TIP3    H1 4494   2.734   3.198   1.257
 1496TIP3    H2 4495   2.794   3.203   1.118
 1497TIP3   OH2 4496   2.078   1.888   1.413
 1497TIP3    H1 4497   2.009   1.911   1.475
 1497TIP3    H2 4498   2.101   1.971   1.371
 1498TIP3   OH2 4499   1.271   3.312   4.022
 1498TIP3    H1 4500   1.354   3.272   4.047
 1498TIP3    H2 4501   1.263   3.389   4.079
 1499TIP3   OH2 4502   0.443   5.483   3.052
 1499TIP3    H1 4503   0.511   5.416   3.057
 1499TIP3    H2 4504   0.492   5.566   3.050
 1500TIP3   OH2 4505   4.955   3.668   2.218
 1500TIP3    H1 4506   4.883   3.605   2.214
 1500TIP3    H2 4507   5.025   3.627   2.167
 1501TIP3   OH2 4508   6.308   0.318   0.781
 1501TIP3    H1 4509   6.390   0.365   0.796
 1501TIP3    H2 4510   6.265   0.367   0.711
 1502TIP3   OH2 4511   1.507   1.421   1.597
 1502TIP3    H1 4512   1.565   1.416   1.672
 1502TIP3    H2 4513   1.542   1.357   1.535
 1503TIP3   OH2 4514   3.388   3.611   4.865
 1503TIP3    H1 4515   3.338   3.608   4.946
 1503TIP3    H2 4516   3.378   3.524   4.826
 1504TIP3   OH2 4517   2.404   0.859   3.250
 1504TIP3    H1 4518   2.404   0.926   3.182
 1504TIP3    H2 4519   2.412   0.908   3.332
 1505TIP3   OH2 4520   4.825   0.745   4.517
 1505TIP3    H1 4521   4.783   0.799   4.584
 1505TIP3    H2 4522   4.796   0.656   4.537
 1506TIP3   OH2 4523   4.644   2.927   3.278
 1506TIP3    H1 4524   4.704   2.906   3.207
 1506TIP3    H2 4525   4.700   2.966   3.345
 1507TIP3   OH2 4526   0.899   4.632   4.137
 1507TIP3    H1 4527   0.951   4.707   4.166
 1507TIP3    H2 4528   0.867   4.656   4.051
 1508TIP3   OH2 4529   1.963   3.298   2.304
 1508TIP3    H1 4530   1.968   3.203   2.298
 1508TIP3    H2 4531   1.929   3.314   2.393
 1509TIP3   OH2 4532   6.319   5.717   2.326
 1509TIP3    H1 4533   6.321   5.754   2.238
 1509TIP3    H2 4534   6.410   5.696   2.346
 1510TIP3   OH2 4535   5.457   2.972   1.035
 1510TIP3    H1 4536   5.548   2.944   1.024
 1510TIP3    H2 4537   5.406   2.890   1.029
 1511TIP3   OH2 4538   4.496   2.510   4.713
 1511TIP3    H1 4539   4.423   2.572   4.719
 1511TIP3    H2 4540   4.541   2.518   4.796
 1512TIP3   OH2 4541   2.753   5.084   4.738
 1512TIP3    H1 4542   2.786   5.013   4.794
 1512TIP3    H2 4543   2.660   5.066   4.730
 1513TIP3   OH2 4544   1.947   0.018   1.643
 1513TIP3    H1 4545   1.912  -0.059   1.597
 1513TIP3    H2 4546   1.948   0.087   1.577
 1514TIP3   OH2 4547   3.111   1.000   4.436
 1514TIP3    H1 4548   3.091   1.091   4.418
 1514TIP3    H2 4549   3.158   1.001   4.519
 1515TIP3   OH2 4550   6.075   3.592   2.121
 1515TIP3    H1 4551   5.988   3.609   2.157
 1515TIP3    H2 4552   6.081   3.496   2.116
 1516TIP3   OH2 4553   4.936   5.721   3.649
 1516TIP3    H1 4554   5.024   5.705   3.684
 1516TIP3    H2 4555   4.882   5.736   3.727
 1517TIP3   OH2 4556   2.202   4.457   4.115
 1517TIP3    H1 4557   2.180   4.542   4.076
 1517TIP3    H2 4558   2.120   4.408   4.114
 1518TIP3   OH2 4559   2.249   4.711   3.238
 1518TIP3    H1 4560   2.315   4.691   3.305
 1518TIP3    H2 4561   2.269   4.651   3.166
 1519TIP3   OH2 4562   2.126   4.808   3.503
 1519TIP3    H1 4563   2.135   4.833   3.411
 1519TIP3    H2 4564   2.210   4.831   3.543
 1520TIP3   OH2 4565   0.151   2.176   4.700
 1520TIP3    H1 4566   0.087   2.247   4.710
 1520TIP3    H2 4567   0.098   2.097   4.689
 1521TIP3   OH2 4568   3.340   0.781   3.792
 1521TIP3    H1 4569   3.257   0.777   3.744
 1521TIP3    H2 4570   3.316   0.810   3.880
 1522TIP3   OH2 4571   0.871   4.133   1.308
 1522TIP3    H1 4572   0.925   4.170   1.378
 1522TIP3    H2 4573   0.792   4.186   1.308
 1523TIP3   OH2 4574   0.296   2.847   2.289
 1523TIP3    H1 4575   0.356   2.829   2.362
 1523TIP3    H2 4576   0.301   2.942   2.278
 1524TIP3   OH2 4577   4.803   1.578   1.363
 1524TIP3    H1 4578   4.759   1.636   1.426
 1524TIP3    H2 4579   4.843   1.638   1.300
 1525TIP3   OH2 4580   0.080   2.704   5.142
 1525TIP3    H1 4581   0.067   2.648   5.066
 1525TIP3    H2 4582   0.092   2.792   5.106
 1526TIP3   OH2 4583   0.496   2.551   1.472
 1526TIP3    H1 4584   0.501   2.631   1.420
 1526TIP3    H2 4585   0.429   2.570   1.538
 1527TIP3   OH2 4586   2.642   2.224   0.187
 1527TIP3    H1 4587   2.639   2.136   0.149
 1527TIP3    H2 4588   2.719   2.264   0.148
 1528TIP3   OH2 4589   5.582   2.507   5.092
 1528TIP3    H1 4590   5.552   2.595   5.115
 1528TIP3    H2 4591   5.570   2.501   4.997
 1529TIP3   OH2 4592   0.956   2.236   4.162
 1529TIP3    H1 4593   0.864   2.253   4.140
 1529TIP3    H2 4594   1.004   2.306   4.116
 1530TIP3   OH2 4595   4.370   5.955   2.386
 1530TIP3    H1 4596   4.302   6.013   2.421
 1530TIP3    H2 4597   4.445   6.012   2.372
 1531TIP3   OH2 4598   5.467   2.461   4.837
 1531TIP3    H1 4599   5.394   2.400   4.840
 1531TIP3    H2 4600   5.439   2.529   4.776
 1532TIP3   OH2 4601   1.573   3.049   1.744
 1532TIP3    H1 4602   1.585   3.120   1.681
 1532TIP3    H2 4603   1.584   2.969   1.693
 1533TIP3   OH2 4604   3.483   4.603   2.544
 1533TIP3    H1 4605   3.487   4.554   2.463
 1533TIP3    H2 4606   3.572   4.600   2.578
 1534TIP3   OH2 4607   0.306   1.286   3.748
 1534TIP3    H1 4608   0.231   1.258   3.801
 1534TIP3    H2 4609   0.281   1.372   3.714
 1535TIP3   OH2 4610   6.052   5.841   1.452
 1535TIP3    H1 4611   6.136   5.803   1.428
 1535TIP3    H2 4612   5.998   5.766   1.480
 1536TIP3   OH2 4613   3.754   5.365   1.543
 1536TIP3    H1 4614   3.661   5.347   1.529
 1536TIP3    H2 4615   3.774   5.325   1.628
 1537TIP3   OH2 4616   0.579   5.869   3.940
 1537TIP3    H1 4617   0.593   5.785   3.896
 1537TIP3    H2 4618   0.666   5.899   3.965
 1538TIP3   OH2 4619   5.923   0.725   4.932
 1538TIP3    H1 4620   5.892   0.812   4.959
 1538TIP3    H2 4621   6.017   0.726   4.950
 1539TIP3   OH2 4622   6.313   2.448   0.349
 1539TIP3    H1 4623   6.326   2.364   0.393
 1539TIP3    H2 4624   6.379   2.450   0.279
 1540TIP3   OH2 4625   4.218   0.127   0.957
 1540TIP3    H1 4626   4.192   0.063   0.892
 1540TIP3    H2 4627   4.265   0.077   1.023
 1541TIP3   OH2 4628   3.046   1.244   0.465
 1541TIP3    H1 4629   3.130   1.215   0.430
 1541TIP3    H2 4630   2.991   1.257   0.388
 1542TIP3   OH2 4631   6.042   5.424   1.359
 1542TIP3    H1 4632   6.076   5.424   1.449
 1542TIP3    H2 4633   6.120   5.437   1.304
 1543TIP3   OH2 4634   5.961   3.894   1.535
 1543TIP3    H1 4635   5.881   3.916   1.583
 1543TIP3    H2 4636   6.026   3.879   1.603
 1544TIP3   OH2 4637   5.436   2.342   4.442
 1544TIP3    H1 4638   5.476   2.427   4.463
 1544TIP3    H2 4639   5.487   2.309   4.368
 1545TIP3   OH2 4640   2.217   3.060   3.959
 1545TIP3    H1 4641   2.268   3.114   4.020
 1545TIP3    H2 4642   2.280   3.036   3.891
 1546TIP3   OH2 4643   0.999   4.128   0.724
 1546TIP3    H1 4644   1.046   4.103   0.804
 1546TIP3    H2 4645   0.916   4.163   0.755
 1547TIP3   OH2 4646   0.492   1.200   3.094
 1547TIP3    H1 4647   0.574   1.218   3.140
 1547TIP3    H2 4648   0.439   1.279   3.107
 1548TIP3   OH2 4649   2.130   4.305   2.128
 1548TIP3    H1 4650   2.182   4.258   2.063
 1548TIP3    H2 4651   2.082   4.371   2.078
 1549TIP3   OH2 4652   2.433   4.725   4.408
 1549TIP3    H1 4653   2.376   4.795   4.440
 1549TIP3    H2 4654   2.465   4.758   4.324
 1550TIP3   OH2 4655   2.246   5.808   4.175
 1550TIP3    H1 4656   2.274   5.895   4.205
 1550TIP3    H2 4657   2.245   5.755   4.255
 1551TIP3   OH2 4658   2.407   4.278   0.600
 1551TIP3    H1 4659   2.354   4.344   0.645
 1551TIP3    H2 4660   2.404   4.202   0.657
 1552TIP3   OH2 4661   2.937   2.606   2.803
 1552TIP3    H1 4662   2.871   2.632   2.738
 1552TIP3    H2 4663   3.002   2.677   2.801
 1553TIP3   OH2 4664   3.212   5.597   4.122
 1553TIP3    H1 4665   3.227   5.651   4.200
 1553TIP3    H2 4666   3.228   5.507   4.151
 1554TIP3   OH2 4667   3.427   2.420   2.135
 1554TIP3    H1 4668   3.503   2.379   2.094
 1554TIP3    H2 4669   3.356   2.358   2.120
 1555TIP3   OH2 4670   2.058   1.078   4.299
 1555TIP3    H1 4671   2.148   1.080   4.330
 1555TIP3    H2 4672   2.044   1.165   4.262
 1556TIP3   OH2 4673   0.317   1.573   0.559
 1556TIP3    H1 4674   0.283   1.512   0.493
 1556TIP3    H2 4675   0.411   1.558   0.561
 1557TIP3   OH2 4676   1.574   5.323   2.087
 1557TIP3    H1 4677   1.659   5.304   2.128
 1557TIP3    H2 4678   1.534   5.237   2.074
 1558TIP3   OH2 4679   5.528   3.050   0.027
 1558TIP3    H1 4680   5.528   3.126  -0.030
 1558TIP3    H2 4681   5.605   3.000   0.001
 1559TIP3   OH2 4682   0.805   5.365   2.840
 1559TIP3    H1 4683   0.720   5.395   2.809
 1559TIP3    H2 4684   0.790   5.339   2.931
 1560TIP3   OH2 4685   4.714   2.294   2.507
 1560TIP3    H1 4686   4.668   2.377   2.494
 1560TIP3    H2 4687   4.804   2.319   2.524
 1561TIP3   OH2 4688   6.061   4.677   0.940
 1561TIP3    H1 4689   6.096   4.763   0.917
 1561TIP3    H2 4690   6.017   4.646   0.861
 1562TIP3   OH2 4691   4.661   4.292   2.316
 1562TIP3    H1 4692   4.749   4.306   2.283
 1562TIP3    H2 4693   4.672   4.259   2.405
 1563TIP3   OH2 4694   3.096   3.459   4.724
 1563TIP3    H1 4695   3.060   3.546   4.741
 1563TIP3    H2 4696   3.176   3.476   4.674
 1564TIP3   OH2 4697   0.103   0.289   1.565
 1564TIP3    H1 4698   0.064   0.202   1.565
 1564TIP3    H2 4699   0.050   0.339   1.503
 1565TIP3   OH2 4700   3.414   3.918   4.114
 1565TIP3    H1 4701   3.418   3.977   4.190
 1565TIP3    H2 4702   3.334   3.867   4.127
 1566TIP3   OH2 4703   1.093   0.964   4.363
 1566TIP3    H1 4704   1.011   1.012   4.370
 1566TIP3    H2 4705   1.131   0.993   4.280
 1567TIP3   OH2 4706   1.453   4.206   3.121
 1567TIP3    H1 4707   1.413   4.265   3.184
 1567TIP3    H2 4708   1.443   4.119   3.160
 1568TIP3   OH2 4709   3.351   4.269   0.939
 1568TIP3    H1 4710   3.444   4.266   0.962
 1568TIP3    H2 4711   3.306   4.235   1.016
 1569TIP3   OH2 4712   4.025   5.394   5.151
 1569TIP3    H1 4713   4.005   5.342   5.229
 1569TIP3    H2 4714   4.105   5.441   5.173
 1570TIP3   OH2 4715   4.786   3.800   1.276
 1570TIP3    H1 4716   4.860   3.744   1.256
 1570TIP3    H2 4717   4.722   3.741   1.316
 1571TIP3   OH2 4718   4.302   5.817   3.849
 1571TIP3    H1 4719   4.342   5.776   3.772
 1571TIP3    H2 4720   4.278   5.743   3.905
 1572TIP3   OH2 4721   2.773   4.259   2.591
 1572TIP3    H1 4722   2.679   4.276   2.594
 1572TIP3    H2 4723   2.780   4.168   2.564
 1573TIP3   OH2 4724   3.876   5.875   3.260
 1573TIP3    H1 4725   3.956   5.888   3.311
 1573TIP3    H2 4726   3.889   5.928   3.181
 1574TIP3   OH2 4727   1.956   3.365   3.839
 1574TIP3    H1 4728   1.988   3.444   3.795
 1574TIP3    H2 4729   1.998   3.367   3.925
 1575TIP3   OH2 4730   5.372   3.001   1.351
 1575TIP3    H1 4731   5.314   3.007   1.427
 1575TIP3    H2 4732   5.404   3.090   1.338
 1576TIP3   OH2 4733   6.363   0.001   1.619
 1576TIP3    H1 4734   6.381   0.038   1.705
 1576TIP3    H2 4735   6.281   0.041   1.592
 1577TIP3   OH2 4736   2.613   3.736   2.333
 1577TIP3    H1 4737   2.594   3.662   2.275
 1577TIP3    H2 4738   2.538   3.741   2.391
 1578TIP3   OH2 4739   5.943   2.917   4.490
 1578TIP3    H1 4740   5.985   2.971   4.423
 1578TIP3    H2 4741   5.969   2.827   4.469
 1579TIP3   OH2 4742   5.913   0.610   2.896
 1579TIP3    H1 4743   5.833   0.592   2.846
 1579TIP3    H2 4744   5.882   0.651   2.976
 1580TIP3   OH2 4745   1.465   4.322   2.111
 1580TIP3    H1 4746   1.378   4.331   2.072
 1580TIP3    H2 4747   1.525   4.328   2.036
 1581TIP3   OH2 4748   5.109   0.628   4.282
 1581TIP3    H1 4749   5.047   0.701   4.291
 1581TIP3    H2 4750   5.056   0.556   4.248
 1582TIP3   OH2 4751   1.970   0.180   2.670
 1582TIP3    H1 4752   1.953   0.214   2.582
 1582TIP3    H2 4753   1.896   0.211   2.722
 1583TIP3   OH2 4754   6.227   5.863   4.174
 1583TIP3    H1 4755   6.256   5.786   4.125
 1583TIP3    H2 4756   6.132   5.861   4.167
 1584TIP3   OH2 4757   2.508   4.275   2.645
 1584TIP3    H1 4758   2.488   4.339   2.714
 1584TIP3    H2 4759   2.423   4.248   2.612
 1585TIP3   OH2 4760   5.359   2.327   3.453
 1585TIP3    H1 4761   5.326   2.414   3.478
 1585TIP3    H2 4762   5.341   2.272   3.529
 1586TIP3   OH2 4763   0.643   4.790   2.791
 1586TIP3    H1 4764   0.613   4.738   2.865
 1586TIP3    H2 4765   0.573   4.781   2.726
 1587TIP3   OH2 4766   2.745   1.242   3.760
 1587TIP3    H1 4767   2.666   1.189   3.774
 1587TIP3    H2 4768   2.715   1.332   3.775
 1588TIP3   OH2 4769   5.026   3.975   4.666
 1588TIP3    H1 4770   5.012   3.953   4.574
 1588TIP3    H2 4771   5.107   3.930   4.689
 1589TIP3   OH2 4772   0.817   2.609   4.628
 1589TIP3    H1 4773   0.736   2.660   4.628
 1589TIP3    H2 4774   0.814   2.560   4.711
 1590TIP3   OH2 4775   0.348   3.186   3.359
 1590TIP3    H1 4776   0.278   3.236   3.400
 1590TIP3    H2 4777   0.373   3.121   3.425
 1591TIP3   OH2 4778   2.699   1.832   2.436
 1591TIP3    H1 4779   2.627   1.887   2.466
 1591TIP3    H2 4780   2.677   1.810   2.346
 1592TIP3   OH2 4781   3.497   3.372   3.003
 1592TIP3    H1 4782   3.445   3.311   3.054
 1592TIP3    H2 4783   3.542   3.318   2.938
 1593TIP3   OH2 4784   4.067   1.315   2.775
 1593TIP3    H1 4785   4.037   1.309   2.684
 1593TIP3    H2 4786   4.106   1.229   2.792
 1594TIP3   OH2 4787   0.952   3.247   3.803
 1594TIP3    H1 4788   1.044   3.270   3.793
 1594TIP3    H2 4789   0.950   3.151   3.799
 1595TIP3   OH2 4790   0.972   2.632   0.273
 1595TIP3    H1 4791   0.925   2.587   0.202
 1595TIP3    H2 4792   1.040   2.570   0.300
 1596TIP3   OH2 4793   3.807   0.463   2.475
 1596TIP3    H1 4794   3.712   0.470   2.484
 1596TIP3    H2 4795   3.843   0.531   2.532
 1597TIP3   OH2 4796   2.183   5.463   1.437
 1597TIP3    H1 4797   2.160   5.398   1.371
 1597TIP3    H2 4798   2.279   5.468   1.432
 1598TIP3   OH2 4799   2.067   2.478   0.462
 1598TIP3    H1 4800   2.083   2.478   0.368
 1598TIP3    H2 4801   2.154   2.465   0.502
 1599TIP3   OH2 4802   4.052   2.068   4.969
 1599TIP3    H1 4803   4.025   2.022   5.049
 1599TIP3    H2 4804   3.993   2.143   4.965
 1600TIP3   OH2 4805   4.042   2.650   3.995
 1600TIP3    H1 4806   4.133   2.636   4.023
 1600TIP3    H2 4807   4.036   2.605   3.911
 1601TIP3   OH2 4808   5.482   2.998   4.860
 1601TIP3    H1 4809   5.444   2.914   4.834
 1601TIP3    H2 4810   5.555   2.974   4.918
 1602TIP3   OH2 4811   5.442   2.732   4.747
 1602TIP3    H1 4812   5.433   2.757   4.655
 1602TIP3    H2 4813   5.536   2.713   4.757
 1603TIP3   OH2 4814   0.242   0.839   0.009
 1603TIP3    H1 4815   0.174   0.780   0.041
 1603TIP3    H2 4816   0.203   0.884  -0.065
 1604TIP3   OH2 4817   1.866   5.731   2.216
 1604TIP3    H1 4818   1.912   5.650   2.238
 1604TIP3    H2 4819   1.848   5.724   2.123
 1605TIP3   OH2 4820   1.189   5.323   2.426
 1605TIP3    H1 4821   1.266   5.273   2.399
 1605TIP3    H2 4822   1.158   5.278   2.504
 1606TIP3   OH2 4823   3.203   5.649   4.611
 1606TIP3    H1 4824   3.292   5.683   4.620
 1606TIP3    H2 4825   3.171   5.641   4.701
 1607TIP3   OH2 4826   3.019   1.680   0.364
 1607TIP3    H1 4827   3.076   1.652   0.292
 1607TIP3    H2 4828   3.039   1.620   0.436
 1608TIP3   OH2 4829   4.639   2.896   2.225
 1608TIP3    H1 4830   4.708   2.861   2.168
 1608TIP3    H2 4831   4.643   2.842   2.304
 1609TIP3   OH2 4832   4.174   3.412   4.368
 1609TIP3    H1 4833   4.091   3.381   4.332
 1609TIP3    H2 4834   4.151   3.495   4.411
 1610TIP3   OH2 4835   0.078   3.374   1.225
 1610TIP3    H1 4836   0.122   3.457   1.246
 1610TIP3    H2 4837  -0.001   3.400   1.178
 1611TIP3   OH2 4838   3.237   3.372   4.153
 1611TIP3    H1 4839   3.202   3.423   4.226
 1611TIP3    H2 4840   3.165   3.365   4.091
 1612TIP3   OH2 4841   4.280   4.631   3.537
 1612TIP3    H1 4842   4.266   4.652   3.630
 1612TIP3    H2 4843   4.192   4.632   3.500
 1613TIP3   OH2 4844   1.244   4.356   4.822
 1613TIP3    H1 4845   1.168   4.299   4.810
 1613TIP3    H2 4846   1.230   4.399   4.906
 1614TIP3   OH2 4847   1.788   1.672   1.912
 1614TIP3    H1 4848   1.738   1.629   1.842
 1614TIP3    H2 4849   1.750   1.637   1.993
 1615TIP3   OH2 4850   2.926   4.513   3.308
 1615TIP3    H1 4851   3.002   4.503   3.251
 1615TIP3    H2 4852   2.960   4.562   3.383
 1616TIP3   OH2 4853   1.786   3.423   2.126
 1616TIP3    H1 4854   1.785   3.389   2.037
 1616TIP3    H2 4855   1.864   3.384   2.166
 1617TIP3   OH2 4856   0.670   2.195   4.130
 1617TIP3    H1 4857   0.625   2.188   4.215
 1617TIP3    H2 4858   0.706   2.108   4.114
 1618TIP3   OH2 4859   4.381   3.040   3.285
 1618TIP3    H1 4860   4.389   3.119   3.339
 1618TIP3    H2 4861   4.469   3.003   3.284
 1619TIP3   OH2 4862   4.655   4.761   1.468
 1619TIP3    H1 4863   4.624   4.765   1.558
 1619TIP3    H2 4864   4.604   4.691   1.428
 1620TIP3   OH2 4865   3.068   3.426   4.393
 1620TIP3    H1 4866   3.008   3.500   4.387
 1620TIP3    H2 4867   3.131   3.451   4.461
 1621TIP3   OH2 4868   5.538   4.706   1.260
 1621TIP3    H1 4869   5.537   4.758   1.340
 1621TIP3    H2 4870   5.605   4.639   1.276
 1622TIP3   OH2 4871   5.976   0.212   4.519
 1622TIP3    H1 4872   6.016   0.142   4.468
 1622TIP3    H2 4873   6.050   0.259   4.557
 1623TIP3   OH2 4874   0.907   3.343   3.351
 1623TIP3    H1 4875   0.895   3.414   3.288
 1623TIP3    H2 4876   0.825   3.294   3.348
 1624TIP3   OH2 4877   0.881   1.449   3.665
 1624TIP3    H1 4878   0.948   1.518   3.665
 1624TIP3    H2 4879   0.911   1.388   3.732
 1625TIP3   OH2 4880   1.652   2.521   0.842
 1625TIP3    H1 4881   1.642   2.491   0.932
 1625TIP3    H2 4882   1.713   2.595   0.847
 1626TIP3   OH2 4883   0.840   3.545   4.100
 1626TIP3    H1 4884   0.868   3.578   4.186
 1626TIP3    H2 4885   0.761   3.595   4.080
 1627TIP3   OH2 4886   5.973   0.876   0.706
 1627TIP3    H1 4887   6.017   0.793   0.726
 1627TIP3    H2 4888   6.037   0.943   0.729
 1628TIP3   OH2 4889   0.473   0.318   3.581
 1628TIP3    H1 4890   0.522   0.295   3.503
 1628TIP3    H2 4891   0.386   0.279   3.568
 1629TIP3   OH2 4892   0.421   0.870   4.436
 1629TIP3    H1 4893   0.491   0.805   4.445
 1629TIP3    H2 4894   0.345   0.819   4.408
 1630TIP3   OH2 4895   4.575   0.640   0.357
 1630TIP3    H1 4896   4.557   0.731   0.333
 1630TIP3    H2 4897   4.490   0.597   0.359
 1631TIP3   OH2 4898   1.396   0.294   0.692
 1631TIP3    H1 4899   1.392   0.206   0.654
 1631TIP3    H2 4900   1.461   0.287   0.762
 1632TIP3   OH2 4901   4.717   1.294   1.387
 1632TIP3    H1 4902   4.626   1.301   1.415
 1632TIP3    H2 4903   4.756   1.379   1.410
 1633TIP3   OH2 4904   5.447   1.966   4.991
 1633TIP3    H1 4905   5.389   1.924   4.928
 1633TIP3    H2 4906   5.473   1.896   5.051
 1634TIP3   OH2 4907   4.493   5.934   0.869
 1634TIP3    H1 4908   4.498   5.968   0.958
 1634TIP3    H2 4909   4.422   5.869   0.872
 1635TIP3   OH2 4910   2.936   3.667   4.354
 1635TIP3    H1 4911   2.853   3.692   4.395
 1635TIP3    H2 4912   2.974   3.750   4.325
 1636TIP3   OH2 4913   1.950   2.202   2.431
 1636TIP3    H1 4914   1.955   2.275   2.369
 1636TIP3    H2 4915   1.933   2.126   2.376
 1637TIP3   OH2 4916   3.143   1.901   1.764
 1637TIP3    H1 4917   3.077   1.907   1.694
 1637TIP3    H2 4918   3.209   1.840   1.729
 1638TIP3   OH2 4919   3.491   2.274   4.171
 1638TIP3    H1 4920   3.434   2.198   4.182
 1638TIP3    H2 4921   3.443   2.346   4.212
 1639TIP3   OH2 4922   0.214   0.085   2.979
 1639TIP3    H1 4923   0.189   0.148   3.046
 1639TIP3    H2 4924   0.209   0.133   2.897
 1640TIP3   OH2 4925   5.373   2.929   0.639
 1640TIP3    H1 4926   5.284   2.962   0.645
 1640TIP3    H2 4927   5.394   2.932   0.545
 1641TIP3   OH2 4928   4.498   5.536   2.330
 1641TIP3    H1 4929   4.576   5.570   2.373
 1641TIP3    H2 4930   4.529   5.507   2.244
 1642TIP3   OH2 4931   0.051   4.331   1.455
 1642TIP3    H1 4932   0.098   4.390   1.395
 1642TIP3    H2 4933   0.012   4.265   1.398
 1643TIP3   OH2 4934   4.343   4.480   4.646
 1643TIP3    H1 4935   4.310   4.561   4.685
 1643TIP3    H2 4936   4.434   4.475   4.676
 1644TIP3   OH2 4937   3.856   1.605   3.116
 1644TIP3    H1 4938   3.866   1.550   3.038
 1644TIP3    H2 4939   3.892   1.552   3.187
 1645TIP3   OH2 4940   5.726   3.525   2.460
 1645TIP3    H1 4941   5.715   3.443   2.508
 1645TIP3    H2 4942   5.641   3.568   2.466
 1646TIP3   OH2 4943   1.144   4.851   4.100
 1646TIP3    H1 4944   1.185   4.806   4.173
 1646TIP3    H2 4945   1.119   4.936   4.135
 1647TIP3   OH2 4946   0.327   3.307   2.648
 1647TIP3    H1 4947   0.311   3.392   2.689
 1647TIP3    H2 4948   0.241   3.267   2.641
 1648TIP3   OH2 4949   1.766   5.623   0.972
 1648TIP3    H1 4950   1.697   5.558   0.961
 1648TIP3    H2 4951   1.815   5.593   1.049
 1649TIP3   OH2 4952   3.410   0.636   1.953
 1649TIP3    H1 4953   3.421   0.721   1.995
 1649TIP3    H2 4954   3.365   0.583   2.019
 1650TIP3   OH2 4955   5.717   0.349   0.627
 1650TIP3    H1 4956   5.712   0.293   0.704
 1650TIP3    H2 4957   5.716   0.438   0.663
 1651TIP3   OH2 4958   1.840   3.245   0.542
 1651TIP3    H1 4959   1.775   3.175   0.555
 1651TIP3    H2 4960   1.789   3.319   0.509
 1652TIP3   OH2 4961   4.719   2.984   1.256
 1652TIP3    H1 4962   4.807   2.946   1.256
 1652TIP3    H2 4963   4.690   2.976   1.165
 1653TIP3   OH2 4964   5.723   1.872   1.489
 1653TIP3    H1 4965   5.734   1.922   1.408
 1653TIP3    H2 4966   5.765   1.788   1.470
 1654TIP3   OH2 4967   5.970   4.428   2.619
 1654TIP3    H1 4968   5.970   4.452   2.712
 1654TIP3    H2 4969   5.900   4.363   2.611
 1655TIP3   OH2 4970   4.356   2.600   2.296
 1655TIP3    H1 4971   4.451   2.605   2.292
 1655TIP3    H2 4972   4.333   2.524   2.241
 1656TIP3   OH2 4973   3.448   3.582   2.620
 1656TIP3    H1 4974   3.432   3.543   2.706
 1656TIP3    H2 4975   3.375   3.553   2.566
 1657TIP3   OH2 4976   3.202   0.219   4.804
 1657TIP3    H1 4977   3.251   0.137   4.815
 1657TIP3    H2 4978   3.113   0.197   4.831
 1658TIP3   OH2 4979   4.403   1.399   3.124
 1658TIP3    H1 4980   4.349   1.329   3.086
 1658TIP3    H2 4981   4.432   1.450   3.049
 1659TIP3   OH2 4982   0.878   5.084   1.781
 1659TIP3    H1 4983   0.799   5.055   1.828
 1659TIP3    H2 4984   0.950   5.043   1.829
 1660TIP3   OH2 4985   3.609   0.508   1.054
 1660TIP3    H1 4986   3.583   0.505   1.146
 1660TIP3    H2 4987   3.553   0.575   1.016
 1661TIP3   OH2 4988   2.004   5.212   1.588
 1661TIP3    H1 4989   1.918   5.250   1.605
 1661TIP3    H2 4990   2.064   5.287   1.594
 1662TIP3   OH2 4991   2.761   2.065   3.764
 1662TIP3    H1 4992   2.723   2.147   3.734
 1662TIP3    H2 4993   2.845   2.059   3.718
 1663TIP3   OH2 4994   1.625   2.182   1.253
 1663TIP3    H1 4995   1.666   2.184   1.166
 1663TIP3    H2 4996   1.549   2.125   1.242
 1664TIP3   OH2 4997   0.674   3.306   1.777
 1664TIP3    H1 4998   0.653   3.293   1.685
 1664TIP3    H2 4999   0.594   3.343   1.814
 1665TIP3   OH2 5000   0.787   3.646   5.049
 1665TIP3    H1 5001   0.694   3.644   5.023
 1665TIP3    H2 5002   0.823   3.564   5.014
 1666TIP3   OH2 5003   4.963   3.824   3.441
 1666TIP3    H1 5004   4.867   3.821   3.442
 1666TIP3    H2 5005   4.985   3.890   3.507
 1667TIP3   OH2 5006   6.274   5.012   4.977
 1667TIP3    H1 5007   6.331   5.086   4.953
 1667TIP3    H2 5008   6.293   4.946   4.911
 1668TIP3   OH2 5009   0.436   5.770   2.692
 1668TIP3    H1 5010   0.355   5.798   2.649
 1668TIP3    H2 5011   0.493   5.743   2.620
 1669TIP3   OH2 5012   3.070   1.195   0.070
 1669TIP3    H1 5013   3.001   1.130   0.059
 1669TIP3    H2 5014   3.044   1.246   0.146
 1670TIP3   OH2 5015   1.866   0.575   5.155
 1670TIP3    H1 5016   1.938   0.619   5.111
 1670TIP3    H2 5017   1.840   0.505   5.095
 1671TIP3   OH2 5018   0.497   5.672   2.453
 1671TIP3    H1 5019   0.496   5.578   2.472
 1671TIP3    H2 5020   0.537   5.678   2.366
 1672TIP3   OH2 5021   5.917   1.965   2.725
 1672TIP3    H1 5022   5.823   1.979   2.712
 1672TIP3    H2 5023   5.948   2.046   2.767
 1673TIP3   OH2 5024   5.842   2.695   0.909
 1673TIP3    H1 5025   5.810   2.678   0.820
 1673TIP3    H2 5026   5.913   2.631   0.921
 1674TIP3   OH2 5027   3.775   0.275   4.581
 1674TIP3    H1 5028   3.692   0.308   4.549
 1674TIP3    H2 5029   3.775   0.182   4.556
 1675TIP3   OH2 5030   5.155   3.779   0.408
 1675TIP3    H1 5031   5.222   3.733   0.458
 1675TIP3    H2 5032   5.077   3.775   0.463
 1676TIP3   OH2 5033   1.319   0.499   0.927
 1676TIP3    H1 5034   1.323   0.595   0.929
 1676TIP3    H2 5035   1.407   0.473   0.898
 1677TIP3   OH2 5036   0.893   2.169   1.534
 1677TIP3    H1 5037   0.854   2.202   1.615
 1677TIP3    H2 5038   0.891   2.074   1.543
 1678TIP3   OH2 5039   2.041   1.238   2.623
 1678TIP3    H1 5040   2.111   1.240   2.557
 1678TIP3    H2 5041   1.987   1.163   2.597
 1679TIP3   OH2 5042   4.616   2.789   1.439
 1679TIP3    H1 5043   4.613   2.731   1.363
 1679TIP3    H2 5044   4.629   2.876   1.402
 1680TIP3   OH2 5045   3.295   2.714   0.633
 1680TIP3    H1 5046   3.223   2.729   0.694
 1680TIP3    H2 5047   3.255   2.721   0.546
 1681TIP3   OH2 5048   0.967   3.425   0.685
 1681TIP3    H1 5049   1.021   3.406   0.608
 1681TIP3    H2 5050   1.019   3.485   0.738
 1682TIP3   OH2 5051   4.753   5.954   5.043
 1682TIP3    H1 5052   4.680   5.976   4.985
 1682TIP3    H2 5053   4.817   5.912   4.985
 1683TIP3   OH2 5054   3.412   0.280   1.426
 1683TIP3    H1 5055   3.447   0.203   1.470
 1683TIP3    H2 5056   3.318   0.278   1.445
 1684TIP3   OH2 5057   4.193   0.604   2.280
 1684TIP3    H1 5058   4.278   0.646   2.269
 1684TIP3    H2 5059   4.195   0.530   2.219
 1685TIP3   OH2 5060   6.250   1.914   1.292
 1685TIP3    H1 5061   6.325   1.968   1.316
 1685TIP3    H2 5062   6.174   1.969   1.310
 1686TIP3   OH2 5063   3.242   4.862   1.828
 1686TIP3    H1 5064   3.289   4.913   1.893
 1686TIP3    H2 5065   3.243   4.916   1.749
 1687TIP3   OH2 5066   5.024   0.025   3.974
 1687TIP3    H1 5067   5.062  -0.056   3.941
 1687TIP3    H2 5068   5.099   0.082   3.989
 1688TIP3   OH2 5069   5.658   2.623   2.802
 1688TIP3    H1 5070   5.681   2.668   2.721
 1688TIP3    H2 5071   5.688   2.681   2.871
 1689TIP3   OH2 5072   6.197   4.008   1.262
 1689TIP3    H1 5073   6.129   4.075   1.264
 1689TIP3    H2 5074   6.150   3.927   1.239
 1690TIP3   OH2 5075   4.236   4.646   3.825
 1690TIP3    H1 5076   4.166   4.586   3.799
 1690TIP3    H2 5077   4.218   4.664   3.917
 1691TIP3   OH2 5078   0.997   5.444   3.781
 1691TIP3    H1 5079   0.972   5.532   3.751
 1691TIP3    H2 5080   0.914   5.400   3.798
 1692TIP3   OH2 5081   3.491   4.601   5.052
 1692TIP3    H1 5082   3.586   4.611   5.047
 1692TIP3    H2 5083   3.479   4.529   5.114
 1693TIP3   OH2 5084   2.448   0.196   4.186
 1693TIP3    H1 5085   2.522   0.251   4.163
 1693TIP3    H2 5086   2.416   0.162   4.102
 1694TIP3   OH2 5087   6.138   3.309   4.374
 1694TIP3    H1 5088   6.204   3.250   4.338
 1694TIP3    H2 5089   6.146   3.389   4.322
 1695TIP3   OH2 5090   3.903   3.779   0.524
 1695TIP3    H1 5091   3.861   3.757   0.607
 1695TIP3    H2 5092   3.833   3.820   0.472
 1696TIP3   OH2 5093   0.378   5.956   2.885
 1696TIP3    H1 5094   0.286   5.929   2.892
 1696TIP3    H2 5095   0.416   5.895   2.821
 1697TIP3   OH2 5096   0.906   1.922   0.633
 1697TIP3    H1 5097   0.879   1.993   0.574
 1697TIP3    H2 5098   0.871   1.947   0.719
 1698TIP3   OH2 5099   2.011   4.932   2.087
 1698TIP3    H1 5100   1.922   4.900   2.096
 1698TIP3    H2 5101   2.006   5.002   2.021
 1699TIP3   OH2 5102   1.663   5.344   4.285
 1699TIP3    H1 5103   1.629   5.255   4.297
 1699TIP3    H2 5104   1.703   5.343   4.198
 1700TIP3   OH2 5105   4.509   2.650   2.037
 1700TIP3    H1 5106   4.473   2.738   2.051
 1700TIP3    H2 5107   4.471   2.622   1.954
 1701TIP3   OH2 5108   1.149   5.751   4.691
 1701TIP3    H1 5109   1.074   5.809   4.677
 1701TIP3    H2 5110   1.120   5.665   4.659
 1702TIP3   OH2 5111   1.008   2.364   5.008
 1702TIP3    H1 5112   1.087   2.413   4.984
 1702TIP3    H2 5113   1.022   2.341   5.100
 1703TIP3   OH2 5114   3.005   1.660   3.958
 1703TIP3    H1 5115   3.078   1.722   3.950
 1703TIP3    H2 5116   3.048   1.576   3.977
 1704TIP3   OH2 5117   2.961   5.255   4.248
 1704TIP3    H1 5118   2.902   5.185   4.219
 1704TIP3    H2 5119   3.010   5.280   4.170
 1705TIP3   OH2 5120   5.376   1.750   4.866
 1705TIP3    H1 5121   5.293   1.783   4.830
 1705TIP3    H2 5122   5.356   1.661   4.892
 1706TIP3   OH2 5123   3.938   2.920   2.258
 1706TIP3    H1 5124   3.851   2.901   2.223
 1706TIP3    H2 5125   3.923   2.944   2.350
 1707TIP3   OH2 5126   0.464   2.956   1.697
 1707TIP3    H1 5127   0.451   3.036   1.747
 1707TIP3    H2 5128   0.375   2.928   1.674
 1708TIP3   OH2 5129   1.098   2.427   3.169
 1708TIP3    H1 5130   1.060   2.388   3.248
 1708TIP3    H2 5131   1.185   2.388   3.162
 1709TIP3   OH2 5132   4.808   1.747   2.605
 1709TIP3    H1 5133   4.837   1.837   2.618
 1709TIP3    H2 5134   4.716   1.756   2.578
 1710TIP3   OH2 5135   1.114   0.767   1.373
 1710TIP3    H1 5136   1.023   0.764   1.342
 1710TIP3    H2 5137   1.159   0.701   1.321
 1711TIP3   OH2 5138   1.002   4.922   4.734
 1711TIP3    H1 5139   0.960   4.855   4.787
 1711TIP3    H2 5140   1.026   4.990   4.797
 1712TIP3   OH2 5141   3.738   0.873   2.404
 1712TIP3    H1 5142   3.755   0.800   2.463
 1712TIP3    H2 5143   3.795   0.857   2.329
 1713TIP3   OH2 5144   5.270   2.594   0.974
 1713TIP3    H1 5145   5.338   2.654   1.006
 1713TIP3    H2 5146   5.315   2.511   0.961
 1714TIP3   OH2 5147   2.362   1.479   2.570
 1714TIP3    H1 5148   2.422   1.519   2.634
 1714TIP3    H2 5149   2.285   1.536   2.572
 1715TIP3   OH2 5150   1.131   5.806   1.654
 1715TIP3    H1 5151   1.055   5.833   1.603
 1715TIP3    H2 5152   1.167   5.731   1.605
 1716TIP3   OH2 5153   0.912   4.053   2.575
 1716TIP3    H1 5154   0.828   4.011   2.558
 1716TIP3    H2 5155   0.950   4.067   2.488
 1717TIP3   OH2 5156   0.942   5.987   0.791
 1717TIP3    H1 5157   0.975   5.908   0.749
 1717TIP3    H2 5158   1.017   6.021   0.841
 1718TIP3   OH2 5159   2.382   1.321   1.344
 1718TIP3    H1 5160   2.475   1.300   1.346
 1718TIP3    H2 5161   2.373   1.384   1.272
 1719TIP3   OH2 5162   3.385   2.285   3.392
 1719TIP3    H1 5163   3.472   2.253   3.416
 1719TIP3    H2 5164   3.397   2.379   3.375
 1720TIP3   OH2 5165   0.838   0.153   1.393
 1720TIP3    H1 5166   0.821   0.241   1.426
 1720TIP3    H2 5167   0.932   0.152   1.375
 1721TIP3   OH2 5168   3.959   5.613   4.204
 1721TIP3    H1 5169   3.962   5.537   4.146
 1721TIP3    H2 5170   3.866   5.632   4.214
 1722TIP3   OH2 5171   5.823   2.969   3.315
 1722TIP3    H1 5172   5.770   2.973   3.394
 1722TIP3    H2 5173   5.790   3.041   3.260
 1723TIP3   OH2 5174   5.680   1.598   2.147
 1723TIP3    H1 5175   5.610   1.608   2.212
 1723TIP3    H2 5176   5.660   1.516   2.102
 1724TIP3   OH2 5177   6.135   1.128   1.383
 1724TIP3    H1 5178   6.074   1.151   1.312
 1724TIP3    H2 5179   6.085   1.069   1.439
 1725TIP3   OH2 5180   4.549   0.930   3.786
 1725TIP3    H1 5181   4.538   0.948   3.693
 1725TIP3    H2 5182   4.471   0.879   3.810
 1726TIP3   OH2 5183   2.537   1.358   4.662
 1726TIP3    H1 5184   2.526   1.273   4.619
 1726TIP3    H2 5185   2.532   1.338   4.756
 1727TIP3   OH2 5186   6.080   1.108   4.661
 1727TIP3    H1 5187   6.158   1.164   4.656
 1727TIP3    H2 5188   6.057   1.090   4.570
 1728TIP3   OH2 5189   4.859   2.460   4.081
 1728TIP3    H1 5190   4.856   2.540   4.134
 1728TIP3    H2 5191   4.851   2.491   3.991
 1729TIP3   OH2 5192   3.885   2.394   4.370
 1729TIP3    H1 5193   3.859   2.449   4.444
 1729TIP3    H2 5194   3.969   2.357   4.396
 1730TIP3   OH2 5195   0.985   3.908   1.162
 1730TIP3    H1 5196   0.948   3.983   1.209
 1730TIP3    H2 5197   1.038   3.948   1.093
 1731TIP3   OH2 5198   5.789   3.860   2.917
 1731TIP3    H1 5199   5.793   3.916   2.840
 1731TIP3    H2 5200   5.781   3.771   2.882
 1732TIP3   OH2 5201   6.047   4.979   0.524
 1732TIP3    H1 5202   6.093   4.909   0.478
 1732TIP3    H2 5203   5.959   4.980   0.486
 1733TIP3   OH2 5204   6.108   4.955   3.293
 1733TIP3    H1 5205   6.105   4.861   3.314
 1733TIP3    H2 5206   6.027   4.990   3.329
 1734TIP3   OH2 5207   2.650   4.104   2.845
 1734TIP3    H1 5208   2.707   4.135   2.776
 1734TIP3    H2 5209   2.597   4.180   2.869
 1735TIP3   OH2 5210   0.036   3.082   3.382
 1735TIP3    H1 5211  -0.055   3.100   3.407
 1735TIP3    H2 5212   0.051   2.992   3.409
 1736TIP3   OH2 5213   6.297   1.648   4.916
 1736TIP3    H1 5214   6.319   1.701   4.993
 1736TIP3    H2 5215   6.243   1.577   4.951
 1737TIP3   OH2 5216   3.410   2.624   0.891
 1737TIP3    H1 5217   3.438   2.601   0.802
 1737TIP3    H2 5218   3.470   2.575   0.948
 1738TIP3   OH2 5219   4.790   2.132   2.284
 1738TIP3    H1 5220   4.724   2.183   2.331
 1738TIP3    H2 5221   4.794   2.172   2.197
 1739TIP3   OH2 5222   4.640   0.348   1.138
 1739TIP3    H1 5223   4.704   0.376   1.204
 1739TIP3    H2 5224   4.632   0.423   1.080
 1740TIP3   OH2 5225   4.732   3.999   0.056
 1740TIP3    H1 5226   4.646   4.034   0.032
 1740TIP3    H2 5227   4.785   4.009  -0.023
 1741TIP3   OH2 5228   1.920   2.591   3.896
 1741TIP3    H1 5229   1.915   2.511   3.844
 1741TIP3    H2 5230   2.006   2.587   3.938
 1742TIP3   OH2 5231   6.272   2.583   4.955
 1742TIP3    H1 5232   6.270   2.588   5.051
 1742TIP3    H2 5233   6.237   2.668   4.926
 1743TIP3   OH2 5234   3.352   1.339   4.065
 1743TIP3    H1 5235   3.360   1.317   4.157
 1743TIP3    H2 5236   3.263   1.373   4.056
 1744TIP3   OH2 5237   5.104   0.342   2.187
 1744TIP3    H1 5238   5.151   0.378   2.263
 1744TIP3    H2 5239   5.107   0.412   2.122
 1745TIP3   OH2 5240   0.276   5.880   3.506
 1745TIP3    H1 5241   0.237   5.966   3.525
 1745TIP3    H2 5242   0.361   5.882   3.550
 1746TIP3   OH2 5243   3.783   0.934   4.771
 1746TIP3    H1 5244   3.737   0.988   4.836
 1746TIP3    H2 5245   3.876   0.952   4.788
 1747TIP3   OH2 5246   0.190   5.040   4.746
 1747TIP3    H1 5247   0.150   4.997   4.671
 1747TIP3    H2 5248   0.258   4.978   4.775
 1748TIP3   OH2 5249   5.207   5.639   1.505
 1748TIP3    H1 5250   5.252   5.561   1.474
 1748TIP3    H2 5251   5.218   5.703   1.434
 1749TIP3   OH2 5252   3.268   0.222   3.027
 1749TIP3    H1 5253   3.266   0.317   3.040
 1749TIP3    H2 5254   3.279   0.212   2.932
 1750TIP3   OH2 5255   2.630   2.813   4.701
 1750TIP3    H1 5256   2.544   2.854   4.694
 1750TIP3    H2 5257   2.618   2.744   4.767
 1751TIP3   OH2 5258   4.735   3.476   2.169
 1751TIP3    H1 5259   4.739   3.381   2.163
 1751TIP3    H2 5260   4.695   3.493   2.255
 1752TIP3   OH2 5261   1.226   0.775   2.872
 1752TIP3    H1 5262   1.252   0.746   2.784
 1752TIP3    H2 5263   1.285   0.848   2.890
 1753TIP3   OH2 5264   3.788   5.125   3.783
 1753TIP3    H1 5265   3.715   5.104   3.725
 1753TIP3    H2 5266   3.835   5.195   3.738
 1754TIP3   OH2 5267   4.963   5.248   2.955
 1754TIP3    H1 5268   4.883   5.265   2.906
 1754TIP3    H2 5269   4.950   5.295   3.038
 1755TIP3   OH2 5270   5.000   4.865   0.205
 1755TIP3    H1 5271   4.956   4.783   0.224
 1755TIP3    H2 5272   5.094   4.844   0.208
 1756TIP3   OH2 5273   3.993   4.528   1.351
 1756TIP3    H1 5274   4.056   4.461   1.379
 1756TIP3    H2 5275   3.908   4.483   1.353
 1757TIP3   OH2 5276   1.956   5.355   3.212
 1757TIP3    H1 5277   1.930   5.295   3.282
 1757TIP3    H2 5278   2.007   5.422   3.256
 1758TIP3   OH2 5279   5.799   5.622   2.951
 1758TIP3    H1 5280   5.827   5.532   2.933
 1758TIP3    H2 5281   5.752   5.648   2.872
 1759TIP3   OH2 5282   5.923   4.909   2.957
 1759TIP3    H1 5283   5.928   4.837   3.020
 1759TIP3    H2 5284   5.954   4.871   2.875
 1760TIP3   OH2 5285   1.223   4.412   3.897
 1760TIP3    H1 5286   1.305   4.460   3.909
 1760TIP3    H2 5287   1.178   4.419   3.981
 1761TIP3   OH2 5288   5.910   0.676   3.935
 1761TIP3    H1 5289   5.820   0.709   3.942
 1761TIP3    H2 5290   5.901   0.589   3.896
 1762TIP3   OH2 5291   3.220   5.275   4.095
 1762TIP3    H1 5292   3.223   5.180   4.098
 1762TIP3    H2 5293   3.311   5.303   4.093
 1763TIP3   OH2 5294   2.145   4.532   4.817
 1763TIP3    H1 5295   2.163   4.560   4.907
 1763TIP3    H2 5296   2.200   4.589   4.763
 1764TIP3   OH2 5297   0.522   3.629   1.089
 1764TIP3    H1 5298   0.578   3.691   1.136
 1764TIP3    H2 5299   0.436   3.639   1.131
 1765TIP3   OH2 5300   4.325   4.645   0.277
 1765TIP3    H1 5301   4.417   4.664   0.296
 1765TIP3    H2 5302   4.298   4.716   0.218
 1766TIP3   OH2 5303   3.310   2.309   4.440
 1766TIP3    H1 5304   3.369   2.240   4.473
 1766TIP3    H2 5305   3.239   2.312   4.504
 1767TIP3   OH2 5306   5.534   5.868   3.260
 1767TIP3    H1 5307   5.602   5.804   3.237
 1767TIP3    H2 5308   5.516   5.914   3.178
 1768TIP3   OH2 5309   5.657   1.092   0.406
 1768TIP3    H1 5310   5.669   1.159   0.338
 1768TIP3    H2 5311   5.586   1.037   0.373
 1769TIP3   OH2 5312   1.777   1.919   3.737
 1769TIP3    H1 5313   1.802   1.854   3.802
 1769TIP3    H2 5314   1.689   1.893   3.710
 1770TIP3   OH2 5315   0.536   3.669   4.801
 1770TIP3    H1 5316   0.504   3.615   4.730
 1770TIP3    H2 5317   0.458   3.712   4.836
 1771TIP3   OH2 5318   4.163   1.576   1.438
 1771TIP3    H1 5319   4.077   1.562   1.397
 1771TIP3    H2 5320   4.146   1.565   1.532
 1772TIP3   OH2 5321   3.405   4.693   1.272
 1772TIP3    H1 5322   3.363   4.659   1.192
 1772TIP3    H2 5323   3.421   4.785   1.253
 1773TIP3   OH2 5324   2.405   5.948   3.906
 1773TIP3    H1 5325   2.446   6.024   3.946
 1773TIP3    H2 5326   2.312   5.959   3.922
 1774TIP3   OH2 5327   3.712   1.660   1.891
 1774TIP3    H1 5328   3.704   1.571   1.856
 1774TIP3    H2 5329   3.792   1.659   1.943
 1775TIP3   OH2 5330   4.515   1.483   3.429
 1775TIP3    H1 5331   4.489   1.559   3.481
 1775TIP3    H2 5332   4.446   1.473   3.364
 1776TIP3   OH2 5333   4.015   4.047   0.218
 1776TIP3    H1 5334   4.007   3.952   0.229
 1776TIP3    H2 5335   4.048   4.078   0.303
 1777TIP3   OH2 5336   3.131   3.263   0.838
 1777TIP3    H1 5337   3.038   3.270   0.819
 1777TIP3    H2 5338   3.139   3.184   0.891
 1778TIP3   OH2 5339   1.853   3.691   3.482
 1778TIP3    H1 5340   1.912   3.764   3.497
 1778TIP3    H2 5341   1.888   3.620   3.537
 1779TIP3   OH2 5342   3.187   5.210   4.668
 1779TIP3    H1 5343   3.227   5.199   4.582
 1779TIP3    H2 5344   3.150   5.125   4.689
 1780TIP3   OH2 5345   3.882   0.409   1.343
 1780TIP3    H1 5346   3.863   0.453   1.426
 1780TIP3    H2 5347   3.796   0.386   1.308
 1781TIP3   OH2 5348   1.688   4.258   3.661
 1781TIP3    H1 5349   1.729   4.173   3.679
 1781TIP3    H2 5350   1.761   4.315   3.638
 1782TIP3   OH2 5351   3.127   2.724   3.530
 1782TIP3    H1 5352   3.211   2.727   3.485
 1782TIP3    H2 5353   3.062   2.738   3.461
 1783TIP3   OH2 5354   1.024   0.233   0.527
 1783TIP3    H1 5355   1.060   0.272   0.448
 1783TIP3    H2 5356   1.070   0.149   0.535
 1784TIP3   OH2 5357   5.105   2.733   2.668
 1784TIP3    H1 5358   5.159   2.761   2.595
 1784TIP3    H2 5359   5.030   2.690   2.626
 1785TIP3   OH2 5360   0.396   5.014   4.516
 1785TIP3    H1 5361   0.381   4.943   4.453
 1785TIP3    H2 5362   0.480   5.052   4.489
 1786TIP3   OH2 5363   2.086   2.703   2.161
 1786TIP3    H1 5364   2.011   2.754   2.129
 1786TIP3    H2 5365   2.146   2.701   2.087
 1787TIP3   OH2 5366   2.868   1.226   4.936
 1787TIP3    H1 5367   2.923   1.272   4.999
 1787TIP3    H2 5368   2.862   1.287   4.862
 1788TIP3   OH2 5369   4.740   1.027   0.494
 1788TIP3    H1 5370   4.771   0.965   0.560
 1788TIP3    H2 5371   4.785   1.001   0.414
 1789TIP3   OH2 5372   4.684   3.274   1.879
 1789TIP3    H1 5373   4.752   3.238   1.937
 1789TIP3    H2 5374   4.733   3.319   1.810
 1790TIP3   OH2 5375   2.163   5.391   2.540
 1790TIP3    H1 5376   2.136   5.303   2.514
 1790TIP3    H2 5377   2.259   5.386   2.544
 1791TIP3   OH2 5378   3.717   3.657   1.167
 1791TIP3    H1 5379   3.810   3.667   1.188
 1791TIP3    H2 5380   3.682   3.746   1.168
 1792TIP3   OH2 5381   4.239   0.068   3.397
 1792TIP3    H1 5382   4.322   0.081   3.442
 1792TIP3    H2 5383   4.173   0.067   3.467
 1793TIP3   OH2 5384   5.730   0.688   4.710
 1793TIP3    H1 5385   5.692   0.612   4.754
 1793TIP3    H2 5386   5.824   0.677   4.720
 1794TIP3   OH2 5387   2.675   3.797   0.213
 1794TIP3    H1 5388   2.639   3.772   0.128
 1794TIP3    H2 5389   2.671   3.717   0.266
 1795TIP3   OH2 5390   0.873   1.093   1.193
 1795TIP3    H1 5391   0.846   1.007   1.163
 1795TIP3    H2 5392   0.946   1.077   1.252
 1796TIP3   OH2 5393   2.939   3.978   4.202
 1796TIP3    H1 5394   3.013   4.033   4.177
 1796TIP3    H2 5395   2.912   4.011   4.288
 1797TIP3   OH2 5396   1.531   0.665   1.164
 1797TIP3    H1 5397   1.604   0.706   1.118
 1797TIP3    H2 5398   1.535   0.701   1.253
 1798TIP3   OH2 5399   4.212   3.802   0.367
 1798TIP3    H1 5400   4.299   3.822   0.333
 1798TIP3    H2 5401   4.169   3.753   0.297
 1799TIP3   OH2 5402   4.284   0.239   3.977
 1799TIP3    H1 5403   4.356   0.204   4.029
 1799TIP3    H2 5404   4.325   0.273   3.898
 1800TIP3   OH2 5405   6.174   1.987   0.705
 1800TIP3    H1 5406   6.143   1.932   0.633
 1800TIP3    H2 5407   6.265   1.960   0.719
 1801TIP3   OH2 5408   0.968   5.801   4.204
 1801TIP3    H1 5409   1.036   5.748   4.246
 1801TIP3    H2 5410   0.988   5.891   4.231
 1802TIP3   OH2 5411   1.907   2.327   1.427
 1802TIP3    H1 5412   1.813   2.313   1.436
 1802TIP3    H2 5413   1.914   2.408   1.376
 1803TIP3   OH2 5414   0.678   3.916   2.572
 1803TIP3    H1 5415   0.598   3.934   2.622
 1803TIP3    H2 5416   0.650   3.857   2.503
 1804TIP3   OH2 5417   5.722   4.137   0.069
 1804TIP3    H1 5418   5.793   4.161   0.010
 1804TIP3    H2 5419   5.679   4.062   0.026
 1805TIP3   OH2 5420   2.386   2.655   4.373
 1805TIP3    H1 5421   2.367   2.677   4.464
 1805TIP3    H2 5422   2.304   2.672   4.327
 1806TIP3   OH2 5423   0.297   5.728   1.122
 1806TIP3    H1 5424   0.379   5.691   1.156
 1806TIP3    H2 5425   0.242   5.652   1.104
 1807TIP3   OH2 5426   1.073   5.142   2.203
 1807TIP3    H1 5427   1.097   5.194   2.280
 1807TIP3    H2 5428   1.154   5.135   2.153
 1808TIP3   OH2 5429   4.299   4.838   3.302
 1808TIP3    H1 5430   4.269   4.913   3.354
 1808TIP3    H2 5431   4.317   4.770   3.367
 1809TIP3   OH2 5432   4.084   2.946   0.595
 1809TIP3    H1 5433   4.089   3.038   0.570
 1809TIP3    H2 5434   4.004   2.939   0.647
 1810TIP3   OH2 5435   2.059   3.414   0.296
 1810TIP3    H1 5436   1.973   3.408   0.256
 1810TIP3    H2 5437   2.043   3.443   0.386
 1811TIP3   OH2 5438   5.845   1.788   2.511
 1811TIP3    H1 5439   5.900   1.714   2.485
 1811TIP3    H2 5440   5.891   1.827   2.586
 1812TIP3   OH2 5441   3.294   5.701   3.144
 1812TIP3    H1 5442   3.241   5.662   3.074
 1812TIP3    H2 5443   3.239   5.695   3.222
 1813TIP3   OH2 5444   0.595   2.734   4.752
 1813TIP3    H1 5445   0.672   2.789   4.737
 1813TIP3    H2 5446   0.571   2.750   4.843
 1814TIP3   OH2 5447   3.186   1.196   0.886
 1814TIP3    H1 5448   3.244   1.252   0.836
 1814TIP3    H2 5449   3.243   1.131   0.926
 1815TIP3   OH2 5450   6.262   1.945   3.276
 1815TIP3    H1 5451   6.311   1.949   3.193
 1815TIP3    H2 5452   6.186   1.890   3.256
 1816TIP3   OH2 5453   0.007   2.441   2.181
 1816TIP3    H1 5454   0.010   2.398   2.096
 1816TIP3    H2 5455   0.094   2.478   2.192
 1817TIP3   OH2 5456   3.194   4.018   0.534
 1817TIP3    H1 5457   3.153   3.931   0.536
 1817TIP3    H2 5458   3.121   4.079   0.542
 1818TIP3   OH2 5459   4.850   2.631   2.603
 1818TIP3    H1 5460   4.878   2.541   2.592
 1818TIP3    H2 5461   4.758   2.632   2.579
 1819TIP3   OH2 5462   3.874   3.950   5.100
 1819TIP3    H1 5463   3.893   4.028   5.153
 1819TIP3    H2 5464   3.915   3.878   5.146
 1820TIP3   OH2 5465   4.968   5.178   2.052
 1820TIP3    H1 5466   4.967   5.242   1.981
 1820TIP3    H2 5467   4.890   5.124   2.037
 1821TIP3   OH2 5468   2.489   0.517   3.814
 1821TIP3    H1 5469   2.477   0.436   3.765
 1821TIP3    H2 5470   2.441   0.504   3.895
 1822TIP3   OH2 5471   4.923   0.018   4.812
 1822TIP3    H1 5472   4.844   0.025   4.866
 1822TIP3    H2 5473   4.995   0.040   4.872
 1823TIP3   OH2 5474   2.405   1.146   0.443
 1823TIP3    H1 5475   2.495   1.114   0.438
 1823TIP3    H2 5476   2.383   1.171   0.353
 1824TIP3   OH2 5477   1.726   0.816   0.319
 1824TIP3    H1 5478   1.676   0.819   0.400
 1824TIP3    H2 5479   1.671   0.766   0.259
 1825TIP3   OH2 5480   3.974   0.210   1.156
 1825TIP3    H1 5481   4.038   0.262   1.108
 1825TIP3    H2 5482   3.981   0.241   1.246
 1826TIP3   OH2 5483   0.605   1.285   4.893
 1826TIP3    H1 5484   0.628   1.289   4.986
 1826TIP3    H2 5485   0.657   1.354   4.852
 1827TIP3   OH2 5486   2.511   4.108   4.883
 1827TIP3    H1 5487   2.468   4.044   4.827
 1827TIP3    H2 5488   2.457   4.186   4.876
 1828TIP3   OH2 5489   4.075   1.826   2.692
 1828TIP3    H1 5490   4.022   1.898   2.656
 1828TIP3    H2 5491   4.067   1.836   2.787
 1829TIP3   OH2 5492   5.648   4.778   0.422
 1829TIP3    H1 5493   5.618   4.773   0.513
 1829TIP3    H2 5494   5.736   4.742   0.423
 1830TIP3   OH2 5495   3.561   5.924   4.411
 1830TIP3    H1 5496   3.561   5.857   4.343
 1830TIP3    H2 5497   3.514   5.998   4.372
 1831TIP3   OH2 5498   6.217   0.232   0.274
 1831TIP3    H1 5499   6.178   0.218   0.360
 1831TIP3    H2 5500   6.172   0.170   0.217
 1832TIP3   OH2 5501   4.365   3.890   0.838
 1832TIP3    H1 5502   4.437   3.831   0.818
 1832TIP3    H2 5503   4.392   3.974   0.802
 1833TIP3   OH2 5504   2.005   0.299   3.213
 1833TIP3    H1 5505   2.022   0.373   3.155
 1833TIP3    H2 5506   1.914   0.311   3.241
 1834TIP3   OH2 5507   6.250   0.914   1.218
 1834TIP3    H1 5508   6.219   0.979   1.281
 1834TIP3    H2 5509   6.302   0.853   1.271
 1835TIP3   OH2 5510   5.140   1.954   1.276
 1835TIP3    H1 5511   5.169   1.951   1.367
 1835TIP3    H2 5512   5.047   1.972   1.281
 1836TIP3   OH2 5513   6.101   3.863   4.007
 1836TIP3    H1 5514   6.040   3.791   3.992
 1836TIP3    H2 5515   6.180   3.839   3.958
 1837TIP3   OH2 5516   4.839   3.358   0.420
 1837TIP3    H1 5517   4.876   3.270   0.421
 1837TIP3    H2 5518   4.873   3.398   0.340
 1838TIP3   OH2 5519   1.225   2.096   0.033
 1838TIP3    H1 5520   1.201   2.010   0.067
 1838TIP3    H2 5521   1.316   2.109   0.061
 1839TIP3   OH2 5522   5.235   3.788   4.259
 1839TIP3    H1 5523   5.144   3.765   4.237
 1839TIP3    H2 5524   5.247   3.755   4.349
 1840TIP3   OH2 5525   2.734   1.169   2.702
 1840TIP3    H1 5526   2.706   1.085   2.739
 1840TIP3    H2 5527   2.771   1.147   2.617
 1841TIP3   OH2 5528   4.527   1.555   2.379
 1841TIP3    H1 5529   4.467   1.488   2.412
 1841TIP3    H2 5530   4.498   1.571   2.289
 1842TIP3   OH2 5531   0.546   4.586   4.171
 1842TIP3    H1 5532   0.508   4.582   4.084
 1842TIP3    H2 5533   0.575   4.676   4.181
 1843TIP3   OH2 5534   1.442   5.461   3.541
 1843TIP3    H1 5535   1.522   5.513   3.534
 1843TIP3    H2 5536   1.377   5.511   3.491
 1844TIP3   OH2 5537   2.642   5.612   1.822
 1844TIP3    H1 5538   2.716   5.632   1.879
 1844TIP3    H2 5539   2.566   5.648   1.868
 1845TIP3   OH2 5540   1.276   4.583   4.419
 1845TIP3    H1 5541   1.303   4.645   4.352
 1845TIP3    H2 5542   1.207   4.628   4.468
 1846TIP3   OH2 5543   4.197   0.402   4.357
 1846TIP3    H1 5544   4.221   0.424   4.447
 1846TIP3    H2 5545   4.207   0.307   4.351
 1847TIP3   OH2 5546   2.666   1.893   0.756
 1847TIP3    H1 5547   2.675   1.958   0.825
 1847TIP3    H2 5548   2.578   1.857   0.769
 1848TIP3   OH2 5549   1.840   0.114   1.143
 1848TIP3    H1 5550   1.896   0.057   1.089
 1848TIP3    H2 5551   1.842   0.199   1.098
 1849TIP3   OH2 5552   3.446   1.209   4.739
 1849TIP3    H1 5553   3.461   1.118   4.711
 1849TIP3    H2 5554   3.393   1.247   4.668
 1850TIP3   OH2 5555   0.256   2.804   1.591
 1850TIP3    H1 5556   0.298   2.772   1.511
 1850TIP3    H2 5557   0.172   2.838   1.562
 1851TIP3   OH2 5558   1.334   2.726   4.365
 1851TIP3    H1 5559   1.312   2.800   4.308
 1851TIP3    H2 5560   1.260   2.666   4.356
 1852TIP3   OH2 5561   6.110   0.613   2.689
 1852TIP3    H1 5562   6.026   0.622   2.643
 1852TIP3    H2 5563   6.086   0.607   2.781
 1853TIP3   OH2 5564   1.134   1.984   3.943
 1853TIP3    H1 5565   1.148   1.889   3.940
 1853TIP3    H2 5566   1.196   2.015   4.009
 1854TIP3   OH2 5567   5.599   0.632   2.267
 1854TIP3    H1 5568   5.531   0.677   2.317
 1854TIP3    H2 5569   5.603   0.545   2.304
 1855TIP3   OH2 5570   1.324   1.491   4.933
 1855TIP3    H1 5571   1.302   1.420   4.993
 1855TIP3    H2 5572   1.249   1.496   4.874
 1856TIP3   OH2 5573   2.324   1.168   4.251
 1856TIP3    H1 5574   2.288   1.187   4.165
 1856TIP3    H2 5575   2.402   1.116   4.233
 1857TIP3   OH2 5576   6.014   4.833   4.010
 1857TIP3    H1 5577   6.081   4.832   4.078
 1857TIP3    H2 5578   6.061   4.853   3.929
 1858TIP3   OH2 5579   5.115   5.985   3.596
 1858TIP3    H1 5580   5.088   5.909   3.646
 1858TIP3    H2 5581   5.139   5.950   3.510
 1859TIP3   OH2 5582   6.046   1.788   0.567
 1859TIP3    H1 5583   6.089   1.704   0.558
 1859TIP3    H2 5584   5.959   1.767   0.601
 1860TIP3   OH2 5585   2.019   0.937   4.972
 1860TIP3    H1 5586   2.051   0.988   5.046
 1860TIP3    H2 5587   1.924   0.947   4.974
 1861TIP3   OH2 5588   4.071   5.274   2.410
 1861TIP3    H1 5589   4.075   5.369   2.407
 1861TIP3    H2 5590   4.039   5.255   2.499
 1862TIP3   OH2 5591   3.012   1.973   5.184
 1862TIP3    H1 5592   2.967   1.937   5.260
 1862TIP3    H2 5593   3.089   1.917   5.173
 1863TIP3   OH2 5594   2.969   4.871   4.191
 1863TIP3    H1 5595   2.893   4.929   4.183
 1863TIP3    H2 5596   2.949   4.816   4.267
 1864TIP3   OH2 5597   0.560   2.734   3.590
 1864TIP3    H1 5598   0.604   2.793   3.529
 1864TIP3    H2 5599   0.579   2.770   3.677
 1865TIP3   OH2 5600   4.323   2.858   2.404
 1865TIP3    H1 5601   4.293   2.913   2.332
 1865TIP3    H2 5602   4.292   2.770   2.382
 1866TIP3   OH2 5603   2.505   5.880   0.598
 1866TIP3    H1 5604   2.448   5.942   0.553
 1866TIP3    H2 5605   2.452   5.849   0.672
 1867TIP3   OH2 5606   2.495   1.833   4.755
 1867TIP3    H1 5607   2.490   1.918   4.712
 1867TIP3    H2 5608   2.564   1.842   4.821
 1868TIP3   OH2 5609   5.913   3.489   0.840
 1868TIP3    H1 5610   5.993   3.515   0.796
 1868TIP3    H2 5611   5.942   3.449   0.922
 1869TIP3   OH2 5612   5.564   0.675   0.377
 1869TIP3    H1 5613   5.655   0.698   0.359
 1869TIP3    H2 5614   5.520   0.684   0.292
 1870TIP3   OH2 5615   5.718   1.390   1.925
 1870TIP3    H1 5616   5.638   1.340   1.912
 1870TIP3    H2 5617   5.702   1.472   1.879
 1871TIP3   OH2 5618   0.261   4.971   0.792
 1871TIP3    H1 5619   0.275   5.066   0.785
 1871TIP3    H2 5620   0.175   4.957   0.753
 1872TIP3   OH2 5621   1.742   2.689   4.093
 1872TIP3    H1 5622   1.673   2.655   4.035
 1872TIP3    H2 5623   1.824   2.665   4.049
 1873TIP3   OH2 5624   3.895   3.310   3.132
 1873TIP3    H1 5625   3.886   3.298   3.038
 1873TIP3    H2 5626   3.979   3.355   3.144
 1874TIP3   OH2 5627   5.587   5.989   4.062
 1874TIP3    H1 5628   5.637   6.068   4.040
 1874TIP3    H2 5629   5.641   5.917   4.028
 1875TIP3   OH2 5630   3.044   1.351   4.072
 1875TIP3    H1 5631   2.951   1.368   4.086
 1875TIP3    H2 5632   3.048   1.259   4.044
 1876TIP3   OH2 5633   2.959   0.377   1.737
 1876TIP3    H1 5634   3.017   0.409   1.806
 1876TIP3    H2 5635   2.884   0.341   1.784
 1877TIP3   OH2 5636   0.589   0.721   3.192
 1877TIP3    H1 5637   0.526   0.784   3.157
 1877TIP3    H2 5638   0.536   0.661   3.245
 1878TIP3   OH2 5639   1.288   1.629   2.016
 1878TIP3    H1 5640   1.274   1.640   2.110
 1878TIP3    H2 5641   1.214   1.673   1.976
 1879TIP3   OH2 5642   2.600   0.228   0.121
 1879TIP3    H1 5643   2.671   0.257   0.179
 1879TIP3    H2 5644   2.529   0.289   0.140
 1880TIP3   OH2 5645   4.966   1.456   3.601
 1880TIP3    H1 5646   4.908   1.466   3.526
 1880TIP3    H2 5647   4.908   1.428   3.672
 1881TIP3   OH2 5648   4.968   5.080   2.391
 1881TIP3    H1 5649   5.023   5.050   2.463
 1881TIP3    H2 5650   5.010   5.160   2.359
 1882TIP3   OH2 5651   2.085   0.905   2.712
 1882TIP3    H1 5652   2.082   0.809   2.701
 1882TIP3    H2 5653   1.996   0.934   2.691
 1883TIP3   OH2 5654   0.078   2.861   0.001
 1883TIP3    H1 5655  -0.015   2.868  -0.019
 1883TIP3    H2 5656   0.081   2.811   0.083
 1884TIP3   OH2 5657   1.330   3.456   1.319
 1884TIP3    H1 5658   1.389   3.405   1.374
 1884TIP3    H2 5659   1.292   3.392   1.258
 1885TIP3   OH2 5660   5.413   3.968   0.864
 1885TIP3    H1 5661   5.348   3.966   0.934
 1885TIP3    H2 5662   5.495   3.942   0.906
 1886TIP3   OH2 5663   1.158   0.580   2.457
 1886TIP3    H1 5664   1.069   0.547   2.476
 1886TIP3    H2 5665   1.167   0.570   2.363
 1887TIP3   OH2 5666   5.448   4.598   5.121
 1887TIP3    H1 5667   5.436   4.521   5.065
 1887TIP3    H2 5668   5.430   4.673   5.063
 1888TIP3   OH2 5669   0.927   4.092   4.989
 1888TIP3    H1 5670   0.970   4.143   4.920
 1888TIP3    H2 5671   0.928   4.002   4.957
 1889TIP3   OH2 5672   2.510   2.943   3.928
 1889TIP3    H1 5673   2.564   2.893   3.989
 1889TIP3    H2 5674   2.432   2.890   3.915
 1890TIP3   OH2 5675   3.974   0.677   4.892
 1890TIP3    H1 5676   3.900   0.664   4.833
 1890TIP3    H2 5677   4.049   0.637   4.847
 1891TIP3   OH2 5678   0.658   5.612   3.927
 1891TIP3    H1 5679   0.673   5.521   3.954
 1891TIP3    H2 5680   0.704   5.620   3.844
 1892TIP3   OH2 5681   5.617   2.274   4.670
 1892TIP3    H1 5682   5.562   2.351   4.654
 1892TIP3    H2 5683   5.628   2.272   4.765
 1893TIP3   OH2 5684   6.308   0.897   5.018
 1893TIP3    H1 5685   6.332   0.843   4.943
 1893TIP3    H2 5686   6.229   0.944   4.991
 1894TIP3   OH2 5687   1.465   0.260   3.929
 1894TIP3    H1 5688   1.521   0.185   3.908
 1894TIP3    H2 5689   1.380   0.237   3.892
 1895TIP3   OH2 5690   2.493   1.145   1.928
 1895TIP3    H1 5691   2.448   1.226   1.902
 1895TIP3    H2 5692   2.583   1.172   1.944
 1896TIP3   OH2 5693   6.088   5.859   0.734
 1896TIP3    H1 5694   6.145   5.810   0.675
 1896TIP3    H2 5695   6.003   5.816   0.726
 1897TIP3   OH2 5696   2.492   5.001   4.708
 1897TIP3    H1 5697   2.421   4.939   4.700
 1897TIP3    H2 5698   2.474   5.048   4.790
 1898TIP3   OH2 5699   4.803   4.665   0.267
 1898TIP3    H1 5700   4.873   4.621   0.316
 1898TIP3    H2 5701   4.737   4.684   0.333
 1899TIP3   OH2 5702   3.331   4.785   4.978
 1899TIP3    H1 5703   3.402   4.725   5.000
 1899TIP3    H2 5704   3.326   4.846   5.051
 1900TIP3   OH2 5705   4.244   2.084   4.283
 1900TIP3    H1 5706   4.296   2.020   4.332
 1900TIP3    H2 5707   4.305   2.155   4.263
 1901TIP3   OH2 5708   5.488   2.840   4.510
 1901TIP3    H1 5709   5.552   2.897   4.554
 1901TIP3    H2 5710   5.531   2.814   4.428
 1902TIP3   OH2 5711   5.146   4.494   0.746
 1902TIP3    H1 5712   5.172   4.476   0.656
 1902TIP3    H2 5713   5.133   4.408   0.785
 1903TIP3   OH2 5714   3.609   4.610   4.705
 1903TIP3    H1 5715   3.534   4.552   4.711
 1903TIP3    H2 5716   3.623   4.640   4.795
 1904TIP3   OH2 5717   3.208   3.545   5.099
 1904TIP3    H1 5718   3.150   3.469   5.103
 1904TIP3    H2 5719   3.264   3.536   5.175
 1905TIP3   OH2 5720   2.606   3.434   1.938
 1905TIP3    H1 5721   2.629   3.476   1.855
 1905TIP3    H2 5722   2.614   3.340   1.919
 1906TIP3   OH2 5723   5.180   0.752   0.037
 1906TIP3    H1 5724   5.103   0.758   0.093
 1906TIP3    H2 5725   5.149   0.707  -0.042
 1907TIP3   OH2 5726   1.882   3.614   4.733
 1907TIP3    H1 5727   1.868   3.708   4.748
 1907TIP3    H2 5728   1.976   3.606   4.718
 1908TIP3   OH2 5729   1.225   4.207   2.703
 1908TIP3    H1 5730   1.309   4.254   2.706
 1908TIP3    H2 5731   1.203   4.204   2.610
 1909TIP3   OH2 5732   1.081   3.987   1.629
 1909TIP3    H1 5733   1.112   4.076   1.610
 1909TIP3    H2 5734   1.110   3.935   1.555
 1910TIP3   OH2 5735   0.425   4.785   4.744
 1910TIP3    H1 5736   0.400   4.693   4.736
 1910TIP3    H2 5737   0.450   4.811   4.655
 1911TIP3   OH2 5738   6.292   4.383   1.707
 1911TIP3    H1 5739   6.296   4.373   1.612
 1911TIP3    H2 5740   6.198   4.387   1.727
 1912TIP3   OH2 5741   5.185   2.139   3.282
 1912TIP3    H1 5742   5.114   2.129   3.346
 1912TIP3    H2 5743   5.240   2.209   3.318
 1913TIP3   OH2 5744   0.254   0.377   2.242
 1913TIP3    H1 5745   0.319   0.368   2.172
 1913TIP3    H2 5746   0.184   0.428   2.203
 1914TIP3   OH2 5747   1.480   3.717   0.039
 1914TIP3    H1 5748   1.423   3.640   0.043
 1914TIP3    H2 5749   1.551   3.696   0.100
 1915TIP3   OH2 5750   2.451   1.543   5.120
 1915TIP3    H1 5751   2.428   1.635   5.102
 1915TIP3    H2 5752   2.439   1.499   5.036
 1916TIP3   OH2 5753   5.143   4.929   0.904
 1916TIP3    H1 5754   5.079   4.967   0.844
 1916TIP3    H2 5755   5.095   4.857   0.947
 1917TIP3   OH2 5756   4.786   1.184   3.321
 1917TIP3    H1 5757   4.691   1.183   3.309
 1917TIP3    H2 5758   4.816   1.261   3.273
 1918TIP3   OH2 5759   2.444   0.375   4.525
 1918TIP3    H1 5760   2.365   0.366   4.472
 1918TIP3    H2 5761   2.432   0.457   4.573
 1919TIP3   OH2 5762   2.745   1.663   3.889
 1919TIP3    H1 5763   2.713   1.700   3.972
 1919TIP3    H2 5764   2.841   1.666   3.898
 1920TIP3   OH2 5765   0.569   2.222   0.372
 1920TIP3    H1 5766   0.550   2.231   0.278
 1920TIP3    H2 5767   0.579   2.312   0.403
 1921TIP3   OH2 5768   3.457   5.681   1.494
 1921TIP3    H1 5769   3.386   5.722   1.444
 1921TIP3    H2 5770   3.426   5.592   1.511
 1922TIP3   OH2 5771   0.568   2.317   0.839
 1922TIP3    H1 5772   0.559   2.258   0.913
 1922TIP3    H2 5773   0.661   2.313   0.816
 1923TIP3   OH2 5774   2.837   1.665   1.762
 1923TIP3    H1 5775   2.861   1.576   1.736
 1923TIP3    H2 5776   2.821   1.659   1.856
 1924TIP3   OH2 5777   4.648   4.839   2.092
 1924TIP3    H1 5778   4.725   4.835   2.035
 1924TIP3    H2 5779   4.663   4.915   2.148
 1925TIP3   OH2 5780   1.078   2.901   1.766
 1925TIP3    H1 5781   1.048   2.867   1.682
 1925TIP3    H2 5782   1.021   2.976   1.784
 1926TIP3   OH2 5783   3.780   1.810   1.629
 1926TIP3    H1 5784   3.729   1.773   1.702
 1926TIP3    H2 5785   3.871   1.795   1.653
 1927TIP3   OH2 5786   5.502   1.768   5.170
 1927TIP3    H1 5787   5.469   1.823   5.241
 1927TIP3    H2 5788   5.451   1.688   5.176
 1928TIP3   OH2 5789   5.937   3.666   3.935
 1928TIP3    H1 5790   5.890   3.585   3.958
 1928TIP3    H2 5791   5.897   3.693   3.852
 1929TIP3   OH2 5792   1.369   0.206   4.485
 1929TIP3    H1 5793   1.441   0.233   4.428
 1929TIP3    H2 5794   1.374   0.266   4.559
 1930TIP3   OH2 5795   1.717   3.412   1.009
 1930TIP3    H1 5796   1.659   3.336   1.009
 1930TIP3    H2 5797   1.681   3.470   1.075
 1931TIP3   OH2 5798   3.985   0.697   3.053
 1931TIP3    H1 5799   3.980   0.764   3.121
 1931TIP3    H2 5800   3.916   0.635   3.076
 1932TIP3   OH2 5801   3.418   2.206   0.101
 1932TIP3    H1 5802   3.387   2.210   0.010
 1932TIP3    H2 5803   3.391   2.120   0.132
 1933TIP3   OH2 5804   6.201   4.635   2.427
 1933TIP3    H1 5805   6.189   4.606   2.336
 1933TIP3    H2 5806   6.286   4.679   2.428
 1934TIP3   OH2 5807   3.461   1.624   2.796
 1934TIP3    H1 5808   3.483   1.708   2.756
 1934TIP3    H2 5809   3.421   1.647   2.880
 1935TIP3   OH2 5810   1.080   0.668   4.886
 1935TIP3    H1 5811   1.097   0.734   4.953
 1935TIP3    H2 5812   0.990   0.684   4.858
 1936TIP3   OH2 5813   5.470   2.875   0.349
 1936TIP3    H1 5814   5.460   2.794   0.299
 1936TIP3    H2 5815   5.552   2.913   0.318
 1937TIP3   OH2 5816   1.704   0.247   1.342
 1937TIP3    H1 5817   1.740   0.206   1.263
 1937TIP3    H2 5818   1.633   0.303   1.310
 1938TIP3   OH2 5819   2.295   2.147   2.255
 1938TIP3    H1 5820   2.230   2.212   2.229
 1938TIP3    H2 5821   2.375   2.172   2.209
 1939TIP3   OH2 5822   2.081   2.759   2.628
 1939TIP3    H1 5823   2.073   2.663   2.626
 1939TIP3    H2 5824   2.148   2.776   2.694
 1940TIP3   OH2 5825   0.264   0.684   3.888
 1940TIP3    H1 5826   0.316   0.764   3.886
 1940TIP3    H2 5827   0.293   0.637   3.966
 1941TIP3   OH2 5828   2.665   1.448   1.138
 1941TIP3    H1 5829   2.724   1.472   1.066
 1941TIP3    H2 5830   2.668   1.352   1.140
 1942TIP3   OH2 5831   5.694   2.018   4.051
 1942TIP3    H1 5832   5.767   2.029   4.111
 1942TIP3    H2 5833   5.677   1.924   4.050
 1943TIP3   OH2 5834   0.737   1.125   0.312
 1943TIP3    H1 5835   0.693   1.046   0.344
 1943TIP3    H2 5836   0.712   1.131   0.220
 1944TIP3   OH2 5837   0.171   3.758   1.013
 1944TIP3    H1 5838   0.139   3.689   0.955
 1944TIP3    H2 5839   0.200   3.712   1.091
 1945TIP3   OH2 5840   2.175   5.271   1.859
 1945TIP3    H1 5841   2.206   5.196   1.809
 1945TIP3    H2 5842   2.152   5.235   1.944
 1946TIP3   OH2 5843   3.563   4.155   1.091
 1946TIP3    H1 5844   3.655   4.182   1.088
 1946TIP3    H2 5845   3.531   4.189   1.174
 1947TIP3   OH2 5846   2.779   5.344   4.869
 1947TIP3    H1 5847   2.809   5.301   4.790
 1947TIP3    H2 5848   2.718   5.411   4.838
 1948TIP3   OH2 5849   5.131   2.225   2.756
 1948TIP3    H1 5850   5.167   2.231   2.844
 1948TIP3    H2 5851   5.186   2.160   2.712
 1949TIP3   OH2 5852   5.154   4.080   0.419
 1949TIP3    H1 5853   5.080   4.101   0.477
 1949TIP3    H2 5854   5.161   3.985   0.423
 1950TIP3   OH2 5855   1.931   3.108   0.959
 1950TIP3    H1 5856   1.874   3.063   1.021
 1950TIP3    H2 5857   2.016   3.065   0.970
 1951TIP3   OH2 5858   3.407   1.099   3.940
 1951TIP3    H1 5859   3.407   1.089   3.844
 1951TIP3    H2 5860   3.384   1.191   3.954
 1952TIP3   OH2 5861   1.817   1.217   0.043
 1952TIP3    H1 5862   1.736   1.260   0.070
 1952TIP3    H2 5863   1.885   1.282   0.060
 1953TIP3   OH2 5864   6.109   4.503   4.721
 1953TIP3    H1 5865   6.108   4.472   4.811
 1953TIP3    H2 5866   6.115   4.423   4.669
 1954TIP3   OH2 5867   0.231   4.262   3.416
 1954TIP3    H1 5868   0.273   4.345   3.393
 1954TIP3    H2 5869   0.266   4.199   3.354
 1955TIP3   OH2 5870   5.305   2.772   1.790
 1955TIP3    H1 5871   5.370   2.720   1.838
 1955TIP3    H2 5872   5.354   2.848   1.759
 1956TIP3   OH2 5873   4.230   3.805   4.166
 1956TIP3    H1 5874   4.184   3.853   4.097
 1956TIP3    H2 5875   4.163   3.783   4.230
 1957TIP3   OH2 5876   5.305   0.624   1.793
 1957TIP3    H1 5877   5.292   0.718   1.807
 1957TIP3    H2 5878   5.371   0.599   1.857
 1958TIP3   OH2 5879   3.529   5.101   3.912
 1958TIP3    H1 5880   3.624   5.116   3.906
 1958TIP3    H2 5881   3.521   5.008   3.933
 1959TIP3   OH2 5882   5.935   5.356   1.088
 1959TIP3    H1 5883   5.963   5.371   1.179
 1959TIP3    H2 5884   6.017   5.353   1.038
 1960TIP3   OH2 5885   2.255   5.970   0.499
 1960TIP3    H1 5886   2.193   6.042   0.487
 1960TIP3    H2 5887   2.239   5.912   0.424
 1961TIP3   OH2 5888   5.023   0.198   3.669
 1961TIP3    H1 5889   5.058   0.263   3.730
 1961TIP3    H2 5890   5.081   0.202   3.593
 1962TIP3   OH2 5891   0.248   5.921   0.272
 1962TIP3    H1 5892   0.181   5.859   0.302
 1962TIP3    H2 5893   0.296   5.944   0.352
 1963TIP3   OH2 5894   0.888   1.369   4.791
 1963TIP3    H1 5895   0.911   1.276   4.783
 1963TIP3    H2 5896   0.936   1.412   4.721
 1964TIP3   OH2 5897   1.166   5.342   1.095
 1964TIP3    H1 5898   1.214   5.419   1.125
 1964TIP3    H2 5899   1.074   5.370   1.093
 1965TIP3   OH2 5900   4.015   0.800   4.259
 1965TIP3    H1 5901   4.036   0.837   4.345
 1965TIP3    H2 5902   4.077   0.729   4.247
 1966TIP3   OH2 5903   5.754   4.678   4.129
 1966TIP3    H1 5904   5.757   4.768   4.097
 1966TIP3    H2 5905   5.833   4.669   4.183
 1967TIP3   OH2 5906   4.252   5.535   1.939
 1967TIP3    H1 5907   4.226   5.525   1.848
 1967TIP3    H2 5908   4.184   5.489   1.988
 1968TIP3   OH2 5909   4.650   5.497   4.421
 1968TIP3    H1 5910   4.581   5.539   4.370
 1968TIP3    H2 5911   4.727   5.554   4.409
 1969TIP3   OH2 5912   1.366   1.147   2.368
 1969TIP3    H1 5913   1.288   1.106   2.331
 1969TIP3    H2 5914   1.372   1.110   2.456
 1970TIP3   OH2 5915   5.179   4.828   4.079
 1970TIP3    H1 5916   5.270   4.853   4.098
 1970TIP3    H2 5917   5.178   4.733   4.088
 1971TIP3   OH2 5918   4.880   3.127   1.998
 1971TIP3    H1 5919   4.875   3.050   1.942
 1971TIP3    H2 5920   4.970   3.128   2.030
 1972TIP3   OH2 5921   2.331   3.823   0.728
 1972TIP3    H1 5922   2.349   3.730   0.711
 1972TIP3    H2 5923   2.279   3.823   0.808
 1973TIP3   OH2 5924   3.875   2.836   4.098
 1973TIP3    H1 5925   3.822   2.874   4.029
 1973TIP3    H2 5926   3.945   2.790   4.051
 1974TIP3   OH2 5927   5.392   1.864   4.103
 1974TIP3    H1 5928   5.391   1.888   4.196
 1974TIP3    H2 5929   5.311   1.815   4.089
 1975TIP3   OH2 5930   0.262   3.972   3.555
 1975TIP3    H1 5931   0.339   4.028   3.571
 1975TIP3    H2 5932   0.253   3.922   3.636
 1976TIP3   OH2 5933   0.677   3.053   3.668
 1976TIP3    H1 5934   0.582   3.048   3.685
 1976TIP3    H2 5935   0.683   3.077   3.575
 1977TIP3   OH2 5936   1.883   4.061   0.320
 1977TIP3    H1 5937   1.858   3.970   0.337
 1977TIP3    H2 5938   1.800   4.109   0.325
 1978TIP3   OH2 5939   0.507   4.827   0.712
 1978TIP3    H1 5940   0.529   4.755   0.772
 1978TIP3    H2 5941   0.420   4.856   0.739
 1979TIP3   OH2 5942   1.944   5.002   2.646
 1979TIP3    H1 5943   1.912   4.912   2.638
 1979TIP3    H2 5944   1.880   5.046   2.701
 1980TIP3   OH2 5945   3.058   2.368   1.201
 1980TIP3    H1 5946   3.126   2.417   1.155
 1980TIP3    H2 5947   3.004   2.434   1.243
 1981TIP3   OH2 5948   5.173   2.236   1.131
 1981TIP3    H1 5949   5.101   2.263   1.075
 1981TIP3    H2 5950   5.163   2.141   1.141
 1982TIP3   OH2 5951   3.956   0.527   1.690
 1982TIP3    H1 5952   3.926   0.457   1.748
 1982TIP3    H2 5953   3.882   0.543   1.631
 1983TIP3   OH2 5954   2.429   3.324   0.705
 1983TIP3    H1 5955   2.355   3.279   0.664
 1983TIP3    H2 5956   2.438   3.281   0.790
 1984TIP3   OH2 5957   0.809   1.388   4.029
 1984TIP3    H1 5958   0.838   1.361   3.942
 1984TIP3    H2 5959   0.717   1.413   4.016
 1985TIP3   OH2 5960   4.446   5.061   2.344
 1985TIP3    H1 5961   4.383   5.059   2.272
 1985TIP3    H2 5962   4.430   5.145   2.387
 1986TIP3   OH2 5963   1.150   5.608   0.683
 1986TIP3    H1 5964   1.216   5.540   0.675
 1986TIP3    H2 5965   1.072   5.563   0.714
 1987TIP3   OH2 5966   0.428   0.472   2.891
 1987TIP3    H1 5967   0.515   0.502   2.866
 1987TIP3    H2 5968   0.374   0.551   2.890
 1988TIP3   OH2 5969   2.716   5.598   2.739
 1988TIP3    H1 5970   2.633   5.622   2.699
 1988TIP3    H2 5971   2.742   5.675   2.789
 1989TIP3   OH2 5972   2.694   0.810   0.038
 1989TIP3    H1 5973   2.723   0.733   0.087
 1989TIP3    H2 5974   2.651   0.774  -0.040
 1990TIP3   OH2 5975   5.551   4.811   4.606
 1990TIP3    H1 5976   5.458   4.828   4.622
 1990TIP3    H2 5977   5.579   4.881   4.548
 1991TIP3   OH2 5978   2.134   3.615   4.633
 1991TIP3    H1 5979   2.167   3.620   4.543
 1991TIP3    H2 5980   2.204   3.572   4.682
 1992TIP3   OH2 5981   5.145   0.804   2.276
 1992TIP3    H1 5982   5.061   0.805   2.322
 1992TIP3    H2 5983   5.158   0.895   2.249
 1993TIP3   OH2 5984   1.151   0.398   1.438
 1993TIP3    H1 5985   1.207   0.393   1.515
 1993TIP3    H2 5986   1.062   0.392   1.472
 1994TIP3   OH2 5987   4.240   0.301   4.623
 1994TIP3    H1 5988   4.206   0.373   4.676
 1994TIP3    H2 5989   4.330   0.288   4.654
 1995TIP3   OH2 5990   1.369   2.580   0.230
 1995TIP3    H1 5991   1.413   2.621   0.304
 1995TIP3    H2 5992   1.387   2.638   0.156
 1996TIP3   OH2 5993   3.954   5.604   3.366
 1996TIP3    H1 5994   3.916   5.601   3.454
 1996TIP3    H2 5995   3.912   5.680   3.325
 1997TIP3   OH2 5996   2.151   4.214   4.515
 1997TIP3    H1 5997   2.217   4.220   4.447
 1997TIP3    H2 5998   2.126   4.305   4.533
 1998TIP3   OH2 5999   5.060   0.115   4.391
 1998TIP3    H1 6000   5.111   0.141   4.468
 1998TIP3    H2 6001   4.976   0.086   4.427
 1999TIP3   OH2 6002   1.350   4.331   1.051
 1999TIP3    H1 6003   1.425   4.369   1.097
 1999TIP3    H2 6004   1.308   4.274   1.116
 2000TIP3   OH2 6005   5.747   2.810   2.254
 2000TIP3    H1 6006   5.724   2.787   2.164
 2000TIP3    H2 6007   5.663   2.830   2.295
 2001TIP3   OH2 6008   1.641   2.956   0.267
 2001TIP3    H1 6009   1.729   2.987   0.246
 2001TIP3    H2 6010   1.599   3.029   0.312
 2002TIP3   OH2 6011   5.667   0.271   2.202
 2002TIP3    H1 6012   5.745   0.321   2.223
 2002TIP3    H2 6013   5.691   0.221   2.124
 2003TIP3   OH2 6014   3.475   1.762   1.831
 2003TIP3    H1 6015   3.544   1.698   1.849
 2003TIP3    H2 6016   3.397   1.709   1.817
 2004TIP3   OH2 6017   5.831   5.019   4.142
 2004TIP3    H1 6018   5.882   5.100   4.135
 2004TIP3    H2 6019   5.890   4.951   4.111
 2005TIP3   OH2 6020   1.927   5.364   0.422
 2005TIP3    H1 6021   2.006   5.414   0.400
 2005TIP3    H2 6022   1.937   5.281   0.376
 2006TIP3   OH2 6023   2.181   5.650   0.773
 2006TIP3    H1 6024   2.179   5.744   0.793
 2006TIP3    H2 6025   2.160   5.608   0.857
 2007TIP3   OH2 6026   1.125   3.440   5.133
 2007TIP3    H1 6027   1.089   3.461   5.219
 2007TIP3    H2 6028   1.049   3.434   5.075
 2008TIP3   OH2 6029   0.403   0.248   0.948
 2008TIP3    H1 6030   0.496   0.270   0.954
 2008TIP3    H2 6031   0.399   0.179   0.883
 2009TIP3   OH2 6032   5.620   4.362   4.468
 2009TIP3    H1 6033   5.697   4.384   4.414
 2009TIP3    H2 6034   5.624   4.424   4.540
 2010TIP3   OH2 6035   2.698   0.397   1.422
 2010TIP3    H1 6036   2.763   0.354   1.365
 2010TIP3    H2 6037   2.614   0.359   1.394
 2011TIP3   OH2 6038   0.893   3.342   0.224
 2011TIP3    H1 6039   0.876   3.260   0.271
 2011TIP3    H2 6040   0.843   3.408   0.272
 2012TIP3   OH2 6041   1.083   5.555   1.348
 2012TIP3    H1 6042   1.022   5.629   1.348
 2012TIP3    H2 6043   1.167   5.592   1.372
 2013TIP3   OH2 6044   1.912   5.938   0.616
 2013TIP3    H1 6045   1.918   5.844   0.633
 2013TIP3    H2 6046   1.841   5.968   0.674
 2014TIP3   OH2 6047   5.979   1.699   4.489
 2014TIP3    H1 6048   5.901   1.720   4.541
 2014TIP3    H2 6049   6.043   1.669   4.553
 2015TIP3   OH2 6050   2.768   4.765   3.578
 2015TIP3    H1 6051   2.721   4.693   3.537
 2015TIP3    H2 6052   2.751   4.755   3.671
 2016TIP3   OH2 6053   5.258   4.300   2.007
 2016TIP3    H1 6054   5.305   4.217   2.013
 2016TIP3    H2 6055   5.302   4.346   1.936
 2017TIP3   OH2 6056   5.335   5.374   2.535
 2017TIP3    H1 6057   5.430   5.372   2.539
 2017TIP3    H2 6058   5.309   5.434   2.606
 2018TIP3   OH2 6059   4.136   2.543   3.729
 2018TIP3    H1 6060   4.209   2.483   3.743
 2018TIP3    H2 6061   4.084   2.502   3.660
 2019TIP3   OH2 6062   1.597   1.309   3.831
 2019TIP3    H1 6063   1.561   1.308   3.743
 2019TIP3    H2 6064   1.522   1.323   3.888
 2020TIP3   OH2 6065   1.948   5.434   1.910
 2020TIP3    H1 6066   1.960   5.416   2.004
 2020TIP3    H2 6067   2.007   5.372   1.867
 2021TIP3   OH2 6068   1.772   1.788   3.989
 2021TIP3    H1 6069   1.787   1.712   3.933
 2021TIP3    H2 6070   1.752   1.751   4.075
 2022TIP3   OH2 6071   2.110   0.690   5.048
 2022TIP3    H1 6072   2.073   0.769   5.009
 2022TIP3    H2 6073   2.162   0.723   5.122
 2023TIP3   OH2 6074   3.155   4.434   4.633
 2023TIP3    H1 6075   3.236   4.470   4.671
 2023TIP3    H2 6076   3.101   4.414   4.709
 2024TIP3   OH2 6077   1.147   2.531   4.345
 2024TIP3    H1 6078   1.164   2.437   4.343
 2024TIP3    H2 6079   1.064   2.540   4.391
 2025TIP3   OH2 6080   0.379   0.575   4.132
 2025TIP3    H1 6081   0.462   0.532   4.154
 2025TIP3    H2 6082   0.338   0.594   4.217
 2026TIP3   OH2 6083   1.948   5.025   0.908
 2026TIP3    H1 6084   1.883   4.964   0.945
 2026TIP3    H2 6085   1.903   5.065   0.834
 2027TIP3   OH2 6086   1.199   4.785   0.481
 2027TIP3    H1 6087   1.152   4.702   0.480
 2027TIP3    H2 6088   1.136   4.849   0.514
 2028TIP3   OH2 6089   2.060   1.708   4.200
 2028TIP3    H1 6090   2.072   1.803   4.201
 2028TIP3    H2 6091   2.147   1.674   4.179
 2029TIP3   OH2 6092   1.262   1.584   2.280
 2029TIP3    H1 6093   1.191   1.596   2.342
 2029TIP3    H2 6094   1.329   1.537   2.328
 2030TIP3   OH2 6095   0.125   5.553   4.270
 2030TIP3    H1 6096   0.096   5.473   4.226
 2030TIP3    H2 6097   0.198   5.584   4.218
 2031TIP3   OH2 6098   1.430   5.302   1.336
 2031TIP3    H1 6099   1.400   5.327   1.424
 2031TIP3    H2 6100   1.396   5.370   1.279
 2032TIP3   OH2 6101   5.979   2.539   4.745
 2032TIP3    H1 6102   6.040   2.465   4.737
 2032TIP3    H2 6103   5.928   2.519   4.823
 2033TIP3   OH2 6104   4.559   1.829   2.470
 2033TIP3    H1 6105   4.555   1.738   2.441
 2033TIP3    H2 6106   4.468   1.859   2.468
 2034TIP3   OH2 6107   0.180   1.208   4.382
 2034TIP3    H1 6108   0.264   1.187   4.424
 2034TIP3    H2 6109   0.150   1.125   4.346
 2035TIP3   OH2 6110   1.458   4.822   2.601
 2035TIP3    H1 6111   1.411   4.741   2.580
 2035TIP3    H2 6112   1.521   4.797   2.668
 2036TIP3   OH2 6113   5.283   0.526   4.764
 2036TIP3    H1 6114   5.232   0.450   4.735
 2036TIP3    H2 6115   5.243   0.600   4.718
 2037TIP3   OH2 6116   0.130   1.325   1.622
 2037TIP3    H1 6117   0.088   1.239   1.616
 2037TIP3    H2 6118   0.071   1.384   1.576
 2038TIP3   OH2 6119   0.650   2.411   0.559
 2038TIP3    H1 6120   0.612   2.473   0.622
 2038TIP3    H2 6121   0.717   2.365   0.609
 2039TIP3   OH2 6122   2.769   0.115   1.527
 2039TIP3    H1 6123   2.775   0.199   1.573
 2039TIP3    H2 6124   2.703   0.066   1.575
 2040TIP3   OH2 6125   3.083   5.761   2.092
 2040TIP3    H1 6126   3.080   5.786   2.184
 2040TIP3    H2 6127   3.077   5.844   2.044
 2041TIP3   OH2 6128   4.658   4.314   4.312
 2041TIP3    H1 6129   4.639   4.294   4.220
 2041TIP3    H2 6130   4.636   4.407   4.322
 2042TIP3   OH2 6131   1.754   4.100   4.753
 2042TIP3    H1 6132   1.752   4.130   4.844
 2042TIP3    H2 6133   1.674   4.136   4.714
 2043TIP3   OH2 6134   3.135   0.702   4.215
 2043TIP3    H1 6135   3.043   0.679   4.202
 2043TIP3    H2 6136   3.156   0.671   4.303
 2044TIP3   OH2 6137   3.933   2.494   1.171
 2044TIP3    H1 6138   3.951   2.578   1.213
 2044TIP3    H2 6139   3.848   2.467   1.206
 2045TIP3   OH2 6140   4.589   4.311   1.216
 2045TIP3    H1 6141   4.603   4.217   1.208
 2045TIP3    H2 6142   4.496   4.323   1.202
 2046TIP3   OH2 6143   3.074   3.461   1.828
 2046TIP3    H1 6144   3.149   3.456   1.886
 2046TIP3    H2 6145   3.079   3.549   1.790
 2047TIP3   OH2 6146   2.390   3.743   2.495
 2047TIP3    H1 6147   2.441   3.732   2.575
 2047TIP3    H2 6148   2.307   3.699   2.513
 2048TIP3   OH2 6149   2.346   4.008   2.821
 2048TIP3    H1 6150   2.426   4.060   2.812
 2048TIP3    H2 6151   2.276   4.066   2.789
 2049TIP3   OH2 6152   5.915   2.732   5.025
 2049TIP3    H1 6153   5.984   2.748   5.089
 2049TIP3    H2 6154   5.849   2.798   5.044
 2050TIP3   OH2 6155   5.960   4.838   4.943
 2050TIP3    H1 6156   6.020   4.909   4.965
 2050TIP3    H2 6157   5.955   4.841   4.847
 2051TIP3   OH2 6158   4.900   2.526   3.826
 2051TIP3    H1 6159   4.991   2.550   3.844
 2051TIP3    H2 6160   4.906   2.449   3.770
 2052TIP3   OH2 6161   1.983   3.994   2.596
 2052TIP3    H1 6162   1.962   3.902   2.614
 2052TIP3    H2 6163   1.979   4.001   2.501
 2053TIP3   OH2 6164   4.784   1.259   5.017
 2053TIP3    H1 6165   4.729   1.304   4.953
 2053TIP3    H2 6166   4.755   1.294   5.102
 2054TIP3   OH2 6167   0.018   2.329   1.823
 2054TIP3    H1 6168   0.033   2.318   1.729
 2054TIP3    H2 6169   0.098   2.295   1.864
 2055TIP3   OH2 6170   1.133   0.188   0.227
 2055TIP3    H1 6171   1.215   0.232   0.253
 2055TIP3    H2 6172   1.162   0.117   0.169
 2056TIP3   OH2 6173   6.051   4.316   4.952
 2056TIP3    H1 6174   6.066   4.245   4.891
 2056TIP3    H2 6175   5.961   4.343   4.936
 2057TIP3   OH2 6176   2.962   1.923   2.972
 2057TIP3    H1 6177   2.987   1.830   2.967
 2057TIP3    H2 6178   2.866   1.922   2.974
 2058TIP3   OH2 6179   1.851   0.618   4.193
 2058TIP3    H1 6180   1.875   0.594   4.282
 2058TIP3    H2 6181   1.756   0.631   4.197
 2059TIP3   OH2 6182   2.271   4.070   2.221
 2059TIP3    H1 6183   2.273   4.075   2.125
 2059TIP3    H2 6184   2.189   4.112   2.245
 2060TIP3   OH2 6185   0.603   3.975   5.180
 2060TIP3    H1 6186   0.592   4.001   5.089
 2060TIP3    H2 6187   0.698   3.975   5.195
 2061TIP3   OH2 6188   2.298   4.607   2.974
 2061TIP3    H1 6189   2.230   4.569   2.919
 2061TIP3    H2 6190   2.277   4.700   2.977
 2062TIP3   OH2 6191   5.420   0.585   3.463
 2062TIP3    H1 6192   5.366   0.570   3.386
 2062TIP3    H2 6193   5.388   0.668   3.499
 2063TIP3   OH2 6194   1.641   3.194   3.781
 2063TIP3    H1 6195   1.709   3.174   3.717
 2063TIP3    H2 6196   1.590   3.264   3.741
 2064TIP3   OH2 6197   3.793   0.499   0.734
 2064TIP3    H1 6198   3.798   0.458   0.820
 2064TIP3    H2 6199   3.704   0.482   0.704
 2065TIP3   OH2 6200   5.450   0.785   3.220
 2065TIP3    H1 6201   5.513   0.715   3.238
 2065TIP3    H2 6202   5.482   0.860   3.271
 2066TIP3   OH2 6203   3.808   0.091   0.717
 2066TIP3    H1 6204   3.840   0.159   0.657
 2066TIP3    H2 6205   3.790   0.137   0.799
 2067TIP3   OH2 6206   4.980   2.155   3.907
 2067TIP3    H1 6207   5.015   2.169   3.995
 2067TIP3    H2 6208   4.980   2.060   3.896
 2068TIP3   OH2 6209   4.135   4.034   2.941
 2068TIP3    H1 6210   4.085   4.109   2.909
 2068TIP3    H2 6211   4.102   3.960   2.891
 2069TIP3   OH2 6212   0.919   4.866   0.046
 2069TIP3    H1 6213   0.967   4.924   0.105
 2069TIP3    H2 6214   0.953   4.778   0.066
 2070TIP3   OH2 6215   4.111   4.713   0.753
 2070TIP3    H1 6216   4.137   4.795   0.711
 2070TIP3    H2 6217   4.015   4.715   0.753
 2071TIP3   OH2 6218   1.179   0.011   0.550
 2071TIP3    H1 6219   1.137  -0.023   0.472
 2071TIP3    H2 6220   1.273  -0.005   0.535
 2072TIP3   OH2 6221   1.806   5.704   4.480
 2072TIP3    H1 6222   1.749   5.719   4.555
 2072TIP3    H2 6223   1.846   5.789   4.462
 2073TIP3   OH2 6224   1.491   5.150   1.770
 2073TIP3    H1 6225   1.417   5.207   1.750
 2073TIP3    H2 6226   1.471   5.115   1.857
 2074TIP3   OH2 6227   1.518   4.835   0.117
 2074TIP3    H1 6228   1.430   4.821   0.082
 2074TIP3    H2 6229   1.504   4.862   0.208
 2075TIP3   OH2 6230   0.218   5.640   3.370
 2075TIP3    H1 6231   0.189   5.662   3.281
 2075TIP3    H2 6232   0.210   5.722   3.419
 2076TIP3   OH2 6233   2.819   5.376   0.855
 2076TIP3    H1 6234   2.848   5.286   0.847
 2076TIP3    H2 6235   2.848   5.418   0.774
 2077TIP3   OH2 6236   4.758   1.465   2.513
 2077TIP3    H1 6237   4.809   1.546   2.515
 2077TIP3    H2 6238   4.676   1.490   2.469
 2078TIP3   OH2 6239   2.969   3.801   1.676
 2078TIP3    H1 6240   2.940   3.892   1.663
 2078TIP3    H2 6241   2.978   3.793   1.771
 2079TIP3   OH2 6242   0.971   5.496   2.593
 2079TIP3    H1 6243   0.994   5.517   2.503
 2079TIP3    H2 6244   0.936   5.578   2.629
 2080TIP3   OH2 6245   3.080   2.677   1.740
 2080TIP3    H1 6246   3.128   2.612   1.790
 2080TIP3    H2 6247   3.005   2.630   1.704
 2081TIP3   OH2 6248   0.697   0.036   0.172
 2081TIP3    H1 6249   0.779   0.016   0.128
 2081TIP3    H2 6250   0.692  -0.027   0.244
 2082TIP3   OH2 6251   3.327   1.490   0.928
 2082TIP3    H1 6252   3.233   1.478   0.916
 2082TIP3    H2 6253   3.344   1.463   1.018
 2083TIP3   OH2 6254   3.966   4.067   4.220
 2083TIP3    H1 6255   3.949   4.159   4.201
 2083TIP3    H2 6256   3.999   4.032   4.137
 2084TIP3   OH2 6257   0.749   0.564   0.824
 2084TIP3    H1 6258   0.820   0.556   0.761
 2084TIP3    H2 6259   0.675   0.520   0.782
 2085TIP3   OH2 6260   5.714   1.168   1.497
 2085TIP3    H1 6261   5.702   1.226   1.572
 2085TIP3    H2 6262   5.790   1.114   1.519
 2086TIP3   OH2 6263   0.067   0.659   2.349
 2086TIP3    H1 6264   0.102   0.716   2.281
 2086TIP3    H2 6265   0.142   0.637   2.404
 2087TIP3   OH2 6266   2.761   3.907   3.673
 2087TIP3    H1 6267   2.753   3.956   3.592
 2087TIP3    H2 6268   2.785   3.818   3.645
 2088TIP3   OH2 6269   4.603   2.208   1.545
 2088TIP3    H1 6270   4.529   2.225   1.488
 2088TIP3    H2 6271   4.570   2.145   1.610
 2089TIP3   OH2 6272   3.892   2.722   0.021
 2089TIP3    H1 6273   3.871   2.629   0.027
 2089TIP3    H2 6274   3.987   2.724   0.010
 2090TIP3   OH2 6275   0.149   4.945   4.279
 2090TIP3    H1 6276   0.149   4.929   4.373
 2090TIP3    H2 6277   0.204   5.023   4.268
 2091TIP3   OH2 6278   0.208   3.739   3.418
 2091TIP3    H1 6279   0.179   3.666   3.473
 2091TIP3    H2 6280   0.204   3.815   3.475
 2092TIP3   OH2 6281   5.582   4.883   2.789
 2092TIP3    H1 6282   5.669   4.876   2.749
 2092TIP3    H2 6283   5.552   4.971   2.767
 2093TIP3   OH2 6284   2.000   0.118   1.376
 2093TIP3    H1 6285   2.049   0.051   1.329
 2093TIP3    H2 6286   1.918   0.126   1.329
 2094TIP3   OH2 6287   1.165   4.423   2.148
 2094TIP3    H1 6288   1.212   4.458   2.223
 2094TIP3    H2 6289   1.110   4.353   2.184
 2095TIP3   OH2 6290   5.189   0.315   3.038
 2095TIP3    H1 6291   5.279   0.347   3.043
 2095TIP3    H2 6292   5.136   0.394   3.028
 2096TIP3   OH2 6293   2.776   2.110   5.062
 2096TIP3    H1 6294   2.851   2.098   5.119
 2096TIP3    H2 6295   2.791   2.194   5.019
 2097TIP3   OH2 6296   4.982   5.169   3.990
 2097TIP3    H1 6297   4.989   5.082   3.951
 2097TIP3    H2 6298   4.999   5.155   4.083
 2098TIP3   OH2 6299   5.775   0.061   3.752
 2098TIP3    H1 6300   5.722  -0.018   3.742
 2098TIP3    H2 6301   5.839   0.057   3.681
 2099TIP3   OH2 6302   2.430   5.225   3.437
 2099TIP3    H1 6303   2.410   5.206   3.529
 2099TIP3    H2 6304   2.524   5.210   3.430
 2100TIP3   OH2 6305   6.161   0.811   0.068
 2100TIP3    H1 6306   6.101   0.825  -0.006
 2100TIP3    H2 6307   6.159   0.716   0.083
 2101TIP3   OH2 6308   0.707   5.858   3.455
 2101TIP3    H1 6309   0.650   5.798   3.504
 2101TIP3    H2 6310   0.742   5.918   3.521
 2102TIP3   OH2 6311   5.696   5.260   0.857
 2102TIP3    H1 6312   5.633   5.218   0.916
 2102TIP3    H2 6313   5.775   5.270   0.910
 2103TIP3   OH2 6314   1.587   0.730   2.356
 2103TIP3    H1 6315   1.498   0.764   2.344
 2103TIP3    H2 6316   1.592   0.708   2.449
 2104TIP3   OH2 6317   5.443   0.015   1.700
 2104TIP3    H1 6318   5.515   0.027   1.763
 2104TIP3    H2 6319   5.463   0.076   1.629
 2105TIP3   OH2 6320   2.799   0.239   3.077
 2105TIP3    H1 6321   2.819   0.332   3.066
 2105TIP3    H2 6322   2.754   0.215   2.996
 2106TIP3   OH2 6323   4.700   3.157   0.159
 2106TIP3    H1 6324   4.781   3.107   0.150
 2106TIP3    H2 6325   4.637   3.111   0.104
 2107TIP3   OH2 6326   3.824   2.390   2.941
 2107TIP3    H1 6327   3.764   2.464   2.945
 2107TIP3    H2 6328   3.879   2.399   3.020
 2108TIP3   OH2 6329   4.929   5.743   1.388
 2108TIP3    H1 6330   4.972   5.800   1.325
 2108TIP3    H2 6331   4.996   5.726   1.454
 2109TIP3   OH2 6332   1.497   1.834   3.990
 2109TIP3    H1 6333   1.591   1.845   3.975
 2109TIP3    H2 6334   1.487   1.741   4.011
 2110TIP3   OH2 6335   3.395   4.470   3.467
 2110TIP3    H1 6336   3.395   4.451   3.561
 2110TIP3    H2 6337   3.443   4.553   3.459
 2111TIP3   OH2 6338   3.530   2.632   4.741
 2111TIP3    H1 6339   3.624   2.650   4.741
 2111TIP3    H2 6340   3.513   2.595   4.828
 2112TIP3   OH2 6341   5.987   3.126   4.246
 2112TIP3    H1 6342   6.005   3.216   4.274
 2112TIP3    H2 6343   5.903   3.132   4.200
 2113TIP3   OH2 6344   4.851   5.098   0.227
 2113TIP3    H1 6345   4.910   5.154   0.278
 2113TIP3    H2 6346   4.907   5.029   0.193
 2114TIP3   OH2 6347   3.783   3.095   1.357
 2114TIP3    H1 6348   3.800   3.189   1.365
 2114TIP3    H2 6349   3.867   3.054   1.378
 2115TIP3   OH2 6350   2.352   2.727   0.533
 2115TIP3    H1 6351   2.294   2.754   0.462
 2115TIP3    H2 6352   2.365   2.634   0.519
 2116TIP3   OH2 6353   4.241   4.226   0.424
 2116TIP3    H1 6354   4.208   4.307   0.462
 2116TIP3    H2 6355   4.265   4.248   0.334
 2117TIP3   OH2 6356   2.856   0.417   0.976
 2117TIP3    H1 6357   2.949   0.409   0.957
 2117TIP3    H2 6358   2.831   0.501   0.937
 2118TIP3   OH2 6359   2.719   1.237   0.731
 2118TIP3    H1 6360   2.789   1.173   0.745
 2118TIP3    H2 6361   2.751   1.318   0.770
 2119TIP3   OH2 6362   5.423   1.574   2.280
 2119TIP3    H1 6363   5.400   1.580   2.373
 2119TIP3    H2 6364   5.339   1.579   2.234
 2120TIP3   OH2 6365   1.334   5.089   4.224
 2120TIP3    H1 6366   1.422   5.057   4.243
 2120TIP3    H2 6367   1.335   5.109   4.131
 2121TIP3   OH2 6368   3.030   3.936   3.419
 2121TIP3    H1 6369   3.001   3.852   3.384
 2121TIP3    H2 6370   3.046   3.918   3.512
 2122TIP3   OH2 6371   0.423   0.075   2.608
 2122TIP3    H1 6372   0.409   0.150   2.666
 2122TIP3    H2 6373   0.368   0.092   2.532
 2123TIP3   OH2 6374   3.780   5.975   3.527
 2123TIP3    H1 6375   3.783   5.890   3.572
 2123TIP3    H2 6376   3.794   5.953   3.434
 2124TIP3   OH2 6377   4.153   2.840   3.365
 2124TIP3    H1 6378   4.062   2.861   3.384
 2124TIP3    H2 6379   4.193   2.924   3.346
 2125TIP3   OH2 6380   2.730   1.551   0.263
 2125TIP3    H1 6381   2.653   1.603   0.289
 2125TIP3    H2 6382   2.802   1.614   0.267
 2126TIP3   OH2 6383   2.715   5.881   1.010
 2126TIP3    H1 6384   2.700   5.902   1.102
 2126TIP3    H2 6385   2.810   5.872   1.002
 2127TIP3   OH2 6386   4.654   2.454   1.003
 2127TIP3    H1 6387   4.584   2.394   0.977
 2127TIP3    H2 6388   4.692   2.485   0.921
 2128TIP3   OH2 6389   2.607   3.903   5.054
 2128TIP3    H1 6390   2.557   3.972   5.011
 2128TIP3    H2 6391   2.545   3.864   5.116
 2129TIP3   OH2 6392   0.410   0.299   4.545
 2129TIP3    H1 6393   0.389   0.227   4.605
 2129TIP3    H2 6394   0.349   0.287   4.472
 2130TIP3   OH2 6395   4.626   3.170   3.077
 2130TIP3    H1 6396   4.700   3.109   3.077
 2130TIP3    H2 6397   4.665   3.255   3.098
 2131TIP3   OH2 6398   4.788   5.105   3.644
 2131TIP3    H1 6399   4.791   5.011   3.625
 2131TIP3    H2 6400   4.840   5.144   3.573
 2132TIP3   OH2 6401   3.359   5.472   0.107
 2132TIP3    H1 6402   3.282   5.526   0.124
 2132TIP3    H2 6403   3.363   5.413   0.182
 2133TIP3   OH2 6404   5.134   0.564   2.596
 2133TIP3    H1 6405   5.061   0.523   2.549
 2133TIP3    H2 6406   5.097   0.645   2.631
 2134TIP3   OH2 6407   0.330   0.700   4.704
 2134TIP3    H1 6408   0.389   0.748   4.647
 2134TIP3    H2 6409   0.314   0.618   4.658
 2135TIP3   OH2 6410   2.107   0.861   3.703
 2135TIP3    H1 6411   2.123   0.788   3.762
 2135TIP3    H2 6412   2.093   0.821   3.618
 2136TIP3   OH2 6413   5.693   4.585   2.432
 2136TIP3    H1 6414   5.785   4.571   2.413
 2136TIP3    H2 6415   5.662   4.501   2.464
 2137TIP3   OH2 6416   3.315   1.754   3.255
 2137TIP3    H1 6417   3.344   1.810   3.327
 2137TIP3    H2 6418   3.220   1.747   3.268
 2138TIP3   OH2 6419   4.744   2.498   0.002
 2138TIP3    H1 6420   4.685   2.558  -0.043
 2138TIP3    H2 6421   4.696   2.471   0.081
 2139TIP3   OH2 6422   1.581   3.581   4.897
 2139TIP3    H1 6423   1.549   3.504   4.943
 2139TIP3    H2 6424   1.614   3.548   4.814
 2140TIP3   OH2 6425   4.405   2.619   0.448
 2140TIP3    H1 6426   4.313   2.643   0.437
 2140TIP3    H2 6427   4.453   2.699   0.426
 2141TIP3   OH2 6428   0.869   4.567   4.405
 2141TIP3    H1 6429   0.932   4.634   4.432
 2141TIP3    H2 6430   0.855   4.583   4.312
 2142TIP3   OH2 6431   5.512   0.030   2.169
 2142TIP3    H1 6432   5.488   0.002   2.257
 2142TIP3    H2 6433   5.539   0.121   2.179
 2143TIP3   OH2 6434   1.886   1.094   1.016
 2143TIP3    H1 6435   1.860   1.086   1.108
 2143TIP3    H2 6436   1.804   1.112   0.970
 2144TIP3   OH2 6437   0.921   5.457   3.441
 2144TIP3    H1 6438   1.001   5.486   3.397
 2144TIP3    H2 6439   0.852   5.511   3.402
 2145TIP3   OH2 6440   1.490   4.380   3.795
 2145TIP3    H1 6441   1.537   4.308   3.755
 2145TIP3    H2 6442   1.500   4.366   3.889
 2146TIP3   OH2 6443   0.795   1.767   4.908
 2146TIP3    H1 6444   0.733   1.739   4.840
 2146TIP3    H2 6445   0.877   1.782   4.862
 2147TIP3   OH2 6446   2.409   3.083   0.355
 2147TIP3    H1 6447   2.317   3.103   0.376
 2147TIP3    H2 6448   2.451   3.169   0.346
 2148TIP3   OH2 6449   5.442   5.714   3.781
 2148TIP3    H1 6450   5.519   5.699   3.836
 2148TIP3    H2 6451   5.477   5.753   3.701
 2149TIP3   OH2 6452   3.467   4.939   0.065
 2149TIP3    H1 6453   3.540   4.883   0.041
 2149TIP3    H2 6454   3.389   4.887   0.045
 2150TIP3   OH2 6455   2.525   5.265   4.510
 2150TIP3    H1 6456   2.524   5.227   4.598
 2150TIP3    H2 6457   2.612   5.305   4.502
 2151TIP3   OH2 6458   1.372   0.823   0.296
 2151TIP3    H1 6459   1.311   0.854   0.362
 2151TIP3    H2 6460   1.338   0.857   0.213
 2152TIP3   OH2 6461   6.152   4.186   3.734
 2152TIP3    H1 6462   6.097   4.109   3.717
 2152TIP3    H2 6463   6.240   4.150   3.743
 2153TIP3   OH2 6464   2.077   3.486   0.560
 2153TIP3    H1 6465   1.997   3.531   0.586
 2153TIP3    H2 6466   2.091   3.420   0.627
 2154TIP3   OH2 6467   5.381   3.691   4.788
 2154TIP3    H1 6468   5.311   3.666   4.848
 2154TIP3    H2 6469   5.400   3.611   4.740
 2155TIP3   OH2 6470   1.838   2.707   4.835
 2155TIP3    H1 6471   1.775   2.644   4.799
 2155TIP3    H2 6472   1.798   2.737   4.917
 2156TIP3   OH2 6473   2.470   5.721   0.830
 2156TIP3    H1 6474   2.525   5.665   0.885
 2156TIP3    H2 6475   2.385   5.677   0.827
 2157TIP3   OH2 6476   6.245   0.757   3.007
 2157TIP3    H1 6477   6.294   0.801   2.937
 2157TIP3    H2 6478   6.157   0.793   3.000
 2158TIP3   OH2 6479   0.735   0.074   2.989
 2158TIP3    H1 6480   0.734   0.146   3.053
 2158TIP3    H2 6481   0.648   0.035   2.995
 2159TIP3   OH2 6482   6.320   4.218   4.994
 2159TIP3    H1 6483   6.361   4.230   5.080
 2159TIP3    H2 6484   6.239   4.269   4.999
 2160TIP3   OH2 6485   4.054   3.344   1.703
 2160TIP3    H1 6486   3.963   3.365   1.720
 2160TIP3    H2 6487   4.068   3.260   1.748
 2161TIP3   OH2 6488   0.153   4.189   1.688
 2161TIP3    H1 6489   0.231   4.241   1.705
 2161TIP3    H2 6490   0.082   4.253   1.681
 2162TIP3   OH2 6491   3.344   1.606   0.618
 2162TIP3    H1 6492   3.311   1.591   0.706
 2162TIP3    H2 6493   3.366   1.699   0.615
 2163TIP3   OH2 6494   6.322   0.906   0.276
 2163TIP3    H1 6495   6.378   0.829   0.272
 2163TIP3    H2 6496   6.248   0.885   0.220
 2164TIP3   OH2 6497   0.396   4.427   1.327
 2164TIP3    H1 6498   0.301   4.443   1.325
 2164TIP3    H2 6499   0.429   4.469   1.247
 2165TIP3   OH2 6500   6.272   2.104   4.814
 2165TIP3    H1 6501   6.184   2.089   4.848
 2165TIP3    H2 6502   6.270   2.067   4.725
 2166TIP3   OH2 6503   2.420   0.398   5.015
 2166TIP3    H1 6504   2.367   0.406   4.935
 2166TIP3    H2 6505   2.510   0.393   4.983
 2167TIP3   OH2 6506   4.775   4.001   2.099
 2167TIP3    H1 6507   4.764   4.095   2.085
 2167TIP3    H2 6508   4.736   3.961   2.022
 2168TIP3   OH2 6509   2.213   0.379   3.404
 2168TIP3    H1 6510   2.288   0.425   3.366
 2168TIP3    H2 6511   2.142   0.394   3.341
 2169TIP3   OH2 6512   3.280   5.015   0.985
 2169TIP3    H1 6513   3.321   4.996   0.901
 2169TIP3    H2 6514   3.250   5.106   0.978
 2170TIP3   OH2 6515   4.909   2.863   1.875
 2170TIP3    H1 6516   4.837   2.876   1.814
 2170TIP3    H2 6517   4.919   2.768   1.880
 2171TIP3   OH2 6518   0.800   2.379   2.477
 2171TIP3    H1 6519   0.859   2.314   2.439
 2171TIP3    H2 6520   0.731   2.326   2.519
 2172TIP3   OH2 6521   1.464   2.721   3.580
 2172TIP3    H1 6522   1.558   2.710   3.569
 2172TIP3    H2 6523   1.435   2.766   3.501
 2173TIP3   OH2 6524   0.377   0.608   1.727
 2173TIP3    H1 6525   0.397   0.696   1.694
 2173TIP3    H2 6526   0.346   0.560   1.651
 2174TIP3   OH2 6527   1.329   2.644   3.313
 2174TIP3    H1 6528   1.244   2.629   3.355
 2174TIP3    H2 6529   1.341   2.739   3.318
 2175TIP3   OH2 6530   2.955   4.310   0.226
 2175TIP3    H1 6531   2.913   4.232   0.190
 2175TIP3    H2 6532   3.007   4.345   0.153
 2176TIP3   OH2 6533   1.026   2.585   1.993
 2176TIP3    H1 6534   0.945   2.632   1.972
 2176TIP3    H2 6535   1.091   2.654   2.007
 2177TIP3   OH2 6536   0.701   2.370   1.692
 2177TIP3    H1 6537   0.684   2.444   1.635
 2177TIP3    H2 6538   0.617   2.349   1.731
 2178TIP3   OH2 6539   5.022   1.456   1.454
 2178TIP3    H1 6540   5.064   1.473   1.370
 2178TIP3    H2 6541   4.958   1.527   1.464
 2179TIP3   OH2 6542   4.575   1.508   4.869
 2179TIP3    H1 6543   4.508   1.531   4.933
 2179TIP3    H2 6544   4.526   1.471   4.795
 2180TIP3   OH2 6545   1.663   4.956   0.923
 2180TIP3    H1 6546   1.683   4.864   0.908
 2180TIP3    H2 6547   1.602   4.956   0.997
 2181TIP3   OH2 6548   2.909   4.524   2.899
 2181TIP3    H1 6549   2.943   4.434   2.908
 2181TIP3    H2 6550   2.947   4.571   2.973
 2182TIP3   OH2 6551   1.270   1.385   1.897
 2182TIP3    H1 6552   1.268   1.407   1.804
 2182TIP3    H2 6553   1.276   1.470   1.942
 2183TIP3   OH2 6554   6.028   3.563   5.076
 2183TIP3    H1 6555   6.071   3.485   5.042
 2183TIP3    H2 6556   5.952   3.530   5.124
 2184TIP3   OH2 6557   6.245   1.371   3.410
 2184TIP3    H1 6558   6.172   1.312   3.390
 2184TIP3    H2 6559   6.304   1.363   3.335
 2185TIP3   OH2 6560   4.894   4.573   5.187
 2185TIP3    H1 6561   4.968   4.513   5.185
 2185TIP3    H2 6562   4.848   4.553   5.269
 2186TIP3   OH2 6563   4.459   0.924   3.516
 2186TIP3    H1 6564   4.375   0.884   3.536
 2186TIP3    H2 6565   4.474   0.905   3.423
 2187TIP3   OH2 6566   5.273   5.973   0.317
 2187TIP3    H1 6567   5.235   6.012   0.238
 2187TIP3    H2 6568   5.351   5.927   0.286
 2188TIP3   OH2 6569   4.362   3.657   3.948
 2188TIP3    H1 6570   4.320   3.571   3.945
 2188TIP3    H2 6571   4.331   3.696   4.029
 2189TIP3   OH2 6572   2.970   3.067   2.874
 2189TIP3    H1 6573   3.045   3.088   2.819
 2189TIP3    H2 6574   2.895   3.068   2.815
 2190TIP3   OH2 6575   5.815   2.360   4.351
 2190TIP3    H1 6576   5.807   2.416   4.427
 2190TIP3    H2 6577   5.732   2.313   4.346
 2191TIP3   OH2 6578   5.088   3.570   3.446
 2191TIP3    H1 6579   5.076   3.568   3.541
 2191TIP3    H2 6580   5.057   3.656   3.420
 2192TIP3   OH2 6581   4.421   0.664   3.887
 2192TIP3    H1 6582   4.502   0.641   3.932
 2192TIP3    H2 6583   4.404   0.589   3.829
 2193TIP3   OH2 6584   1.854   4.263   3.928
 2193TIP3    H1 6585   1.807   4.225   4.002
 2193TIP3    H2 6586   1.837   4.203   3.856
 2194TIP3   OH2 6587   0.041   0.105   3.911
 2194TIP3    H1 6588   0.061   0.020   3.872
 2194TIP3    H2 6589  -0.018   0.147   3.848
 2195TIP3   OH2 6590   5.700   2.359   2.842
 2195TIP3    H1 6591   5.702   2.454   2.832
 2195TIP3    H2 6592   5.618   2.332   2.801
 2196TIP3   OH2 6593   2.181   4.479   0.288
 2196TIP3    H1 6594   2.101   4.491   0.237
 2196TIP3    H2 6595   2.168   4.395   0.332
 2197TIP3   OH2 6596   4.463   2.801   4.496
 2197TIP3    H1 6597   4.405   2.763   4.562
 2197TIP3    H2 6598   4.505   2.875   4.541
 2198TIP3   OH2 6599   2.935   5.684   1.660
 2198TIP3    H1 6600   2.891   5.659   1.742
 2198TIP3    H2 6601   3.028   5.678   1.679
 2199TIP3   OH2 6602   2.989   5.440   3.613
 2199TIP3    H1 6603   3.051   5.368   3.601
 2199TIP3    H2 6604   3.032   5.499   3.675
 2200TIP3   OH2 6605   4.625   3.867   4.513
 2200TIP3    H1 6606   4.662   3.955   4.524
 2200TIP3    H2 6607   4.638   3.847   4.420
 2201TIP3   OH2 6608   6.321   3.500   4.947
 2201TIP3    H1 6609   6.363   3.486   5.032
 2201TIP3    H2 6610   6.308   3.413   4.911
 2202TIP3   OH2 6611   2.967   1.936   0.142
 2202TIP3    H1 6612   3.032   1.877   0.180
 2202TIP3    H2 6613   2.955   1.904   0.053
 2203TIP3   OH2 6614   5.190   3.412   1.474
 2203TIP3    H1 6615   5.241   3.430   1.395
 2203TIP3    H2 6616   5.256   3.395   1.542
 2204TIP3   OH2 6617   4.844   0.057   3.219
 2204TIP3    H1 6618   4.816   0.138   3.263
 2204TIP3    H2 6619   4.940   0.061   3.220
 2205TIP3   OH2 6620   5.499   1.002   1.561
 2205TIP3    H1 6621   5.524   0.920   1.604
 2205TIP3    H2 6622   5.582   1.049   1.549
 2206TIP3   OH2 6623   0.909   4.926   3.679
 2206TIP3    H1 6624   0.966   4.902   3.752
 2206TIP3    H2 6625   0.939   5.012   3.652
 2207TIP3   OH2 6626   2.901   3.308   0.460
 2207TIP3    H1 6627   2.964   3.244   0.492
 2207TIP3    H2 6628   2.902   3.298   0.365
 2208TIP3   OH2 6629   4.456   1.897   0.213
 2208TIP3    H1 6630   4.531   1.838   0.225
 2208TIP3    H2 6631   4.426   1.881   0.124
 2209TIP3   OH2 6632   3.378   0.417   2.179
 2209TIP3    H1 6633   3.343   0.328   2.177
 2209TIP3    H2 6634   3.433   0.419   2.258
 2210TIP3   OH2 6635   5.172   3.148   0.504
 2210TIP3    H1 6636   5.258   3.183   0.527
 2210TIP3    H2 6637   5.190   3.079   0.441
 2211TIP3   OH2 6638   0.564   1.272   0.505
 2211TIP3    H1 6639   0.593   1.229   0.425
 2211TIP3    H2 6640   0.603   1.221   0.575
 2212TIP3   OH2 6641   3.200   0.667   5.137
 2212TIP3    H1 6642   3.163   0.584   5.108
 2212TIP3    H2 6643   3.145   0.693   5.211
 2213TIP3   OH2 6644   0.806   2.628   1.869
 2213TIP3    H1 6645   0.747   2.703   1.883
 2213TIP3    H2 6646   0.755   2.552   1.896
 2214TIP3   OH2 6647   1.544   0.249   2.410
 2214TIP3    H1 6648   1.568   0.331   2.367
 2214TIP3    H2 6649   1.448   0.251   2.414
 2215TIP3   OH2 6650   5.325   2.217   5.076
 2215TIP3    H1 6651   5.264   2.221   5.002
 2215TIP3    H2 6652   5.376   2.137   5.060
 2216TIP3   OH2 6653   2.329   1.755   3.868
 2216TIP3    H1 6654   2.400   1.803   3.826
 2216TIP3    H2 6655   2.364   1.730   3.954
 2217TIP3   OH2 6656   1.654   0.051   3.924
 2217TIP3    H1 6657   1.746   0.080   3.924
 2217TIP3    H2 6658   1.653  -0.024   3.984
 2218TIP3   OH2 6659   1.209   1.012   0.519
 2218TIP3    H1 6660   1.142   1.009   0.450
 2218TIP3    H2 6661   1.207   0.925   0.558
 2219TIP3   OH2 6662   0.975   1.945   1.130
 2219TIP3    H1 6663   0.911   1.888   1.171
 2219TIP3    H2 6664   0.986   2.017   1.192
 2220TIP3   OH2 6665   0.732   1.513   3.075
 2220TIP3    H1 6666   0.733   1.437   3.133
 2220TIP3    H2 6667   0.770   1.584   3.127
 2221TIP3   OH2 6668   3.491   0.135   2.157
 2221TIP3    H1 6669   3.474   0.157   2.249
 2221TIP3    H2 6670   3.582   0.107   2.155
 2222TIP3   OH2 6671   5.434   1.759   1.504
 2222TIP3    H1 6672   5.526   1.782   1.493
 2222TIP3    H2 6673   5.422   1.680   1.452
 2223TIP3   OH2 6674   1.426   5.898   3.103
 2223TIP3    H1 6675   1.449   5.929   3.190
 2223TIP3    H2 6676   1.433   5.975   3.047
 2224TIP3   OH2 6677   3.493   0.725   2.720
 2224TIP3    H1 6678   3.420   0.785   2.704
 2224TIP3    H2 6679   3.481   0.696   2.811
 2225TIP3   OH2 6680   1.282   0.747   4.387
 2225TIP3    H1 6681   1.232   0.822   4.356
 2225TIP3    H2 6682   1.228   0.708   4.455
 2226TIP3   OH2 6683   0.056   0.808   4.757
 2226TIP3    H1 6684   0.137   0.784   4.712
 2226TIP3    H2 6685   0.001   0.847   4.690
 2227TIP3   OH2 6686   0.863   0.934   3.572
 2227TIP3    H1 6687   0.835   0.994   3.502
 2227TIP3    H2 6688   0.945   0.897   3.541
 2228TIP3   OH2 6689   1.234   1.403   1.634
 2228TIP3    H1 6690   1.187   1.482   1.605
 2228TIP3    H2 6691   1.327   1.426   1.623
 2229TIP3   OH2 6692   1.229   4.494   1.619
 2229TIP3    H1 6693   1.212   4.585   1.643
 2229TIP3    H2 6694   1.271   4.499   1.533
 2230TIP3   OH2 6695   2.640   3.424   3.275
 2230TIP3    H1 6696   2.590   3.477   3.213
 2230TIP3    H2 6697   2.594   3.434   3.358
 2231TIP3   OH2 6698   4.472   0.726   4.419
 2231TIP3    H1 6699   4.561   0.716   4.384
 2231TIP3    H2 6700   4.435   0.799   4.370
 2232TIP3   OH2 6701   2.268   1.777   3.118
 2232TIP3    H1 6702   2.262   1.790   3.023
 2232TIP3    H2 6703   2.333   1.842   3.147
 2233TIP3   OH2 6704   0.765   4.333   4.625
 2233TIP3    H1 6705   0.823   4.260   4.602
 2233TIP3    H2 6706   0.723   4.357   4.542
 2234TIP3   OH2 6707   0.859   2.618   2.304
 2234TIP3    H1 6708   0.798   2.677   2.347
 2234TIP3    H2 6709   0.828   2.530   2.326
 2235TIP3   OH2 6710   4.336   1.164   1.244
 2235TIP3    H1 6711   4.299   1.076   1.255
 2235TIP3    H2 6712   4.431   1.150   1.244
 2236TIP3   OH2 6713   5.859   2.770   3.518
 2236TIP3    H1 6714   5.794   2.741   3.453
 2236TIP3    H2 6715   5.881   2.691   3.567
 2237TIP3   OH2 6716   5.167   4.566   4.636
 2237TIP3    H1 6717   5.148   4.495   4.698
 2237TIP3    H2 6718   5.240   4.613   4.675
 2238TIP3   OH2 6719   2.405   5.719   1.909
 2238TIP3    H1 6720   2.421   5.802   1.953
 2238TIP3    H2 6721   2.344   5.673   1.967
 2239TIP3   OH2 6722   0.127   1.054   1.835
 2239TIP3    H1 6723   0.122   1.066   1.930
 2239TIP3    H2 6724   0.214   1.086   1.811
 2240TIP3   OH2 6725   4.491   1.900   2.824
 2240TIP3    H1 6726   4.451   1.821   2.789
 2240TIP3    H2 6727   4.455   1.971   2.771
 2241TIP3   OH2 6728   2.625   4.415   0.880
 2241TIP3    H1 6729   2.657   4.382   0.796
 2241TIP3    H2 6730   2.682   4.373   0.945
 2242TIP3   OH2 6731   4.160   0.623   0.321
 2242TIP3    H1 6732   4.179   0.624   0.414
 2242TIP3    H2 6733   4.127   0.534   0.304
 2243TIP3   OH2 6734   5.501   0.097   4.306
 2243TIP3    H1 6735   5.476   0.146   4.384
 2243TIP3    H2 6736   5.418   0.060   4.274
 2244TIP3   OH2 6737   5.376   5.997   1.779
 2244TIP3    H1 6738   5.291   5.992   1.823
 2244TIP3    H2 6739   5.354   6.023   1.689
 2245TIP3   OH2 6740   6.186   4.131   1.844
 2245TIP3    H1 6741   6.186   4.188   1.921
 2245TIP3    H2 6742   6.137   4.181   1.778
 2246TIP3   OH2 6743   4.797   5.008   1.530
 2246TIP3    H1 6744   4.801   5.058   1.448
 2246TIP3    H2 6745   4.740   4.934   1.511
 2247TIP3   OH2 6746   5.726   4.096   0.753
 2247TIP3    H1 6747   5.719   4.098   0.848
 2247TIP3    H2 6748   5.636   4.093   0.722
 2248TIP3   OH2 6749   0.259   1.193   4.754
 2248TIP3    H1 6750   0.293   1.191   4.664
 2248TIP3    H2 6751   0.310   1.126   4.800
 2249TIP3   OH2 6752   5.789   5.413   2.131
 2249TIP3    H1 6753   5.766   5.505   2.117
 2249TIP3    H2 6754   5.766   5.395   2.222
 2250TIP3   OH2 6755   4.667   3.457   0.110
 2250TIP3    H1 6756   4.637   3.379   0.155
 2250TIP3    H2 6757   4.646   3.441   0.018
 2251TIP3   OH2 6758   3.704   5.070   2.253
 2251TIP3    H1 6759   3.723   5.012   2.180
 2251TIP3    H2 6760   3.613   5.097   2.239
 2252TIP3   OH2 6761   3.669   3.220   2.845
 2252TIP3    H1 6762   3.613   3.184   2.777
 2252TIP3    H2 6763   3.734   3.272   2.798
 2253TIP3   OH2 6764   0.170   1.085   0.141
 2253TIP3    H1 6765   0.149   1.004   0.187
 2253TIP3    H2 6766   0.110   1.087   0.066
 2254TIP3   OH2 6767   1.946   5.501   1.155
 2254TIP3    H1 6768   1.873   5.455   1.195
 2254TIP3    H2 6769   1.981   5.556   1.225
 2255TIP3   OH2 6770   4.736   0.633   1.082
 2255TIP3    H1 6771   4.751   0.556   1.027
 2255TIP3    H2 6772   4.691   0.695   1.026
 2256TIP3   OH2 6773   6.152   0.572   4.933
 2256TIP3    H1 6774   6.087   0.583   4.864
 2256TIP3    H2 6775   6.173   0.478   4.931
 2257TIP3   OH2 6776   5.672   3.328   0.431
 2257TIP3    H1 6777   5.690   3.418   0.405
 2257TIP3    H2 6778   5.610   3.296   0.365
 2258TIP3   OH2 6779   3.177   3.833   2.645
 2258TIP3    H1 6780   3.255   3.884   2.664
 2258TIP3    H2 6781   3.152   3.858   2.556
 2259TIP3   OH2 6782   3.781   4.361   1.481
 2259TIP3    H1 6783   3.813   4.292   1.540
 2259TIP3    H2 6784   3.736   4.423   1.538
 2260TIP3   OH2 6785   0.205   0.341   2.524
 2260TIP3    H1 6786   0.227   0.337   2.431
 2260TIP3    H2 6787   0.201   0.435   2.544
 2261TIP3   OH2 6788   3.268   0.509   3.017
 2261TIP3    H1 6789   3.279   0.548   3.104
 2261TIP3    H2 6790   3.260   0.584   2.958
 2262TIP3   OH2 6791   3.191   3.988   2.996
 2262TIP3    H1 6792   3.238   3.923   3.048
 2262TIP3    H2 6793   3.116   3.941   2.960
 2263TIP3   OH2 6794   4.300   5.391   3.904
 2263TIP3    H1 6795   4.252   5.471   3.926
 2263TIP3    H2 6796   4.392   5.415   3.911
 2264TIP3   OH2 6797   3.343   1.938   2.461
 2264TIP3    H1 6798   3.314   1.914   2.550
 2264TIP3    H2 6799   3.369   2.030   2.469
 2265TIP3   OH2 6800   0.937   0.543   1.076
 2265TIP3    H1 6801   0.866   0.554   1.012
 2265TIP3    H2 6802   0.904   0.586   1.155
 2266TIP3   OH2 6803   4.230   4.820   5.172
 2266TIP3    H1 6804   4.268   4.740   5.137
 2266TIP3    H2 6805   4.278   4.891   5.128
 2267TIP3   OH2 6806   3.738   1.249   3.941
 2267TIP3    H1 6807   3.820   1.204   3.921
 2267TIP3    H2 6808   3.686   1.184   3.989
 2268TIP3   OH2 6809   0.150   4.770   5.146
 2268TIP3    H1 6810   0.085   4.776   5.077
 2268TIP3    H2 6811   0.232   4.796   5.104
 2269TIP3   OH2 6812   0.661   3.017   1.088
 2269TIP3    H1 6813   0.678   3.089   1.149
 2269TIP3    H2 6814   0.586   3.046   1.037
 2270TIP3   OH2 6815   6.029   0.965   1.070
 2270TIP3    H1 6816   6.109   0.923   1.104
 2270TIP3    H2 6817   6.050   0.986   0.979
 2271TIP3   OH2 6818   2.154   3.836   2.976
 2271TIP3    H1 6819   2.196   3.884   2.905
 2271TIP3    H2 6820   2.224   3.823   3.040
 2272TIP3   OH2 6821   4.725   2.310   0.648
 2272TIP3    H1 6822   4.772   2.362   0.584
 2272TIP3    H2 6823   4.648   2.363   0.669
 2273TIP3   OH2 6824   1.364   5.887   4.555
 2273TIP3    H1 6825   1.309   5.816   4.588
 2273TIP3    H2 6826   1.302   5.955   4.528
 2274TIP3   OH2 6827   4.477   3.371   4.186
 2274TIP3    H1 6828   4.452   3.304   4.248
 2274TIP3    H2 6829   4.461   3.454   4.232
 2275TIP3   OH2 6830   0.666   2.799   2.415
 2275TIP3    H1 6831   0.596   2.748   2.456
 2275TIP3    H2 6832   0.628   2.886   2.403
 2276TIP3   OH2 6833   1.409   5.141   2.367
 2276TIP3    H1 6834   1.460   5.126   2.288
 2276TIP3    H2 6835   1.370   5.055   2.386
 2277TIP3   OH2 6836   2.857   0.632   2.768
 2277TIP3    H1 6837   2.910   0.554   2.784
 2277TIP3    H2 6838   2.779   0.599   2.724
 2278TIP3   OH2 6839   5.576   5.048   3.388
 2278TIP3    H1 6840   5.523   5.017   3.461
 2278TIP3    H2 6841   5.617   4.969   3.352
 2279TIP3   OH2 6842   0.249   0.909   1.144
 2279TIP3    H1 6843   0.339   0.940   1.149
 2279TIP3    H2 6844   0.229   0.876   1.232
 2280TIP3   OH2 6845   0.468   2.907   3.848
 2280TIP3    H1 6846   0.435   2.865   3.928
 2280TIP3    H2 6847   0.554   2.940   3.872
 2281TIP3   OH2 6848   4.458   4.931   4.620
 2281TIP3    H1 6849   4.473   4.961   4.530
 2281TIP3    H2 6850   4.440   5.011   4.669
 2282TIP3   OH2 6851   6.143   0.784   1.533
 2282TIP3    H1 6852   6.204   0.759   1.603
 2282TIP3    H2 6853   6.156   0.719   1.465
 2283TIP3   OH2 6854   5.649   5.387   2.389
 2283TIP3    H1 6855   5.619   5.475   2.411
 2283TIP3    H2 6856   5.586   5.356   2.324
 2284TIP3   OH2 6857   5.459   1.533   3.483
 2284TIP3    H1 6858   5.387   1.566   3.429
 2284TIP3    H2 6859   5.529   1.598   3.471
 2285TIP3   OH2 6860   3.751   4.828   3.015
 2285TIP3    H1 6861   3.814   4.757   3.026
 2285TIP3    H2 6862   3.667   4.789   3.038
 2286TIP3   OH2 6863   5.412   4.537   0.303
 2286TIP3    H1 6864   5.441   4.472   0.239
 2286TIP3    H2 6865   5.480   4.537   0.370
 2287TIP3   OH2 6866   4.147   4.415   5.191
 2287TIP3    H1 6867   4.193   4.472   5.129
 2287TIP3    H2 6868   4.176   4.445   5.277
 2288TIP3   OH2 6869   3.333   5.085   4.939
 2288TIP3    H1 6870   3.359   5.084   5.031
 2288TIP3    H2 6871   3.277   5.163   4.931
 2289TIP3   OH2 6872   1.495   2.301   4.401
 2289TIP3    H1 6873   1.488   2.385   4.447
 2289TIP3    H2 6874   1.406   2.266   4.403
 2290TIP3   OH2 6875   0.856   0.152   4.814
 2290TIP3    H1 6876   0.804   0.218   4.859
 2290TIP3    H2 6877   0.927   0.201   4.773
 2291TIP3   OH2 6878   5.848   0.770   0.321
 2291TIP3    H1 6879   5.942   0.755   0.309
 2291TIP3    H2 6880   5.841   0.817   0.404
 2292TIP3   OH2 6881   1.194   1.672   1.501
 2292TIP3    H1 6882   1.278   1.694   1.460
 2292TIP3    H2 6883   1.131   1.674   1.430
 2293TIP3   OH2 6884   4.912   2.944   4.364
 2293TIP3    H1 6885   4.955   3.009   4.420
 2293TIP3    H2 6886   4.955   2.955   4.279
 2294TIP3   OH2 6887   4.301   5.253   0.332
 2294TIP3    H1 6888   4.383   5.223   0.291
 2294TIP3    H2 6889   4.270   5.322   0.273
 2295TIP3   OH2 6890   0.019   4.985   0.666
 2295TIP3    H1 6891  -0.024   4.946   0.590
 2295TIP3    H2 6892   0.018   5.079   0.649
 2296TIP3   OH2 6893   3.923   4.927   1.336
 2296TIP3    H1 6894   3.976   5.006   1.348
 2296TIP3    H2 6895   3.881   4.914   1.421
 2297TIP3   OH2 6896   2.913   4.575   3.844
 2297TIP3    H1 6897   2.997   4.531   3.832
 2297TIP3    H2 6898   2.876   4.534   3.923
 2298TIP3   OH2 6899   0.106   4.445   2.658
 2298TIP3    H1 6900   0.104   4.352   2.682
 2298TIP3    H2 6901   0.162   4.486   2.724
 2299TIP3   OH2 6902   3.656   0.275   1.296
 2299TIP3    H1 6903   3.692   0.192   1.328
 2299TIP3    H2 6904   3.583   0.294   1.354
 2300TIP3   OH2 6905   5.909   2.383   3.857
 2300TIP3    H1 6906   5.865   2.374   3.772
 2300TIP3    H2 6907   5.840   2.406   3.918
 2301TIP3   OH2 6908   0.181   5.647   2.020
 2301TIP3    H1 6909   0.157   5.587   2.090
 2301TIP3    H2 6910   0.105   5.705   2.010
 2302TIP3   OH2 6911   5.007   0.930   3.892
 2302TIP3    H1 6912   4.998   1.002   3.830
 2302TIP3    H2 6913   4.947   0.863   3.860
 2303TIP3   OH2 6914   0.594   3.868   3.241
 2303TIP3    H1 6915   0.639   3.784   3.249
 2303TIP3    H2 6916   0.659   3.927   3.203
 2304TIP3   OH2 6917   4.152   1.069   4.568
 2304TIP3    H1 6918   4.157   1.163   4.585
 2304TIP3    H2 6919   4.220   1.030   4.623
 2305TIP3   OH2 6920   3.177   2.116   1.117
 2305TIP3    H1 6921   3.124   2.165   1.180
 2305TIP3    H2 6922   3.177   2.026   1.150
 2306TIP3   OH2 6923   1.748   2.755   5.136
 2306TIP3    H1 6924   1.842   2.755   5.156
 2306TIP3    H2 6925   1.725   2.847   5.130
 2307TIP3   OH2 6926   0.692   2.521   2.721
 2307TIP3    H1 6927   0.763   2.492   2.663
 2307TIP3    H2 6928   0.734   2.582   2.782
 2308TIP3   OH2 6929   3.903   3.335   0.194
 2308TIP3    H1 6930   3.858   3.251   0.184
 2308TIP3    H2 6931   3.869   3.389   0.123
 2309TIP3   OH2 6932   2.928   5.068   1.273
 2309TIP3    H1 6933   3.002   5.060   1.333
 2309TIP3    H2 6934   2.902   4.977   1.256
 2310TIP3   OH2 6935   0.968   1.047   0.882
 2310TIP3    H1 6936   0.977   1.068   0.790
 2310TIP3    H2 6937   1.051   1.073   0.921
 2311TIP3   OH2 6938   4.028   1.066   4.815
 2311TIP3    H1 6939   4.107   1.059   4.762
 2311TIP3    H2 6940   4.046   1.010   4.891
 2312TIP3   OH2 6941   4.784   2.873   5.110
 2312TIP3    H1 6942   4.826   2.955   5.083
 2312TIP3    H2 6943   4.697   2.900   5.141
 2313TIP3   OH2 6944   5.759   1.119   2.763
 2313TIP3    H1 6945   5.689   1.118   2.829
 2313TIP3    H2 6946   5.812   1.196   2.786
 2314TIP3   OH2 6947   0.311   1.362   4.161
 2314TIP3    H1 6948   0.285   1.446   4.123
 2314TIP3    H2 6949   0.250   1.349   4.233
 2315TIP3   OH2 6950   4.307   0.158   4.346
 2315TIP3    H1 6951   4.285   0.113   4.427
 2315TIP3    H2 6952   4.395   0.127   4.325
 2316TIP3   OH2 6953   0.426   5.232   0.455
 2316TIP3    H1 6954   0.508   5.266   0.490
 2316TIP3    H2 6955   0.449   5.199   0.368
 2317TIP3   OH2 6956   0.223   3.107   4.301
 2317TIP3    H1 6957   0.214   3.024   4.346
 2317TIP3    H2 6958   0.244   3.171   4.370
 2318TIP3   OH2 6959   1.288   0.863   1.157
 2318TIP3    H1 6960   1.326   0.901   1.236
 2318TIP3    H2 6961   1.333   0.780   1.146
 2319TIP3   OH2 6962   3.159   5.193   3.587
 2319TIP3    H1 6963   3.239   5.220   3.632
 2319TIP3    H2 6964   3.128   5.117   3.636
 2320TIP3   OH2 6965   4.502   1.453   1.506
 2320TIP3    H1 6966   4.466   1.518   1.446
 2320TIP3    H2 6967   4.536   1.504   1.579
 2321TIP3   OH2 6968   5.065   0.581   3.041
 2321TIP3    H1 6969   5.014   0.525   3.100
 2321TIP3    H2 6970   5.151   0.588   3.083
 2322TIP3   OH2 6971   4.533   3.321   0.349
 2322TIP3    H1 6972   4.602   3.335   0.415
 2322TIP3    H2 6973   4.570   3.257   0.289
 2323TIP3   OH2 6974   4.882   1.980   1.320
 2323TIP3    H1 6975   4.841   2.064   1.299
 2323TIP3    H2 6976   4.871   1.927   1.241
 2324TIP3   OH2 6977   1.733   2.304   2.592
 2324TIP3    H1 6978   1.780   2.237   2.543
 2324TIP3    H2 6979   1.657   2.325   2.537
 2325TIP3   OH2 6980   4.408   2.079   2.645
 2325TIP3    H1 6981   4.391   2.171   2.625
 2325TIP3    H2 6982   4.402   2.035   2.560
 2326TIP3   OH2 6983   4.924   1.847   3.863
 2326TIP3    H1 6984   4.834   1.879   3.868
 2326TIP3    H2 6985   4.919   1.758   3.899
 2327TIP3   OH2 6986   3.815   0.868   0.178
 2327TIP3    H1 6987   3.874   0.819   0.121
 2327TIP3    H2 6988   3.763   0.922   0.119
 2328TIP3   OH2 6989   6.197   5.519   4.807
 2328TIP3    H1 6990   6.198   5.498   4.900
 2328TIP3    H2 6991   6.282   5.488   4.774
 2329TIP3   OH2 6992   0.420   5.096   4.131
 2329TIP3    H1 6993   0.442   5.145   4.052
 2329TIP3    H2 6994   0.414   5.162   4.200
 2330TIP3   OH2 6995   0.156   0.504   4.589
 2330TIP3    H1 6996   0.113   0.450   4.522
 2330TIP3    H2 6997   0.167   0.444   4.663
 2331TIP3   OH2 6998   3.087   4.223   5.137
 2331TIP3    H1 6999   3.132   4.199   5.056
 2331TIP3    H2 7000   3.062   4.140   5.177
 2332TIP3   OH2 7001   1.509   5.668   4.852
 2332TIP3    H1 7002   1.418   5.691   4.872
 2332TIP3    H2 7003   1.509   5.650   4.758
 2333TIP3   OH2 7004   4.273   0.753   4.601
 2333TIP3    H1 7005   4.324   0.796   4.670
 2333TIP3    H2 7006   4.338   0.712   4.545
 2334TIP3   OH2 7007   6.138   3.089   0.562
 2334TIP3    H1 7008   6.154   3.039   0.642
 2334TIP3    H2 7009   6.060   3.048   0.523
 2335TIP3   OH2 7010   4.310   5.591   5.098
 2335TIP3    H1 7011   4.344   5.670   5.140
 2335TIP3    H2 7012   4.382   5.529   5.100
 2336TIP3   OH2 7013   1.628   4.340   1.111
 2336TIP3    H1 7014   1.654   4.351   1.019
 2336TIP3    H2 7015   1.615   4.246   1.121
 2337TIP3   OH2 7016   6.105   4.792   2.687
 2337TIP3    H1 7017   6.190   4.770   2.724
 2337TIP3    H2 7018   6.097   4.735   2.610
 2338TIP3   OH2 7019   5.265   5.958   2.734
 2338TIP3    H1 7020   5.339   6.010   2.703
 2338TIP3    H2 7021   5.298   5.911   2.811
 2339TIP3   OH2 7022   0.049   0.676   4.202
 2339TIP3    H1 7023  -0.024   0.737   4.189
 2339TIP3    H2 7024   0.041   0.614   4.130
 2340TIP3   OH2 7025   0.193   5.769   4.593
 2340TIP3    H1 7026   0.256   5.697   4.597
 2340TIP3    H2 7027   0.214   5.815   4.511
 2341TIP3   OH2 7028   5.480   3.222   1.202
 2341TIP3    H1 7029   5.480   3.147   1.143
 2341TIP3    H2 7030   5.551   3.278   1.170
 2342TIP3   OH2 7031   0.996   0.610   2.751
 2342TIP3    H1 7032   0.964   0.644   2.668
 2342TIP3    H2 7033   1.021   0.687   2.802
 2343TIP3   OH2 7034   3.122   1.557   3.660
 2343TIP3    H1 7035   3.094   1.483   3.714
 2343TIP3    H2 7036   3.060   1.560   3.587
 2344TIP3   OH2 7037   3.170   3.807   1.041
 2344TIP3    H1 7038   3.128   3.721   1.042
 2344TIP3    H2 7039   3.256   3.792   1.003
 2345TIP3   OH2 7040   3.542   4.096   2.056
 2345TIP3    H1 7041   3.487   4.141   2.120
 2345TIP3    H2 7042   3.631   4.109   2.089
 2346TIP3   OH2 7043   4.315   1.900   4.477
 2346TIP3    H1 7044   4.225   1.876   4.457
 2346TIP3    H2 7045   4.324   1.885   4.571
 2347TIP3   OH2 7046   6.144   3.160   2.414
 2347TIP3    H1 7047   6.232   3.128   2.394
 2347TIP3    H2 7048   6.086   3.087   2.392
 2348TIP3   OH2 7049   2.271   4.954   4.483
 2348TIP3    H1 7050   2.238   5.012   4.552
 2348TIP3    H2 7051   2.321   5.012   4.425
 2349TIP3   OH2 7052   3.306   0.176   2.771
 2349TIP3    H1 7053   3.309   0.259   2.725
 2349TIP3    H2 7054   3.297   0.110   2.702
 2350TIP3   OH2 7055   4.542   3.031   4.935
 2350TIP3    H1 7056   4.574   3.120   4.920
 2350TIP3    H2 7057   4.531   3.025   5.030
 2351TIP3   OH2 7058   5.162   5.621   3.395
 2351TIP3    H1 7059   5.136   5.630   3.486
 2351TIP3    H2 7060   5.124   5.537   3.368
 2352TIP3   OH2 7061   1.050   0.251   3.087
 2352TIP3    H1 7062   1.084   0.305   3.016
 2352TIP3    H2 7063   1.113   0.179   3.095
 2353TIP3   OH2 7064   1.760   0.183   4.525
 2353TIP3    H1 7065   1.807   0.140   4.453
 2353TIP3    H2 7066   1.670   0.189   4.494
 2354TIP3   OH2 7067   5.588   5.572   4.224
 2354TIP3    H1 7068   5.501   5.580   4.263
 2354TIP3    H2 7069   5.647   5.564   4.300
 2355TIP3   OH2 7070   6.364   1.351   2.014
 2355TIP3    H1 7071   6.359   1.446   2.012
 2355TIP3    H2 7072   6.382   1.329   2.105
 2356TIP3   OH2 7073   4.523   4.031   0.248
 2356TIP3    H1 7074   4.452   4.068   0.197
 2356TIP3    H2 7075   4.600   4.041   0.193
 2357TIP3   OH2 7076   1.130   1.504   4.730
 2357TIP3    H1 7077   1.187   1.495   4.654
 2357TIP3    H2 7078   1.072   1.578   4.709
 2358TIP3   OH2 7079   4.776   2.343   2.932
 2358TIP3    H1 7080   4.699   2.305   2.890
 2358TIP3    H2 7081   4.817   2.270   2.978
 2359TIP3   OH2 7082   2.600   2.044   1.551
 2359TIP3    H1 7083   2.560   2.127   1.579
 2359TIP3    H2 7084   2.686   2.070   1.517
 2360TIP3   OH2 7085   2.143   5.238   4.918
 2360TIP3    H1 7086   2.220   5.293   4.904
 2360TIP3    H2 7087   2.083   5.293   4.968
 2361TIP3   OH2 7088   3.567   4.760   4.479
 2361TIP3    H1 7089   3.478   4.725   4.470
 2361TIP3    H2 7090   3.595   4.733   4.566
 2362TIP3   OH2 7091   2.177   5.532   4.060
 2362TIP3    H1 7092   2.225   5.605   4.100
 2362TIP3    H2 7093   2.242   5.462   4.051
 2363TIP3   OH2 7094   1.329   4.534   3.581
 2363TIP3    H1 7095   1.381   4.502   3.654
 2363TIP3    H2 7096   1.238   4.520   3.608
 2364TIP3   OH2 7097   4.515   1.861   0.774
 2364TIP3    H1 7098   4.586   1.921   0.797
 2364TIP3    H2 7099   4.484   1.891   0.689
 2365TIP3   OH2 7100   1.163   0.914   4.624
 2365TIP3    H1 7101   1.133   0.927   4.534
 2365TIP3    H2 7102   1.089   0.940   4.678
 2366TIP3   OH2 7103   5.137   2.843   0.908
 2366TIP3    H1 7104   5.105   2.848   0.818
 2366TIP3    H2 7105   5.152   2.750   0.923
 2367TIP3   OH2 7106   5.542   3.624   3.655
 2367TIP3    H1 7107   5.461   3.597   3.610
 2367TIP3    H2 7108   5.572   3.700   3.605
 2368TIP3   OH2 7109   0.815   5.225   2.051
 2368TIP3    H1 7110   0.772   5.140   2.043
 2368TIP3    H2 7111   0.900   5.206   2.092
 2369TIP3   OH2 7112   1.800   0.450   1.036
 2369TIP3    H1 7113   1.793   0.500   1.116
 2369TIP3    H2 7114   1.763   0.507   0.968
 2370TIP3   OH2 7115   5.771   1.649   1.857
 2370TIP3    H1 7116   5.752   1.676   1.947
 2370TIP3    H2 7117   5.849   1.698   1.833
 2371TIP3   OH2 7118   4.520   2.196   2.932
 2371TIP3    H1 7119   4.505   2.291   2.931
 2371TIP3    H2 7120   4.433   2.158   2.944
 2372TIP3   OH2 7121   3.874   1.494   3.759
 2372TIP3    H1 7122   3.890   1.583   3.728
 2372TIP3    H2 7123   3.960   1.453   3.763
 2373TIP3   OH2 7124   2.042   1.046   1.478
 2373TIP3    H1 7125   1.998   0.997   1.548
 2373TIP3    H2 7126   2.105   1.102   1.524
 2374TIP3   OH2 7127   6.287   5.356   0.073
 2374TIP3    H1 7128   6.346   5.417   0.028
 2374TIP3    H2 7129   6.333   5.334   0.154
 2375TIP3   OH2 7130   1.945   0.763   2.951
 2375TIP3    H1 7131   2.001   0.838   2.971
 2375TIP3    H2 7132   1.896   0.747   3.032
 2376TIP3   OH2 7133   1.615   2.406   0.024
 2376TIP3    H1 7134   1.704   2.417  -0.008
 2376TIP3    H2 7135   1.616   2.442   0.113
 2377TIP3   OH2 7136   6.325   5.808   3.398
 2377TIP3    H1 7137   6.353   5.769   3.480
 2377TIP3    H2 7138   6.306   5.734   3.341
 2378TIP3   OH2 7139   3.669   2.136   0.088
 2378TIP3    H1 7140   3.652   2.042   0.084
 2378TIP3    H2 7141   3.584   2.177   0.073
 2379TIP3   OH2 7142   4.898   4.773   4.114
 2379TIP3    H1 7143   4.841   4.829   4.061
 2379TIP3    H2 7144   4.987   4.799   4.089
 2380TIP3   OH2 7145   1.668   5.153   1.335
 2380TIP3    H1 7146   1.591   5.200   1.304
 2380TIP3    H2 7147   1.740   5.188   1.282
 2381TIP3   OH2 7148   1.138   4.228   1.474
 2381TIP3    H1 7149   1.055   4.268   1.500
 2381TIP3    H2 7150   1.205   4.278   1.520
 2382TIP3   OH2 7151   4.582   3.644   1.392
 2382TIP3    H1 7152   4.578   3.632   1.487
 2382TIP3    H2 7153   4.521   3.580   1.357
 2383TIP3   OH2 7154   4.736   0.396   2.132
 2383TIP3    H1 7155   4.670   0.340   2.090
 2383TIP3    H2 7156   4.718   0.388   2.225
 2384TIP3   OH2 7157   2.748   5.636   1.459
 2384TIP3    H1 7158   2.662   5.608   1.491
 2384TIP3    H2 7159   2.798   5.654   1.539
 2385TIP3   OH2 7160   5.658   0.543   2.798
 2385TIP3    H1 7161   5.625   0.455   2.818
 2385TIP3    H2 7162   5.583   0.588   2.757
 2386TIP3   OH2 7163   2.024   3.070   4.622
 2386TIP3    H1 7164   2.058   3.053   4.535
 2386TIP3    H2 7165   1.938   3.110   4.607
 2387TIP3   OH2 7166   4.584   1.041   5.047
 2387TIP3    H1 7167   4.513   1.103   5.027
 2387TIP3    H2 7168   4.664   1.091   5.036
 2388TIP3   OH2 7169   4.925   2.535   1.291
 2388TIP3    H1 7170   4.841   2.512   1.332
 2388TIP3    H2 7171   4.989   2.483   1.338
 2389TIP3   OH2 7172   1.424   5.734   2.797
 2389TIP3    H1 7173   1.494   5.691   2.847
 2389TIP3    H2 7174   1.392   5.665   2.738
 2390TIP3   OH2 7175   4.653   0.057   4.868
 2390TIP3    H1 7176   4.617  -0.028   4.894
 2390TIP3    H2 7177   4.605   0.081   4.789
 2391TIP3   OH2 7178   0.120   1.987   4.953
 2391TIP3    H1 7179   0.207   2.023   4.938
 2391TIP3    H2 7180   0.064   2.035   4.892
 2392TIP3   OH2 7181   3.129   1.415   1.832
 2392TIP3    H1 7182   3.165   1.437   1.918
 2392TIP3    H2 7183   3.173   1.333   1.808
 2393TIP3   OH2 7184   2.865   2.399   5.138
 2393TIP3    H1 7185   2.897   2.489   5.130
 2393TIP3    H2 7186   2.885   2.358   5.054
 2394TIP3   OH2 7187   6.156   0.203   1.266
 2394TIP3    H1 7188   6.135   0.253   1.187
 2394TIP3    H2 7189   6.082   0.142   1.275
 2395TIP3   OH2 7190   5.546   1.219   4.893
 2395TIP3    H1 7191   5.493   1.143   4.915
 2395TIP3    H2 7192   5.635   1.185   4.885
 2396TIP3   OH2 7193   1.525   3.138   3.396
 2396TIP3    H1 7194   1.467   3.105   3.327
 2396TIP3    H2 7195   1.532   3.066   3.458
 2397TIP3   OH2 7196   5.042   5.375   4.264
 2397TIP3    H1 7197   5.050   5.394   4.357
 2397TIP3    H2 7198   4.969   5.313   4.259
 2398TIP3   OH2 7199   4.032   5.069   3.407
 2398TIP3    H1 7200   3.988   5.144   3.367
 2398TIP3    H2 7201   4.123   5.096   3.415
 2399TIP3   OH2 7202   2.728   4.064   1.565
 2399TIP3    H1 7203   2.735   4.030   1.475
 2399TIP3    H2 7204   2.816   4.097   1.584
 2400TIP3   OH2 7205   5.642   2.314   2.348
 2400TIP3    H1 7206   5.674   2.357   2.269
 2400TIP3    H2 7207   5.595   2.236   2.316
 2401TIP3   OH2 7208   4.344   4.641   1.123
 2401TIP3    H1 7209   4.255   4.670   1.106
 2401TIP3    H2 7210   4.396   4.679   1.052
 2402TIP3   OH2 7211   0.795   3.967   2.247
 2402TIP3    H1 7212   0.702   3.983   2.228
 2402TIP3    H2 7213   0.828   3.924   2.168
 2403TIP3   OH2 7214   4.730   1.826   1.492
 2403TIP3    H1 7215   4.641   1.860   1.485
 2403TIP3    H2 7216   4.783   1.887   1.441
 2404TIP3   OH2 7217   0.460   2.451   0.049
 2404TIP3    H1 7218   0.485   2.365   0.083
 2404TIP3    H2 7219   0.376   2.470   0.091
 2405TIP3   OH2 7220   3.713   5.298   3.138
 2405TIP3    H1 7221   3.644   5.350   3.098
 2405TIP3    H2 7222   3.675   5.211   3.148
 2406TIP3   OH2 7223   3.461   5.203   2.210
 2406TIP3    H1 7224   3.516   5.266   2.257
 2406TIP3    H2 7225   3.372   5.227   2.233
 2407TIP3   OH2 7226   5.195   5.682   2.396
 2407TIP3    H1 7227   5.195   5.710   2.488
 2407TIP3    H2 7228   5.113   5.634   2.385
 2408TIP3   OH2 7229   1.022   4.289   2.937
 2408TIP3    H1 7230   1.092   4.249   2.886
 2408TIP3    H2 7231   1.011   4.232   3.013
 2409TIP3   OH2 7232   2.096   1.138   4.652
 2409TIP3    H1 7233   2.004   1.119   4.672
 2409TIP3    H2 7234   2.145   1.074   4.704
 2410TIP3   OH2 7235   4.392   2.319   0.350
 2410TIP3    H1 7236   4.406   2.305   0.443
 2410TIP3    H2 7237   4.474   2.292   0.309
 2411TIP3   OH2 7238   1.274   0.099   5.009
 2411TIP3    H1 7239   1.296   0.049   4.930
 2411TIP3    H2 7240   1.220   0.172   4.976
 2412TIP3   OH2 7241   1.092   1.346   2.097
 2412TIP3    H1 7242   1.092   1.429   2.143
 2412TIP3    H2 7243   1.159   1.357   2.029
 2413TIP3   OH2 7244   1.747   4.268   4.958
 2413TIP3    H1 7245   1.808   4.326   4.911
 2413TIP3    H2 7246   1.661   4.308   4.944
 2414TIP3   OH2 7247   0.874   4.971   2.189
 2414TIP3    H1 7248   0.952   5.024   2.203
 2414TIP3    H2 7249   0.906   4.881   2.183
 2415TIP3   OH2 7250   4.511   4.915   3.147
 2415TIP3    H1 7251   4.579   4.880   3.204
 2415TIP3    H2 7252   4.433   4.919   3.203
 2416TIP3   OH2 7253   3.905   5.892   1.951
 2416TIP3    H1 7254   3.923   5.857   1.864
 2416TIP3    H2 7255   3.968   5.848   2.008
 2417TIP3   OH2 7256   0.864   4.083   4.589
 2417TIP3    H1 7257   0.862   4.054   4.498
 2417TIP3    H2 7258   0.840   4.006   4.639
 2418TIP3   OH2 7259   6.019   3.971   4.405
 2418TIP3    H1 7260   6.085   3.923   4.356
 2418TIP3    H2 7261   6.058   3.983   4.492
 2419TIP3   OH2 7262   4.281   2.097   3.007
 2419TIP3    H1 7263   4.232   2.033   2.956
 2419TIP3    H2 7264   4.234   2.179   2.993
 2420TIP3   OH2 7265   5.656   2.840   3.736
 2420TIP3    H1 7266   5.741   2.883   3.735
 2420TIP3    H2 7267   5.634   2.828   3.644
 2421TIP3   OH2 7268   4.687   0.670   1.825
 2421TIP3    H1 7269   4.769   0.638   1.788
 2421TIP3    H2 7270   4.687   0.636   1.915
 2422TIP3   OH2 7271   2.850   1.222   4.389
 2422TIP3    H1 7272   2.816   1.215   4.478
 2422TIP3    H2 7273   2.848   1.132   4.355
 2423TIP3   OH2 7274   5.732   2.994   0.286
 2423TIP3    H1 7275   5.789   2.969   0.214
 2423TIP3    H2 7276   5.780   3.062   0.333
 2424TIP3   OH2 7277   0.188   3.381   1.678
 2424TIP3    H1 7278   0.163   3.340   1.596
 2424TIP3    H2 7279   0.277   3.413   1.662
 2425TIP3   OH2 7280   4.180   3.757   0.681
 2425TIP3    H1 7281   4.254   3.806   0.715
 2425TIP3    H2 7282   4.156   3.697   0.751
 2426TIP3   OH2 7283   2.106   4.249   0.379
 2426TIP3    H1 7284   2.023   4.217   0.344
 2426TIP3    H2 7285   2.159   4.171   0.394
 2427TIP3   OH2 7286   3.969   2.482   3.487
 2427TIP3    H1 7287   3.972   2.504   3.394
 2427TIP3    H2 7288   3.941   2.391   3.489
 2428TIP3   OH2 7289   5.469   4.612   2.709
 2428TIP3    H1 7290   5.513   4.528   2.694
 2428TIP3    H2 7291   5.527   4.659   2.770
 2429TIP3   OH2 7292   3.464   5.447   3.694
 2429TIP3    H1 7293   3.410   5.370   3.704
 2429TIP3    H2 7294   3.525   5.425   3.624
 2430TIP3   OH2 7295   5.783   1.343   4.580
 2430TIP3    H1 7296   5.875   1.364   4.565
 2430TIP3    H2 7297   5.739   1.427   4.579
 2431TIP3   OH2 7298   3.568   0.628   4.765
 2431TIP3    H1 7299   3.632   0.609   4.696
 2431TIP3    H2 7300   3.520   0.705   4.733
 2432TIP3   OH2 7301   4.269   4.979   1.466
 2432TIP3    H1 7302   4.235   4.890   1.477
 2432TIP3    H2 7303   4.352   4.968   1.419
 2433TIP3   OH2 7304   6.068   4.427   0.390
 2433TIP3    H1 7305   6.050   4.521   0.390
 2433TIP3    H2 7306   5.993   4.388   0.345
 2434TIP3   OH2 7307   2.466   4.792   2.408
 2434TIP3    H1 7308   2.416   4.812   2.487
 2434TIP3    H2 7309   2.548   4.754   2.440
 2435TIP3   OH2 7310   2.294   0.448   4.779
 2435TIP3    H1 7311   2.246   0.389   4.721
 2435TIP3    H2 7312   2.295   0.532   4.732
 2436TIP3   OH2 7313   3.127   2.675   3.084
 2436TIP3    H1 7314   3.182   2.727   3.143
 2436TIP3    H2 7315   3.118   2.730   3.006
 2437TIP3   OH2 7316   0.978   4.255   4.350
 2437TIP3    H1 7317   0.893   4.212   4.348
 2437TIP3    H2 7318   1.038   4.189   4.386
 2438TIP3   OH2 7319   3.985   1.338   4.821
 2438TIP3    H1 7320   4.011   1.247   4.832
 2438TIP3    H2 7321   3.890   1.338   4.835
 2439TIP3   OH2 7322   0.349   0.298   1.296
 2439TIP3    H1 7323   0.272   0.253   1.260
 2439TIP3    H2 7324   0.423   0.242   1.273
 2440TIP3   OH2 7325   0.327   5.548   3.788
 2440TIP3    H1 7326   0.300   5.503   3.708
 2440TIP3    H2 7327   0.418   5.522   3.801
 2441TIP3   OH2 7328   3.259   4.455   2.984
 2441TIP3    H1 7329   3.297   4.368   2.969
 2441TIP3    H2 7330   3.279   4.505   2.905
 2442TIP3   OH2 7331   5.593   5.149   4.225
 2442TIP3    H1 7332   5.660   5.106   4.172
 2442TIP3    H2 7333   5.600   5.108   4.311
 2443TIP3   OH2 7334   2.212   3.603   5.175
 2443TIP3    H1 7335   2.120   3.591   5.153
 2443TIP3    H2 7336   2.249   3.646   5.098
 2444TIP3   OH2 7337   5.839   1.161   3.689
 2444TIP3    H1 7338   5.772   1.229   3.692
 2444TIP3    H2 7339   5.921   1.208   3.702
 2445TIP3   OH2 7340   0.365   1.304   1.310
 2445TIP3    H1 7341   0.374   1.273   1.220
 2445TIP3    H2 7342   0.326   1.231   1.357
 2446TIP3   OH2 7343   2.543   2.810   0.944
 2446TIP3    H1 7344   2.581   2.895   0.922
 2446TIP3    H2 7345   2.613   2.747   0.928
 2447TIP3   OH2 7346   3.952   1.643   2.044
 2447TIP3    H1 7347   4.044   1.618   2.034
 2447TIP3    H2 7348   3.929   1.616   2.133
 2448TIP3   OH2 7349   2.089   1.492   1.565
 2448TIP3    H1 7350   2.053   1.574   1.600
 2448TIP3    H2 7351   2.047   1.423   1.617
 2449TIP3   OH2 7352   2.494   0.313   3.628
 2449TIP3    H1 7353   2.555   0.244   3.655
 2449TIP3    H2 7354   2.421   0.266   3.589
 2450TIP3   OH2 7355   2.242   1.838   1.795
 2450TIP3    H1 7356   2.166   1.784   1.816
 2450TIP3    H2 7357   2.272   1.807   1.710
 2451TIP3   OH2 7358   5.115   5.803   4.498
 2451TIP3    H1 7359   5.060   5.838   4.568
 2451TIP3    H2 7360   5.202   5.837   4.517
 2452TIP3   OH2 7361   3.004   4.173   3.258
 2452TIP3    H1 7362   3.056   4.222   3.322
 2452TIP3    H2 7363   3.005   4.083   3.290
 2453TIP3   OH2 7364   1.016   3.561   1.886
 2453TIP3    H1 7365   1.063   3.478   1.888
 2453TIP3    H2 7366   0.994   3.575   1.794
 2454TIP3   OH2 7367   5.734   0.580   0.772
 2454TIP3    H1 7368   5.782   0.601   0.852
 2454TIP3    H2 7369   5.688   0.662   0.750
 2455TIP3   OH2 7370   5.178   5.798   1.929
 2455TIP3    H1 7371   5.110   5.778   1.864
 2455TIP3    H2 7372   5.190   5.716   1.976
 2456TIP3   OH2 7373   5.731   2.931   4.675
 2456TIP3    H1 7374   5.796   2.912   4.607
 2456TIP3    H2 7375   5.731   2.853   4.730
 2457TIP3   OH2 7376   1.152   2.965   2.383
 2457TIP3    H1 7377   1.198   2.882   2.393
 2457TIP3    H2 7378   1.211   3.019   2.330
 2458TIP3   OH2 7379   0.589   2.639   5.017
 2458TIP3    H1 7380   0.636   2.593   4.948
 2458TIP3    H2 7381   0.658   2.685   5.066
 2459TIP3   OH2 7382   0.002   2.704   0.894
 2459TIP3    H1 7383  -0.012   2.732   0.984
 2459TIP3    H2 7384   0.016   2.609   0.901
 2460TIP3   OH2 7385   5.052   2.235   1.933
 2460TIP3    H1 7386   5.073   2.272   1.847
 2460TIP3    H2 7387   5.066   2.141   1.923
 2461TIP3   OH2 7388   0.258   4.054   2.887
 2461TIP3    H1 7389   0.178   4.064   2.834
 2461TIP3    H2 7390   0.250   3.968   2.927
 2462TIP3   OH2 7391   0.454   1.895   2.938
 2462TIP3    H1 7392   0.526   1.937   2.890
 2462TIP3    H2 7393   0.422   1.963   2.997
 2463TIP3   OH2 7394   3.581   3.883   1.185
 2463TIP3    H1 7395   3.581   3.969   1.143
 2463TIP3    H2 7396   3.492   3.870   1.215
 2464TIP3   OH2 7397   5.742   4.278   1.774
 2464TIP3    H1 7398   5.667   4.222   1.753
 2464TIP3    H2 7399   5.705   4.367   1.776
 2465TIP3   OH2 7400   1.147   1.207   4.815
 2465TIP3    H1 7401   1.075   1.150   4.787
 2465TIP3    H2 7402   1.119   1.295   4.789
 2466TIP3   OH2 7403   2.677   4.442   1.386
 2466TIP3    H1 7404   2.766   4.439   1.350
 2466TIP3    H2 7405   2.666   4.533   1.413
 2467TIP3   OH2 7406   1.468   3.226   0.798
 2467TIP3    H1 7407   1.373   3.222   0.793
 2467TIP3    H2 7408   1.486   3.239   0.891
 2468TIP3   OH2 7409   5.253   1.787   4.388
 2468TIP3    H1 7410   5.199   1.771   4.466
 2468TIP3    H2 7411   5.230   1.716   4.328
 2469TIP3   OH2 7412   2.232   4.509   0.704
 2469TIP3    H1 7413   2.243   4.573   0.633
 2469TIP3    H2 7414   2.260   4.556   0.782
 2470TIP3   OH2 7415   5.419   4.804   1.760
 2470TIP3    H1 7416   5.477   4.850   1.821
 2470TIP3    H2 7417   5.349   4.769   1.815
 2471TIP3   OH2 7418   0.352   0.114   2.344
 2471TIP3    H1 7419   0.383   0.050   2.280
 2471TIP3    H2 7420   0.366   0.199   2.302
 2472TIP3   OH2 7421   2.785   3.313   4.015
 2472TIP3    H1 7422   2.848   3.384   4.003
 2472TIP3    H2 7423   2.835   3.233   3.995
 2473TIP3   OH2 7424   3.634   1.135   3.139
 2473TIP3    H1 7425   3.724   1.111   3.120
 2473TIP3    H2 7426   3.633   1.230   3.137
 2474TIP3   OH2 7427   5.442   4.665   3.440
 2474TIP3    H1 7428   5.528   4.698   3.412
 2474TIP3    H2 7429   5.389   4.666   3.360
 2475TIP3   OH2 7430   4.444   2.740   0.874
 2475TIP3    H1 7431   4.429   2.658   0.921
 2475TIP3    H2 7432   4.377   2.741   0.806
 2476TIP3   OH2 7433   2.111   0.937   1.847
 2476TIP3    H1 7434   2.067   0.883   1.782
 2476TIP3    H2 7435   2.065   0.920   1.929
 2477TIP3   OH2 7436   3.265   1.633   1.693
 2477TIP3    H1 7437   3.226   1.571   1.755
 2477TIP3    H2 7438   3.223   1.613   1.609
 2478TIP3   OH2 7439   2.528   4.962   1.924
 2478TIP3    H1 7440   2.489   4.947   2.010
 2478TIP3    H2 7441   2.619   4.932   1.933
 2479TIP3   OH2 7442   4.334   2.338   2.617
 2479TIP3    H1 7443   4.324   2.375   2.529
 2479TIP3    H2 7444   4.396   2.396   2.660
 2480TIP3   OH2 7445   1.927   2.131   0.693
 2480TIP3    H1 7446   1.922   2.144   0.598
 2480TIP3    H2 7447   1.852   2.074   0.713
 2481TIP3   OH2 7448   3.606   1.446   1.744
 2481TIP3    H1 7449   3.695   1.453   1.710
 2481TIP3    H2 7450   3.551   1.439   1.665
 2482TIP3   OH2 7451   5.021   2.930   4.105
 2482TIP3    H1 7452   5.102   2.887   4.078
 2482TIP3    H2 7453   5.016   3.008   4.049
 2483TIP3   OH2 7454   5.577   5.396   3.035
 2483TIP3    H1 7455   5.588   5.371   3.127
 2483TIP3    H2 7456   5.648   5.352   2.989
 2484TIP3   OH2 7457   3.009   4.277   3.006
 2484TIP3    H1 7458   3.095   4.319   3.007
 2484TIP3    H2 7459   3.009   4.221   3.083
 2485TIP3   OH2 7460   2.439   5.753   2.323
 2485TIP3    H1 7461   2.527   5.717   2.326
 2485TIP3    H2 7462   2.435   5.802   2.240
 2486TIP3   OH2 7463   5.876   0.400   2.270
 2486TIP3    H1 7464   5.903   0.334   2.334
 2486TIP3    H2 7465   5.957   0.447   2.249
 2487TIP3   OH2 7466   4.665   3.742   3.445
 2487TIP3    H1 7467   4.679   3.761   3.537
 2487TIP3    H2 7468   4.602   3.807   3.416
 2488TIP3   OH2 7469   4.888   0.086   0.214
 2488TIP3    H1 7470   4.873   0.029   0.289
 2488TIP3    H2 7471   4.981   0.073   0.192
 2489TIP3   OH2 7472   5.354   5.172   3.794
 2489TIP3    H1 7473   5.371   5.078   3.790
 2489TIP3    H2 7474   5.402   5.202   3.870
 2490TIP3   OH2 7475   2.178   1.612   3.687
 2490TIP3    H1 7476   2.142   1.688   3.641
 2490TIP3    H2 7477   2.242   1.649   3.748
 2491TIP3   OH2 7478   0.468   4.972   5.199
 2491TIP3    H1 7479   0.475   5.054   5.149
 2491TIP3    H2 7480   0.478   4.903   5.134
 2492TIP3   OH2 7481   4.605   1.172   2.722
 2492TIP3    H1 7482   4.678   1.206   2.773
 2492TIP3    H2 7483   4.596   1.233   2.649
 2493TIP3   OH2 7484   3.080   3.150   4.849
 2493TIP3    H1 7485   3.135   3.095   4.792
 2493TIP3    H2 7486   3.045   3.217   4.791
 2494TIP3   OH2 7487   5.615   5.091   0.639
 2494TIP3    H1 7488   5.655   5.145   0.707
 2494TIP3    H2 7489   5.548   5.040   0.685
 2495TIP3   OH2 7490   1.818   4.233   2.634
 2495TIP3    H1 7491   1.881   4.161   2.641
 2495TIP3    H2 7492   1.806   4.263   2.724
 2496TIP3   OH2 7493   5.159   4.542   4.068
 2496TIP3    H1 7494   5.133   4.518   4.157
 2496TIP3    H2 7495   5.095   4.499   4.012
 2497TIP3   OH2 7496   5.310   5.968   1.269
 2497TIP3    H1 7497   5.390   5.916   1.262
 2497TIP3    H2 7498   5.321   6.038   1.205
 2498TIP3   OH2 7499   2.198   3.732   0.157
 2498TIP3    H1 7500   2.199   3.636   0.161
 2498TIP3    H2 7501   2.106   3.754   0.140
 2499TIP3   OH2 7502   0.280   2.616   4.779
 2499TIP3    H1 7503   0.328   2.633   4.699
 2499TIP3    H2 7504   0.336   2.557   4.830
 2500TIP3   OH2 7505   4.577   5.481   3.843
 2500TIP3    H1 7506   4.586   5.576   3.838
 2500TIP3    H2 7507   4.666   5.447   3.836
 2501TIP3   OH2 7508   6.141   2.586   0.083
 2501TIP3    H1 7509   6.188   2.614   0.162
 2501TIP3    H2 7510   6.208   2.587   0.015
 2502TIP3   OH2 7511   5.164   2.151   4.450
 2502TIP3    H1 7512   5.188   2.234   4.490
 2502TIP3    H2 7513   5.235   2.092   4.472
 2503TIP3   OH2 7514   2.386   4.089   0.788
 2503TIP3    H1 7515   2.371   3.998   0.761
 2503TIP3    H2 7516   2.356   4.092   0.879
 2504TIP3   OH2 7517   5.384   2.250   0.634
 2504TIP3    H1 7518   5.395   2.210   0.720
 2504TIP3    H2 7519   5.458   2.218   0.582
 2505TIP3   OH2 7520   4.731   0.562   2.696
 2505TIP3    H1 7521   4.783   0.526   2.768
 2505TIP3    H2 7522   4.688   0.486   2.657
 2506TIP3   OH2 7523   3.342   5.978   0.472
 2506TIP3    H1 7524   3.267   6.025   0.434
 2506TIP3    H2 7525   3.359   5.907   0.410
 2507TIP3   OH2 7526   1.429   3.572   3.870
 2507TIP3    H1 7527   1.524   3.565   3.882
 2507TIP3    H2 7528   1.401   3.639   3.932
 2508TIP3   OH2 7529   2.956   4.815   3.921
 2508TIP3    H1 7530   2.971   4.849   4.009
 2508TIP3    H2 7531   2.953   4.720   3.932
 2509TIP3   OH2 7532   3.724   5.413   0.854
 2509TIP3    H1 7533   3.782   5.484   0.884
 2509TIP3    H2 7534   3.740   5.342   0.915
 2510TIP3   OH2 7535   2.459   5.262   0.532
 2510TIP3    H1 7536   2.412   5.346   0.530
 2510TIP3    H2 7537   2.392   5.196   0.516
 2511TIP3   OH2 7538   0.268   2.174   0.233
 2511TIP3    H1 7539   0.226   2.152   0.317
 2511TIP3    H2 7540   0.285   2.089   0.192
 2512TIP3   OH2 7541   2.535   5.399   0.909
 2512TIP3    H1 7542   2.629   5.412   0.905
 2512TIP3    H2 7543   2.522   5.309   0.881
 2513TIP3   OH2 7544   3.159   5.655   0.520
 2513TIP3    H1 7545   3.143   5.647   0.426
 2513TIP3    H2 7546   3.103   5.728   0.547
 2514TIP3   OH2 7547   3.550   4.571   2.221
 2514TIP3    H1 7548   3.625   4.544   2.273
 2514TIP3    H2 7549   3.582   4.571   2.131
 2515TIP3   OH2 7550   4.907   2.245   1.521
 2515TIP3    H1 7551   4.827   2.214   1.563
 2515TIP3    H2 7552   4.925   2.329   1.563
 2516TIP3   OH2 7553   1.517   4.159   3.466
 2516TIP3    H1 7554   1.568   4.209   3.530
 2516TIP3    H2 7555   1.524   4.068   3.496
 2517TIP3   OH2 7556   3.996   0.138   4.978
 2517TIP3    H1 7557   3.986   0.222   4.933
 2517TIP3    H2 7558   4.002   0.162   5.071
 2518TIP3   OH2 7559   4.026   3.735   5.185
 2518TIP3    H1 7560   4.094   3.742   5.118
 2518TIP3    H2 7561   4.074   3.728   5.267
 2519TIP3   OH2 7562   4.536   0.990   3.032
 2519TIP3    H1 7563   4.511   0.929   3.101
 2519TIP3    H2 7564   4.628   1.011   3.050
 2520TIP3   OH2 7565   0.060   4.206   2.156
 2520TIP3    H1 7566   0.033   4.280   2.101
 2520TIP3    H2 7567   0.111   4.246   2.227
 2521TIP3   OH2 7568   5.535   2.687   0.989
 2521TIP3    H1 7569   5.576   2.603   1.012
 2521TIP3    H2 7570   5.591   2.723   0.921
 2522TIP3   OH2 7571   1.655   0.118   1.755
 2522TIP3    H1 7572   1.633   0.113   1.848
 2522TIP3    H2 7573   1.600   0.052   1.713
 2523TIP3   OH2 7574   4.843   1.573   4.879
 2523TIP3    H1 7575   4.835   1.665   4.854
 2523TIP3    H2 7576   4.753   1.543   4.891
 2524TIP3   OH2 7577   3.585   3.655   0.457
 2524TIP3    H1 7578   3.620   3.685   0.542
 2524TIP3    H2 7579   3.498   3.621   0.478
 2525TIP3   OH2 7580   0.085   5.265   2.020
 2525TIP3    H1 7581   0.108   5.284   2.110
 2525TIP3    H2 7582   0.167   5.271   1.972
 2526TIP3   OH2 7583   6.189   0.534   2.296
 2526TIP3    H1 7584   6.182   0.543   2.201
 2526TIP3    H2 7585   6.281   0.553   2.315
 2527TIP3   OH2 7586   2.604   3.158   1.787
 2527TIP3    H1 7587   2.647   3.075   1.808
 2527TIP3    H2 7588   2.663   3.200   1.724
 2528TIP3   OH2 7589   2.369   5.907   1.362
 2528TIP3    H1 7590   2.378   5.994   1.324
 2528TIP3    H2 7591   2.375   5.921   1.456
 2529TIP3   OH2 7592   4.182   3.249   5.160
 2529TIP3    H1 7593   4.228   3.193   5.223
 2529TIP3    H2 7594   4.239   3.252   5.084
 2530TIP3   OH2 7595   2.448   3.728   4.282
 2530TIP3    H1 7596   2.430   3.807   4.231
 2530TIP3    H2 7597   2.497   3.672   4.222
 2531TIP3   OH2 7598   4.186   1.601   3.062
 2531TIP3    H1 7599   4.183   1.574   3.154
 2531TIP3    H2 7600   4.192   1.518   3.014
 2532TIP3   OH2 7601   6.126   0.831   2.324
 2532TIP3    H1 7602   6.084   0.749   2.353
 2532TIP3    H2 7603   6.179   0.804   2.249
 2533TIP3   OH2 7604   5.264   1.501   2.992
 2533TIP3    H1 7605   5.207   1.504   3.069
 2533TIP3    H2 7606   5.207   1.524   2.919
 2534TIP3   OH2 7607   1.495   3.256   1.538
 2534TIP3    H1 7608   1.525   3.319   1.603
 2534TIP3    H2 7609   1.399   3.258   1.544
 2535TIP3   OH2 7610   3.198   4.246   1.215
 2535TIP3    H1 7611   3.228   4.271   1.302
 2535TIP3    H2 7612   3.152   4.163   1.227
 2536TIP3   OH2 7613   3.346   1.383   4.570
 2536TIP3    H1 7614   3.388   1.468   4.557
 2536TIP3    H2 7615   3.273   1.384   4.508
 2537TIP3   OH2 7616   1.385   4.466   1.403
 2537TIP3    H1 7617   1.429   4.384   1.382
 2537TIP3    H2 7618   1.388   4.516   1.321
 2538TIP3   OH2 7619   2.391   5.362   3.214
 2538TIP3    H1 7620   2.407   5.324   3.300
 2538TIP3    H2 7621   2.330   5.434   3.231
 2539TIP3   OH2 7622   3.062   1.754   1.973
 2539TIP3    H1 7623   3.075   1.813   1.899
 2539TIP3    H2 7624   2.988   1.792   2.021
 2540TIP3   OH2 7625   4.901   4.110   0.233
 2540TIP3    H1 7626   4.847   4.061   0.171
 2540TIP3    H2 7627   4.929   4.188   0.185
 2541TIP3   OH2 7628   5.065   4.428   1.147
 2541TIP3    H1 7629   5.033   4.471   1.068
 2541TIP3    H2 7630   5.151   4.467   1.162
 2542TIP3   OH2 7631   4.390   4.934   0.358
 2542TIP3    H1 7632   4.458   4.906   0.296
 2542TIP3    H2 7633   4.438   4.983   0.425
 2543TIP3   OH2 7634   0.651   1.547   2.300
 2543TIP3    H1 7635   0.567   1.537   2.255
 2543TIP3    H2 7636   0.716   1.524   2.234
 2544TIP3   OH2 7637   4.705   1.871   2.214
 2544TIP3    H1 7638   4.637   1.855   2.280
 2544TIP3    H2 7639   4.734   1.961   2.230
 2545TIP3   OH2 7640   5.481   4.289   0.113
 2545TIP3    H1 7641   5.461   4.256   0.026
 2545TIP3    H2 7642   5.574   4.270   0.125
 2546TIP3   OH2 7643   3.895   5.368   4.505
 2546TIP3    H1 7644   3.878   5.462   4.515
 2546TIP3    H2 7645   3.835   5.326   4.566
 2547TIP3   OH2 7646   3.395   4.097   0.711
 2547TIP3    H1 7647   3.357   4.163   0.769
 2547TIP3    H2 7648   3.321   4.067   0.658
 2548TIP3   OH2 7649   4.165   3.487   1.171
 2548TIP3    H1 7650   4.261   3.490   1.168
 2548TIP3    H2 7651   4.143   3.513   1.261
 2549TIP3   OH2 7652   3.170   1.969   4.704
 2549TIP3    H1 7653   3.163   2.027   4.780
 2549TIP3    H2 7654   3.220   2.019   4.639
 2550TIP3   OH2 7655   2.801   1.359   2.886
 2550TIP3    H1 7656   2.799   1.442   2.838
 2550TIP3    H2 7657   2.753   1.298   2.831
 2551TIP3   OH2 7658   5.950   5.935   2.164
 2551TIP3    H1 7659   5.945   5.870   2.094
 2551TIP3    H2 7660   6.039   5.970   2.158
 2552TIP3   OH2 7661   6.039   4.708   3.402
 2552TIP3    H1 7662   6.099   4.638   3.428
 2552TIP3    H2 7663   5.975   4.712   3.473
 2553TIP3   OH2 7664   6.334   4.215   4.529
 2553TIP3    H1 7665   6.353   4.132   4.486
 2553TIP3    H2 7666   6.412   4.234   4.581
 2554TIP3   OH2 7667   6.287   5.469   0.486
 2554TIP3    H1 7668   6.237   5.514   0.418
 2554TIP3    H2 7669   6.239   5.388   0.502
 2555TIP3   OH2 7670   2.488   1.636   4.092
 2555TIP3    H1 7671   2.574   1.644   4.135
 2555TIP3    H2 7672   2.484   1.544   4.065
 2556TIP3   OH2 7673   3.357   1.388   3.405
 2556TIP3    H1 7674   3.272   1.407   3.366
 2556TIP3    H2 7675   3.337   1.336   3.483
 2557TIP3   OH2 7676   3.062   3.844   0.778
 2557TIP3    H1 7677   3.095   3.758   0.803
 2557TIP3    H2 7678   3.073   3.898   0.856
 2558TIP3   OH2 7679   3.072   0.696   2.110
 2558TIP3    H1 7680   3.115   0.757   2.170
 2558TIP3    H2 7681   3.075   0.612   2.155
 2559TIP3   OH2 7682   5.477   1.602   2.579
 2559TIP3    H1 7683   5.528   1.683   2.585
 2559TIP3    H2 7684   5.536   1.533   2.610
 2560TIP3   OH2 7685   3.298   3.056   2.403
 2560TIP3    H1 7686   3.229   3.100   2.354
 2560TIP3    H2 7687   3.376   3.063   2.348
 2561TIP3   OH2 7688   4.812   5.838   0.582
 2561TIP3    H1 7689   4.732   5.789   0.561
 2561TIP3    H2 7690   4.781   5.914   0.632
 2562TIP3   OH2 7691   2.373   0.774   2.825
 2562TIP3    H1 7692   2.305   0.841   2.831
 2562TIP3    H2 7693   2.344   0.716   2.754
 2563TIP3   OH2 7694   5.495   3.236   0.254
 2563TIP3    H1 7695   5.488   3.296   0.179
 2563TIP3    H2 7696   5.543   3.160   0.220
 2564TIP3   OH2 7697   1.279   3.103   2.163
 2564TIP3    H1 7698   1.342   3.175   2.159
 2564TIP3    H2 7699   1.282   3.064   2.076
 2565TIP3   OH2 7700   0.989   4.597   2.937
 2565TIP3    H1 7701   1.042   4.523   2.908
 2565TIP3    H2 7702   0.907   4.588   2.888
 2566TIP3   OH2 7703   0.056   1.081   1.017
 2566TIP3    H1 7704   0.111   1.025   1.072
 2566TIP3    H2 7705   0.002   1.130   1.079
 2567TIP3   OH2 7706   5.427   4.942   2.032
 2567TIP3    H1 7707   5.417   5.023   1.982
 2567TIP3    H2 7708   5.339   4.921   2.062
 2568TIP3   OH2 7709   3.428   1.350   5.004
 2568TIP3    H1 7710   3.416   1.311   4.918
 2568TIP3    H2 7711   3.345   1.393   5.024
 2569TIP3   OH2 7712   4.758   2.849   4.069
 2569TIP3    H1 7713   4.721   2.916   4.126
 2569TIP3    H2 7714   4.852   2.851   4.088
 2570TIP3   OH2 7715   5.483   4.638   4.214
 2570TIP3    H1 7716   5.567   4.676   4.189
 2570TIP3    H2 7717   5.469   4.568   4.150
 2571TIP3   OH2 7718   2.233   1.212   1.535
 2571TIP3    H1 7719   2.304   1.201   1.472
 2571TIP3    H2 7720   2.260   1.286   1.590
 2572TIP3   OH2 7721   4.434   0.409   3.748
 2572TIP3    H1 7722   4.397   0.450   3.670
 2572TIP3    H2 7723   4.495   0.343   3.714
 2573TIP3   OH2 7724   2.694   5.987   0.431
 2573TIP3    H1 7725   2.621   6.048   0.428
 2573TIP3    H2 7726   2.653   5.900   0.437
 2574TIP3   OH2 7727   5.462   0.259   2.619
 2574TIP3    H1 7728   5.436   0.312   2.695
 2574TIP3    H2 7729   5.398   0.188   2.616
 2575TIP3   OH2 7730   3.163   4.792   3.359
 2575TIP3    H1 7731   3.138   4.856   3.292
 2575TIP3    H2 7732   3.181   4.712   3.309
 2576TIP3   OH2 7733   2.478   0.405   3.215
 2576TIP3    H1 7734   2.482   0.318   3.176
 2576TIP3    H2 7735   2.474   0.465   3.140
 2577TIP3   OH2 7736   2.360   5.384   4.876
 2577TIP3    H1 7737   2.402   5.442   4.940
 2577TIP3    H2 7738   2.410   5.302   4.881
 2578TIP3   OH2 7739   0.141   5.545   0.984
 2578TIP3    H1 7740   0.054   5.510   0.966
 2578TIP3    H2 7741   0.181   5.556   0.898
 2579TIP3   OH2 7742   4.345   2.377   3.762
 2579TIP3    H1 7743   4.322   2.369   3.669
 2579TIP3    H2 7744   4.333   2.289   3.797
 2580TIP3   OH2 7745   0.096   4.320   4.796
 2580TIP3    H1 7746   0.114   4.402   4.843
 2580TIP3    H2 7747   0.041   4.270   4.855
 2581TIP3   OH2 7748   3.114   2.430   0.166
 2581TIP3    H1 7749   3.075   2.393   0.245
 2581TIP3    H2 7750   3.065   2.391   0.094
 2582TIP3   OH2 7751   3.815   3.711   4.626
 2582TIP3    H1 7752   3.868   3.711   4.546
 2582TIP3    H2 7753   3.878   3.709   4.697
 2583TIP3   OH2 7754   5.476   0.033   0.747
 2583TIP3    H1 7755   5.502   0.036   0.655
 2583TIP3    H2 7756   5.388   0.072   0.749
 2584TIP3   OH2 7757   1.840   5.566   4.259
 2584TIP3    H1 7758   1.865   5.625   4.330
 2584TIP3    H2 7759   1.777   5.506   4.299
 2585TIP3   OH2 7760   2.198   4.037   5.068
 2585TIP3    H1 7761   2.200   4.118   5.016
 2585TIP3    H2 7762   2.165   3.971   5.007
 2586TIP3   OH2 7763   1.785   5.322   3.825
 2586TIP3    H1 7764   1.793   5.367   3.741
 2586TIP3    H2 7765   1.840   5.373   3.885
 2587TIP3   OH2 7766   2.539   1.216   3.218
 2587TIP3    H1 7767   2.446   1.224   3.239
 2587TIP3    H2 7768   2.567   1.305   3.197
 2588TIP3   OH2 7769   3.157   4.437   3.835
 2588TIP3    H1 7770   3.147   4.366   3.771
 2588TIP3    H2 7771   3.251   4.452   3.840
 2589TIP3   OH2 7772   6.122   2.113   3.438
 2589TIP3    H1 7773   6.132   2.198   3.396
 2589TIP3    H2 7774   6.171   2.052   3.383
 2590TIP3   OH2 7775   1.114   2.174   1.725
 2590TIP3    H1 7776   1.167   2.253   1.717
 2590TIP3    H2 7777   1.047   2.183   1.658
 2591TIP3   OH2 7778   5.353   3.644   5.098
 2591TIP3    H1 7779   5.371   3.568   5.154
 2591TIP3    H2 7780   5.277   3.618   5.046
 2592TIP3   OH2 7781   5.672   4.397   2.102
 2592TIP3    H1 7782   5.759   4.391   2.062
 2592TIP3    H2 7783   5.614   4.420   2.030
 2593TIP3   OH2 7784   5.994   3.316   0.212
 2593TIP3    H1 7785   6.017   3.405   0.186
 2593TIP3    H2 7786   5.979   3.321   0.306
 2594TIP3   OH2 7787   3.061   5.386   0.656
 2594TIP3    H1 7788   3.019   5.461   0.615
 2594TIP3    H2 7789   3.148   5.382   0.617
 2595TIP3   OH2 7790   0.414   0.909   3.107
 2595TIP3    H1 7791   0.327   0.916   3.066
 2595TIP3    H2 7792   0.446   0.999   3.109
 2596TIP3   OH2 7793   4.273   5.769   0.848
 2596TIP3    H1 7794   4.265   5.680   0.883
 2596TIP3    H2 7795   4.207   5.774   0.779
 2597TIP3   OH2 7796   2.935   2.224   0.126
 2597TIP3    H1 7797   2.928   2.129   0.133
 2597TIP3    H2 7798   2.933   2.254   0.217
 2598TIP3   OH2 7799   3.990   2.413   2.075
 2598TIP3    H1 7800   3.929   2.487   2.078
 2598TIP3    H2 7801   3.981   2.378   1.986
 2599TIP3   OH2 7802   2.665   2.765   2.391
 2599TIP3    H1 7803   2.616   2.846   2.405
 2599TIP3    H2 7804   2.597   2.699   2.374
 2600TIP3   OH2 7805   1.084   1.819   4.726
 2600TIP3    H1 7806   1.087   1.889   4.791
 2600TIP3    H2 7807   1.171   1.822   4.685
 2601TIP3   OH2 7808   5.287   4.344   2.826
 2601TIP3    H1 7809   5.291   4.373   2.917
 2601TIP3    H2 7810   5.201   4.373   2.796
 2602TIP3   OH2 7811   2.965   3.891   0.050
 2602TIP3    H1 7812   2.950   3.806   0.092
 2602TIP3    H2 7813   3.055   3.914   0.073
 2603TIP3   OH2 7814   5.836   1.455   0.526
 2603TIP3    H1 7815   5.852   1.462   0.620
 2603TIP3    H2 7816   5.766   1.391   0.519
 2604TIP3   OH2 7817   2.069   5.300   2.969
 2604TIP3    H1 7818   2.026   5.327   3.051
 2604TIP3    H2 7819   2.037   5.361   2.904
 2605TIP3   OH2 7820   2.636   5.085   3.820
 2605TIP3    H1 7821   2.695   5.132   3.760
 2605TIP3    H2 7822   2.679   5.093   3.905
 2606TIP3   OH2 7823   1.966   0.050   3.003
 2606TIP3    H1 7824   1.973  -0.041   2.975
 2606TIP3    H2 7825   1.880   0.078   2.971
 2607TIP3   OH2 7826   3.814   2.888   0.400
 2607TIP3    H1 7827   3.772   2.838   0.330
 2607TIP3    H2 7828   3.864   2.956   0.354
 2608TIP3   OH2 7829   4.407   2.038   3.508
 2608TIP3    H1 7830   4.396   1.966   3.446
 2608TIP3    H2 7831   4.381   2.116   3.459
 2609TIP3   OH2 7832   3.961   1.493   0.344
 2609TIP3    H1 7833   3.948   1.462   0.433
 2609TIP3    H2 7834   3.940   1.587   0.348
 2610TIP3   OH2 7835   4.746   3.412   3.122
 2610TIP3    H1 7836   4.776   3.476   3.058
 2610TIP3    H2 7837   4.821   3.398   3.180
 2611TIP3   OH2 7838   2.635   2.613   2.131
 2611TIP3    H1 7839   2.644   2.554   2.206
 2611TIP3    H2 7840   2.689   2.689   2.153
 2612TIP3   OH2 7841   4.106   1.317   1.227
 2612TIP3    H1 7842   4.190   1.283   1.259
 2612TIP3    H2 7843   4.057   1.338   1.306
 2613TIP3   OH2 7844   2.408   0.412   0.196
 2613TIP3    H1 7845   2.336   0.473   0.181
 2613TIP3    H2 7846   2.366   0.332   0.227
 2614TIP3   OH2 7847   5.466   2.983   1.685
 2614TIP3    H1 7848   5.464   3.074   1.656
 2614TIP3    H2 7849   5.556   2.954   1.670
 2615TIP3   OH2 7850   4.883   1.646   2.193
 2615TIP3    H1 7851   4.891   1.636   2.098
 2615TIP3    H2 7852   4.829   1.723   2.205
 2616TIP3   OH2 7853   4.090   2.896   1.079
 2616TIP3    H1 7854   4.067   2.978   1.037
 2616TIP3    H2 7855   4.171   2.915   1.127
 2617TIP3   OH2 7856   4.609   1.258   0.950
 2617TIP3    H1 7857   4.579   1.169   0.969
 2617TIP3    H2 7858   4.600   1.305   1.033
 2618TIP3   OH2 7859   5.563   5.912   2.148
 2618TIP3    H1 7860   5.472   5.884   2.153
 2618TIP3    H2 7861   5.559   6.007   2.133
 2619TIP3   OH2 7862   5.588   0.759   1.342
 2619TIP3    H1 7863   5.668   0.796   1.306
 2619TIP3    H2 7864   5.605   0.665   1.347
 2620TIP3   OH2 7865   4.085   1.682   3.944
 2620TIP3    H1 7866   4.104   1.747   3.876
 2620TIP3    H2 7867   4.167   1.673   3.993
 2621TIP3   OH2 7868   2.732   5.193   0.257
 2621TIP3    H1 7869   2.777   5.167   0.176
 2621TIP3    H2 7870   2.739   5.117   0.314
 2622TIP3   OH2 7871   3.045   1.296   3.752
 2622TIP3    H1 7872   2.950   1.289   3.746
 2622TIP3    H2 7873   3.070   1.229   3.815
 2623TIP3   OH2 7874   3.408   4.010   2.431
 2623TIP3    H1 7875   3.391   4.089   2.379
 2623TIP3    H2 7876   3.328   3.958   2.423
 2624TIP3   OH2 7877   4.219   1.828   0.344
 2624TIP3    H1 7878   4.147   1.889   0.326
 2624TIP3    H2 7879   4.290   1.858   0.287
 2625TIP3   OH2 7880   4.990   3.916   4.401
 2625TIP3    H1 7881   4.943   3.966   4.334
 2625TIP3    H2 7882   4.980   3.825   4.373
 2626TIP3   OH2 7883   0.624   4.814   0.196
 2626TIP3    H1 7884   0.646   4.889   0.252
 2626TIP3    H2 7885   0.667   4.832   0.113
 2627TIP3   OH2 7886   0.648   4.412   4.387
 2627TIP3    H1 7887   0.731   4.455   4.408
 2627TIP3    H2 7888   0.630   4.438   4.297
 2628TIP3   OH2 7889   3.448   4.064   3.308
 2628TIP3    H1 7890   3.354   4.080   3.316
 2628TIP3    H2 7891   3.454   3.980   3.263
 2629TIP3   OH2 7892   1.652   1.412   1.120
 2629TIP3    H1 7893   1.747   1.398   1.117
 2629TIP3    H2 7894   1.624   1.399   1.030
 2630TIP3   OH2 7895   0.142   0.641   1.904
 2630TIP3    H1 7896   0.207   0.683   1.847
 2630TIP3    H2 7897   0.139   0.550   1.874
 2631TIP3   OH2 7898   2.897   0.997   0.115
 2631TIP3    H1 7899   2.973   0.955   0.155
 2631TIP3    H2 7900   2.838   0.925   0.093
 2632TIP3   OH2 7901   6.279   2.986   3.795
 2632TIP3    H1 7902   6.257   2.978   3.888
 2632TIP3    H2 7903   6.216   2.929   3.751
 2633TIP3   OH2 7904   2.160   4.170   3.113
 2633TIP3    H1 7905   2.147   4.168   3.018
 2633TIP3    H2 7906   2.233   4.230   3.126
 2634TIP3   OH2 7907   1.013   3.177   4.209
 2634TIP3    H1 7908   1.084   3.234   4.181
 2634TIP3    H2 7909   0.956   3.171   4.132
 2635TIP3   OH2 7910   1.816   0.269   1.595
 2635TIP3    H1 7911   1.786   0.253   1.505
 2635TIP3    H2 7912   1.780   0.196   1.645
 2636TIP3   OH2 7913   2.008   2.346   5.173
 2636TIP3    H1 7914   1.961   2.263   5.169
 2636TIP3    H2 7915   2.064   2.346   5.095
 2637TIP3   OH2 7916   4.875   5.832   4.772
 2637TIP3    H1 7917   4.797   5.782   4.748
 2637TIP3    H2 7918   4.884   5.898   4.703
 2638TIP3   OH2 7919   2.673   4.641   2.529
 2638TIP3    H1 7920   2.765   4.631   2.553
 2638TIP3    H2 7921   2.626   4.644   2.612
 2639TIP3   OH2 7922   1.898   2.212   0.165
 2639TIP3    H1 7923   1.859   2.229   0.251
 2639TIP3    H2 7924   1.867   2.125   0.141
 2640TIP3   OH2 7925   4.764   0.559   0.580
 2640TIP3    H1 7926   4.815   0.492   0.534
 2640TIP3    H2 7927   4.698   0.587   0.517
 2641TIP3   OH2 7928   5.808   0.486   5.029
 2641TIP3    H1 7929   5.719   0.488   5.063
 2641TIP3    H2 7930   5.825   0.576   4.999
 2642TIP3   OH2 7931   3.154   2.497   1.948
 2642TIP3    H1 7932   3.181   2.422   2.001
 2642TIP3    H2 7933   3.067   2.520   1.981
 2643TIP3   OH2 7934   3.202   1.490   1.434
 2643TIP3    H1 7935   3.116   1.447   1.423
 2643TIP3    H2 7936   3.207   1.552   1.362
 2644TIP3   OH2 7937   4.435   3.247   4.448
 2644TIP3    H1 7938   4.501   3.177   4.446
 2644TIP3    H2 7939   4.364   3.215   4.392
 2645TIP3   OH2 7940   2.362   2.109   4.695
 2645TIP3    H1 7941   2.432   2.129   4.634
 2645TIP3    H2 7942   2.293   2.072   4.641
 2646TIP3   OH2 7943   0.872   1.440   4.505
 2646TIP3    H1 7944   0.812   1.511   4.481
 2646TIP3    H2 7945   0.938   1.440   4.435
 2647TIP3   OH2 7946   2.633   3.845   3.290
 2647TIP3    H1 7947   2.643   3.894   3.208
 2647TIP3    H2 7948   2.565   3.893   3.337
 2648TIP3   OH2 7949   4.972   0.999   1.965
 2648TIP3    H1 7950   4.896   1.056   1.977
 2648TIP3    H2 7951   5.016   0.999   2.051
 2649TIP3   OH2 7952   3.481   4.977   2.455
 2649TIP3    H1 7953   3.566   5.022   2.457
 2649TIP3    H2 7954   3.487   4.918   2.380
 2650TIP3   OH2 7955   6.240   4.668   0.243
 2650TIP3    H1 7956   6.156   4.702   0.272
 2650TIP3    H2 7957   6.305   4.720   0.290
 2651TIP3   OH2 7958   1.535   3.170   4.053
 2651TIP3    H1 7959   1.590   3.114   4.106
 2651TIP3    H2 7960   1.578   3.173   3.968
 2652TIP3   OH2 7961   5.185   4.885   2.135
 2652TIP3    H1 7962   5.112   4.930   2.177
 2652TIP3    H2 7963   5.180   4.795   2.165
 2653TIP3   OH2 7964   1.490   5.009   4.821
 2653TIP3    H1 7965   1.530   5.093   4.799
 2653TIP3    H2 7966   1.560   4.959   4.862
 2654TIP3   OH2 7967   6.161   3.973   2.889
 2654TIP3    H1 7968   6.084   3.941   2.936
 2654TIP3    H2 7969   6.182   4.056   2.931
 2655TIP3   OH2 7970   0.055   3.624   2.621
 2655TIP3    H1 7971  -0.029   3.594   2.657
 2655TIP3    H2 7972   0.042   3.625   2.526
 2656TIP3   OH2 7973   4.579   5.793   4.062
 2656TIP3    H1 7974   4.543   5.722   4.116
 2656TIP3    H2 7975   4.672   5.795   4.083
 2657TIP3   OH2 7976   1.975   4.695   0.433
 2657TIP3    H1 7977   2.024   4.759   0.381
 2657TIP3    H2 7978   1.991   4.612   0.389
 2658TIP3   OH2 7979   5.674   0.323   4.187
 2658TIP3    H1 7980   5.617   0.250   4.212
 2658TIP3    H2 7981   5.718   0.294   4.107
 2659TIP3   OH2 7982   3.184   3.175   4.327
 2659TIP3    H1 7983   3.220   3.180   4.238
 2659TIP3    H2 7984   3.104   3.227   4.323
 2660TIP3   OH2 7985   5.463   3.073   4.153
 2660TIP3    H1 7986   5.538   3.028   4.113
 2660TIP3    H2 7987   5.500   3.117   4.230
 2661TIP3   OH2 7988   0.343   4.778   1.828
 2661TIP3    H1 7989   0.260   4.802   1.788
 2661TIP3    H2 7990   0.406   4.780   1.756
 2662TIP3   OH2 7991   2.999   1.557   1.189
 2662TIP3    H1 7992   3.009   1.472   1.148
 2662TIP3    H2 7993   2.971   1.615   1.118
 2663TIP3   OH2 7994   1.788   0.195   0.405
 2663TIP3    H1 7995   1.710   0.143   0.388
 2663TIP3    H2 7996   1.822   0.217   0.318
 2664TIP3   OH2 7997   3.691   4.625   3.394
 2664TIP3    H1 7998   3.673   4.613   3.301
 2664TIP3    H2 7999   3.736   4.710   3.398
 2665TIP3   OH2 8000   3.312   0.762   2.916
 2665TIP3    H1 8001   3.379   0.822   2.951
 2665TIP3    H2 8002   3.231   0.812   2.919
 2666TIP3   OH2 8003   0.775   2.743   5.180
 2666TIP3    H1 8004   0.772   2.750   5.275
 2666TIP3    H2 8005   0.867   2.727   5.159
 2667TIP3   OH2 8006   5.393   0.553   2.051
 2667TIP3    H1 8007   5.442   0.561   2.132
 2667TIP3    H2 8008   5.321   0.615   2.060
 2668TIP3   OH2 8009   2.216   1.271   2.873
 2668TIP3    H1 8010   2.309   1.251   2.861
 2668TIP3    H2 8011   2.182   1.280   2.784
 2669TIP3   OH2 8012   2.031   1.653   2.955
 2669TIP3    H1 8013   2.010   1.560   2.948
 2669TIP3    H2 8014   2.062   1.664   3.045
 2670TIP3   OH2 8015   2.967   5.963   2.300
 2670TIP3    H1 8016   2.985   6.014   2.220
 2670TIP3    H2 8017   2.883   5.920   2.283
 2671TIP3   OH2 8018   1.442   1.039   1.361
 2671TIP3    H1 8019   1.417   1.065   1.450
 2671TIP3    H2 8020   1.520   1.091   1.342
 2672TIP3   OH2 8021   5.851   2.477   3.205
 2672TIP3    H1 8022   5.894   2.562   3.191
 2672TIP3    H2 8023   5.915   2.413   3.174
 2673TIP3   OH2 8024   3.773   1.530   4.025
 2673TIP3    H1 8025   3.770   1.439   3.995
 2673TIP3    H2 8026   3.826   1.575   3.959
 2674TIP3   OH2 8027   0.684   0.359   4.918
 2674TIP3    H1 8028   0.665   0.452   4.934
 2674TIP3    H2 8029   0.600   0.315   4.927
 2675TIP3   OH2 8030   2.192   5.193   2.130
 2675TIP3    H1 8031   2.183   5.101   2.154
 2675TIP3    H2 8032   2.269   5.223   2.179
 2676TIP3   OH2 8033   2.679   3.737   4.436
 2676TIP3    H1 8034   2.599   3.718   4.387
 2676TIP3    H2 8035   2.689   3.663   4.495
 2677TIP3   OH2 8036   1.983   2.885   1.913
 2677TIP3    H1 8037   1.895   2.856   1.890
 2677TIP3    H2 8038   1.970   2.950   1.981
 2678TIP3   OH2 8039   5.311   4.018   4.410
 2678TIP3    H1 8040   5.293   3.975   4.494
 2678TIP3    H2 8041   5.251   3.975   4.349
 2679TIP3   OH2 8042   1.105   1.302   3.410
 2679TIP3    H1 8043   1.180   1.312   3.468
 2679TIP3    H2 8044   1.055   1.383   3.422
 2680TIP3   OH2 8045   6.174   2.140   1.772
 2680TIP3    H1 8046   6.110   2.096   1.828
 2680TIP3    H2 8047   6.223   2.197   1.832
 2681TIP3   OH2 8048   4.624   2.121   0.470
 2681TIP3    H1 8049   4.683   2.145   0.541
 2681TIP3    H2 8050   4.682   2.108   0.394
 2682TIP3   OH2 8051   0.919   3.585   4.717
 2682TIP3    H1 8052   0.849   3.623   4.663
 2682TIP3    H2 8053   1.000   3.611   4.673
 2683TIP3   OH2 8054   5.601   6.005   4.771
 2683TIP3    H1 8055   5.640   5.925   4.806
 2683TIP3    H2 8056   5.634   6.011   4.681
 2684TIP3   OH2 8057   4.579   1.210   4.190
 2684TIP3    H1 8058   4.534   1.218   4.274
 2684TIP3    H2 8059   4.668   1.184   4.213
 2685TIP3   OH2 8060   1.557   5.464   0.472
 2685TIP3    H1 8061   1.633   5.491   0.525
 2685TIP3    H2 8062   1.590   5.393   0.417
 2686TIP3   OH2 8063   3.218   5.725   1.708
 2686TIP3    H1 8064   3.273   5.696   1.781
 2686TIP3    H2 8065   3.245   5.815   1.692
 2687TIP3   OH2 8066   5.010   3.957   3.668
 2687TIP3    H1 8067   5.025   3.869   3.702
 2687TIP3    H2 8068   5.096   3.999   3.669
 2688TIP3   OH2 8069   1.094   1.969   2.280
 2688TIP3    H1 8070   1.118   1.980   2.372
 2688TIP3    H2 8071   1.035   1.893   2.280
 2689TIP3   OH2 8072   4.870   3.407   0.678
 2689TIP3    H1 8073   4.892   3.316   0.699
 2689TIP3    H2 8074   4.857   3.406   0.583
 2690TIP3   OH2 8075   1.772   1.208   3.548
 2690TIP3    H1 8076   1.770   1.304   3.546
 2690TIP3    H2 8077   1.680   1.182   3.537
 2691TIP3   OH2 8078   0.286   1.528   0.852
 2691TIP3    H1 8079   0.270   1.536   0.758
 2691TIP3    H2 8080   0.295   1.434   0.867
 2692TIP3   OH2 8081   3.122   0.886   0.624
 2692TIP3    H1 8082   3.092   0.874   0.715
 2692TIP3    H2 8083   3.064   0.953   0.589
 2693TIP3   OH2 8084   2.213   0.839   0.266
 2693TIP3    H1 8085   2.232   0.860   0.174
 2693TIP3    H2 8086   2.134   0.889   0.286
 2694TIP3   OH2 8087   5.240   4.006   4.021
 2694TIP3    H1 8088   5.218   3.931   4.076
 2694TIP3    H2 8089   5.302   3.971   3.958
 2695TIP3   OH2 8090   0.600   5.976   0.762
 2695TIP3    H1 8091   0.521   6.003   0.809
 2695TIP3    H2 8092   0.664   6.044   0.782
 2696TIP3   OH2 8093   1.132   4.505   5.047
 2696TIP3    H1 8094   1.075   4.516   4.971
 2696TIP3    H2 8095   1.147   4.593   5.080
 2697TIP3   OH2 8096   5.781   3.595   2.187
 2697TIP3    H1 8097   5.771   3.586   2.282
 2697TIP3    H2 8098   5.723   3.527   2.151
 2698TIP3   OH2 8099   5.015   2.830   0.661
 2698TIP3    H1 8100   5.069   2.817   0.582
 2698TIP3    H2 8101   4.939   2.774   0.647
 2699TIP3   OH2 8102   4.789   2.223   1.212
 2699TIP3    H1 8103   4.700   2.190   1.199
 2699TIP3    H2 8104   4.784   2.316   1.192
 2700TIP3   OH2 8105   2.781   2.134   1.892
 2700TIP3    H1 8106   2.699   2.086   1.889
 2700TIP3    H2 8107   2.776   2.195   1.818
 2701TIP3   OH2 8108   4.287   0.067   2.197
 2701TIP3    H1 8109   4.276  -0.005   2.134
 2701TIP3    H2 8110   4.301   0.023   2.281
 2702TIP3   OH2 8111   4.668   4.914   1.039
 2702TIP3    H1 8112   4.669   4.896   0.945
 2702TIP3    H2 8113   4.688   4.830   1.079
 2703TIP3   OH2 8114   3.565   2.820   3.738
 2703TIP3    H1 8115   3.484   2.807   3.688
 2703TIP3    H2 8116   3.634   2.815   3.672
 2704TIP3   OH2 8117   4.943   2.393   4.360
 2704TIP3    H1 8118   4.923   2.375   4.452
 2704TIP3    H2 8119   4.922   2.485   4.348
 2705TIP3   OH2 8120   2.599   2.495   2.391
 2705TIP3    H1 8121   2.558   2.477   2.475
 2705TIP3    H2 8122   2.671   2.432   2.385
 2706TIP3   OH2 8123   4.723   5.288   4.289
 2706TIP3    H1 8124   4.737   5.234   4.366
 2706TIP3    H2 8125   4.687   5.370   4.323
 2707TIP3   OH2 8126   1.600   0.645   0.550
 2707TIP3    H1 8127   1.626   0.562   0.509
 2707TIP3    H2 8128   1.677   0.674   0.598
 2708TIP3   OH2 8129   1.274   0.097   2.742
 2708TIP3    H1 8130   1.277   0.193   2.739
 2708TIP3    H2 8131   1.358   0.069   2.706
 2709TIP3   OH2 8132   5.871   2.331   1.398
 2709TIP3    H1 8133   5.807   2.327   1.328
 2709TIP3    H2 8134   5.821   2.311   1.478
 2710TIP3   OH2 8135   4.606   3.830   3.939
 2710TIP3    H1 8136   4.649   3.788   3.865
 2710TIP3    H2 8137   4.513   3.831   3.916
 2711TIP3   OH2 8138   5.196   4.608   1.896
 2711TIP3    H1 8139   5.125   4.574   1.952
 2711TIP3    H2 8140   5.150   4.645   1.821
 2712TIP3   OH2 8141   5.910   5.015   0.771
 2712TIP3    H1 8142   5.863   4.935   0.749
 2712TIP3    H2 8143   5.894   5.074   0.698
 2713TIP3   OH2 8144   2.342   1.114   5.201
 2713TIP3    H1 8145   2.382   1.163   5.129
 2713TIP3    H2 8146   2.255   1.090   5.167
 2714TIP3   OH2 8147   2.661   2.089   3.361
 2714TIP3    H1 8148   2.736   2.032   3.376
 2714TIP3    H2 8149   2.651   2.137   3.444
 2715TIP3   OH2 8150   4.259   1.101   1.798
 2715TIP3    H1 8151   4.329   1.090   1.733
 2715TIP3    H2 8152   4.253   1.015   1.841
 2716TIP3   OH2 8153   6.359   0.713   1.378
 2716TIP3    H1 8154   6.387   0.776   1.444
 2716TIP3    H2 8155   6.386   0.628   1.413
 2717TIP3   OH2 8156   3.331   0.397   0.473
 2717TIP3    H1 8157   3.298   0.308   0.482
 2717TIP3    H2 8158   3.420   0.394   0.506
 2718TIP3   OH2 8159   5.821   5.230   1.894
 2718TIP3    H1 8160   5.856   5.165   1.954
 2718TIP3    H2 8161   5.821   5.312   1.943
 2719TIP3   OH2 8162   2.007   1.176   1.944
 2719TIP3    H1 8163   2.040   1.091   1.915
 2719TIP3    H2 8164   2.069   1.205   2.010
 2720TIP3   OH2 8165   6.320   4.134   2.440
 2720TIP3    H1 8166   6.245   4.193   2.432
 2720TIP3    H2 8167   6.390   4.178   2.391
 2721TIP3   OH2 8168   2.412   4.673   3.460
 2721TIP3    H1 8169   2.432   4.607   3.526
 2721TIP3    H2 8170   2.397   4.753   3.509
 2722TIP3   OH2 8171   1.615   0.579   0.857
 2722TIP3    H1 8172   1.614   0.580   0.762
 2722TIP3    H2 8173   1.551   0.646   0.883
 2723TIP3   OH2 8174   2.268   1.208   3.177
 2723TIP3    H1 8175   2.203   1.276   3.195
 2723TIP3    H2 8176   2.245   1.175   3.090
 2724TIP3   OH2 8177   2.694   4.809   3.852
 2724TIP3    H1 8178   2.666   4.899   3.840
 2724TIP3    H2 8179   2.777   4.816   3.899
 2725TIP3   OH2 8180   4.151   1.588   5.167
 2725TIP3    H1 8181   4.079   1.527   5.158
 2725TIP3    H2 8182   4.148   1.616   5.259
 2726TIP3   OH2 8183   0.089   3.485   2.866
 2726TIP3    H1 8184   0.092   3.501   2.771
 2726TIP3    H2 8185   0.018   3.540   2.897
 2727TIP3   OH2 8186   2.933   3.107   3.789
 2727TIP3    H1 8187   2.853   3.067   3.755
 2727TIP3    H2 8188   3.004   3.058   3.747
 2728TIP3   OH2 8189   1.274   3.991   0.920
 2728TIP3    H1 8190   1.289   4.025   1.008
 2728TIP3    H2 8191   1.214   3.917   0.931
 2729TIP3   OH2 8192   3.209   3.664   3.757
 2729TIP3    H1 8193   3.182   3.752   3.733
 2729TIP3    H2 8194   3.289   3.677   3.808
 2730TIP3   OH2 8195   2.435   0.171   0.784
 2730TIP3    H1 8196   2.505   0.229   0.813
 2730TIP3    H2 8197   2.402   0.212   0.704
 2731TIP3   OH2 8198   0.757   4.766   5.181
 2731TIP3    H1 8199   0.696   4.700   5.216
 2731TIP3    H2 8200   0.746   4.760   5.086
 2732TIP3   OH2 8201   5.141   3.266   2.644
 2732TIP3    H1 8202   5.052   3.286   2.672
 2732TIP3    H2 8203   5.161   3.183   2.688
 2733TIP3   OH2 8204   5.396   0.185   4.830
 2733TIP3    H1 8205   5.426   0.124   4.762
 2733TIP3    H2 8206   5.371   0.128   4.903
 2734TIP3   OH2 8207   2.283   5.643   4.394
 2734TIP3    H1 8208   2.272   5.551   4.368
 2734TIP3    H2 8209   2.209   5.660   4.452
 2735TIP3   OH2 8210   4.861   0.853   2.291
 2735TIP3    H1 8211   4.782   0.848   2.344
 2735TIP3    H2 8212   4.863   0.943   2.258
 2736TIP3   OH2 8213   2.588   0.601   4.304
 2736TIP3    H1 8214   2.531   0.597   4.381
 2736TIP3    H2 8215   2.556   0.677   4.254
 2737TIP3   OH2 8216   3.741   5.967   4.938
 2737TIP3    H1 8217   3.766   6.059   4.935
 2737TIP3    H2 8218   3.765   5.933   4.852
 2738TIP3   OH2 8219   0.951   5.123   4.539
 2738TIP3    H1 8220   0.925   5.049   4.595
 2738TIP3    H2 8221   0.922   5.200   4.587
 2739TIP3   OH2 8222   3.611   0.257   3.418
 2739TIP3    H1 8223   3.632   0.292   3.505
 2739TIP3    H2 8224   3.566   0.329   3.374
 2740TIP3   OH2 8225   0.178   3.071   0.311
 2740TIP3    H1 8226   0.254   3.026   0.348
 2740TIP3    H2 8227   0.138   3.116   0.385
 2741TIP3   OH2 8228   5.769   5.031   0.410
 2741TIP3    H1 8229   5.742   4.945   0.379
 2741TIP3    H2 8230   5.708   5.051   0.481
 2742TIP3   OH2 8231   6.267   5.709   1.363
 2742TIP3    H1 8232   6.357   5.739   1.349
 2742TIP3    H2 8233   6.277   5.621   1.399
 2743TIP3   OH2 8234   3.601   1.956   3.748
 2743TIP3    H1 8235   3.579   1.863   3.751
 2743TIP3    H2 8236   3.647   1.971   3.831
 2744TIP3   OH2 8237   4.804   5.311   3.841
 2744TIP3    H1 8238   4.864   5.274   3.906
 2744TIP3    H2 8239   4.808   5.250   3.767
 2745TIP3   OH2 8240   1.397   2.133   0.584
 2745TIP3    H1 8241   1.353   2.050   0.564
 2745TIP3    H2 8242   1.469   2.108   0.641
 2746TIP3   OH2 8243   1.272   0.674   3.148
 2746TIP3    H1 8244   1.282   0.592   3.196
 2746TIP3    H2 8245   1.268   0.648   3.056
 2747TIP3   OH2 8246   0.888   0.509   2.430
 2747TIP3    H1 8247   0.831   0.437   2.455
 2747TIP3    H2 8248   0.879   0.515   2.335
 2748TIP3   OH2 8249   0.176   2.500   2.800
 2748TIP3    H1 8250   0.208   2.559   2.731
 2748TIP3    H2 8251   0.082   2.494   2.785
 2749TIP3   OH2 8252   1.579   3.577   1.180
 2749TIP3    H1 8253   1.637   3.535   1.245
 2749TIP3    H2 8254   1.494   3.537   1.195
 2750TIP3   OH2 8255   3.471   3.164   1.288
 2750TIP3    H1 8256   3.517   3.198   1.212
 2750TIP3    H2 8257   3.534   3.171   1.360
 2751TIP3   OH2 8258   5.634   1.572   5.034
 2751TIP3    H1 8259   5.547   1.543   5.005
 2751TIP3    H2 8260   5.619   1.660   5.068
 2752TIP3   OH2 8261   2.401   3.984   4.154
 2752TIP3    H1 8262   2.473   4.044   4.133
 2752TIP3    H2 8263   2.346   3.984   4.076
 2753TIP3   OH2 8264   5.015   5.645   0.186
 2753TIP3    H1 8265   5.102   5.638   0.226
 2753TIP3    H2 8266   4.984   5.732   0.213
 2754TIP3   OH2 8267   4.306   2.760   2.735
 2754TIP3    H1 8268   4.388   2.711   2.741
 2754TIP3    H2 8269   4.332   2.852   2.747
 2755TIP3   OH2 8270   1.255   5.407   2.955
 2755TIP3    H1 8271   1.298   5.357   3.024
 2755TIP3    H2 8272   1.269   5.499   2.979
 2756TIP3   OH2 8273   6.337   4.688   3.130
 2756TIP3    H1 8274   6.282   4.647   3.063
 2756TIP3    H2 8275   6.412   4.630   3.139
 2757TIP3   OH2 8276   2.974   5.755   3.889
 2757TIP3    H1 8277   2.994   5.726   3.978
 2757TIP3    H2 8278   2.920   5.685   3.852
 2758TIP3   OH2 8279   5.412   5.082   4.701
 2758TIP3    H1 8280   5.377   5.121   4.621
 2758TIP3    H2 8281   5.458   5.154   4.744
 2759TIP3   OH2 8282   1.910   0.507   3.714
 2759TIP3    H1 8283   2.001   0.503   3.745
 2759TIP3    H2 8284   1.885   0.599   3.724
 2760TIP3   OH2 8285   5.562   1.098   3.248
 2760TIP3    H1 8286   5.542   1.191   3.258
 2760TIP3    H2 8287   5.510   1.055   3.316
 2761TIP3   OH2 8288   6.139   3.767   1.730
 2761TIP3    H1 8289   6.126   3.777   1.825
 2761TIP3    H2 8290   6.228   3.798   1.715
 2762TIP3   OH2 8291   3.418   5.412   5.174
 2762TIP3    H1 8292   3.446   5.320   5.170
 2762TIP3    H2 8293   3.460   5.445   5.254
 2763TIP3   OH2 8294   3.769   4.513   2.715
 2763TIP3    H1 8295   3.851   4.472   2.689
 2763TIP3    H2 8296   3.741   4.462   2.792
 2764TIP3   OH2 8297   2.723   1.731   3.261
 2764TIP3    H1 8298   2.647   1.679   3.290
 2764TIP3    H2 8299   2.716   1.731   3.166
 2765TIP3   OH2 8300   5.221   5.275   2.087
 2765TIP3    H1 8301   5.132   5.240   2.087
 2765TIP3    H2 8302   5.237   5.301   1.997
 2766TIP3   OH2 8303   0.825   1.730   0.408
 2766TIP3    H1 8304   0.854   1.784   0.482
 2766TIP3    H2 8305   0.887   1.657   0.405
 2767TIP3   OH2 8306   1.971   0.525   0.810
 2767TIP3    H1 8307   1.950   0.491   0.897
 2767TIP3    H2 8308   1.969   0.620   0.821
 2768TIP3   OH2 8309   1.246   4.888   2.359
 2768TIP3    H1 8310   1.238   4.798   2.391
 2768TIP3    H2 8311   1.205   4.942   2.427
 2769TIP3   OH2 8312   2.488   5.976   0.119
 2769TIP3    H1 8313   2.490   5.937   0.031
 2769TIP3    H2 8314   2.573   6.019   0.127
 2770TIP3   OH2 8315   1.493   5.756   0.991
 2770TIP3    H1 8316   1.587   5.755   0.975
 2770TIP3    H2 8317   1.478   5.836   1.042
 2771TIP3   OH2 8318   4.480   2.513   2.768
 2771TIP3    H1 8319   4.545   2.582   2.774
 2771TIP3    H2 8320   4.457   2.494   2.859
 2772TIP3   OH2 8321   6.279   5.798   2.057
 2772TIP3    H1 8322   6.190   5.770   2.080
 2772TIP3    H2 8323   6.270   5.834   1.969
 2773TIP3   OH2 8324   3.741   4.562   0.178
 2773TIP3    H1 8325   3.745   4.467   0.178
 2773TIP3    H2 8326   3.709   4.585   0.265
 2774TIP3   OH2 8327   3.994   4.222   2.772
 2774TIP3    H1 8328   4.036   4.288   2.716
 2774TIP3    H2 8329   3.913   4.264   2.801
 2775TIP3   OH2 8330   3.137   5.705   2.401
 2775TIP3    H1 8331   3.055   5.710   2.450
 2775TIP3    H2 8332   3.144   5.613   2.376
 2776TIP3   OH2 8333   0.962   5.764   1.038
 2776TIP3    H1 8334   0.983   5.844   0.991
 2776TIP3    H2 8335   0.958   5.790   1.130
 2777TIP3   OH2 8336   1.570   5.966   3.783
 2777TIP3    H1 8337   1.624   5.992   3.857
 2777TIP3    H2 8338   1.481   5.986   3.810
 2778TIP3   OH2 8339   5.295   3.355   2.987
 2778TIP3    H1 8340   5.277   3.449   2.991
 2778TIP3    H2 8341   5.210   3.314   3.004
 2779TIP3   OH2 8342   0.870   3.616   1.651
 2779TIP3    H1 8343   0.783   3.613   1.689
 2779TIP3    H2 8344   0.856   3.642   1.560
 2780TIP3   OH2 8345   1.946   4.708   3.184
 2780TIP3    H1 8346   1.999   4.744   3.113
 2780TIP3    H2 8347   1.957   4.613   3.176
 2781TIP3   OH2 8348   4.607   5.213   2.053
 2781TIP3    H1 8349   4.638   5.149   2.116
 2781TIP3    H2 8350   4.587   5.162   1.974
 2782TIP3   OH2 8351   5.350   5.996   0.833
 2782TIP3    H1 8352   5.425   6.018   0.887
 2782TIP3    H2 8353   5.385   5.988   0.744
 2783TIP3   OH2 8354   2.968   3.038   3.154
 2783TIP3    H1 8355   2.980   3.035   3.059
 2783TIP3    H2 8356   2.891   3.093   3.167
 2784TIP3   OH2 8357   1.866   0.257   0.145
 2784TIP3    H1 8358   1.788   0.258   0.089
 2784TIP3    H2 8359   1.939   0.242   0.085
 2785TIP3   OH2 8360   1.388   0.474   5.036
 2785TIP3    H1 8361   1.460   0.489   5.096
 2785TIP3    H2 8362   1.428   0.434   4.959
 2786TIP3   OH2 8363   3.390   5.720   0.691
 2786TIP3    H1 8364   3.334   5.692   0.618
 2786TIP3    H2 8365   3.466   5.760   0.649
 2787TIP3   OH2 8366   3.847   2.003   0.821
 2787TIP3    H1 8367   3.840   2.021   0.914
 2787TIP3    H2 8368   3.831   2.088   0.779
 2788TIP3   OH2 8369   1.091   2.410   4.003
 2788TIP3    H1 8370   1.186   2.399   4.008
 2788TIP3    H2 8371   1.079   2.498   3.967
 2789TIP3   OH2 8372   5.313   3.014   3.043
 2789TIP3    H1 8373   5.287   2.931   3.081
 2789TIP3    H2 8374   5.252   3.078   3.080
 2790TIP3   OH2 8375   1.436   4.899   1.069
 2790TIP3    H1 8376   1.392   4.948   1.138
 2790TIP3    H2 8377   1.381   4.912   0.992
 2791TIP3   OH2 8378   1.324   2.788   1.693
 2791TIP3    H1 8379   1.232   2.763   1.701
 2791TIP3    H2 8380   1.323   2.864   1.635
 2792TIP3   OH2 8381   2.685   5.725   3.686
 2792TIP3    H1 8382   2.765   5.707   3.637
 2792TIP3    H2 8383   2.684   5.660   3.756
 2793TIP3   OH2 8384   5.261   1.356   1.941
 2793TIP3    H1 8385   5.225   1.395   1.861
 2793TIP3    H2 8386   5.188   1.358   2.003
 2794TIP3   OH2 8387   3.523   3.262   4.749
 2794TIP3    H1 8388   3.595   3.204   4.724
 2794TIP3    H2 8389   3.456   3.245   4.682
 2795TIP3   OH2 8390   0.602   0.975   0.120
 2795TIP3    H1 8391   0.569   0.900   0.170
 2795TIP3    H2 8392   0.631   0.938   0.037
 2796TIP3   OH2 8393   1.893   5.832   0.878
 2796TIP3    H1 8394   1.865   5.741   0.893
 2796TIP3    H2 8395   1.846   5.882   0.944
 2797TIP3   OH2 8396   0.487   2.559   4.025
 2797TIP3    H1 8397   0.492   2.654   4.036
 2797TIP3    H2 8398   0.577   2.532   4.005
 2798TIP3   OH2 8399   0.145   2.221   2.788
 2798TIP3    H1 8400   0.163   2.314   2.798
 2798TIP3    H2 8401   0.110   2.212   2.700
 2799TIP3   OH2 8402   6.283   2.411   2.710
 2799TIP3    H1 8403   6.312   2.341   2.651
 2799TIP3    H2 8404   6.256   2.482   2.651
 2800TIP3   OH2 8405   2.189   3.985   0.558
 2800TIP3    H1 8406   2.240   3.940   0.625
 2800TIP3    H2 8407   2.148   3.915   0.507
 2801TIP3   OH2 8408   1.484   3.624   2.281
 2801TIP3    H1 8409   1.464   3.664   2.196
 2801TIP3    H2 8410   1.484   3.697   2.343
 2802TIP3   OH2 8411   3.330   1.038   2.345
 2802TIP3    H1 8412   3.420   1.045   2.314
 2802TIP3    H2 8413   3.296   1.128   2.339
 2803TIP3   OH2 8414   0.636   3.725   1.761
 2803TIP3    H1 8415   0.671   3.796   1.707
 2803TIP3    H2 8416   0.543   3.719   1.736
 2804TIP3   OH2 8417   1.216   0.556   1.231
 2804TIP3    H1 8418   1.139   0.520   1.187
 2804TIP3    H2 8419   1.219   0.509   1.315
 2805TIP3   OH2 8420   0.514   2.830   4.112
 2805TIP3    H1 8421   0.599   2.864   4.086
 2805TIP3    H2 8422   0.476   2.900   4.166
 2806TIP3   OH2 8423   6.163   0.499   0.115
 2806TIP3    H1 8424   6.165   0.477   0.022
 2806TIP3    H2 8425   6.203   0.424   0.159
 2807TIP3   OH2 8426   5.752   3.809   1.987
 2807TIP3    H1 8427   5.727   3.769   2.071
 2807TIP3    H2 8428   5.842   3.839   2.002
 2808TIP3   OH2 8429   3.999   1.687   0.967
 2808TIP3    H1 8430   4.003   1.765   0.912
 2808TIP3    H2 8431   4.080   1.690   1.018
 2809TIP3   OH2 8432   2.527   0.147   3.089
 2809TIP3    H1 8433   2.622   0.155   3.093
 2809TIP3    H2 8434   2.512   0.073   3.030
 2810TIP3   OH2 8435   0.324   3.606   2.011
 2810TIP3    H1 8436   0.264   3.630   1.940
 2810TIP3    H2 8437   0.286   3.526   2.048
 2811TIP3   OH2 8438   3.563   1.873   2.740
 2811TIP3    H1 8439   3.618   1.864   2.818
 2811TIP3    H2 8440   3.624   1.892   2.670
 2812TIP3   OH2 8441   4.031   3.914   2.222
 2812TIP3    H1 8442   4.123   3.905   2.197
 2812TIP3    H2 8443   3.990   3.834   2.189
 2813TIP3   OH2 8444   5.827   0.916   3.066
 2813TIP3    H1 8445   5.835   0.998   3.115
 2813TIP3    H2 8446   5.756   0.933   3.003
 2814TIP3   OH2 8447   5.073   1.696   4.688
 2814TIP3    H1 8448   4.997   1.700   4.630
 2814TIP3    H2 8449   5.061   1.770   4.748
 2815TIP3   OH2 8450   0.621   1.068   2.631
 2815TIP3    H1 8451   0.582   1.118   2.703
 2815TIP3    H2 8452   0.658   1.135   2.573
 2816TIP3   OH2 8453   3.581   5.137   4.395
 2816TIP3    H1 8454   3.501   5.084   4.390
 2816TIP3    H2 8455   3.637   5.104   4.325
 2817TIP3   OH2 8456   3.023   4.644   3.540
 2817TIP3    H1 8457   3.056   4.715   3.485
 2817TIP3    H2 8458   2.961   4.685   3.600
 2818TIP3   OH2 8459   3.664   3.736   2.593
 2818TIP3    H1 8460   3.683   3.714   2.502
 2818TIP3    H2 8461   3.577   3.701   2.609
 2819TIP3   OH2 8462   5.791   0.012   4.644
 2819TIP3    H1 8463   5.835   0.090   4.611
 2819TIP3    H2 8464   5.738  -0.019   4.570
 2820TIP3   OH2 8465   1.783   1.084   2.892
 2820TIP3    H1 8466   1.757   1.004   2.845
 2820TIP3    H2 8467   1.716   1.148   2.868
 2821TIP3   OH2 8468   1.948   0.170   3.510
 2821TIP3    H1 8469   1.869   0.220   3.492
 2821TIP3    H2 8470   2.018   0.217   3.464
 2822TIP3   OH2 8471   1.175   3.137   3.515
 2822TIP3    H1 8472   1.177   3.161   3.608
 2822TIP3    H2 8473   1.126   3.055   3.513
 2823TIP3   OH2 8474   4.020   5.561   2.469
 2823TIP3    H1 8475   4.109   5.588   2.446
 2823TIP3    H2 8476   3.963   5.617   2.416
 2824TIP3   OH2 8477   6.329   5.461   1.445
 2824TIP3    H1 8478   6.288   5.409   1.514
 2824TIP3    H2 8479   6.361   5.397   1.381
 2825TIP3   OH2 8480   0.762   1.393   1.694
 2825TIP3    H1 8481   0.748   1.314   1.642
 2825TIP3    H2 8482   0.704   1.382   1.769
 2826TIP3   OH2 8483   3.405   5.894   0.966
 2826TIP3    H1 8484   3.405   5.805   0.931
 2826TIP3    H2 8485   3.386   5.950   0.891
 2827TIP3   OH2 8486   0.521   0.386   4.313
 2827TIP3    H1 8487   0.514   0.345   4.399
 2827TIP3    H2 8488   0.529   0.313   4.252
 2828TIP3   OH2 8489   5.970   3.987   3.617
 2828TIP3    H1 8490   5.944   4.019   3.531
 2828TIP3    H2 8491   6.047   3.933   3.601
 2829TIP3   OH2 8492   5.919   1.197   4.327
 2829TIP3    H1 8493   5.826   1.182   4.309
 2829TIP3    H2 8494   5.939   1.278   4.281
 2830TIP3   OH2 8495   4.648   3.892   1.863
 2830TIP3    H1 8496   4.578   3.934   1.814
 2830TIP3    H2 8497   4.618   3.803   1.878
 2831TIP3   OH2 8498   5.656   5.043   4.467
 2831TIP3    H1 8499   5.610   5.087   4.539
 2831TIP3    H2 8500   5.731   5.002   4.508
 2832TIP3   OH2 8501   6.087   2.225   2.039
 2832TIP3    H1 8502   6.023   2.265   2.097
 2832TIP3    H2 8503   6.091   2.134   2.067
 2833TIP3   OH2 8504   0.216   2.981   2.582
 2833TIP3    H1 8505   0.179   3.009   2.666
 2833TIP3    H2 8506   0.177   3.039   2.517
 2834TIP3   OH2 8507   4.643   5.947   3.435
 2834TIP3    H1 8508   4.703   6.014   3.403
 2834TIP3    H2 8509   4.638   5.961   3.530
 2835TIP3   OH2 8510   2.078   2.445   1.900
 2835TIP3    H1 8511   2.149   2.394   1.862
 2835TIP3    H2 8512   2.042   2.496   1.827
 2836TIP3   OH2 8513   1.108   0.824   0.157
 2836TIP3    H1 8514   1.122   0.732   0.181
 2836TIP3    H2 8515   1.181   0.845   0.099
 2837TIP3   OH2 8516   1.723   2.552   0.408
 2837TIP3    H1 8517   1.701   2.491   0.478
 2837TIP3    H2 8518   1.801   2.598   0.439
 2838TIP3   OH2 8519   3.923   3.851   1.735
 2838TIP3    H1 8520   3.876   3.782   1.783
 2838TIP3    H2 8521   3.884   3.851   1.648
 2839TIP3   OH2 8522   5.499   5.875   2.460
 2839TIP3    H1 8523   5.561   5.948   2.458
 2839TIP3    H2 8524   5.450   5.882   2.378
 2840TIP3   OH2 8525   4.498   4.070   1.081
 2840TIP3    H1 8526   4.427   4.100   1.023
 2840TIP3    H2 8527   4.573   4.057   1.023
 2841TIP3   OH2 8528   5.482   1.525   1.327
 2841TIP3    H1 8529   5.443   1.443   1.357
 2841TIP3    H2 8530   5.564   1.498   1.285
 2842TIP3   OH2 8531   2.624   0.278   0.948
 2842TIP3    H1 8532   2.606   0.373   0.950
 2842TIP3    H2 8533   2.718   0.271   0.960
 2843TIP3   OH2 8534   0.711   3.428   3.671
 2843TIP3    H1 8535   0.621   3.410   3.695
 2843TIP3    H2 8536   0.763   3.371   3.727
 2844TIP3   OH2 8537   2.201   5.530   5.129
 2844TIP3    H1 8538   2.220   5.624   5.134
 2844TIP3    H2 8539   2.254   5.491   5.198
 2845TIP3   OH2 8540   5.282   2.440   2.485
 2845TIP3    H1 8541   5.259   2.380   2.414
 2845TIP3    H2 8542   5.241   2.523   2.460
 2846TIP3   OH2 8543   0.194   4.278   3.840
 2846TIP3    H1 8544   0.186   4.195   3.889
 2846TIP3    H2 8545   0.117   4.328   3.866
 2847TIP3   OH2 8546   4.814   2.351   4.618
 2847TIP3    H1 8547   4.725   2.330   4.592
 2847TIP3    H2 8548   4.807   2.379   4.709
 2848TIP3   OH2 8549   4.738   5.110   4.482
 2848TIP3    H1 8550   4.755   5.022   4.450
 2848TIP3    H2 8551   4.773   5.111   4.571
 2849TIP3   OH2 8552   2.336   1.565   0.821
 2849TIP3    H1 8553   2.350   1.551   0.914
 2849TIP3    H2 8554   2.354   1.480   0.781
 2850TIP3   OH2 8555   3.211   1.810   0.941
 2850TIP3    H1 8556   3.154   1.875   0.902
 2850TIP3    H2 8557   3.206   1.735   0.882
 2851TIP3   OH2 8558   4.141   3.927   4.425
 2851TIP3    H1 8559   4.218   3.957   4.377
 2851TIP3    H2 8560   4.068   3.939   4.363
 2852TIP3   OH2 8561   3.180   5.649   1.437
 2852TIP3    H1 8562   3.208   5.680   1.523
 2852TIP3    H2 8563   3.180   5.554   1.444
 2853TIP3   OH2 8564   5.233   0.058   1.913
 2853TIP3    H1 8565   5.263   0.146   1.936
 2853TIP3    H2 8566   5.249   0.051   1.819
 2854TIP3   OH2 8567   2.148   1.671   2.562
 2854TIP3    H1 8568   2.101   1.689   2.643
 2854TIP3    H2 8569   2.195   1.752   2.544
 2855TIP3   OH2 8570   0.295   1.590   1.853
 2855TIP3    H1 8571   0.381   1.622   1.828
 2855TIP3    H2 8572   0.300   1.495   1.841
 2856TIP3   OH2 8573   3.451   5.541   0.895
 2856TIP3    H1 8574   3.527   5.490   0.866
 2856TIP3    H2 8575   3.430   5.597   0.821
 2857TIP3   OH2 8576   5.084   3.610   0.644
 2857TIP3    H1 8577   5.015   3.544   0.653
 2857TIP3    H2 8578   5.038   3.694   0.648
 2858TIP3   OH2 8579   4.215   1.643   2.205
 2858TIP3    H1 8580   4.222   1.548   2.201
 2858TIP3    H2 8581   4.306   1.673   2.211
 2859TIP3   OH2 8582   3.364   1.948   2.164
 2859TIP3    H1 8583   3.276   1.911   2.166
 2859TIP3    H2 8584   3.391   1.950   2.256
 2860TIP3   OH2 8585   5.270   3.080   0.146
 2860TIP3    H1 8586   5.356   3.060   0.109
 2860TIP3    H2 8587   5.289   3.123   0.229
 2861TIP3   OH2 8588   1.473   1.112   4.230
 2861TIP3    H1 8589   1.384   1.110   4.196
 2861TIP3    H2 8590   1.515   1.034   4.192
 2862TIP3   OH2 8591   2.398   4.098   1.082
 2862TIP3    H1 8592   2.464   4.146   1.131
 2862TIP3    H2 8593   2.430   4.008   1.080
 2863TIP3   OH2 8594   0.096   3.445   4.528
 2863TIP3    H1 8595   0.066   3.484   4.610
 2863TIP3    H2 8596   0.063   3.503   4.460
 2864TIP3   OH2 8597   0.817   3.126   0.393
 2864TIP3    H1 8598   0.883   3.138   0.461
 2864TIP3    H2 8599   0.824   3.033   0.370
 2865TIP3   OH2 8600   0.799   0.507   3.317
 2865TIP3    H1 8601   0.852   0.585   3.299
 2865TIP3    H2 8602   0.712   0.542   3.338
 2866TIP3   OH2 8603   1.904   3.515   1.832
 2866TIP3    H1 8604   1.939   3.603   1.846
 2866TIP3    H2 8605   1.839   3.525   1.762
 2867TIP3   OH2 8606   3.260   2.492   4.800
 2867TIP3    H1 8607   3.235   2.489   4.892
 2867TIP3    H2 8608   3.208   2.564   4.763
 2868TIP3   OH2 8609   2.156   4.951   3.199
 2868TIP3    H1 8610   2.219   5.009   3.156
 2868TIP3    H2 8611   2.199   4.865   3.200
 2869TIP3   OH2 8612  -0.004   5.808   1.794
 2869TIP3    H1 8613   0.066   5.763   1.747
 2869TIP3    H2 8614  -0.003   5.898   1.759
 2870TIP3   OH2 8615   0.605   4.534   1.841
 2870TIP3    H1 8616   0.569   4.560   1.756
 2870TIP3    H2 8617   0.549   4.463   1.871
 2871TIP3   OH2 8618   5.359   0.393   4.016
 2871TIP3    H1 8619   5.451   0.382   3.990
 2871TIP3    H2 8620   5.363   0.446   4.096
 2872TIP3   OH2 8621   2.106   5.360   4.486
 2872TIP3    H1 8622   2.062   5.432   4.441
 2872TIP3    H2 8623   2.194   5.392   4.503
 2873TIP3   OH2 8624   1.401   5.987   0.193
 2873TIP3    H1 8625   1.482   5.936   0.196
 2873TIP3    H2 8626   1.344   5.938   0.135
 2874TIP3   OH2 8627   1.263   2.575   3.680
 2874TIP3    H1 8628   1.337   2.623   3.645
 2874TIP3    H2 8629   1.279   2.570   3.774
 2875TIP3   OH2 8630   0.081   5.027   4.036
 2875TIP3    H1 8631   0.102   4.982   4.118
 2875TIP3    H2 8632   0.028   4.965   3.987
 2876TIP3   OH2 8633   5.131   0.027   5.014
 2876TIP3    H1 8634   5.118   0.115   5.048
 2876TIP3    H2 8635   5.067  -0.026   5.063
 2877TIP3   OH2 8636   1.286   0.630   4.125
 2877TIP3    H1 8637   1.279   0.535   4.134
 2877TIP3    H2 8638   1.325   0.659   4.207
 2878TIP3   OH2 8639   1.438   0.271   0.191
 2878TIP3    H1 8640   1.469   0.275   0.282
 2878TIP3    H2 8641   1.517   0.251   0.140
 2879TIP3   OH2 8642   1.482   1.083   3.093
 2879TIP3    H1 8643   1.571   1.060   3.122
 2879TIP3    H2 8644   1.470   1.174   3.120
 2880TIP3   OH2 8645   3.555   3.813   1.618
 2880TIP3    H1 8646   3.538   3.877   1.688
 2880TIP3    H2 8647   3.500   3.842   1.545
 2881TIP3   OH2 8648   4.490   3.608   0.243
 2881TIP3    H1 8649   4.517   3.529   0.197
 2881TIP3    H2 8650   4.571   3.644   0.279
 2882TIP3   OH2 8651   1.249   5.917   3.922
 2882TIP3    H1 8652   1.212   5.985   3.979
 2882TIP3    H2 8653   1.251   5.957   3.836
 2883TIP3   OH2 8654   1.669   2.582   1.458
 2883TIP3    H1 8655   1.590   2.634   1.437
 2883TIP3    H2 8656   1.715   2.575   1.375
 2884TIP3   OH2 8657   3.075   2.060   0.500
 2884TIP3    H1 8658   3.012   1.999   0.538
 2884TIP3    H2 8659   3.141   2.005   0.459
 2885TIP3   OH2 8660   2.926   2.258   4.168
 2885TIP3    H1 8661   3.004   2.314   4.167
 2885TIP3    H2 8662   2.936   2.204   4.246
 2886TIP3   OH2 8663   3.207   2.256   2.124
 2886TIP3    H1 8664   3.204   2.194   2.051
 2886TIP3    H2 8665   3.179   2.205   2.199
 2887TIP3   OH2 8666   5.583   1.338   0.581
 2887TIP3    H1 8667   5.512   1.401   0.569
 2887TIP3    H2 8668   5.539   1.253   0.589
 2888TIP3   OH2 8669   3.015   2.503   4.457
 2888TIP3    H1 8670   2.956   2.499   4.381
 2888TIP3    H2 8671   3.075   2.575   4.436
 2889TIP3   OH2 8672   0.957   4.279   2.252
 2889TIP3    H1 8673   0.864   4.293   2.270
 2889TIP3    H2 8674   0.964   4.184   2.239
 2890TIP3   OH2 8675   3.869   3.399   0.666
 2890TIP3    H1 8676   3.821   3.351   0.734
 2890TIP3    H2 8677   3.801   3.441   0.613
 2891TIP3   OH2 8678   5.054   1.457   1.153
 2891TIP3    H1 8679   5.113   1.385   1.129
 2891TIP3    H2 8680   4.974   1.440   1.103
 2892TIP3   OH2 8681   2.030   5.386   2.165
 2892TIP3    H1 8682   2.079   5.307   2.142
 2892TIP3    H2 8683   2.043   5.397   2.259
 2893TIP3   OH2 8684   0.108   2.376   0.660
 2893TIP3    H1 8685   0.132   2.297   0.707
 2893TIP3    H2 8686   0.041   2.348   0.598
 2894TIP3   OH2 8687   3.243   5.442   2.404
 2894TIP3    H1 8688   3.217   5.370   2.347
 2894TIP3    H2 8689   3.286   5.401   2.478
 2895TIP3   OH2 8690   5.239   4.709   3.614
 2895TIP3    H1 8691   5.175   4.639   3.610
 2895TIP3    H2 8692   5.312   4.678   3.560
 2896TIP3   OH2 8693   1.655   2.970   3.576
 2896TIP3    H1 8694   1.728   3.028   3.600
 2896TIP3    H2 8695   1.686   2.924   3.498
 2897TIP3   OH2 8696   0.304   2.455   2.184
 2897TIP3    H1 8697   0.373   2.520   2.198
 2897TIP3    H2 8698   0.351   2.373   2.169
 2898TIP3   OH2 8699   3.057   0.440   1.466
 2898TIP3    H1 8700   3.024   0.363   1.513
 2898TIP3    H2 8701   3.105   0.404   1.392
 2899TIP3   OH2 8702   0.682   0.282   1.002
 2899TIP3    H1 8703   0.741   0.287   0.927
 2899TIP3    H2 8704   0.676   0.373   1.033
 2900TIP3   OH2 8705   4.463   3.410   1.248
 2900TIP3    H1 8706   4.551   3.429   1.215
 2900TIP3    H2 8707   4.431   3.340   1.190
 2901TIP3   OH2 8708   3.711   3.331   3.896
 2901TIP3    H1 8709   3.639   3.333   3.959
 2901TIP3    H2 8710   3.673   3.293   3.817
 2902TIP3   OH2 8711   0.721   1.216   3.637
 2902TIP3    H1 8712   0.749   1.167   3.560
 2902TIP3    H2 8713   0.778   1.293   3.639
 2903TIP3   OH2 8714   4.420   2.523   1.291
 2903TIP3    H1 8715   4.472   2.589   1.245
 2903TIP3    H2 8716   4.360   2.489   1.224
 2904TIP3   OH2 8717   4.858   0.505   5.198
 2904TIP3    H1 8718   4.790   0.563   5.164
 2904TIP3    H2 8719   4.931   0.517   5.137
 2905TIP3   OH2 8720   4.427   1.195   1.567
 2905TIP3    H1 8721   4.451   1.286   1.550
 2905TIP3    H2 8722   4.386   1.165   1.486
 2906TIP3   OH2 8723   2.544   5.638   4.495
 2906TIP3    H1 8724   2.574   5.718   4.451
 2906TIP3    H2 8725   2.468   5.610   4.445
 2907TIP3   OH2 8726   0.081   3.225   1.478
 2907TIP3    H1 8727   0.096   3.132   1.462
 2907TIP3    H2 8728   0.075   3.264   1.391
 2908TIP3   OH2 8729   1.927   2.795   0.451
 2908TIP3    H1 8730   1.949   2.808   0.359
 2908TIP3    H2 8731   2.011   2.794   0.497
 2909TIP3   OH2 8732   6.356   1.607   1.189
 2909TIP3    H1 8733   6.340   1.647   1.104
 2909TIP3    H2 8734   6.448   1.581   1.187
 2910TIP3   OH2 8735   2.533   1.108   1.510
 2910TIP3    H1 8736   2.536   1.025   1.557
 2910TIP3    H2 8737   2.615   1.152   1.534
 2911TIP3   OH2 8738   2.800   3.676   1.168
 2911TIP3    H1 8739   2.866   3.626   1.120
 2911TIP3    H2 8740   2.745   3.713   1.100
 2912TIP3   OH2 8741   1.244   5.319   4.710
 2912TIP3    H1 8742   1.317   5.376   4.735
 2912TIP3    H2 8743   1.175   5.378   4.682
 2913TIP3   OH2 8744   3.089   0.065   4.319
 2913TIP3    H1 8745   3.174   0.077   4.361
 2913TIP3    H2 8746   3.026   0.076   4.390
 2914TIP3   OH2 8747   2.651   4.957   2.691
 2914TIP3    H1 8748   2.666   4.984   2.782
 2914TIP3    H2 8749   2.663   4.862   2.693
 2915TIP3   OH2 8750   0.038   3.304   4.269
 2915TIP3    H1 8751   0.093   3.227   4.253
 2915TIP3    H2 8752   0.080   3.374   4.219
 2916TIP3   OH2 8753   0.694   1.028   4.864
 2916TIP3    H1 8754   0.770   1.014   4.920
 2916TIP3    H2 8755   0.687   1.123   4.855
 2917TIP3   OH2 8756   2.703   5.802   4.351
 2917TIP3    H1 8757   2.757   5.748   4.410
 2917TIP3    H2 8758   2.712   5.760   4.266
 2918TIP3   OH2 8759   3.575   4.421   1.811
 2918TIP3    H1 8760   3.605   4.338   1.774
 2918TIP3    H2 8761   3.627   4.488   1.767
 2919TIP3   OH2 8762   4.270   4.581   4.998
 2919TIP3    H1 8763   4.218   4.565   4.919
 2919TIP3    H2 8764   4.352   4.618   4.965
 2920TIP3   OH2 8765   4.122   3.241   3.320
 2920TIP3    H1 8766   4.178   3.317   3.308
 2920TIP3    H2 8767   4.114   3.232   3.415
 2921TIP3   OH2 8768   0.149   3.863   0.427
 2921TIP3    H1 8769   0.220   3.854   0.489
 2921TIP3    H2 8770   0.122   3.955   0.435
 2922TIP3   OH2 8771   5.763   2.212   3.682
 2922TIP3    H1 8772   5.746   2.252   3.596
 2922TIP3    H2 8773   5.715   2.129   3.680
 2923TIP3   OH2 8774   6.085   3.357   0.501
 2923TIP3    H1 8775   6.174   3.377   0.473
 2923TIP3    H2 8776   6.088   3.266   0.529
 2924TIP3   OH2 8777   0.669   4.266   2.353
 2924TIP3    H1 8778   0.628   4.224   2.428
 2924TIP3    H2 8779   0.627   4.226   2.277
 2925TIP3   OH2 8780   1.500   2.178   2.981
 2925TIP3    H1 8781   1.436   2.118   2.942
 2925TIP3    H2 8782   1.494   2.162   3.075
 2926TIP3   OH2 8783   2.871   2.096   4.717
 2926TIP3    H1 8784   2.859   2.176   4.769
 2926TIP3    H2 8785   2.925   2.040   4.773
 2927TIP3   OH2 8786   2.444   3.223   3.524
 2927TIP3    H1 8787   2.440   3.166   3.446
 2927TIP3    H2 8788   2.386   3.181   3.587
 2928TIP3   OH2 8789   0.288   5.931   0.878
 2928TIP3    H1 8790   0.281   6.027   0.881
 2928TIP3    H2 8791   0.282   5.904   0.970
 2929TIP3   OH2 8792   3.347   4.834   3.898
 2929TIP3    H1 8793   3.318   4.767   3.959
 2929TIP3    H2 8794   3.428   4.798   3.860
 2930TIP3   OH2 8795   4.503   0.659   2.457
 2930TIP3    H1 8796   4.466   0.610   2.531
 2930TIP3    H2 8797   4.578   0.706   2.495
 2931TIP3   OH2 8798   4.295   5.297   4.849
 2931TIP3    H1 8799   4.223   5.284   4.788
 2931TIP3    H2 8800   4.312   5.209   4.884
 2932TIP3   OH2 8801   2.486   5.194   0.156
 2932TIP3    H1 8802   2.563   5.202   0.213
 2932TIP3    H2 8803   2.492   5.105   0.120
 2933TIP3   OH2 8804   2.257   1.253   3.551
 2933TIP3    H1 8805   2.287   1.173   3.508
 2933TIP3    H2 8806   2.168   1.232   3.581
 2934TIP3   OH2 8807   0.869   2.643   4.106
 2934TIP3    H1 8808   0.954   2.636   4.149
 2934TIP3    H2 8809   0.820   2.706   4.159
 2935TIP3   OH2 8810   1.835   0.522   1.550
 2935TIP3    H1 8811   1.844   0.442   1.602
 2935TIP3    H2 8812   1.782   0.496   1.475
 2936TIP3   OH2 8813   5.369   2.043   1.437
 2936TIP3    H1 8814   5.360   2.134   1.408
 2936TIP3    H2 8815   5.408   1.999   1.362
 2937TIP3   OH2 8816   4.119   5.720   2.937
 2937TIP3    H1 8817   4.113   5.799   2.883
 2937TIP3    H2 8818   4.030   5.687   2.941
 2938TIP3   OH2 8819   5.669   1.611   0.070
 2938TIP3    H1 8820   5.739   1.596   0.133
 2938TIP3    H2 8821   5.709   1.664   0.001
 2939TIP3   OH2 8822   3.911   5.296   3.325
 2939TIP3    H1 8823   3.949   5.383   3.336
 2939TIP3    H2 8824   3.855   5.304   3.248
 2940TIP3   OH2 8825   4.151   0.084   1.629
 2940TIP3    H1 8826   4.122  -0.002   1.660
 2940TIP3    H2 8827   4.144   0.080   1.534
 2941TIP3   OH2 8828   4.796   0.440   3.544
 2941TIP3    H1 8829   4.748   0.472   3.620
 2941TIP3    H2 8830   4.808   0.517   3.489
 2942TIP3   OH2 8831   1.714   2.790   3.370
 2942TIP3    H1 8832   1.639   2.752   3.324
 2942TIP3    H2 8833   1.768   2.828   3.301
 2943TIP3   OH2 8834   1.164   3.455   0.502
 2943TIP3    H1 8835   1.185   3.498   0.419
 2943TIP3    H2 8836   1.244   3.463   0.554
 2944TIP3   OH2 8837   2.742   1.400   4.185
 2944TIP3    H1 8838   2.767   1.339   4.255
 2944TIP3    H2 8839   2.664   1.360   4.145
 2945TIP3   OH2 8840   3.775   3.726   3.339
 2945TIP3    H1 8841   3.731   3.652   3.298
 2945TIP3    H2 8842   3.805   3.780   3.266
 2946TIP3   OH2 8843   4.539   5.969   4.873
 2946TIP3    H1 8844   4.465   5.937   4.925
 2946TIP3    H2 8845   4.531   5.922   4.790
 2947TIP3   OH2 8846   4.996   0.862   1.700
 2947TIP3    H1 8847   5.012   0.772   1.728
 2947TIP3    H2 8848   4.970   0.908   1.780
 2948TIP3   OH2 8849   2.124   0.431   3.961
 2948TIP3    H1 8850   2.205   0.460   4.003
 2948TIP3    H2 8851   2.099   0.352   4.008
 2949TIP3   OH2 8852   1.498   3.328   5.001
 2949TIP3    H1 8853   1.510   3.237   4.974
 2949TIP3    H2 8854   1.455   3.323   5.086
 2950TIP3   OH2 8855   5.858   1.809   3.122
 2950TIP3    H1 8856   5.854   1.872   3.194
 2950TIP3    H2 8857   5.792   1.838   3.060
 2951TIP3   OH2 8858   2.254   0.835   4.322
 2951TIP3    H1 8859   2.323   0.797   4.269
 2951TIP3    H2 8860   2.278   0.814   4.412
 2952TIP3   OH2 8861   5.481   1.279   2.549
 2952TIP3    H1 8862   5.519   1.197   2.520
 2952TIP3    H2 8863   5.417   1.301   2.481
 2953TIP3   OH2 8864   0.939   4.427   0.807
 2953TIP3    H1 8865   0.864   4.372   0.829
 2953TIP3    H2 8866   0.916   4.465   0.722
 2954TIP3   OH2 8867   4.577   3.182   2.620
 2954TIP3    H1 8868   4.646   3.117   2.611
 2954TIP3    H2 8869   4.598   3.249   2.554
 2955TIP3   OH2 8870   2.102   1.424   3.142
 2955TIP3    H1 8871   2.029   1.385   3.191
 2955TIP3    H2 8872   2.146   1.481   3.205
 2956TIP3   OH2 8873   3.186   3.004   4.644
 2956TIP3    H1 8874   3.206   2.935   4.581
 2956TIP3    H2 8875   3.091   3.000   4.655
 2957TIP3   OH2 8876   4.096   3.547   2.916
 2957TIP3    H1 8877   4.055   3.461   2.910
 2957TIP3    H2 8878   4.163   3.547   2.848
 2958TIP3   OH2 8879   6.215   2.628   2.532
 2958TIP3    H1 8880   6.227   2.635   2.437
 2958TIP3    H2 8881   6.122   2.610   2.544
 2959TIP3   OH2 8882   0.037   3.176   5.139
 2959TIP3    H1 8883   0.078   3.202   5.222
 2959TIP3    H2 8884   0.105   3.190   5.073
 2960TIP3   OH2 8885   4.140   5.015   2.281
 2960TIP3    H1 8886   4.183   4.948   2.334
 2960TIP3    H2 8887   4.116   5.083   2.344
 2961TIP3   OH2 8888   5.569   4.855   3.961
 2961TIP3    H1 8889   5.526   4.828   4.042
 2961TIP3    H2 8890   5.499   4.895   3.909
 2962TIP3   OH2 8891   5.096   4.565   2.992
 2962TIP3    H1 8892   5.056   4.528   2.913
 2962TIP3    H2 8893   5.023   4.596   3.045
 2963TIP3   OH2 8894   2.899   0.097   4.537
 2963TIP3    H1 8895   2.833   0.030   4.550
 2963TIP3    H2 8896   2.850   0.179   4.534
 2964TIP3   OH2 8897   3.976   3.119   2.460
 2964TIP3    H1 8898   4.067   3.099   2.481
 2964TIP3    H2 8899   3.981   3.183   2.389
 2965TIP3   OH2 8900   3.121   4.973   3.764
 2965TIP3    H1 8901   3.061   4.899   3.777
 2965TIP3    H2 8902   3.201   4.947   3.810
 2966TIP3   OH2 8903   1.571   4.540   1.606
 2966TIP3    H1 8904   1.500   4.542   1.543
 2966TIP3    H2 8905   1.616   4.624   1.594
 2967TIP3   OH2 8906   2.416   4.062   1.466
 2967TIP3    H1 8907   2.410   4.158   1.468
 2967TIP3    H2 8908   2.500   4.045   1.423
 2968TIP3   OH2 8909   3.699   4.576   1.621
 2968TIP3    H1 8910   3.651   4.629   1.558
 2968TIP3    H2 8911   3.773   4.630   1.646
 2969TIP3   OH2 8912   3.142   0.152   3.585
 2969TIP3    H1 8913   3.193   0.216   3.635
 2969TIP3    H2 8914   3.138   0.189   3.497
 2970TIP3   OH2 8915   2.964   1.520   4.574
 2970TIP3    H1 8916   2.896   1.481   4.520
 2970TIP3    H2 8917   2.917   1.577   4.634
 2971TIP3   OH2 8918   5.259   4.850   0.549
 2971TIP3    H1 8919   5.304   4.926   0.512
 2971TIP3    H2 8920   5.324   4.809   0.606
 2972TIP3   OH2 8921   2.312   4.887   3.956
 2972TIP3    H1 8922   2.296   4.970   4.002
 2972TIP3    H2 8923   2.226   4.862   3.922
 2973TIP3   OH2 8924   5.461   2.728   2.188
 2973TIP3    H1 8925   5.473   2.657   2.250
 2973TIP3    H2 8926   5.435   2.803   2.241
 2974TIP3   OH2 8927   0.570   5.177   2.590
 2974TIP3    H1 8928   0.530   5.216   2.667
 2974TIP3    H2 8929   0.531   5.089   2.585
 2975TIP3   OH2 8930   5.338   0.501   2.772
 2975TIP3    H1 8931   5.261   0.526   2.721
 2975TIP3    H2 8932   5.368   0.583   2.811
 2976TIP3   OH2 8933   0.642   5.407   1.123
 2976TIP3    H1 8934   0.649   5.330   1.179
 2976TIP3    H2 8935   0.565   5.389   1.068
 2977TIP3   OH2 8936   5.871   1.348   3.441
 2977TIP3    H1 8937   5.911   1.285   3.501
 2977TIP3    H2 8938   5.924   1.427   3.450
 2978TIP3   OH2 8939   3.764   4.946   1.100
 2978TIP3    H1 8940   3.817   4.927   1.023
 2978TIP3    H2 8941   3.820   4.922   1.174
 2979TIP3   OH2 8942   3.245   3.126   2.755
 2979TIP3    H1 8943   3.310   3.088   2.815
 2979TIP3    H2 8944   3.297   3.155   2.679
 2980TIP3   OH2 8945   2.695   0.608   4.712
 2980TIP3    H1 8946   2.616   0.625   4.661
 2980TIP3    H2 8947   2.722   0.693   4.745
 2981TIP3   OH2 8948   1.354   0.478   0.048
 2981TIP3    H1 8949   1.362   0.394   0.091
 2981TIP3    H2 8950   1.420   0.477  -0.021
 2982TIP3   OH2 8951   1.498   0.436   1.497
 2982TIP3    H1 8952   1.486   0.455   1.404
 2982TIP3    H2 8953   1.518   0.521   1.537
 2983TIP3   OH2 8954   5.046   1.001   0.682
 2983TIP3    H1 8955   5.087   0.950   0.752
 2983TIP3    H2 8956   4.953   0.979   0.687
 2984TIP3   OH2 8957   3.613   2.842   0.798
 2984TIP3    H1 8958   3.576   2.851   0.885
 2984TIP3    H2 8959   3.568   2.766   0.760
 2985TIP3   OH2 8960   4.996   0.841   3.521
 2985TIP3    H1 8961   4.934   0.814   3.588
 2985TIP3    H2 8962   4.992   0.937   3.522
 2986TIP3   OH2 8963   2.025   1.489   0.435
 2986TIP3    H1 8964   1.929   1.489   0.443
 2986TIP3    H2 8965   2.055   1.528   0.518
 2987TIP3   OH2 8966   1.472   1.407   2.401
 2987TIP3    H1 8967   1.546   1.365   2.445
 2987TIP3    H2 8968   1.418   1.335   2.369
 2988TIP3   OH2 8969   6.343   3.691   2.099
 2988TIP3    H1 8970   6.270   3.630   2.091
 2988TIP3    H2 8971   6.391   3.681   2.017
 2989TIP3   OH2 8972   0.853   5.798   2.937
 2989TIP3    H1 8973   0.868   5.890   2.959
 2989TIP3    H2 8974   0.911   5.750   2.997
 2990TIP3   OH2 8975   2.616   2.346   4.374
 2990TIP3    H1 8976   2.652   2.356   4.285
 2990TIP3    H2 8977   2.603   2.435   4.404
 2991TIP3   OH2 8978   4.133   1.092   0.311
 2991TIP3    H1 8979   4.174   1.016   0.271
 2991TIP3    H2 8980   4.069   1.055   0.372
 2992TIP3   OH2 8981   2.646   3.050   0.801
 2992TIP3    H1 8982   2.682   3.123   0.750
 2992TIP3    H2 8983   2.572   3.019   0.750
 2993TIP3   OH2 8984   0.539   5.124   3.789
 2993TIP3    H1 8985   0.450   5.154   3.809
 2993TIP3    H2 8986   0.528   5.052   3.727
 2994TIP3   OH2 8987   1.855   1.623   4.355
 2994TIP3    H1 8988   1.913   1.659   4.288
 2994TIP3    H2 8989   1.893   1.653   4.438
 2995TIP3   OH2 8990   1.202   1.082   3.635
 2995TIP3    H1 8991   1.215   1.170   3.597
 2995TIP3    H2 8992   1.147   1.097   3.712
 2996TIP3   OH2 8993   3.422   3.849   4.745
 2996TIP3    H1 8994   3.463   3.841   4.658
 2996TIP3    H2 8995   3.435   3.763   4.785
 2997TIP3   OH2 8996   1.862   1.012   2.563
 2997TIP3    H1 8997   1.869   0.996   2.469
 2997TIP3    H2 8998   1.789   0.957   2.591
 2998TIP3   OH2 8999   0.438   3.389   0.178
 2998TIP3    H1 9000   0.490   3.428   0.108
 2998TIP3    H2 9001   0.495   3.323   0.216
 2999TIP3   OH2 9002   3.096   2.747   4.956
 2999TIP3    H1 9003   3.008   2.768   4.924
 2999TIP3    H2 9004   3.082   2.684   5.027
 3000TIP3   OH2 9005   3.652   1.381   1.069
 3000TIP3    H1 9006   3.669   1.364   0.976
 3000TIP3    H2 9007   3.683   1.303   1.114
 3001TIP3   OH2 9008   4.676   0.643   4.022
 3001TIP3    H1 9009   4.677   0.735   4.051
 3001TIP3    H2 9010   4.702   0.594   4.100
 3002TIP3   OH2 9011   1.665   3.086   2.796
 3002TIP3    H1 9012   1.728   3.017   2.816
 3002TIP3    H2 9013   1.640   3.069   2.705
 3003TIP3   OH2 9014   1.270   4.093   4.949
 3003TIP3    H1 9015   1.313   4.040   4.882
 3003TIP3    H2 9016   1.317   4.177   4.946
 3004TIP3   OH2 9017   5.112   2.344   1.373
 3004TIP3    H1 9018   5.039   2.288   1.398
 3004TIP3    H2 9019   5.148   2.304   1.294
 3005TIP3   OH2 9020   1.070   2.759   0.606
 3005TIP3    H1 9021   1.116   2.678   0.629
 3005TIP3    H2 9022   1.140   2.820   0.583
 3006TIP3   OH2 9023   5.885   5.704   3.522
 3006TIP3    H1 9024   5.802   5.670   3.489
 3006TIP3    H2 9025   5.917   5.636   3.582
 3007TIP3   OH2 9026   2.582   2.015   0.020
 3007TIP3    H1 9027   2.520   1.943   0.036
 3007TIP3    H2 9028   2.644   1.979  -0.044
 3008TIP3   OH2 9029   2.793   4.245   3.800
 3008TIP3    H1 9030   2.829   4.260   3.713
 3008TIP3    H2 9031   2.853   4.183   3.841
 3009TIP3   OH2 9032   4.110   5.043   0.927
 3009TIP3    H1 9033   4.096   5.000   1.011
 3009TIP3    H2 9034   4.033   5.021   0.875
 3010TIP3   OH2 9035   4.529   4.559   3.480
 3010TIP3    H1 9036   4.438   4.586   3.491
 3010TIP3    H2 9037   4.539   4.484   3.538
 3011TIP3   OH2 9038   1.158   1.855   0.112
 3011TIP3    H1 9039   1.230   1.817   0.163
 3011TIP3    H2 9040   1.081   1.805   0.139
 3012TIP3   OH2 9041   4.436   2.276   4.261
 3012TIP3    H1 9042   4.444   2.324   4.343
 3012TIP3    H2 9043   4.525   2.274   4.226
 3013TIP3   OH2 9044   3.187   0.326   1.955
 3013TIP3    H1 9045   3.120   0.270   1.994
 3013TIP3    H2 9046   3.198   0.398   2.018
 3014TIP3   OH2 9047   1.893   3.791   2.917
 3014TIP3    H1 9048   1.887   3.746   2.832
 3014TIP3    H2 9049   1.986   3.812   2.926
 3015TIP3   OH2 9050   1.857   1.395   1.429
 3015TIP3    H1 9051   1.941   1.368   1.392
 3015TIP3    H2 9052   1.874   1.482   1.466
 3016TIP3   OH2 9053   0.792   5.198   0.796
 3016TIP3    H1 9054   0.719   5.146   0.829
 3016TIP3    H2 9055   0.870   5.159   0.836
 3017TIP3   OH2 9056   3.580   0.894   4.044
 3017TIP3    H1 9057   3.511   0.959   4.038
 3017TIP3    H2 9058   3.642   0.930   4.107
 3018TIP3   OH2 9059   1.987   5.117   0.025
 3018TIP3    H1 9060   2.057   5.157  -0.026
 3018TIP3    H2 9061   1.916   5.181   0.022
 3019TIP3   OH2 9062   0.256   5.758   1.633
 3019TIP3    H1 9063   0.351   5.747   1.629
 3019TIP3    H2 9064   0.228   5.762   1.542
 3020TIP3   OH2 9065   4.536   4.817   4.339
 3020TIP3    H1 9066   4.628   4.821   4.365
 3020TIP3    H2 9067   4.510   4.909   4.329
 3021TIP3   OH2 9068   1.373   0.908   2.029
 3021TIP3    H1 9069   1.381   0.836   1.966
 3021TIP3    H2 9070   1.376   0.987   1.976
 3022TIP3   OH2 9071   1.123   1.740   5.185
 3022TIP3    H1 9072   1.155   1.682   5.254
 3022TIP3    H2 9073   1.077   1.683   5.123
 3023TIP3   OH2 9074   0.313   0.828   0.560
 3023TIP3    H1 9075   0.329   0.862   0.648
 3023TIP3    H2 9076   0.223   0.855   0.540
 3024TIP3   OH2 9077   2.704   1.030   4.982
 3024TIP3    H1 9078   2.624   1.083   4.991
 3024TIP3    H2 9079   2.772   1.093   4.960
 3025TIP3   OH2 9080   6.346   0.752   1.009
 3025TIP3    H1 9081   6.345   0.772   0.915
 3025TIP3    H2 9082   6.376   0.833   1.050
 3026TIP3   OH2 9083   3.252   1.823   4.231
 3026TIP3    H1 9084   3.275   1.790   4.318
 3026TIP3    H2 9085   3.335   1.829   4.184
 3027TIP3   OH2 9086   2.412   0.752   1.130
 3027TIP3    H1 9087   2.424   0.697   1.208
 3027TIP3    H2 9088   2.414   0.842   1.162
 3028TIP3   OH2 9089   5.104   1.571   4.339
 3028TIP3    H1 9090   5.018   1.528   4.340
 3028TIP3    H2 9091   5.141   1.551   4.425
 3029TIP3   OH2 9092   0.839   2.128   3.505
 3029TIP3    H1 9093   0.913   2.116   3.566
 3029TIP3    H2 9094   0.762   2.126   3.562
 3030TIP3   OH2 9095   1.344   3.082   3.174
 3030TIP3    H1 9096   1.268   3.140   3.177
 3030TIP3    H2 9097   1.385   3.100   3.089
 3031TIP3   OH2 9098   3.331   3.542   4.566
 3031TIP3    H1 9099   3.416   3.547   4.523
 3031TIP3    H2 9100   3.327   3.620   4.621
 3032TIP3   OH2 9101   0.827   3.986   0.066
 3032TIP3    H1 9102   0.914   4.024   0.057
 3032TIP3    H2 9103   0.767   4.059   0.052
 3033TIP3   OH2 9104   0.225   5.663   2.419
 3033TIP3    H1 9105   0.320   5.663   2.431
 3033TIP3    H2 9106   0.192   5.719   2.489
 3034TIP3   OH2 9107   5.276   5.386   3.041
 3034TIP3    H1 9108   5.368   5.411   3.052
 3034TIP3    H2 9109   5.256   5.330   3.116
 3035TIP3   OH2 9110   3.652   4.206   3.448
 3035TIP3    H1 9111   3.586   4.161   3.394
 3035TIP3    H2 9112   3.725   4.222   3.388
 3036TIP3   OH2 9113   0.268   4.982   1.300
 3036TIP3    H1 9114   0.189   5.034   1.316
 3036TIP3    H2 9115   0.262   4.910   1.362
 3037TIP3   OH2 9116   3.810   4.812   4.307
 3037TIP3    H1 9117   3.730   4.789   4.354
 3037TIP3    H2 9118   3.798   4.775   4.219
 3038TIP3   OH2 9119   2.852   4.217   1.905
 3038TIP3    H1 9120   2.828   4.227   1.997
 3038TIP3    H2 9121   2.913   4.289   1.888
 3039TIP3   OH2 9122   5.205   1.043   3.281
 3039TIP3    H1 9123   5.214   1.115   3.218
 3039TIP3    H2 9124   5.294   1.025   3.310
 3040TIP3   OH2 9125   0.305   0.982   4.175
 3040TIP3    H1 9126   0.380   0.995   4.234
 3040TIP3    H2 9127   0.235   0.949   4.232
 3041TIP3   OH2 9128   0.022   0.779   0.715
 3041TIP3    H1 9129   0.004   0.859   0.665
 3041TIP3    H2 9130   0.107   0.796   0.757
 3042TIP3   OH2 9131   1.106   3.641   2.132
 3042TIP3    H1 9132   1.065   3.625   2.047
 3042TIP3    H2 9133   1.040   3.617   2.196
 3043TIP3   OH2 9134   1.201   0.142   3.508
 3043TIP3    H1 9135   1.119   0.159   3.462
 3043TIP3    H2 9136   1.252   0.222   3.496
 3044TIP3   OH2 9137   2.244   2.865   1.320
 3044TIP3    H1 9138   2.193   2.802   1.370
 3044TIP3    H2 9139   2.335   2.844   1.339
 3045TIP3   OH2 9140   2.340   3.381   4.163
 3045TIP3    H1 9141   2.420   3.433   4.177
 3045TIP3    H2 9142   2.372   3.296   4.131
 3046TIP3   OH2 9143   5.391   1.227   1.214
 3046TIP3    H1 9144   5.457   1.269   1.157
 3046TIP3    H2 9145   5.311   1.226   1.162
 3047TIP3   OH2 9146   3.909   2.069   3.784
 3047TIP3    H1 9147   3.945   2.136   3.842
 3047TIP3    H2 9148   3.873   2.118   3.710
 3048TIP3   OH2 9149   0.802   5.320   1.626
 3048TIP3    H1 9150   0.820   5.236   1.667
 3048TIP3    H2 9151   0.750   5.299   1.549
 3049TIP3   OH2 9152   4.885   5.610   2.071
 3049TIP3    H1 9153   4.895   5.581   2.161
 3049TIP3    H2 9154   4.863   5.703   2.078
 3050TIP3   OH2 9155   0.252   0.704   2.853
 3050TIP3    H1 9156   0.195   0.688   2.778
 3050TIP3    H2 9157   0.334   0.735   2.815
 3051TIP3   OH2 9158   2.967   2.010   3.598
 3051TIP3    H1 9159   3.014   2.048   3.524
 3051TIP3    H2 9160   2.908   1.946   3.558
 3052TIP3   OH2 9161   0.677   5.695   2.252
 3052TIP3    H1 9162   0.639   5.617   2.210
 3052TIP3    H2 9163   0.641   5.769   2.203
 3053TIP3   OH2 9164   4.070   1.253   1.612
 3053TIP3    H1 9165   4.137   1.197   1.652
 3053TIP3    H2 9166   4.021   1.194   1.555
 3054TIP3   OH2 9167   3.501   0.980   3.473
 3054TIP3    H1 9168   3.502   0.920   3.399
 3054TIP3    H2 9169   3.430   1.042   3.454
 3055TIP3   OH2 9170   5.786   1.745   0.619
 3055TIP3    H1 9171   5.785   1.656   0.582
 3055TIP3    H2 9172   5.710   1.788   0.579
 3056TIP3   OH2 9173   2.219   2.578   3.442
 3056TIP3    H1 9174   2.175   2.593   3.525
 3056TIP3    H2 9175   2.271   2.499   3.455
 3057TIP3   OH2 9176   0.871   2.721   3.805
 3057TIP3    H1 9177   0.885   2.654   3.739
 3057TIP3    H2 9178   0.858   2.672   3.887
 3058TIP3   OH2 9179   3.627   0.332   4.808
 3058TIP3    H1 9180   3.619   0.423   4.778
 3058TIP3    H2 9181   3.699   0.296   4.755
 3059TIP3   OH2 9182   4.740   5.072   2.242
 3059TIP3    H1 9183   4.702   5.115   2.319
 3059TIP3    H2 9184   4.829   5.049   2.269
 3060TIP3   OH2 9185   1.966   0.838   2.082
 3060TIP3    H1 9186   1.938   0.749   2.101
 3060TIP3    H2 9187   1.908   0.893   2.135
 3061TIP3   OH2 9188   0.532   1.785   2.055
 3061TIP3    H1 9189   0.525   1.761   2.147
 3061TIP3    H2 9190   0.576   1.710   2.014
 3062TIP3   OH2 9191   6.087   1.990   2.167
 3062TIP3    H1 9192   6.151   1.946   2.223
 3062TIP3    H2 9193   6.003   1.952   2.191
 3063TIP3   OH2 9194   0.780   0.847   2.657
 3063TIP3    H1 9195   0.734   0.931   2.659
 3063TIP3    H2 9196   0.847   0.858   2.589
 3064TIP3   OH2 9197   5.355   1.489   4.966
 3064TIP3    H1 9198   5.260   1.503   4.969
 3064TIP3    H2 9199   5.369   1.438   4.886
 3065TIP3   OH2 9200   6.189   2.042   3.935
 3065TIP3    H1 9201   6.236   2.047   3.853
 3065TIP3    H2 9202   6.103   2.080   3.916
 3066TIP3   OH2 9203   4.938   2.616   4.777
 3066TIP3    H1 9204   4.886   2.675   4.723
 3066TIP3    H2 9205   4.964   2.545   4.717
 3067TIP3   OH2 9206   4.575   2.834   1.713
 3067TIP3    H1 9207   4.587   2.775   1.638
 3067TIP3    H2 9208   4.657   2.881   1.720
 3068TIP3   OH2 9209   2.859   0.861   3.515
 3068TIP3    H1 9210   2.825   0.930   3.458
 3068TIP3    H2 9211   2.830   0.779   3.474
 3069TIP3   OH2 9212   4.508   4.107   0.698
 3069TIP3    H1 9213   4.591   4.076   0.732
 3069TIP3    H2 9214   4.526   4.132   0.607
 3070TIP3   OH2 9215   3.602   4.239   0.570
 3070TIP3    H1 9216   3.519   4.198   0.593
 3070TIP3    H2 9217   3.582   4.332   0.560
 3071TIP3   OH2 9218   4.930   5.394   3.195
 3071TIP3    H1 9219   5.013   5.365   3.231
 3071TIP3    H2 9220   4.948   5.478   3.155
 3072TIP3   OH2 9221   2.996   5.881   0.583
 3072TIP3    H1 9222   3.026   5.962   0.623
 3072TIP3    H2 9223   2.911   5.864   0.623
 3073TIP3   OH2 9224   4.500   0.907   0.414
 3073TIP3    H1 9225   4.441   0.904   0.489
 3073TIP3    H2 9226   4.578   0.953   0.446
 3074TIP3   OH2 9227   5.460   5.499   1.816
 3074TIP3    H1 9228   5.460   5.431   1.884
 3074TIP3    H2 9229   5.455   5.581   1.864
 3075TIP3   OH2 9230   2.383   2.939   0.107
 3075TIP3    H1 9231   2.381   3.032   0.132
 3075TIP3    H2 9232   2.473   2.925   0.077
 3076TIP3   OH2 9233   5.087   2.391   0.225
 3076TIP3    H1 9234   5.132   2.309   0.243
 3076TIP3    H2 9235   5.085   2.437   0.310
 3077TIP3   OH2 9236   3.979   3.803   2.895
 3077TIP3    H1 9237   4.035   3.727   2.879
 3077TIP3    H2 9238   3.904   3.790   2.836
 3078TIP3   OH2 9239   1.751   5.791   1.332
 3078TIP3    H1 9240   1.701   5.736   1.392
 3078TIP3    H2 9241   1.841   5.759   1.339
 3079TIP3   OH2 9242   3.188   1.795   1.210
 3079TIP3    H1 9243   3.172   1.795   1.115
 3079TIP3    H2 9244   3.108   1.831   1.247
 3080TIP3   OH2 9245   3.253   4.168   3.689
 3080TIP3    H1 9246   3.248   4.153   3.783
 3080TIP3    H2 9247   3.342   4.199   3.675
 3081TIP3   OH2 9248   2.978   0.868   3.173
 3081TIP3    H1 9249   2.972   0.874   3.078
 3081TIP3    H2 9250   2.917   0.934   3.206
 3082TIP3   OH2 9251   5.628   2.932   3.996
 3082TIP3    H1 9252   5.630   2.914   3.902
 3082TIP3    H2 9253   5.656   2.851   4.037
 3083TIP3   OH2 9254   1.481   3.429   3.648
 3083TIP3    H1 9255   1.483   3.494   3.718
 3083TIP3    H2 9256   1.444   3.475   3.573
 3084TIP3   OH2 9257   5.714   0.528   1.828
 3084TIP3    H1 9258   5.713   0.434   1.848
 3084TIP3    H2 9259   5.723   0.571   1.913
 3085TIP3   OH2 9260   5.986   5.471   0.722
 3085TIP3    H1 9261   5.935   5.552   0.717
 3085TIP3    H2 9262   6.029   5.475   0.807
 3086TIP3   OH2 9263   0.844   5.196   2.608
 3086TIP3    H1 9264   0.753   5.168   2.605
 3086TIP3    H2 9265   0.894   5.119   2.582
 3087TIP3   OH2 9266   1.569   5.648   3.171
 3087TIP3    H1 9267   1.503   5.594   3.214
 3087TIP3    H2 9268   1.523   5.728   3.146
 3088TIP3   OH2 9269   5.528   5.647   3.099
 3088TIP3    H1 9270   5.508   5.642   3.193
 3088TIP3    H2 9271   5.552   5.558   3.075
 3089TIP3   OH2 9272   3.719   2.119   2.294
 3089TIP3    H1 9273   3.666   2.051   2.253
 3089TIP3    H2 9274   3.667   2.199   2.286
 3090TIP3   OH2 9275   5.608   1.877   4.728
 3090TIP3    H1 9276   5.687   1.826   4.743
 3090TIP3    H2 9277   5.537   1.825   4.766
 3091TIP3   OH2 9278   4.551   2.224   3.961
 3091TIP3    H1 9279   4.529   2.182   3.877
 3091TIP3    H2 9280   4.467   2.248   3.999
 3092TIP3   OH2 9281   6.017   5.554   4.452
 3092TIP3    H1 9282   6.112   5.546   4.461
 3092TIP3    H2 9283   5.995   5.497   4.377
 3093TIP3   OH2 9284   4.367   5.407   2.529
 3093TIP3    H1 9285   4.410   5.472   2.584
 3093TIP3    H2 9286   4.381   5.438   2.440
 3094TIP3   OH2 9287   2.606   4.984   5.103
 3094TIP3    H1 9288   2.688   4.947   5.071
 3094TIP3    H2 9289   2.595   4.946   5.190
 3095TIP3   OH2 9290   4.376   0.824   4.911
 3095TIP3    H1 9291   4.383   0.912   4.876
 3095TIP3    H2 9292   4.464   0.787   4.903
 3096TIP3   OH2 9293   0.515   5.271   2.840
 3096TIP3    H1 9294   0.499   5.365   2.832
 3096TIP3    H2 9295   0.446   5.240   2.899
 3097TIP3   OH2 9296   0.023   1.803   3.932
 3097TIP3    H1 9297   0.115   1.827   3.922
 3097TIP3    H2 9298  -0.023   1.886   3.943
 3098TIP3   OH2 9299   4.814   5.417   2.566
 3098TIP3    H1 9300   4.779   5.420   2.655
 3098TIP3    H2 9301   4.778   5.337   2.528
 3099TIP3   OH2 9302   1.984   4.523   3.916
 3099TIP3    H1 9303   2.025   4.526   3.830
 3099TIP3    H2 9304   1.956   4.432   3.926
 3100TIP3   OH2 9305   4.241   2.746   0.707
 3100TIP3    H1 9306   4.195   2.815   0.659
 3100TIP3    H2 9307   4.239   2.671   0.648
 3101TIP3   OH2 9308   0.254   0.499   1.455
 3101TIP3    H1 9309   0.268   0.434   1.385
 3101TIP3    H2 9310   0.189   0.458   1.512
 3102TIP3   OH2 9311   1.496   0.862   0.686
 3102TIP3    H1 9312   1.509   0.787   0.628
 3102TIP3    H2 9313   1.513   0.939   0.632
 3103TIP3   OH2 9314   1.501   3.266   1.070
 3103TIP3    H1 9315   1.520   3.213   1.148
 3103TIP3    H2 9316   1.409   3.290   1.079
 3104TIP3   OH2 9317   5.186   3.124   4.879
 3104TIP3    H1 9318   5.220   3.136   4.790
 3104TIP3    H2 9319   5.092   3.108   4.866
 3105TIP3   OH2 9320   2.778   4.121   0.114
 3105TIP3    H1 9321   2.813   4.039   0.078
 3105TIP3    H2 9322   2.746   4.097   0.201
 3106TIP3   OH2 9323   5.768   3.455   4.584
 3106TIP3    H1 9324   5.680   3.481   4.557
 3106TIP3    H2 9325   5.757   3.365   4.617
 3107TIP3   OH2 9326   1.656   0.276   2.665
 3107TIP3    H1 9327   1.634   0.370   2.671
 3107TIP3    H2 9328   1.608   0.246   2.587
 3108TIP3   OH2 9329   0.453   3.866   2.030
 3108TIP3    H1 9330   0.388   3.798   2.015
 3108TIP3    H2 9331   0.536   3.824   2.007
 3109TIP3   OH2 9332   1.615   5.569   1.473
 3109TIP3    H1 9333   1.615   5.564   1.568
 3109TIP3    H2 9334   1.536   5.619   1.451
 3110TIP3   OH2 9335   6.294   5.337   2.355
 3110TIP3    H1 9336   6.305   5.243   2.342
 3110TIP3    H2 9337   6.206   5.355   2.324
 3111TIP3   OH2 9338   4.826   0.655   3.392
 3111TIP3    H1 9339   4.872   0.732   3.425
 3111TIP3    H2 9340   4.860   0.643   3.303
 3112TIP3   OH2 9341   2.380   2.024   1.177
 3112TIP3    H1 9342   2.310   2.088   1.167
 3112TIP3    H2 9343   2.460   2.077   1.186
 3113TIP3   OH2 9344   6.192   1.161   2.852
 3113TIP3    H1 9345   6.237   1.130   2.931
 3113TIP3    H2 9346   6.127   1.092   2.834
 3114TIP3   OH2 9347   0.098   5.452   4.704
 3114TIP3    H1 9348   0.145   5.517   4.754
 3114TIP3    H2 9349   0.166   5.403   4.658
 3115TIP3   OH2 9350   0.987   2.960   4.379
 3115TIP3    H1 9351   1.058   2.970   4.443
 3115TIP3    H2 9352   1.009   3.023   4.310
 3116TIP3   OH2 9353   4.044   5.736   0.683
 3116TIP3    H1 9354   3.982   5.722   0.612
 3116TIP3    H2 9355   3.996   5.714   0.762
 3117TIP3   OH2 9356   5.426   1.472   0.809
 3117TIP3    H1 9357   5.352   1.523   0.778
 3117TIP3    H2 9358   5.501   1.532   0.802
 3118TIP3   OH2 9359   4.669   4.513   0.924
 3118TIP3    H1 9360   4.574   4.505   0.911
 3118TIP3    H2 9361   4.700   4.553   0.843
 3119TIP3   OH2 9362   1.969   3.705   1.315
 3119TIP3    H1 9363   1.891   3.746   1.277
 3119TIP3    H2 9364   1.993   3.762   1.389
 3120TIP3   OH2 9365   4.973   2.441   0.528
 3120TIP3    H1 9366   5.059   2.482   0.538
 3120TIP3    H2 9367   4.988   2.349   0.548
 3121TIP3   OH2 9368   3.891   4.775   1.685
 3121TIP3    H1 9369   3.923   4.785   1.774
 3121TIP3    H2 9370   3.873   4.864   1.655
 3122TIP3   OH2 9371   3.608   3.123   2.282
 3122TIP3    H1 9372   3.672   3.189   2.310
 3122TIP3    H2 9373   3.550   3.170   2.222
 3123TIP3   OH2 9374   0.510   2.279   1.480
 3123TIP3    H1 9375   0.533   2.246   1.567
 3123TIP3    H2 9376   0.500   2.373   1.493
 3124TIP3   OH2 9377   6.343   1.496   2.925
 3124TIP3    H1 9378   6.255   1.462   2.943
 3124TIP3    H2 9379   6.330   1.589   2.908
 3125TIP3   OH2 9380   5.275   3.459   2.340
 3125TIP3    H1 9381   5.204   3.486   2.398
 3125TIP3    H2 9382   5.260   3.506   2.259
 3126TIP3   OH2 9383   4.932   1.697   1.938
 3126TIP3    H1 9384   5.026   1.710   1.940
 3126TIP3    H2 9385   4.909   1.704   1.845
 3127TIP3   OH2 9386   5.295   4.098   2.280
 3127TIP3    H1 9387   5.340   4.136   2.204
 3127TIP3    H2 9388   5.246   4.024   2.244
 3128TIP3   OH2 9389   0.412   5.062   1.537
 3128TIP3    H1 9390   0.327   5.017   1.533
 3128TIP3    H2 9391   0.474   4.999   1.500
 3129TIP3   OH2 9392   2.245   0.257   0.345
 3129TIP3    H1 9393   2.240   0.203   0.424
 3129TIP3    H2 9394   2.213   0.343   0.372
 3130TIP3   OH2 9395   5.720   4.855   2.105
 3130TIP3    H1 9396   5.744   4.814   2.021
 3130TIP3    H2 9397   5.625   4.867   2.099
 3131TIP3   OH2 9398   1.669   0.933   4.931
 3131TIP3    H1 9399   1.574   0.931   4.934
 3131TIP3    H2 9400   1.696   0.955   5.020
 3132TIP3   OH2 9401   4.708   4.893   3.960
 3132TIP3    H1 9402   4.687   4.982   3.990
 3132TIP3    H2 9403   4.691   4.896   3.866
 3133TIP3   OH2 9404   1.249   2.480   4.961
 3133TIP3    H1 9405   1.332   2.435   4.980
 3133TIP3    H2 9406   1.267   2.572   4.982
 3134TIP3   OH2 9407   3.979   2.229   2.282
 3134TIP3    H1 9408   3.958   2.290   2.212
 3134TIP3    H2 9409   3.898   2.179   2.295
 3135TIP3   OH2 9410   0.213   1.795   2.331
 3135TIP3    H1 9411   0.211   1.809   2.237
 3135TIP3    H2 9412   0.207   1.700   2.342
 3136TIP3   OH2 9413   4.276   4.948   0.702
 3136TIP3    H1 9414   4.264   5.000   0.782
 3136TIP3    H2 9415   4.254   5.008   0.631
 3137TIP3   OH2 9416   1.782   3.283   3.384
 3137TIP3    H1 9417   1.826   3.368   3.382
 3137TIP3    H2 9418   1.690   3.305   3.396
 3138TIP3   OH2 9419   2.165   1.405   4.979
 3138TIP3    H1 9420   2.202   1.483   5.021
 3138TIP3    H2 9421   2.239   1.345   4.970
 3139TIP3   OH2 9422   4.951   4.548   0.930
 3139TIP3    H1 9423   4.862   4.560   0.898
 3139TIP3    H2 9424   5.004   4.537   0.852
 3140TIP3   OH2 9425   3.764   3.222   5.202
 3140TIP3    H1 9426   3.798   3.154   5.144
 3140TIP3    H2 9427   3.718   3.282   5.144
 3141TIP3   OH2 9428   0.979   2.343   2.810
 3141TIP3    H1 9429   1.033   2.328   2.733
 3141TIP3    H2 9430   0.962   2.256   2.845
 3142TIP3   OH2 9431   1.047   0.360   3.382
 3142TIP3    H1 9432   0.996   0.400   3.312
 3142TIP3    H2 9433   1.138   0.373   3.356
 3143TIP3   OH2 9434   5.180   2.203   2.314
 3143TIP3    H1 9435   5.249   2.137   2.326
 3143TIP3    H2 9436   5.098   2.153   2.317
 3144TIP3   OH2 9437   0.105   3.748   4.150
 3144TIP3    H1 9438   0.055   3.786   4.222
 3144TIP3    H2 9439   0.190   3.793   4.153
 3145TIP3   OH2 9440   1.257   4.983   3.097
 3145TIP3    H1 9441   1.263   4.888   3.108
 3145TIP3    H2 9442   1.280   5.019   3.182
 3146TIP3   OH2 9443   5.866   6.004   0.348
 3146TIP3    H1 9444   5.834   5.979   0.261
 3146TIP3    H2 9445   5.926   5.933   0.373
 3147TIP3   OH2 9446   1.977   5.159   4.128
 3147TIP3    H1 9447   2.071   5.142   4.121
 3147TIP3    H2 9448   1.959   5.220   4.057
 3148TIP3   OH2 9449   2.797   1.492   0.842
 3148TIP3    H1 9450   2.787   1.518   0.751
 3148TIP3    H2 9451   2.804   1.575   0.890
 3149TIP3   OH2 9452   6.104   1.698   1.340
 3149TIP3    H1 9453   6.187   1.737   1.312
 3149TIP3    H2 9454   6.078   1.750   1.417
 3150TIP3   OH2 9455   1.484   4.183   1.474
 3150TIP3    H1 9456   1.482   4.087   1.469
 3150TIP3    H2 9457   1.566   4.203   1.520
 3151TIP3   OH2 9458   2.224   1.368   4.399
 3151TIP3    H1 9459   2.256   1.451   4.365
 3151TIP3    H2 9460   2.243   1.305   4.330
 3152TIP3   OH2 9461   5.620   4.547   1.720
 3152TIP3    H1 9462   5.534   4.529   1.680
 3152TIP3    H2 9463   5.663   4.606   1.659
 3153TIP3   OH2 9464   5.837   5.121   3.105
 3153TIP3    H1 9465   5.889   5.045   3.078
 3153TIP3    H2 9466   5.840   5.119   3.200
 3154TIP3   OH2 9467   0.271   2.641   4.236
 3154TIP3    H1 9468   0.244   2.719   4.186
 3154TIP3    H2 9469   0.366   2.647   4.241
 3155TIP3   OH2 9470   4.297   3.033   2.792
 3155TIP3    H1 9471   4.240   2.995   2.859
 3155TIP3    H2 9472   4.349   3.099   2.838
 3156TIP3   OH2 9473   5.279   2.262   1.644
 3156TIP3    H1 9474   5.281   2.166   1.646
 3156TIP3    H2 9475   5.235   2.283   1.562
 3157TIP3   OH2 9476   2.769   0.332   4.484
 3157TIP3    H1 9477   2.688   0.382   4.479
 3157TIP3    H2 9478   2.808   0.338   4.397
 3158TIP3   OH2 9479   2.366   1.217   1.068
 3158TIP3    H1 9480   2.362   1.312   1.059
 3158TIP3    H2 9481   2.313   1.184   0.996
 3159TIP3   OH2 9482   0.515   2.632   4.352
 3159TIP3    H1 9483   0.544   2.542   4.366
 3159TIP3    H2 9484   0.592   2.678   4.318
 3160TIP3   OH2 9485   4.528   4.411   0.181
 3160TIP3    H1 9486   4.437   4.409   0.212
 3160TIP3    H2 9487   4.521   4.440   0.090
 3161TIP3   OH2 9488   5.038   3.796   4.021
 3161TIP3    H1 9489   5.051   3.755   3.936
 3161TIP3    H2 9490   5.049   3.724   4.084
 3162TIP3   OH2 9491   4.776   1.554   3.128
 3162TIP3    H1 9492   4.840   1.566   3.057
 3162TIP3    H2 9493   4.691   1.556   3.084
 3163TIP3   OH2 9494   4.672   0.905   2.534
 3163TIP3    H1 9495   4.752   0.894   2.584
 3163TIP3    H2 9496   4.657   1.000   2.532
 3164TIP3   OH2 9497   4.773   1.517   3.417
 3164TIP3    H1 9498   4.683   1.484   3.416
 3164TIP3    H2 9499   4.799   1.517   3.324
 3165TIP3   OH2 9500   1.907   0.144   2.125
 3165TIP3    H1 9501   1.840   0.211   2.114
 3165TIP3    H2 9502   1.959   0.148   2.044
 3166TIP3   OH2 9503   0.128   3.098   0.905
 3166TIP3    H1 9504   0.186   3.162   0.864
 3166TIP3    H2 9505   0.101   3.041   0.833
 3167TIP3   OH2 9506   4.086   1.829   2.965
 3167TIP3    H1 9507   4.015   1.847   3.026
 3167TIP3    H2 9508   4.129   1.752   3.000
 3168TIP3   OH2 9509   0.795   4.777   4.882
 3168TIP3    H1 9510   0.856   4.710   4.850
 3168TIP3    H2 9511   0.718   4.768   4.826
 3169TIP3   OH2 9512   0.115   5.887   2.885
 3169TIP3    H1 9513   0.038   5.883   2.828
 3169TIP3    H2 9514   0.092   5.835   2.962
 3170TIP3   OH2 9515   4.415   5.378   3.559
 3170TIP3    H1 9516   4.475   5.423   3.619
 3170TIP3    H2 9517   4.426   5.285   3.581
 3171TIP3   OH2 9518   0.732   5.343   3.167
 3171TIP3    H1 9519   0.823   5.348   3.197
 3171TIP3    H2 9520   0.694   5.428   3.191
 3172TIP3   OH2 9521   4.233   0.870   2.673
 3172TIP3    H1 9522   4.199   0.782   2.689
 3172TIP3    H2 9523   4.310   0.877   2.729
 3173TIP3   OH2 9524   2.525   5.187   4.917
 3173TIP3    H1 9525   2.534   5.128   4.992
 3173TIP3    H2 9526   2.612   5.227   4.907
 3174TIP3   OH2 9527   0.003   0.275   2.977
 3174TIP3    H1 9528   0.081   0.301   2.926
 3174TIP3    H2 9529  -0.060   0.345   2.961
 3175TIP3   OH2 9530   2.745   4.575   0.320
 3175TIP3    H1 9531   2.758   4.493   0.272
 3175TIP3    H2 9532   2.686   4.551   0.391
 3176TIP3   OH2 9533   5.075   1.569   3.155
 3176TIP3    H1 9534   5.045   1.644   3.103
 3176TIP3    H2 9535   5.076   1.601   3.245
 3177TIP3   OH2 9536   1.750   4.414   0.370
 3177TIP3    H1 9537   1.756   4.472   0.446
 3177TIP3    H2 9538   1.808   4.454   0.305
 3178TIP3   OH2 9539   0.873   0.610   3.742
 3178TIP3    H1 9540   0.929   0.662   3.798
 3178TIP3    H2 9541   0.933   0.555   3.691
 3179TIP3   OH2 9542   0.554   0.943   0.431
 3179TIP3    H1 9543   0.491   0.976   0.495
 3179TIP3    H2 9544   0.508   0.871   0.387
 3180TIP3   OH2 9545   5.052   4.139   1.198
 3180TIP3    H1 9546   5.069   4.233   1.194
 3180TIP3    H2 9547   5.094   4.111   1.279
 3181TIP3   OH2 9548   0.990   1.162   0.614
 3181TIP3    H1 9549   1.036   1.088   0.575
 3181TIP3    H2 9550   1.056   1.232   0.616
 3182TIP3   OH2 9551   1.686   4.024   4.171
 3182TIP3    H1 9552   1.645   4.084   4.109
 3182TIP3    H2 9553   1.648   3.938   4.151
 3183TIP3   OH2 9554   0.433   3.473   1.548
 3183TIP3    H1 9555   0.476   3.390   1.531
 3183TIP3    H2 9556   0.369   3.483   1.477
 3184TIP3   OH2 9557   2.753   2.625   0.934
 3184TIP3    H1 9558   2.846   2.647   0.927
 3184TIP3    H2 9559   2.750   2.554   0.999
 3185TIP3   OH2 9560   2.021   0.053   4.724
 3185TIP3    H1 9561   1.972   0.009   4.793
 3185TIP3    H2 9562   2.026  -0.012   4.653
 3186TIP3   OH2 9563   0.210   5.227   0.656
 3186TIP3    H1 9564   0.246   5.193   0.574
 3186TIP3    H2 9565   0.262   5.306   0.674
 3187TIP3   OH2 9566   5.776   5.731   4.886
 3187TIP3    H1 9567   5.840   5.671   4.846
 3187TIP3    H2 9568   5.827   5.810   4.905
 3188TIP3   OH2 9569   5.939   3.609   0.515
 3188TIP3    H1 9570   5.844   3.602   0.522
 3188TIP3    H2 9571   5.968   3.522   0.490
 3189TIP3   OH2 9572   0.869   1.720   0.112
 3189TIP3    H1 9573   0.860   1.638   0.063
 3189TIP3    H2 9574   0.825   1.703   0.196
 3190TIP3   OH2 9575   5.088   0.332   3.899
 3190TIP3    H1 9576   5.003   0.324   3.940
 3190TIP3    H2 9577   5.151   0.308   3.967
 3191TIP3   OH2 9578   0.048   0.428   0.321
 3191TIP3    H1 9579  -0.015   0.357   0.306
 3191TIP3    H2 9580   0.009   0.477   0.394
 3192TIP3   OH2 9581   5.031   0.572   3.742
 3192TIP3    H1 9582   5.079   0.512   3.798
 3192TIP3    H2 9583   4.978   0.623   3.802
 3193TIP3   OH2 9584   3.163   2.471   5.052
 3193TIP3    H1 9585   3.170   2.503   5.142
 3193TIP3    H2 9586   3.175   2.377   5.059
 3194TIP3   OH2 9587   1.789   1.022   3.873
 3194TIP3    H1 9588   1.802   1.112   3.901
 3194TIP3    H2 9589   1.724   1.027   3.803
 3195TIP3   OH2 9590   1.735   4.875   2.012
 3195TIP3    H1 9591   1.663   4.830   2.055
 3195TIP3    H2 9592   1.707   4.966   2.005
 3196TIP3   OH2 9593   4.605   4.439   4.726
 3196TIP3    H1 9594   4.611   4.467   4.817
 3196TIP3    H2 9595   4.671   4.370   4.718
 3197TIP3   OH2 9596   0.816   2.374   0.140
 3197TIP3    H1 9597   0.900   2.330   0.155
 3197TIP3    H2 9598   0.765   2.310   0.089
 3198TIP3   OH2 9599   1.235   2.396   1.648
 3198TIP3    H1 9600   1.288   2.382   1.570
 3198TIP3    H2 9601   1.150   2.423   1.615
 3199TIP3   OH2 9602   4.743   4.836   3.308
 3199TIP3    H1 9603   4.811   4.785   3.264
 3199TIP3    H2 9604   4.783   4.923   3.319
 3200TIP3   OH2 9605   3.492   2.697   3.003
 3200TIP3    H1 9606   3.515   2.742   2.922
 3200TIP3    H2 9607   3.441   2.761   3.052
 3201TIP3   OH2 9608   0.109   2.047   3.475
 3201TIP3    H1 9609   0.161   1.984   3.425
 3201TIP3    H2 9610   0.067   2.101   3.408
 3202TIP3   OH2 9611   4.856   5.498   1.261
 3202TIP3    H1 9612   4.876   5.451   1.342
 3202TIP3    H2 9613   4.890   5.586   1.276
 3203TIP3   OH2 9614   4.266   5.680   1.515
 3203TIP3    H1 9615   4.236   5.645   1.431
 3203TIP3    H2 9616   4.241   5.614   1.579
 3204TIP3   OH2 9617   4.204   1.397   3.831
 3204TIP3    H1 9618   4.251   1.320   3.862
 3204TIP3    H2 9619   4.209   1.459   3.904
 3205TIP3   OH2 9620   0.054   2.463   4.775
 3205TIP3    H1 9621   0.144   2.486   4.800
 3205TIP3    H2 9622  -0.001   2.518   4.831
 3206TIP3   OH2 9623   5.212   4.693   2.758
 3206TIP3    H1 9624   5.301   4.664   2.736
 3206TIP3    H2 9625   5.194   4.652   2.842
 3207TIP3   OH2 9626   3.055   4.116   2.402
 3207TIP3    H1 9627   3.088   4.158   2.481
 3207TIP3    H2 9628   2.990   4.176   2.368
 3208TIP3   OH2 9629   4.172   5.489   0.529
 3208TIP3    H1 9630   4.110   5.498   0.457
 3208TIP3    H2 9631   4.155   5.565   0.585
 3209TIP3   OH2 9632   4.446   4.472   2.821
 3209TIP3    H1 9633   4.509   4.521   2.874
 3209TIP3    H2 9634   4.484   4.471   2.733
 3210TIP3   OH2 9635   5.627   1.702   1.094
 3210TIP3    H1 9636   5.611   1.780   1.146
 3210TIP3    H2 9637   5.718   1.678   1.112
 3211TIP3   OH2 9638   3.399   2.242   4.841
 3211TIP3    H1 9639   3.364   2.320   4.798
 3211TIP3    H2 9640   3.494   2.249   4.831
 3212TIP3   OH2 9641   1.195   1.367   0.622
 3212TIP3    H1 9642   1.277   1.325   0.596
 3212TIP3    H2 9643   1.211   1.401   0.709
 3213TIP3   OH2 9644   4.261   1.627   0.504
 3213TIP3    H1 9645   4.232   1.696   0.446
 3213TIP3    H2 9646   4.228   1.546   0.465
 3214TIP3   OH2 9647   1.454   4.833   0.425
 3214TIP3    H1 9648   1.368   4.821   0.464
 3214TIP3    H2 9649   1.491   4.745   0.420
 3215TIP3   OH2 9650   2.173   1.298   4.022
 3215TIP3    H1 9651   2.136   1.226   3.971
 3215TIP3    H2 9652   2.098   1.352   4.046
 3216TIP3   OH2 9653   0.396   1.720   4.840
 3216TIP3    H1 9654   0.365   1.636   4.875
 3216TIP3    H2 9655   0.465   1.696   4.779
 3217TIP3   OH2 9656   0.117   1.666   3.415
 3217TIP3    H1 9657   0.126   1.664   3.319
 3217TIP3    H2 9658   0.023   1.680   3.429
 3218TIP3   OH2 9659   3.152   5.593   1.113
 3218TIP3    H1 9660   3.122   5.641   1.036
 3218TIP3    H2 9661   3.207   5.655   1.161
 3219TIP3   OH2 9662   1.312   1.893   4.202
 3219TIP3    H1 9663   1.375   1.905   4.273
 3219TIP3    H2 9664   1.363   1.852   4.131
 3220TIP3   OH2 9665   5.300   2.049   2.635
 3220TIP3    H1 9666   5.334   1.972   2.682
 3220TIP3    H2 9667   5.326   2.034   2.544
 3221TIP3   OH2 9668   5.470   5.271   5.033
 3221TIP3    H1 9669   5.499   5.216   4.960
 3221TIP3    H2 9670   5.457   5.357   4.995
 3222TIP3   OH2 9671   3.957   5.534   1.499
 3222TIP3    H1 9672   3.888   5.467   1.501
 3222TIP3    H2 9673   3.909   5.617   1.499
 3223TIP3   OH2 9674   5.826   5.985   2.468
 3223TIP3    H1 9675   5.799   5.948   2.384
 3223TIP3    H2 9676   5.820   6.080   2.455
 3224TIP3   OH2 9677   3.092   5.598   4.876
 3224TIP3    H1 9678   3.137   5.679   4.901
 3224TIP3    H2 9679   3.016   5.594   4.933
 3225TIP3   OH2 9680   4.049   4.460   2.676
 3225TIP3    H1 9681   4.093   4.514   2.742
 3225TIP3    H2 9682   4.116   4.443   2.611
 3226TIP3   OH2 9683   4.465   5.617   1.782
 3226TIP3    H1 9684   4.446   5.555   1.852
 3226TIP3    H2 9685   4.438   5.702   1.817
 3227TIP3   OH2 9686   3.015   4.217   0.591
 3227TIP3    H1 9687   3.086   4.280   0.599
 3227TIP3    H2 9688   2.936   4.270   0.589
 3228TIP3   OH2 9689   1.957   4.479   2.719
 3228TIP3    H1 9690   1.898   4.445   2.652
 3228TIP3    H2 9691   1.908   4.473   2.801
 3229TIP3   OH2 9692   1.345   0.385   3.626
 3229TIP3    H1 9693   1.405   0.436   3.571
 3229TIP3    H2 9694   1.400   0.318   3.667
 3230TIP3   OH2 9695   1.722   4.332   0.789
 3230TIP3    H1 9696   1.655   4.400   0.786
 3230TIP3    H2 9697   1.797   4.371   0.744
 3231TIP3   OH2 9698   1.879   2.819   2.432
 3231TIP3    H1 9699   1.816   2.749   2.450
 3231TIP3    H2 9700   1.960   2.791   2.475
 3232TIP3   OH2 9701   0.331   5.320   1.510
 3232TIP3    H1 9702   0.371   5.236   1.490
 3232TIP3    H2 9703   0.405   5.377   1.531
 3233TIP3   OH2 9704   1.327   5.587   0.219
 3233TIP3    H1 9705   1.301   5.505   0.177
 3233TIP3    H2 9706   1.300   5.655   0.157
 3234TIP3   OH2 9707   0.844   4.838   1.306
 3234TIP3    H1 9708   0.910   4.850   1.374
 3234TIP3    H2 9709   0.849   4.746   1.283
 3235TIP3   OH2 9710   5.684   2.935   5.050
 3235TIP3    H1 9711   5.741   2.986   5.107
 3235TIP3    H2 9712   5.612   2.907   5.107
 3236TIP3   OH2 9713   2.248   2.264   2.522
 3236TIP3    H1 9714   2.248   2.223   2.436
 3236TIP3    H2 9715   2.219   2.195   2.582
 3237TIP3   OH2 9716   0.460   5.162   0.165
 3237TIP3    H1 9717   0.534   5.136   0.110
 3237TIP3    H2 9718   0.471   5.256   0.178
 3238TIP3   OH2 9719   4.365   3.162   0.639
 3238TIP3    H1 9720   4.359   3.121   0.726
 3238TIP3    H2 9721   4.274   3.178   0.614
 3239TIP3   OH2 9722   4.067   5.776   4.631
 3239TIP3    H1 9723   4.104   5.746   4.714
 3239TIP3    H2 9724   4.120   5.852   4.608
 3240TIP3   OH2 9725   1.602   3.065   2.505
 3240TIP3    H1 9726   1.570   2.980   2.534
 3240TIP3    H2 9727   1.643   3.048   2.421
 3241TIP3   OH2 9728   2.307   1.415   1.744
 3241TIP3    H1 9729   2.220   1.453   1.731
 3241TIP3    H2 9730   2.326   1.431   1.837
 3242TIP3   OH2 9731   4.960   4.381   3.938
 3242TIP3    H1 9732   4.871   4.413   3.925
 3242TIP3    H2 9733   4.954   4.287   3.920
 3243TIP3   OH2 9734   0.004   5.292   3.177
 3243TIP3    H1 9735  -0.053   5.281   3.101
 3243TIP3    H2 9736   0.091   5.304   3.139
 3244TIP3   OH2 9737   1.642   4.859   2.408
 3244TIP3    H1 9738   1.678   4.948   2.413
 3244TIP3    H2 9739   1.581   4.854   2.481
 3245TIP3   OH2 9740   3.389   2.961   1.523
 3245TIP3    H1 9741   3.345   2.936   1.442
 3245TIP3    H2 9742   3.482   2.958   1.501
 3246TIP3   OH2 9743   2.839   2.182   3.128
 3246TIP3    H1 9744   2.876   2.163   3.214
 3246TIP3    H2 9745   2.768   2.118   3.117
 3247TIP3   OH2 9746   0.597   1.546   0.572
 3247TIP3    H1 9747   0.667   1.602   0.537
 3247TIP3    H2 9748   0.605   1.464   0.523
 3248TIP3   OH2 9749   6.238   5.190   4.106
 3248TIP3    H1 9750   6.297   5.117   4.086
 3248TIP3    H2 9751   6.284   5.268   4.076
 3249TIP3   OH2 9752   3.904   2.281   1.785
 3249TIP3    H1 9753   3.914   2.256   1.693
 3249TIP3    H2 9754   3.811   2.303   1.794
 3250TIP3   OH2 9755   4.747   2.255   3.770
 3250TIP3    H1 9756   4.824   2.234   3.823
 3250TIP3    H2 9757   4.682   2.287   3.832
 3251TIP3   OH2 9758   0.210   3.490   4.140
 3251TIP3    H1 9759   0.167   3.575   4.150
 3251TIP3    H2 9760   0.301   3.507   4.167
 3252TIP3   OH2 9761   3.136   1.285   4.375
 3252TIP3    H1 9762   3.177   1.352   4.321
 3252TIP3    H2 9763   3.043   1.290   4.354
 3253TIP3   OH2 9764   3.357   4.980   4.458
 3253TIP3    H1 9765   3.336   4.957   4.548
 3253TIP3    H2 9766   3.299   5.054   4.438
 3254TIP3   OH2 9767   3.689   4.296   4.071
 3254TIP3    H1 9768   3.768   4.320   4.120
 3254TIP3    H2 9769   3.694   4.200   4.064
 3255TIP3   OH2 9770   4.641   1.082   1.249
 3255TIP3    H1 9771   4.725   1.063   1.207
 3255TIP3    H2 9772   4.660   1.149   1.314
 3256TIP3   OH2 9773   3.817   1.288   0.220
 3256TIP3    H1 9774   3.855   1.369   0.256
 3256TIP3    H2 9775   3.870   1.218   0.258
 3257TIP3   OH2 9776   1.935   1.342   4.450
 3257TIP3    H1 9777   1.851   1.302   4.473
 3257TIP3    H2 9778   1.914   1.403   4.380
 3258TIP3   OH2 9779   2.377   0.658   1.419
 3258TIP3    H1 9780   2.457   0.621   1.458
 3258TIP3    H2 9781   2.368   0.744   1.459
 3259TIP3   OH2 9782   2.709   0.339   4.850
 3259TIP3    H1 9783   2.728   0.377   4.936
 3259TIP3    H2 9784   2.726   0.410   4.789
 3260TIP3   OH2 9785   2.760   2.943   0.520
 3260TIP3    H1 9786   2.668   2.960   0.535
 3260TIP3    H2 9787   2.765   2.848   0.505
 3261TIP3   OH2 9788   1.085   3.044   0.982
 3261TIP3    H1 9789   1.156   3.016   1.040
 3261TIP3    H2 9790   1.021   2.973   0.987
 3262TIP3   OH2 9791   2.157   2.566   4.050
 3262TIP3    H1 9792   2.235   2.512   4.067
 3262TIP3    H2 9793   2.131   2.598   4.137
 3263TIP3   OH2 9794   3.096   2.120   4.918
 3263TIP3    H1 9795   3.085   2.065   4.996
 3263TIP3    H2 9796   3.171   2.175   4.939
 3264TIP3   OH2 9797   2.087   5.393   0.924
 3264TIP3    H1 9798   2.026   5.441   0.980
 3264TIP3    H2 9799   2.146   5.350   0.985
 3265TIP3   OH2 9800   4.432   5.742   2.074
 3265TIP3    H1 9801   4.345   5.705   2.061
 3265TIP3    H2 9802   4.488   5.665   2.089
 3266TIP3   OH2 9803   1.706   3.129   3.092
 3266TIP3    H1 9804   1.748   3.137   3.007
 3266TIP3    H2 9805   1.748   3.196   3.146
 3267TIP3   OH2 9806   3.187   2.820   2.103
 3267TIP3    H1 9807   3.273   2.794   2.137
 3267TIP3    H2 9808   3.128   2.752   2.135
 3268TIP3   OH2 9809   2.153   4.276   1.383
 3268TIP3    H1 9810   2.226   4.321   1.426
 3268TIP3    H2 9811   2.153   4.311   1.294
 3269TIP3   OH2 9812   6.000   2.259   4.631
 3269TIP3    H1 9813   5.943   2.261   4.554
 3269TIP3    H2 9814   6.089   2.258   4.594
 3270TIP3   OH2 9815   4.627   0.706   4.835
 3270TIP3    H1 9816   4.685   0.710   4.911
 3270TIP3    H2 9817   4.648   0.785   4.785
 3271TIP3   OH2 9818   4.593   1.893   4.942
 3271TIP3    H1 9819   4.601   1.870   5.035
 3271TIP3    H2 9820   4.537   1.824   4.906
 3272TIP3   OH2 9821   2.273   0.122   3.516
 3272TIP3    H1 9822   2.263   0.184   3.444
 3272TIP3    H2 9823   2.187   0.119   3.558
 3273TIP3   OH2 9824   0.558   5.918   4.567
 3273TIP3    H1 9825   0.556   5.825   4.545
 3273TIP3    H2 9826   0.525   5.962   4.489
 3274TIP3   OH2 9827   5.660   3.604   0.395
 3274TIP3    H1 9828   5.634   3.672   0.457
 3274TIP3    H2 9829   5.621   3.631   0.312
 3275TIP3   OH2 9830   2.885   5.854   5.184
 3275TIP3    H1 9831   2.807   5.879   5.235
 3275TIP3    H2 9832   2.893   5.760   5.196
 3276TIP3   OH2 9833   2.432   4.542   1.034
 3276TIP3    H1 9834   2.455   4.632   1.012
 3276TIP3    H2 9835   2.488   4.488   0.978
 3277TIP3   OH2 9836   4.687   1.366   0.328
 3277TIP3    H1 9837   4.636   1.387   0.250
 3277TIP3    H2 9838   4.742   1.291   0.302
 3278TIP3   OH2 9839   2.596   4.207   1.240
 3278TIP3    H1 9840   2.685   4.172   1.241
 3278TIP3    H2 9841   2.600   4.284   1.297
 3279TIP3   OH2 9842   4.844   1.575   2.822
 3279TIP3    H1 9843   4.918   1.629   2.849
 3279TIP3    H2 9844   4.813   1.617   2.741
 3280TIP3   OH2 9845   5.426   4.462   2.236
 3280TIP3    H1 9846   5.516   4.439   2.260
 3280TIP3    H2 9847   5.427   4.464   2.140
 3281TIP3   OH2 9848   5.738   4.423   4.920
 3281TIP3    H1 9849   5.695   4.338   4.922
 3281TIP3    H2 9850   5.719   4.458   4.832
 3282TIP3   OH2 9851   2.886   0.949   4.279
 3282TIP3    H1 9852   2.899   0.854   4.277
 3282TIP3    H2 9853   2.964   0.982   4.323
 3283TIP3   OH2 9854   5.461   0.727   0.068
 3283TIP3    H1 9855   5.367   0.740   0.052
 3283TIP3    H2 9856   5.499   0.714  -0.018
 3284TIP3   OH2 9857   2.804   5.128   0.011
 3284TIP3    H1 9858   2.833   5.038  -0.004
 3284TIP3    H2 9859   2.806   5.169  -0.075
 3285TIP3   OH2 9860   4.090   4.080   1.710
 3285TIP3    H1 9861   4.037   4.004   1.734
 3285TIP3    H2 9862   4.099   4.073   1.615
 3286TIP3   OH2 9863   5.964   3.884   0.455
 3286TIP3    H1 9864   5.973   3.794   0.487
 3286TIP3    H2 9865   5.996   3.880   0.365
 3287TIP3   OH2 9866   1.816   2.837   2.173
 3287TIP3    H1 9867   1.722   2.832   2.190
 3287TIP3    H2 9868   1.857   2.837   2.259
 3288TIP3   OH2 9869   1.000   2.887   3.179
 3288TIP3    H1 9870   1.074   2.858   3.126
 3288TIP3    H2 9871   0.970   2.967   3.136
 3289TIP3   OH2 9872   0.618   5.460   2.114
 3289TIP3    H1 9873   0.538   5.430   2.071
 3289TIP3    H2 9874   0.689   5.428   2.057
 3290TIP3   OH2 9875   5.609   0.013   3.998
 3290TIP3    H1 9876   5.687   0.024   4.052
 3290TIP3    H2 9877   5.639   0.032   3.909
 3291TIP3   OH2 9878   0.337   2.370   4.911
 3291TIP3    H1 9879   0.423   2.335   4.933
 3291TIP3    H2 9880   0.280   2.340   4.982
 3292TIP3   OH2 9881   3.517   0.138   2.551
 3292TIP3    H1 9882   3.521   0.045   2.573
 3292TIP3    H2 9883   3.572   0.181   2.617
 3293TIP3   OH2 9884   3.980   3.738   1.225
 3293TIP3    H1 9885   3.950   3.824   1.197
 3293TIP3    H2 9886   4.073   3.750   1.245
 3294TIP3   OH2 9887   5.817   1.991   2.320
 3294TIP3    H1 9888   5.837   1.921   2.383
 3294TIP3    H2 9889   5.862   2.068   2.356
 3295TIP3   OH2 9890   1.671   4.877   1.252
 3295TIP3    H1 9891   1.671   4.971   1.269
 3295TIP3    H2 9892   1.591   4.862   1.202
 3296TIP3   OH2 9893   5.527   2.982   3.219
 3296TIP3    H1 9894   5.461   3.019   3.161
 3296TIP3    H2 9895   5.603   3.040   3.210
 3297TIP3   OH2 9896   6.261   3.379   2.343
 3297TIP3    H1 9897   6.198   3.314   2.375
 3297TIP3    H2 9898   6.242   3.458   2.392
 3298TIP3   OH2 9899   1.163   1.614   4.453
 3298TIP3    H1 9900   1.118   1.668   4.389
 3298TIP3    H2 9901   1.211   1.549   4.401
 3299TIP3   OH2 9902   1.758   5.098   2.362
 3299TIP3    H1 9903   1.848   5.105   2.394
 3299TIP3    H2 9904   1.736   5.187   2.334
 3300TIP3   OH2 9905   1.193   1.906   0.571
 3300TIP3    H1 9906   1.198   1.818   0.532
 3300TIP3    H2 9907   1.101   1.916   0.595
 3301TIP3   OH2 9908   4.401   1.564   4.677
 3301TIP3    H1 9909   4.388   1.648   4.722
 3301TIP3    H2 9910   4.316   1.546   4.637
 3302TIP3   OH2 9911   5.789   4.957   3.701
 3302TIP3    H1 9912   5.775   5.022   3.770
 3302TIP3    H2 9913   5.707   4.908   3.697
 3303TIP3   OH2 9914   1.594   3.461   0.737
 3303TIP3    H1 9915   1.575   3.368   0.731
 3303TIP3    H2 9916   1.587   3.480   0.831
 3304TIP3   OH2 9917   1.556   5.957   5.143
 3304TIP3    H1 9918   1.573   5.871   5.183
 3304TIP3    H2 9919   1.556   5.940   5.049
 3305TIP3   OH2 9920   0.983   5.364   4.100
 3305TIP3    H1 9921   1.037   5.372   4.021
 3305TIP3    H2 9922   0.946   5.276   4.094
 3306TIP3   OH2 9923   3.700   4.447   3.838
 3306TIP3    H1 9924   3.685   4.403   3.922
 3306TIP3    H2 9925   3.751   4.525   3.859
 3307TIP3   OH2 9926   4.523   4.013   1.377
 3307TIP3    H1 9927   4.546   3.927   1.340
 3307TIP3    H2 9928   4.479   4.059   1.306
 3308TIP3   OH2 9929   4.589   5.481   2.076
 3308TIP3    H1 9930   4.675   5.464   2.037
 3308TIP3    H2 9931   4.543   5.397   2.068
 3309TIP3   OH2 9932   5.703   3.172   1.937
 3309TIP3    H1 9933   5.670   3.203   1.853
 3309TIP3    H2 9934   5.796   3.151   1.921
 3310TIP3   OH2 9935   2.439   1.511   0.025
 3310TIP3    H1 9936   2.482   1.595   0.041
 3310TIP3    H2 9937   2.374   1.504   0.095
 3311TIP3   OH2 9938   0.291   1.992   3.796
 3311TIP3    H1 9939   0.322   1.949   3.875
 3311TIP3    H2 9940   0.323   1.937   3.725
 3312TIP3   OH2 9941   1.687   2.365   0.608
 3312TIP3    H1 9942   1.661   2.275   0.627
 3312TIP3    H2 9943   1.665   2.414   0.687
 3313TIP3   OH2 9944   5.877   4.082   4.891
 3313TIP3    H1 9945   5.914   4.054   4.975
 3313TIP3    H2 9946   5.788   4.111   4.913
 3314TIP3   OH2 9947   0.748   5.160   0.162
 3314TIP3    H1 9948   0.797   5.105   0.224
 3314TIP3    H2 9949   0.812   5.222   0.129
 3315TIP3   OH2 9950   1.110   5.099   0.132
 3315TIP3    H1 9951   1.183   5.158   0.114
 3315TIP3    H2 9952   1.047   5.117   0.062
 3316TIP3   OH2 9953   5.053   5.408   3.624
 3316TIP3    H1 9954   4.970   5.456   3.625
 3316TIP3    H2 9955   5.087   5.417   3.713
 3317TIP3   OH2 9956   5.218   1.727   3.782
 3317TIP3    H1 9957   5.148   1.693   3.837
 3317TIP3    H2 9958   5.183   1.809   3.746
 3318TIP3   OH2 9959   1.238   4.120   3.470
 3318TIP3    H1 9960   1.253   4.174   3.547
 3318TIP3    H2 9961   1.310   4.057   3.470
 3319TIP3   OH2 9962   3.992   5.505   2.066
 3319TIP3    H1 9963   3.903   5.534   2.044
 3319TIP3    H2 9964   3.982   5.412   2.088
 3320TIP3   OH2 9965   4.505   0.360   5.100
 3320TIP3    H1 9966   4.511   0.265   5.114
 3320TIP3    H2 9967   4.587   0.382   5.055
 3321TIP3   OH2 9968   5.546   5.626   1.583
 3321TIP3    H1 9969   5.536   5.715   1.617
 3321TIP3    H2 9970   5.503   5.571   1.649
 3322TIP3   OH2 9971   0.545   3.247   4.229
 3322TIP3    H1 9972   0.502   3.191   4.164
 3322TIP3    H2 9973   0.638   3.236   4.211
 3323TIP3   OH2 9974   0.087   3.182   0.576
 3323TIP3    H1 9975   0.029   3.164   0.649
 3323TIP3    H2 9976   0.175   3.183   0.615
 3324TIP3   OH2 9977   4.191   4.802   2.445
 3324TIP3    H1 9978   4.283   4.778   2.438
 3324TIP3    H2 9979   4.181   4.830   2.536
 3325TIP3   OH2 9980   6.200   3.436   1.101
 3325TIP3    H1 9981   6.193   3.521   1.058
 3325TIP3    H2 9982   6.111   3.399   1.096
 3326TIP3   OH2 9983   4.318   2.513   0.968
 3326TIP3    H1 9984   4.299   2.466   1.049
 3326TIP3    H2 9985   4.237   2.562   0.949
 3327TIP3   OH2 9986   0.141   2.902   2.090
 3327TIP3    H1 9987   0.181   2.846   2.156
 3327TIP3    H2 9988   0.158   2.858   2.007
 3328TIP3   OH2 9989   5.045   1.083   2.840
 3328TIP3    H1 9990   4.980   1.149   2.818
 3328TIP3    H2 9991   5.129   1.127   2.827
 3329TIP3   OH2 9992   2.425   5.673   2.667
 3329TIP3    H1 9993   2.443   5.650   2.759
 3329TIP3    H2 9994   2.421   5.768   2.667
 3330TIP3   OH2 9995   5.355   0.397   3.697
 3330TIP3    H1 9996   5.291   0.436   3.636
 3330TIP3    H2 9997   5.438   0.440   3.675
 3331TIP3   OH2 9998   1.125   4.039   0.363
 3331TIP3    H1 9999   1.203   4.017   0.412
 3331TIP3    H210000   1.063   3.969   0.383
 3332TIP3   OH210001   1.635   2.303   1.618
 3332TIP3    H110002   1.561   2.242   1.622
 3332TIP3    H210003   1.605   2.374   1.562
 3333TIP3   OH210004   2.350   3.906   4.485
 3333TIP3    H110005   2.429   3.951   4.455
 3333TIP3    H210006   2.349   3.824   4.436
 3334TIP3   OH210007   4.962   5.919   1.166
 3334TIP3    H110008   4.998   5.910   1.078
 3334TIP3    H210009   5.021   5.981   1.209
 3335TIP3   OH210010   6.013   3.159   1.898
 3335TIP3    H110011   6.003   3.228   1.963
 3335TIP3    H210012   6.061   3.201   1.826
 3336TIP3   OH210013   6.093   1.267   0.559
 3336TIP3    H110014   6.070   1.257   0.466
 3336TIP3    H210015   6.012   1.246   0.605
 3337TIP3   OH210016   4.332   3.490   2.190
 3337TIP3    H110017   4.380   3.461   2.113
 3337TIP3    H210018   4.279   3.415   2.216
 3338TIP3   OH210019   6.065   0.642   1.227
 3338TIP3    H110020   6.135   0.704   1.207
 3338TIP3    H210021   6.108   0.574   1.279
 3339TIP3   OH210022   2.792   0.528   3.095
 3339TIP3    H110023   2.709   0.523   3.049
 3339TIP3    H210024   2.832   0.609   3.064
 3340TIP3   OH210025   2.141   5.520   0.360
 3340TIP3    H110026   2.228   5.527   0.401
 3340TIP3    H210027   2.160   5.493   0.270
 3341TIP3   OH210028   1.792   1.773   0.319
 3341TIP3    H110029   1.715   1.805   0.366
 3341TIP3    H210030   1.757   1.738   0.237
 3342TIP3   OH210031   4.867   5.756   1.770
 3342TIP3    H110032   4.829   5.820   1.709
 3342TIP3    H210033   4.885   5.807   1.849
 3343TIP3   OH210034   4.678   5.082   0.031
 3343TIP3    H110035   4.767   5.108   0.005
 3343TIP3    H210036   4.621   5.145  -0.013
 3344TIP3   OH210037   4.959   2.481   0.836
 3344TIP3    H110038   4.964   2.405   0.894
 3344TIP3    H210039   4.865   2.491   0.819
 3345TIP3   OH210040   1.048   4.672   3.566
 3345TIP3    H110041   1.029   4.724   3.644
 3345TIP3    H210042   0.974   4.611   3.560
 3346TIP3   OH210043   3.793   2.599   2.090
 3346TIP3    H110044   3.722   2.554   2.135
 3346TIP3    H210045   3.768   2.692   2.093
 3347TIP3   OH210046   5.983   1.805   3.933
 3347TIP3    H110047   6.067   1.795   3.888
 3347TIP3    H210048   5.951   1.891   3.906
 3348TIP3   OH210049   1.499   4.152   4.628
 3348TIP3    H110050   1.440   4.211   4.582
 3348TIP3    H210051   1.513   4.079   4.567
 3349TIP3   OH210052   6.202   4.925   4.283
 3349TIP3    H110053   6.151   4.999   4.314
 3349TIP3    H210054   6.289   4.939   4.320
 3350TIP3   OH210055   2.058   3.028   0.090
 3350TIP3    H110056   2.017   2.948   0.121
 3350TIP3    H210057   1.987   3.091   0.084
 3351TIP3   OH210058   5.055   1.899   0.448
 3351TIP3    H110059   5.069   1.805   0.452
 3351TIP3    H210060   4.972   1.913   0.494
 3352TIP3   OH210061   2.402   2.390   3.439
 3352TIP3    H110062   2.368   2.308   3.403
 3352TIP3    H210063   2.491   2.396   3.404
 3353TIP3   OH210064   2.334   2.730   3.827
 3353TIP3    H110065   2.247   2.691   3.820
 3353TIP3    H210066   2.356   2.756   3.737
 3354TIP3   OH210067   2.984   1.020   2.219
 3354TIP3    H110068   2.909   1.000   2.163
 3354TIP3    H210069   3.060   1.013   2.161
 3355TIP3   OH210070   4.151   5.372   3.551
 3355TIP3    H110071   4.138   5.335   3.463
 3355TIP3    H210072   4.243   5.397   3.553
 3356TIP3   OH210073   5.089   1.359   4.102
 3356TIP3    H110074   5.182   1.353   4.126
 3356TIP3    H210075   5.045   1.383   4.184
 3357TIP3   OH210076   3.031   0.060   3.029
 3357TIP3    H110077   2.955   0.110   3.061
 3357TIP3    H210078   3.104   0.121   3.036
 3358TIP3   OH210079   1.745   4.634   4.724
 3358TIP3    H110080   1.674   4.600   4.670
 3358TIP3    H210081   1.798   4.557   4.746
 3359TIP3   OH210082   2.251   1.965   4.223
 3359TIP3    H110083   2.205   1.989   4.143
 3359TIP3    H210084   2.332   1.922   4.193
 3360TIP3   OH210085   1.567   4.222   0.312
 3360TIP3    H110086   1.639   4.273   0.349
 3360TIP3    H210087   1.525   4.281   0.249
 3361TIP3   OH210088   1.603   5.222   1.062
 3361TIP3    H110089   1.618   5.162   0.989
 3361TIP3    H210090   1.690   5.252   1.087
 3362TIP3   OH210091   0.193   4.676   0.581
 3362TIP3    H110092   0.184   4.661   0.675
 3362TIP3    H210093   0.221   4.591   0.546
 3363TIP3   OH210094   2.521   0.482   1.190
 3363TIP3    H110095   2.437   0.464   1.232
 3363TIP3    H210096   2.498   0.519   1.105
 3364TIP3   OH210097   2.086   0.206   4.114
 3364TIP3    H110098   2.131   0.166   4.188
 3364TIP3    H210099   1.994   0.186   4.128
 3365TIP3   OH210100   2.800   3.899   4.812
 3365TIP3    H110101   2.820   3.906   4.906
 3365TIP3    H210102   2.755   3.815   4.803
 3366TIP3   OH210103   0.534   5.296   4.662
 3366TIP3    H110104   0.525   5.380   4.708
 3366TIP3    H210105   0.564   5.235   4.730
 3367TIP3   OH210106   6.243   4.531   3.482
 3367TIP3    H110107   6.263   4.438   3.483
 3367TIP3    H210108   6.327   4.575   3.494
 3368TIP3   OH210109   2.032   0.062   1.903
 3368TIP3    H110110   2.107   0.098   1.856
 3368TIP3    H210111   1.969   0.039   1.835
 3369TIP3   OH210112   5.413   2.854   2.756
 3369TIP3    H110113   5.430   2.762   2.776
 3369TIP3    H210114   5.468   2.903   2.817
 3370TIP3   OH210115   6.014   0.249   4.074
 3370TIP3    H110116   5.922   0.240   4.051
 3370TIP3    H210117   6.037   0.165   4.114
 3371TIP3   OH210118   0.805   2.480   4.864
 3371TIP3    H110119   0.795   2.402   4.808
 3371TIP3    H210120   0.879   2.458   4.921
 3372TIP3   OH210121   0.953   3.762   2.329
 3372TIP3    H110122   0.878   3.819   2.311
 3372TIP3    H210123   0.919   3.694   2.386
 3373TIP3   OH210124   6.052   1.584   3.441
 3373TIP3    H110125   6.070   1.649   3.373
 3373TIP3    H210126   6.128   1.526   3.440
 3374TIP3   OH210127   3.781   4.793   2.656
 3374TIP3    H110128   3.820   4.859   2.713
 3374TIP3    H210129   3.798   4.709   2.699
 3375TIP3   OH210130   3.928   2.028   2.516
 3375TIP3    H110131   3.947   2.019   2.423
 3375TIP3    H210132   3.850   2.084   2.519
 3376TIP3   OH210133   2.255   0.214   3.019
 3376TIP3    H110134   2.268   0.214   2.924
 3376TIP3    H210135   2.343   0.216   3.055
 3377TIP3   OH210136   2.019   4.427   5.169
 3377TIP3    H110137   2.107   4.447   5.201
 3377TIP3    H210138   2.007   4.335   5.190
 3378TIP3   OH210139   3.864   1.775   0.330
 3378TIP3    H110140   3.868   1.738   0.242
 3378TIP3    H210141   3.908   1.860   0.322
 3379TIP3   OH210142   2.047   1.145   5.156
 3379TIP3    H110143   1.980   1.093   5.201
 3379TIP3    H210144   1.997   1.207   5.103
 3380TIP3   OH210145   3.710   3.796   0.710
 3380TIP3    H110146   3.691   3.858   0.780
 3380TIP3    H210147   3.733   3.715   0.755
 3381TIP3   OH210148   1.928   4.891   5.070
 3381TIP3    H110149   1.916   4.799   5.095
 3381TIP3    H210150   1.893   4.896   4.981
 3382TIP3   OH210151   3.161   5.585   3.790
 3382TIP3    H110152   3.244   5.627   3.812
 3382TIP3    H210153   3.101   5.615   3.859
 3383TIP3   OH210154   1.130   4.844   3.830
 3383TIP3    H110155   1.221   4.867   3.814
 3383TIP3    H210156   1.125   4.836   3.926
 3384TIP3   OH210157   1.584   4.335   4.405
 3384TIP3    H110158   1.679   4.336   4.413
 3384TIP3    H210159   1.554   4.406   4.461
 3385TIP3   OH210160   1.256   2.186   5.159
 3385TIP3    H110161   1.281   2.094   5.165
 3385TIP3    H210162   1.208   2.203   5.239
 3386TIP3   OH210163   4.774   0.303   4.972
 3386TIP3    H110164   4.828   0.277   5.047
 3386TIP3    H210165   4.747   0.220   4.932
 3387TIP3   OH210166   6.109   0.330   1.011
 3387TIP3    H110167   6.131   0.276   0.935
 3387TIP3    H210168   6.034   0.382   0.982
 3388TIP3   OH210169   1.743   3.800   0.799
 3388TIP3    H110170   1.661   3.799   0.848
 3388TIP3    H210171   1.761   3.893   0.785
 3389TIP3   OH210172   2.961   3.997   4.595
 3389TIP3    H110173   3.003   3.944   4.664
 3389TIP3    H210174   2.870   4.004   4.624
 3390TIP3   OH210175   1.224   4.704   3.126
 3390TIP3    H110176   1.310   4.663   3.127
 3390TIP3    H210177   1.190   4.686   3.038
 3391TIP3   OH210178   2.656   5.873   2.838
 3391TIP3    H110179   2.611   5.843   2.917
 3391TIP3    H210180   2.592   5.927   2.793
 3392TIP3   OH210181   3.477   5.192   3.361
 3392TIP3    H110182   3.515   5.133   3.296
 3392TIP3    H210183   3.416   5.247   3.311
 3393TIP3   OH210184   5.246   5.634   0.354
 3393TIP3    H110185   5.260   5.693   0.429
 3393TIP3    H210186   5.240   5.547   0.394
 3394TIP3   OH210187   0.199   2.446   2.448
 3394TIP3    H110188   0.214   2.523   2.504
 3394TIP3    H210189   0.253   2.462   2.370
 3395TIP3   OH210190   3.139   1.388   4.737
 3395TIP3    H110191   3.069   1.431   4.688
 3395TIP3    H210192   3.218   1.409   4.688
 3396TIP3   OH210193   3.761   5.974   2.586
 3396TIP3    H110194   3.683   5.938   2.543
 3396TIP3    H210195   3.825   5.904   2.584
 3397TIP3   OH210196   2.463   5.102   4.309
 3397TIP3    H110197   2.497   5.171   4.365
 3397TIP3    H210198   2.541   5.057   4.276
 3398TIP3   OH210199   2.230   2.821   5.009
 3398TIP3    H110200   2.265   2.884   5.073
 3398TIP3    H210201   2.246   2.862   4.924
 3399TIP3   OH210202   6.368   0.831   3.290
 3399TIP3    H110203   6.286   0.880   3.293
 3399TIP3    H210204   6.376   0.803   3.198
 3400TIP3   OH210205   0.609   5.612   0.798
 3400TIP3    H110206   0.677   5.548   0.780
 3400TIP3    H210207   0.642   5.694   0.761
 3401TIP3   OH210208   3.815   4.128   0.429
 3401TIP3    H110209   3.774   4.049   0.393
 3401TIP3    H210210   3.744   4.173   0.475
 3402TIP3   OH210211   3.778   1.071   3.402
 3402TIP3    H110212   3.776   1.112   3.488
 3402TIP3    H210213   3.702   1.013   3.401
 3403TIP3   OH210214   2.926   0.351   4.236
 3403TIP3    H110215   2.988   0.417   4.203
 3403TIP3    H210216   2.919   0.287   4.165
 3404TIP3   OH210217   4.536   4.265   4.079
 3404TIP3    H110218   4.446   4.237   4.097
 3404TIP3    H210219   4.557   4.227   3.994
 3405TIP3   OH210220   2.473   3.774   1.404
 3405TIP3    H110221   2.443   3.686   1.428
 3405TIP3    H210222   2.404   3.832   1.435
 3406TIP3   OH210223   5.370   4.410   1.169
 3406TIP3    H110224   5.368   4.319   1.198
 3406TIP3    H210225   5.405   4.406   1.080
 3407TIP3   OH210226   2.919   5.196   1.794
 3407TIP3    H110227   2.860   5.205   1.719
 3407TIP3    H210228   2.863   5.208   1.870
 3408TIP3   OH210229   6.293   3.880   1.505
 3408TIP3    H110230   6.232   3.805   1.504
 3408TIP3    H210231   6.252   3.945   1.449
 3409TIP3   OH210232   2.795   4.080   3.461
 3409TIP3    H110233   2.876   4.030   3.458
 3409TIP3    H210234   2.811   4.155   3.404
 3410TIP3   OH210235   3.369   1.631   4.681
 3410TIP3    H110236   3.304   1.635   4.751
 3410TIP3    H210237   3.438   1.574   4.716
 3411TIP3   OH210238   0.747   3.874   4.808
 3411TIP3    H110239   0.840   3.851   4.818
 3411TIP3    H210240   0.703   3.790   4.795
 3412TIP3   OH210241   0.293   3.433   2.385
 3412TIP3    H110242   0.330   3.409   2.470
 3412TIP3    H210243   0.367   3.428   2.325
 3413TIP3   OH210244   0.458   1.440   0.101
 3413TIP3    H110245   0.448   1.392   0.183
 3413TIP3    H210246   0.517   1.386   0.048
 3414TIP3   OH210247   5.166   5.366   3.881
 3414TIP3    H110248   5.093   5.312   3.912
 3414TIP3    H210249   5.232   5.303   3.853
 3415TIP3   OH210250   5.205   2.490   3.210
 3415TIP3    H110251   5.136   2.438   3.169
 3415TIP3    H210252   5.166   2.519   3.293
 3416TIP3   OH210253   1.525   2.195   2.419
 3416TIP3    H110254   1.528   2.200   2.323
 3416TIP3    H210255   1.524   2.102   2.438
 3417TIP3   OH210256   4.952   1.713   1.160
 3417TIP3    H110257   5.014   1.786   1.153
 3417TIP3    H210258   4.997   1.639   1.119
 3418TIP3   OH210259   3.487   4.730   1.521
 3418TIP3    H110260   3.439   4.711   1.440
 3418TIP3    H210261   3.521   4.818   1.508
 3419TIP3   OH210262   0.965   2.876   2.217
 3419TIP3    H110263   0.944   2.786   2.243
 3419TIP3    H210264   1.024   2.907   2.285
 3420TIP3   OH210265   1.778   0.937   2.283
 3420TIP3    H110266   1.708   0.997   2.260
 3420TIP3    H210267   1.736   0.851   2.288
 3421TIP3   OH210268   1.593   1.986   0.399
 3421TIP3    H110269   1.609   1.987   0.493
 3421TIP3    H210270   1.590   2.078   0.374
 3422TIP3   OH210271   5.389   3.410   1.665
 3422TIP3    H110272   5.443   3.481   1.699
 3422TIP3    H210273   5.318   3.401   1.728
 3423TIP3   OH210274   1.893   2.812   0.144
 3423TIP3    H110275   1.831   2.753   0.187
 3423TIP3    H210276   1.877   2.800   0.051
 3424TIP3   OH210277   6.090   4.005   4.689
 3424TIP3    H110278   6.037   4.051   4.754
 3424TIP3    H210279   6.143   3.944   4.740
 3425TIP3   OH210280   1.588   3.128   2.021
 3425TIP3    H110281   1.541   3.058   2.066
 3425TIP3    H210282   1.577   3.109   1.928
 3426TIP3   OH210283   3.324   1.458   0.382
 3426TIP3    H110284   3.360   1.514   0.451
 3426TIP3    H210285   3.391   1.392   0.366
 3427TIP3   OH210286   5.076   3.667   1.543
 3427TIP3    H110287   5.092   3.580   1.507
 3427TIP3    H210288   4.989   3.661   1.582
 3428TIP3   OH210289   1.676   1.422   1.818
 3428TIP3    H110290   1.758   1.384   1.787
 3428TIP3    H210291   1.652   1.369   1.895
 3429TIP3   OH210292   4.134   2.528   0.534
 3429TIP3    H110293   4.045   2.557   0.556
 3429TIP3    H210294   4.138   2.534   0.438
 3430TIP3   OH210295   3.518   0.925   3.012
 3430TIP3    H110296   3.556   0.998   3.062
 3430TIP3    H210297   3.587   0.901   2.950
 3431TIP3   OH210298   5.896   2.011   0.444
 3431TIP3    H110299   5.835   1.968   0.385
 3431TIP3    H210300   5.951   1.940   0.477
 3432TIP3   OH210301   1.522   5.247   3.196
 3432TIP3    H110302   1.566   5.205   3.122
 3432TIP3    H210303   1.587   5.245   3.267
 3433TIP3   OH210304   5.811   0.174   1.973
 3433TIP3    H110305   5.732   0.196   1.922
 3433TIP3    H210306   5.830   0.084   1.949
 3434TIP3   OH210307   3.652   3.832   3.562
 3434TIP3    H110308   3.682   3.788   3.483
 3434TIP3    H210309   3.557   3.837   3.553
 3435TIP3   OH210310   2.039   5.136   2.439
 3435TIP3    H110311   2.014   5.103   2.525
 3435TIP3    H210312   2.072   5.059   2.392
 3436TIP3   OH210313   0.241   3.117   0.046
 3436TIP3    H110314   0.243   3.122   0.142
 3436TIP3    H210315   0.170   3.055   0.028
 3437TIP3   OH210316   1.906   5.012   3.349
 3437TIP3    H110317   1.987   4.989   3.303
 3437TIP3    H210318   1.879   4.931   3.392
 3438TIP3   OH210319   3.891   5.679   0.409
 3438TIP3    H110320   3.813   5.665   0.464
 3438TIP3    H210321   3.862   5.740   0.341
 3439TIP3   OH210322   3.909   5.222   1.381
 3439TIP3    H110323   3.859   5.294   1.419
 3439TIP3    H210324   3.942   5.258   1.299
 3440TIP3   OH210325   5.139   2.630   2.921
 3440TIP3    H110326   5.208   2.565   2.905
 3440TIP3    H210327   5.150   2.694   2.851
 3441TIP3   OH210328   0.406   5.753   5.045
 3441TIP3    H110329   0.366   5.826   5.092
 3441TIP3    H210330   0.455   5.794   4.974
 3442TIP3   OH210331   5.815   4.280   3.953
 3442TIP3    H110332   5.887   4.286   4.015
 3442TIP3    H210333   5.752   4.221   3.995
 3443TIP3   OH210334   4.184   3.653   2.666
 3443TIP3    H110335   4.106   3.623   2.618
 3443TIP3    H210336   4.193   3.745   2.642
 3444TIP3   OH210337   1.239   3.827   3.768
 3444TIP3    H110338   1.232   3.919   3.795
 3444TIP3    H210339   1.203   3.777   3.841
 3445TIP3   OH210340   1.007   3.115   4.978
 3445TIP3    H110341   1.040   3.120   5.068
 3445TIP3    H210342   0.913   3.098   4.989
 3446TIP3   OH210343   2.422   5.892   4.633
 3446TIP3    H110344   2.337   5.918   4.596
 3446TIP3    H210345   2.407   5.805   4.669
 3447TIP3   OH210346   2.792   2.637   1.628
 3447TIP3    H110347   2.740   2.644   1.708
 3447TIP3    H210348   2.774   2.718   1.580
 3448TIP3   OH210349   1.057   3.099   2.911
 3448TIP3    H110350   0.981   3.148   2.879
 3448TIP3    H210351   1.091   3.154   2.982
 3449TIP3   OH210352   0.186   5.891   2.599
 3449TIP3    H110353   0.098   5.881   2.637
 3449TIP3    H210354   0.178   5.965   2.539
 3450TIP3   OH210355   5.710   1.567   1.586
 3450TIP3    H110356   5.619   1.536   1.589
 3450TIP3    H210357   5.727   1.598   1.675
 3451TIP3   OH210358   0.407   3.608   0.856
 3451TIP3    H110359   0.450   3.669   0.796
 3451TIP3    H210360   0.465   3.603   0.932
 3452TIP3   OH210361   0.927   5.894   4.658
 3452TIP3    H110362   0.893   5.913   4.746
 3452TIP3    H210363   0.887   5.960   4.602
 3453TIP3   OH210364   2.455   3.383   2.504
 3453TIP3    H110365   2.540   3.408   2.470
 3453TIP3    H210366   2.442   3.439   2.581
 3454TIP3   OH210367   5.511   0.812   2.739
 3454TIP3    H110368   5.481   0.794   2.828
 3454TIP3    H210369   5.442   0.867   2.701
 3455TIP3   OH210370   4.362   4.721   0.569
 3455TIP3    H110371   4.354   4.799   0.622
 3455TIP3    H210372   4.272   4.688   0.561
 3456TIP3   OH210373   6.122   3.542   4.238
 3456TIP3    H110374   6.201   3.578   4.278
 3456TIP3    H210375   6.127   3.570   4.146
 3457TIP3   OH210376   6.099   1.161   3.965
 3457TIP3    H110377   6.008   1.132   3.968
 3457TIP3    H210378   6.131   1.131   3.879
 3458TIP3   OH210379   4.358   1.356   1.814
 3458TIP3    H110380   4.404   1.360   1.730
 3458TIP3    H210381   4.317   1.270   1.815
 3459TIP3   OH210382   5.361   2.007   2.360
 3459TIP3    H110383   5.320   1.931   2.320
 3459TIP3    H210384   5.444   2.017   2.313
 3460TIP3   OH210385   1.079   3.917   4.286
 3460TIP3    H110386   1.143   3.940   4.219
 3460TIP3    H210387   1.104   3.970   4.362
 3461TIP3   OH210388   4.490   4.766   2.424
 3461TIP3    H110389   4.521   4.751   2.335
 3461TIP3    H210390   4.507   4.859   2.440
 3462TIP3   OH210391   3.426   4.404   4.752
 3462TIP3    H110392   3.400   4.399   4.844
 3462TIP3    H210393   3.428   4.313   4.722
 3463TIP3   OH210394   3.707   0.912   1.875
 3463TIP3    H110395   3.779   0.862   1.913
 3463TIP3    H210396   3.732   0.926   1.783
 3464TIP3   OH210397   0.575   2.954   3.234
 3464TIP3    H110398   0.499   2.909   3.195
 3464TIP3    H210399   0.636   2.884   3.255
 3465TIP3   OH210400   0.638   1.654   4.696
 3465TIP3    H110401   0.651   1.572   4.648
 3465TIP3    H210402   0.671   1.721   4.637
 3466TIP3   OH210403   6.046   0.127   5.187
 3466TIP3    H110404   5.993   0.163   5.116
 3466TIP3    H210405   6.080   0.044   5.153
 3467TIP3   OH210406   1.245   0.847   3.930
 3467TIP3    H110407   1.316   0.861   3.867
 3467TIP3    H210408   1.280   0.783   3.992
 3468TIP3   OH210409   2.816   5.574   0.615
 3468TIP3    H110410   2.778   5.552   0.530
 3468TIP3    H210411   2.766   5.650   0.645
 3469TIP3   OH210412   2.944   3.556   3.056
 3469TIP3    H110413   2.989   3.610   2.991
 3469TIP3    H210414   2.851   3.571   3.040
 3470TIP3   OH210415   2.640   0.364   4.139
 3470TIP3    H110416   2.732   0.371   4.165
 3470TIP3    H210417   2.611   0.455   4.129
 3471TIP3   OH210418   3.440   2.058   4.573
 3471TIP3    H110419   3.419   1.980   4.624
 3471TIP3    H210420   3.484   2.117   4.635
 3472TIP3   OH210421   1.513   5.083   0.525
 3472TIP3    H110422   1.564   5.134   0.461
 3472TIP3    H210423   1.478   5.010   0.475
 3473TIP3   OH210424   1.073   3.689   3.987
 3473TIP3    H110425   1.152   3.659   4.033
 3473TIP3    H210426   1.005   3.628   4.012
 3474TIP3   OH210427   4.988   2.266   3.128
 3474TIP3    H110428   5.014   2.213   3.203
 3474TIP3    H210429   5.056   2.250   3.063
 3475TIP3   OH210430   2.409   0.404   0.608
 3475TIP3    H110431   2.371   0.466   0.546
 3475TIP3    H210432   2.366   0.425   0.691
 3476TIP3   OH210433   4.175   0.316   1.842
 3476TIP3    H110434   4.128   0.302   1.760
 3476TIP3    H210435   4.251   0.258   1.837
 3477TIP3   OH210436   3.583   0.329   0.590
 3477TIP3    H110437   3.667   0.292   0.563
 3477TIP3    H210438   3.524   0.254   0.596
 3478TIP3   OH210439   4.103   3.983   3.624
 3478TIP3    H110440   4.021   3.961   3.580
 3478TIP3    H210441   4.171   3.963   3.559
 3479TIP3   OH210442   1.515   2.161   2.093
 3479TIP3    H110443   1.554   2.195   2.013
 3479TIP3    H210444   1.421   2.159   2.074
 3480TIP3   OH210445   1.820   0.737   3.191
 3480TIP3    H110446   1.835   0.650   3.227
 3480TIP3    H210447   1.730   0.736   3.160
 3481TIP3   OH210448   3.424   4.120   4.655
 3481TIP3    H110449   3.515   4.093   4.636
 3481TIP3    H210450   3.389   4.048   4.707
 3482TIP3   OH210451   2.701   0.937   1.324
 3482TIP3    H110452   2.613   0.922   1.361
 3482TIP3    H210453   2.737   0.849   1.313
 3483TIP3   OH210454   2.631   5.515   4.713
 3483TIP3    H110455   2.590   5.570   4.780
 3483TIP3    H210456   2.597   5.548   4.630
 3484TIP3   OH210457   4.468   5.474   1.526
 3484TIP3    H110458   4.406   5.545   1.534
 3484TIP3    H210459   4.554   5.517   1.523
 3485TIP3   OH210460   4.379   0.473   2.632
 3485TIP3    H110461   4.419   0.510   2.711
 3485TIP3    H210462   4.285   0.470   2.652
 3486TIP3   OH210463   0.042   5.204   1.070
 3486TIP3    H110464   0.023   5.203   0.976
 3486TIP3    H210465   0.008   5.120   1.101
 3487TIP3   OH210466   1.665   2.453   1.112
 3487TIP3    H110467   1.624   2.369   1.130
 3487TIP3    H210468   1.756   2.442   1.140
 3488TIP3   OH210469   4.915   1.269   0.926
 3488TIP3    H110470   4.879   1.276   0.838
 3488TIP3    H210471   4.858   1.205   0.970
 3489TIP3   OH210472   1.970   1.424   4.132
 3489TIP3    H110473   1.888   1.402   4.088
 3489TIP3    H210474   1.979   1.518   4.120
 3490TIP3   OH210475   1.142   2.222   0.793
 3490TIP3    H110476   1.173   2.162   0.861
 3490TIP3    H210477   1.212   2.221   0.727
 3491TIP3   OH210478   0.369   2.811   0.774
 3491TIP3    H110479   0.450   2.761   0.766
 3491TIP3    H210480   0.303   2.757   0.730
 3492TIP3   OH210481   5.417   4.998   0.812
 3492TIP3    H110482   5.411   5.082   0.858
 3492TIP3    H210483   5.333   4.956   0.828
 3493TIP3   OH210484   1.697   5.082   2.751
 3493TIP3    H110485   1.754   5.072   2.827
 3493TIP3    H210486   1.609   5.076   2.786
 3494TIP3   OH210487   3.758   2.096   4.555
 3494TIP3    H110488   3.839   2.086   4.506
 3494TIP3    H210489   3.690   2.060   4.498
 3495TIP3   OH210490   1.889   1.942   4.549
 3495TIP3    H110491   1.887   1.848   4.563
 3495TIP3    H210492   1.834   1.978   4.620
 3496TIP3   OH210493   3.954   2.748   1.257
 3496TIP3    H110494   4.011   2.820   1.229
 3496TIP3    H210495   3.891   2.788   1.316
 3497TIP3   OH210496   1.074   2.876   3.448
 3497TIP3    H110497   1.014   2.812   3.486
 3497TIP3    H210498   1.038   2.895   3.362
 3498TIP3   OH210499   1.821   2.391   2.072
 3498TIP3    H110500   1.762   2.377   1.999
 3498TIP3    H210501   1.902   2.422   2.032
 3499TIP3   OH210502   0.305   0.228   0.171
 3499TIP3    H110503   0.347   0.166   0.111
 3499TIP3    H210504   0.223   0.185   0.196
 3500TIP3   OH210505   4.394   3.806   3.725
 3500TIP3    H110506   4.382   3.731   3.784
 3500TIP3    H210507   4.376   3.771   3.638
 3501TIP3   OH210508   3.062   4.840   0.903
 3501TIP3    H110509   3.139   4.869   0.951
 3501TIP3    H210510   3.011   4.919   0.889
 3502TIP3   OH210511   4.120   2.102   4.021
 3502TIP3    H110512   4.170   2.063   4.093
 3502TIP3    H210513   4.118   2.195   4.042
 3503TIP3   OH210514   0.046   4.201   0.096
 3503TIP3    H110515  -0.046   4.222   0.109
 3503TIP3    H210516   0.051   4.106   0.110
 3504TIP3   OH210517   5.308   5.497   2.801
 3504TIP3    H110518   5.303   5.478   2.895
 3504TIP3    H210519   5.314   5.592   2.797
 3505TIP3   OH210520   1.841   5.683   1.950
 3505TIP3    H110521   1.748   5.692   1.929
 3505TIP3    H210522   1.867   5.599   1.914
 3506TIP3   OH210523   5.852   5.728   0.779
 3506TIP3    H110524   5.803   5.810   0.776
 3506TIP3    H210525   5.866   5.712   0.872
 3507TIP3   OH210526   0.469   1.730   0.083
 3507TIP3    H110527   0.486   1.636   0.073
 3507TIP3    H210528   0.529   1.758   0.152
 3508TIP3   OH210529   4.313   0.858   1.890
 3508TIP3    H110530   4.312   0.766   1.861
 3508TIP3    H210531   4.393   0.866   1.941
 3509TIP3   OH210532   5.132   4.121   3.167
 3509TIP3    H110533   5.039   4.105   3.186
 3509TIP3    H210534   5.163   4.173   3.242
 3510TIP3   OH210535   5.520   4.793   2.484
 3510TIP3    H110536   5.479   4.770   2.568
 3510TIP3    H210537   5.579   4.720   2.466
 3511TIP3   OH210538   0.237   3.456   3.093
 3511TIP3    H110539   0.193   3.480   3.012
 3511TIP3    H210540   0.274   3.538   3.126
 3512TIP3   OH210541   3.302   5.925   2.409
 3512TIP3    H110542   3.242   5.851   2.407
 3512TIP3    H210543   3.246   6.001   2.421
 3513TIP3   OH210544   0.941   5.986   1.538
 3513TIP3    H110545   1.009   6.046   1.570
 3513TIP3    H210546   0.860   6.023   1.571
 3514TIP3   OH210547   3.381   1.681   2.367
 3514TIP3    H110548   3.304   1.624   2.361
 3514TIP3    H210549   3.346   1.764   2.401
 3515TIP3   OH210550   1.174   4.269   2.419
 3515TIP3    H110551   1.224   4.189   2.403
 3515TIP3    H210552   1.100   4.264   2.359
 3516TIP3   OH210553   2.975   5.143   3.917
 3516TIP3    H110554   3.028   5.090   3.857
 3516TIP3    H210555   2.909   5.082   3.951
 3517TIP3   OH210556   5.458   2.553   0.621
 3517TIP3    H110557   5.368   2.526   0.633
 3517TIP3    H210558   5.461   2.643   0.654
 3518TIP3   OH210559   5.867   0.688   3.204
 3518TIP3    H110560   5.856   0.780   3.180
 3518TIP3    H210561   5.830   0.682   3.292
 3519TIP3   OH210562   1.751   5.794   4.739
 3519TIP3    H110563   1.831   5.830   4.777
 3519TIP3    H210564   1.693   5.779   4.814
 3520TIP3   OH210565   2.387   2.534   0.802
 3520TIP3    H110566   2.418   2.623   0.783
 3520TIP3    H210567   2.354   2.539   0.892
 3521TIP3   OH210568   1.666   1.683   0.077
 3521TIP3    H110569   1.603   1.628   0.030
 3521TIP3    H210570   1.743   1.683   0.021
 3522TIP3   OH210571   2.123   4.830   0.269
 3522TIP3    H110572   2.111   4.820   0.175
 3522TIP3    H210573   2.218   4.832   0.281
 3523TIP3   OH210574   3.062   4.698   4.906
 3523TIP3    H110575   3.050   4.606   4.884
 3523TIP3    H210576   3.145   4.701   4.954
 3524TIP3   OH210577   4.170   2.907   5.150
 3524TIP3    H110578   4.169   2.960   5.229
 3524TIP3    H210579   4.211   2.825   5.176
 3525TIP3   OH210580   2.508   2.118   3.925
 3525TIP3    H110581   2.522   2.026   3.905
 3525TIP3    H210582   2.584   2.144   3.976
 3526TIP3   OH210583   1.905   4.646   1.913
 3526TIP3    H110584   1.981   4.664   1.857
 3526TIP3    H210585   1.865   4.732   1.926
 3527TIP3   OH210586   0.211   4.016   1.479
 3527TIP3    H110587   0.142   3.951   1.487
 3527TIP3    H210588   0.197   4.075   1.553
 3528TIP3   OH210589   0.562   2.670   0.347
 3528TIP3    H110590   0.622   2.648   0.276
 3528TIP3    H210591   0.610   2.734   0.400
 3529TIP3   OH210592   2.384   5.821   3.665
 3529TIP3    H110593   2.468   5.777   3.647
 3529TIP3    H210594   2.403   5.879   3.738
 3530TIP3   OH210595   4.547   2.573   4.366
 3530TIP3    H110596   4.550   2.604   4.275
 3530TIP3    H210597   4.509   2.646   4.415
 3531TIP3   OH210598   0.097   2.614   3.035
 3531TIP3    H110599   0.135   2.561   2.966
 3531TIP3    H210600   0.168   2.629   3.097
 3532TIP3   OH210601   2.301   2.737   4.649
 3532TIP3    H110602   2.210   2.709   4.640
 3532TIP3    H210603   2.295   2.825   4.687
 3533TIP3   OH210604   6.125   5.814   1.115
 3533TIP3    H110605   6.138   5.794   1.207
 3533TIP3    H210606   6.156   5.737   1.069
 3534TIP3   OH210607   1.272   4.267   1.839
 3534TIP3    H110608   1.192   4.228   1.873
 3534TIP3    H210609   1.242   4.328   1.771
 3535TIP3   OH210610   1.852   1.023   4.723
 3535TIP3    H110611   1.849   0.974   4.640
 3535TIP3    H210612   1.791   0.977   4.780
 3536TIP3   OH210613   4.839   5.299   5.042
 3536TIP3    H110614   4.920   5.264   5.077
 3536TIP3    H210615   4.795   5.224   5.002
 3537TIP3   OH210616   1.809   4.877   4.405
 3537TIP3    H110617   1.830   4.930   4.328
 3537TIP3    H210618   1.892   4.838   4.430
 3538TIP3   OH210619   0.911   4.349   1.532
 3538TIP3    H110620   0.837   4.340   1.592
 3538TIP3    H210621   0.885   4.418   1.471
 3539TIP3   OH210622   4.344   5.947   0.591
 3539TIP3    H110623   4.415   5.882   0.591
 3539TIP3    H210624   4.323   5.960   0.683
 3540TIP3   OH210625   2.501   2.959   0.581
 3540TIP3    H110626   2.456   2.874   0.579
 3540TIP3    H210627   2.460   3.008   0.509
 3541TIP3   OH210628   3.823   5.949   0.295
 3541TIP3    H110629   3.786   6.031   0.262
 3541TIP3    H210630   3.913   5.972   0.319
 3542TIP3   OH210631   3.953   0.489   0.444
 3542TIP3    H110632   3.938   0.558   0.509
 3542TIP3    H210633   3.907   0.520   0.366
 3543TIP3   OH210634   4.167   3.270   0.100
 3543TIP3    H110635   4.200   3.320   0.025
 3543TIP3    H210636   4.077   3.299   0.112
 3544TIP3   OH210637   6.291   2.216   0.502
 3544TIP3    H110638   6.239   2.180   0.574
 3544TIP3    H210639   6.356   2.148   0.484
 3545TIP3   OH210640   4.177   3.267   3.872
 3545TIP3    H110641   4.171   3.172   3.869
 3545TIP3    H210642   4.129   3.292   3.951
 3546TIP3   OH210643   4.217   4.739   4.614
 3546TIP3    H110644   4.151   4.789   4.567
 3546TIP3    H210645   4.295   4.744   4.558
 3547TIP3   OH210646   3.904   2.254   1.525
 3547TIP3    H110647   3.857   2.172   1.513
 3547TIP3    H210648   3.994   2.234   1.498
 3548TIP3   OH210649   1.509   4.144   2.866
 3548TIP3    H110650   1.457   4.069   2.837
 3548TIP3    H210651   1.476   4.163   2.954
 3549TIP3   OH210652   3.809   4.262   1.128
 3549TIP3    H110653   3.759   4.302   1.199
 3549TIP3    H210654   3.823   4.333   1.065
 3550TIP3   OH210655   2.595   3.547   0.349
 3550TIP3    H110656   2.500   3.563   0.354
 3550TIP3    H210657   2.603   3.462   0.306
 3551TIP3   OH210658   4.590   2.766   0.152
 3551TIP3    H110659   4.565   2.831   0.086
 3551TIP3    H210660   4.530   2.693   0.138
 3552TIP3   OH210661   0.390   1.027   4.950
 3552TIP3    H110662   0.397   0.941   4.992
 3552TIP3    H210663   0.479   1.062   4.952
 3553TIP3   OH210664   4.270   0.530   1.551
 3553TIP3    H110665   4.213   0.461   1.586
 3553TIP3    H210666   4.306   0.573   1.628
 3554TIP3   OH210667   3.330   3.325   4.924
 3554TIP3    H110668   3.249   3.276   4.937
 3554TIP3    H210669   3.378   3.276   4.857
 3555TIP3   OH210670   6.273   3.877   0.636
 3555TIP3    H110671   6.269   3.908   0.545
 3555TIP3    H210672   6.266   3.956   0.688
 3556TIP3   OH210673   1.754   2.700   1.892
 3556TIP3    H110674   1.663   2.674   1.876
 3556TIP3    H210675   1.756   2.728   1.983
 3557TIP3   OH210676   2.403   5.234   2.324
 3557TIP3    H110677   2.405   5.211   2.417
 3557TIP3    H210678   2.395   5.330   2.323
 3558TIP3   OH210679   3.097   5.699   0.853
 3558TIP3    H110680   3.158   5.710   0.780
 3558TIP3    H210681   3.016   5.668   0.811
 3559TIP3   OH210682   3.073   2.156   1.870
 3559TIP3    H110683   3.119   2.075   1.848
 3559TIP3    H210684   2.980   2.136   1.855
 3560TIP3   OH210685   4.370   3.328   0.979
 3560TIP3    H110686   4.314   3.347   0.904
 3560TIP3    H210687   4.346   3.238   1.004
 3561TIP3   OH210688   6.344   3.811   3.877
 3561TIP3    H110689   6.367   3.781   3.965
 3561TIP3    H210690   6.428   3.822   3.832
 3562TIP3   OH210691   0.283   2.194   1.370
 3562TIP3    H110692   0.295   2.112   1.323
 3562TIP3    H210693   0.368   2.210   1.412
 3563TIP3   OH210694   2.646   0.822   3.121
 3563TIP3    H110695   2.685   0.909   3.114
 3563TIP3    H210696   2.567   0.835   3.173
 3564TIP3   OH210697   4.063   2.262   0.421
 3564TIP3    H110698   3.981   2.310   0.410
 3564TIP3    H210699   4.124   2.305   0.360
 3565TIP3   OH210700   6.293   2.348   4.579
 3565TIP3    H110701   6.347   2.389   4.512
 3565TIP3    H210702   6.320   2.390   4.661
 3566TIP3   OH210703   0.893   3.563   2.510
 3566TIP3    H110704   0.839   3.494   2.548
 3566TIP3    H210705   0.956   3.517   2.454
 3567TIP3   OH210706   4.667   1.751   0.996
 3567TIP3    H110707   4.595   1.772   0.937
 3567TIP3    H210708   4.700   1.667   0.965
 3568TIP3   OH210709   2.689   0.295   1.754
 3568TIP3    H110710   2.596   0.274   1.759
 3568TIP3    H210711   2.692   0.390   1.744
 3569TIP3   OH210712   1.300   4.324   4.548
 3569TIP3    H110713   1.277   4.357   4.636
 3569TIP3    H210714   1.298   4.402   4.493
 3570TIP3   OH210715   3.845   0.485   5.059
 3570TIP3    H110716   3.882   0.562   5.016
 3570TIP3    H210717   3.831   0.422   4.989
 3571TIP3   OH210718   0.408   3.142   1.035
 3571TIP3    H110719   0.414   3.221   1.088
 3571TIP3    H210720   0.344   3.163   0.968
 3572TIP3   OH210721   1.094   4.831   0.992
 3572TIP3    H110722   1.137   4.746   0.991
 3572TIP3    H210723   1.025   4.824   0.926
 3573TIP3   OH210724   2.422   3.307   2.967
 3573TIP3    H110725   2.431   3.384   3.024
 3573TIP3    H210726   2.511   3.290   2.936
 3574TIP3   OH210727   6.363   5.799   0.412
 3574TIP3    H110728   6.300   5.740   0.373
 3574TIP3    H210729   6.313   5.877   0.437
 3575TIP3   OH210730   4.100   1.968   4.687
 3575TIP3    H110731   4.088   1.969   4.782
 3575TIP3    H210732   4.052   1.890   4.658
 3576TIP3   OH210733   3.286   4.614   0.989
 3576TIP3    H110734   3.254   4.526   1.011
 3576TIP3    H210735   3.236   4.639   0.912
 3577TIP3   OH210736   0.741   2.044   4.851
 3577TIP3    H110737   0.836   2.050   4.859
 3577TIP3    H210738   0.726   1.957   4.814
 3578TIP3   OH210739   4.975   2.076   3.448
 3578TIP3    H110740   4.926   2.014   3.393
 3578TIP3    H210741   4.913   2.145   3.468
 3579TIP3   OH210742   2.311   2.805   4.108
 3579TIP3    H110743   2.301   2.747   4.033
 3579TIP3    H210744   2.227   2.799   4.154
 3580TIP3   OH210745   3.979   1.043   1.452
 3580TIP3    H110746   3.961   1.020   1.360
 3580TIP3    H210747   4.059   0.995   1.473
 3581TIP3   OH210748   5.995   0.006   3.916
 3581TIP3    H110749   6.048  -0.042   3.852
 3581TIP3    H210750   5.956   0.077   3.865
 3582TIP3   OH210751   5.331   4.098   4.818
 3582TIP3    H110752   5.263   4.162   4.795
 3582TIP3    H210753   5.331   4.096   4.913
 3583TIP3   OH210754   2.100   1.386   1.297
 3583TIP3    H110755   2.173   1.327   1.278
 3583TIP3    H210756   2.128   1.433   1.376
 3584TIP3   OH210757   5.583   2.197   3.063
 3584TIP3    H110758   5.652   2.214   2.999
 3584TIP3    H210759   5.568   2.282   3.104
 3585TIP3   OH210760   2.242   0.144   2.760
 3585TIP3    H110761   2.176   0.145   2.691
 3585TIP3    H210762   2.254   0.052   2.780
 3586TIP3   OH210763   1.314   0.166   1.881
 3586TIP3    H110764   1.380   0.126   1.937
 3586TIP3    H210765   1.258   0.093   1.854
 3587TIP3   OH210766   1.018   1.047   0.341
 3587TIP3    H110767   1.037   0.993   0.265
 3587TIP3    H210768   0.925   1.065   0.335
 3588TIP3   OH210769   3.504   3.190   2.609
 3588TIP3    H110770   3.482   3.244   2.533
 3588TIP3    H210771   3.510   3.101   2.574
 3589TIP3   OH210772   5.307   3.644   1.816
 3589TIP3    H110773   5.248   3.569   1.814
 3589TIP3    H210774   5.262   3.712   1.765
 3590TIP3   OH210775   2.829   5.609   3.401
 3590TIP3    H110776   2.739   5.613   3.434
 3590TIP3    H210777   2.862   5.525   3.431
 3591TIP3   OH210778   1.878   5.174   1.128
 3591TIP3    H110779   1.924   5.165   1.044
 3591TIP3    H210780   1.942   5.147   1.193
 3592TIP3   OH210781   2.720   3.539   4.629
 3592TIP3    H110782   2.755   3.456   4.662
 3592TIP3    H210783   2.682   3.581   4.706
 3593TIP3   OH210784   5.231   3.635   3.016
 3593TIP3    H110785   5.269   3.680   2.940
 3593TIP3    H210786   5.233   3.700   3.086
 3594TIP3   OH210787   4.059   3.957   3.979
 3594TIP3    H110788   4.067   4.030   3.917
 3594TIP3    H210789   4.011   3.889   3.930
 3595TIP3   OH210790   2.117   4.592   3.689
 3595TIP3    H110791   2.134   4.676   3.647
 3595TIP3    H210792   2.142   4.526   3.625
 3596TIP3   OH210793   6.316   3.963   0.943
 3596TIP3    H110794   6.312   4.010   1.026
 3596TIP3    H210795   6.400   3.917   0.945
 3597TIP3   OH210796   3.884   2.844   4.569
 3597TIP3    H110797   3.976   2.871   4.568
 3597TIP3    H210798   3.868   2.811   4.480
 3598TIP3   OH210799   4.866   0.960   0.245
 3598TIP3    H110800   4.847   0.937   0.154
 3598TIP3    H210801   4.833   1.050   0.255
 3599TIP3   OH210802   0.130   4.049   4.037
 3599TIP3    H110803   0.036   4.035   4.026
 3599TIP3    H210804   0.137   4.087   4.125
 3600TIP3   OH210805   1.228   3.042   3.885
 3600TIP3    H110806   1.306   3.010   3.840
 3600TIP3    H210807   1.254   3.127   3.921
 3601TIP3   OH210808   6.300   1.632   2.091
 3601TIP3    H110809   6.209   1.606   2.081
 3601TIP3    H210810   6.310   1.648   2.185
 3602TIP3   OH210811   5.787   5.377   4.955
 3602TIP3    H110812   5.839   5.456   4.939
 3602TIP3    H210813   5.721   5.405   5.020
 3603TIP3   OH210814   0.595   2.622   0.774
 3603TIP3    H110815   0.602   2.561   0.847
 3603TIP3    H210816   0.685   2.651   0.759
 3604TIP3   OH210817   0.560   3.150   2.704
 3604TIP3    H110818   0.496   3.211   2.667
 3604TIP3    H210819   0.514   3.106   2.775
 3605TIP3   OH210820   0.605   4.163   0.515
 3605TIP3    H110821   0.551   4.147   0.437
 3605TIP3    H210822   0.650   4.080   0.530
 3606TIP3   OH210823   3.646   5.805   1.607
 3606TIP3    H110824   3.597   5.843   1.680
 3606TIP3    H210825   3.581   5.761   1.554
 3607TIP3   OH210826   5.670   5.466   0.237
 3607TIP3    H110827   5.599   5.500   0.291
 3607TIP3    H210828   5.745   5.463   0.296
 3608TIP3   OH210829   5.874   2.058   4.270
 3608TIP3    H110830   5.949   2.110   4.297
 3608TIP3    H210831   5.822   2.047   4.350
 3609TIP3   OH210832   0.796   4.512   2.445
 3609TIP3    H110833   0.824   4.474   2.529
 3609TIP3    H210834   0.745   4.442   2.404
 3610TIP3   OH210835   2.236   5.739   1.174
 3610TIP3    H110836   2.268   5.787   1.250
 3610TIP3    H210837   2.310   5.683   1.148
 3611TIP3   OH210838   6.168   3.114   1.224
 3611TIP3    H110839   6.157   3.197   1.176
 3611TIP3    H210840   6.262   3.097   1.220
 3612TIP3   OH210841   4.831   5.460   4.701
 3612TIP3    H110842   4.846   5.444   4.794
 3612TIP3    H210843   4.746   5.419   4.683
 3613TIP3   OH210844   0.930   3.521   1.165
 3613TIP3    H110845   0.935   3.426   1.154
 3613TIP3    H210846   0.921   3.533   1.260
 3614TIP3   OH210847   1.288   3.694   0.819
 3614TIP3    H110848   1.343   3.772   0.830
 3614TIP3    H210849   1.275   3.661   0.908
 3615TIP3   OH210850   5.942   0.324   3.221
 3615TIP3    H110851   5.902   0.321   3.308
 3615TIP3    H210852   5.997   0.403   3.223
 3616TIP3   OH210853   1.359   5.350   4.351
 3616TIP3    H110854   1.342   5.261   4.321
 3616TIP3    H210855   1.438   5.377   4.302
 3617TIP3   OH210856   0.529   0.507   2.575
 3617TIP3    H110857   0.591   0.488   2.505
 3617TIP3    H210858   0.536   0.433   2.635
 3618TIP3   OH210859   4.581   5.342   1.239
 3618TIP3    H110860   4.593   5.436   1.252
 3618TIP3    H210861   4.636   5.301   1.306
 3619TIP3   OH210862   5.874   3.994   1.273
 3619TIP3    H110863   5.921   3.974   1.354
 3619TIP3    H210864   5.782   3.987   1.297
 3620TIP3   OH210865   3.909   3.617   2.692
 3620TIP3    H110866   3.829   3.655   2.657
 3620TIP3    H210867   3.894   3.523   2.691
 3621TIP3   OH210868   3.808   5.001   0.119
 3621TIP3    H110869   3.829   5.047   0.038
 3621TIP3    H210870   3.781   4.913   0.091
 3622TIP3   OH210871   1.411   2.686   1.458
 3622TIP3    H110872   1.329   2.717   1.419
 3622TIP3    H210873   1.413   2.726   1.545
 3623TIP3   OH210874   4.677   0.918   4.036
 3623TIP3    H110875   4.637   0.989   4.085
 3623TIP3    H210876   4.642   0.927   3.947
 3624TIP3   OH210877   4.753   0.435   0.907
 3624TIP3    H110878   4.799   0.458   0.827
 3624TIP3    H210879   4.778   0.344   0.924
 3625TIP3   OH210880   3.502   5.779   2.804
 3625TIP3    H110881   3.407   5.775   2.805
 3625TIP3    H210882   3.528   5.703   2.751
 3626TIP3   OH210883   3.959   1.174   0.619
 3626TIP3    H110884   3.936   1.127   0.538
 3626TIP3    H210885   3.977   1.105   0.683
 3627TIP3   OH210886   2.756   1.071   3.107
 3627TIP3    H110887   2.676   1.123   3.111
 3627TIP3    H210888   2.826   1.132   3.131
 3628TIP3   OH210889   3.523   0.619   0.657
 3628TIP3    H110890   3.532   0.658   0.570
 3628TIP3    H210891   3.484   0.533   0.641
 3629TIP3   OH210892   2.673   4.573   4.109
 3629TIP3    H110893   2.673   4.545   4.201
 3629TIP3    H210894   2.631   4.659   4.110
 3630TIP3   OH210895   5.407   4.805   3.209
 3630TIP3    H110896   5.488   4.816   3.160
 3630TIP3    H210897   5.368   4.725   3.174
 3631TIP3   OH210898   1.195   1.912   1.717
 3631TIP3    H110899   1.187   2.008   1.719
 3631TIP3    H210900   1.140   1.885   1.644
 3632TIP3   OH210901   2.147   1.000   0.795
 3632TIP3    H110902   2.120   0.919   0.838
 3632TIP3    H210903   2.143   1.066   0.864
 3633TIP3   OH210904   5.645   0.590   3.078
 3633TIP3    H110905   5.717   0.584   3.141
 3633TIP3    H210906   5.658   0.516   3.019
 3634TIP3   OH210907   6.170   1.144   1.869
 3634TIP3    H110908   6.245   1.198   1.895
 3634TIP3    H210909   6.096   1.182   1.918
 3635TIP3   OH210910   5.867   3.061   3.820
 3635TIP3    H110911   5.879   3.107   3.903
 3635TIP3    H210912   5.823   3.124   3.763
 3636TIP3   OH210913   3.396   1.341   2.934
 3636TIP3    H110914   3.310   1.324   2.974
 3636TIP3    H210915   3.389   1.431   2.901
 3637TIP3   OH210916   1.364   2.896   3.390
 3637TIP3    H110917   1.357   2.965   3.324
 3637TIP3    H210918   1.297   2.918   3.455
 3638TIP3   OH210919   3.774   0.039   2.147
 3638TIP3    H110920   3.777  -0.044   2.195
 3638TIP3    H210921   3.799   0.015   2.058
 3639TIP3   OH210922   5.450   0.696   4.511
 3639TIP3    H110923   5.531   0.730   4.549
 3639TIP3    H210924   5.386   0.765   4.526
 3640TIP3   OH210925   0.026   0.417   4.055
 3640TIP3    H110926   0.106   0.401   4.005
 3640TIP3    H210927  -0.035   0.455   3.992
 3641TIP3   OH210928   0.910   4.663   2.187
 3641TIP3    H110929   0.880   4.615   2.263
 3641TIP3    H210930   0.968   4.602   2.141
 3642TIP3   OH210931   4.925   0.453   4.821
 3642TIP3    H110932   4.883   0.384   4.873
 3642TIP3    H210933   4.956   0.516   4.886
 3643TIP3   OH210934   4.890   1.664   1.656
 3643TIP3    H110935   4.842   1.722   1.596
 3643TIP3    H210936   4.832   1.589   1.668
 3644TIP3   OH210937   2.503   2.353   3.738
 3644TIP3    H110938   2.441   2.377   3.669
 3644TIP3    H210939   2.460   2.282   3.785
 3645TIP3   OH210940   0.302   4.488   0.395
 3645TIP3    H110941   0.348   4.521   0.318
 3645TIP3    H210942   0.212   4.473   0.364
 3646TIP3   OH210943   5.068   5.427   4.531
 3646TIP3    H110944   5.109   5.468   4.607
 3646TIP3    H210945   4.985   5.473   4.521
 3647TIP3   OH210946   0.175   2.157   0.778
 3647TIP3    H110947   0.197   2.070   0.809
 3647TIP3    H210948   0.252   2.186   0.730
 3648TIP3   OH210949   1.473   0.923   4.549
 3648TIP3    H110950   1.451   1.001   4.499
 3648TIP3    H210951   1.395   0.867   4.542
 3649TIP3   OH210952   2.833   2.658   4.976
 3649TIP3    H110953   2.801   2.596   4.909
 3649TIP3    H210954   2.757   2.674   5.031
 3650TIP3   OH210955   4.440   4.742   0.875
 3650TIP3    H110956   4.359   4.767   0.830
 3650TIP3    H210957   4.492   4.823   0.877
 3651TIP3   OH210958   0.715   1.099   0.641
 3651TIP3    H110959   0.698   1.013   0.604
 3651TIP3    H210960   0.805   1.119   0.614
 3652TIP3   OH210961   5.466   1.663   2.897
 3652TIP3    H110962   5.429   1.622   2.975
 3652TIP3    H210963   5.474   1.591   2.834
 3653TIP3   OH210964   3.155   2.789   4.441
 3653TIP3    H110965   3.195   2.774   4.527
 3653TIP3    H210966   3.226   2.826   4.389
 3654TIP3   OH210967   3.045   5.189   3.345
 3654TIP3    H110968   3.085   5.197   3.431
 3654TIP3    H210969   2.967   5.136   3.359
 3655TIP3   OH210970   6.348   2.916   0.684
 3655TIP3    H110971   6.395   2.870   0.614
 3655TIP3    H210972   6.315   2.845   0.740
 3656TIP3   OH210973   5.871   5.266   2.475
 3656TIP3    H110974   5.782   5.299   2.460
 3656TIP3    H210975   5.892   5.291   2.565
 3657TIP3   OH210976   3.960   1.755   4.977
 3657TIP3    H110977   4.035   1.715   5.021
 3657TIP3    H210978   3.891   1.755   5.044
 3658TIP3   OH210979   2.842   5.668   2.503
 3658TIP3    H110980   2.822   5.579   2.529
 3658TIP3    H210981   2.783   5.686   2.430
 3659TIP3   OH210982   5.744   5.628   2.679
 3659TIP3    H110983   5.820   5.571   2.677
 3659TIP3    H210984   5.780   5.717   2.684
 3660TIP3   OH210985   6.366   1.528   1.475
 3660TIP3    H110986   6.403   1.554   1.391
 3660TIP3    H210987   6.286   1.481   1.453
 3661TIP3   OH210988   2.050   0.273   0.960
 3661TIP3    H110989   2.068   0.179   0.962
 3661TIP3    H210990   1.956   0.279   0.941
 3662TIP3   OH210991   0.092   1.622   3.132
 3662TIP3    H110992   0.096   1.714   3.104
 3662TIP3    H210993   0.010   1.589   3.094
 3663TIP3   OH210994   0.314   5.568   4.863
 3663TIP3    H110995   0.361   5.582   4.781
 3663TIP3    H210996   0.337   5.644   4.917
 3664TIP3   OH210997   4.988   3.506   5.139
 3664TIP3    H110998   4.937   3.520   5.219
 3664TIP3    H210999   5.027   3.419   5.151
 3665TIP3   OH211000   5.344   1.687   1.069
 3665TIP3    H111001   5.378   1.699   0.980
 3665TIP3    H211002   5.403   1.623   1.108
 3666TIP3   OH211003   1.275   4.664   4.723
 3666TIP3    H111004   1.270   4.747   4.675
 3666TIP3    H211005   1.340   4.680   4.792
 3667TIP3   OH211006   3.692   3.945   3.803
 3667TIP3    H111007   3.707   3.880   3.734
 3667TIP3    H211008   3.672   4.026   3.755
 3668TIP3   OH211009   0.195   1.610   2.542
 3668TIP3    H111010   0.158   1.554   2.609
 3668TIP3    H211011   0.285   1.579   2.531
 3669TIP3   OH211012   4.238   2.268   4.957
 3669TIP3    H111013   4.189   2.196   4.997
 3669TIP3    H211014   4.317   2.227   4.922
 3670TIP3   OH211015   5.850   1.750   4.736
 3670TIP3    H111016   5.941   1.779   4.745
 3670TIP3    H211017   5.847   1.666   4.783
 3671TIP3   OH211018   4.662   1.508   1.734
 3671TIP3    H111019   4.695   1.419   1.729
 3671TIP3    H211020   4.636   1.520   1.825
 3672TIP3   OH211021   3.856   5.441   4.880
 3672TIP3    H111022   3.869   5.346   4.886
 3672TIP3    H211023   3.815   5.465   4.963
 3673TIP3   OH211024   1.686   5.448   1.228
 3673TIP3    H111025   1.690   5.490   1.314
 3673TIP3    H211026   1.593   5.425   1.218
 3674TIP3   OH211027   5.311   0.068   2.977
 3674TIP3    H111028   5.270   0.149   2.946
 3674TIP3    H211029   5.377   0.097   3.040
 3675TIP3   OH211030   4.256   1.473   1.037
 3675TIP3    H111031   4.244   1.415   1.112
 3675TIP3    H211032   4.246   1.561   1.072
 3676TIP3   OH211033   5.742   3.864   4.020
 3676TIP3    H111034   5.817   3.846   3.963
 3676TIP3    H211035   5.685   3.788   4.011
 3677TIP3   OH211036   5.056   4.457   2.742
 3677TIP3    H111037   5.032   4.531   2.686
 3677TIP3    H211038   5.029   4.379   2.693
 3678TIP3   OH211039   0.065   4.787   2.442
 3678TIP3    H111040   0.124   4.747   2.378
 3678TIP3    H211041   0.073   4.881   2.428
 3679TIP3   OH211042   4.193   2.385   1.177
 3679TIP3    H111043   4.180   2.299   1.138
 3679TIP3    H211044   4.108   2.427   1.171
 3680TIP3   OH211045   2.670   4.845   0.343
 3680TIP3    H111046   2.642   4.843   0.435
 3680TIP3    H211047   2.708   4.758   0.328
 3681TIP3   OH211048   2.087   5.625   4.560
 3681TIP3    H111049   1.997   5.643   4.586
 3681TIP3    H211050   2.125   5.578   4.635
 3682TIP3   OH211051   5.660   1.031   0.973
 3682TIP3    H111052   5.646   1.120   0.940
 3682TIP3    H211053   5.661   1.040   1.068
 3683TIP3   OH211054   1.405   4.701   1.928
 3683TIP3    H111055   1.466   4.627   1.925
 3683TIP3    H211056   1.423   4.744   2.012
 3684TIP3   OH211057   1.285   0.034   3.029
 3684TIP3    H111058   1.374  -0.002   3.038
 3684TIP3    H211059   1.267   0.031   2.935
 3685TIP3   OH211060   0.146   4.240   0.966
 3685TIP3    H111061   0.151   4.240   1.062
 3685TIP3    H211062   0.168   4.151   0.941
 3686TIP3   OH211063   3.055   5.288   1.102
 3686TIP3    H111064   3.035   5.248   1.186
 3686TIP3    H211065   3.016   5.375   1.106
 3687TIP3   OH211066   0.590   5.123   3.264
 3687TIP3    H111067   0.643   5.043   3.268
 3687TIP3    H211068   0.634   5.178   3.199
 3688TIP3   OH211069   1.492   0.390   0.433
 3688TIP3    H111070   1.488   0.359   0.523
 3688TIP3    H211071   1.432   0.464   0.430
 3689TIP3   OH211072   0.366   1.963   1.913
 3689TIP3    H111073   0.339   1.915   1.835
 3689TIP3    H211074   0.431   1.906   1.955
 3690TIP3   OH211075   2.640   2.572   1.861
 3690TIP3    H111076   2.546   2.555   1.859
 3690TIP3    H211077   2.660   2.585   1.954
 3691TIP3   OH211078   5.391   3.789   3.916
 3691TIP3    H111079   5.325   3.737   3.870
 3691TIP3    H211080   5.392   3.754   4.004
 3692TIP3   OH211081   0.175   0.953   2.523
 3692TIP3    H111082   0.130   1.001   2.453
 3692TIP3    H211083   0.201   1.020   2.586
 3693TIP3   OH211084   4.589   0.449   0.162
 3693TIP3    H111085   4.667   0.413   0.119
 3693TIP3    H211086   4.619   0.474   0.249
 3694TIP3   OH211087   5.878   4.380   4.410
 3694TIP3    H111088   5.937   4.456   4.409
 3694TIP3    H211089   5.889   4.343   4.498
 3695TIP3   OH211090   1.494   1.384   4.191
 3695TIP3    H111091   1.458   1.398   4.279
 3695TIP3    H211092   1.478   1.291   4.173
 3696TIP3   OH211093   3.610   0.332   3.703
 3696TIP3    H111094   3.546   0.401   3.721
 3696TIP3    H211095   3.682   0.352   3.763
 3697TIP3   OH211096   3.279   1.935   2.743
 3697TIP3    H111097   3.370   1.942   2.770
 3697TIP3    H211098   3.229   1.979   2.811
 3698TIP3   OH211099   5.894   0.140   1.172
 3698TIP3    H111100   5.852   0.057   1.197
 3698TIP3    H211101   5.911   0.131   1.078
 3699TIP3   OH211102   2.463   1.160   2.778
 3699TIP3    H111103   2.558   1.173   2.769
 3699TIP3    H211104   2.436   1.123   2.695
 3700TIP3   OH211105   4.660   4.140   4.523
 3700TIP3    H111106   4.648   4.198   4.448
 3700TIP3    H211107   4.744   4.166   4.560
 3701TIP3   OH211108   0.662   4.912   1.913
 3701TIP3    H111109   0.699   4.829   1.883
 3701TIP3    H211110   0.616   4.891   1.994
 3702TIP3   OH211111   5.541   3.007   2.343
 3702TIP3    H111112   5.531   3.092   2.301
 3702TIP3    H211113   5.454   2.987   2.378
 3703TIP3   OH211114   0.446   4.473   3.386
 3703TIP3    H111115   0.509   4.533   3.424
 3703TIP3    H211116   0.490   4.438   3.308
 3704TIP3   OH211117   6.153   2.776   0.314
 3704TIP3    H111118   6.162   2.859   0.268
 3704TIP3    H211119   6.180   2.796   0.404
 3705TIP3   OH211120   3.364   3.143   0.982
 3705TIP3    H111121   3.441   3.091   1.008
 3705TIP3    H211122   3.345   3.115   0.893
 3706TIP3   OH211123   5.392   0.682   2.966
 3706TIP3    H111124   5.374   0.727   3.049
 3706TIP3    H211125   5.469   0.628   2.985
 3707TIP3   OH211126   5.328   5.962   4.530
 3707TIP3    H111127   5.293   6.037   4.578
 3707TIP3    H211128   5.374   6.001   4.455
 3708TIP3   OH211129   4.484   2.198   5.165
 3708TIP3    H111130   4.575   2.204   5.192
 3708TIP3    H211131   4.487   2.208   5.069
 3709TIP3   OH211132   1.722   2.897   0.614
 3709TIP3    H111133   1.669   2.968   0.579
 3709TIP3    H211134   1.779   2.872   0.542
 3710TIP3   OH211135   4.686   4.837   3.635
 3710TIP3    H111136   4.662   4.841   3.542
 3710TIP3    H211137   4.610   4.797   3.677
 3711TIP3   OH211138   2.615   1.784   1.633
 3711TIP3    H111139   2.678   1.765   1.702
 3711TIP3    H211140   2.617   1.880   1.625
 3712TIP3   OH211141   2.214   4.553   2.689
 3712TIP3    H111142   2.124   4.522   2.699
 3712TIP3    H211143   2.251   4.498   2.620
 3713TIP3   OH211144   2.346   3.557   4.855
 3713TIP3    H111145   2.350   3.463   4.875
 3713TIP3    H211146   2.397   3.567   4.775
 3714TIP3   OH211147   4.659   0.229   2.733
 3714TIP3    H111148   4.743   0.272   2.749
 3714TIP3    H211149   4.625   0.210   2.821
 3715TIP3   OH211150   0.776   2.747   3.208
 3715TIP3    H111151   0.761   2.679   3.274
 3715TIP3    H211152   0.863   2.781   3.228
 3716TIP3   OH211153   4.286   4.173   5.116
 3716TIP3    H111154   4.240   4.256   5.100
 3716TIP3    H211155   4.228   4.106   5.080
 3717TIP3   OH211156   1.539   1.033   0.086
 3717TIP3    H111157   1.556   0.961   0.147
 3717TIP3    H211158   1.530   0.991   0.001
 3718TIP3   OH211159   3.001   4.404   4.897
 3718TIP3    H111160   2.985   4.408   4.991
 3718TIP3    H211161   2.949   4.330   4.866
 3719TIP3   OH211162   0.204   2.189   1.947
 3719TIP3    H111163   0.229   2.100   1.924
 3719TIP3    H211164   0.225   2.196   2.041
 3720TIP3   OH211165   3.931   3.379   4.654
 3720TIP3    H111166   3.971   3.463   4.676
 3720TIP3    H211167   3.872   3.399   4.581
 3721TIP3   OH211168   1.055   0.409   3.951
 3721TIP3    H111169   1.063   0.479   3.887
 3721TIP3    H211170   0.975   0.428   3.999
 3722TIP3   OH211171   2.289   2.876   2.851
 3722TIP3    H111172   2.257   2.814   2.916
 3722TIP3    H211173   2.380   2.851   2.836
 3723TIP3   OH211174   2.506   3.535   2.740
 3723TIP3    H111175   2.420   3.505   2.767
 3723TIP3    H211176   2.501   3.631   2.743
 3724TIP3   OH211177   3.191   5.670   0.188
 3724TIP3    H111178   3.109   5.619   0.191
 3724TIP3    H211179   3.199   5.695   0.096
 3725TIP3   OH211180   0.156   3.416   0.151
 3725TIP3    H111181   0.234   3.392   0.201
 3725TIP3    H211182   0.181   3.405   0.059
 3726TIP3   OH211183   5.520   5.148   1.845
 3726TIP3    H111184   5.614   5.164   1.859
 3726TIP3    H211185   5.477   5.216   1.897
 3727TIP3   OH211186   2.669   1.174   1.198
 3727TIP3    H111187   2.640   1.132   1.117
 3727TIP3    H211188   2.672   1.102   1.262
 3728TIP3   OH211189   6.164   5.603   0.290
 3728TIP3    H111190   6.194   5.645   0.210
 3728TIP3    H211191   6.084   5.557   0.266
 3729TIP3   OH211192   1.215   3.942   1.906
 3729TIP3    H111193   1.226   4.034   1.926
 3729TIP3    H211194   1.192   3.939   1.813
 3730TIP3   OH211195   5.938   5.188   2.779
 3730TIP3    H111196   5.879   5.116   2.800
 3730TIP3    H211197   6.026   5.152   2.791
 3731TIP3   OH211198   5.842   0.469   3.750
 3731TIP3    H111199   5.767   0.523   3.724
 3731TIP3    H211200   5.877   0.438   3.667
 3732TIP3   OH211201   2.704   2.590   4.491
 3732TIP3    H111202   2.762   2.604   4.416
 3732TIP3    H211203   2.708   2.672   4.540
 3733TIP3   OH211204   2.604   1.457   3.072
 3733TIP3    H111205   2.662   1.452   2.996
 3733TIP3    H211206   2.522   1.491   3.037
 3734TIP3   OH211207   4.638   5.947   2.129
 3734TIP3    H111208   4.578   5.916   2.062
 3734TIP3    H211209   4.666   5.867   2.175
 3735TIP3   OH211210   0.511   3.081   4.935
 3735TIP3    H111211   0.422   3.094   4.902
 3735TIP3    H211212   0.509   2.995   4.977
 3736TIP3   OH211213   4.631   3.592   1.109
 3736TIP3    H111214   4.599   3.666   1.162
 3736TIP3    H211215   4.601   3.612   1.021
 3737TIP3   OH211216   4.135   2.348   0.744
 3737TIP3    H111217   4.065   2.356   0.809
 3737TIP3    H211218   4.106   2.402   0.671
 3738TIP3   OH211219   4.939   1.033   1.168
 3738TIP3    H111220   4.994   0.955   1.166
 3738TIP3    H211221   4.968   1.082   1.245
 3739TIP3   OH211222   3.458   3.017   3.540
 3739TIP3    H111223   3.515   2.982   3.470
 3739TIP3    H211224   3.410   3.088   3.497
 3740TIP3   OH211225   3.498   2.441   3.023
 3740TIP3    H111226   3.410   2.413   3.049
 3740TIP3    H211227   3.494   2.536   3.023
 3741TIP3   OH211228   1.127   0.868   3.487
 3741TIP3    H111229   1.217   0.835   3.478
 3741TIP3    H211230   1.137   0.954   3.528
 3742TIP3   OH211231   6.264   4.912   1.488
 3742TIP3    H111232   6.184   4.860   1.480
 3742TIP3    H211233   6.254   4.983   1.425
 3743TIP3   OH211234   1.288   3.479   4.802
 3743TIP3    H111235   1.368   3.435   4.772
 3743TIP3    H211236   1.253   3.420   4.869
 3744TIP3   OH211237   4.872   4.536   2.158
 3744TIP3    H111238   4.898   4.515   2.068
 3744TIP3    H211239   4.955   4.556   2.202
 3745TIP3   OH211240   2.472   1.960   3.200
 3745TIP3    H111241   2.537   1.916   3.145
 3745TIP3    H211242   2.524   2.007   3.266
 3746TIP3   OH211243   4.237   2.122   2.234
 3746TIP3    H111244   4.230   2.043   2.288
 3746TIP3    H211245   4.157   2.171   2.253
 3747TIP3   OH211246   5.106   0.091   3.207
 3747TIP3    H111247   5.141   0.147   3.138
 3747TIP3    H211248   5.120   0.002   3.176
 3748TIP3   OH211249   0.728   1.854   5.184
 3748TIP3    H111250   0.761   1.811   5.105
 3748TIP3    H211251   0.656   1.798   5.213
 3749TIP3   OH211252   1.165   2.441   0.336
 3749TIP3    H111253   1.186   2.431   0.428
 3749TIP3    H211254   1.240   2.487   0.298
 3750TIP3   OH211255   1.341   1.416   0.893
 3750TIP3    H111256   1.426   1.461   0.893
 3750TIP3    H211257   1.313   1.418   0.984
 3751TIP3   OH211258   0.094   5.088   2.572
 3751TIP3    H111259   0.161   5.148   2.538
 3751TIP3    H211260   0.038   5.071   2.496
 3752TIP3   OH211261   5.651   0.262   3.466
 3752TIP3    H111262   5.599   0.195   3.511
 3752TIP3    H211263   5.677   0.221   3.384
 3753TIP3   OH211264   1.423   4.546   2.547
 3753TIP3    H111265   1.501   4.532   2.493
 3753TIP3    H211266   1.408   4.462   2.589
 3754TIP3   OH211267   5.112   1.699   2.627
 3754TIP3    H111268   5.172   1.770   2.651
 3754TIP3    H211269   5.026   1.732   2.654
 3755TIP3   OH211270   2.829   1.640   2.792
 3755TIP3    H111271   2.812   1.669   2.703
 3755TIP3    H211272   2.769   1.691   2.846
 3756TIP3   OH211273   5.862   4.594   2.165
 3756TIP3    H111274   5.815   4.511   2.166
 3756TIP3    H211275   5.815   4.648   2.101
 3757TIP3   OH211276   3.640   4.208   1.670
 3757TIP3    H111277   3.575   4.146   1.705
 3757TIP3    H211278   3.689   4.156   1.606
 3758TIP3   OH211279   5.644   4.856   3.057
 3758TIP3    H111280   5.701   4.931   3.076
 3758TIP3    H211281   5.622   4.865   2.964
 3759TIP3   OH211282   2.347   2.102   0.124
 3759TIP3    H111283   2.362   2.055   0.206
 3759TIP3    H211284   2.434   2.114   0.086
 3760TIP3   OH211285   4.517   2.518   3.906
 3760TIP3    H111286   4.440   2.474   3.871
 3760TIP3    H211287   4.568   2.544   3.829
 3761TIP3   OH211288   2.176   0.312   1.829
 3761TIP3    H111289   2.090   0.338   1.861
 3761TIP3    H211290   2.219   0.394   1.806
 3762TIP3   OH211291   4.280   0.869   0.228
 3762TIP3    H111292   4.365   0.876   0.273
 3762TIP3    H211293   4.232   0.804   0.279
 3763TIP3   OH211294   1.023   5.718   3.127
 3763TIP3    H111295   1.049   5.654   3.194
 3763TIP3    H211296   0.966   5.779   3.173
 3764TIP3   OH211297   1.972   0.494   1.955
 3764TIP3    H111298   1.915   0.423   1.983
 3764TIP3    H211299   1.918   0.548   1.898
 3765TIP3   OH211300   0.617   0.678   4.535
 3765TIP3    H111301   0.638   0.641   4.449
 3765TIP3    H211302   0.594   0.603   4.589
 3766TIP3   OH211303   5.031   3.511   4.708
 3766TIP3    H111304   4.957   3.572   4.702
 3766TIP3    H211305   5.039   3.474   4.620
 3767TIP3   OH211306   4.396   2.013   1.557
 3767TIP3    H111307   4.375   2.079   1.490
 3767TIP3    H211308   4.335   2.032   1.629
 3768TIP3   OH211309   3.190   1.574   0.182
 3768TIP3    H111310   3.253   1.571   0.110
 3768TIP3    H211311   3.239   1.544   0.258
 3769TIP3   OH211312   1.194   0.753   0.611
 3769TIP3    H111313   1.217   0.661   0.596
 3769TIP3    H211314   1.153   0.754   0.697
 3770TIP3   OH211315   0.578   0.757   1.283
 3770TIP3    H111316   0.570   0.850   1.262
 3770TIP3    H211317   0.494   0.733   1.321
 3771TIP3   OH211318   0.219   3.878   4.537
 3771TIP3    H111319   0.189   3.968   4.551
 3771TIP3    H211320   0.141   3.832   4.506
 3772TIP3   OH211321   6.324   4.968   1.964
 3772TIP3    H111322   6.349   5.056   1.937
 3772TIP3    H211323   6.235   4.957   1.929
 3773TIP3   OH211324   4.827   4.267   0.920
 3773TIP3    H111325   4.774   4.337   0.959
 3773TIP3    H211326   4.775   4.188   0.932
 3774TIP3   OH211327   6.314   1.972   3.680
 3774TIP3    H111328   6.346   1.884   3.702
 3774TIP3    H211329   6.366   1.997   3.604
 3775TIP3   OH211330   2.866   0.658   4.296
 3775TIP3    H111331   2.884   0.680   4.387
 3775TIP3    H211332   2.773   0.677   4.285
 3776TIP3   OH211333   0.067   3.209   2.622
 3776TIP3    H111334  -0.011   3.209   2.677
 3776TIP3    H211335   0.034   3.195   2.533
 3777TIP3   OH211336   0.695   3.360   2.547
 3777TIP3    H111337   0.681   3.331   2.637
 3777TIP3    H211338   0.657   3.290   2.493
 3778TIP3   OH211339   4.578   1.492   0.092
 3778TIP3    H111340   4.569   1.570   0.037
 3778TIP3    H211341   4.493   1.482   0.134
 3779TIP3   OH211342   4.422   5.685   4.306
 3779TIP3    H111343   4.436   5.725   4.392
 3779TIP3    H211344   4.346   5.730   4.270
 3780TIP3   OH211345   1.723   2.100   5.071
 3780TIP3    H111346   1.632   2.112   5.046
 3780TIP3    H211347   1.756   2.189   5.084
 3781TIP3   OH211348   3.801   3.598   4.316
 3781TIP3    H111349   3.870   3.533   4.328
 3781TIP3    H211350   3.806   3.622   4.224
 3782TIP3   OH211351   4.620   4.618   3.019
 3782TIP3    H111352   4.595   4.552   3.084
 3782TIP3    H211353   4.583   4.699   3.052
 3783TIP3   OH211354   4.002   0.723   0.065
 3783TIP3    H111355   4.054   0.675   0.131
 3783TIP3    H211356   3.982   0.657  -0.002
 3784TIP3   OH211357   2.118   0.694   3.908
 3784TIP3    H111358   2.087   0.731   3.990
 3784TIP3    H211359   2.102   0.600   3.915
 3785TIP3   OH211360   5.778   2.904   1.097
 3785TIP3    H111361   5.788   2.829   1.040
 3785TIP3    H211362   5.694   2.890   1.140
 3786TIP3   OH211363   5.203   3.785   0.158
 3786TIP3    H111364   5.185   3.873   0.126
 3786TIP3    H211365   5.158   3.781   0.242
 3787TIP3   OH211366   2.502   5.552   1.589
 3787TIP3    H111367   2.565   5.545   1.660
 3787TIP3    H211368   2.480   5.461   1.566
 3788TIP3   OH211369   5.094   0.573   4.995
 3788TIP3    H111370   5.171   0.561   4.940
 3788TIP3    H211371   5.111   0.654   5.044
 3789TIP3   OH211372   1.406   2.243   2.680
 3789TIP3    H111373   1.361   2.162   2.703
 3789TIP3    H211374   1.477   2.215   2.623
 3790TIP3   OH211375   0.851   4.061   3.396
 3790TIP3    H111376   0.799   3.990   3.359
 3790TIP3    H211377   0.913   4.084   3.328
 3791TIP3   OH211378   2.614   2.708   0.333
 3791TIP3    H111379   2.561   2.636   0.299
 3791TIP3    H211380   2.549   2.773   0.361
 3792TIP3   OH211381   3.246   5.719   4.350
 3792TIP3    H111382   3.225   5.810   4.367
 3792TIP3    H211383   3.219   5.673   4.430
 3793TIP3   OH211384   5.502   2.057   0.812
 3793TIP3    H111385   5.549   2.004   0.747
 3793TIP3    H211386   5.559   2.054   0.890
 3794TIP3   OH211387   3.797   0.837   2.874
 3794TIP3    H111388   3.760   0.753   2.903
 3794TIP3    H211389   3.812   0.886   2.954
 3795TIP3   OH211390   4.632   0.175   0.457
 3795TIP3    H111391   4.545   0.207   0.430
 3795TIP3    H211392   4.693   0.242   0.426
 3796TIP3   OH211393   2.065   3.871   3.515
 3796TIP3    H111394   1.998   3.923   3.470
 3796TIP3    H211395   2.102   3.931   3.579
 3797TIP3   OH211396   2.548   3.009   4.476
 3797TIP3    H111397   2.596   2.938   4.434
 3797TIP3    H211398   2.488   3.041   4.409
 3798TIP3   OH211399   2.165   5.019   2.784
 3798TIP3    H111400   2.181   5.106   2.820
 3798TIP3    H211401   2.086   5.028   2.732
 3799TIP3   OH211402   0.449   0.514   3.336
 3799TIP3    H111403   0.355   0.501   3.343
 3799TIP3    H211404   0.470   0.495   3.245
 3800TIP3   OH211405   0.735   5.964   0.368
 3800TIP3    H111406   0.685   6.043   0.346
 3800TIP3    H211407   0.824   5.982   0.338
 3801TIP3   OH211408   3.452   0.939   5.105
 3801TIP3    H111409   3.397   0.902   5.173
 3801TIP3    H211410   3.469   0.866   5.045
 3802TIP3   OH211411   1.108   1.665   0.780
 3802TIP3    H111412   1.048   1.627   0.716
 3802TIP3    H211413   1.053   1.719   0.835
 3803TIP3   OH211414   4.450   0.529   3.302
 3803TIP3    H111415   4.402   0.522   3.385
 3803TIP3    H211416   4.385   0.562   3.240
 3804TIP3   OH211417   4.431   0.736   2.207
 3804TIP3    H111418   4.499   0.792   2.169
 3804TIP3    H211419   4.455   0.727   2.299
 3805TIP3   OH211420   5.730   3.995   0.412
 3805TIP3    H111421   5.824   3.980   0.425
 3805TIP3    H211422   5.688   3.918   0.451
 3806TIP3   OH211423   2.390   1.785   2.033
 3806TIP3    H111424   2.336   1.765   2.109
 3806TIP3    H211425   2.332   1.770   1.958
 3807TIP3   OH211426   4.975   4.676   3.248
 3807TIP3    H111427   4.960   4.731   3.325
 3807TIP3    H211428   5.009   4.594   3.285
 3808TIP3   OH211429   0.049   5.304   3.782
 3808TIP3    H111430  -0.033   5.271   3.820
 3808TIP3    H211431   0.024   5.381   3.732
 3809TIP3   OH211432   3.828   3.666   3.981
 3809TIP3    H111433   3.742   3.659   3.939
 3809TIP3    H211434   3.889   3.679   3.909
 3810TIP3   OH211435   5.030   0.198   2.668
 3810TIP3    H111436   5.014   0.105   2.649
 3810TIP3    H211437   5.116   0.216   2.629
 3811TIP3   OH211438   3.254   4.961   0.534
 3811TIP3    H111439   3.198   5.037   0.554
 3811TIP3    H211440   3.197   4.903   0.483
 3812TIP3   OH211441   4.291   0.967   1.493
 3812TIP3    H111442   4.386   0.955   1.487
 3812TIP3    H211443   4.258   0.941   1.408
 3813TIP3   OH211444   1.747   4.734   0.035
 3813TIP3    H111445   1.663   4.772   0.057
 3813TIP3    H211446   1.777   4.782  -0.042
 3814TIP3   OH211447   5.802   1.119   4.716
 3814TIP3    H111448   5.768   1.196   4.671
 3814TIP3    H211449   5.895   1.115   4.692
 3815TIP3   OH211450   0.849   0.846   1.056
 3815TIP3    H111451   0.779   0.826   0.993
 3815TIP3    H211452   0.916   0.890   1.004
 3816TIP3   OH211453   2.442   0.978   2.985
 3816TIP3    H111454   2.472   0.910   2.925
 3816TIP3    H211455   2.473   1.060   2.946
 3817TIP3   OH211456   4.424   2.554   0.147
 3817TIP3    H111457   4.397   2.504   0.224
 3817TIP3    H211458   4.410   2.495   0.073
 3818TIP3   OH211459   3.222   0.211   0.677
 3818TIP3    H111460   3.164   0.135   0.672
 3818TIP3    H211461   3.183   0.266   0.746
 3819TIP3   OH211462   5.650   2.543   0.097
 3819TIP3    H111463   5.614   2.531   0.185
 3819TIP3    H211464   5.628   2.462   0.050
 3820TIP3   OH211465   3.962   1.242   2.343
 3820TIP3    H111466   3.941   1.160   2.297
 3820TIP3    H211467   3.931   1.228   2.432
 3821TIP3   OH211468   1.869   3.383   0.049
 3821TIP3    H111469   1.857   3.295   0.011
 3821TIP3    H211470   1.932   3.425  -0.009
 3822TIP3   OH211471   4.900   2.863   1.442
 3822TIP3    H111472   4.824   2.812   1.471
 3822TIP3    H211473   4.976   2.807   1.463
 3823TIP3   OH211474   0.788   3.513   3.164
 3823TIP3    H111475   0.810   3.599   3.200
 3823TIP3    H211476   0.776   3.528   3.070
 3824TIP3   OH211477   0.068   3.965   1.803
 3824TIP3    H111478  -0.016   4.009   1.809
 3824TIP3    H211479   0.126   4.028   1.762
 3825TIP3   OH211480   3.730   3.606   0.885
 3825TIP3    H111481   3.727   3.514   0.858
 3825TIP3    H211482   3.712   3.604   0.979
 3826TIP3   OH211483   0.384   5.422   0.106
 3826TIP3    H111484   0.439   5.468   0.043
 3826TIP3    H211485   0.301   5.408   0.060
 3827TIP3   OH211486   1.207   1.970   1.433
 3827TIP3    H111487   1.123   2.015   1.441
 3827TIP3    H211488   1.189   1.881   1.462
 3828TIP3   OH211489   6.250   3.601   3.053
 3828TIP3    H111490   6.282   3.561   3.134
 3828TIP3    H211491   6.169   3.553   3.033
 3829TIP3   OH211492   2.696   4.680   2.992
 3829TIP3    H111493   2.755   4.616   2.951
 3829TIP3    H211494   2.637   4.707   2.922
 3830TIP3   OH211495   3.472   1.214   4.366
 3830TIP3    H111496   3.558   1.245   4.398
 3830TIP3    H211497   3.415   1.223   4.442
 3831TIP3   OH211498   3.207   5.155   2.808
 3831TIP3    H111499   3.228   5.246   2.829
 3831TIP3    H211500   3.113   5.148   2.821
 3832TIP3   OH211501   1.568   3.307   0.078
 3832TIP3    H111502   1.556   3.358  -0.003
 3832TIP3    H211503   1.656   3.270   0.070
 3833TIP3   OH211504   6.118   0.033   0.075
 3833TIP3    H111505   6.039   0.033   0.022
 3833TIP3    H211506   6.173  -0.035   0.037
 3834TIP3   OH211507   6.217   3.835   3.615
 3834TIP3    H111508   6.243   3.828   3.707
 3834TIP3    H211509   6.235   3.749   3.579
 3835TIP3   OH211510   5.490   4.291   4.219
 3835TIP3    H111511   5.567   4.235   4.203
 3835TIP3    H211512   5.509   4.331   4.304
 3836TIP3   OH211513   5.447   1.734   1.787
 3836TIP3    H111514   5.529   1.777   1.810
 3836TIP3    H211515   5.436   1.751   1.694
 3837TIP3   OH211516   0.434   2.247   3.837
 3837TIP3    H111517   0.353   2.196   3.836
 3837TIP3    H211518   0.451   2.262   3.930
 3838TIP3   OH211519   4.830   3.603   0.850
 3838TIP3    H111520   4.853   3.558   0.769
 3838TIP3    H211521   4.799   3.534   0.908
 3839TIP3   OH211522   4.454   5.990   0.003
 3839TIP3    H111523   4.549   5.985  -0.010
 3839TIP3    H211524   4.439   5.943   0.085
 3840TIP3   OH211525   2.769   4.276   5.125
 3840TIP3    H111526   2.729   4.308   5.044
 3840TIP3    H211527   2.769   4.181   5.115
 3841TIP3   OH211528   0.559   4.222   1.303
 3841TIP3    H111529   0.491   4.289   1.308
 3841TIP3    H211530   0.556   4.191   1.213
 3842TIP3   OH211531   2.153   2.157   0.478
 3842TIP3    H111532   2.194   2.192   0.399
 3842TIP3    H211533   2.084   2.098   0.445
 3843TIP3   OH211534   4.311   3.329   1.504
 3843TIP3    H111535   4.312   3.422   1.480
 3843TIP3    H211536   4.397   3.314   1.545
 3844TIP3   OH211537   6.032   0.924   2.866
 3844TIP3    H111538   6.005   0.907   2.776
 3844TIP3    H211539   5.953   0.907   2.918
 3845TIP3   OH211540   0.480   4.319   4.738
 3845TIP3    H111541   0.537   4.277   4.802
 3845TIP3    H211542   0.499   4.273   4.656
 3846TIP3   OH211543   5.045   5.579   4.092
 3846TIP3    H111544   5.140   5.587   4.085
 3846TIP3    H211545   5.032   5.492   4.129
 3847TIP3   OH211546   0.837   2.472   3.694
 3847TIP3    H111547   0.899   2.404   3.717
 3847TIP3    H211548   0.755   2.445   3.736
 3848TIP3   OH211549   5.141   0.469   0.159
 3848TIP3    H111550   5.091   0.550   0.158
 3848TIP3    H211551   5.119   0.427   0.242
 3849TIP3   OH211552   4.876   1.508   0.047
 3849TIP3    H111553   4.916   1.451   0.113
 3849TIP3    H211554   4.782   1.496   0.060
 3850TIP3   OH211555   2.965   4.362   3.587
 3850TIP3    H111556   3.002   4.449   3.577
 3850TIP3    H211557   3.033   4.303   3.554
 3851TIP3   OH211558   1.848   4.642   5.151
 3851TIP3    H111559   1.823   4.639   5.243
 3851TIP3    H211560   1.891   4.559   5.135
 3852TIP3   OH211561   0.156   3.163   2.037
 3852TIP3    H111562   0.174   3.078   2.077
 3852TIP3    H211563   0.115   3.141   1.953
 3853TIP3   OH211564   5.778   3.151   4.072
 3853TIP3    H111565   5.759   3.224   4.013
 3853TIP3    H211566   5.719   3.081   4.042
 3854TIP3   OH211567   5.875   0.429   4.394
 3854TIP3    H111568   5.924   0.367   4.448
 3854TIP3    H211569   5.817   0.375   4.341
 3855TIP3   OH211570   4.213   2.082   0.726
 3855TIP3    H111571   4.260   2.084   0.643
 3855TIP3    H211572   4.182   2.172   0.738
 3856TIP3   OH211573   1.502   3.836   4.781
 3856TIP3    H111574   1.562   3.834   4.707
 3856TIP3    H211575   1.518   3.754   4.828
 3857TIP3   OH211576   0.182   5.635   0.273
 3857TIP3    H111577   0.158   5.660   0.362
 3857TIP3    H211578   0.277   5.621   0.276
 3858TIP3   OH211579   1.616   5.449   0.788
 3858TIP3    H111580   1.595   5.356   0.796
 3858TIP3    H211581   1.701   5.451   0.744
 3859TIP3   OH211582   0.414   4.965   2.648
 3859TIP3    H111583   0.320   4.985   2.647
 3859TIP3    H211584   0.418   4.873   2.622
 3860TIP3   OH211585   4.118   2.130   1.386
 3860TIP3    H111586   4.104   2.045   1.428
 3860TIP3    H211587   4.100   2.114   1.293
 3861TIP3   OH211588   2.574   4.053   3.822
 3861TIP3    H111589   2.623   3.977   3.790
 3861TIP3    H211590   2.636   4.126   3.815
 3862TIP3   OH211591   5.232   2.873   4.973
 3862TIP3    H111592   5.323   2.873   5.002
 3862TIP3    H211593   5.219   2.960   4.934
 3863TIP3   OH211594   5.485   1.324   4.429
 3863TIP3    H111595   5.398   1.347   4.461
 3863TIP3    H211596   5.513   1.252   4.485
 3864TIP3   OH211597   2.665   4.551   4.395
 3864TIP3    H111598   2.740   4.596   4.435
 3864TIP3    H211599   2.596   4.618   4.392
 3865TIP3   OH211600   1.892   1.479   0.874
 3865TIP3    H111601   1.871   1.567   0.846
 3865TIP3    H211602   1.896   1.484   0.970
 3866TIP3   OH211603   6.317   2.104   4.268
 3866TIP3    H111604   6.265   2.023   4.275
 3866TIP3    H211605   6.262   2.171   4.307
 3867TIP3   OH211606   0.053   4.842   0.414
 3867TIP3    H111607   0.104   4.784   0.470
 3867TIP3    H211608   0.118   4.894   0.367
 3868TIP3   OH211609   1.029   2.848   0.055
 3868TIP3    H111610   0.944   2.882   0.027
 3868TIP3    H211611   1.009   2.763   0.095
 3869TIP3   OH211612   0.264   3.039   3.145
 3869TIP3    H111613   0.327   3.105   3.175
 3869TIP3    H211614   0.236   2.994   3.225
 3870TIP3   OH211615   0.385   4.273   3.659
 3870TIP3    H111616   0.320   4.299   3.594
 3870TIP3    H211617   0.337   4.273   3.742
 3871TIP3   OH211618   1.680   3.900   3.333
 3871TIP3    H111619   1.750   3.841   3.305
 3871TIP3    H211620   1.599   3.856   3.305
 3872TIP3   OH211621   3.053   1.708   3.263
 3872TIP3    H111622   3.021   1.644   3.325
 3872TIP3    H211623   3.061   1.660   3.180
 3873TIP3   OH211624   2.511   1.592   2.773
 3873TIP3    H111625   2.582   1.645   2.810
 3873TIP3    H211626   2.460   1.563   2.849
 3874TIP3   OH211627   5.255   3.656   4.480
 3874TIP3    H111628   5.236   3.573   4.523
 3874TIP3    H211629   5.246   3.721   4.549
 3875TIP3   OH211630   2.167   4.890   0.003
 3875TIP3    H111631   2.189   4.920  -0.085
 3875TIP3    H211632   2.102   4.953   0.034
 3876TIP3   OH211633   1.758   2.771   0.846
 3876TIP3    H111634   1.688   2.822   0.887
 3876TIP3    H211635   1.767   2.809   0.759
 3877TIP3   OH211636   5.765   0.281   3.922
 3877TIP3    H111637   5.726   0.220   3.860
 3877TIP3    H211638   5.802   0.351   3.868
 3878TIP3   OH211639   4.798   2.278   2.055
 3878TIP3    H111640   4.733   2.296   1.987
 3878TIP3    H211641   4.882   2.283   2.009
 3879TIP3   OH211642   2.371   3.277   4.905
 3879TIP3    H111643   2.310   3.227   4.960
 3879TIP3    H211644   2.450   3.284   4.958
 3880TIP3   OH211645   4.658   3.246   4.802
 3880TIP3    H111646   4.598   3.304   4.754
 3880TIP3    H211647   4.725   3.305   4.837
 3881TIP3   OH211648   1.381   2.403   1.429
 3881TIP3    H111649   1.389   2.498   1.417
 3881TIP3    H211650   1.380   2.367   1.340
 3882TIP3   OH211651   1.487   1.427   4.716
 3882TIP3    H111652   1.431   1.432   4.794
 3882TIP3    H211653   1.541   1.349   4.731
 3883TIP3   OH211654   6.015   4.064   3.326
 3883TIP3    H111655   6.009   4.026   3.238
 3883TIP3    H211656   6.011   4.159   3.311
 3884TIP3   OH211657   0.410   2.688   2.935
 3884TIP3    H111658   0.505   2.695   2.939
 3884TIP3    H211659   0.384   2.667   3.025
 3885TIP3   OH211660   0.638   3.772   1.299
 3885TIP3    H111661   0.726   3.806   1.279
 3885TIP3    H211662   0.598   3.839   1.354
 3886TIP3   OH211663   2.873   4.638   1.766
 3886TIP3    H111664   2.941   4.586   1.809
 3886TIP3    H211665   2.904   4.728   1.772
 3887TIP3   OH211666   4.354   3.830   1.139
 3887TIP3    H111667   4.389   3.906   1.093
 3887TIP3    H211668   4.347   3.762   1.072
 3888TIP3   OH211669   4.964   3.846   0.620
 3888TIP3    H111670   4.909   3.873   0.546
 3888TIP3    H211671   4.985   3.928   0.665
 3889TIP3   OH211672   3.509   0.276   4.351
 3889TIP3    H111673   3.525   0.370   4.351
 3889TIP3    H211674   3.539   0.246   4.265
 3890TIP3   OH211675   5.243   3.855   3.504
 3890TIP3    H111676   5.176   3.812   3.558
 3890TIP3    H211677   5.325   3.813   3.531
 3891TIP3   OH211678   5.584   3.794   0.565
 3891TIP3    H111679   5.496   3.776   0.597
 3891TIP3    H211680   5.642   3.770   0.638
 3892TIP3   OH211681   5.026   2.662   0.355
 3892TIP3    H111682   4.933   2.644   0.365
 3892TIP3    H211683   5.044   2.647   0.262
 3893TIP3   OH211684   6.158   3.308   5.095
 3893TIP3    H111685   6.232   3.274   5.144
 3893TIP3    H211686   6.177   3.284   5.004
 3894TIP3   OH211687   0.029   2.946   1.490
 3894TIP3    H111688  -0.003   2.896   1.416
 3894TIP3    H211689  -0.037   2.934   1.559
 3895TIP3   OH211690   1.377   1.435   4.440
 3895TIP3    H111691   1.430   1.445   4.518
 3895TIP3    H211692   1.292   1.405   4.473
 3896TIP3   OH211693   3.984   4.479   4.403
 3896TIP3    H111694   3.934   4.505   4.481
 3896TIP3    H211695   4.076   4.489   4.430
 3897TIP3   OH211696   3.197   3.766   4.153
 3897TIP3    H111697   3.218   3.673   4.150
 3897TIP3    H211698   3.106   3.771   4.124
 3898TIP3   OH211699   1.764   0.438   3.085
 3898TIP3    H111700   1.698   0.419   3.018
 3898TIP3    H211701   1.837   0.477   3.037
 3899TIP3   OH211702   5.154   4.503   5.122
 3899TIP3    H111703   5.220   4.440   5.093
 3899TIP3    H211704   5.176   4.522   5.213
 3900TIP3   OH211705   4.916   5.921   1.993
 3900TIP3    H111706   4.930   5.919   2.087
 3900TIP3    H211707   4.833   5.967   1.981
 3901TIP3   OH211708   4.696   2.597   0.774
 3901TIP3    H111709   4.617   2.650   0.759
 3901TIP3    H211710   4.741   2.596   0.690
 3902TIP3   OH211711   5.811   4.214   4.676
 3902TIP3    H111712   5.739   4.166   4.635
 3902TIP3    H211713   5.839   4.158   4.748
 3903TIP3   OH211714   3.158   0.457   4.005
 3903TIP3    H111715   3.099   0.527   3.976
 3903TIP3    H211716   3.231   0.503   4.047
 3904TIP3   OH211717   2.802   0.648   0.837
 3904TIP3    H111718   2.725   0.703   0.847
 3904TIP3    H211719   2.875   0.705   0.863
 3905TIP3   OH211720   3.877   0.204   2.573
 3905TIP3    H111721   3.804   0.219   2.632
 3905TIP3    H211722   3.912   0.118   2.600
 3906TIP3   OH211723   6.120   1.446   2.150
 3906TIP3    H111724   6.055   1.387   2.112
 3906TIP3    H211725   6.187   1.389   2.186
 3907TIP3   OH211726   1.734   5.359   2.313
 3907TIP3    H111727   1.669   5.425   2.338
 3907TIP3    H211728   1.817   5.393   2.345
 3908TIP3   OH211729   1.302   5.051   1.282
 3908TIP3    H111730   1.355   5.121   1.319
 3908TIP3    H211731   1.212   5.076   1.302
 3909TIP3   OH211732   1.968   5.120   0.307
 3909TIP3    H111733   1.911   5.053   0.344
 3909TIP3    H211734   1.988   5.088   0.219
 3910TIP3   OH211735   2.755   1.657   4.213
 3910TIP3    H111736   2.688   1.652   4.281
 3910TIP3    H211737   2.785   1.567   4.201
 3911TIP3   OH211738   3.589   3.350   5.018
 3911TIP3    H111739   3.613   3.340   4.925
 3911TIP3    H211740   3.494   3.356   5.018
 3912TIP3   OH211741   0.087   3.671   0.197
 3912TIP3    H111742   0.102   3.679   0.291
 3912TIP3    H211743   0.094   3.577   0.180
 3913TIP3   OH211744   3.405   1.909   1.589
 3913TIP3    H111745   3.449   1.875   1.667
 3913TIP3    H211746   3.475   1.949   1.538
 3914TIP3   OH211747   0.900   1.143   4.377
 3914TIP3    H111748   0.842   1.148   4.453
 3914TIP3    H211749   0.848   1.098   4.310
 3915TIP3   OH211750   3.880   0.455   2.085
 3915TIP3    H111751   3.939   0.509   2.034
 3915TIP3    H211752   3.843   0.515   2.150
 3916TIP3   OH211753   4.462   3.253   2.873
 3916TIP3    H111754   4.527   3.208   2.928
 3916TIP3    H211755   4.487   3.230   2.784
 3917TIP3   OH211756   6.167   4.359   2.419
 3917TIP3    H111757   6.205   4.446   2.418
 3917TIP3    H211758   6.094   4.365   2.481
 3918TIP3   OH211759   6.244   5.411   1.173
 3918TIP3    H111760   6.227   5.446   1.086
 3918TIP3    H211761   6.309   5.343   1.160
 3919TIP3   OH211762   2.299   3.963   0.263
 3919TIP3    H111763   2.247   3.887   0.237
 3919TIP3    H211764   2.358   3.929   0.330
 3920TIP3   OH211765   2.628   4.980   1.506
 3920TIP3    H111766   2.539   4.980   1.541
 3920TIP3    H211767   2.656   5.071   1.510
 3921TIP3   OH211768   2.033   2.495   2.361
 3921TIP3    H111769   2.021   2.567   2.299
 3921TIP3    H211770   2.085   2.430   2.314
 3922TIP3   OH211771   5.124   3.589   4.930
 3922TIP3    H111772   5.064   3.561   4.998
 3922TIP3    H211773   5.087   3.555   4.849
 3923TIP3   OH211774   1.929   3.634   0.957
 3923TIP3    H111775   1.874   3.557   0.970
 3923TIP3    H211776   1.880   3.689   0.896
 3924TIP3   OH211777   3.094   4.977   3.149
 3924TIP3    H111778   3.080   5.062   3.191
 3924TIP3    H211779   3.181   4.984   3.109
 3925TIP3   OH211780   3.227   1.825   3.936
 3925TIP3    H111781   3.214   1.857   3.847
 3925TIP3    H211782   3.316   1.792   3.937
 3926TIP3   OH211783   6.297   4.576   1.097
 3926TIP3    H111784   6.331   4.520   1.027
 3926TIP3    H211785   6.209   4.601   1.067
 3927TIP3   OH211786   4.930   4.212   2.650
 3927TIP3    H111787   4.892   4.136   2.693
 3927TIP3    H211788   4.945   4.184   2.560
 3928TIP3   OH211789   5.027   3.673   1.284
 3928TIP3    H111790   5.045   3.684   1.377
 3928TIP3    H211791   5.113   3.677   1.242
 3929TIP3   OH211792   2.288   3.989   3.888
 3929TIP3    H111793   2.372   4.034   3.884
 3929TIP3    H211794   2.231   4.038   3.829
 3930TIP3   OH211795   3.287   4.613   2.094
 3930TIP3    H111796   3.301   4.550   2.024
 3930TIP3    H211797   3.371   4.658   2.102
 3931TIP3   OH211798   3.756   2.042   1.453
 3931TIP3    H111799   3.755   1.980   1.525
 3931TIP3    H211800   3.700   2.003   1.386
 3932TIP3   OH211801   0.143   4.493   4.470
 3932TIP3    H111802   0.160   4.420   4.411
 3932TIP3    H211803   0.049   4.509   4.462
 3933TIP3   OH211804   1.141   1.717   3.968
 3933TIP3    H111805   1.218   1.677   4.008
 3933TIP3    H211806   1.067   1.679   4.014
 3934TIP3   OH211807   4.058   2.995   3.912
 3934TIP3    H111808   4.089   2.930   3.850
 3934TIP3    H211809   3.965   3.007   3.891
 3935TIP3   OH211810   3.607   5.615   4.368
 3935TIP3    H111811   3.609   5.663   4.286
 3935TIP3    H211812   3.692   5.632   4.409
 3936TIP3   OH211813   1.468   0.976   1.642
 3936TIP3    H111814   1.493   0.890   1.675
 3936TIP3    H211815   1.472   1.033   1.719
 3937TIP3   OH211816   4.625   2.355   1.862
 3937TIP3    H111817   4.551   2.416   1.856
 3937TIP3    H211818   4.586   2.269   1.846
 3938TIP3   OH211819   3.583   0.951   3.755
 3938TIP3    H111820   3.535   0.893   3.696
 3938TIP3    H211821   3.553   0.926   3.843
 3939TIP3   OH211822   0.478   3.593   2.777
 3939TIP3    H111823   0.486   3.607   2.682
 3939TIP3    H211824   0.393   3.630   2.799
 3940TIP3   OH211825   5.692   1.697   4.296
 3940TIP3    H111826   5.695   1.692   4.200
 3940TIP3    H211827   5.775   1.659   4.325
 3941TIP3   OH211828   4.123   4.960   0.314
 3941TIP3    H111829   4.218   4.958   0.309
 3941TIP3    H211830   4.102   5.026   0.379
 3942TIP3   OH211831   5.458   1.502   1.663
 3942TIP3    H111832   5.453   1.576   1.723
 3942TIP3    H211833   5.368   1.471   1.655
 3943TIP3   OH211834   3.167   0.420   5.024
 3943TIP3    H111835   3.191   0.381   4.940
 3943TIP3    H211836   3.098   0.364   5.058
 3944TIP3   OH211837   4.226   0.357   3.078
 3944TIP3    H111838   4.242   0.451   3.088
 3944TIP3    H211839   4.135   0.346   3.108
 3945TIP3   OH211840   1.939   2.509   1.229
 3945TIP3    H111841   1.903   2.598   1.237
 3945TIP3    H211842   2.032   2.520   1.252
 3946TIP3   OH211843   4.367   1.148   2.910
 3946TIP3    H111844   4.396   1.135   2.820
 3946TIP3    H211845   4.429   1.099   2.963
 3947TIP3   OH211846   1.883   2.152   3.878
 3947TIP3    H111847   1.833   2.080   3.839
 3947TIP3    H211848   1.948   2.108   3.934
 3948TIP3   OH211849   2.908   3.085   5.047
 3948TIP3    H111850   2.953   3.076   4.963
 3948TIP3    H211851   2.820   3.113   5.024
 3949TIP3   OH211852   5.507   0.485   1.636
 3949TIP3    H111853   5.579   0.506   1.696
 3949TIP3    H211854   5.428   0.503   1.687
 3950TIP3   OH211855   4.829   0.318   0.088
 3950TIP3    H111856   4.841   0.254   0.159
 3950TIP3    H211857   4.848   0.269   0.008
 3951TIP3   OH211858   1.953   1.545   2.383
 3951TIP3    H111859   1.877   1.582   2.427
 3951TIP3    H211860   2.026   1.563   2.442
 3952TIP3   OH211861   4.647   3.543   2.638
 3952TIP3    H111862   4.578   3.536   2.572
 3952TIP3    H211863   4.602   3.576   2.716
 3953TIP3   OH211864   3.404   2.545   3.304
 3953TIP3    H111865   3.462   2.611   3.341
 3953TIP3    H211866   3.349   2.592   3.242
 3954TIP3   OH211867   0.992   4.022   3.704
 3954TIP3    H111868   0.954   4.093   3.652
 3954TIP3    H211869   0.947   3.943   3.674
 3955TIP3   OH211870   3.957   4.256   3.484
 3955TIP3    H111871   3.895   4.328   3.491
 3955TIP3    H211872   3.916   4.185   3.533
 3956TIP3   OH211873   5.733   2.477   2.123
 3956TIP3    H111874   5.812   2.512   2.165
 3956TIP3    H211875   5.674   2.552   2.118
 3957TIP3   OH211876   4.492   0.081   3.504
 3957TIP3    H111877   4.516  -0.012   3.498
 3957TIP3    H211878   4.544   0.115   3.576
 3958TIP3   OH211879   4.171   2.367   4.082
 3958TIP3    H111880   4.264   2.347   4.094
 3958TIP3    H211881   4.163   2.460   4.102
 3959TIP3   OH211882   5.755   2.085   4.530
 3959TIP3    H111883   5.708   2.021   4.584
 3959TIP3    H211884   5.724   2.170   4.562
 3960TIP3   OH211885   2.236   0.588   1.785
 3960TIP3    H111886   2.147   0.622   1.776
 3960TIP3    H211887   2.283   0.624   1.710
 3961TIP3   OH211888   4.975   0.169   1.659
 3961TIP3    H111889   4.901   0.116   1.687
 3961TIP3    H211890   5.047   0.107   1.649
 3962TIP3   OH211891   3.175   4.146   4.877
 3962TIP3    H111892   3.150   4.192   4.798
 3962TIP3    H211893   3.136   4.059   4.868
 3963TIP3   OH211894   0.787   2.291   4.670
 3963TIP3    H111895   0.715   2.349   4.647
 3963TIP3    H211896   0.745   2.214   4.708
 3964TIP3   OH211897   0.577   2.466   2.287
 3964TIP3    H111898   0.651   2.413   2.316
 3964TIP3    H211899   0.540   2.501   2.368
 3965TIP3   OH211900   5.805   0.505   0.118
 3965TIP3    H111901   5.810   0.543   0.205
 3965TIP3    H211902   5.897   0.497   0.090
 3966TIP3   OH211903   0.433   3.746   5.165
 3966TIP3    H111904   0.340   3.769   5.159
 3966TIP3    H211905   0.479   3.829   5.151
 3967TIP3   OH211906   3.954   1.423   4.494
 3967TIP3    H111907   4.026   1.363   4.515
 3967TIP3    H211908   3.979   1.505   4.536
 3968TIP3   OH211909   5.153   4.800   5.110
 3968TIP3    H111910   5.150   4.706   5.091
 3968TIP3    H211911   5.225   4.833   5.056
 3969TIP3   OH211912   6.258   3.896   2.503
 3969TIP3    H111913   6.293   3.977   2.468
 3969TIP3    H211914   6.306   3.882   2.585
 3970TIP3   OH211915   5.755   5.604   3.247
 3970TIP3    H111916   5.712   5.568   3.170
 3970TIP3    H211917   5.834   5.647   3.213
 3971TIP3   OH211918   4.067   4.792   0.027
 3971TIP3    H111919   4.099   4.866  -0.024
 3971TIP3    H211920   4.039   4.830   0.110
 3972TIP3   OH211921   0.248   0.671   4.387
 3972TIP3    H111922   0.191   0.624   4.448
 3972TIP3    H211923   0.198   0.674   4.306
 3973TIP3   OH211924   4.496   5.377   5.028
 3973TIP3    H111925   4.464   5.304   5.080
 3973TIP3    H211926   4.426   5.394   4.965
 3974TIP3   OH211927   3.329   5.236   3.787
 3974TIP3    H111928   3.408   5.204   3.830
 3974TIP3    H211929   3.265   5.245   3.858
 3975TIP3   OH211930   2.208   1.552   3.395
 3975TIP3    H111931   2.238   1.532   3.483
 3975TIP3    H211932   2.286   1.588   3.351
 3976TIP3   OH211933   3.069   1.098   1.577
 3976TIP3    H111934   3.129   1.142   1.638
 3976TIP3    H211935   3.006   1.053   1.633
 3977TIP3   OH211936   5.622   4.170   1.050
 3977TIP3    H111937   5.630   4.101   1.116
 3977TIP3    H211938   5.541   4.215   1.071
 3978TIP3   OH211939   6.003   2.579   0.483
 3978TIP3    H111940   6.050   2.625   0.414
 3978TIP3    H211941   5.919   2.625   0.490
 3979TIP3   OH211942   2.437   1.400   3.984
 3979TIP3    H111943   2.347   1.393   4.018
 3979TIP3    H211944   2.442   1.333   3.916
 3980TIP3   OH211945   3.128   0.072   0.311
 3980TIP3    H111946   3.213   0.045   0.277
 3980TIP3    H211947   3.147   0.106   0.398
 3981TIP3   OH211948   2.105   2.671   4.295
 3981TIP3    H111949   2.107   2.609   4.368
 3981TIP3    H211950   2.071   2.752   4.333
 3982TIP3   OH211951   3.229   1.168   1.354
 3982TIP3    H111952   3.205   1.150   1.445
 3982TIP3    H211953   3.168   1.115   1.302
 3983TIP3   OH211954   1.953   4.303   3.522
 3983TIP3    H111955   1.912   4.234   3.470
 3983TIP3    H211956   1.976   4.370   3.458
 3984TIP3   OH211957   2.473   0.879   1.851
 3984TIP3    H111958   2.455   0.971   1.873
 3984TIP3    H211959   2.509   0.841   1.931
 3985TIP3   OH211960   2.715   5.320   2.759
 3985TIP3    H111961   2.645   5.334   2.823
 3985TIP3    H211962   2.761   5.403   2.755
 3986TIP3   OH211963   4.545   3.269   1.604
 3986TIP3    H111964   4.619   3.248   1.547
 3986TIP3    H211965   4.574   3.240   1.691
 3987TIP3   OH211966   4.067   2.571   4.646
 3987TIP3    H111967   4.118   2.509   4.594
 3987TIP3    H211968   3.976   2.546   4.632
 3988TIP3   OH211969   4.448   1.673   1.315
 3988TIP3    H111970   4.362   1.699   1.282
 3988TIP3    H211971   4.507   1.742   1.285
 3989TIP3   OH211972   4.195   0.370   1.058
 3989TIP3    H111973   4.236   0.355   1.144
 3989TIP3    H211974   4.207   0.288   1.011
 3990TIP3   OH211975   5.636   3.305   3.393
 3990TIP3    H111976   5.679   3.322   3.309
 3990TIP3    H211977   5.543   3.303   3.372
 3991TIP3   OH211978   3.602   5.442   0.621
 3991TIP3    H111979   3.661   5.450   0.695
 3991TIP3    H211980   3.620   5.520   0.567
 3992TIP3   OH211981   5.190   3.600   2.083
 3992TIP3    H111982   5.269   3.562   2.044
 3992TIP3    H211983   5.126   3.602   2.012
 3993TIP3   OH211984   1.814   5.769   3.437
 3993TIP3    H111985   1.809   5.857   3.475
 3993TIP3    H211986   1.802   5.782   3.343
 3994TIP3   OH211987   2.257   2.181   3.815
 3994TIP3    H111988   2.178   2.207   3.862
 3994TIP3    H211989   2.309   2.133   3.879
 3995TIP3   OH211990   1.486   4.927   4.049
 3995TIP3    H111991   1.524   4.845   4.016
 3995TIP3    H211992   1.426   4.955   3.981
 3996TIP3   OH211993   0.429   0.061   0.716
 3996TIP3    H111994   0.377   0.107   0.650
 3996TIP3    H211995   0.370  -0.005   0.752
 3997TIP3   OH211996   4.750   4.571   2.454
 3997TIP3    H111997   4.831   4.565   2.505
 3997TIP3    H211998   4.776   4.546   2.365
 3998TIP3   OH211999   2.944   2.776   2.346
 3998TIP3    H112000   2.859   2.773   2.390
 3998TIP3    H212001   3.003   2.817   2.410
 3999TIP3   OH212002   1.472   5.068   2.072
 3999TIP3    H112003   1.394   5.079   2.017
 3999TIP3    H212004   1.462   4.981   2.110
 4000TIP3   OH212005   4.704   4.171   3.877
 4000TIP3    H112006   4.790   4.141   3.907
 4000TIP3    H212007   4.723   4.227   3.802
 4001TIP3   OH212008   4.452   2.270   0.921
 4001TIP3    H112009   4.472   2.242   0.832
 4001TIP3    H212010   4.390   2.342   0.911
 4002TIP3   OH212011   5.891   2.490   3.578
 4002TIP3    H112012   5.826   2.460   3.514
 4002TIP3    H212013   5.969   2.437   3.559
 4003TIP3   OH212014   1.582   4.882   3.305
 4003TIP3    H112015   1.654   4.848   3.358
 4003TIP3    H212016   1.504   4.872   3.360
 4004TIP3   OH212017   0.554   2.207   4.969
 4004TIP3    H112018   0.505   2.125   4.973
 4004TIP3    H212019   0.639   2.183   4.932
 4005TIP3   OH212020   5.274   5.169   1.261
 4005TIP3    H112021   5.265   5.190   1.169
 4005TIP3    H212022   5.189   5.134   1.286
 4006TIP3   OH212023   2.759   0.193   2.478
 4006TIP3    H112024   2.787   0.130   2.545
 4006TIP3    H212025   2.692   0.146   2.428
 4007TIP3   OH212026   5.271   0.806   3.582
 4007TIP3    H112027   5.299   0.805   3.673
 4007TIP3    H212028   5.176   0.792   3.586
 4008TIP3   OH212029   3.928   0.732   2.208
 4008TIP3    H112030   3.999   0.698   2.263
 4008TIP3    H212031   3.854   0.674   2.228
 4009TIP3   OH212032   2.706   0.894   2.848
 4009TIP3    H112033   2.699   0.799   2.836
 4009TIP3    H212034   2.750   0.904   2.932
 4010TIP3   OH212035   5.851   2.265   0.609
 4010TIP3    H112036   5.895   2.206   0.548
 4010TIP3    H212037   5.897   2.252   0.692
 4011TIP3   OH212038   4.562   4.575   2.180
 4011TIP3    H112039   4.621   4.636   2.137
 4011TIP3    H212040   4.619   4.507   2.216
 4012TIP3   OH212041   3.481   5.318   4.147
 4012TIP3    H112042   3.529   5.235   4.146
 4012TIP3    H212043   3.485   5.347   4.238
 4013TIP3   OH212044   0.597   2.183   0.091
 4013TIP3    H112045   0.669   2.122   0.105
 4013TIP3    H212046   0.531   2.133   0.043
 4014TIP3   OH212047   4.719   5.086   3.050
 4014TIP3    H112048   4.647   5.037   3.089
 4014TIP3    H212049   4.733   5.159   3.111
 4015TIP3   OH212050   5.994   3.992   2.070
 4015TIP3    H112051   6.080   3.962   2.100
 4015TIP3    H212052   6.013   4.074   2.023
 4016TIP3   OH212053   0.220   2.428   3.603
 4016TIP3    H112054   0.141   2.461   3.559
 4016TIP3    H212055   0.217   2.471   3.689
 4017TIP3   OH212056   3.564   3.849   2.265
 4017TIP3    H112057   3.576   3.905   2.188
 4017TIP3    H212058   3.512   3.902   2.325
 4018TIP3   OH212059   4.147   0.847   5.039
 4018TIP3    H112060   4.105   0.765   5.015
 4018TIP3    H212061   4.233   0.843   4.998
 4019TIP3   OH212062   4.872   3.307   2.838
 4019TIP3    H112063   4.850   3.341   2.751
 4019TIP3    H212064   4.875   3.385   2.894
 4020TIP3   OH212065   0.277   2.277   3.189
 4020TIP3    H112066   0.335   2.252   3.262
 4020TIP3    H212067   0.312   2.229   3.114
 4021TIP3   OH212068   5.186   2.810   1.206
 4021TIP3    H112069   5.210   2.721   1.231
 4021TIP3    H212070   5.245   2.866   1.257
 4022TIP3   OH212071   6.002   3.920   2.464
 4022TIP3    H112072   6.088   3.899   2.501
 4022TIP3    H212073   6.018   3.935   2.371
 4023TIP3   OH212074   4.643   5.602   3.023
 4023TIP3    H112075   4.575   5.667   3.004
 4023TIP3    H212076   4.710   5.651   3.071
 4024TIP3   OH212077   1.001   1.015   3.832
 4024TIP3    H112078   0.944   0.977   3.765
 4024TIP3    H212079   1.062   0.945   3.855
 4025TIP3   OH212080   5.012   4.396   1.979
 4025TIP3    H112081   4.969   4.322   1.937
 4025TIP3    H212082   5.098   4.363   2.004
 4026TIP3   OH212083   1.477   4.818   2.174
 4026TIP3    H112084   1.543   4.831   2.242
 4026TIP3    H212085   1.395   4.805   2.222
 4027TIP3   OH212086   0.308   2.620   0.381
 4027TIP3    H112087   0.295   2.669   0.463
 4027TIP3    H212088   0.402   2.625   0.364
 4028TIP3   OH212089   6.234   2.237   2.342
 4028TIP3    H112090   6.208   2.190   2.263
 4028TIP3    H212091   6.274   2.318   2.310
 4029TIP3   OH212092   2.801   3.249   3.154
 4029TIP3    H112093   2.730   3.293   3.201
 4029TIP3    H212094   2.810   3.299   3.073
 4030TIP3   OH212095   1.795   1.791   4.883
 4030TIP3    H112096   1.710   1.747   4.881
 4030TIP3    H212097   1.857   1.724   4.913
 4031TIP3   OH212098   0.619   5.703   3.055
 4031TIP3    H112099   0.690   5.738   3.002
 4031TIP3    H212100   0.604   5.769   3.122
 4032TIP3   OH212101   4.849   4.045   2.415
 4032TIP3    H112102   4.905   4.009   2.345
 4032TIP3    H212103   4.842   3.974   2.479
 4033TIP3   OH212104   4.123   1.623   4.618
 4033TIP3    H112105   4.102   1.696   4.560
 4033TIP3    H212106   4.062   1.632   4.692
 4034TIP3   OH212107   5.659   0.236   4.754
 4034TIP3    H112108   5.578   0.237   4.805
 4034TIP3    H212109   5.695   0.148   4.768
 4035TIP3   OH212110   3.930   5.260   2.168
 4035TIP3    H112111   4.020   5.264   2.198
 4035TIP3    H212112   3.889   5.194   2.224
 4036TIP3   OH212113   2.369   3.580   1.588
 4036TIP3    H112114   2.450   3.562   1.635
 4036TIP3    H212115   2.340   3.495   1.556
 4037TIP3   OH212116   1.783   3.702   2.165
 4037TIP3    H112117   1.737   3.655   2.235
 4037TIP3    H212118   1.778   3.644   2.090
 4038TIP3   OH212119   5.055   1.624   0.304
 4038TIP3    H112120   5.108   1.546   0.319
 4038TIP3    H212121   5.095   1.667   0.228
 4039TIP3   OH212122   5.165   4.113   1.441
 4039TIP3    H112123   5.139   4.065   1.519
 4039TIP3    H212124   5.155   4.205   1.465
 4040TIP3   OH212125   2.699   0.132   2.772
 4040TIP3    H112126   2.628   0.075   2.801
 4040TIP3    H212127   2.655   0.202   2.723
 4041TIP3   OH212128   0.543   4.524   1.088
 4041TIP3    H112129   0.539   4.544   0.995
 4041TIP3    H212130   0.612   4.459   1.096
 4042TIP3   OH212131   1.358   1.760   1.090
 4042TIP3    H112132   1.330   1.668   1.088
 4042TIP3    H212133   1.387   1.777   1.001
 4043TIP3   OH212134   1.122   2.854   4.050
 4043TIP3    H112135   1.140   2.921   3.984
 4043TIP3    H212136   1.029   2.864   4.070
 4044TIP3   OH212137   3.297   2.836   3.243
 4044TIP3    H112138   3.242   2.911   3.266
 4044TIP3    H212139   3.385   2.873   3.233
 4045TIP3   OH212140   3.430   4.079   0.366
 4045TIP3    H112141   3.353   4.067   0.422
 4045TIP3    H212142   3.504   4.059   0.423
 4046TIP3   OH212143   3.607   4.377   1.280
 4046TIP3    H112144   3.562   4.461   1.267
 4046TIP3    H212145   3.657   4.389   1.360
 4047TIP3   OH212146   3.861   1.513   2.272
 4047TIP3    H112147   3.898   1.425   2.275
 4047TIP3    H212148   3.773   1.503   2.309
 4048TIP3   OH212149   6.357   2.263   3.236
 4048TIP3    H112150   6.325   2.219   3.157
 4048TIP3    H212151   6.452   2.271   3.222
 4049TIP3   OH212152   1.274   3.654   5.015
 4049TIP3    H112153   1.264   3.665   4.921
 4049TIP3    H212154   1.247   3.563   5.031
 4050TIP3   OH212155   1.910   5.063   3.628
 4050TIP3    H112156   1.924   5.015   3.547
 4050TIP3    H212157   1.894   5.153   3.601
 4051TIP3   OH212158   3.612   2.569   0.357
 4051TIP3    H112159   3.542   2.514   0.321
 4051TIP3    H212160   3.614   2.645   0.299
 4052TIP3   OH212161   0.954   1.995   4.366
 4052TIP3    H112162   0.994   2.081   4.352
 4052TIP3    H212163   0.866   2.003   4.330
 4053TIP3   OH212164   0.274   5.911   4.361
 4053TIP3    H112165   0.337   5.974   4.398
 4053TIP3    H212166   0.317   5.879   4.281
 4054TIP3   OH212167   5.100   0.773   1.153
 4054TIP3    H112168   5.142   0.702   1.105
 4054TIP3    H212169   5.169   0.806   1.211
 4055TIP3   OH212170   5.651   3.245   2.566
 4055TIP3    H112171   5.591   3.237   2.640
 4055TIP3    H212172   5.594   3.266   2.492
 4056TIP3   OH212173   4.457   3.684   5.119
 4056TIP3    H112174   4.432   3.776   5.134
 4056TIP3    H212175   4.416   3.636   5.191
 4057TIP3   OH212176   1.844   4.337   4.366
 4057TIP3    H112177   1.839   4.344   4.271
 4057TIP3    H212178   1.921   4.283   4.383
 4058TIP3   OH212179   2.033   1.842   0.960
 4058TIP3    H112180   1.962   1.894   0.996
 4058TIP3    H212181   1.996   1.804   0.880
 4059TIP3   OH212182   6.292   2.571   4.303
 4059TIP3    H112183   6.375   2.534   4.333
 4059TIP3    H212184   6.280   2.535   4.215
 4060TIP3   OH212185   4.178   3.123   3.092
 4060TIP3    H112186   4.172   3.169   3.176
 4060TIP3    H212187   4.243   3.054   3.108
 4061TIP3   OH212188   0.077   3.340   3.283
 4061TIP3    H112189   0.143   3.365   3.218
 4061TIP3    H212190   0.075   3.244   3.280
 4062TIP3   OH212191   4.506   2.269   3.327
 4062TIP3    H112192   4.565   2.320   3.271
 4062TIP3    H212193   4.520   2.178   3.300
 4063TIP3   OH212194   2.723   0.593   1.910
 4063TIP3    H112195   2.749   0.646   1.985
 4063TIP3    H212196   2.790   0.611   1.844
 4064TIP3   OH212197   4.496   0.178   3.241
 4064TIP3    H112198   4.415   0.228   3.239
 4064TIP3    H212199   4.499   0.139   3.329
 4065TIP3   OH212200   3.435   4.437   3.991
 4065TIP3    H112201   3.504   4.373   4.005
 4065TIP3    H212202   3.440   4.494   4.068
 4066TIP3   OH212203   3.702   3.029   1.881
 4066TIP3    H112204   3.701   3.124   1.888
 4066TIP3    H212205   3.617   3.007   1.844
 4067TIP3   OH212206   3.578   5.120   3.606
 4067TIP3    H112207   3.504   5.082   3.653
 4067TIP3    H212208   3.544   5.139   3.519
 4068TIP3   OH212209   0.063   3.124   1.777
 4068TIP3    H112210   0.040   3.068   1.704
 4068TIP3    H212211   0.033   3.211   1.751
 4069TIP3   OH212212   4.086   3.485   1.422
 4069TIP3    H112213   4.065   3.578   1.425
 4069TIP3    H212214   4.091   3.459   1.514
 4070TIP3   OH212215   0.797   0.437   1.471
 4070TIP3    H112216   0.816   0.529   1.448
 4070TIP3    H212217   0.746   0.443   1.552
 4071TIP3   OH212218   0.879   4.806   0.815
 4071TIP3    H112219   0.843   4.720   0.792
 4071TIP3    H212220   0.803   4.858   0.840
 4072TIP3   OH212221   2.198   3.710   3.846
 4072TIP3    H112222   2.235   3.797   3.858
 4072TIP3    H212223   2.174   3.681   3.934
 4073TIP3   OH212224   3.909   4.839   0.437
 4073TIP3    H112225   3.971   4.853   0.366
 4073TIP3    H212226   3.875   4.926   0.457
 4074TIP3   OH212227   6.005   2.834   1.257
 4074TIP3    H112228   6.016   2.738   1.256
 4074TIP3    H212229   5.928   2.850   1.203
 4075TIP3   OH212230   1.232   3.259   1.159
 4075TIP3    H112231   1.216   3.167   1.177
 4075TIP3    H212232   1.147   3.292   1.129
 4076TIP3   OH212233   2.665   5.256   1.956
 4076TIP3    H112234   2.658   5.351   1.968
 4076TIP3    H212235   2.578   5.222   1.980
 4077TIP3   OH212236   4.005   3.877   2.537
 4077TIP3    H112237   3.991   3.787   2.568
 4077TIP3    H212238   4.030   3.866   2.445
 4078TIP3   OH212239   2.816   1.945   2.659
 4078TIP3    H112240   2.736   1.933   2.711
 4078TIP3    H212241   2.792   1.914   2.571
 4079TIP3   OH212242   6.161   5.140   1.353
 4079TIP3    H112243   6.071   5.172   1.349
 4079TIP3    H212244   6.213   5.217   1.376
 4080TIP3   OH212245   4.266   3.483   1.808
 4080TIP3    H112246   4.191   3.432   1.776
 4080TIP3    H212247   4.310   3.425   1.870
 4081TIP3   OH212248   1.495   5.678   3.724
 4081TIP3    H112249   1.404   5.673   3.695
 4081TIP3    H212250   1.501   5.765   3.764
 4082TIP3   OH212251   2.930   1.589   3.463
 4082TIP3    H112252   2.880   1.670   3.468
 4082TIP3    H212253   2.868   1.525   3.428
 4083TIP3   OH212254   0.298   4.155   1.980
 4083TIP3    H112255   0.274   4.067   1.951
 4083TIP3    H212256   0.234   4.176   2.048
 4084TIP3   OH212257   3.887   1.637   1.418
 4084TIP3    H112258   3.874   1.693   1.494
 4084TIP3    H212259   3.818   1.663   1.357
 4085TIP3   OH212260   5.764   3.054   0.727
 4085TIP3    H112261   5.838   3.052   0.787
 4085TIP3    H212262   5.728   3.142   0.735
 4086TIP3   OH212263   2.431   1.871   5.094
 4086TIP3    H112264   2.479   1.909   5.021
 4086TIP3    H212265   2.432   1.939   5.161
 4087TIP3   OH212266   1.136   1.312   4.447
 4087TIP3    H112267   1.080   1.235   4.450
 4087TIP3    H212268   1.145   1.333   4.354
 4088TIP3   OH212269   4.036   3.749   3.792
 4088TIP3    H112270   4.099   3.682   3.764
 4088TIP3    H212271   4.082   3.832   3.780
 4089TIP3   OH212272   5.695   2.296   3.442
 4089TIP3    H112273   5.601   2.294   3.424
 4089TIP3    H212274   5.736   2.300   3.356
 4090TIP3   OH212275   4.327   1.821   4.776
 4090TIP3    H112276   4.236   1.829   4.745
 4090TIP3    H212277   4.334   1.886   4.845
 4091TIP3   OH212278   3.544   0.585   4.362
 4091TIP3    H112279   3.633   0.619   4.358
 4091TIP3    H212280   3.505   0.608   4.277
 4092TIP3   OH212281   1.506   5.175   0.769
 4092TIP3    H112282   1.454   5.126   0.833
 4092TIP3    H212283   1.486   5.133   0.685
 4093TIP3   OH212284   3.766   0.290   1.699
 4093TIP3    H112285   3.714   0.212   1.719
 4093TIP3    H212286   3.701   0.359   1.686
 4094TIP3   OH212287   3.538   0.455   1.733
 4094TIP3    H112288   3.529   0.406   1.815
 4094TIP3    H212289   3.449   0.476   1.707
 4095TIP3   OH212290   4.041   2.909   4.875
 4095TIP3    H112291   4.108   2.948   4.818
 4095TIP3    H212292   4.085   2.900   4.959
 4096TIP3   OH212293   4.801   3.242   2.399
 4096TIP3    H112294   4.800   3.235   2.304
 4096TIP3    H212295   4.814   3.152   2.430
 4097TIP3   OH212296   0.683   2.122   2.199
 4097TIP3    H112297   0.735   2.150   2.275
 4097TIP3    H212298   0.736   2.148   2.123
 4098TIP3   OH212299   4.100   5.215   3.860
 4098TIP3    H112300   4.171   5.280   3.865
 4098TIP3    H212301   4.032   5.259   3.808
 4099TIP3   OH212302   2.298   5.158   3.020
 4099TIP3    H112303   2.203   5.171   3.015
 4099TIP3    H212304   2.331   5.238   3.059
 4100TIP3   OH212305   3.498   3.595   3.793
 4100TIP3    H112306   3.501   3.560   3.704
 4100TIP3    H212307   3.485   3.517   3.848
 4101TIP3   OH212308   0.506   1.478   1.460
 4101TIP3    H112309   0.462   1.406   1.415
 4101TIP3    H212310   0.572   1.509   1.397
 4102TIP3   OH212311   6.181   1.539   0.470
 4102TIP3    H112312   6.232   1.486   0.409
 4102TIP3    H212313   6.150   1.476   0.536
 4103TIP3   OH212314   4.972   3.038   1.065
 4103TIP3    H112315   4.986   3.099   1.138
 4103TIP3    H212316   4.943   3.093   0.992
 4104TIP3   OH212317   1.579   0.446   4.085
 4104TIP3    H112318   1.535   0.379   4.032
 4104TIP3    H212319   1.605   0.513   4.022
 4105TIP3   OH212320   1.477   5.110   0.041
 4105TIP3    H112321   1.467   5.015   0.035
 4105TIP3    H212322   1.567   5.126   0.013
 4106TIP3   OH212323   2.071   4.180   4.176
 4106TIP3    H112324   2.152   4.182   4.226
 4106TIP3    H212325   2.053   4.087   4.162
 4107TIP3   OH212326   1.304   0.417   2.011
 4107TIP3    H112327   1.286   0.355   1.940
 4107TIP3    H212328   1.358   0.485   1.971
 4108TIP3   OH212329   0.674   1.688   2.533
 4108TIP3    H112330   0.598   1.745   2.542
 4108TIP3    H212331   0.664   1.647   2.447
 4109TIP3   OH212332   2.005   0.777   3.429
 4109TIP3    H112333   1.934   0.816   3.378
 4109TIP3    H212334   1.980   0.686   3.440
 4110TIP3   OH212335   1.249   1.070   4.108
 4110TIP3    H112336   1.218   1.131   4.041
 4110TIP3    H212337   1.258   0.987   4.063
 4111TIP3   OH212338   5.159   5.645   3.793
 4111TIP3    H112339   5.150   5.564   3.844
 4111TIP3    H212340   5.250   5.671   3.808
 4112TIP3   OH212341   1.282   0.171   2.173
 4112TIP3    H112342   1.334   0.240   2.133
 4112TIP3    H212343   1.191   0.192   2.150
 4113TIP3   OH212344   3.044   0.417   2.788
 4113TIP3    H112345   3.027   0.323   2.788
 4113TIP3    H212346   3.139   0.424   2.788
 4114TIP3   OH212347   5.932   4.368   3.450
 4114TIP3    H112348   5.913   4.305   3.519
 4114TIP3    H212349   5.912   4.454   3.488
 4115TIP3   OH212350   4.958   1.583   3.940
 4115TIP3    H112351   4.990   1.495   3.918
 4115TIP3    H212352   5.007   1.607   4.019
 4116TIP3   OH212353   5.184   4.989   1.530
 4116TIP3    H112354   5.115   5.008   1.467
 4116TIP3    H212355   5.155   5.031   1.611
 4117TIP3   OH212356   0.035   4.429   0.320
 4117TIP3    H112357   0.002   4.345   0.353
 4117TIP3    H212358  -0.039   4.489   0.329
 4118TIP3   OH212359   6.226   5.417   2.031
 4118TIP3    H112360   6.283   5.341   2.017
 4118TIP3    H212361   6.257   5.454   2.114
 4119TIP3   OH212362   0.467   4.195   4.132
 4119TIP3    H112363   0.427   4.127   4.078
 4119TIP3    H212364   0.560   4.192   4.109
 4120TIP3   OH212365   1.528   4.179   1.817
 4120TIP3    H112366   1.554   4.231   1.741
 4120TIP3    H212367   1.440   4.211   1.839
 4121TIP3   OH212368   3.827   4.796   4.808
 4121TIP3    H112369   3.848   4.837   4.892
 4121TIP3    H212370   3.825   4.702   4.828
 4122TIP3   OH212371   3.728   1.851   4.373
 4122TIP3    H112372   3.791   1.854   4.301
 4122TIP3    H212373   3.752   1.774   4.423
 4123TIP3   OH212374   5.963   3.055   0.918
 4123TIP3    H112375   5.990   3.136   0.962
 4123TIP3    H212376   5.948   2.993   0.989
 4124TIP3   OH212377   5.490   0.972   0.220
 4124TIP3    H112378   5.449   1.038   0.164
 4124TIP3    H212379   5.464   0.888   0.183
 4125TIP3   OH212380   3.453   3.373   3.967
 4125TIP3    H112381   3.424   3.288   3.934
 4125TIP3    H212382   3.396   3.390   4.042
 4126TIP3   OH212383   4.556   0.168   4.086
 4126TIP3    H112384   4.644   0.140   4.110
 4126TIP3    H212385   4.548   0.257   4.121
 4127TIP3   OH212386   1.761   2.385   5.053
 4127TIP3    H112387   1.835   2.392   5.113
 4127TIP3    H212388   1.778   2.452   4.986
 4128TIP3   OH212389   3.596   2.551   2.577
 4128TIP3    H112390   3.597   2.489   2.650
 4128TIP3    H212391   3.536   2.620   2.605
 4129TIP3   OH212392   4.109   4.782   3.119
 4129TIP3    H112393   4.112   4.875   3.099
 4129TIP3    H212394   4.182   4.768   3.180
 4130TIP3   OH212395   3.774   4.488   2.392
 4130TIP3    H112396   3.844   4.425   2.379
 4130TIP3    H212397   3.818   4.566   2.426
 4131TIP3   OH212398   0.891   5.962   2.175
 4131TIP3    H112399   0.944   5.954   2.096
 4131TIP3    H212400   0.950   5.937   2.246
 4132TIP3   OH212401   5.598   0.348   0.025
 4132TIP3    H112402   5.517   0.393   0.002
 4132TIP3    H212403   5.660   0.418   0.044
 4133TIP3   OH212404   2.397   2.486   2.596
 4133TIP3    H112405   2.354   2.404   2.572
 4133TIP3    H212406   2.462   2.461   2.662
 4134TIP3   OH212407   3.388   1.713   1.356
 4134TIP3    H112408   3.318   1.733   1.295
 4134TIP3    H212409   3.354   1.737   1.442
 4135TIP3   OH212410   2.882   4.052   0.746
 4135TIP3    H112411   2.920   4.097   0.671
 4135TIP3    H212412   2.916   3.962   0.739
 4136TIP3   OH212413   2.851   3.283   4.291
 4136TIP3    H112414   2.921   3.337   4.327
 4136TIP3    H212415   2.838   3.317   4.202
 4137TIP3   OH212416   3.366   1.158   3.286
 4137TIP3    H112417   3.425   1.143   3.213
 4137TIP3    H212418   3.404   1.233   3.333
 4138TIP3   OH212419   4.468   2.873   2.971
 4138TIP3    H112420   4.514   2.946   3.014
 4138TIP3    H212421   4.532   2.839   2.908
 4139TIP3   OH212422   3.390   2.196   2.511
 4139TIP3    H112423   3.346   2.229   2.590
 4139TIP3    H212424   3.463   2.256   2.498
 4140TIP3   OH212425   3.031   4.765   2.021
 4140TIP3    H112426   3.060   4.712   2.095
 4140TIP3    H212427   3.112   4.785   1.973
 4141TIP3   OH212428   4.645   3.779   0.420
 4141TIP3    H112429   4.593   3.744   0.492
 4141TIP3    H212430   4.607   3.866   0.403
 4142TIP3   OH212431   2.178   3.470   2.260
 4142TIP3    H112432   2.110   3.408   2.286
 4142TIP3    H212433   2.222   3.492   2.342
 4143TIP3   OH212434   2.449   0.243   2.029
 4143TIP3    H112435   2.375   0.304   2.023
 4143TIP3    H212436   2.409   0.157   2.022
 4144TIP3   OH212437   3.272   2.955   1.213
 4144TIP3    H112438   3.354   3.004   1.204
 4144TIP3    H212439   3.264   2.908   1.130
 4145TIP3   OH212440   1.458   4.275   2.607
 4145TIP3    H112441   1.503   4.255   2.524
 4145TIP3    H212442   1.511   4.231   2.673
 4146TIP3   OH212443   0.359   5.438   0.793
 4146TIP3    H112444   0.320   5.525   0.784
 4146TIP3    H212445   0.453   5.453   0.795
 4147TIP3   OH212446   2.065   1.056   3.956
 4147TIP3    H112447   2.018   1.005   4.023
 4147TIP3    H212448   2.055   1.005   3.876
 4148TIP3   OH212449   0.446   0.891   3.916
 4148TIP3    H112450   0.448   0.911   4.009
 4148TIP3    H212451   0.450   0.977   3.873
 4149TIP3   OH212452   6.324   3.412   0.353
 4149TIP3    H112453   6.375   3.453   0.422
 4149TIP3    H212454   6.387   3.397   0.282
 4150TIP3   OH212455   2.689   1.054   0.934
 4150TIP3    H112456   2.632   0.987   0.896
 4150TIP3    H212457   2.657   1.137   0.899
 4151TIP3   OH212458   0.610   1.899   1.542
 4151TIP3    H112459   0.569   1.972   1.588
 4151TIP3    H212460   0.550   1.878   1.471
 4152TIP3   OH212461   4.847   5.097   3.306
 4152TIP3    H112462   4.934   5.075   3.272
 4152TIP3    H212463   4.831   5.187   3.276
 4153TIP3   OH212464   2.726   2.856   4.332
 4153TIP3    H112465   2.815   2.881   4.309
 4153TIP3    H212466   2.692   2.811   4.254
 4154TIP3   OH212467   4.081   4.835   2.733
 4154TIP3    H112468   4.037   4.890   2.797
 4154TIP3    H212469   4.122   4.766   2.784
 4155TIP3   OH212470   2.672   2.485   1.164
 4155TIP3    H112471   2.595   2.537   1.189
 4155TIP3    H212472   2.746   2.529   1.206
 4156TIP3   OH212473   1.910   1.964   1.618
 4156TIP3    H112474   1.823   1.939   1.588
 4156TIP3    H212475   1.903   2.057   1.639
 4157TIP3   OH212476   5.868   3.561   1.131
 4157TIP3    H112477   5.848   3.578   1.223
 4157TIP3    H212478   5.902   3.644   1.098
 4158TIP3   OH212479   0.002   4.519   5.104
 4158TIP3    H112480   0.076   4.478   5.149
 4158TIP3    H212481  -0.055   4.550   5.174
 4159TIP3   OH212482   5.305   1.831   0.807
 4159TIP3    H112483   5.283   1.835   0.714
 4159TIP3    H212484   5.351   1.914   0.824
 4160TIP3   OH212485   0.564   4.679   3.014
 4160TIP3    H112486   0.549   4.727   3.096
 4160TIP3    H212487   0.536   4.590   3.033
 4161TIP3   OH212488   5.474   3.227   4.395
 4161TIP3    H112489   5.420   3.204   4.471
 4161TIP3    H212490   5.520   3.307   4.422
 4162TIP3   OH212491   1.273   5.737   4.310
 4162TIP3    H112492   1.327   5.784   4.374
 4162TIP3    H212493   1.311   5.759   4.225
 4163TIP3   OH212494   0.916   4.859   2.828
 4163TIP3    H112495   0.825   4.839   2.802
 4163TIP3    H212496   0.945   4.780   2.873
 4164TIP3   OH212497   6.069   0.041   1.583
 4164TIP3    H112498   6.066  -0.033   1.644
 4164TIP3    H212499   6.029   0.007   1.503
 4165TIP3   OH212500   5.059   3.980   2.913
 4165TIP3    H112501   5.102   4.025   2.986
 4165TIP3    H212502   5.114   4.001   2.837
 4166TIP3   OH212503   0.914   3.923   4.017
 4166TIP3    H112504   0.957   3.840   4.037
 4166TIP3    H212505   0.962   3.957   3.942
 4167TIP3   OH212506   4.762   5.417   2.852
 4167TIP3    H112507   4.822   5.487   2.827
 4167TIP3    H212508   4.713   5.452   2.927
 4168TIP3   OH212509   5.056   5.768   0.750
 4168TIP3    H112510   4.997   5.736   0.681
 4168TIP3    H212511   5.018   5.852   0.777
 4169TIP3   OH212512   4.327   1.445   0.207
 4169TIP3    H112513   4.254   1.500   0.178
 4169TIP3    H212514   4.315   1.440   0.302
 4170TIP3   OH212515   1.514   4.557   0.470
 4170TIP3    H112516   1.532   4.498   0.544
 4170TIP3    H212517   1.457   4.506   0.412
 4171TIP3   OH212518   0.847   2.058   3.233
 4171TIP3    H112519   0.809   2.075   3.319
 4171TIP3    H212520   0.939   2.083   3.242
 4172TIP3   OH212521   1.362   4.785   3.523
 4172TIP3    H112522   1.362   4.691   3.536
 4172TIP3    H212523   1.273   4.807   3.497
 4173TIP3   OH212524   3.118   2.365   1.618
 4173TIP3    H112525   3.114   2.381   1.712
 4173TIP3    H212526   3.167   2.283   1.610
 4174TIP3   OH212527   1.642   1.974   2.240
 4174TIP3    H112528   1.600   2.022   2.168
 4174TIP3    H212529   1.575   1.912   2.270
 4175TIP3   OH212530   3.826   5.041   1.573
 4175TIP3    H112531   3.848   5.096   1.648
 4175TIP3    H212532   3.830   5.100   1.498
 4176TIP3   OH212533   3.670   2.165   0.369
 4176TIP3    H112534   3.691   2.141   0.279
 4176TIP3    H212535   3.603   2.102   0.396
 4177TIP3   OH212536   2.599   5.527   2.379
 4177TIP3    H112537   2.534   5.485   2.434
 4177TIP3    H212538   2.680   5.480   2.397
 4178TIP3   OH212539   3.693   5.627   1.132
 4178TIP3    H112540   3.759   5.565   1.163
 4178TIP3    H212541   3.613   5.576   1.126
 4179TIP3   OH212542   6.189   1.249   1.091
 4179TIP3    H112543   6.207   1.288   1.177
 4179TIP3    H212544   6.096   1.226   1.094
 4180TIP3   OH212545   4.488   3.453   4.651
 4180TIP3    H112546   4.473   3.538   4.609
 4180TIP3    H212547   4.468   3.389   4.583
 4181TIP3   OH212548   3.409   3.120   1.845
 4181TIP3    H112549   3.407   3.024   1.841
 4181TIP3    H212550   3.386   3.148   1.757
 4182TIP3   OH212551   4.239   1.137   3.255
 4182TIP3    H112552   4.174   1.191   3.211
 4182TIP3    H212553   4.208   1.131   3.346
 4183TIP3   OH212554   1.939   4.526   0.190
 4183TIP3    H112555   1.921   4.462   0.121
 4183TIP3    H212556   1.880   4.598   0.171
 4184TIP3   OH212557   1.259   2.188   3.173
 4184TIP3    H112558   1.247   2.143   3.089
 4184TIP3    H212559   1.196   2.146   3.232
 4185TIP3   OH212560   4.263   5.321   1.234
 4185TIP3    H112561   4.351   5.348   1.257
 4185TIP3    H212562   4.274   5.235   1.194
 4186TIP3   OH212563   3.888   2.815   1.554
 4186TIP3    H112564   3.909   2.881   1.619
 4186TIP3    H212565   3.969   2.764   1.544
 4187TIP3   OH212566   3.149   2.492   3.744
 4187TIP3    H112567   3.211   2.456   3.681
 4187TIP3    H212568   3.199   2.504   3.824
 4188TIP3   OH212569   1.776   4.541   4.104
 4188TIP3    H112570   1.845   4.533   4.038
 4188TIP3    H212571   1.696   4.555   4.054
 4189TIP3   OH212572   3.279   0.311   3.762
 4189TIP3    H112573   3.250   0.391   3.719
 4189TIP3    H212574   3.253   0.322   3.853
 4190TIP3   OH212575   6.327   1.805   4.368
 4190TIP3    H112576   6.397   1.810   4.303
 4190TIP3    H212577   6.248   1.792   4.316
 4191TIP3   OH212578   0.841   1.711   1.894
 4191TIP3    H112579   0.773   1.644   1.900
 4191TIP3    H212580   0.855   1.721   1.800
 4192TIP3   OH212581   5.077   0.584   0.891
 4192TIP3    H112582   5.115   0.514   0.943
 4192TIP3    H212583   5.131   0.588   0.812
 4193TIP3   OH212584   5.303   1.964   0.529
 4193TIP3    H112585   5.224   1.932   0.485
 4193TIP3    H212586   5.283   2.054   0.553
 4194TIP3   OH212587   3.141   2.112   2.341
 4194TIP3    H112588   3.100   2.026   2.350
 4194TIP3    H212589   3.202   2.117   2.415
 4195TIP3   OH212590   3.116   2.052   0.815
 4195TIP3    H112591   3.023   2.062   0.796
 4195TIP3    H212592   3.130   2.101   0.896
 4196TIP3   OH212593   3.257   3.338   1.157
 4196TIP3    H112594   3.315   3.274   1.116
 4196TIP3    H212595   3.197   3.285   1.210
 4197TIP3   OH212596   0.345   5.027   2.288
 4197TIP3    H112597   0.435   5.003   2.264
 4197TIP3    H212598   0.291   4.984   2.221
 4198TIP3   OH212599   3.445   0.086   3.698
 4198TIP3    H112600   3.382   0.156   3.711
 4198TIP3    H212601   3.516   0.127   3.649
 4199TIP3   OH212602   5.707   2.491   1.234
 4199TIP3    H112603   5.707   2.463   1.143
 4199TIP3    H212604   5.631   2.448   1.273
 4200TIP3   OH212605   3.172   5.219   2.253
 4200TIP3    H112606   3.151   5.174   2.335
 4200TIP3    H212607   3.171   5.150   2.187
 4201TIP3   OH212608   1.370   5.720   3.411
 4201TIP3    H112609   1.436   5.789   3.419
 4201TIP3    H212610   1.320   5.724   3.492
 4202TIP3   OH212611   6.001   4.811   1.436
 4202TIP3    H112612   5.936   4.882   1.439
 4202TIP3    H212613   5.985   4.767   1.352
 4203TIP3   OH212614   5.889   3.660   3.335
 4203TIP3    H112615   5.831   3.735   3.347
 4203TIP3    H212616   5.890   3.616   3.420
 4204TIP3   OH212617   5.448   0.495   1.322
 4204TIP3    H112618   5.362   0.535   1.337
 4204TIP3    H212619   5.480   0.474   1.409
 4205TIP3   OH212620   2.335   1.029   4.759
 4205TIP3    H112621   2.349   1.083   4.836
 4205TIP3    H212622   2.336   1.090   4.685
 4206TIP3   OH212623   1.884   5.591   1.610
 4206TIP3    H112624   1.808   5.558   1.562
 4206TIP3    H212625   1.898   5.527   1.680
 4207TIP3   OH212626   0.476   2.354   4.360
 4207TIP3    H112627   0.429   2.334   4.279
 4207TIP3    H212628   0.500   2.268   4.395
 4208TIP3   OH212629   1.020   4.094   3.139
 4208TIP3    H112630   1.044   4.171   3.190
 4208TIP3    H212631   1.104   4.055   3.113
 4209TIP3   OH212632   1.797   0.253   4.107
 4209TIP3    H112633   1.760   0.202   4.179
 4209TIP3    H212634   1.737   0.327   4.098
 4210TIP3   OH212635   3.934   4.344   0.300
 4210TIP3    H112636   3.902   4.257   0.324
 4210TIP3    H212637   3.944   4.341   0.205
 4211TIP3   OH212638   3.445   5.544   4.946
 4211TIP3    H112639   3.452   5.490   5.025
 4211TIP3    H212640   3.429   5.632   4.979
 4212TIP3   OH212641   5.224   5.899   3.353
 4212TIP3    H112642   5.193   5.814   3.383
 4212TIP3    H212643   5.302   5.880   3.302
 4213TIP3   OH212644   0.028   5.986   3.800
 4213TIP3    H112645   0.004   6.078   3.810
 4213TIP3    H212646   0.108   5.977   3.852
 4214TIP3   OH212647   3.033   5.901   4.608
 4214TIP3    H112648   3.010   5.834   4.543
 4214TIP3    H212649   2.967   5.891   4.677
 4215TIP3   OH212650   4.207   1.330   4.653
 4215TIP3    H112651   4.144   1.338   4.725
 4215TIP3    H212652   4.291   1.353   4.692
 4216TIP3   OH212653   4.888   5.186   1.103
 4216TIP3    H112654   4.793   5.195   1.096
 4216TIP3    H212655   4.920   5.214   1.017
 4217TIP3   OH212656   4.615   2.496   4.941
 4217TIP3    H112657   4.662   2.551   5.004
 4217TIP3    H212658   4.682   2.435   4.909
 4218TIP3   OH212659   1.709   1.149   1.967
 4218TIP3    H112660   1.805   1.153   1.967
 4218TIP3    H212661   1.687   1.112   2.052
 4219TIP3   OH212662   4.254   4.321   0.173
 4219TIP3    H112663   4.190   4.383   0.138
 4219TIP3    H212664   4.250   4.246   0.114
 4220TIP3   OH212665   0.136   4.123   1.231
 4220TIP3    H112666   0.180   4.123   1.316
 4220TIP3    H212667   0.063   4.062   1.242
 4221TIP3   OH212668   3.936   0.747   0.636
 4221TIP3    H112669   3.974   0.769   0.721
 4221TIP3    H212670   3.848   0.714   0.657
 4222TIP3   OH212671   1.172   4.130   3.883
 4222TIP3    H112672   1.195   4.223   3.886
 4222TIP3    H212673   1.103   4.123   3.818
 4223TIP3   OH212674   0.162   0.785   2.126
 4223TIP3    H112675   0.131   0.720   2.062
 4223TIP3    H212676   0.233   0.831   2.080
 4224TIP3   OH212677   0.321   0.532   0.559
 4224TIP3    H112678   0.309   0.529   0.464
 4224TIP3    H212679   0.324   0.625   0.579
 4225TIP3   OH212680   0.494   4.949   3.570
 4225TIP3    H112681   0.562   4.909   3.516
 4225TIP3    H212682   0.422   4.968   3.510
 4226TIP3   OH212683   2.508   2.680   1.204
 4226TIP3    H112684   2.521   2.739   1.130
 4226TIP3    H212685   2.541   2.730   1.279
 4227TIP3   OH212686   5.718   2.690   4.826
 4227TIP3    H112687   5.667   2.704   4.906
 4227TIP3    H212688   5.809   2.688   4.856
 4228TIP3   OH212689   1.202   4.871   0.230
 4228TIP3    H112690   1.160   4.957   0.225
 4228TIP3    H212691   1.224   4.860   0.322
 4229TIP3   OH212692   2.852   0.498   0.576
 4229TIP3    H112693   2.800   0.519   0.654
 4229TIP3    H212694   2.943   0.513   0.603
 4230TIP3   OH212695   5.265   4.492   2.447
 4230TIP3    H112696   5.321   4.501   2.525
 4230TIP3    H212697   5.327   4.476   2.375
 4231TIP3   OH212698   1.553   1.242   2.803
 4231TIP3    H112699   1.486   1.229   2.737
 4231TIP3    H212700   1.564   1.337   2.809
 4232TIP3   OH212701   5.708   3.164   3.088
 4232TIP3    H112702   5.728   3.257   3.094
 4232TIP3    H212703   5.757   3.133   3.012
 4233TIP3   OH212704   4.852   5.396   0.190
 4233TIP3    H112705   4.923   5.376   0.130
 4233TIP3    H212706   4.866   5.488   0.214
 4234TIP3   OH212707   2.468   0.568   2.272
 4234TIP3    H112708   2.558   0.561   2.303
 4234TIP3    H212709   2.476   0.595   2.181
 4235TIP3   OH212710   3.608   5.746   3.682
 4235TIP3    H112711   3.531   5.801   3.669
 4235TIP3    H212712   3.573   5.658   3.695
 4236TIP3   OH212713   4.529   1.192   3.250
 4236TIP3    H112714   4.502   1.281   3.227
 4236TIP3    H212715   4.446   1.145   3.262
 4237TIP3   OH212716   2.966   5.412   3.982
 4237TIP3    H112717   2.936   5.325   3.955
 4237TIP3    H212718   3.061   5.403   3.987
 4238TIP3   OH212719   3.916   0.941   3.216
 4238TIP3    H112720   3.918   1.009   3.149
 4238TIP3    H212721   3.874   0.983   3.291
 4239TIP3   OH212722   5.469   0.948   3.469
 4239TIP3    H112723   5.541   0.941   3.532
 4239TIP3    H212724   5.393   0.915   3.518
 4240TIP3   OH212725   1.654   1.250   2.543
 4240TIP3    H112726   1.701   1.307   2.603
 4240TIP3    H212727   1.680   1.161   2.568
 4241TIP3   OH212728   1.357   4.103   2.252
 4241TIP3    H112729   1.406   4.060   2.322
 4241TIP3    H212730   1.421   4.161   2.210
 4242TIP3   OH212731   5.476   0.851   0.575
 4242TIP3    H112732   5.502   0.810   0.492
 4242TIP3    H212733   5.553   0.841   0.631
 4243TIP3   OH212734   3.147   0.276   4.541
 4243TIP3    H112735   3.057   0.245   4.537
 4243TIP3    H212736   3.164   0.291   4.634
 4244TIP3   OH212737   6.090   0.467   4.217
 4244TIP3    H112738   6.007   0.478   4.264
 4244TIP3    H212739   6.078   0.387   4.166
 4245TIP3   OH212740   2.056   1.876   3.548
 4245TIP3    H112741   2.023   1.964   3.567
 4245TIP3    H212742   2.062   1.874   3.452
 4246TIP3   OH212743   0.256   5.302   4.536
 4246TIP3    H112744   0.312   5.252   4.596
 4246TIP3    H212745   0.200   5.237   4.494
 4247TIP3   OH212746   6.080   3.903   5.028
 4247TIP3    H112747   6.100   3.865   5.114
 4247TIP3    H212748   6.134   3.854   4.967
 4248TIP3   OH212749   5.241   5.322   1.808
 4248TIP3    H112750   5.179   5.395   1.801
 4248TIP3    H212751   5.319   5.353   1.762
 4249TIP3   OH212752   6.040   0.926   3.379
 4249TIP3    H112753   6.101   0.983   3.428
 4249TIP3    H212754   5.966   0.983   3.360
 4250TIP3   OH212755   2.704   3.282   0.670
 4250TIP3    H112756   2.630   3.343   0.672
 4250TIP3    H212757   2.732   3.280   0.579
 4251TIP3   OH212758   4.827   4.244   1.857
 4251TIP3    H112759   4.798   4.332   1.831
 4251TIP3    H212760   4.784   4.185   1.795
 4252TIP3   OH212761   6.028   0.339   1.983
 4252TIP3    H112762   6.071   0.304   2.061
 4252TIP3    H212763   5.954   0.281   1.969
 4253TIP3   OH212764   5.319   4.737   4.411
 4253TIP3    H112765   5.237   4.688   4.411
 4253TIP3    H212766   5.376   4.689   4.352
 4254TIP3   OH212767   5.934   2.233   2.831
 4254TIP3    H112768   5.999   2.294   2.865
 4254TIP3    H212769   5.850   2.274   2.854
 4255TIP3   OH212770   0.889   3.747   0.970
 4255TIP3    H112771   0.927   3.778   1.052
 4255TIP3    H212772   0.858   3.659   0.990
 4256TIP3   OH212773   1.720   2.021   4.742
 4256TIP3    H112774   1.625   2.023   4.755
 4256TIP3    H212775   1.754   1.974   4.818
 4257TIP3   OH212776   4.590   5.254   0.240
 4257TIP3    H112777   4.682   5.238   0.218
 4257TIP3    H212778   4.552   5.289   0.160
 4258TIP3   OH212779   1.421   3.943   3.187
 4258TIP3    H112780   1.481   3.938   3.113
 4258TIP3    H212781   1.421   3.855   3.225
 4259TIP3   OH212782   3.162   0.236   1.333
 4259TIP3    H112783   3.077   0.196   1.316
 4259TIP3    H212784   3.219   0.200   1.265
 4260TIP3   OH212785   0.317   0.479   0.285
 4260TIP3    H112786   0.373   0.436   0.220
 4260TIP3    H212787   0.235   0.431   0.281
 4261TIP3   OH212788   5.288   4.933   3.432
 4261TIP3    H112789   5.292   4.856   3.489
 4261TIP3    H212790   5.326   4.903   3.349
 4262TIP3   OH212791   0.972   2.209   2.312
 4262TIP3    H112792   1.012   2.243   2.233
 4262TIP3    H212793   1.005   2.119   2.319
 4263TIP3   OH212794   5.952   5.312   0.257
 4263TIP3    H112795   6.019   5.291   0.192
 4263TIP3    H212796   5.875   5.263   0.230
 4264TIP3   OH212797   5.999   5.137   5.013
 4264TIP3    H112798   5.919   5.176   4.979
 4264TIP3    H212799   5.986   5.133   5.107
 4265TIP3   OH212800   6.058   4.951   1.870
 4265TIP3    H112801   6.011   4.985   1.946
 4265TIP3    H212802   6.048   4.856   1.877
 4266TIP3   OH212803   3.633   1.991   4.849
 4266TIP3    H112804   3.653   2.082   4.826
 4266TIP3    H212805   3.660   1.941   4.772
 4267TIP3   OH212806   2.896   2.199   1.405
 4267TIP3    H112807   2.896   2.254   1.483
 4267TIP3    H212808   2.970   2.231   1.353
 4268TIP3   OH212809   2.445   3.825   0.462
 4268TIP3    H112810   2.438   3.852   0.554
 4268TIP3    H212811   2.486   3.738   0.465
 4269TIP3   OH212812   3.176   2.234   5.179
 4269TIP3    H112813   3.246   2.235   5.244
 4269TIP3    H212814   3.121   2.160   5.204
 4270TIP3   OH212815   0.540   2.053   3.446
 4270TIP3    H112816   0.515   2.140   3.416
 4270TIP3    H212817   0.559   2.064   3.539
 4271TIP3   OH212818   1.616   4.660   3.897
 4271TIP3    H112819   1.591   4.588   3.839
 4271TIP3    H212820   1.669   4.717   3.842
 4272TIP3   OH212821   2.864   0.076   3.669
 4272TIP3    H112822   2.946   0.092   3.622
 4272TIP3    H212823   2.857   0.151   3.729
 4273TIP3   OH212824   1.147   5.015   2.578
 4273TIP3    H112825   1.158   5.020   2.673
 4273TIP3    H212826   1.056   4.989   2.565
 4274TIP3   OH212827   4.303   4.721   1.751
 4274TIP3    H112828   4.256   4.714   1.668
 4274TIP3    H212829   4.247   4.775   1.806
 4275TIP3   OH212830   2.836   3.735   2.473
 4275TIP3    H112831   2.836   3.640   2.483
 4275TIP3    H212832   2.761   3.754   2.417
 4276TIP3   OH212833   2.450   0.302   2.651
 4276TIP3    H112834   2.381   0.264   2.705
 4276TIP3    H212835   2.405   0.330   2.571
 4277TIP3   OH212836   4.359   2.666   3.462
 4277TIP3    H112837   4.292   2.709   3.409
 4277TIP3    H212838   4.407   2.738   3.504
 4278TIP3   OH212839   3.805   0.912   1.631
 4278TIP3    H112840   3.833   0.959   1.552
 4278TIP3    H212841   3.884   0.870   1.664
 4279TIP3   OH212842   1.668   0.895   1.083
 4279TIP3    H112843   1.627   0.960   1.026
 4279TIP3    H212844   1.711   0.947   1.151
 4280TIP3   OH212845   3.692   4.881   2.052
 4280TIP3    H112846   3.766   4.858   2.108
 4280TIP3    H212847   3.679   4.803   1.998
 4281TIP3   OH212848   4.850   0.161   2.324
 4281TIP3    H112849   4.875   0.222   2.394
 4281TIP3    H212850   4.930   0.148   2.273
 4282TIP3   OH212851   1.630   3.851   3.029
 4282TIP3    H112852   1.695   3.816   2.968
 4282TIP3    H212853   1.550   3.802   3.011
 4283TIP3   OH212854   4.120   2.020   3.228
 4283TIP3    H112855   4.173   2.081   3.178
 4283TIP3    H212856   4.178   1.946   3.247
 4284TIP3   OH212857   2.385   0.653   2.540
 4284TIP3    H112858   2.293   0.656   2.565
 4284TIP3    H212859   2.383   0.627   2.447
 4285TIP3   OH212860   4.684   5.407   1.708
 4285TIP3    H112861   4.669   5.332   1.766
 4285TIP3    H212862   4.604   5.459   1.715
 4286TIP3   OH212863   0.881   0.187   3.771
 4286TIP3    H112864   0.902   0.128   3.699
 4286TIP3    H212865   0.935   0.264   3.755
 4287TIP3   OH212866   1.587   1.181   4.713
 4287TIP3    H112867   1.622   1.096   4.738
 4287TIP3    H212868   1.574   1.174   4.618
 4288TIP3   OH212869   1.916   1.312   1.709
 4288TIP3    H112870   1.859   1.247   1.668
 4288TIP3    H212871   1.953   1.268   1.785
 4289TIP3   OH212872   0.182   4.612   2.272
 4289TIP3    H112873   0.269   4.602   2.310
 4289TIP3    H212874   0.194   4.675   2.201
 4290TIP3   OH212875   2.426   4.863   2.994
 4290TIP3    H112876   2.405   4.953   2.970
 4290TIP3    H212877   2.494   4.872   3.061
 4291TIP3   OH212878   3.977   0.877   3.984
 4291TIP3    H112879   3.898   0.840   3.943
 4291TIP3    H212880   3.961   0.867   4.078
 4292TIP3   OH212881   6.324   1.102   1.595
 4292TIP3    H112882   6.275   1.091   1.677
 4292TIP3    H212883   6.258   1.130   1.532
 4293TIP3   OH212884   4.048   3.616   4.778
 4293TIP3    H112885   4.058   3.706   4.808
 4293TIP3    H212886   4.121   3.569   4.819
 4294TIP3   OH212887   6.235   4.273   2.932
 4294TIP3    H112888   6.236   4.298   3.025
 4294TIP3    H212889   6.178   4.338   2.891
 4295TIP3   OH212890   0.586   0.281   2.715
 4295TIP3    H112891   0.594   0.208   2.777
 4295TIP3    H212892   0.675   0.311   2.702
 4296TIP3   OH212893   1.415   4.629   1.178
 4296TIP3    H112894   1.485   4.681   1.138
 4296TIP3    H212895   1.335   4.660   1.136
 4297TIP3   OH212896   3.343   2.759   2.497
 4297TIP3    H112897   3.334   2.693   2.565
 4297TIP3    H212898   3.253   2.786   2.477
 4298TIP3   OH212899   5.857   1.016   4.035
 4298TIP3    H112900   5.850   0.960   4.112
 4298TIP3    H212901   5.767   1.036   4.011
 4299TIP3   OH212902   5.476   5.825   3.534
 4299TIP3    H112903   5.490   5.854   3.444
 4299TIP3    H212904   5.429   5.897   3.575
 4300TIP3   OH212905   4.570   3.476   3.562
 4300TIP3    H112906   4.651   3.525   3.577
 4300TIP3    H212907   4.502   3.543   3.559
 4301TIP3   OH212908   4.803   1.251   0.656
 4301TIP3    H112909   4.878   1.289   0.610
 4301TIP3    H212910   4.772   1.182   0.597
 4302TIP3   OH212911   0.592   1.900   0.822
 4302TIP3    H112912   0.685   1.912   0.843
 4302TIP3    H212913   0.573   1.811   0.853
 4303TIP3   OH212914   3.429   0.290   0.869
 4303TIP3    H112915   3.517   0.299   0.832
 4303TIP3    H212916   3.440   0.233   0.945
 4304TIP3   OH212917   1.558   4.244   4.048
 4304TIP3    H112918   1.525   4.178   3.987
 4304TIP3    H212919   1.481   4.273   4.097
 4305TIP3   OH212920   5.294   5.738   0.593
 4305TIP3    H112921   5.234   5.729   0.668
 4305TIP3    H212922   5.374   5.775   0.630
 4306TIP3   OH212923   0.208   4.895   2.903
 4306TIP3    H112924   0.234   4.802   2.902
 4306TIP3    H212925   0.122   4.895   2.946
 4307TIP3   OH212926   0.232   4.588   2.857
 4307TIP3    H112927   0.215   4.549   2.943
 4307TIP3    H212928   0.327   4.598   2.853
 4308TIP3   OH212929   5.236   4.108   3.673
 4308TIP3    H112930   5.260   4.192   3.712
 4308TIP3    H212931   5.319   4.061   3.666
 4309TIP3   OH212932   3.641   2.863   1.451
 4309TIP3    H112933   3.724   2.825   1.480
 4309TIP3    H212934   3.666   2.947   1.412
 4310TIP3   OH212935   0.919   5.349   0.072
 4310TIP3    H112936   0.890   5.423   0.018
 4310TIP3    H212937   0.995   5.315   0.026
 4311TIP3   OH212938   6.015   4.686   0.043
 4311TIP3    H112939   6.020   4.697   0.138
 4311TIP3    H212940   6.019   4.592   0.029
 4312TIP3   OH212941   3.787   2.198   4.198
 4312TIP3    H112942   3.692   2.205   4.198
 4312TIP3    H212943   3.817   2.279   4.240
 4313TIP3   OH212944   3.423   2.572   1.885
 4313TIP3    H112945   3.480   2.552   1.959
 4313TIP3    H212946   3.336   2.581   1.922
 4314TIP3   OH212947   5.904   0.914   2.623
 4314TIP3    H112948   5.841   0.964   2.676
 4314TIP3    H212949   5.850   0.874   2.554
 4315TIP3   OH212950   2.641   5.872   1.260
 4315TIP3    H112951   2.551   5.872   1.295
 4315TIP3    H212952   2.682   5.796   1.302
 4316TIP3   OH212953   3.327   0.844   0.453
 4316TIP3    H112954   3.292   0.765   0.411
 4316TIP3    H212955   3.273   0.855   0.531
 4317TIP3   OH212956   4.528   1.452   0.521
 4317TIP3    H112957   4.457   1.501   0.481
 4317TIP3    H212958   4.586   1.430   0.448
 4318TIP3   OH212959   5.046   3.943   1.922
 4318TIP3    H112960   4.953   3.952   1.943
 4318TIP3    H212961   5.087   3.919   2.005
 4319TIP3   OH212962   2.146   4.773   1.825
 4319TIP3    H112963   2.201   4.792   1.901
 4319TIP3    H212964   2.205   4.729   1.764
 4320TIP3   OH212965   2.861   0.302   3.479
 4320TIP3    H112966   2.931   0.349   3.434
 4320TIP3    H212967   2.820   0.368   3.535
 4321TIP3   OH212968   6.054   4.460   3.161
 4321TIP3    H112969   6.148   4.475   3.168
 4321TIP3    H212970   6.033   4.400   3.232
 4322TIP3   OH212971   5.041   4.711   1.691
 4322TIP3    H112972   5.078   4.766   1.622
 4322TIP3    H212973   4.973   4.660   1.646
 4323TIP3   OH212974   1.691   2.893   1.524
 4323TIP3    H112975   1.751   2.818   1.535
 4323TIP3    H212976   1.729   2.943   1.451
 4324TIP3   OH212977   1.964   3.623   3.726
 4324TIP3    H112978   1.918   3.686   3.782
 4324TIP3    H212979   2.055   3.654   3.726
 4325TIP3   OH212980   4.887   0.500   1.533
 4325TIP3    H112981   4.827   0.426   1.521
 4325TIP3    H212982   4.854   0.567   1.474
 4326TIP3   OH212983   5.285   0.383   5.192
 4326TIP3    H112984   5.253   0.357   5.279
 4326TIP3    H212985   5.211   0.430   5.153
 4327TIP3   OH212986   2.277   3.068   3.055
 4327TIP3    H112987   2.259   3.008   2.983
 4327TIP3    H212988   2.317   3.145   3.013
 4328TIP3   OH212989   0.655   0.478   1.697
 4328TIP3    H112990   0.559   0.477   1.690
 4328TIP3    H212991   0.674   0.551   1.755
 4329TIP3   OH212992   2.374   3.973   1.712
 4329TIP3    H112993   2.456   3.931   1.739
 4329TIP3    H212994   2.382   3.983   1.617
 4330TIP3   OH212995   4.329   1.647   1.855
 4330TIP3    H112996   4.358   1.557   1.839
 4330TIP3    H212997   4.336   1.689   1.769
 4331TIP3   OH212998   5.230   0.932   1.547
 4331TIP3    H112999   5.168   0.905   1.614
 4331TIP3    H213000   5.307   0.963   1.596
 4332TIP3   OH213001   5.919   5.960   4.879
 4332TIP3    H113002   5.909   6.007   4.962
 4332TIP3    H213003   6.011   5.934   4.877
 4333TIP3   OH213004   2.875   0.648   1.387
 4333TIP3    H113005   2.810   0.639   1.317
 4333TIP3    H213006   2.935   0.575   1.374
 4334TIP3   OH213007   2.005   2.833   5.162
 4334TIP3    H113008   2.063   2.830   5.085
 4334TIP3    H213009   2.059   2.800   5.234
 4335TIP3   OH213010   4.137   2.935   4.499
 4335TIP3    H113011   4.198   2.942   4.426
 4335TIP3    H213012   4.163   3.005   4.559
 4336TIP3   OH213013   2.858   4.735   4.436
 4336TIP3    H113014   2.921   4.780   4.492
 4336TIP3    H213015   2.777   4.785   4.446
 4337TIP3   OH213016   6.138   5.142   3.121
 4337TIP3    H113017   6.105   5.106   3.039
 4337TIP3    H213018   6.141   5.066   3.180
 4338TIP3   OH213019   4.744   3.417   4.112
 4338TIP3    H113020   4.738   3.511   4.127
 4338TIP3    H213021   4.666   3.380   4.153
 4339TIP3   OH213022   4.393   1.662   5.035
 4339TIP3    H113023   4.334   1.738   5.035
 4339TIP3    H213024   4.362   1.608   5.108
 4340TIP3   OH213025   6.297   5.227   4.424
 4340TIP3    H113026   6.285   5.258   4.334
 4340TIP3    H213027   6.230   5.273   4.474
 4341TIP3   OH213028   3.787   2.683   4.787
 4341TIP3    H113029   3.845   2.743   4.738
 4341TIP3    H213030   3.833   2.669   4.870
 4342TIP3   OH213031   1.797   2.642   2.956
 4342TIP3    H113032   1.739   2.572   2.925
 4342TIP3    H213033   1.738   2.702   3.003
 4343TIP3   OH213034   5.955   2.739   3.159
 4343TIP3    H113035   5.988   2.713   3.073
 4343TIP3    H213036   5.949   2.835   3.154
 4344TIP3   OH213037   3.224   0.550   0.282
 4344TIP3    H113038   3.221   0.490   0.208
 4344TIP3    H213039   3.278   0.505   0.347
 4345TIP3   OH213040   5.656   4.300   2.986
 4345TIP3    H113041   5.570   4.264   2.963
 4345TIP3    H213042   5.637   4.389   3.017
 4346TIP3   OH213043   2.746   4.978   4.435
 4346TIP3    H113044   2.776   5.012   4.350
 4346TIP3    H213045   2.777   5.042   4.499
 4347TIP3   OH213046   3.869   2.165   3.469
 4347TIP3    H113047   3.899   2.077   3.492
 4347TIP3    H213048   3.802   2.185   3.534
 4348TIP3   OH213049   5.484   1.897   4.366
 4348TIP3    H113050   5.401   1.851   4.382
 4348TIP3    H213051   5.546   1.828   4.344
 4349TIP3   OH213052   0.980   4.232   4.778
 4349TIP3    H113053   0.977   4.174   4.702
 4349TIP3    H213054   0.898   4.282   4.773
 4350TIP3   OH213055   1.351   0.163   1.394
 4350TIP3    H113056   1.401   0.245   1.394
 4350TIP3    H213057   1.301   0.166   1.312
 4351TIP3   OH213058   1.118   5.130   4.869
 4351TIP3    H113059   1.087   5.215   4.900
 4351TIP3    H213060   1.182   5.150   4.801
 4352TIP3   OH213061   2.735   1.997   0.506
 4352TIP3    H113062   2.717   1.945   0.584
 4352TIP3    H213063   2.777   2.076   0.539
 4353TIP3   OH213064   6.239   0.570   4.427
 4353TIP3    H113065   6.192   0.521   4.360
 4353TIP3    H213066   6.331   0.547   4.416
 4354TIP3   OH213067   3.383   1.388   1.198
 4354TIP3    H113068   3.358   1.334   1.272
 4354TIP3    H213069   3.470   1.357   1.174
 4355TIP3   OH213070   0.195   2.872   4.080
 4355TIP3    H113071   0.202   2.912   3.993
 4355TIP3    H213072   0.131   2.926   4.126
 4356TIP3   OH213073   5.239   2.221   3.013
 4356TIP3    H113074   5.327   2.257   3.005
 4356TIP3    H213075   5.237   2.182   3.100
 4357TIP3   OH213076   0.693   2.210   1.292
 4357TIP3    H113077   0.780   2.225   1.329
 4357TIP3    H213078   0.635   2.212   1.368
 4358TIP3   OH213079   1.074   4.555   0.506
 4358TIP3    H113080   1.068   4.520   0.594
 4358TIP3    H213081   0.984   4.580   0.483
 4359TIP3   OH213082   5.813   5.025   1.425
 4359TIP3    H113083   5.741   5.084   1.402
 4359TIP3    H213084   5.833   5.045   1.516
 4360TIP3   OH213085   1.416   3.679   2.928
 4360TIP3    H113086   1.366   3.670   2.847
 4360TIP3    H213087   1.366   3.629   2.992
 4361TIP3   OH213088   0.818   4.796   1.615
 4361TIP3    H113089   0.835   4.791   1.709
 4361TIP3    H213090   0.878   4.863   1.582
 4362TIP3   OH213091   1.316   1.050   2.885
 4362TIP3    H113092   1.297   1.143   2.872
 4362TIP3    H213093   1.369   1.048   2.964
 4363TIP3   OH213094   5.719   2.071   4.944
 4363TIP3    H113095   5.658   2.094   5.014
 4363TIP3    H213096   5.674   2.003   4.894
 4364TIP3   OH213097   3.443   4.156   4.933
 4364TIP3    H113098   3.351   4.130   4.939
 4364TIP3    H213099   3.491   4.085   4.976
 4365TIP3   OH213100   0.401   1.744   3.679
 4365TIP3    H113101   0.459   1.767   3.606
 4365TIP3    H213102   0.455   1.692   3.738
 4366TIP3   OH213103   5.822   5.848   0.110
 4366TIP3    H113104   5.771   5.774   0.076
 4366TIP3    H213105   5.874   5.877   0.034
 4367TIP3   OH213106   4.860   0.387   0.380
 4367TIP3    H113107   4.936   0.371   0.435
 4367TIP3    H213108   4.896   0.409   0.294
 4368TIP3   OH213109   1.891   4.413   4.771
 4368TIP3    H113110   1.923   4.330   4.734
 4368TIP3    H213111   1.965   4.473   4.763
 4369TIP3   OH213112   4.476   4.217   4.861
 4369TIP3    H113113   4.421   4.189   4.934
 4369TIP3    H213114   4.450   4.307   4.844
 4370TIP3   OH213115   0.574   4.396   3.898
 4370TIP3    H113116   0.596   4.416   3.989
 4370TIP3    H213117   0.583   4.300   3.892
 4371TIP3   OH213118   0.811   1.841   1.294
 4371TIP3    H113119   0.726   1.882   1.277
 4371TIP3    H213120   0.807   1.758   1.248
 4372TIP3   OH213121   5.699   3.602   2.855
 4372TIP3    H113122   5.654   3.579   2.936
 4372TIP3    H213123   5.642   3.568   2.786
 4373TIP3   OH213124   2.077   2.473   2.636
 4373TIP3    H113125   2.036   2.484   2.550
 4373TIP3    H213126   2.153   2.417   2.619
 4374TIP3   OH213127   5.559   1.407   2.766
 4374TIP3    H113128   5.534   1.332   2.711
 4374TIP3    H213129   5.631   1.374   2.820
 4375TIP3   OH213130   0.500   1.087   3.748
 4375TIP3    H113131   0.577   1.115   3.699
 4375TIP3    H213132   0.451   1.168   3.763
 4376TIP3   OH213133   4.938   3.917   4.931
 4376TIP3    H113134   4.948   3.925   4.836
 4376TIP3    H213135   4.993   3.842   4.954
 4377TIP3   OH213136   0.484   2.786   1.296
 4377TIP3    H113137   0.541   2.748   1.229
 4377TIP3    H213138   0.396   2.760   1.269
 4378TIP3   OH213139   4.695   1.995   4.155
 4378TIP3    H113140   4.676   2.088   4.139
 4378TIP3    H213141   4.650   1.949   4.084
 4379TIP3   OH213142   1.674   2.532   4.715
 4379TIP3    H113143   1.702   2.441   4.707
 4379TIP3    H213144   1.597   2.539   4.659
 4380TIP3   OH213145   0.659   5.217   1.414
 4380TIP3    H113146   0.582   5.160   1.409
 4380TIP3    H213147   0.724   5.172   1.360
 4381TIP3   OH213148   0.659   1.803   3.417
 4381TIP3    H113149   0.705   1.806   3.501
 4381TIP3    H213150   0.619   1.889   3.408
 4382TIP3   OH213151   3.973   4.478   2.096
 4382TIP3    H113152   3.994   4.391   2.061
 4382TIP3    H213153   4.030   4.487   2.172
 4383TIP3   OH213154   3.929   2.353   4.904
 4383TIP3    H113155   4.008   2.373   4.853
 4383TIP3    H213156   3.920   2.428   4.963
 4384TIP3   OH213157   5.056   1.140   3.726
 4384TIP3    H113158   5.009   1.207   3.775
 4384TIP3    H213159   5.041   1.162   3.634
 4385TIP3   OH213160   4.066   0.585   1.931
 4385TIP3    H113161   4.139   0.524   1.936
 4385TIP3    H213162   4.028   0.570   1.844
 4386TIP3   OH213163   1.179   3.090   4.571
 4386TIP3    H113164   1.094   3.132   4.588
 4386TIP3    H213165   1.235   3.160   4.538
 4387TIP3   OH213166   3.416   1.050   0.680
 4387TIP3    H113167   3.366   1.068   0.600
 4387TIP3    H213168   3.431   1.135   0.719
 4388TIP3   OH213169   5.160   2.980   1.845
 4388TIP3    H113170   5.066   2.963   1.852
 4388TIP3    H213171   5.200   2.893   1.850
 4389TIP3   OH213172   2.882   4.666   0.740
 4389TIP3    H113173   2.873   4.677   0.835
 4389TIP3    H213174   2.970   4.700   0.721
 4390TIP3   OH213175   3.004   4.119   1.580
 4390TIP3    H113176   3.051   4.176   1.519
 4390TIP3    H213177   3.039   4.142   1.666
 4391TIP3   OH213178   4.118   4.071   4.943
 4391TIP3    H113179   4.056   4.013   4.897
 4391TIP3    H213180   4.110   4.155   4.897
 4392TIP3   OH213181   0.668   5.021   2.939
 4392TIP3    H113182   0.667   4.965   2.862
 4392TIP3    H213183   0.668   5.110   2.904
 4393TIP3   OH213184   0.797   4.611   0.337
 4393TIP3    H113185   0.792   4.525   0.296
 4393TIP3    H213186   0.731   4.664   0.292
 4394TIP3   OH213187   0.741   4.323   1.091
 4394TIP3    H113188   0.821   4.369   1.115
 4394TIP3    H213189   0.772   4.238   1.057
 4395TIP3   OH213190   1.040   4.152   1.007
 4395TIP3    H113191   1.026   4.246   1.008
 4395TIP3    H213192   1.103   4.136   1.078
 4396TIP3   OH213193   1.614   3.711   3.618
 4396TIP3    H113194   1.694   3.709   3.566
 4396TIP3    H213195   1.641   3.677   3.704
 4397TIP3   OH213196   6.183   5.472   0.929
 4397TIP3    H113197   6.211   5.385   0.900
 4397TIP3    H213198   6.231   5.532   0.872
 4398TIP3   OH213199   5.158   1.072   2.174
 4398TIP3    H113200   5.120   1.151   2.135
 4398TIP3    H213201   5.244   1.065   2.134
 4399TIP3   OH213202   3.065   2.935   1.604
 4399TIP3    H113203   3.080   3.014   1.657
 4399TIP3    H213204   3.068   2.863   1.667
 4400TIP3   OH213205   0.276   2.785   1.051
 4400TIP3    H113206   0.314   2.697   1.052
 4400TIP3    H213207   0.299   2.819   0.964
 4401TIP3   OH213208   3.664   1.498   2.596
 4401TIP3    H113209   3.728   1.437   2.633
 4401TIP3    H213210   3.669   1.576   2.651
 4402TIP3   OH213211   3.097   1.511   0.568
 4402TIP3    H113212   3.185   1.501   0.533
 4402TIP3    H213213   3.056   1.426   0.551
 4403TIP3   OH213214   2.081   4.026   1.489
 4403TIP3    H113215   2.119   4.105   1.450
 4403TIP3    H213216   2.155   3.966   1.497
 4404TIP3   OH213217   0.887   2.854   0.420
 4404TIP3    H113218   0.968   2.858   0.471
 4404TIP3    H213219   0.899   2.780   0.360
 4405TIP3   OH213220   4.401   4.089   4.633
 4405TIP3    H113221   4.413   4.134   4.716
 4405TIP3    H213222   4.477   4.115   4.581
 4406TIP3   OH213223   1.383   2.772   4.926
 4406TIP3    H113224   1.474   2.787   4.899
 4406TIP3    H213225   1.330   2.810   4.856
 4407TIP3   OH213226   4.296   5.050   1.165
 4407TIP3    H113227   4.249   4.966   1.158
 4407TIP3    H213228   4.385   5.025   1.190
 4408TIP3   OH213229   6.093   0.186   0.523
 4408TIP3    H113230   6.026   0.203   0.589
 4408TIP3    H213231   6.166   0.150   0.574
 4409TIP3   OH213232   4.216   1.432   4.952
 4409TIP3    H113233   4.213   1.490   5.028
 4409TIP3    H213234   4.126   1.429   4.920
 4410TIP3   OH213235   3.799   1.688   2.735
 4410TIP3    H113236   3.835   1.628   2.800
 4410TIP3    H213237   3.875   1.722   2.689
 4411TIP3   OH213238   1.094   4.563   1.305
 4411TIP3    H113239   1.023   4.587   1.364
 4411TIP3    H213240   1.148   4.642   1.300
 4412TIP3   OH213241   5.358   0.969   2.595
 4412TIP3    H113242   5.273   0.990   2.633
 4412TIP3    H213243   5.366   1.030   2.521
 4413TIP3   OH213244   1.901   2.848   3.160
 4413TIP3    H113245   1.896   2.808   3.073
 4413TIP3    H213246   1.990   2.828   3.190
 4414TIP3   OH213247   2.941   5.178   2.884
 4414TIP3    H113248   2.889   5.232   2.824
 4414TIP3    H213249   2.935   5.223   2.968
 4415TIP3   OH213250   1.153   4.096   4.479
 4415TIP3    H113251   1.172   4.052   4.562
 4415TIP3    H213252   1.220   4.163   4.471
 4416TIP3   OH213253   3.188   5.369   5.021
 4416TIP3    H113254   3.198   5.439   4.957
 4416TIP3    H213255   3.241   5.396   5.095
 4417TIP3   OH213256   5.470   3.291   3.748
 4417TIP3    H113257   5.405   3.234   3.789
 4417TIP3    H213258   5.443   3.380   3.772
 4418TIP3   OH213259   1.306   0.726   2.629
 4418TIP3    H113260   1.384   0.671   2.634
 4418TIP3    H213261   1.253   0.686   2.561
 4419TIP3   OH213262   3.368   0.729   4.543
 4419TIP3    H113263   3.425   0.670   4.494
 4419TIP3    H213264   3.289   0.677   4.560
 4420TIP3   OH213265   5.324   4.564   3.136
 4420TIP3    H113266   5.237   4.553   3.098
 4420TIP3    H213267   5.337   4.487   3.190
 4421TIP3   OH213268   4.716   5.661   1.551
 4421TIP3    H113269   4.796   5.671   1.499
 4421TIP3    H213270   4.747   5.629   1.636
 4422TIP3   OH213271   3.708   1.286   3.651
 4422TIP3    H113272   3.755   1.346   3.593
 4422TIP3    H213273   3.729   1.315   3.739
 4423TIP3   OH213274   1.601   1.822   2.921
 4423TIP3    H113275   1.581   1.839   2.829
 4423TIP3    H213276   1.663   1.891   2.945
 4424TIP3   OH213277   4.483   0.851   2.799
 4424TIP3    H113278   4.549   0.870   2.732
 4424TIP3    H213279   4.515   0.896   2.877
 4425TIP3   OH213280   5.631   2.151   0.516
 4425TIP3    H113281   5.648   2.058   0.525
 4425TIP3    H213282   5.712   2.194   0.545
 4426TIP3   OH213283   5.972   2.063   4.846
 4426TIP3    H113284   5.969   2.113   4.764
 4426TIP3    H213285   5.880   2.059   4.874
 4427TIP3   OH213286   0.716   5.601   3.306
 4427TIP3    H113287   0.662   5.638   3.237
 4427TIP3    H213288   0.672   5.628   3.387
 4428TIP3   OH213289   0.660   4.772   4.511
 4428TIP3    H113290   0.730   4.751   4.450
 4428TIP3    H213291   0.672   4.710   4.583
 4429TIP3   OH213292   4.217   5.536   0.996
 4429TIP3    H113293   4.295   5.565   1.044
 4429TIP3    H213294   4.245   5.455   0.952
 4430TIP3   OH213295   2.690   2.372   4.104
 4430TIP3    H113296   2.675   2.442   4.041
 4430TIP3    H213297   2.783   2.350   4.094
 4431TIP3   OH213298   3.018   2.721   0.886
 4431TIP3    H113299   2.967   2.791   0.846
 4431TIP3    H213300   3.084   2.766   0.939
 4432TIP3   OH213301   4.398   2.382   0.630
 4432TIP3    H113302   4.384   2.454   0.568
 4432TIP3    H213303   4.310   2.359   0.660
 4433TIP3   OH213304   0.053   2.700   0.216
 4433TIP3    H113305   0.114   2.683   0.288
 4433TIP3    H213306  -0.031   2.714   0.258
 4434TIP3   OH213307   5.513   5.650   5.165
 4434TIP3    H113308   5.569   5.723   5.192
 4434TIP3    H213309   5.426   5.673   5.198
 4435TIP3   OH213310   3.809   2.395   0.351
 4435TIP3    H113311   3.760   2.474   0.371
 4435TIP3    H213312   3.742   2.327   0.338
 4436TIP3   OH213313   5.814   3.660   1.388
 4436TIP3    H113314   5.836   3.616   1.470
 4436TIP3    H213315   5.859   3.745   1.393
 4437TIP3   OH213316   1.501   3.335   4.663
 4437TIP3    H113317   1.570   3.391   4.627
 4437TIP3    H213318   1.545   3.283   4.730
 4438TIP3   OH213319   1.974   3.927   4.220
 4438TIP3    H113320   1.957   3.900   4.310
 4438TIP3    H213321   1.889   3.954   4.186
 4439TIP3   OH213322   2.654   5.061   2.939
 4439TIP3    H113323   2.619   5.145   2.910
 4439TIP3    H213324   2.632   5.056   3.032
 4440TIP3   OH213325   1.750   5.300   1.669
 4440TIP3    H113326   1.682   5.233   1.681
 4440TIP3    H213327   1.721   5.372   1.726
 4441TIP3   OH213328   5.290   2.566   5.130
 4441TIP3    H113329   5.368   2.512   5.115
 4441TIP3    H213330   5.323   2.655   5.140
 4442TIP3   OH213331   4.337   0.526   4.967
 4442TIP3    H113332   4.355   0.616   4.994
 4442TIP3    H213333   4.392   0.472   5.024
 4443TIP3   OH213334   2.548   5.511   3.482
 4443TIP3    H113335   2.502   5.515   3.565
 4443TIP3    H213336   2.556   5.418   3.462
 4444TIP3   OH213337   2.984   5.150   4.986
 4444TIP3    H113338   2.920   5.218   4.967
 4444TIP3    H213339   3.058   5.196   5.025
 4445TIP3   OH213340   5.522   2.562   2.419
 4445TIP3    H113341   5.557   2.474   2.409
 4445TIP3    H213342   5.437   2.549   2.462
 4446TIP3   OH213343   1.436   0.485   2.273
 4446TIP3    H113344   1.439   0.581   2.271
 4446TIP3    H213345   1.345   0.464   2.293
 4447TIP3   OH213346   1.240   2.830   3.040
 4447TIP3    H113347   1.270   2.897   3.101
 4447TIP3    H213348   1.279   2.854   2.956
 4448TIP3   OH213349   2.436   4.286   4.591
 4448TIP3    H113350   2.360   4.229   4.598
 4448TIP3    H213351   2.407   4.358   4.535
 4449TIP3   OH213352   0.839   2.422   3.058
 4449TIP3    H113353   0.831   2.413   3.153
 4449TIP3    H213354   0.767   2.370   3.023
 4450TIP3   OH213355   3.914   0.259   2.256
 4450TIP3    H113356   3.882   0.324   2.193
 4450TIP3    H213357   3.891   0.175   2.217
 4451TIP3   OH213358   0.798   3.107   3.043
 4451TIP3    H113359   0.745   3.083   3.119
 4451TIP3    H213360   0.763   3.192   3.016
 4452TIP3   OH213361   1.056   5.544   5.026
 4452TIP3    H113362   1.036   5.456   5.058
 4452TIP3    H213363   1.004   5.602   5.081
 4453TIP3   OH213364   3.552   3.447   1.137
 4453TIP3    H113365   3.623   3.382   1.132
 4453TIP3    H213366   3.596   3.531   1.149
 4454TIP3   OH213367   3.443   1.400   1.961
 4454TIP3    H113368   3.488   1.421   1.880
 4454TIP3    H213369   3.402   1.483   1.987
 4455TIP3   OH213370   0.691   0.292   0.488
 4455TIP3    H113371   0.646   0.211   0.465
 4455TIP3    H213372   0.784   0.269   0.488
 4456TIP3   OH213373   5.853   5.358   2.966
 4456TIP3    H113374   5.846   5.283   3.026
 4456TIP3    H213375   5.832   5.322   2.880
 4457TIP3   OH213376   4.392   3.880   4.831
 4457TIP3    H113377   4.374   3.926   4.749
 4457TIP3    H213378   4.464   3.929   4.871
 4458TIP3   OH213379   0.484   5.607   0.268
 4458TIP3    H113380   0.473   5.522   0.225
 4458TIP3    H213381   0.572   5.635   0.243
 4459TIP3   OH213382   1.205   2.398   2.293
 4459TIP3    H113383   1.292   2.409   2.257
 4459TIP3    H213384   1.146   2.430   2.224
 4460TIP3   OH213385   3.605   2.425   0.025
 4460TIP3    H113386   3.538   2.491   0.009
 4460TIP3    H213387   3.561   2.358   0.077
 4461TIP3   OH213388   3.221   2.811   3.887
 4461TIP3    H113389   3.132   2.777   3.883
 4461TIP3    H213390   3.258   2.773   3.967
 4462TIP3   OH213391   4.586   3.544   1.700
 4462TIP3    H113392   4.546   3.457   1.694
 4462TIP3    H213393   4.590   3.562   1.794
 4463TIP3   OH213394   4.318   0.534   3.550
 4463TIP3    H113395   4.284   0.623   3.541
 4463TIP3    H213396   4.242   0.478   3.537
 4464TIP3   OH213397   3.854   1.003   3.651
 4464TIP3    H113398   3.907   1.033   3.725
 4464TIP3    H213399   3.764   1.029   3.674
 4465TIP3   OH213400   4.691   2.061   0.816
 4465TIP3    H113401   4.742   2.036   0.893
 4465TIP3    H213402   4.753   2.109   0.760
 4466TIP3   OH213403   5.834   3.484   3.525
 4466TIP3    H113404   5.771   3.419   3.493
 4466TIP3    H213405   5.801   3.510   3.610
 4467TIP3   OH213406   1.299   1.356   3.599
 4467TIP3    H113407   1.355   1.432   3.580
 4467TIP3    H213408   1.309   1.343   3.694
 4468TIP3   OH213409   6.134   5.325   1.610
 4468TIP3    H113410   6.097   5.367   1.688
 4468TIP3    H213411   6.150   5.235   1.636
 4469TIP3   OH213412   5.404   4.161   1.293
 4469TIP3    H113413   5.354   4.081   1.309
 4469TIP3    H213414   5.493   4.140   1.320
 4470TIP3   OH213415   1.550   5.869   0.617
 4470TIP3    H113416   1.599   5.824   0.685
 4470TIP3    H213417   1.567   5.962   0.633
 4471TIP3   OH213418   2.485   4.662   2.157
 4471TIP3    H113419   2.496   4.699   2.245
 4471TIP3    H213420   2.413   4.712   2.119
 4472TIP3   OH213421   0.584   4.506   4.972
 4472TIP3    H113422   0.527   4.429   4.976
 4472TIP3    H213423   0.633   4.504   5.054
 4473TIP3   OH213424   5.169   4.003   2.657
 4473TIP3    H113425   5.174   4.095   2.634
 4473TIP3    H213426   5.174   3.956   2.574
 4474TIP3   OH213427   1.098   5.278   2.769
 4474TIP3    H113428   1.162   5.323   2.824
 4474TIP3    H213429   1.106   5.186   2.792
 4475TIP3   OH213430   2.558   5.630   0.444
 4475TIP3    H113431   2.470   5.596   0.425
 4475TIP3    H213432   2.543   5.701   0.507
 4476TIP3   OH213433   1.552   0.162   3.572
 4476TIP3    H113434   1.592   0.215   3.641
 4476TIP3    H213435   1.520   0.084   3.618
 4477TIP3   OH213436   5.637   0.720   3.891
 4477TIP3    H113437   5.564   0.717   3.829
 4477TIP3    H213438   5.595   0.727   3.977
 4478TIP3   OH213439   1.680   0.804   4.669
 4478TIP3    H113440   1.606   0.837   4.619
 4478TIP3    H213441   1.648   0.798   4.759
 4479TIP3   OH213442   5.073   2.852   5.199
 4479TIP3    H113443   5.007   2.842   5.131
 4479TIP3    H213444   5.156   2.839   5.154
 4480TIP3   OH213445   1.398   0.694   4.818
 4480TIP3    H113446   1.458   0.625   4.789
 4480TIP3    H213447   1.311   0.655   4.814
 4481TIP3   OH213448   5.317   5.364   1.453
 4481TIP3    H113449   5.374   5.410   1.391
 4481TIP3    H213450   5.274   5.296   1.400
 4482TIP3   OH213451   2.038   0.812   4.143
 4482TIP3    H113452   1.965   0.763   4.181
 4482TIP3    H213453   2.095   0.830   4.217
 4483TIP3   OH213454   5.296   4.831   4.721
 4483TIP3    H113455   5.326   4.921   4.706
 4483TIP3    H213456   5.217   4.841   4.774
 4484TIP3   OH213457   4.128   5.616   4.853
 4484TIP3    H113458   4.192   5.598   4.921
 4484TIP3    H213459   4.055   5.556   4.872
 4485TIP3   OH213460   4.794   4.850   2.557
 4485TIP3    H113461   4.772   4.785   2.490
 4485TIP3    H213462   4.788   4.934   2.513
 4486TIP3   OH213463   4.146   4.179   3.799
 4486TIP3    H113464   4.113   4.108   3.744
 4486TIP3    H213465   4.204   4.228   3.742
 4487TIP3   OH213466   2.638   3.589   1.710
 4487TIP3    H113467   2.624   3.683   1.726
 4487TIP3    H213468   2.732   3.583   1.689
 4488TIP3   OH213469   0.902   5.452   1.032
 4488TIP3    H113470   0.915   5.546   1.040
 4488TIP3    H213471   0.808   5.439   1.045
 4489TIP3   OH213472   3.441   1.185   3.672
 4489TIP3    H113473   3.491   1.264   3.692
 4489TIP3    H213474   3.506   1.116   3.664
 4490TIP3   OH213475   5.528   2.977   2.009
 4490TIP3    H113476   5.581   2.901   1.983
 4490TIP3    H213477   5.591   3.050   2.010
 4491TIP3   OH213478   6.102   2.416   2.917
 4491TIP3    H113479   6.164   2.427   2.845
 4491TIP3    H213480   6.081   2.505   2.945
 4492TIP3   OH213481   1.805   4.647   2.432
 4492TIP3    H113482   1.768   4.727   2.394
 4492TIP3    H213483   1.758   4.576   2.388
 4493TIP3   OH213484   5.219   0.913   4.223
 4493TIP3    H113485   5.153   0.903   4.155
 4493TIP3    H213486   5.303   0.912   4.176
 4494TIP3   OH213487   1.754   1.476   0.484
 4494TIP3    H113488   1.696   1.546   0.515
 4494TIP3    H213489   1.701   1.427   0.421
 4495TIP3   OH213490   6.338   5.630   0.737
 4495TIP3    H113491   6.333   5.620   0.642
 4495TIP3    H213492   6.418   5.679   0.752
 4496TIP3   OH213493   2.997   5.153   0.523
 4496TIP3    H113494   3.033   5.218   0.583
 4496TIP3    H213495   2.902   5.158   0.536
 4497TIP3   OH213496   5.006   1.302   4.642
 4497TIP3    H113497   5.027   1.347   4.561
 4497TIP3    H213498   5.032   1.363   4.711
 4498TIP3   OH213499   5.408   4.807   1.497
 4498TIP3    H113500   5.338   4.872   1.501
 4498TIP3    H213501   5.428   4.788   1.589
 4499TIP3   OH213502   3.818   5.588   3.614
 4499TIP3    H113503   3.761   5.654   3.654
 4499TIP3    H213504   3.757   5.525   3.575
 4500TIP3   OH213505   4.135   5.061   3.046
 4500TIP3    H113506   4.222   5.099   3.055
 4500TIP3    H213507   4.076   5.136   3.040
 4501TIP3   OH213508   0.764   2.242   1.033
 4501TIP3    H113509   0.736   2.212   1.119
 4501TIP3    H213510   0.831   2.308   1.050
 4502TIP3   OH213511   5.334   4.284   4.483
 4502TIP3    H113512   5.307   4.203   4.438
 4502TIP3    H213513   5.383   4.332   4.417
 4503TIP3   OH213514   0.075   1.684   1.728
 4503TIP3    H113515   0.135   1.647   1.793
 4503TIP3    H213516   0.053   1.611   1.670
 4504TIP3   OH213517   0.328   1.377   0.382
 4504TIP3    H113518   0.393   1.314   0.413
 4504TIP3    H213519   0.289   1.335   0.305
 4505TIP3   OH213520   1.357   3.961   2.729
 4505TIP3    H113521   1.313   3.897   2.784
 4505TIP3    H213522   1.291   4.029   2.714
 4506TIP3   OH213523   1.610   5.998   4.570
 4506TIP3    H113524   1.644   5.929   4.626
 4506TIP3    H213525   1.521   5.969   4.548
 4507TIP3   OH213526   5.654   3.605   3.908
 4507TIP3    H113527   5.618   3.613   3.820
 4507TIP3    H213528   5.585   3.635   3.966
 4508TIP3   OH213529   4.949   3.373   3.312
 4508TIP3    H113530   4.980   3.442   3.371
 4508TIP3    H213531   4.871   3.338   3.354
 4509TIP3   OH213532   4.588   4.743   1.715
 4509TIP3    H113533   4.637   4.743   1.797
 4509TIP3    H213534   4.496   4.739   1.742
 4510TIP3   OH213535   3.511   1.141   1.630
 4510TIP3    H113536   3.540   1.050   1.622
 4510TIP3    H213537   3.592   1.191   1.643
 4511TIP3   OH213538   3.735   0.909   0.803
 4511TIP3    H113539   3.699   0.935   0.719
 4511TIP3    H213540   3.827   0.938   0.800
 4512TIP3   OH213541   5.973   2.479   2.489
 4512TIP3    H113542   5.908   2.543   2.517
 4512TIP3    H213543   5.925   2.397   2.480
 4513TIP3   OH213544   2.984   5.430   4.647
 4513TIP3    H113545   3.045   5.358   4.635
 4513TIP3    H213546   3.010   5.470   4.730
 4514TIP3   OH213547   4.360   1.178   3.900
 4514TIP3    H113548   4.413   1.183   3.820
 4514TIP3    H213549   4.370   1.088   3.930
 4515TIP3   OH213550   3.332   3.598   2.370
 4515TIP3    H113551   3.397   3.586   2.301
 4515TIP3    H213552   3.284   3.677   2.345
 4516TIP3   OH213553   3.469   3.032   0.332
 4516TIP3    H113554   3.519   3.006   0.410
 4516TIP3    H213555   3.377   3.020   0.357
 4517TIP3   OH213556   2.696   2.294   3.566
 4517TIP3    H113557   2.770   2.324   3.619
 4517TIP3    H213558   2.620   2.334   3.607
 4518TIP3   OH213559   2.016   4.117   1.802
 4518TIP3    H113560   2.012   4.029   1.764
 4518TIP3    H213561   1.992   4.176   1.730
 4519TIP3   OH213562   5.849   1.684   3.619
 4519TIP3    H113563   5.931   1.641   3.597
 4519TIP3    H213564   5.874   1.772   3.647
 4520TIP3   OH213565   4.294   4.323   1.164
 4520TIP3    H113566   4.313   4.285   1.078
 4520TIP3    H213567   4.280   4.416   1.147
 4521TIP3   OH213568   2.103   2.635   3.680
 4521TIP3    H113569   2.024   2.604   3.724
 4521TIP3    H213570   2.074   2.711   3.630
 4522TIP3   OH213571   5.806   3.812   5.003
 4522TIP3    H113572   5.900   3.798   5.013
 4522TIP3    H213573   5.786   3.884   5.062
 4523TIP3   OH213574   6.297   1.142   2.523
 4523TIP3    H113575   6.296   1.116   2.616
 4523TIP3    H213576   6.213   1.110   2.489
 4524TIP3   OH213577   4.154   4.274   2.152
 4524TIP3    H113578   4.218   4.220   2.106
 4524TIP3    H213579   4.191   4.362   2.149
 4525TIP3   OH213580   6.324   5.259   0.806
 4525TIP3    H113581   6.411   5.237   0.773
 4525TIP3    H213582   6.268   5.262   0.728
 4526TIP3   OH213583   5.446   4.093   3.409
 4526TIP3    H113584   5.378   4.029   3.429
 4526TIP3    H213585   5.448   4.097   3.313
 4527TIP3   OH213586   5.944   4.240   0.604
 4527TIP3    H113587   5.866   4.220   0.656
 4527TIP3    H213588   5.916   4.224   0.513
 4528TIP3   OH213589   3.098   0.787   0.148
 4528TIP3    H113590   3.069   0.746   0.066
 4528TIP3    H213591   3.129   0.714   0.201
 4529TIP3   OH213592   0.204   1.216   0.826
 4529TIP3    H113593   0.157   1.221   0.743
 4529TIP3    H213594   0.136   1.202   0.892
 4530TIP3   OH213595   3.723   3.556  -0.004
 4530TIP3    H113596   3.811   3.592  -0.010
 4530TIP3    H213597   3.700   3.563   0.089
 4531TIP3   OH213598   1.519   1.129   3.492
 4531TIP3    H113599   1.474   1.213   3.482
 4531TIP3    H213600   1.461   1.065   3.451
 4532TIP3   OH213601   3.228   5.369   1.454
 4532TIP3    H113602   3.212   5.315   1.531
 4532TIP3    H213603   3.241   5.307   1.383
 4533TIP3   OH213604   6.282   5.792   4.622
 4533TIP3    H113605   6.372   5.762   4.632
 4533TIP3    H213606   6.247   5.740   4.549
 4534TIP3   OH213607   4.928   1.964   5.160
 4534TIP3    H113608   5.012   1.919   5.154
 4534TIP3    H213609   4.948   2.047   5.204
 4535TIP3   OH213610   1.833   1.954   0.098
 4535TIP3    H113611   1.793   1.908   0.025
 4535TIP3    H213612   1.797   1.912   0.176
 4536TIP3   OH213613   3.419   3.341   3.543
 4536TIP3    H113614   3.342   3.285   3.553
 4536TIP3    H213615   3.384   3.430   3.542
 4537TIP3   OH213616   5.532   2.700   4.277
 4537TIP3    H113617   5.501   2.643   4.207
 4537TIP3    H213618   5.624   2.716   4.256
 4538TIP3   OH213619   1.860   4.571   0.646
 4538TIP3    H113620   1.917   4.494   0.650
 4538TIP3    H213621   1.907   4.633   0.591
 4539TIP3   OH213622   4.411   2.508   1.788
 4539TIP3    H113623   4.335   2.466   1.828
 4539TIP3    H213624   4.383   2.529   1.699
 4540TIP3   OH213625   3.559   3.229   0.692
 4540TIP3    H113626   3.469   3.259   0.675
 4540TIP3    H213627   3.579   3.172   0.618
 4541TIP3   OH213628   0.221   2.336   5.168
 4541TIP3    H113629   0.279   2.412   5.171
 4541TIP3    H213630   0.260   2.274   5.229
 4542TIP3   OH213631   0.527   4.142   3.115
 4542TIP3    H113632   0.470   4.071   3.145
 4542TIP3    H213633   0.600   4.097   3.073
 4543TIP3   OH213634   5.612   5.169   1.579
 4543TIP3    H113635   5.547   5.162   1.649
 4543TIP3    H213636   5.689   5.124   1.613
 4544TIP3   OH213637   3.418   5.941   3.714
 4544TIP3    H113638   3.386   5.905   3.797
 4544TIP3    H213639   3.338   5.963   3.665
 4545TIP3   OH213640   1.092   3.177   0.480
 4545TIP3    H113641   1.136   3.153   0.398
 4545TIP3    H213642   1.112   3.270   0.492
 4546TIP3   OH213643   0.426   4.615   0.177
 4546TIP3    H113644   0.386   4.639   0.093
 4546TIP3    H213645   0.489   4.685   0.195
 4547TIP3   OH213646   0.751   3.022   2.118
 4547TIP3    H113647   0.683   2.983   2.063
 4547TIP3    H213648   0.813   2.951   2.134
 4548TIP3   OH213649   3.102   2.794   1.342
 4548TIP3    H113650   3.148   2.857   1.286
 4548TIP3    H213651   3.065   2.847   1.412
 4549TIP3   OH213652   0.184   5.593   3.042
 4549TIP3    H113653   0.141   5.594   2.956
 4549TIP3    H213654   0.271   5.557   3.025
 4550TIP3   OH213655   0.821   5.529   0.392
 4550TIP3    H113656   0.801   5.593   0.324
 4550TIP3    H213657   0.773   5.561   0.469
 4551TIP3   OH213658   0.437   1.253   2.405
 4551TIP3    H113659   0.409   1.329   2.455
 4551TIP3    H213660   0.529   1.241   2.429
 4552TIP3   OH213661   3.420   5.450   1.178
 4552TIP3    H113662   3.434   5.490   1.092
 4552TIP3    H213663   3.343   5.494   1.213
 4553TIP3   OH213664   5.994   1.532   0.769
 4553TIP3    H113665   6.070   1.483   0.738
 4553TIP3    H213666   6.010   1.545   0.862
 4554TIP3   OH213667   4.779   3.091   0.792
 4554TIP3    H113668   4.865   3.120   0.764
 4554TIP3    H213669   4.731   3.171   0.812
 4555TIP3   OH213670   4.862   2.604   2.974
 4555TIP3    H113671   4.842   2.510   2.977
 4555TIP3    H213672   4.957   2.609   2.977
 4556TIP3   OH213673   6.066   5.208   0.006
 4556TIP3    H113674   6.146   5.260  -0.004
 4556TIP3    H213675   6.093   5.132   0.057
 4557TIP3   OH213676   4.191   4.217   4.065
 4557TIP3    H113677   4.176   4.205   3.971
 4557TIP3    H213678   4.105   4.239   4.101
 4558TIP3   OH213679   1.385   2.950   4.150
 4558TIP3    H113680   1.295   2.938   4.119
 4558TIP3    H213681   1.419   3.023   4.097
 4559TIP3   OH213682   0.514   5.241   5.109
 4559TIP3    H113683   0.505   5.230   5.015
 4559TIP3    H213684   0.516   5.336   5.122
 4560TIP3   OH213685   6.314   5.537   3.704
 4560TIP3    H113686   6.387   5.598   3.695
 4560TIP3    H213687   6.272   5.537   3.619
 4561TIP3   OH213688   4.147   0.377   2.438
 4561TIP3    H113689   4.156   0.464   2.398
 4561TIP3    H213690   4.232   0.335   2.422
 4562TIP3   OH213691   2.865   2.572   3.250
 4562TIP3    H113692   2.891   2.498   3.305
 4562TIP3    H213693   2.864   2.536   3.161
 4563TIP3   OH213694   2.725   4.301   3.325
 4563TIP3    H113695   2.651   4.359   3.343
 4563TIP3    H213696   2.801   4.359   3.321
 4564TIP3   OH213697   1.771   4.540   2.929
 4564TIP3    H113698   1.767   4.559   3.023
 4564TIP3    H213699   1.753   4.446   2.923
 4565TIP3   OH213700   6.326   1.983   4.578
 4565TIP3    H113701   6.356   1.929   4.505
 4565TIP3    H213702   6.236   2.006   4.554
 4566TIP3   OH213703   5.008   5.923   2.249
 4566TIP3    H113704   4.944   5.925   2.320
 4566TIP3    H213705   5.062   6.001   2.264
 4567TIP3   OH213706   4.847   5.890   4.118
 4567TIP3    H113707   4.900   5.918   4.044
 4567TIP3    H213708   4.897   5.918   4.195
 4568TIP3   OH213709   3.923   2.334   0.943
 4568TIP3    H113710   3.868   2.375   0.876
 4568TIP3    H213711   3.918   2.394   1.018
 4569TIP3   OH213712   3.671   2.784   0.175
 4569TIP3    H113713   3.755   2.781   0.128
 4569TIP3    H213714   3.613   2.834   0.116
 4570TIP3   OH213715   4.581   5.899   0.302
 4570TIP3    H113716   4.505   5.957   0.297
 4570TIP3    H213717   4.655   5.958   0.316
 4571TIP3   OH213718   5.398   1.009   2.072
 4571TIP3    H113719   5.439   1.092   2.095
 4571TIP3    H213720   5.457   0.942   2.107
 4572TIP3   OH213721   0.375   0.006   3.723
 4572TIP3    H113722   0.309   0.065   3.688
 4572TIP3    H213723   0.447   0.063   3.749
 4573TIP3   OH213724   1.828   2.275   2.857
 4573TIP3    H113725   1.763   2.330   2.900
 4573TIP3    H213726   1.814   2.289   2.763
 4574TIP3   OH213727   3.843   1.433   2.885
 4574TIP3    H113728   3.781   1.367   2.853
 4574TIP3    H213729   3.928   1.406   2.850
 4575TIP3   OH213730   1.371   4.310   4.235
 4575TIP3    H113731   1.447   4.312   4.292
 4575TIP3    H213732   1.308   4.369   4.276
 4576TIP3   OH213733   5.029   5.859   0.349
 4576TIP3    H113734   5.010   5.816   0.433
 4576TIP3    H213735   5.117   5.897   0.361
 4577TIP3   OH213736   5.637   1.929   2.662
 4577TIP3    H113737   5.618   2.019   2.634
 4577TIP3    H213738   5.665   1.884   2.583
 4578TIP3   OH213739   1.177   3.057   0.192
 4578TIP3    H113740   1.098   3.011   0.163
 4578TIP3    H213741   1.213   3.095   0.112
 4579TIP3   OH213742   3.371   4.044   4.366
 4579TIP3    H113743   3.370   4.091   4.450
 4579TIP3    H213744   3.289   4.070   4.324
 4580TIP3   OH213745   3.199   4.102   3.945
 4580TIP3    H113746   3.226   4.012   3.928
 4580TIP3    H213747   3.199   4.110   4.040
 4581TIP3   OH213748   1.262   2.854   4.670
 4581TIP3    H113749   1.282   2.939   4.632
 4581TIP3    H213750   1.235   2.800   4.595
 4582TIP3   OH213751   4.844   3.651   1.697
 4582TIP3    H113752   4.757   3.614   1.685
 4582TIP3    H213753   4.832   3.745   1.687
 4583TIP3   OH213754   0.073   5.742   4.965
 4583TIP3    H113755   0.159   5.704   4.980
 4583TIP3    H213756   0.090   5.834   4.946
 4584TIP3   OH213757   3.989   4.514   0.060
 4584TIP3    H113758   4.012   4.593   0.010
 4584TIP3    H213759   3.917   4.541   0.116
 4585TIP3   OH213760   5.235   4.036   0.082
 4585TIP3    H113761   5.199   4.125   0.080
 4585TIP3    H213762   5.296   4.037   0.156
 4586TIP3   OH213763   4.934   2.258   0.986
 4586TIP3    H113764   4.888   2.217   1.059
 4586TIP3    H213765   4.940   2.189   0.920
 4587TIP3   OH213766   3.935   5.949   0.980
 4587TIP3    H113767   3.931   5.912   1.068
 4587TIP3    H213768   3.866   5.904   0.932
 4588TIP3   OH213769   6.354   4.683   2.687
 4588TIP3    H113770   6.408   4.615   2.647
 4588TIP3    H213771   6.362   4.758   2.628
 4589TIP3   OH213772   1.649   2.303   3.949
 4589TIP3    H113773   1.724   2.263   3.994
 4589TIP3    H213774   1.592   2.229   3.927
 4590TIP3   OH213775   4.237   3.078   2.526
 4590TIP3    H113776   4.262   3.080   2.618
 4590TIP3    H213777   4.291   3.008   2.488
 4591TIP3   OH213778   5.242   0.028   0.305
 4591TIP3    H113779   5.206  -0.060   0.314
 4591TIP3    H213780   5.251   0.040   0.210
 4592TIP3   OH213781   3.093   4.001   1.224
 4592TIP3    H113782   3.052   3.945   1.290
 4592TIP3    H213783   3.122   3.942   1.155
 4593TIP3   OH213784   0.863   2.029   3.898
 4593TIP3    H113785   0.895   2.111   3.860
 4593TIP3    H213786   0.938   1.995   3.947
 4594TIP3   OH213787   6.049   3.312   2.128
 4594TIP3    H113788   6.132   3.303   2.175
 4594TIP3    H213789   5.982   3.303   2.195
 4595TIP3   OH213790   2.770   1.255   2.011
 4595TIP3    H113791   2.803   1.167   1.991
 4595TIP3    H213792   2.757   1.255   2.106
 4596TIP3   OH213793   0.232   3.206   4.544
 4596TIP3    H113794   0.158   3.265   4.530
 4596TIP3    H213795   0.307   3.264   4.551
 4597TIP3   OH213796   0.468   4.180   2.543
 4597TIP3    H113797   0.453   4.085   2.546
 4597TIP3    H213798   0.484   4.205   2.634
 4598TIP3   OH213799   0.722   3.478   2.847
 4598TIP3    H113800   0.688   3.407   2.900
 4598TIP3    H213801   0.646   3.535   2.832
 4599TIP3   OH213802   1.704   4.289   1.625
 4599TIP3    H113803   1.795   4.290   1.595
 4599TIP3    H213804   1.676   4.381   1.621
 4600TIP3   OH213805   4.103   2.333   2.755
 4600TIP3    H113806   4.075   2.367   2.670
 4600TIP3    H213807   4.194   2.306   2.741
 4601TIP3   OH213808   0.504   4.822   3.244
 4601TIP3    H113809   0.421   4.869   3.251
 4601TIP3    H213810   0.548   4.837   3.327
 4602TIP3   OH213811   5.595   3.045   2.835
 4602TIP3    H113812   5.561   3.133   2.820
 4602TIP3    H213813   5.685   3.058   2.862
 4603TIP3   OH213814   3.108   0.031   2.562
 4603TIP3    H113815   3.030  -0.012   2.528
 4603TIP3    H213816   3.076   0.085   2.635
 4604TIP3   OH213817   3.893   1.492   0.802
 4604TIP3    H113818   3.915   1.557   0.869
 4604TIP3    H213819   3.889   1.543   0.720
 4605TIP3   OH213820   0.936   2.651   3.522
 4605TIP3    H113821   0.872   2.599   3.571
 4605TIP3    H213822   1.000   2.587   3.493
 4606TIP3   OH213823   1.621   1.269   1.364
 4606TIP3    H113824   1.594   1.315   1.284
 4606TIP3    H213825   1.698   1.316   1.393
 4607TIP3   OH213826   4.605   3.080   4.153
 4607TIP3    H113827   4.625   3.150   4.091
 4607TIP3    H213828   4.514   3.057   4.133
 4608TIP3   OH213829   2.718   2.095   4.105
 4608TIP3    H113830   2.752   2.034   4.170
 4608TIP3    H213831   2.714   2.179   4.150
 4609TIP3   OH213832   0.029   1.797   0.302
 4609TIP3    H113833  -0.057   1.826   0.332
 4609TIP3    H213834   0.011   1.745   0.224
 4610TIP3   OH213835   3.622   1.385   2.356
 4610TIP3    H113836   3.528   1.397   2.344
 4610TIP3    H213837   3.639   1.421   2.444
 4611TIP3   OH213838   2.870   2.636   0.443
 4611TIP3    H113839   2.775   2.639   0.432
 4611TIP3    H213840   2.905   2.645   0.355
 4612TIP3   OH213841   4.930   5.632   2.802
 4612TIP3    H113842   4.900   5.708   2.753
 4612TIP3    H213843   5.025   5.630   2.788
 4613TIP3   OH213844   0.695   3.636   2.015
 4613TIP3    H113845   0.785   3.667   2.023
 4613TIP3    H213846   0.667   3.665   1.928
 4614TIP3   OH213847   3.594   4.744   3.858
 4614TIP3    H113848   3.637   4.742   3.943
 4614TIP3    H213849   3.664   4.763   3.796
 4615TIP3   OH213850   3.148   3.540   3.279
 4615TIP3    H113851   3.068   3.536   3.228
 4615TIP3    H213852   3.118   3.551   3.369
 4616TIP3   OH213853   1.129   1.304   1.409
 4616TIP3    H113854   1.106   1.213   1.390
 4616TIP3    H213855   1.185   1.299   1.487
 4617TIP3   OH213856   5.467   4.484   1.930
 4617TIP3    H113857   5.525   4.505   1.856
 4617TIP3    H213858   5.381   4.517   1.903
 4618TIP3   OH213859   2.332   3.784   3.191
 4618TIP3    H113860   2.298   3.736   3.266
 4618TIP3    H213861   2.357   3.869   3.227
 4619TIP3   OH213862   3.209   4.539   3.240
 4619TIP3    H113863   3.249   4.497   3.164
 4619TIP3    H213864   3.252   4.498   3.316
 4620TIP3   OH213865   5.593   1.040   3.958
 4620TIP3    H113866   5.546   1.040   3.875
 4620TIP3    H213867   5.540   0.986   4.016
 4621TIP3   OH213868   4.101   5.927   0.493
 4621TIP3    H113869   4.192   5.955   0.497
 4621TIP3    H213870   4.088   5.875   0.572
 4622TIP3   OH213871   5.163   0.322   0.414
 4622TIP3    H113872   5.196   0.244   0.371
 4622TIP3    H213873   5.239   0.358   0.461
 4623TIP3   OH213874   3.766   2.674   3.176
 4623TIP3    H113875   3.680   2.677   3.134
 4623TIP3    H213876   3.829   2.683   3.104
 4624TIP3   OH213877   3.567   3.308   1.552
 4624TIP3    H113878   3.629   3.306   1.624
 4624TIP3    H213879   3.607   3.366   1.487
 4625TIP3   OH213880   5.673   5.043   2.418
 4625TIP3    H113881   5.633   4.975   2.472
 4625TIP3    H213882   5.736   5.086   2.476
 4626TIP3   OH213883   3.410   3.788   2.889
 4626TIP3    H113884   3.436   3.711   2.839
 4626TIP3    H213885   3.412   3.860   2.825
 4627TIP3   OH213886   5.550   0.827   4.894
 4627TIP3    H113887   5.600   0.787   4.823
 4627TIP3    H213888   5.475   0.868   4.851
 4628TIP3   OH213889   1.394   5.529   1.160
 4628TIP3    H113890   1.361   5.581   1.233
 4628TIP3    H213891   1.430   5.593   1.099
 4629TIP3   OH213892   2.229   4.412   1.140
 4629TIP3    H113893   2.201   4.336   1.088
 4629TIP3    H213894   2.314   4.436   1.102
 4630TIP3   OH213895   4.469   3.903   1.642
 4630TIP3    H113896   4.384   3.903   1.597
 4630TIP3    H213897   4.533   3.919   1.572
 4631TIP3   OH213898   4.799   5.211   1.354
 4631TIP3    H113899   4.850   5.269   1.410
 4631TIP3    H213900   4.846   5.210   1.271
 4632TIP3   OH213901   3.809   3.339   2.634
 4632TIP3    H113902   3.873   3.294   2.579
 4632TIP3    H213903   3.742   3.370   2.573
 4633TIP3   OH213904   1.038   0.255   2.034
 4633TIP3    H113905   1.029   0.346   2.005
 4633TIP3    H213906   1.004   0.203   1.962
 4634TIP3   OH213907   1.476   4.408   0.698
 4634TIP3    H113908   1.391   4.397   0.741
 4634TIP3    H213909   1.498   4.320   0.667
 4635TIP3   OH213910   1.499   2.242   0.346
 4635TIP3    H113911   1.448   2.197   0.414
 4635TIP3    H213912   1.506   2.332   0.378
 4636TIP3   OH213913   6.160   5.856   4.872
 4636TIP3    H113914   6.220   5.828   4.941
 4636TIP3    H213915   6.172   5.793   4.801
 4637TIP3   OH213916   1.374   4.109   0.681
 4637TIP3    H113917   1.316   4.179   0.651
 4637TIP3    H213918   1.327   4.068   0.754
 4638TIP3   OH213919   1.728   5.541   3.599
 4638TIP3    H113920   1.744   5.611   3.536
 4638TIP3    H213921   1.654   5.571   3.651
 4639TIP3   OH213922   0.491   0.625   5.200
 4639TIP3    H113923   0.451   0.538   5.191
 4639TIP3    H213924   0.431   0.684   5.155
 4640TIP3   OH213925   3.763   0.154   3.177
 4640TIP3    H113926   3.707   0.196   3.112
 4640TIP3    H213927   3.716   0.165   3.260
 4641TIP3   OH213928   0.989   0.703   3.329
 4641TIP3    H113929   1.062   0.696   3.268
 4641TIP3    H213930   1.028   0.735   3.410
 4642TIP3   OH213931   6.074   4.894   3.719
 4642TIP3    H113932   5.979   4.885   3.714
 4642TIP3    H213933   6.093   4.974   3.670
 4643TIP3   OH213934   0.598   0.630   3.670
 4643TIP3    H113935   0.690   0.606   3.678
 4643TIP3    H213936   0.599   0.726   3.665
 4644TIP3   OH213937   0.947   1.900   1.506
 4644TIP3    H113938   0.925   1.823   1.559
 4644TIP3    H213939   0.893   1.891   1.427
 4645TIP3   OH213940   2.543   4.240   4.163
 4645TIP3    H113941   2.631   4.240   4.200
 4645TIP3    H213942   2.553   4.283   4.078
 4646TIP3   OH213943   3.453   4.921   4.754
 4646TIP3    H113944   3.392   4.980   4.798
 4646TIP3    H213945   3.465   4.849   4.815
 4647TIP3   OH213946   5.863   4.418   1.071
 4647TIP3    H113947   5.783   4.373   1.044
 4647TIP3    H213948   5.882   4.479   0.999
 4648TIP3   OH213949   0.268   3.275   4.969
 4648TIP3    H113950   0.270   3.214   4.895
 4648TIP3    H213951   0.353   3.319   4.965
 4649TIP3   OH213952   0.347   0.661   1.011
 4649TIP3    H113953   0.320   0.738   1.061
 4649TIP3    H213954   0.272   0.602   1.017
 4650TIP3   OH213955   3.402   2.003   5.013
 4650TIP3    H113956   3.410   2.088   4.969
 4650TIP3    H213957   3.486   1.959   4.997
 4651TIP3   OH213958   1.714   5.193   3.395
 4651TIP3    H113959   1.783   5.249   3.431
 4651TIP3    H213960   1.760   5.125   3.347
 4652TIP3   OH213961   2.396   4.751   1.543
 4652TIP3    H113962   2.438   4.727   1.461
 4652TIP3    H213963   2.307   4.715   1.535
 4653TIP3   OH213964   5.592   4.563   3.034
 4653TIP3    H113965   5.501   4.564   3.064
 4653TIP3    H213966   5.624   4.651   3.052
 4654TIP3   OH213967   3.539   2.488   5.001
 4654TIP3    H113968   3.488   2.428   4.947
 4654TIP3    H213969   3.612   2.436   5.033
 4655TIP3   OH213970   4.322   1.198   0.085
 4655TIP3    H113971   4.259   1.146   0.136
 4655TIP3    H213972   4.319   1.284   0.125
 4656TIP3   OH213973   3.135   0.441   0.895
 4656TIP3    H113974   3.230   0.429   0.895
 4656TIP3    H213975   3.117   0.486   0.812
 4657TIP3   OH213976   0.809   5.328   4.676
 4657TIP3    H113977   0.726   5.305   4.635
 4657TIP3    H213978   0.787   5.347   4.767
 4658TIP3   OH213979   6.330   1.759   2.871
 4658TIP3    H113980   6.423   1.766   2.849
 4658TIP3    H213981   6.309   1.842   2.915
 4659TIP3   OH213982   2.369   2.549   1.698
 4659TIP3    H113983   2.280   2.554   1.662
 4659TIP3    H213984   2.362   2.492   1.774
 4660TIP3   OH213985   4.166   4.612   2.877
 4660TIP3    H113986   4.143   4.669   2.950
 4660TIP3    H213987   4.260   4.597   2.887
 4661TIP3   OH213988   3.580   2.991   3.299
 4661TIP3    H113989   3.644   3.057   3.325
 4661TIP3    H213990   3.567   3.006   3.205
 4662TIP3   OH213991   0.268   2.497   1.668
 4662TIP3    H113992   0.191   2.464   1.622
 4662TIP3    H213993   0.238   2.577   1.711
 4663TIP3   OH213994   3.840   5.656   4.524
 4663TIP3    H113995   3.769   5.672   4.586
 4663TIP3    H213996   3.914   5.705   4.559
 4664TIP3   OH213997   3.914   0.967   0.420
 4664TIP3    H113998   3.891   0.908   0.492
 4664TIP3    H213999   3.889   0.918   0.341
 4665TIP3   OH214000   3.950   0.337   4.804
 4665TIP3    H114001   3.929   0.296   4.720
 4665TIP3    H214002   4.018   0.401   4.783
 4666TIP3   OH214003   4.805   1.853   0.604
 4666TIP3    H114004   4.718   1.884   0.628
 4666TIP3    H214005   4.796   1.758   0.596
 4667TIP3   OH214006   2.691   5.550   3.895
 4667TIP3    H114007   2.612   5.579   3.939
 4667TIP3    H214008   2.754   5.536   3.965
 4668TIP3   OH214009   2.537   3.885   2.094
 4668TIP3    H114010   2.448   3.856   2.076
 4668TIP3    H214011   2.566   3.831   2.168
 4669TIP3   OH214012   4.675   2.717   2.831
 4669TIP3    H114013   4.736   2.680   2.895
 4669TIP3    H214014   4.728   2.733   2.753
 4670TIP3   OH214015   0.814   0.216   4.444
 4670TIP3    H114016   0.906   0.238   4.458
 4670TIP3    H214017   0.795   0.245   4.355
 4671TIP3   OH214018   5.271   2.937   2.126
 4671TIP3    H114019   5.359   2.930   2.090
 4671TIP3    H214020   5.226   2.860   2.093
 4672TIP3   OH214021   6.124   2.741   2.257
 4672TIP3    H114022   6.192   2.788   2.210
 4672TIP3    H214023   6.079   2.690   2.190
 4673TIP3   OH214024   2.309   4.814   2.644
 4673TIP3    H114025   2.253   4.739   2.662
 4673TIP3    H214026   2.270   4.886   2.694
 4674TIP3   OH214027   5.337   5.216   4.483
 4674TIP3    H114028   5.386   5.298   4.477
 4674TIP3    H214029   5.297   5.206   4.396
 4675TIP3   OH214030   2.602   3.545   4.148
 4675TIP3    H114031   2.614   3.476   4.083
 4675TIP3    H214032   2.689   3.583   4.159
 4676TIP3   OH214033   3.343   3.529   1.344
 4676TIP3    H114034   3.323   3.486   1.260
 4676TIP3    H214035   3.283   3.489   1.406
 4677TIP3   OH214036   5.102   0.361   4.649
 4677TIP3    H114037   5.044   0.307   4.594
 4677TIP3    H214038   5.046   0.390   4.721
 4678TIP3   OH214039   2.520   1.846   4.383
 4678TIP3    H114040   2.553   1.795   4.458
 4678TIP3    H214041   2.539   1.937   4.406
 4679TIP3   OH214042   5.418   3.225   0.525
 4679TIP3    H114043   5.495   3.201   0.576
 4679TIP3    H214044   5.451   3.242   0.437
 4680TIP3   OH214045   1.536   3.742   2.658
 4680TIP3    H114046   1.501   3.716   2.743
 4680TIP3    H214047   1.518   3.836   2.653
 4681TIP3   OH214048   1.461   2.213   0.086
 4681TIP3    H114049   1.474   2.204   0.180
 4681TIP3    H214050   1.521   2.283   0.060
 4682TIP3   OH214051   3.254   2.402   0.984
 4682TIP3    H114052   3.318   2.332   0.981
 4682TIP3    H214053   3.298   2.477   0.944
 4683TIP3   OH214054   1.429   1.969   1.251
 4683TIP3    H114055   1.415   1.905   1.182
 4683TIP3    H214056   1.352   1.964   1.307
 4684TIP3   OH214057   4.053   0.764   0.893
 4684TIP3    H114058   3.992   0.743   0.964
 4684TIP3    H214059   4.123   0.699   0.903
 4685TIP3   OH214060   5.427   0.580   0.954
 4685TIP3    H114061   5.358   0.538   1.006
 4685TIP3    H214062   5.437   0.667   0.993
 4686TIP3   OH214063   2.130   5.131   3.809
 4686TIP3    H114064   2.066   5.117   3.740
 4686TIP3    H214065   2.109   5.063   3.874
 4687TIP3   OH214066   0.590   3.279   2.986
 4687TIP3    H114067   0.519   3.311   3.041
 4687TIP3    H214068   0.547   3.219   2.925
 4688TIP3   OH214069   6.115   1.224   3.172
 4688TIP3    H114070   6.036   1.171   3.168
 4688TIP3    H214071   6.185   1.165   3.146
 4689TIP3   OH214072   1.082   1.811   1.978
 4689TIP3    H114073   0.989   1.799   1.961
 4689TIP3    H214074   1.109   1.880   1.917
 4690TIP3   OH214075   0.948   2.871   2.851
 4690TIP3    H114076   0.887   2.924   2.800
 4690TIP3    H214077   1.013   2.934   2.883
 4691TIP3   OH214078   5.662   1.843   2.945
 4691TIP3    H114079   5.594   1.777   2.936
 4691TIP3    H214080   5.668   1.885   2.859
 4692TIP3   OH214081   0.824   4.470   3.230
 4692TIP3    H114082   0.866   4.554   3.210
 4692TIP3    H214083   0.896   4.414   3.259
 4693TIP3   OH214084   0.464   5.655   4.343
 4693TIP3    H114085   0.432   5.721   4.282
 4693TIP3    H214086   0.555   5.640   4.317
 4694TIP3   OH214087   4.850   3.749   0.006
 4694TIP3    H114088   4.925   3.766   0.063
 4694TIP3    H214089   4.784   3.812   0.033
 4695TIP3   OH214090   4.071   1.215   1.978
 4695TIP3    H114091   4.122   1.167   1.913
 4695TIP3    H214092   3.987   1.232   1.935
 4696TIP3   OH214093   5.135   5.073   1.805
 4696TIP3    H114094   5.164   5.164   1.805
 4696TIP3    H214095   5.129   5.049   1.897
 4697TIP3   OH214096   1.090   0.319   4.428
 4697TIP3    H114097   1.167   0.271   4.397
 4697TIP3    H214098   1.058   0.366   4.351
 4698TIP3   OH214099   2.070   2.134   1.307
 4698TIP3    H114100   2.037   2.201   1.366
 4698TIP3    H214101   2.132   2.180   1.250
 4699TIP3   OH214102   2.973   0.224   2.100
 4699TIP3    H114103   2.881   0.233   2.075
 4699TIP3    H214104   2.986   0.130   2.114
 4700TIP3   OH214105   4.636   3.089   4.400
 4700TIP3    H114106   4.642   3.096   4.305
 4700TIP3    H214107   4.722   3.058   4.428
 4701TIP3   OH214108   1.091   1.040   1.329
 4701TIP3    H114109   1.151   1.050   1.255
 4701TIP3    H214110   1.113   0.956   1.367
 4702TIP3   OH214111   1.334   1.324   2.664
 4702TIP3    H114112   1.291   1.387   2.722
 4702TIP3    H214113   1.355   1.375   2.586
 4703TIP3   OH214114   0.117   0.864   1.608
 4703TIP3    H114115   0.207   0.860   1.641
 4703TIP3    H214116   0.087   0.952   1.630
 4704TIP3   OH214117   0.269   5.677   0.741
 4704TIP3    H114118   0.345   5.673   0.682
 4704TIP3    H214119   0.269   5.767   0.773
 4705TIP3   OH214120   3.128   1.516   2.740
 4705TIP3    H114121   3.069   1.588   2.718
 4705TIP3    H214122   3.213   1.543   2.705
 4706TIP3   OH214123   3.127   2.178   3.387
 4706TIP3    H114124   3.158   2.130   3.310
 4706TIP3    H214125   3.203   2.229   3.415
 4707TIP3   OH214126   0.356   4.652   3.940
 4707TIP3    H114127   0.366   4.558   3.925
 4707TIP3    H214128   0.407   4.693   3.871
 4708TIP3   OH214129   5.138   0.187   0.072
 4708TIP3    H114130   5.108   0.266   0.117
 4708TIP3    H214131   5.097   0.191  -0.014
 4709TIP3   OH214132   0.780   0.235   1.712
 4709TIP3    H114133   0.723   0.310   1.700
 4709TIP3    H214134   0.868   0.268   1.690
 4710TIP3   OH214135   0.241   1.453   4.509
 4710TIP3    H114136   0.210   1.368   4.478
 4710TIP3    H214137   0.161   1.500   4.534
 4711TIP3   OH214138   1.782   3.269   4.720
 4711TIP3    H114139   1.836   3.292   4.796
 4711TIP3    H214140   1.756   3.353   4.682
 4712TIP3   OH214141   2.646   4.522   3.584
 4712TIP3    H114142   2.583   4.465   3.629
 4712TIP3    H214143   2.729   4.503   3.628
 4713TIP3   OH214144   1.998   1.614   4.935
 4713TIP3    H114145   2.025   1.523   4.946
 4713TIP3    H214146   2.075   1.665   4.960
 4714TIP3   OH214147   0.251   2.621   3.840
 4714TIP3    H114148   0.209   2.655   3.919
 4714TIP3    H214149   0.313   2.555   3.872
 4715TIP3   OH214150   5.383   4.942   4.190
 4715TIP3    H114151   5.399   4.872   4.254
 4715TIP3    H214152   5.431   5.017   4.225
 4716TIP3   OH214153   1.260   4.765   1.692
 4716TIP3    H114154   1.303   4.844   1.658
 4716TIP3    H214155   1.318   4.736   1.763
 4717TIP3   OH214156   6.113   2.622   3.382
 4717TIP3    H114157   6.089   2.677   3.456
 4717TIP3    H214158   6.084   2.671   3.305
 4718TIP3   OH214159   0.611   1.989   2.740
 4718TIP3    H114160   0.625   2.070   2.691
 4718TIP3    H214161   0.520   1.965   2.720
 4719TIP3   OH214162   5.537   1.669   0.375
 4719TIP3    H114163   5.490   1.687   0.293
 4719TIP3    H214164   5.492   1.593   0.412
 4720TIP3   OH214165   4.167   0.520   4.767
 4720TIP3    H114166   4.196   0.592   4.711
 4720TIP3    H214167   4.238   0.508   4.830
 4721TIP3   OH214168   4.050   2.753   2.579
 4721TIP3    H114169   4.134   2.769   2.621
 4721TIP3    H214170   4.072   2.739   2.486
 4722TIP3   OH214171   4.650   3.299   0.929
 4722TIP3    H114172   4.695   3.305   1.013
 4722TIP3    H214173   4.557   3.308   0.951
 4723TIP3   OH214174   2.671   0.040   1.242
 4723TIP3    H114175   2.624   0.095   1.305
 4723TIP3    H214176   2.736  -0.006   1.295
 4724TIP3   OH214177   3.230   5.225   4.393
 4724TIP3    H114178   3.295   5.295   4.400
 4724TIP3    H214179   3.176   5.250   4.318
 4725TIP3   OH214180   1.081   2.589   2.502
 4725TIP3    H114181   1.079   2.496   2.522
 4725TIP3    H214182   1.004   2.604   2.446
 4726TIP3   OH214183   0.362   1.825   4.543
 4726TIP3    H114184   0.303   1.778   4.602
 4726TIP3    H214185   0.375   1.910   4.585
 4727TIP3   OH214186   0.822   4.001   4.312
 4727TIP3    H114187   0.763   3.929   4.290
 4727TIP3    H214188   0.908   3.971   4.284
 4728TIP3   OH214189   5.588   0.393   2.435
 4728TIP3    H114190   5.611   0.327   2.369
 4728TIP3    H214191   5.549   0.342   2.506
 4729TIP3   OH214192   2.806   5.323   4.460
 4729TIP3    H114193   2.857   5.298   4.383
 4729TIP3    H214194   2.872   5.354   4.523
 4730TIP3   OH214195   4.461   1.829   3.095
 4730TIP3    H114196   4.505   1.760   3.046
 4730TIP3    H214197   4.401   1.869   3.032
 4731TIP3   OH214198   5.406   2.355   0.971
 4731TIP3    H114199   5.492   2.315   0.980
 4731TIP3    H214200   5.346   2.290   1.007
 4732TIP3   OH214201   6.280   2.601   1.151
 4732TIP3    H114202   6.189   2.600   1.178
 4732TIP3    H214203   6.302   2.694   1.140
 4733TIP3   OH214204   0.009   4.459   0.871
 4733TIP3    H114205  -0.043   4.433   0.794
 4733TIP3    H214206   0.053   4.378   0.898
 4734TIP3   OH214207   0.691   1.936   4.233
 4734TIP3    H114208   0.747   1.866   4.198
 4734TIP3    H214209   0.606   1.895   4.247
 4735TIP3   OH214210   2.266   3.385   3.812
 4735TIP3    H114211   2.234   3.362   3.900
 4735TIP3    H214212   2.313   3.467   3.825
 4736TIP3   OH214213   4.693   4.984   2.790
 4736TIP3    H114214   4.598   4.976   2.783
 4736TIP3    H214215   4.708   5.019   2.877
 4737TIP3   OH214216   2.974   1.907   4.235
 4737TIP3    H114217   2.893   1.860   4.219
 4737TIP3    H214218   2.996   1.887   4.326
 4738TIP3   OH214219   0.417   3.734   3.919
 4738TIP3    H114220   0.448   3.644   3.934
 4738TIP3    H214221   0.497   3.786   3.914
 4739TIP3   OH214222   1.451   3.363   2.928
 4739TIP3    H114223   1.398   3.439   2.952
 4739TIP3    H214224   1.390   3.289   2.933
 4740TIP3   OH214225   5.442   2.300   2.723
 4740TIP3    H114226   5.392   2.219   2.721
 4740TIP3    H214227   5.420   2.343   2.640
 4741TIP3   OH214228   1.873   0.539   2.805
 4741TIP3    H114229   1.887   0.615   2.862
 4741TIP3    H214230   1.783   0.549   2.773
 4742TIP3   OH214231   3.523   0.488   3.953
 4742TIP3    H114232   3.444   0.472   3.901
 4742TIP3    H214233   3.490   0.518   4.038
 4743TIP3   OH214234   1.025   5.825   0.594
 4743TIP3    H114235   1.085   5.752   0.612
 4743TIP3    H214236   1.027   5.834   0.499
 4744TIP3   OH214237   1.633   4.736   2.823
 4744TIP3    H114238   1.626   4.793   2.899
 4744TIP3    H214239   1.658   4.651   2.859
 4745TIP3   OH214240   1.145   6.001   1.001
 4745TIP3    H114241   1.203   5.944   0.951
 4745TIP3    H214242   1.204   6.060   1.049
 4746TIP3   OH214243   6.157   1.673   2.622
 4746TIP3    H114244   6.203   1.708   2.698
 4746TIP3    H214245   6.126   1.587   2.649
 4747TIP3   OH214246   0.105   4.545   1.300
 4747TIP3    H114247   0.136   4.636   1.302
 4747TIP3    H214248   0.041   4.543   1.228
 4748TIP3   OH214249   3.546   5.295   2.886
 4748TIP3    H114250   3.468   5.311   2.832
 4748TIP3    H214251   3.617   5.281   2.823
 4749TIP3   OH214252   6.153   0.036   4.343
 4749TIP3    H114253   6.212   0.087   4.288
 4749TIP3    H214254   6.202   0.023   4.424
 4750TIP3   OH214255   0.107   0.595   3.083
 4750TIP3    H114256   0.017   0.619   3.058
 4750TIP3    H214257   0.162   0.646   3.024
 4751TIP3   OH214258   3.517   1.546   4.187
 4751TIP3    H114259   3.552   1.629   4.152
 4751TIP3    H214260   3.549   1.479   4.127
 4752TIP3   OH214261   3.635   2.392   1.772
 4752TIP3    H114262   3.568   2.456   1.793
 4752TIP3    H214263   3.664   2.415   1.683
 4753TIP3   OH214264   1.591   4.506   1.888
 4753TIP3    H114265   1.596   4.501   1.793
 4753TIP3    H214266   1.676   4.543   1.914
 4754TIP3   OH214267   0.771   0.257   4.164
 4754TIP3    H114268   0.825   0.244   4.086
 4754TIP3    H214269   0.689   0.213   4.144
 4755TIP3   OH214270   0.834   5.734   1.722
 4755TIP3    H114271   0.923   5.763   1.743
 4755TIP3    H214272   0.811   5.673   1.792
 4756TIP3   OH214273   1.672   3.756   4.096
 4756TIP3    H114274   1.692   3.685   4.157
 4756TIP3    H214275   1.578   3.748   4.078
 4757TIP3   OH214276   1.960   1.751   1.206
 4757TIP3    H114277   1.985   1.818   1.270
 4757TIP3    H214278   2.023   1.761   1.135
 4758TIP3   OH214279   0.714   4.839   3.434
 4758TIP3    H114280   0.746   4.858   3.522
 4758TIP3    H214281   0.793   4.824   3.382
 4759TIP3   OH214282   5.713   2.202   0.224
 4759TIP3    H114283   5.695   2.132   0.287
 4759TIP3    H214284   5.763   2.267   0.274
 4760TIP3   OH214285   6.153   1.341   2.662
 4760TIP3    H114286   6.237   1.326   2.619
 4760TIP3    H214287   6.150   1.278   2.734
 4761TIP3   OH214288   5.170   2.897   0.396
 4761TIP3    H114289   5.254   2.892   0.351
 4761TIP3    H214290   5.121   2.821   0.364
 4762TIP3   OH214291   3.799   1.183   1.881
 4762TIP3    H114292   3.743   1.223   1.947
 4762TIP3    H214293   3.784   1.089   1.892
 4763TIP3   OH214294   2.722   0.572   5.020
 4763TIP3    H114295   2.713   0.622   5.101
 4763TIP3    H214296   2.762   0.634   4.959
 4764TIP3   OH214297   2.218   5.550   1.758
 4764TIP3    H114298   2.246   5.459   1.769
 4764TIP3    H214299   2.206   5.560   1.664
 4765TIP3   OH214300   3.193   4.104   1.863
 4765TIP3    H114301   3.160   4.021   1.896
 4765TIP3    H214302   3.197   4.160   1.941
 4766TIP3   OH214303   2.270   2.172   3.327
 4766TIP3    H114304   2.291   2.097   3.271
 4766TIP3    H214305   2.206   2.222   3.276
 4767TIP3   OH214306   2.048   4.573   2.288
 4767TIP3    H114307   1.987   4.532   2.226
 4767TIP3    H214308   1.996   4.586   2.368
 4768TIP3   OH214309   4.120   4.296   4.794
 4768TIP3    H114310   4.123   4.246   4.712
 4768TIP3    H214311   4.135   4.387   4.766
 4769TIP3   OH214312   0.389   2.843   5.039
 4769TIP3    H114313   0.319   2.830   4.975
 4769TIP3    H214314   0.419   2.755   5.060
 4770TIP3   OH214315   3.685   5.829   0.928
 4770TIP3    H114316   3.691   5.764   0.998
 4770TIP3    H214317   3.606   5.879   0.949
 4771TIP3   OH214318   2.768   3.349   0.957
 4771TIP3    H114319   2.738   3.309   0.876
 4771TIP3    H214320   2.826   3.420   0.929
 4772TIP3   OH214321   1.776   4.951   4.082
 4772TIP3    H114322   1.690   4.978   4.049
 4772TIP3    H214323   1.825   5.033   4.091
 4773TIP3   OH214324   4.382   0.541   2.008
 4773TIP3    H114325   4.389   0.620   2.062
 4773TIP3    H214326   4.322   0.484   2.056
 4774TIP3   OH214327   2.110   3.408   4.053
 4774TIP3    H114328   2.193   3.407   4.101
 4774TIP3    H214329   2.051   3.460   4.107
 4775TIP3   OH214330   2.820   4.881   2.343
 4775TIP3    H114331   2.756   4.951   2.331
 4775TIP3    H214332   2.854   4.895   2.432
 4776TIP3   OH214333   4.387   0.548   0.002
 4776TIP3    H114334   4.468   0.509   0.035
 4776TIP3    H214335   4.394   0.641   0.024
 4777TIP3   OH214336   1.774   0.323   5.022
 4777TIP3    H114337   1.685   0.297   4.997
 4777TIP3    H214338   1.809   0.247   5.069
 4778TIP3   OH214339   2.472   4.404   2.886
 4778TIP3    H114340   2.401   4.447   2.934
 4778TIP3    H214341   2.540   4.389   2.952
 4779TIP3   OH214342   3.577   4.999   1.489
 4779TIP3    H114343   3.669   5.011   1.515
 4779TIP3    H214344   3.551   5.084   1.453
 4780TIP3   OH214345   2.870   3.722   3.295
 4780TIP3    H114346   2.864   3.661   3.222
 4780TIP3    H214347   2.784   3.764   3.299
 4781TIP3   OH214348   0.224   4.168   4.623
 4781TIP3    H114349   0.318   4.183   4.614
 4781TIP3    H214350   0.192   4.242   4.674
 4782TIP3   OH214351   2.518   2.634   4.876
 4782TIP3    H114352   2.487   2.619   4.965
 4782TIP3    H214353   2.462   2.578   4.822
 4783TIP3   OH214354   3.209   5.083   1.363
 4783TIP3    H114355   3.237   5.046   1.447
 4783TIP3    H214356   3.262   5.039   1.298
 4784TIP3   OH214357   0.500   5.645   3.504
 4784TIP3    H114358   0.407   5.647   3.483
 4784TIP3    H214359   0.510   5.571   3.563
 4785TIP3   OH214360   4.589   5.347   4.661
 4785TIP3    H114361   4.504   5.379   4.691
 4785TIP3    H214362   4.591   5.368   4.568
 4786TIP3   OH214363   0.068   3.647   2.352
 4786TIP3    H114364   0.119   3.567   2.342
 4786TIP3    H214365   0.055   3.680   2.263
 4787TIP3   OH214366   3.202   0.602   1.132
 4787TIP3    H114367   3.282   0.559   1.162
 4787TIP3    H214368   3.147   0.531   1.099
 4788TIP3   OH214369   6.346   1.247   0.663
 4788TIP3    H114370   6.279   1.274   0.600
 4788TIP3    H214371   6.328   1.298   0.742
 4789TIP3   OH214372   3.337   0.245   2.395
 4789TIP3    H114373   3.409   0.219   2.452
 4789TIP3    H214374   3.259   0.239   2.451
 4790TIP3   OH214375   2.406   5.944   2.716
 4790TIP3    H114376   2.334   5.946   2.779
 4790TIP3    H214377   2.433   6.036   2.707
 4791TIP3   OH214378   2.199   5.125   0.480
 4791TIP3    H114379   2.147   5.160   0.553
 4791TIP3    H214380   2.135   5.116   0.409
 4792TIP3   OH214381   4.706   0.273   1.474
 4792TIP3    H114382   4.728   0.200   1.532
 4792TIP3    H214383   4.611   0.269   1.465
 4793TIP3   OH214384   0.852   5.902   3.983
 4793TIP3    H114385   0.892   5.856   4.057
 4793TIP3    H214386   0.901   5.873   3.907
 4794TIP3   OH214387   0.775   5.291   3.748
 4794TIP3    H114388   0.712   5.223   3.775
 4794TIP3    H214389   0.826   5.249   3.679
 4795TIP3   OH214390   3.296   1.629   2.011
 4795TIP3    H114391   3.318   1.713   2.052
 4795TIP3    H214392   3.201   1.633   1.999
 4796TIP3   OH214393   0.926   3.416   4.948
 4796TIP3    H114394   0.938   3.460   4.864
 4796TIP3    H214395   0.920   3.323   4.925
 4797TIP3   OH214396   0.997   4.605   4.806
 4797TIP3    H114397   0.961   4.533   4.755
 4797TIP3    H214398   1.085   4.618   4.770
 4798TIP3   OH214399   0.172   2.643   0.684
 4798TIP3    H114400   0.159   2.548   0.682
 4798TIP3    H214401   0.111   2.675   0.751
 4799TIP3   OH214402   4.266   4.374   4.392
 4799TIP3    H114403   4.287   4.419   4.474
 4799TIP3    H214404   4.320   4.419   4.326
 4800TIP3   OH214405   1.697   5.955   1.892
 4800TIP3    H114406   1.619   5.997   1.855
 4800TIP3    H214407   1.753   5.939   1.816
 4801TIP3   OH214408   2.494   0.181   4.764
 4801TIP3    H114409   2.475   0.237   4.689
 4801TIP3    H214410   2.582   0.208   4.792
 4802TIP3   OH214411   2.179   1.854   2.187
 4802TIP3    H114412   2.222   1.894   2.262
 4802TIP3    H214413   2.088   1.842   2.215
 4803TIP3   OH214414   4.524   4.948   1.263
 4803TIP3    H114415   4.561   4.926   1.349
 4803TIP3    H214416   4.585   4.910   1.200
 4804TIP3   OH214417   1.944   3.038   3.347
 4804TIP3    H114418   1.877   3.106   3.338
 4804TIP3    H214419   1.940   2.990   3.265
 4805TIP3   OH214420   2.638   2.423   3.326
 4805TIP3    H114421   2.688   2.383   3.397
 4805TIP3    H214422   2.673   2.512   3.319
 4806TIP3   OH214423   1.526   1.998   4.362
 4806TIP3    H114424   1.534   2.093   4.368
 4806TIP3    H214425   1.613   1.968   4.336
 4807TIP3   OH214426   4.469   4.569   4.286
 4807TIP3    H114427   4.471   4.651   4.335
 4807TIP3    H214428   4.508   4.591   4.202
 4808TIP3   OH214429   3.514   5.931   5.080
 4808TIP3    H114430   3.588   5.946   5.023
 4808TIP3    H214431   3.473   6.017   5.090
 4809TIP3   OH214432   1.963   5.810   4.073
 4809TIP3    H114433   1.947   5.719   4.100
 4809TIP3    H214434   2.058   5.818   4.070
 4810TIP3   OH214435   5.502   4.647   0.618
 4810TIP3    H114436   5.513   4.552   0.615
 4810TIP3    H214437   5.434   4.662   0.684
 4811TIP3   OH214438   5.602   3.241   1.689
 4811TIP3    H114439   5.520   3.289   1.677
 4811TIP3    H214440   5.647   3.250   1.605
 4812TIP3   OH214441   1.647   4.978   5.100
 4812TIP3    H114442   1.664   4.897   5.052
 4812TIP3    H214443   1.734   5.017   5.113
 4813TIP3   OH214444   4.518   5.191   1.543
 4813TIP3    H114445   4.609   5.172   1.567
 4813TIP3    H214446   4.516   5.287   1.533
 4814TIP3   OH214447   5.234   3.853   1.664
 4814TIP3    H114448   5.169   3.796   1.622
 4814TIP3    H214449   5.188   3.935   1.680
 4815TIP3   OH214450   1.881   5.963   4.464
 4815TIP3    H114451   1.887   6.011   4.381
 4815TIP3    H214452   1.790   5.973   4.492
 4816TIP3   OH214453   5.858   1.158   0.650
 4816TIP3    H114454   5.889   1.071   0.676
 4816TIP3    H214455   5.773   1.142   0.608
 4817TIP3   OH214456   4.092   2.647   1.563
 4817TIP3    H114457   4.065   2.608   1.647
 4817TIP3    H214458   4.157   2.585   1.529
 4818TIP3   OH214459   0.615   1.445   2.841
 4818TIP3    H114460   0.653   1.472   2.925
 4818TIP3    H214461   0.690   1.437   2.782
 4819TIP3   OH214462   2.552   2.041   2.779
 4819TIP3    H114463   2.494   2.098   2.829
 4819TIP3    H214464   2.595   1.987   2.846
 4820TIP3   OH214465   0.590   0.162   3.818
 4820TIP3    H114466   0.563   0.221   3.747
 4820TIP3    H214467   0.684   0.150   3.803
 4821TIP3   OH214468   2.529   4.681   2.766
 4821TIP3    H114469   2.477   4.601   2.779
 4821TIP3    H214470   2.463   4.750   2.753
 4822TIP3   OH214471   2.975   4.780   1.431
 4822TIP3    H114472   2.989   4.692   1.398
 4822TIP3    H214473   3.054   4.800   1.481
 4823TIP3   OH214474   5.317   5.854   4.001
 4823TIP3    H114475   5.390   5.904   4.038
 4823TIP3    H214476   5.358   5.785   3.950
 4824TIP3   OH214477   5.040   5.546   1.700
 4824TIP3    H114478   5.112   5.563   1.639
 4824TIP3    H214479   5.017   5.632   1.734
 4825TIP3   OH214480   4.554   4.457   0.464
 4825TIP3    H114481   4.580   4.545   0.489
 4825TIP3    H214482   4.584   4.447   0.374
 4826TIP3   OH214483   3.827   3.363   1.362
 4826TIP3    H114484   3.921   3.376   1.375
 4826TIP3    H214485   3.788   3.446   1.390
 4827TIP3   OH214486   2.027   1.401   3.767
 4827TIP3    H114487   2.066   1.314   3.763
 4827TIP3    H214488   2.097   1.460   3.741
 4828TIP3   OH214489   1.689   0.886   3.446
 4828TIP3    H114490   1.647   0.972   3.454
 4828TIP3    H214491   1.740   0.892   3.365
 4829TIP3   OH214492   0.528   1.640   0.896
 4829TIP3    H114493   0.441   1.601   0.891
 4829TIP3    H214494   0.580   1.591   0.832
 4830TIP3   OH214495   3.776   2.752   1.033
 4830TIP3    H114496   3.851   2.745   1.092
 4830TIP3    H214497   3.744   2.662   1.025
 4831TIP3   OH214498   3.079   4.966   4.708
 4831TIP3    H114499   3.110   4.883   4.673
 4831TIP3    H214500   3.038   4.943   4.792
 4832TIP3   OH214501   1.908   1.328   4.756
 4832TIP3    H114502   1.927   1.349   4.848
 4832TIP3    H214503   1.847   1.254   4.761
 4833TIP3   OH214504   2.674   0.857   0.480
 4833TIP3    H114505   2.580   0.859   0.459
 4833TIP3    H214506   2.688   0.771   0.519
 4834TIP3   OH214507   0.859   1.540   0.998
 4834TIP3    H114508   0.918   1.465   1.005
 4834TIP3    H214509   0.809   1.524   0.918
 4835TIP3   OH214510   4.041   1.841   0.720
 4835TIP3    H114511   4.111   1.904   0.705
 4835TIP3    H214512   3.967   1.893   0.751
 4836TIP3   OH214513   0.609   3.865   0.253
 4836TIP3    H114514   0.532   3.897   0.206
 4836TIP3    H214515   0.664   3.826   0.185
 4837TIP3   OH214516   3.709   2.516   3.758
 4837TIP3    H114517   3.667   2.547   3.838
 4837TIP3    H214518   3.729   2.595   3.709
 4838TIP3   OH214519   3.060   3.780   0.512
 4838TIP3    H114520   3.052   3.805   0.604
 4838TIP3    H214521   2.994   3.711   0.501
 4839TIP3   OH214522   3.555   4.342   5.142
 4839TIP3    H114523   3.469   4.334   5.182
 4839TIP3    H214524   3.548   4.294   5.060
 4840TIP3   OH214525   4.268   3.422   0.368
 4840TIP3    H114526   4.280   3.471   0.287
 4840TIP3    H214527   4.352   3.376   0.381
 4841TIP3   OH214528   1.072   4.274   3.310
 4841TIP3    H114529   1.096   4.366   3.323
 4841TIP3    H214530   1.111   4.228   3.384
 4842TIP3   OH214531   2.613   1.064   0.160
 4842TIP3    H114532   2.592   0.981   0.117
 4842TIP3    H214533   2.635   1.040   0.250
 4843TIP3   OH214534   4.899   2.903   3.537
 4843TIP3    H114535   4.842   2.955   3.594
 4843TIP3    H214536   4.957   2.857   3.597
 4844TIP3   OH214537   5.808   1.346   0.893
 4844TIP3    H114538   5.824   1.417   0.831
 4844TIP3    H214539   5.804   1.267   0.840
 4845TIP3   OH214540   0.573   4.417   3.137
 4845TIP3    H114541   0.666   4.438   3.152
 4845TIP3    H214542   0.568   4.323   3.151
 4846TIP3   OH214543   5.734   4.158   3.225
 4846TIP3    H114544   5.736   4.226   3.292
 4846TIP3    H214545   5.726   4.205   3.143
 4847TIP3   OH214546   6.203   0.296   4.864
 4847TIP3    H114547   6.217   0.313   4.771
 4847TIP3    H214548   6.226   0.203   4.875
 4848TIP3   OH214549   2.514   5.489   2.093
 4848TIP3    H114550   2.519   5.537   2.176
 4848TIP3    H214551   2.424   5.503   2.064
 4849TIP3   OH214552   2.258   5.941   2.433
 4849TIP3    H114553   2.329   5.881   2.413
 4849TIP3    H214554   2.298   6.007   2.490
 4850TIP3   OH214555   1.813   4.775   3.408
 4850TIP3    H114556   1.871   4.745   3.337
 4850TIP3    H214557   1.784   4.694   3.451
 4851TIP3   OH214558   1.685   2.618   2.459
 4851TIP3    H114559   1.641   2.594   2.378
 4851TIP3    H214560   1.731   2.538   2.485
 4852TIP3   OH214561   3.536   3.556   4.391
 4852TIP3    H114562   3.625   3.589   4.405
 4852TIP3    H214563   3.501   3.611   4.321
 4853TIP3   OH214564   1.837   4.748   1.073
 4853TIP3    H114565   1.800   4.799   1.145
 4853TIP3    H214566   1.899   4.689   1.116
 4854TIP3   OH214567   4.154   5.462   1.693
 4854TIP3    H114568   4.067   5.480   1.658
 4854TIP3    H214569   4.182   5.382   1.649
 4855TIP3   OH214570   2.802   2.292   1.670
 4855TIP3    H114571   2.816   2.387   1.675
 4855TIP3    H214572   2.707   2.281   1.676
 4856TIP3   OH214573   3.593   4.198   3.707
 4856TIP3    H114574   3.644   4.272   3.741
 4856TIP3    H214575   3.601   4.204   3.612
 4857TIP3   OH214576   3.674   0.295   2.750
 4857TIP3    H114577   3.725   0.307   2.831
 4857TIP3    H214578   3.620   0.374   2.745
 4858TIP3   OH214579   4.382   3.750   3.106
 4858TIP3    H114580   4.440   3.683   3.143
 4858TIP3    H214581   4.321   3.700   3.051
 4859TIP3   OH214582   3.405   0.656   4.137
 4859TIP3    H114583   3.338   0.711   4.178
 4859TIP3    H214584   3.466   0.718   4.097
 4860TIP3   OH214585   6.069   5.054   2.375
 4860TIP3    H114586   6.004   5.109   2.419
 4860TIP3    H214587   6.027   4.968   2.370
 4861TIP3   OH214588   3.852   4.223   4.589
 4861TIP3    H114589   3.941   4.189   4.586
 4861TIP3    H214590   3.814   4.198   4.505
 4862TIP3   OH214591   3.226   4.737   4.681
 4862TIP3    H114592   3.302   4.779   4.722
 4862TIP3    H214593   3.171   4.710   4.754
 4863TIP3   OH214594   5.912   4.351   2.000
 4863TIP3    H114595   6.001   4.345   2.035
 4863TIP3    H214596   5.919   4.315   1.911
 4864TIP3   OH214597   0.732   1.216   1.437
 4864TIP3    H114598   0.765   1.170   1.359
 4864TIP3    H214599   0.645   1.246   1.412
 4865TIP3   OH214600   0.464   5.672   0.566
 4865TIP3    H114601   0.560   5.679   0.566
 4865TIP3    H214602   0.443   5.633   0.481
 4866TIP3   OH214603   1.253   3.670   2.696
 4866TIP3    H114604   1.284   3.633   2.613
 4866TIP3    H214605   1.177   3.722   2.672
 4867TIP3   OH214606   2.337   3.538   0.460
 4867TIP3    H114607   2.242   3.533   0.467
 4867TIP3    H214608   2.370   3.480   0.528
 4868TIP3   OH214609   4.337   1.185   2.589
 4868TIP3    H114610   4.409   1.155   2.533
 4868TIP3    H214611   4.261   1.134   2.560
 4869TIP3   OH214612   2.405   1.829   0.805
 4869TIP3    H114613   2.324   1.861   0.766
 4869TIP3    H214614   2.393   1.735   0.813
 4870TIP3   OH214615   2.927   0.405   2.475
 4870TIP3    H114616   2.878   0.323   2.478
 4870TIP3    H214617   2.937   0.429   2.567
 4871TIP3   OH214618   1.023   5.871   3.588
 4871TIP3    H114619   1.026   5.885   3.494
 4871TIP3    H214620   1.002   5.957   3.625
 4872TIP3   OH214621   0.416   2.343   1.819
 4872TIP3    H114622   0.352   2.281   1.854
 4872TIP3    H214623   0.363   2.406   1.769
 4873TIP3   OH214624   4.117   5.060   4.332
 4873TIP3    H114625   4.186   5.075   4.266
 4873TIP3    H214626   4.062   5.138   4.327
 4874TIP3   OH214627   4.867   4.381   1.328
 4874TIP3    H114628   4.801   4.320   1.296
 4874TIP3    H214629   4.920   4.403   1.251
 4875TIP3   OH214630   6.312   0.443   1.418
 4875TIP3    H114631   6.221   0.419   1.433
 4875TIP3    H214632   6.322   0.436   1.323
 4876TIP3   OH214633   1.295   0.290   1.653
 4876TIP3    H114634   1.370   0.309   1.596
 4876TIP3    H214635   1.334   0.246   1.729
 4877TIP3   OH214636   3.267   3.903   0.000
 4877TIP3    H114637   3.301   3.992   0.009
 4877TIP3    H214638   3.331   3.848   0.045
 4878TIP3   OH214639   0.352   3.948   4.256
 4878TIP3    H114640   0.408   4.025   4.258
 4878TIP3    H214641   0.339   3.924   4.348
 4879TIP3   OH214642   2.568   4.850   0.937
 4879TIP3    H114643   2.615   4.919   0.889
 4879TIP3    H214644   2.482   4.846   0.894
 4880TIP3   OH214645   4.690   2.666   3.690
 4880TIP3    H114646   4.785   2.661   3.693
 4880TIP3    H214647   4.666   2.648   3.599
 4881TIP3   OH214648   4.633   0.563   3.087
 4881TIP3    H114649   4.713   0.615   3.096
 4881TIP3    H214650   4.623   0.520   3.172
 4882TIP3   OH214651   2.553   0.534   1.608
 4882TIP3    H114652   2.620   0.497   1.551
 4882TIP3    H214653   2.513   0.459   1.651
 4883TIP3   OH214654   2.773   4.331   4.312
 4883TIP3    H114655   2.728   4.415   4.305
 4883TIP3    H214656   2.755   4.302   4.401
 4884TIP3   OH214657   0.844   0.708   1.347
 4884TIP3    H114658   0.756   0.714   1.309
 4884TIP3    H214659   0.851   0.786   1.403
 4885TIP3   OH214660   2.569   3.207   1.369
 4885TIP3    H114661   2.604   3.296   1.380
 4885TIP3    H214662   2.488   3.207   1.420
 4886TIP3   OH214663   3.232   1.941   3.693
 4886TIP3    H114664   3.290   1.907   3.625
 4886TIP3    H214665   3.159   1.979   3.645
 4887TIP3   OH214666   2.696   2.226   2.399
 4887TIP3    H114667   2.777   2.228   2.449
 4887TIP3    H214668   2.720   2.192   2.313
 4888TIP3   OH214669   4.590   2.803   2.497
 4888TIP3    H114670   4.635   2.888   2.497
 4888TIP3    H214671   4.498   2.824   2.486
 4889TIP3   OH214672   4.639   5.194   4.044
 4889TIP3    H114673   4.677   5.253   3.979
 4889TIP3    H214674   4.679   5.220   4.127
 4890TIP3   OH214675   0.986   5.107   0.985
 4890TIP3    H114676   1.050   5.177   0.996
 4890TIP3    H214677   1.036   5.026   0.996
 4891TIP3   OH214678   0.905   2.754   1.605
 4891TIP3    H114679   0.820   2.774   1.566
 4891TIP3    H214680   0.884   2.725   1.694
 4892TIP3   OH214681   0.230   1.132   2.742
 4892TIP3    H114682   0.183   1.215   2.749
 4892TIP3    H214683   0.322   1.156   2.760
 4893TIP3   OH214684   4.361   3.112   1.340
 4893TIP3    H114685   4.336   3.201   1.367
 4893TIP3    H214686   4.371   3.064   1.423
 4894TIP3   OH214687   4.355   0.920   4.259
 4894TIP3    H114688   4.324   0.908   4.169
 4894TIP3    H214689   4.326   1.008   4.283
 4895TIP3   OH214690   2.126   2.934   1.686
 4895TIP3    H114691   2.213   2.895   1.687
 4895TIP3    H214692   2.093   2.922   1.775
 4896TIP3   OH214693   1.421   3.086   2.914
 4896TIP3    H114694   1.516   3.081   2.898
 4896TIP3    H214695   1.381   3.064   2.830
 4897TIP3   OH214696   5.771   3.329   3.858
 4897TIP3    H114697   5.742   3.325   3.767
 4897TIP3    H214698   5.750   3.418   3.886
 4898TIP3   OH214699   1.645   0.391   3.725
 4898TIP3    H114700   1.590   0.437   3.789
 4898TIP3    H214701   1.731   0.432   3.733
 4899TIP3   OH214702   2.550   5.587   4.972
 4899TIP3    H114703   2.543   5.544   5.058
 4899TIP3    H214704   2.509   5.673   4.985
 4900TIP3   OH214705   0.500   0.348   3.118
 4900TIP3    H114706   0.476   0.395   3.038
 4900TIP3    H214707   0.593   0.327   3.107
 4901TIP3   OH214708   4.934   4.766   4.637
 4901TIP3    H114709   4.981   4.789   4.718
 4901TIP3    H214710   4.939   4.670   4.634
 4902TIP3   OH214711   4.904   1.388   4.365
 4902TIP3    H114712   4.869   1.302   4.342
 4902TIP3    H214713   4.841   1.424   4.426
 4903TIP3   OH214714   3.744   3.647   1.884
 4903TIP3    H114715   3.652   3.675   1.886
 4903TIP3    H214716   3.740   3.555   1.857
 4904TIP3   OH214717   5.208   2.699   2.397
 4904TIP3    H114718   5.180   2.692   2.305
 4904TIP3    H214719   5.260   2.779   2.401
 4905TIP3   OH214720   3.267   5.298   0.913
 4905TIP3    H114721   3.184   5.320   0.955
 4905TIP3    H214722   3.317   5.379   0.914
 4906TIP3   OH214723   4.066   2.057   1.931
 4906TIP3    H114724   3.983   2.017   1.957
 4906TIP3    H214725   4.042   2.121   1.864
 4907TIP3   OH214726   3.791   0.574   0.236
 4907TIP3    H114727   3.772   0.658   0.193
 4907TIP3    H214728   3.744   0.510   0.183
 4908TIP3   OH214729   4.496   4.509   2.559
 4908TIP3    H114730   4.491   4.593   2.513
 4908TIP3    H214731   4.586   4.479   2.545
 4909TIP3   OH214732   4.083   3.906   0.972
 4909TIP3    H114733   4.088   3.977   0.908
 4909TIP3    H214734   4.168   3.861   0.965
 4910TIP3   OH214735   3.020   4.504   0.428
 4910TIP3    H114736   2.967   4.459   0.493
 4910TIP3    H214737   2.990   4.469   0.344
 4911TIP3   OH214738   4.052   2.627   2.299
 4911TIP3    H114739   3.994   2.674   2.238
 4911TIP3    H214740   4.137   2.628   2.256
 4912TIP3   OH214741   3.131   3.735   1.888
 4912TIP3    H114742   3.113   3.681   1.966
 4912TIP3    H214743   3.219   3.770   1.903
 4913TIP3   OH214744   3.838   3.039   4.998
 4913TIP3    H114745   3.920   2.995   4.980
 4913TIP3    H214746   3.790   3.036   4.915
 4914TIP3   OH214747   3.248   2.140   1.591
 4914TIP3    H114748   3.309   2.085   1.542
 4914TIP3    H214749   3.237   2.094   1.675
 4915TIP3   OH214750   2.832   4.418   0.617
 4915TIP3    H114751   2.841   4.483   0.686
 4915TIP3    H214752   2.754   4.445   0.569
 4916TIP3   OH214753   2.223   4.282   4.925
 4916TIP3    H114754   2.190   4.343   4.859
 4916TIP3    H214755   2.300   4.326   4.962
 4917TIP3   OH214756   5.932   0.250   4.989
 4917TIP3    H114757   5.964   0.249   4.899
 4917TIP3    H214758   5.870   0.323   4.992
 4918TIP3   OH214759   6.109   2.358   3.305
 4918TIP3    H114760   6.192   2.341   3.260
 4918TIP3    H214761   6.121   2.443   3.347
 4919TIP3   OH214762   4.932   3.472   0.180
 4919TIP3    H114763   4.944   3.564   0.202
 4919TIP3    H214764   4.842   3.467   0.148
 4920TIP3   OH214765   0.804   3.007   0.854
 4920TIP3    H114766   0.739   3.001   0.924
 4920TIP3    H214767   0.809   3.100   0.835
 4921TIP3   OH214768   1.406   3.095   0.374
 4921TIP3    H114769   1.376   3.185   0.362
 4921TIP3    H214770   1.359   3.046   0.306
 4922TIP3   OH214771   4.426   4.483   0.736
 4922TIP3    H114772   4.452   4.431   0.660
 4922TIP3    H214773   4.412   4.571   0.701
 4923TIP3   OH214774   0.102   3.407   2.130
 4923TIP3    H114775   0.121   3.318   2.100
 4923TIP3    H214776   0.053   3.395   2.211
 4924TIP3   OH214777   1.520   0.778   1.429
 4924TIP3    H114778   1.495   0.738   1.513
 4924TIP3    H214779   1.488   0.868   1.435
 4925TIP3   OH214780   3.751   5.935   0.568
 4925TIP3    H114781   3.739   6.024   0.535
 4925TIP3    H214782   3.792   5.888   0.495
 4926TIP3   OH214783   2.755   3.968   1.915
 4926TIP3    H114784   2.779   4.059   1.935
 4926TIP3    H214785   2.686   3.947   1.978
 4927TIP3   OH214786   0.495   2.618   2.542
 4927TIP3    H114787   0.434   2.680   2.580
 4927TIP3    H214788   0.558   2.600   2.612
 4928TIP3   OH214789   1.976   4.298   1.582
 4928TIP3    H114790   2.012   4.387   1.590
 4928TIP3    H214791   2.019   4.263   1.504
 4929TIP3   OH214792   0.218   2.682   1.315
 4929TIP3    H114793   0.195   2.590   1.302
 4929TIP3    H214794   0.178   2.728   1.242
 4930TIP3   OH214795   3.978   1.133   3.875
 4930TIP3    H114796   4.060   1.182   3.867
 4930TIP3    H214797   3.999   1.061   3.934
 4931TIP3   OH214798   6.293   0.771   1.813
 4931TIP3    H114799   6.346   0.697   1.843
 4931TIP3    H214800   6.358   0.840   1.794
 4932TIP3   OH214801   4.537   1.111   2.415
 4932TIP3    H114802   4.597   1.136   2.344
 4932TIP3    H214803   4.488   1.037   2.381
 4933TIP3   OH214804   3.842   1.986   3.238
 4933TIP3    H114805   3.937   1.998   3.239
 4933TIP3    H214806   3.809   2.051   3.300
 4934TIP3   OH214807   3.602   2.988   0.556
 4934TIP3    H114808   3.634   2.959   0.641
 4934TIP3    H214809   3.665   2.951   0.494
 4935TIP3   OH214810   2.921   5.667   4.485
 4935TIP3    H114811   2.866   5.633   4.556
 4935TIP3    H214812   3.006   5.625   4.498
 4936TIP3   OH214813   2.171   3.751   1.495
 4936TIP3    H114814   2.183   3.704   1.413
 4936TIP3    H214815   2.230   3.708   1.557
 4937TIP3   OH214816   6.283   2.292   5.018
 4937TIP3    H114817   6.296   2.380   4.984
 4937TIP3    H214818   6.265   2.238   4.941
 4938TIP3   OH214819   2.882   2.607   4.225
 4938TIP3    H114820   2.883   2.567   4.138
 4938TIP3    H214821   2.907   2.698   4.210
 4939TIP3   OH214822   4.522   3.957   2.448
 4939TIP3    H114823   4.518   3.946   2.353
 4939TIP3    H214824   4.559   4.044   2.462
 4940TIP3   OH214825   5.848   5.058   1.689
 4940TIP3    H114826   5.841   5.145   1.728
 4940TIP3    H214827   5.886   5.004   1.758
 4941TIP3   OH214828   0.626   3.404   0.967
 4941TIP3    H114829   0.667   3.338   1.023
 4941TIP3    H214830   0.606   3.476   1.026
 4942TIP3   OH214831   0.275   3.807   2.409
 4942TIP3    H114832   0.264   3.867   2.335
 4942TIP3    H214833   0.199   3.750   2.404
 4943TIP3   OH214834   4.136   3.442   2.443
 4943TIP3    H114835   4.204   3.386   2.480
 4943TIP3    H214836   4.181   3.524   2.423
 4944TIP3   OH214837   4.367   1.736   1.606
 4944TIP3    H114838   4.391   1.822   1.571
 4944TIP3    H214839   4.354   1.682   1.528
 4945TIP3   OH214840   0.955   5.601   2.342
 4945TIP3    H114841   0.972   5.695   2.346
 4945TIP3    H214842   0.862   5.593   2.319
 4946TIP3   OH214843   5.483   0.827   4.148
 4946TIP3    H114844   5.441   0.746   4.176
 4946TIP3    H214845   5.501   0.874   4.230
 4947TIP3   OH214846   1.884   1.626   3.778
 4947TIP3    H114847   1.916   1.656   3.693
 4947TIP3    H214848   1.927   1.541   3.792
 4948TIP3   OH214849   3.482   1.784   4.032
 4948TIP3    H114850   3.515   1.873   4.035
 4948TIP3    H214851   3.527   1.743   3.959
 4949TIP3   OH214852   2.437   2.283   4.916
 4949TIP3    H114853   2.442   2.340   4.840
 4949TIP3    H214854   2.403   2.200   4.882
 4950TIP3   OH214855   3.667   1.236   2.809
 4950TIP3    H114856   3.641   1.203   2.723
 4950TIP3    H214857   3.592   1.220   2.865
 4951TIP3   OH214858   0.556   5.544   2.764
 4951TIP3    H114859   0.476   5.504   2.729
 4951TIP3    H214860   0.529   5.632   2.791
 4952TIP3   OH214861   0.921   1.531   5.020
 4952TIP3    H114862   0.896   1.617   4.986
 4952TIP3    H214863   0.926   1.475   4.943
 4953TIP3   OH214864   5.541   1.863   0.572
 4953TIP3    H114865   5.458   1.910   0.561
 4953TIP3    H214866   5.538   1.793   0.506
 4954TIP3   OH214867   6.130   5.480   3.514
 4954TIP3    H114868   6.185   5.411   3.478
 4954TIP3    H214869   6.043   5.464   3.477
 4955TIP3   OH214870   3.852   2.274   0.644
 4955TIP3    H114871   3.934   2.227   0.627
 4955TIP3    H214872   3.794   2.246   0.574
 4956TIP3   OH214873   2.916   2.827   3.342
 4956TIP3    H114874   2.889   2.752   3.289
 4956TIP3    H214875   2.965   2.882   3.282
 4957TIP3   OH214876   4.526   0.853   1.374
 4957TIP3    H114877   4.607   0.822   1.415
 4957TIP3    H214878   4.550   0.939   1.339
 4958TIP3   OH214879   5.856   5.060   3.390
 4958TIP3    H114880   5.897   5.069   3.476
 4958TIP3    H214881   5.764   5.042   3.409
 4959TIP3   OH214882   5.769   2.713   4.114
 4959TIP3    H114883   5.847   2.769   4.110
 4959TIP3    H214884   5.803   2.624   4.103
 4960TIP3   OH214885   0.420   1.146   0.230
 4960TIP3    H114886   0.481   1.088   0.185
 4960TIP3    H214887   0.334   1.108   0.213
 4961TIP3   OH214888   5.921   3.666   4.438
 4961TIP3    H114889   5.911   3.745   4.385
 4961TIP3    H214890   5.977   3.609   4.386
 4962TIP3   OH214891   0.734   3.012   4.005
 4962TIP3    H114892   0.750   3.104   4.024
 4962TIP3    H214893   0.792   2.992   3.931
 4963TIP3   OH214894   5.748   4.224   2.720
 4963TIP3    H114895   5.699   4.220   2.802
 4963TIP3    H214896   5.804   4.146   2.722
 4964TIP3   OH214897   5.867   2.440   5.001
 4964TIP3    H114898   5.831   2.422   5.087
 4964TIP3    H214899   5.884   2.534   5.001
 4965TIP3   OH214900   4.842   1.205   0.167
 4965TIP3    H114901   4.934   1.203   0.141
 4965TIP3    H214902   4.794   1.204   0.085
 4966TIP3   OH214903   6.274   5.908   2.694
 4966TIP3    H114904   6.240   5.997   2.704
 4966TIP3    H214905   6.226   5.873   2.619
 4967TIP3   OH214906   5.756   2.449   4.074
 4967TIP3    H114907   5.802   2.448   4.158
 4967TIP3    H214908   5.663   2.453   4.097
 4968TIP3   OH214909   3.899   2.684   0.584
 4968TIP3    H114910   3.886   2.767   0.631
 4968TIP3    H214911   3.854   2.696   0.501
 4969TIP3   OH214912   5.769   2.387   0.998
 4969TIP3    H114913   5.742   2.396   0.906
 4969TIP3    H214914   5.861   2.413   0.998
 4970TIP3   OH214915   2.690   4.013   2.513
 4970TIP3    H114916   2.704   3.972   2.428
 4970TIP3    H214917   2.596   4.035   2.514
 4971TIP3   OH214918   5.671   4.510   0.880
 4971TIP3    H114919   5.668   4.481   0.789
 4971TIP3    H214920   5.582   4.496   0.912
 4972TIP3   OH214921   6.129   0.598   3.184
 4972TIP3    H114922   6.048   0.650   3.186
 4972TIP3    H214923   6.180   0.635   3.112
 4973TIP3   OH214924   1.119   2.464   3.496
 4973TIP3    H114925   1.157   2.381   3.525
 4973TIP3    H214926   1.149   2.528   3.560
 4974TIP3   OH214927   2.374   3.063   4.253
 4974TIP3    H114928   2.422   3.125   4.199
 4974TIP3    H214929   2.362   2.986   4.197
 4975TIP3   OH214930   3.723   4.117   4.346
 4975TIP3    H114931   3.814   4.109   4.316
 4975TIP3    H214932   3.670   4.100   4.268
 4976TIP3   OH214933   3.107   5.121   2.512
 4976TIP3    H114934   3.015   5.122   2.536
 4976TIP3    H214935   3.136   5.031   2.532
 4977TIP3   OH214936   2.279   5.530   2.338
 4977TIP3    H114937   2.332   5.610   2.349
 4977TIP3    H214938   2.223   5.527   2.415
 4978TIP3   OH214939   6.362   4.746   4.915
 4978TIP3    H114940   6.400   4.727   4.829
 4978TIP3    H214941   6.328   4.661   4.945
 4979TIP3   OH214942   0.749   2.178   3.004
 4979TIP3    H114943   0.806   2.142   2.936
 4979TIP3    H214944   0.779   2.138   3.085
 4980TIP3   OH214945   2.175   4.836   0.604
 4980TIP3    H114946   2.114   4.892   0.653
 4980TIP3    H214947   2.191   4.884   0.522
 4981TIP3   OH214948   2.016   0.011   0.956
 4981TIP3    H114949   1.989  -0.071   0.997
 4981TIP3    H214950   2.037  -0.012   0.866
 4982TIP3   OH214951   6.301   3.559   3.330
 4982TIP3    H114952   6.311   3.565   3.425
 4982TIP3    H214953   6.366   3.494   3.303
 4983TIP3   OH214954   2.430   3.548   3.114
 4983TIP3    H114955   2.402   3.638   3.125
 4983TIP3    H214956   2.365   3.496   3.161
 4984TIP3   OH214957   5.836   3.763   3.696
 4984TIP3    H114958   5.760   3.776   3.640
 4984TIP3    H214959   5.900   3.828   3.666
 4985TIP3   OH214960   2.799   3.371   3.693
 4985TIP3    H114961   2.886   3.346   3.725
 4985TIP3    H214962   2.764   3.291   3.653
 4986TIP3   OH214963   3.929   4.827   2.184
 4986TIP3    H114964   4.012   4.871   2.200
 4986TIP3    H214965   3.916   4.770   2.260
 4987TIP3   OH214966   1.401   1.826   2.275
 4987TIP3    H114967   1.342   1.752   2.288
 4987TIP3    H214968   1.397   1.875   2.357
 4988TIP3   OH214969   5.987   1.946   3.620
 4988TIP3    H114970   5.961   2.008   3.688
 4988TIP3    H214971   6.053   1.993   3.568
 4989TIP3   OH214972   4.152   4.282   1.403
 4989TIP3    H114973   4.189   4.305   1.317
 4989TIP3    H214974   4.161   4.187   1.407
 4990TIP3   OH214975   3.779   2.500   0.783
 4990TIP3    H114976   3.795   2.575   0.726
 4990TIP3    H214977   3.758   2.429   0.723
 4991TIP3   OH214978   3.900   1.767   4.721
 4991TIP3    H114979   3.806   1.782   4.707
 4991TIP3    H214980   3.908   1.748   4.814
 4992TIP3   OH214981   5.789   1.938   0.808
 4992TIP3    H114982   5.791   1.874   0.737
 4992TIP3    H214983   5.879   1.971   0.813
 4993TIP3   OH214984   3.570   0.734   0.918
 4993TIP3    H114985   3.525   0.687   0.848
 4993TIP3    H214986   3.635   0.789   0.872
 4994TIP3   OH214987   1.162   4.361   0.073
 4994TIP3    H114988   1.134   4.382  -0.016
 4994TIP3    H214989   1.123   4.275   0.090
 4995TIP3   OH214990   1.917   2.323   1.010
 4995TIP3    H114991   1.980   2.324   0.937
 4995TIP3    H214992   1.936   2.404   1.059
 4996TIP3   OH214993   6.309   0.174   4.168
 4996TIP3    H114994   6.327   0.268   4.162
 4996TIP3    H214995   6.313   0.144   4.077
 4997TIP3   OH214996   0.515   3.481   5.071
 4997TIP3    H114997   0.478   3.563   5.103
 4997TIP3    H214998   0.561   3.445   5.146
 4998TIP3   OH214999   3.434   0.520   1.301
 4998TIP3    H115000   3.455   0.586   1.368
 4998TIP3    H215001   3.427   0.438   1.349
 4999TIP3   OH215002   3.066   5.887   3.621
 4999TIP3    H115003   3.052   5.851   3.709
 4999TIP3    H215004   3.091   5.978   3.636
 5000TIP3   OH215005   4.150   2.554   0.261
 5000TIP3    H115006   4.189   2.554   0.174
 5000TIP3    H215007   4.154   2.645   0.289
 5001TIP3   OH215008   5.136   0.228   1.042
 5001TIP3    H115009   5.176   0.142   1.031
 5001TIP3    H215010   5.044   0.216   1.019
 5002TIP3   OH215011   1.034   3.711   0.726
 5002TIP3    H115012   1.120   3.688   0.762
 5002TIP3    H215013   0.980   3.729   0.803
 5003TIP3   OH215014   0.551   4.036   4.914
 5003TIP3    H115015   0.636   4.012   4.876
 5003TIP3    H215016   0.487   3.984   4.863
 5004TIP3   OH215017   0.152   2.861   3.649
 5004TIP3    H115018   0.186   2.803   3.718
 5004TIP3    H215019   0.072   2.898   3.686
 5005TIP3   OH215020   1.226   3.501   3.014
 5005TIP3    H115021   1.142   3.515   2.971
 5005TIP3    H215022   1.207   3.509   3.108
 5006TIP3   OH215023   6.033   2.687   1.989
 5006TIP3    H115024   5.967   2.723   1.930
 5006TIP3    H215025   6.041   2.595   1.962
 5007TIP3   OH215026   0.851   2.741   0.755
 5007TIP3    H115027   0.920   2.743   0.689
 5007TIP3    H215028   0.854   2.829   0.794
 5008TIP3   OH215029   5.575   0.494   4.829
 5008TIP3    H115030   5.622   0.415   4.803
 5008TIP3    H215031   5.486   0.481   4.796
 5009TIP3   OH215032   3.200   0.811   2.360
 5009TIP3    H115033   3.249   0.893   2.370
 5009TIP3    H215034   3.108   0.838   2.366
 5010TIP3   OH215035   4.683   4.169   1.546
 5010TIP3    H115036   4.623   4.107   1.504
 5010TIP3    H215037   4.686   4.243   1.485
 5011TIP3   OH215038   4.526   2.680   3.173
 5011TIP3    H115039   4.573   2.761   3.190
 5011TIP3    H215040   4.470   2.699   3.097
 5012TIP3   OH215041   1.526   3.118   1.301
 5012TIP3    H115042   1.509   3.147   1.390
 5012TIP3    H215043   1.464   3.045   1.288
 5013TIP3   OH215044   3.397   1.423   2.603
 5013TIP3    H115045   3.472   1.482   2.608
 5013TIP3    H215046   3.385   1.391   2.692
 5014TIP3   OH215047   5.719   2.772   1.947
 5014TIP3    H115048   5.795   2.825   1.926
 5014TIP3    H215049   5.725   2.697   1.888
 5015TIP3   OH215050   6.118   0.581   2.034
 5015TIP3    H115051   6.085   0.647   1.973
 5015TIP3    H215052   6.083   0.498   2.002
 5016TIP3   OH215053   0.436   1.967   4.955
 5016TIP3    H115054   0.401   1.887   4.914
 5016TIP3    H215055   0.419   1.955   5.048
 5017TIP3   OH215056   0.068   4.808   1.186
 5017TIP3    H115057   0.013   4.733   1.159
 5017TIP3    H215058   0.007   4.881   1.191
 5018TIP3   OH215059   6.003   3.891   3.097
 5018TIP3    H115060   5.919   3.878   3.053
 5018TIP3    H215061   6.001   3.830   3.171
 5019TIP3   OH215062   4.966   0.198   0.659
 5019TIP3    H115063   4.964   0.170   0.567
 5019TIP3    H215064   4.900   0.143   0.702
 5020TIP3   OH215065   2.202   2.509   1.336
 5020TIP3    H115066   2.210   2.549   1.422
 5020TIP3    H215067   2.291   2.509   1.301
 5021TIP3   OH215068   1.685   4.671   0.845
 5021TIP3    H115069   1.731   4.682   0.928
 5021TIP3    H215070   1.751   4.634   0.786
 5022TIP3   OH215071   3.951   5.305   0.672
 5022TIP3    H115072   3.884   5.294   0.605
 5022TIP3    H215073   3.905   5.346   0.745
 5023TIP3   OH215074   3.838   4.097   2.541
 5023TIP3    H115075   3.897   4.021   2.536
 5023TIP3    H215076   3.885   4.167   2.495
 5024TIP3   OH215077   4.754   0.271   3.341
 5024TIP3    H115078   4.664   0.249   3.317
 5024TIP3    H215079   4.745   0.327   3.418
 5025TIP3   OH215080   2.979   2.300   0.931
 5025TIP3    H115081   3.004   2.288   1.023
 5025TIP3    H215082   3.058   2.333   0.888
 5026TIP3   OH215083   5.532   4.825   0.182
 5026TIP3    H115084   5.613   4.862   0.146
 5026TIP3    H215085   5.556   4.795   0.270
 5027TIP3   OH215086   3.479   2.096   2.907
 5027TIP3    H115087   3.568   2.070   2.931
 5027TIP3    H215088   3.424   2.055   2.974
 5028TIP3   OH215089   0.772   0.892   4.598
 5028TIP3    H115090   0.725   0.829   4.544
 5028TIP3    H215091   0.711   0.913   4.669
 5029TIP3   OH215092   4.322   1.634   0.775
 5029TIP3    H115093   4.304   1.632   0.681
 5029TIP3    H215094   4.377   1.712   0.787
 5030TIP3   OH215095   2.906   1.974   0.974
 5030TIP3    H115096   2.896   1.990   1.068
 5030TIP3    H215097   2.874   2.054   0.932
 5031TIP3   OH215098   3.863   2.958   0.766
 5031TIP3    H115099   3.908   2.994   0.842
 5031TIP3    H215100   3.784   2.917   0.802
 5032TIP3   OH215101   0.062   2.279   1.557
 5032TIP3    H115102   0.141   2.256   1.508
 5032TIP3    H215103   0.021   2.196   1.578
 5033TIP3   OH215104   3.217   1.795   5.135
 5033TIP3    H115105   3.261   1.755   5.210
 5033TIP3    H215106   3.283   1.853   5.097
 5034TIP3   OH215107   1.009   0.177   2.543
 5034TIP3    H115108   0.976   0.220   2.621
 5034TIP3    H215109   1.002   0.083   2.562
 5035TIP3   OH215110   4.195   0.900   1.240
 5035TIP3    H115111   4.223   0.812   1.217
 5035TIP3    H215112   4.102   0.903   1.215
 5036TIP3   OH215113   5.967   2.266   5.200
 5036TIP3    H115114   6.028   2.331   5.234
 5036TIP3    H215115   5.945   2.298   5.113
 5037TIP3   OH215116   4.363   5.968   3.364
 5037TIP3    H115117   4.454   5.966   3.394
 5037TIP3    H215118   4.361   6.033   3.295
 5038TIP3   OH215119   2.630   3.978   0.667
 5038TIP3    H115120   2.574   4.054   0.685
 5038TIP3    H215121   2.714   4.000   0.709
 5039TIP3   OH215122   2.040   0.719   0.546
 5039TIP3    H115123   1.949   0.734   0.572
 5039TIP3    H215124   2.055   0.784   0.477
 5040TIP3   OH215125   0.734   4.216   0.753
 5040TIP3    H115126   0.683   4.205   0.672
 5040TIP3    H215127   0.668   4.220   0.822
 5041TIP3   OH215128   3.936   1.193   1.030
 5041TIP3    H115129   3.853   1.189   1.078
 5041TIP3    H215130   3.996   1.239   1.088
 5042TIP3   OH215131   1.045   2.238   0.188
 5042TIP3    H115132   1.100   2.291   0.246
 5042TIP3    H215133   1.108   2.197   0.128
 5043TIP3   OH215134   3.753   3.577   5.142
 5043TIP3    H115135   3.822   3.641   5.128
 5043TIP3    H215136   3.776   3.503   5.087
 5044TIP3   OH215137   3.886   1.668   0.568
 5044TIP3    H115138   3.946   1.719   0.622
 5044TIP3    H215139   3.873   1.722   0.490
 5045TIP3   OH215140   3.451   2.838   1.802
 5045TIP3    H115141   3.436   2.837   1.708
 5045TIP3    H215142   3.447   2.745   1.828
 5046TIP3   OH215143   4.889   4.523   4.474
 5046TIP3    H115144   4.846   4.492   4.554
 5046TIP3    H215145   4.895   4.445   4.419
 5047TIP3   OH215146   2.805   5.631   3.116
 5047TIP3    H115147   2.712   5.621   3.097
 5047TIP3    H215148   2.809   5.649   3.209
 5048TIP3   OH215149   5.119   4.474   3.682
 5048TIP3    H115150   5.186   4.409   3.702
 5048TIP3    H215151   5.064   4.478   3.760
 5049TIP3   OH215152   4.567   3.612   2.884
 5049TIP3    H115153   4.610   3.698   2.879
 5049TIP3    H215154   4.634   3.554   2.919
 5050TIP3   OH215155   2.849   4.198   4.814
 5050TIP3    H115156   2.815   4.109   4.821
 5050TIP3    H215157   2.804   4.234   4.737
 5051TIP3   OH215158   4.230   3.824   5.033
 5051TIP3    H115159   4.180   3.902   5.009
 5051TIP3    H215160   4.313   3.834   4.986
 5052TIP3   OH215161   3.160   0.167   3.294
 5052TIP3    H115162   3.223   0.098   3.318
 5052TIP3    H215163   3.193   0.203   3.212
 5053TIP3   OH215164   2.916   4.883   1.700
 5053TIP3    H115165   2.877   4.881   1.613
 5053TIP3    H215166   2.922   4.976   1.722
 5054TIP3   OH215167   4.902   0.841   0.922
 5054TIP3    H115168   4.922   0.891   1.001
 5054TIP3    H215169   4.970   0.773   0.919
 5055TIP3   OH215170   4.424   5.016   2.781
 5055TIP3    H115171   4.366   5.052   2.713
 5055TIP3    H215172   4.366   4.964   2.836
 5056TIP3   OH215173   1.286   5.352   3.294
 5056TIP3    H115174   1.280   5.279   3.355
 5056TIP3    H215175   1.366   5.336   3.244
 5057TIP3   OH215176   2.394   1.480   1.096
 5057TIP3    H115177   2.488   1.469   1.109
 5057TIP3    H215178   2.382   1.574   1.085
 5058TIP3   OH215179   3.979   5.742   2.668
 5058TIP3    H115180   3.995   5.665   2.613
 5058TIP3    H215181   4.061   5.790   2.666
 5059TIP3   OH215182   5.146   3.532   2.604
 5059TIP3    H115183   5.052   3.513   2.606
 5059TIP3    H215184   5.186   3.463   2.657
 5060TIP3   OH215185   5.758   3.953   1.718
 5060TIP3    H115186   5.745   3.887   1.785
 5060TIP3    H215187   5.682   4.011   1.726
 5061TIP3   OH215188   2.595   2.192   1.176
 5061TIP3    H115189   2.554   2.277   1.157
 5061TIP3    H215190   2.688   2.212   1.188
 5062TIP3   OH215191   0.400   1.834   1.384
 5062TIP3    H115192   0.308   1.820   1.363
 5062TIP3    H215193   0.448   1.789   1.314
 5063TIP3   OH215194   3.125   2.919   2.565
 5063TIP3    H115195   3.189   2.974   2.519
 5063TIP3    H215196   3.055   2.979   2.589
 5064TIP3   OH215197   5.135   4.611   2.205
 5064TIP3    H115198   5.182   4.586   2.285
 5064TIP3    H215199   5.187   4.575   2.134
 5065TIP3   OH215200   4.537   1.829   3.964
 5065TIP3    H115201   4.536   1.907   3.910
 5065TIP3    H215202   4.598   1.770   3.921
 5066TIP3   OH215203   5.736   5.213   3.857
 5066TIP3    H115204   5.698   5.225   3.944
 5066TIP3    H215205   5.676   5.258   3.798
 5067TIP3   OH215206   0.512   3.160   2.081
 5067TIP3    H115207   0.600   3.190   2.102
 5067TIP3    H215208   0.497   3.191   1.992
 5068TIP3   OH215209   6.088   1.421   1.557
 5068TIP3    H115210   6.018   1.360   1.580
 5068TIP3    H215211   6.117   1.457   1.641
 5069TIP3   OH215212   5.280   2.741   4.039
 5069TIP3    H115213   5.232   2.660   4.021
 5069TIP3    H215214   5.365   2.727   3.998
 5070TIP3   OH215215   2.863   5.135   2.090
 5070TIP3    H115216   2.786   5.176   2.052
 5070TIP3    H215217   2.847   5.041   2.082
 5071TIP3   OH215218   2.169   4.923   1.049
 5071TIP3    H115219   2.139   4.929   1.139
 5071TIP3    H215220   2.104   4.971   0.998
 5072TIP3   OH215221   3.288   2.282   2.744
 5072TIP3    H115222   3.329   2.233   2.814
 5072TIP3    H215223   3.194   2.263   2.752
 5073TIP3   OH215224   3.630   5.483   0.026
 5073TIP3    H115225   3.655   5.575   0.037
 5073TIP3    H215226   3.536   5.481   0.043
 5074TIP3   OH215227   4.659   4.910   0.765
 5074TIP3    H115228   4.735   4.858   0.738
 5074TIP3    H215229   4.632   4.955   0.685
 5075TIP3   OH215230   1.799   4.907   0.330
 5075TIP3    H115231   1.810   4.820   0.368
 5075TIP3    H215232   1.786   4.891   0.236
 5076TIP3   OH215233   3.267   4.331   0.266
 5076TIP3    H115234   3.172   4.339   0.269
 5076TIP3    H215235   3.294   4.322   0.358
 5077TIP3   OH215236   3.518   2.325   0.721
 5077TIP3    H115237   3.550   2.409   0.687
 5077TIP3    H215238   3.432   2.314   0.681
 5078TIP3   OH215239   0.397   0.332   2.007
 5078TIP3    H115240   0.453   0.277   1.951
 5078TIP3    H215241   0.345   0.383   1.946
 5079TIP3   OH215242   4.179   6.002   2.181
 5079TIP3    H115243   4.162   5.912   2.152
 5079TIP3    H215244   4.242   5.993   2.252
 5080TIP3   OH215245   2.898   3.564   1.518
 5080TIP3    H115246   2.974   3.508   1.500
 5080TIP3    H215247   2.931   3.628   1.582
 5081TIP3   OH215248   3.628   5.751   4.131
 5081TIP3    H115249   3.631   5.842   4.102
 5081TIP3    H215250   3.592   5.703   4.057
 5082TIP3   OH215251   4.781   4.648   0.716
 5082TIP3    H115252   4.696   4.649   0.672
 5082TIP3    H215253   4.844   4.665   0.646
 5083TIP3   OH215254   1.722   1.404   3.183
 5083TIP3    H115255   1.717   1.399   3.087
 5083TIP3    H215256   1.800   1.353   3.205
 5084TIP3   OH215257   3.142   5.963   4.277
 5084TIP3    H115258   3.069   6.018   4.305
 5084TIP3    H215259   3.103   5.900   4.216
 5085TIP3   OH215260   1.288   2.409   1.926
 5085TIP3    H115261   1.204   2.383   1.964
 5085TIP3    H215262   1.272   2.410   1.831
 5086TIP3   OH215263   4.295   2.702   4.709
 5086TIP3    H115264   4.213   2.654   4.708
 5086TIP3    H215265   4.274   2.785   4.752
 5087TIP3   OH215266   5.133   3.778   2.470
 5087TIP3    H115267   5.038   3.781   2.485
 5087TIP3    H215268   5.160   3.693   2.506
 5088TIP3   OH215269   4.777   2.996   2.561
 5088TIP3    H115270   4.806   2.935   2.493
 5088TIP3    H215271   4.836   2.979   2.635
 5089TIP3   OH215272   6.181   0.610   3.983
 5089TIP3    H115273   6.143   0.552   4.049
 5089TIP3    H215274   6.110   0.670   3.960
 5090TIP3   OH215275   4.344   2.979   3.535
 5090TIP3    H115276   4.393   3.003   3.456
 5090TIP3    H215277   4.390   3.023   3.606
 5091TIP3   OH215278   2.729   5.244   0.582
 5091TIP3    H115279   2.758   5.305   0.515
 5091TIP3    H215280   2.634   5.242   0.573
 5092TIP3   OH215281   3.165   2.972   3.686
 5092TIP3    H115282   3.180   2.921   3.766
 5092TIP3    H215283   3.176   2.908   3.615
 5093TIP3   OH215284   3.404   4.337   1.579
 5093TIP3    H115285   3.431   4.258   1.532
 5093TIP3    H215286   3.483   4.366   1.624
 5094TIP3   OH215287   4.109   4.013   1.421
 5094TIP3    H115288   4.043   4.034   1.355
 5094TIP3    H215289   4.139   3.925   1.398
 5095TIP3   OH215290   2.674   4.311   3.056
 5095TIP3    H115291   2.683   4.286   3.147
 5095TIP3    H215292   2.763   4.305   3.020
 5096TIP3   OH215293   4.938   0.659   0.214
 5096TIP3    H115294   4.850   0.695   0.205
 5096TIP3    H215295   4.959   0.668   0.307
 5097TIP3   OH215296   3.964   5.195   2.637
 5097TIP3    H115297   3.930   5.200   2.727
 5097TIP3    H215298   3.916   5.123   2.597
 5098TIP3   OH215299   0.279   1.104   1.456
 5098TIP3    H115300   0.236   1.019   1.463
 5098TIP3    H215301   0.292   1.132   1.546
 5099TIP3   OH215302   4.616   4.727   0.490
 5099TIP3    H115303   4.523   4.735   0.511
 5099TIP3    H215304   4.648   4.817   0.487
 5100TIP3   OH215305   3.362   4.054   1.488
 5100TIP3    H115306   3.303   4.037   1.560
 5100TIP3    H215307   3.362   3.974   1.436
 5101TIP3   OH215308   4.400   0.398   0.433
 5101TIP3    H115309   4.396   0.482   0.477
 5101TIP3    H215310   4.312   0.362   0.440
 5102TIP3   OH215311   1.885   5.468   0.116
 5102TIP3    H115312   1.980   5.463   0.127
 5102TIP3    H215313   1.869   5.556   0.083
 5103TIP3   OH215314   0.492   3.330   4.561
 5103TIP3    H115315   0.488   3.425   4.557
 5103TIP3    H215316   0.583   3.310   4.582
 5104TIP3   OH215317   0.133   5.989   2.188
 5104TIP3    H115318   0.070   5.955   2.124
 5104TIP3    H215319   0.217   5.954   2.159
 5105TIP3   OH215320   2.790   2.897   1.526
 5105TIP3    H115321   2.755   2.956   1.594
 5105TIP3    H215322   2.878   2.931   1.509
 5106TIP3   OH215323   1.297   5.523   2.258
 5106TIP3    H115324   1.225   5.514   2.195
 5106TIP3    H215325   1.282   5.453   2.322
 5107TIP3   OH215326   2.173   3.100   2.708
 5107TIP3    H115327   2.116   3.044   2.761
 5107TIP3    H215328   2.262   3.070   2.729
 5108TIP3   OH215329   2.548   1.063   2.337
 5108TIP3    H115330   2.456   1.080   2.316
 5108TIP3    H215331   2.545   0.998   2.407
 5109TIP3   OH215332   1.456   1.974   4.787
 5109TIP3    H115333   1.440   1.949   4.878
 5109TIP3    H215334   1.442   1.893   4.738
 5110TIP3   OH215335   4.133   3.246   0.552
 5110TIP3    H115336   4.178   3.306   0.493
 5110TIP3    H215337   4.052   3.292   0.576
 5111TIP3   OH215338   6.084   5.313   4.605
 5111TIP3    H115339   6.107   5.228   4.641
 5111TIP3    H215340   6.081   5.371   4.682
 5112TIP3   OH215341   5.173   1.224   1.058
 5112TIP3    H115342   5.080   1.211   1.040
 5112TIP3    H215343   5.216   1.208   0.974
 5113TIP3   OH215344   0.041   5.011   3.626
 5113TIP3    H115345   0.113   4.968   3.673
 5113TIP3    H215346   0.064   5.104   3.627
 5114TIP3   OH215347   1.194   2.482   0.609
 5114TIP3    H115348   1.137   2.426   0.662
 5114TIP3    H215349   1.249   2.527   0.672
 5115TIP3   OH215350   3.269   4.655   0.640
 5115TIP3    H115351   3.293   4.741   0.676
 5115TIP3    H215352   3.205   4.675   0.572
 5116TIP3   OH215353   4.191   5.617   4.002
 5116TIP3    H115354   4.112   5.569   4.028
 5116TIP3    H215355   4.217   5.665   4.080
 5117TIP3   OH215356   4.054   3.089   1.430
 5117TIP3    H115357   4.038   3.118   1.520
 5117TIP3    H215358   4.149   3.078   1.425
 5118TIP3   OH215359   3.365   1.670   3.629
 5118TIP3    H115360   3.379   1.592   3.575
 5118TIP3    H215361   3.275   1.661   3.660
 5119TIP3   OH215362   3.640   5.895   1.246
 5119TIP3    H115363   3.570   5.958   1.226
 5119TIP3    H215364   3.596   5.810   1.244
 5120TIP3   OH215365   1.872   1.774   0.757
 5120TIP3    H115366   1.882   1.744   0.667
 5120TIP3    H215367   1.814   1.850   0.752
 5121TIP3   OH215368   5.361   0.581   4.256
 5121TIP3    H115369   5.271   0.603   4.281
 5121TIP3    H215370   5.407   0.570   4.340
 5122TIP3   OH215371   6.075   3.264   3.552
 5122TIP3    H115372   6.060   3.217   3.470
 5122TIP3    H215373   6.026   3.346   3.541
 5123TIP3   OH215374   1.288   4.035   4.142
 5123TIP3    H115375   1.316   4.109   4.195
 5123TIP3    H215376   1.280   4.071   4.053
 5124TIP3   OH215377   3.009   2.358   2.336
 5124TIP3    H115378   3.027   2.383   2.427
 5124TIP3    H215379   3.065   2.281   2.321
 5125TIP3   OH215380   1.583   3.019   4.328
 5125TIP3    H115381   1.492   3.002   4.302
 5125TIP3    H215382   1.635   2.959   4.274
 5126TIP3   OH215383   1.597   4.434   2.363
 5126TIP3    H115384   1.637   4.347   2.368
 5126TIP3    H215385   1.541   4.430   2.286
 5127TIP3   OH215386   3.374   2.976   2.937
 5127TIP3    H115387   3.460   2.937   2.921
 5127TIP3    H215388   3.389   3.036   3.010
 5128TIP3   OH215389   4.376   0.187   0.193
 5128TIP3    H115390   4.446   0.122   0.202
 5128TIP3    H215391   4.410   0.265   0.236
 5129TIP3   OH215392   0.436   4.428   2.092
 5129TIP3    H115393   0.516   4.480   2.100
 5129TIP3    H215394   0.437   4.371   2.169
 5130TIP3   OH215395   6.139   1.059   0.817
 5130TIP3    H115396   6.195   1.097   0.884
 5130TIP3    H215397   6.172   1.094   0.735
 5131TIP3   OH215398   0.971   1.542   0.521
 5131TIP3    H115399   0.928   1.491   0.590
 5131TIP3    H215400   1.053   1.496   0.505
 5132TIP3   OH215401   5.857   0.431   0.394
 5132TIP3    H115402   5.858   0.360   0.330
 5132TIP3    H215403   5.818   0.392   0.472
 5133TIP3   OH215404   4.481   1.246   4.652
 5133TIP3    H115405   4.575   1.252   4.668
 5133TIP3    H215406   4.469   1.280   4.563
 5134TIP3   OH215407   3.642   1.773   4.650
 5134TIP3    H115408   3.602   1.688   4.668
 5134TIP3    H215409   3.612   1.796   4.563
 5135TIP3   OH215410   4.296   3.024   0.872
 5135TIP3    H115411   4.303   2.997   0.964
 5135TIP3    H215412   4.243   2.955   0.831
 5136TIP3   OH215413   2.684   1.909   1.176
 5136TIP3    H115414   2.636   1.840   1.221
 5136TIP3    H215415   2.617   1.964   1.136
 5137TIP3   OH215416   1.042   0.430   3.639
 5137TIP3    H115417   1.136   0.412   3.642
 5137TIP3    H215418   1.012   0.391   3.557
 5138TIP3   OH215419   0.646   2.905   0.541
 5138TIP3    H115420   0.740   2.894   0.527
 5138TIP3    H215421   0.638   2.933   0.632
 5139TIP3   OH215422   0.840   2.367   3.353
 5139TIP3    H115423   0.813   2.282   3.388
 5139TIP3    H215424   0.857   2.421   3.430
 5140TIP3   OH215425   4.075   2.666   0.922
 5140TIP3    H115426   4.077   2.695   0.831
 5140TIP3    H215427   4.072   2.747   0.973
 5141TIP3   OH215428   3.085   5.281   0.075
 5141TIP3    H115429   3.100   5.224   0.151
 5141TIP3    H215430   3.006   5.246   0.034
 5142TIP3   OH215431   4.005   3.689   3.488
 5142TIP3    H115432   4.013   3.750   3.414
 5142TIP3    H215433   3.912   3.667   3.490
 5143TIP3   OH215434   4.879   5.961   2.483
 5143TIP3    H115435   4.900   5.909   2.561
 5143TIP3    H215436   4.815   6.025   2.514
 5144TIP3   OH215437   3.297   5.796   1.198
 5144TIP3    H115438   3.269   5.873   1.247
 5144TIP3    H215439   3.334   5.832   1.117
 5145TIP3   OH215440   4.478   4.349   3.618
 5145TIP3    H115441   4.469   4.292   3.694
 5145TIP3    H215442   4.389   4.358   3.583
 5146TIP3   OH215443   5.357   3.571   3.331
 5146TIP3    H115444   5.358   3.476   3.332
 5146TIP3    H215445   5.265   3.595   3.321
 5147TIP3   OH215446   1.525   5.883   2.601
 5147TIP3    H115447   1.491   5.825   2.669
 5147TIP3    H215448   1.601   5.925   2.642
 5148TIP3   OH215449   2.448   1.357   0.670
 5148TIP3    H115450   2.413   1.303   0.600
 5148TIP3    H215451   2.518   1.305   0.708
 5149TIP3   OH215452   5.321   3.532   1.229
 5149TIP3    H115453   5.296   3.494   1.145
 5149TIP3    H215454   5.410   3.499   1.244
 5150TIP3   OH215455   5.361   5.149   0.501
 5150TIP3    H115456   5.388   5.234   0.465
 5150TIP3    H215457   5.425   5.131   0.571
 5151TIP3   OH215458   1.466   2.792   0.106
 5151TIP3    H115459   1.535   2.834   0.158
 5151TIP3    H215460   1.448   2.854   0.035
 5152TIP3   OH215461   6.040   2.678   4.386
 5152TIP3    H115462   6.035   2.670   4.291
 5152TIP3    H215463   6.122   2.636   4.410
 5153TIP3   OH215464   4.294   2.389   3.491
 5153TIP3    H115465   4.294   2.478   3.457
 5153TIP3    H215466   4.369   2.347   3.449
 5154TIP3   OH215467   4.775   2.027   4.609
 5154TIP3    H115468   4.680   2.035   4.619
 5154TIP3    H215469   4.806   2.118   4.604
 5155TIP3   OH215470   3.671   5.283   2.556
 5155TIP3    H115471   3.664   5.308   2.464
 5155TIP3    H215472   3.714   5.198   2.555
 5156TIP3   OH215473   0.093   5.224   1.357
 5156TIP3    H115474   0.173   5.269   1.384
 5156TIP3    H215475   0.102   5.214   1.262
 5157TIP3   OH215476   5.247   1.283   3.504
 5157TIP3    H115477   5.175   1.342   3.525
 5157TIP3    H215478   5.285   1.261   3.589
 5158TIP3   OH215479   5.835   1.814   2.077
 5158TIP3    H115480   5.783   1.736   2.097
 5158TIP3    H215481   5.825   1.870   2.154
 5159TIP3   OH215482   0.336   4.542   4.669
 5159TIP3    H115483   0.391   4.470   4.700
 5159TIP3    H215484   0.282   4.502   4.600
 5160TIP3   OH215485   1.440   1.919   2.533
 5160TIP3    H115486   1.388   1.947   2.609
 5160TIP3    H215487   1.529   1.910   2.567
 5161TIP3   OH215488   5.920   2.904   1.816
 5161TIP3    H115489   5.944   2.987   1.857
 5161TIP3    H215490   5.874   2.929   1.736
 5162TIP3   OH215491   1.367   1.573   4.038
 5162TIP3    H115492   1.343   1.493   3.990
 5162TIP3    H215493   1.432   1.544   4.102
 5163TIP3   OH215494   1.303   2.896   0.559
 5163TIP3    H115495   1.293   2.969   0.498
 5163TIP3    H215496   1.360   2.834   0.512
 5164TIP3   OH215497   4.594   2.046   3.205
 5164TIP3    H115498   4.566   1.960   3.174
 5164TIP3    H215499   4.576   2.105   3.132
 5165TIP3   OH215500   2.342   2.970   2.189
 5165TIP3    H115501   2.315   3.039   2.250
 5165TIP3    H215502   2.355   2.893   2.244
 5166TIP3   OH215503   3.741   1.280   0.781
 5166TIP3    H115504   3.788   1.362   0.764
 5166TIP3    H215505   3.809   1.212   0.772
 5167TIP3   OH215506   1.663   2.200   0.963
 5167TIP3    H115507   1.732   2.265   0.953
 5167TIP3    H215508   1.660   2.154   0.878
 5168TIP3   OH215509   1.957   3.523   4.260
 5168TIP3    H115510   1.964   3.469   4.339
 5168TIP3    H215511   1.867   3.553   4.259
 5169TIP3   OH215512   6.239   4.481   4.405
 5169TIP3    H115513   6.232   4.401   4.457
 5169TIP3    H215514   6.252   4.449   4.315
 5170TIP3   OH215515   1.254   2.046   0.961
 5170TIP3    H115516   1.305   1.978   0.916
 5170TIP3    H215517   1.199   1.998   1.022
 5171TIP3   OH215518   5.674   1.285   4.233
 5171TIP3    H115519   5.624   1.341   4.293
 5171TIP3    H215520   5.644   1.310   4.146
 5172TIP3   OH215521   3.385   3.612   3.196
 5172TIP3    H115522   3.295   3.600   3.227
 5172TIP3    H215523   3.393   3.549   3.124
 5173TIP3   OH215524   2.563   4.580   4.707
 5173TIP3    H115525   2.565   4.670   4.739
 5173TIP3    H215526   2.471   4.565   4.684
 5174TIP3   OH215527   0.285   2.019   1.087
 5174TIP3    H115528   0.280   1.968   1.006
 5174TIP3    H215529   0.204   1.998   1.133
 5175TIP3   OH215530   1.457   2.743   2.851
 5175TIP3    H115531   1.501   2.793   2.782
 5175TIP3    H215532   1.387   2.696   2.805
 5176TIP3   OH215533   3.503   4.901   4.205
 5176TIP3    H115534   3.493   4.871   4.296
 5176TIP3    H215535   3.415   4.931   4.181
 5177TIP3   OH215536   0.952   5.431   0.753
 5177TIP3    H115537   0.891   5.358   0.743
 5177TIP3    H215538   0.944   5.458   0.844
 5178TIP3   OH215539   2.592   1.868   3.773
 5178TIP3    H115540   2.647   1.801   3.813
 5178TIP3    H215541   2.643   1.949   3.781
 5179TIP3   OH215542   4.676   4.511   4.978
 5179TIP3    H115543   4.639   4.497   5.066
 5179TIP3    H215544   4.770   4.512   4.992
 5180TIP3   OH215545   3.457   4.031   1.794
 5180TIP3    H115546   3.371   4.059   1.827
 5180TIP3    H215547   3.514   4.033   1.870
 5181TIP3   OH215548   0.366   3.963   0.125
 5181TIP3    H115549   0.344   4.021   0.052
 5181TIP3    H215550   0.287   3.913   0.142
 5182TIP3   OH215551   1.203   3.323   1.837
 5182TIP3    H115552   1.290   3.309   1.873
 5182TIP3    H215553   1.145   3.271   1.892
 5183TIP3   OH215554   3.179   3.069   3.317
 5183TIP3    H115555   3.167   3.123   3.394
 5183TIP3    H215556   3.115   3.101   3.254
 5184TIP3   OH215557   0.042   0.731   2.682
 5184TIP3    H115558  -0.035   0.720   2.626
 5184TIP3    H215559   0.083   0.812   2.651
 5185TIP3   OH215560   1.453   0.004   1.576
 5185TIP3    H115561   1.379   0.060   1.549
 5185TIP3    H215562   1.489  -0.029   1.494
 5186TIP3   OH215563   0.121   2.858   4.859
 5186TIP3    H115564   0.057   2.921   4.826
 5186TIP3    H215565   0.139   2.800   4.785
 5187TIP3   OH215566   5.888   1.619   2.918
 5187TIP3    H115567   5.906   1.680   2.847
 5187TIP3    H215568   5.854   1.673   2.989
 5188TIP3   OH215569   3.872   2.424   0.015
 5188TIP3    H115570   3.881   2.429   0.111
 5188TIP3    H215571   3.778   2.414   0.000
 5189TIP3   OH215572   0.711   2.424   4.008
 5189TIP3    H115573   0.773   2.445   4.077
 5189TIP3    H215574   0.683   2.335   4.026
 5190TIP3   OH215575   4.138   3.670   4.502
 5190TIP3    H115576   4.128   3.761   4.475
 5190TIP3    H215577   4.179   3.675   4.589
 5191TIP3   OH215578   2.116   1.498   0.686
 5191TIP3    H115579   2.193   1.521   0.738
 5191TIP3    H215580   2.046   1.489   0.751
 5192TIP3   OH215581   2.080   0.138   4.980
 5192TIP3    H115582   2.129   0.220   4.972
 5192TIP3    H215583   2.083   0.100   4.893
 5193TIP3   OH215584   3.244   4.380   0.650
 5193TIP3    H115585   3.291   4.357   0.729
 5193TIP3    H215586   3.243   4.475   0.649
 5194TIP3   OH215587   5.008   4.884   3.832
 5194TIP3    H115588   5.088   4.889   3.883
 5194TIP3    H215589   5.003   4.792   3.804
 5195TIP3   OH215590   5.561   2.045   2.207
 5195TIP3    H115591   5.641   2.004   2.240
 5195TIP3    H215592   5.564   2.030   2.112
 5196TIP3   OH215593   5.710   3.956   2.424
 5196TIP3    H115594   5.712   4.028   2.361
 5196TIP3    H215595   5.801   3.924   2.428
 5197TIP3   OH215596   4.180   5.505   2.758
 5197TIP3    H115597   4.265   5.463   2.768
 5197TIP3    H215598   4.167   5.554   2.839
 5198TIP3   OH215599   1.081   5.763   0.294
 5198TIP3    H115600   0.989   5.736   0.301
 5198TIP3    H215601   1.105   5.741   0.204
 5199TIP3   OH215602   2.893   2.429   3.710
 5199TIP3    H115603   2.986   2.452   3.709
 5199TIP3    H215604   2.865   2.448   3.800
 5200TIP3   OH215605   2.341   1.497   2.972
 5200TIP3    H115606   2.286   1.563   3.013
 5200TIP3    H215607   2.282   1.425   2.952
 5201TIP3   OH215608   0.282   0.258   3.939
 5201TIP3    H115609   0.198   0.212   3.947
 5201TIP3    H215610   0.338   0.216   4.004
 5202TIP3   OH215611   6.316   2.843   4.282
 5202TIP3    H115612   6.370   2.870   4.355
 5202TIP3    H215613   6.300   2.749   4.297
 5203TIP3   OH215614   2.464   5.679   3.941
 5203TIP3    H115615   2.481   5.755   3.885
 5203TIP3    H215616   2.393   5.707   3.998
 5204TIP3   OH215617   0.428   3.320   1.244
 5204TIP3    H115618   0.378   3.257   1.297
 5204TIP3    H215619   0.382   3.403   1.255
 5205TIP3   OH215620   3.410   2.405   0.280
 5205TIP3    H115621   3.315   2.412   0.274
 5205TIP3    H215622   3.429   2.319   0.242
 5206TIP3   OH215623   2.278   1.037   2.562
 5206TIP3    H115624   2.350   0.976   2.545
 5206TIP3    H215625   2.216   0.988   2.616
 5207TIP3   OH215626   5.625   5.710   3.972
 5207TIP3    H115627   5.585   5.677   4.053
 5207TIP3    H215628   5.716   5.681   3.977
 5208TIP3   OH215629   2.826   1.581   2.174
 5208TIP3    H115630   2.792   1.492   2.166
 5208TIP3    H215631   2.874   1.582   2.256
 5209TIP3   OH215632   5.032   0.605   1.753
 5209TIP3    H115633   5.127   0.596   1.747
 5209TIP3    H215634   4.998   0.555   1.678
 5210TIP3   OH215635   5.498   3.967   3.742
 5210TIP3    H115636   5.461   3.916   3.814
 5210TIP3    H215637   5.590   3.979   3.767
 5211TIP3   OH215638   3.317   3.603   0.463
 5211TIP3    H115639   3.260   3.679   0.476
 5211TIP3    H215640   3.265   3.543   0.409
 5212TIP3   OH215641   3.575   2.271   3.883
 5212TIP3    H115642   3.647   2.331   3.862
 5212TIP3    H215643   3.562   2.282   3.978
 5213TIP3   OH215644   2.965   2.738   3.782
 5213TIP3    H115645   3.042   2.705   3.735
 5213TIP3    H215646   2.930   2.807   3.725
 5214TIP3   OH215647   5.047   0.351   1.348
 5214TIP3    H115648   5.002   0.373   1.429
 5214TIP3    H215649   5.007   0.269   1.320
 5215TIP3   OH215650   4.104   0.347   0.683
 5215TIP3    H115651   4.051   0.409   0.634
 5215TIP3    H215652   4.103   0.381   0.773
 5216TIP3   OH215653   4.644   2.515   0.379
 5216TIP3    H115654   4.624   2.439   0.325
 5216TIP3    H215655   4.560   2.544   0.412
 5217TIP3   OH215656   0.989   2.250   3.771
 5217TIP3    H115657   1.061   2.232   3.711
 5217TIP3    H215658   1.031   2.286   3.849
 5218TIP3   OH215659   6.007   3.583   2.500
 5218TIP3    H115660   6.011   3.679   2.492
 5218TIP3    H215661   5.914   3.563   2.493
 5219TIP3   OH215662   0.669   5.157   4.422
 5219TIP3    H115663   0.744   5.098   4.424
 5219TIP3    H215664   0.707   5.243   4.401
 5220TIP3   OH215665   1.249   2.106   2.055
 5220TIP3    H115666   1.193   2.183   2.061
 5220TIP3    H215667   1.194   2.034   2.087
 5221TIP3   OH215668   4.669   5.151   2.523
 5221TIP3    H115669   4.681   5.140   2.617
 5221TIP3    H215670   4.581   5.117   2.506
 5222TIP3   OH215671   0.523   5.870   3.251
 5222TIP3    H115672   0.557   5.868   3.340
 5222TIP3    H215673   0.499   5.962   3.236
 5223TIP3   OH215674   5.694   1.587   3.821
 5223TIP3    H115675   5.606   1.607   3.789
 5223TIP3    H215676   5.752   1.612   3.749
 5224TIP3   OH215677   5.196   3.224   4.263
 5224TIP3    H115678   5.278   3.202   4.307
 5224TIP3    H215679   5.212   3.204   4.171
 5225TIP3   OH215680   5.464   3.424   0.062
 5225TIP3    H115681   5.550   3.463   0.046
 5225TIP3    H215682   5.422   3.424  -0.024
 5226TIP3   OH215683   3.672   3.031   3.023
 5226TIP3    H115684   3.755   3.011   3.066
 5226TIP3    H215685   3.695   3.093   2.954
 5227TIP3   OH215686   0.264   0.543   3.642
 5227TIP3    H115687   0.198   0.567   3.577
 5227TIP3    H215688   0.235   0.585   3.723
 5228TIP3   OH215689   5.479   5.235   0.226
 5228TIP3    H115690   5.556   5.179   0.219
 5228TIP3    H215691   5.512   5.323   0.208
 5229TIP3   OH215692   4.146   3.060   1.866
 5229TIP3    H115693   4.144   2.964   1.863
 5229TIP3    H215694   4.239   3.082   1.856
 5230TIP3   OH215695   0.741   3.702   4.506
 5230TIP3    H115696   0.659   3.739   4.475
 5230TIP3    H215697   0.801   3.710   4.432
 5231TIP3   OH215698   0.997   0.527   1.926
 5231TIP3    H115699   0.927   0.589   1.905
 5231TIP3    H215700   1.074   0.582   1.941
 5232TIP3   OH215701   3.428   3.338   2.381
 5232TIP3    H115702   3.419   3.431   2.401
 5232TIP3    H215703   3.351   3.317   2.329
 5233TIP3   OH215704   6.337   4.283   3.468
 5233TIP3    H115705   6.313   4.218   3.533
 5233TIP3    H215706   6.427   4.260   3.443
 5234TIP3   OH215707   3.602   4.602   3.105
 5234TIP3    H115708   3.529   4.541   3.094
 5234TIP3    H215709   3.679   4.553   3.074
 5235TIP3   OH215710   0.137   1.408   2.742
 5235TIP3    H115711   0.217   1.442   2.783
 5235TIP3    H215712   0.067   1.433   2.802
 5236TIP3   OH215713   4.727   3.802   2.282
 5236TIP3    H115714   4.729   3.880   2.226
 5236TIP3    H215715   4.819   3.773   2.286
 5237TIP3   OH215716   3.961   4.018   1.183
 5237TIP3    H115717   3.901   4.085   1.149
 5237TIP3    H215718   4.019   3.998   1.110
 5238TIP3   OH215719   0.987   4.991   1.510
 5238TIP3    H115720   0.952   5.049   1.577
 5238TIP3    H215721   1.018   5.050   1.441
 5239TIP3   OH215722   2.805   5.549   4.216
 5239TIP3    H115723   2.826   5.556   4.309
 5239TIP3    H215724   2.880   5.503   4.179
 5240TIP3   OH215725   3.817   0.257   0.488
 5240TIP3    H115726   3.810   0.218   0.401
 5240TIP3    H215727   3.887   0.322   0.480
 5241TIP3   OH215728   4.390   5.816   2.763
 5241TIP3    H115729   4.318   5.866   2.725
 5241TIP3    H215730   4.405   5.745   2.701
 5242TIP3   OH215731   0.211   4.738   3.496
 5242TIP3    H115732   0.149   4.770   3.431
 5242TIP3    H215733   0.269   4.681   3.447
 5243TIP3   OH215734   5.379   3.407   2.035
 5243TIP3    H115735   5.458   3.454   2.006
 5243TIP3    H215736   5.389   3.319   1.999
 5244TIP3   OH215737   1.452   5.461   3.975
 5244TIP3    H115738   1.532   5.509   3.995
 5244TIP3    H215739   1.397   5.523   3.927
 5245TIP3   OH215740   0.232   2.443   0.172
 5245TIP3    H115741   0.226   2.490   0.256
 5245TIP3    H215742   0.241   2.351   0.197
 5246TIP3   OH215743   1.643   1.134   0.626
 5246TIP3    H115744   1.653   1.133   0.531
 5246TIP3    H215745   1.733   1.139   0.659
 5247TIP3   OH215746   1.087   0.778   2.127
 5247TIP3    H115747   1.134   0.797   2.046
 5247TIP3    H215748   0.999   0.811   2.112
 5248TIP3   OH215749   6.049   1.349   3.682
 5248TIP3    H115750   6.026   1.400   3.760
 5248TIP3    H215751   6.142   1.366   3.669
 5249TIP3   OH215752   3.132   3.396   1.459
 5249TIP3    H115753   3.119   3.320   1.403
 5249TIP3    H215754   3.197   3.369   1.523
 5250TIP3   OH215755   5.920   5.058   2.077
 5250TIP3    H115756   5.937   5.095   2.164
 5250TIP3    H215757   5.849   4.995   2.091
 5251TIP3   OH215758   1.484   0.809   5.157
 5251TIP3    H115759   1.470   0.737   5.096
 5251TIP3    H215760   1.412   0.802   5.220
 5252TIP3   OH215761   5.972   4.704   4.310
 5252TIP3    H115762   5.937   4.690   4.398
 5252TIP3    H215763   6.041   4.770   4.321
 5253TIP3   OH215764   4.020   4.530   3.982
 5253TIP3    H115765   4.013   4.501   3.891
 5253TIP3    H215766   4.033   4.625   3.976
 5254TIP3   OH215767   1.655   0.534   0.235
 5254TIP3    H115768   1.592   0.470   0.269
 5254TIP3    H215769   1.628   0.548   0.145
 5255TIP3   OH215770   1.271   5.391   0.430
 5255TIP3    H115771   1.300   5.319   0.486
 5255TIP3    H215772   1.196   5.356   0.382
 5256TIP3   OH215773   2.934   3.236   0.168
 5256TIP3    H115774   2.945   3.296   0.095
 5256TIP3    H215775   2.878   3.167   0.134
 5257TIP3   OH215776   6.234   4.077   4.094
 5257TIP3    H115777   6.170   4.007   4.080
 5257TIP3    H215778   6.189   4.157   4.067
 5258TIP3   OH215779   0.927   3.855   2.004
 5258TIP3    H115780   0.959   3.898   1.925
 5258TIP3    H215781   1.006   3.827   2.050
 5259TIP3   OH215782   0.448   4.371   0.059
 5259TIP3    H115783   0.357   4.397   0.048
 5259TIP3    H215784   0.488   4.444   0.106
 5260TIP3   OH215785   2.173   4.010   1.203
 5260TIP3    H115786   2.226   4.005   1.282
 5260TIP3    H215787   2.229   4.055   1.140
 5261TIP3   OH215788   3.419   4.975   1.232
 5261TIP3    H115789   3.486   5.039   1.255
 5261TIP3    H215790   3.392   4.999   1.143
 5262TIP3   OH215791   0.155   2.758   1.879
 5262TIP3    H115792   0.083   2.712   1.836
 5262TIP3    H215793   0.210   2.789   1.808
 5263TIP3   OH215794   1.819   0.784   3.707
 5263TIP3    H115795   1.824   0.866   3.757
 5263TIP3    H215796   1.787   0.811   3.621
 5264TIP3   OH215797   2.489   0.542   0.910
 5264TIP3    H115798   2.527   0.600   0.844
 5264TIP3    H215799   2.402   0.520   0.875
 5265TIP3   OH215800   0.679   1.303   3.251
 5265TIP3    H115801   0.736   1.254   3.311
 5265TIP3    H215802   0.592   1.298   3.292
 5266TIP3   OH215803   5.607   3.488   1.859
 5266TIP3    H115804   5.683   3.491   1.801
 5266TIP3    H215805   5.644   3.474   1.946
 5267TIP3   OH215806   1.451   3.921   3.594
 5267TIP3    H115807   1.507   3.847   3.619
 5267TIP3    H215808   1.364   3.898   3.625
 5268TIP3   OH215809   1.304   0.420   3.264
 5268TIP3    H115810   1.351   0.457   3.338
 5268TIP3    H215811   1.324   0.326   3.268
 5269TIP3   OH215812   4.958   5.376   1.499
 5269TIP3    H115813   5.053   5.370   1.494
 5269TIP3    H215814   4.941   5.436   1.571
 5270TIP3   OH215815   0.521   0.975   1.128
 5270TIP3    H115816   0.556   0.914   1.063
 5270TIP3    H215817   0.519   1.060   1.084
 5271TIP3   OH215818   5.762   2.431   0.376
 5271TIP3    H115819   5.829   2.420   0.310
 5271TIP3    H215820   5.807   2.414   0.459
 5272TIP3   OH215821   3.536   4.506   0.582
 5272TIP3    H115822   3.463   4.554   0.622
 5272TIP3    H215823   3.570   4.566   0.516
 5273TIP3   OH215824   4.888   0.383   2.836
 5273TIP3    H115825   4.966   0.344   2.797
 5273TIP3    H215826   4.922   0.447   2.899
 5274TIP3   OH215827   0.549   1.455   4.025
 5274TIP3    H115828   0.494   1.385   4.059
 5274TIP3    H215829   0.506   1.536   4.054
 5275TIP3   OH215830   4.390   0.302   0.741
 5275TIP3    H115831   4.409   0.240   0.812
 5275TIP3    H215832   4.299   0.327   0.754
 5276TIP3   OH215833   2.401   2.843   1.689
 5276TIP3    H115834   2.394   2.899   1.766
 5276TIP3    H215835   2.390   2.754   1.723
 5277TIP3   OH215836   4.729   3.692   4.165
 5277TIP3    H115837   4.778   3.771   4.186
 5277TIP3    H215838   4.641   3.723   4.143
 5278TIP3   OH215839   2.502   3.479   3.500
 5278TIP3    H115840   2.470   3.392   3.526
 5278TIP3    H215841   2.424   3.526   3.471
 5279TIP3   OH215842   4.262   5.941   1.092
 5279TIP3    H115843   4.271   6.021   1.144
 5279TIP3    H215844   4.196   5.962   1.026
 5280TIP3   OH215845   1.406   4.697   0.778
 5280TIP3    H115846   1.500   4.688   0.797
 5280TIP3    H215847   1.395   4.652   0.694
 5281TIP3   OH215848   1.483   0.410   1.219
 5281TIP3    H115849   1.393   0.434   1.194
 5281TIP3    H215850   1.538   0.478   1.182
 5282TIP3   OH215851   1.436   2.090   3.917
 5282TIP3    H115852   1.388   2.074   3.835
 5282TIP3    H215853   1.466   2.003   3.944
 5283TIP3   OH215854   5.255   4.807   0.251
 5283TIP3    H115855   5.253   4.786   0.344
 5283TIP3    H215856   5.344   4.838   0.235
 5284TIP3   OH215857   2.538   0.152   2.319
 5284TIP3    H115858   2.470   0.097   2.357
 5284TIP3    H215859   2.494   0.203   2.252
 5285TIP3   OH215860   2.455   0.540   1.972
 5285TIP3    H115861   2.541   0.551   1.934
 5285TIP3    H215862   2.397   0.593   1.918
 5286TIP3   OH215863   2.127   2.341   4.912
 5286TIP3    H115864   2.100   2.294   4.833
 5286TIP3    H215865   2.217   2.314   4.927
 5287TIP3   OH215866   2.288   1.789   0.542
 5287TIP3    H115867   2.211   1.826   0.586
 5287TIP3    H215868   2.269   1.801   0.449
 5288TIP3   OH215869   2.056   2.699   0.958
 5288TIP3    H115870   1.963   2.723   0.959
 5288TIP3    H215871   2.102   2.782   0.947
 5289TIP3   OH215872   5.030   4.714   1.134
 5289TIP3    H115873   4.980   4.681   1.060
 5289TIP3    H215874   5.005   4.658   1.207
 5290TIP3   OH215875   0.188   3.050   3.858
 5290TIP3    H115876   0.095   3.027   3.851
 5290TIP3    H215877   0.217   3.061   3.767
 5291TIP3   OH215878   5.671   1.609   0.853
 5291TIP3    H115879   5.650   1.622   0.946
 5291TIP3    H215880   5.734   1.678   0.833
 5292TIP3   OH215881   2.154   3.208   5.074
 5292TIP3    H115882   2.067   3.177   5.048
 5292TIP3    H215883   2.198   3.130   5.109
 5293TIP3   OH215884   3.178   3.463   0.289
 5293TIP3    H115885   3.213   3.387   0.243
 5293TIP3    H215886   3.088   3.472   0.256
 5294TIP3   OH215887   3.854   4.946   0.840
 5294TIP3    H115888   3.850   4.857   0.805
 5294TIP3    H215889   3.804   4.999   0.778
 5295TIP3   OH215890   2.572   3.170   4.701
 5295TIP3    H115891   2.560   3.101   4.636
 5295TIP3    H215892   2.651   3.217   4.673
 5296TIP3   OH215893   0.460   4.083   1.087
 5296TIP3    H115894   0.543   4.047   1.058
 5296TIP3    H215895   0.428   4.022   1.153
 5297TIP3   OH215896   2.977   2.485   0.651
 5297TIP3    H115897   3.003   2.526   0.734
 5297TIP3    H215898   2.943   2.557   0.598
 5298TIP3   OH215899   1.777   4.872   4.852
 5298TIP3    H115900   1.742   4.795   4.807
 5298TIP3    H215901   1.836   4.912   4.787
 5299TIP3   OH215902   4.371   3.439   2.617
 5299TIP3    H115903   4.402   3.396   2.696
 5299TIP3    H215904   4.326   3.517   2.649
 5300TIP3   OH215905   0.165   3.840   5.190
 5300TIP3    H115906   0.108   3.842   5.267
 5300TIP3    H215907   0.107   3.853   5.116
 5301TIP3   OH215908   1.779   1.105   1.620
 5301TIP3    H115909   1.720   1.111   1.546
 5301TIP3    H215910   1.799   1.012   1.628
 5302TIP3   OH215911   2.113   3.959   4.626
 5302TIP3    H115912   2.120   4.055   4.626
 5302TIP3    H215913   2.168   3.931   4.553
 5303TIP3   OH215914   1.111   0.368   2.842
 5303TIP3    H115915   1.198   0.367   2.800
 5303TIP3    H215916   1.067   0.444   2.804
 5304TIP3   OH215917   0.968   3.760   2.692
 5304TIP3    H115918   0.944   3.851   2.675
 5304TIP3    H215919   0.899   3.709   2.649
 5305TIP3   OH215920   2.716   1.535   4.921
 5305TIP3    H115921   2.745   1.583   4.998
 5305TIP3    H215922   2.671   1.458   4.956
 5306TIP3   OH215923   2.358   3.100   1.182
 5306TIP3    H115924   2.306   3.035   1.229
 5306TIP3    H215925   2.442   3.102   1.229
 5307TIP3   OH215926   5.703   0.088   3.260
 5307TIP3    H115927   5.681   0.022   3.194
 5307TIP3    H215928   5.767   0.045   3.317
 5308TIP3   OH215929   0.191   0.478   3.317
 5308TIP3    H115930   0.120   0.498   3.377
 5308TIP3    H215931   0.166   0.519   3.234
 5309TIP3   OH215932   5.434   3.422   0.715
 5309TIP3    H115933   5.520   3.388   0.738
 5309TIP3    H215934   5.416   3.388   0.627
 5310TIP3   OH215935   0.253   3.921   3.826
 5310TIP3    H115936   0.230   3.964   3.908
 5310TIP3    H215937   0.309   3.848   3.852
 5311TIP3   OH215938   0.592   4.850   4.201
 5311TIP3    H115939   0.668   4.888   4.245
 5311TIP3    H215940   0.533   4.924   4.187
 5312TIP3   OH215941   5.502   3.827   1.868
 5312TIP3    H115942   5.432   3.762   1.865
 5312TIP3    H215943   5.570   3.788   1.922
 5313TIP3   OH215944   3.755   2.372   1.316
 5313TIP3    H115945   3.807   2.352   1.394
 5313TIP3    H215946   3.664   2.374   1.348
 5314TIP3   OH215947   3.825   5.237   1.766
 5314TIP3    H115948   3.903   5.251   1.819
 5314TIP3    H215949   3.752   5.249   1.827
 5315TIP3   OH215950   1.620   5.481   1.843
 5315TIP3    H115951   1.594   5.447   1.928
 5315TIP3    H215952   1.538   5.506   1.800
 5316TIP3   OH215953   1.424   3.266   2.443
 5316TIP3    H115954   1.444   3.328   2.513
 5316TIP3    H215955   1.479   3.190   2.462
 5317TIP3   OH215956   4.752   4.458   1.695
 5317TIP3    H115957   4.807   4.515   1.643
 5317TIP3    H215958   4.668   4.503   1.701
 5318TIP3   OH215959   1.533   1.274   5.008
 5318TIP3    H115960   1.482   1.342   4.964
 5318TIP3    H215961   1.518   1.195   4.957
 5319TIP3   OH215962   5.166   5.861   0.969
 5319TIP3    H115963   5.235   5.908   0.923
 5319TIP3    H215964   5.132   5.798   0.905
 5320TIP3   OH215965   5.308   5.537   4.098
 5320TIP3    H115966   5.346   5.583   4.173
 5320TIP3    H215967   5.330   5.445   4.112
 5321TIP3   OH215968   1.736   0.627   1.814
 5321TIP3    H115969   1.651   0.628   1.769
 5321TIP3    H215970   1.715   0.646   1.905
 5322TIP3   OH215971   2.385   2.450   4.699
 5322TIP3    H115972   2.326   2.524   4.681
 5322TIP3    H215973   2.377   2.394   4.622
 5323TIP3   OH215974   6.334   2.684   0.494
 5323TIP3    H115975   6.306   2.597   0.466
 5323TIP3    H215976   6.412   2.669   0.547
 5324TIP3   OH215977   1.757   4.866   3.779
 5324TIP3    H115978   1.716   4.938   3.826
 5324TIP3    H215979   1.813   4.909   3.714
 5325TIP3   OH215980   3.497   2.455   1.476
 5325TIP3    H115981   3.481   2.361   1.475
 5325TIP3    H215982   3.410   2.493   1.491
 5326TIP3   OH215983   1.561   2.905   1.027
 5326TIP3    H115984   1.486   2.931   1.081
 5326TIP3    H215985   1.525   2.897   0.938
 5327TIP3   OH215986   4.955   4.492   4.843
 5327TIP3    H115987   5.027   4.482   4.906
 5327TIP3    H215988   4.900   4.415   4.855
 5328TIP3   OH215989   1.948   1.392   2.904
 5328TIP3    H115990   2.013   1.365   2.969
 5328TIP3    H215991   1.966   1.336   2.828
 5329TIP3   OH215992   3.076   1.514   0.844
 5329TIP3    H115993   3.065   1.501   0.750
 5329TIP3    H215994   2.999   1.474   0.883
 5330TIP3   OH215995   3.185   2.797   2.851
 5330TIP3    H115996   3.193   2.824   2.759
 5330TIP3    H215997   3.230   2.865   2.900
 5331TIP3   OH215998   3.056   2.419   2.968
 5331TIP3    H115999   3.026   2.498   2.923
 5331TIP3    H216000   3.068   2.447   3.059
 5332TIP3   OH216001   1.335   0.752   2.260
 5332TIP3    H116002   1.334   0.826   2.200
 5332TIP3    H216003   1.244   0.722   2.264
 5333TIP3   OH216004   2.107   4.103   3.646
 5333TIP3    H116005   2.189   4.107   3.597
 5333TIP3    H216006   2.064   4.187   3.627
 5334TIP3   OH216007   2.493   4.933   0.024
 5334TIP3    H116008   2.423   4.913   0.085
 5334TIP3    H216009   2.552   4.858   0.029
 5335TIP3   OH216010   2.736   2.630   3.540
 5335TIP3    H116011   2.809   2.579   3.575
 5335TIP3    H216012   2.757   2.721   3.564
 5336TIP3   OH216013   6.056   0.714   3.593
 5336TIP3    H116014   6.052   0.780   3.524
 5336TIP3    H216015   6.125   0.743   3.652
 5337TIP3   OH216016   4.639   2.310   0.190
 5337TIP3    H116017   4.678   2.226   0.216
 5337TIP3    H216018   4.638   2.306   0.094
 5338TIP3   OH216019   3.928   2.961   3.123
 5338TIP3    H116020   3.946   2.883   3.070
 5338TIP3    H216021   4.010   3.010   3.122
 5339TIP3   OH216022   5.468   4.149   2.859
 5339TIP3    H116023   5.487   4.098   2.780
 5339TIP3    H216024   5.394   4.204   2.835
 5340TIP3   OH216025   4.754   5.942   2.968
 5340TIP3    H116026   4.681   6.000   2.991
 5340TIP3    H216027   4.765   5.887   3.046
 5341TIP3   OH216028   5.085   0.808   4.708
 5341TIP3    H116029   5.112   0.900   4.706
 5341TIP3    H216030   5.031   0.797   4.630
 5342TIP3   OH216031   1.386   0.150   3.310
 5342TIP3    H116032   1.457   0.150   3.374
 5342TIP3    H216033   1.342   0.066   3.322
 5343TIP3   OH216034   5.290   2.160   3.677
 5343TIP3    H116035   5.238   2.081   3.692
 5343TIP3    H216036   5.346   2.166   3.755
 5344TIP3   OH216037   2.436   1.572   4.834
 5344TIP3    H116038   2.445   1.649   4.778
 5344TIP3    H216039   2.464   1.498   4.779
 5345TIP3   OH216040   3.254   3.950   2.208
 5345TIP3    H116041   3.222   4.039   2.188
 5345TIP3    H216042   3.178   3.906   2.247
 5346TIP3   OH216043   3.675   3.193   1.114
 5346TIP3    H116044   3.736   3.161   1.181
 5346TIP3    H216045   3.649   3.114   1.065
 5347TIP3   OH216046   4.242   4.042   3.190
 5347TIP3    H116047   4.188   3.980   3.239
 5347TIP3    H216048   4.215   4.029   3.099
 5348TIP3   OH216049   5.360   5.525   0.111
 5348TIP3    H116050   5.437   5.569   0.075
 5348TIP3    H216051   5.333   5.581   0.184
 5349TIP3   OH216052   6.306   4.330   3.201
 5349TIP3    H116053   6.388   4.322   3.153
 5349TIP3    H216054   6.330   4.318   3.293
 5350TIP3   OH216055   0.969   3.570   2.882
 5350TIP3    H116056   0.885   3.532   2.860
 5350TIP3    H216057   0.990   3.627   2.808
 5351TIP3   OH216058   0.089   5.360   0.290
 5351TIP3    H116059   0.060   5.366   0.381
 5351TIP3    H216060   0.167   5.416   0.286
 5352TIP3   OH216061   2.358   4.909   3.595
 5352TIP3    H116062   2.362   4.999   3.628
 5352TIP3    H216063   2.410   4.859   3.658
 5353TIP3   OH216064   5.479   4.112   2.052
 5353TIP3    H116065   5.557   4.107   2.108
 5353TIP3    H216066   5.514   4.108   1.963
 5354TIP3   OH216067   3.281   3.524   2.006
 5354TIP3    H116068   3.327   3.546   1.925
 5354TIP3    H216069   3.344   3.541   2.076
 5355TIP3   OH216070   4.945   0.834   4.165
 5355TIP3    H116071   4.880   0.868   4.104
 5355TIP3    H216072   4.962   0.907   4.225
 5356TIP3   OH216073   2.858   1.378   1.795
 5356TIP3    H116074   2.950   1.395   1.817
 5356TIP3    H216075   2.822   1.337   1.873
 5357TIP3   OH216076   3.865   3.793   1.448
 5357TIP3    H116077   3.784   3.743   1.434
 5357TIP3    H216078   3.919   3.771   1.372
 5358TIP3   OH216079   2.160   0.943   2.993
 5358TIP3    H116080   2.126   0.979   2.912
 5358TIP3    H216081   2.255   0.945   2.982
 5359TIP3   OH216082   4.150   4.688   1.512
 5359TIP3    H116083   4.066   4.723   1.540
 5359TIP3    H216084   4.129   4.633   1.436
 5360TIP3   OH216085   4.710   1.767   0.236
 5360TIP3    H116086   4.754   1.746   0.319
 5360TIP3    H216087   4.768   1.830   0.193
 5361TIP3   OH216088   3.185   1.120   4.701
 5361TIP3    H116089   3.245   1.113   4.775
 5361TIP3    H216090   3.165   1.214   4.696
 5362TIP3   OH216091   5.460   2.014   0.222
 5362TIP3    H116092   5.516   1.961   0.166
 5362TIP3    H216093   5.516   2.040   0.294
 5363TIP3   OH216094   3.196   4.205   2.129
 5363TIP3    H116095   3.152   4.281   2.167
 5363TIP3    H216096   3.288   4.214   2.157
 5364TIP3   OH216097   3.000   3.366   2.425
 5364TIP3    H116098   3.075   3.326   2.381
 5364TIP3    H216099   3.031   3.452   2.454
 5365TIP3   OH216100   5.126   0.814   2.785
 5365TIP3    H116101   5.179   0.777   2.856
 5365TIP3    H216102   5.113   0.905   2.809
 5366TIP3   OH216103   3.465   0.577   3.654
 5366TIP3    H116104   3.457   0.645   3.721
 5366TIP3    H216105   3.378   0.574   3.613
 5367TIP3   OH216106   1.635   0.639   2.062
 5367TIP3    H116107   1.563   0.648   1.999
 5367TIP3    H216108   1.595   0.656   2.147
 5368TIP3   OH216109   6.125   3.027   2.975
 5368TIP3    H116110   6.177   2.947   2.986
 5368TIP3    H216111   6.177   3.094   3.018
 5369TIP3   OH216112   1.861   4.438   3.187
 5369TIP3    H116113   1.911   4.361   3.159
 5369TIP3    H216114   1.791   4.402   3.242
 5370TIP3   OH216115   4.350   3.607   1.560
 5370TIP3    H116116   4.428   3.603   1.616
 5370TIP3    H216117   4.276   3.604   1.622
 5371TIP3   OH216118   3.966   0.378   3.172
 5371TIP3    H116119   3.912   0.304   3.200
 5371TIP3    H216120   3.961   0.440   3.245
 5372TIP3   OH216121   5.845   1.140   3.264
 5372TIP3    H116122   5.750   1.129   3.268
 5372TIP3    H216123   5.862   1.219   3.315
 5373TIP3   OH216124   2.814   0.733   2.154
 5373TIP3    H116125   2.783   0.667   2.215
 5373TIP3    H216126   2.905   0.709   2.136
 5374TIP3   OH216127   2.687   3.917   3.041
 5374TIP3    H116128   2.782   3.922   3.025
 5374TIP3    H216129   2.649   3.986   2.987
 5375TIP3   OH216130   0.515   4.740   3.756
 5375TIP3    H116131   0.518   4.810   3.691
 5375TIP3    H216132   0.555   4.665   3.712
 5376TIP3   OH216133   1.474   2.852   0.769
 5376TIP3    H116134   1.412   2.896   0.711
 5376TIP3    H216135   1.554   2.846   0.717
 5377TIP3   OH216136   0.956   3.680   0.243
 5377TIP3    H116137   0.926   3.743   0.177
 5377TIP3    H216138   0.877   3.653   0.288
 5378TIP3   OH216139   1.661   1.814   0.989
 5378TIP3    H116140   1.723   1.856   1.049
 5378TIP3    H216141   1.612   1.887   0.950
 5379TIP3   OH216142   3.891   3.382   2.075
 5379TIP3    H116143   3.860   3.342   1.993
 5379TIP3    H216144   3.904   3.474   2.053
 5380TIP3   OH216145   2.782   3.143   4.521
 5380TIP3    H116146   2.831   3.171   4.444
 5380TIP3    H216147   2.721   3.078   4.488
 5381TIP3   OH216148   5.401   4.228   1.600
 5381TIP3    H116149   5.311   4.259   1.609
 5381TIP3    H216150   5.420   4.234   1.507
 5382TIP3   OH216151   2.015   0.701   1.696
 5382TIP3    H116152   2.018   0.678   1.603
 5382TIP3    H216153   1.930   0.671   1.725
 5383TIP3   OH216154   3.677   3.171   0.178
 5383TIP3    H116155   3.648   3.261   0.191
 5383TIP3    H216156   3.629   3.120   0.244
 5384TIP3   OH216157   4.344   4.060   1.965
 5384TIP3    H116158   4.411   4.097   1.907
 5384TIP3    H216159   4.265   4.056   1.911
 5385TIP3   OH216160   2.893   5.364   3.112
 5385TIP3    H116161   2.839   5.316   3.175
 5385TIP3    H216162   2.866   5.455   3.122
 5386TIP3   OH216163   6.040   4.628   1.656
 5386TIP3    H116164   6.021   4.682   1.579
 5386TIP3    H216165   6.050   4.540   1.622
 5387TIP3   OH216166   2.169   5.532   3.237
 5387TIP3    H116167   2.173   5.563   3.147
 5387TIP3    H216168   2.168   5.611   3.291
 5388TIP3   OH216169   1.558   0.671   3.164
 5388TIP3    H116170   1.466   0.694   3.179
 5388TIP3    H216171   1.556   0.619   3.083
 5389TIP3   OH216172   3.584   3.993   0.868
 5389TIP3    H116173   3.591   4.054   0.942
 5389TIP3    H216174   3.511   4.027   0.817
 5390TIP3   OH216175   6.340   0.456   1.120
 5390TIP3    H116176   6.266   0.418   1.072
 5390TIP3    H216177   6.385   0.511   1.056
 5391TIP3   OH216178   6.359   0.042   1.907
 5391TIP3    H116179   6.285   0.099   1.923
 5391TIP3    H216180   6.392   0.020   1.994
 5392TIP3   OH216181   3.549   2.927   2.532
 5392TIP3    H116182   3.586   2.968   2.455
 5392TIP3    H216183   3.460   2.902   2.507
 5393TIP3   OH216184   1.234   3.683   3.512
 5393TIP3    H116185   1.160   3.623   3.524
 5393TIP3    H216186   1.245   3.725   3.598
 5394TIP3   OH216187   2.617   2.733   4.100
 5394TIP3    H116188   2.600   2.667   4.034
 5394TIP3    H216189   2.531   2.754   4.137
 5395TIP3   OH216190   3.014   5.843   1.374
 5395TIP3    H116191   3.093   5.790   1.367
 5395TIP3    H216192   2.944   5.780   1.392
 5396TIP3   OH216193   4.382   5.329   0.616
 5396TIP3    H116194   4.300   5.368   0.584
 5396TIP3    H216195   4.366   5.312   0.709
 5397TIP3   OH216196   3.234   2.864   0.951
 5397TIP3    H116197   3.277   2.779   0.950
 5397TIP3    H216198   3.269   2.910   0.875
 5398TIP3   OH216199   3.554   0.143   2.953
 5398TIP3    H116200   3.459   0.157   2.955
 5398TIP3    H216201   3.584   0.195   2.878
 5399TIP3   OH216202   3.172   1.226   3.528
 5399TIP3    H116203   3.250   1.193   3.572
 5399TIP3    H216204   3.120   1.265   3.598
 5400TIP3   OH216205   4.236   3.828   3.366
 5400TIP3    H116206   4.301   3.884   3.408
 5400TIP3    H216207   4.282   3.787   3.293
 5401TIP3   OH216208   2.194   4.956   4.992
 5401TIP3    H116209   2.114   4.920   5.029
 5401TIP3    H216210   2.179   5.051   4.988
 5402TIP3   OH216211   0.134   5.179   2.854
 5402TIP3    H116212   0.114   5.191   2.762
 5402TIP3    H216213   0.182   5.096   2.858
 5403TIP3   OH216214   4.789   5.818   3.197
 5403TIP3    H116215   4.752   5.849   3.280
 5403TIP3    H216216   4.851   5.750   3.223
 5404TIP3   OH216217   3.832   4.715   0.675
 5404TIP3    H116218   3.799   4.630   0.645
 5404TIP3    H216219   3.872   4.754   0.597
 5405TIP3   OH216220   2.005   5.822   4.835
 5405TIP3    H116221   1.996   5.832   4.930
 5405TIP3    H216222   2.046   5.737   4.824
 5406TIP3   OH216223   4.960   5.028   0.671
 5406TIP3    H116224   4.894   5.077   0.721
 5406TIP3    H216225   5.005   5.094   0.620
 5407TIP3   OH216226   5.644   4.429   3.326
 5407TIP3    H116227   5.661   4.521   3.346
 5407TIP3    H216228   5.633   4.387   3.411
 5408TIP3   OH216229   4.413   4.172   2.793
 5408TIP3    H116230   4.390   4.264   2.807
 5408TIP3    H216231   4.392   4.129   2.876
 5409TIP3   OH216232   3.715   1.360   1.422
 5409TIP3    H116233   3.770   1.436   1.442
 5409TIP3    H216234   3.628   1.384   1.456
 5410TIP3   OH216235   2.332   3.006   3.678
 5410TIP3    H116236   2.392   2.946   3.634
 5410TIP3    H216237   2.247   2.961   3.676
 5411TIP3   OH216238   3.997   2.021   0.340
 5411TIP3    H116239   4.028   2.097   0.390
 5411TIP3    H216240   3.989   2.053   0.250
 5412TIP3   OH216241   5.632   0.504   3.584
 5412TIP3    H116242   5.648   0.422   3.538
 5412TIP3    H216243   5.560   0.545   3.536
 5413TIP3   OH216244   5.986   3.572   4.779
 5413TIP3    H116245   6.011   3.584   4.870
 5413TIP3    H216246   6.059   3.523   4.741
 5414TIP3   OH216247   0.905   4.234   0.458
 5414TIP3    H116248   0.929   4.177   0.531
 5414TIP3    H216249   0.987   4.251   0.412
 5415TIP3   OH216250   5.750   4.530   5.161
 5415TIP3    H116251   5.656   4.547   5.156
 5415TIP3    H216252   5.770   4.487   5.077
 5416TIP3   OH216253   5.558   5.328   4.029
 5416TIP3    H116254   5.563   5.416   4.067
 5416TIP3    H216255   5.538   5.271   4.102
 5417TIP3   OH216256   1.817   1.293   5.037
 5417TIP3    H116257   1.724   1.277   5.021
 5417TIP3    H216258   1.819   1.371   5.092
 5418TIP3   OH216259   5.159   4.258   0.848
 5418TIP3    H116260   5.118   4.181   0.809
 5418TIP3    H216261   5.145   4.247   0.942
 5419TIP3   OH216262   4.967   1.113   4.130
 5419TIP3    H116263   5.013   1.196   4.123
 5419TIP3    H216264   4.981   1.070   4.046
 5420TIP3   OH216265   5.268   4.580   1.366
 5420TIP3    H116266   5.305   4.542   1.286
 5420TIP3    H216267   5.323   4.656   1.385
 5421TIP3   OH216268   1.566   5.100   4.360
 5421TIP3    H116269   1.517   5.138   4.432
 5421TIP3    H216270   1.613   5.026   4.400
 5422TIP3   OH216271   5.063   5.828   2.647
 5422TIP3    H116272   5.040   5.909   2.599
 5422TIP3    H216273   5.142   5.851   2.695
 5423TIP3   OH216274   1.493   4.513   3.060
 5423TIP3    H116275   1.489   4.418   3.055
 5423TIP3    H216276   1.494   4.532   3.154
 5424TIP3   OH216277   3.417   3.763   0.930
 5424TIP3    H116278   3.383   3.749   0.842
 5424TIP3    H216279   3.475   3.839   0.922
 5425TIP3   OH216280   0.676   4.585   4.716
 5425TIP3    H116281   0.719   4.509   4.678
 5425TIP3    H216282   0.622   4.550   4.786
 5426TIP3   OH216283   2.010   0.051   0.484
 5426TIP3    H116284   2.064   0.111   0.537
 5426TIP3    H216285   1.926   0.097   0.475
 5427TIP3   OH216286   2.156   1.463   4.707
 5427TIP3    H116287   2.143   1.421   4.792
 5427TIP3    H216288   2.180   1.553   4.729
 5428TIP3   OH216289   2.428   5.409   2.587
 5428TIP3    H116290   2.456   5.351   2.658
 5428TIP3    H216291   2.432   5.497   2.625
 5429TIP3   OH216292   0.853   1.815   3.634
 5429TIP3    H116293   0.934   1.864   3.648
 5429TIP3    H216294   0.880   1.723   3.639
 5430TIP3   OH216295   4.018   1.023   2.192
 5430TIP3    H116296   4.025   1.089   2.123
 5430TIP3    H216297   3.979   0.947   2.149
 5431TIP3   OH216298   5.308   0.270   1.490
 5431TIP3    H116299   5.284   0.193   1.439
 5431TIP3    H216300   5.226   0.320   1.496
 5432TIP3   OH216301   1.618   5.837   0.299
 5432TIP3    H116302   1.714   5.830   0.307
 5432TIP3    H216303   1.584   5.781   0.369
 5433TIP3   OH216304   3.244   3.434   2.795
 5433TIP3    H116305   3.257   3.364   2.731
 5433TIP3    H216306   3.170   3.404   2.848
 5434TIP3   OH216307   0.389   3.765   1.623
 5434TIP3    H116308   0.408   3.725   1.538
 5434TIP3    H216309   0.301   3.734   1.645
 5435TIP3   OH216310   5.480   3.625   4.134
 5435TIP3    H116311   5.419   3.555   4.159
 5435TIP3    H216312   5.485   3.681   4.211
 5436TIP3   OH216313   3.716   1.156   1.204
 5436TIP3    H116314   3.702   1.182   1.295
 5436TIP3    H216315   3.667   1.074   1.194
 5437TIP3   OH216316   1.783   5.587   2.645
 5437TIP3    H116317   1.767   5.616   2.735
 5437TIP3    H216318   1.697   5.586   2.604
 5438TIP3   OH216319   0.303   4.990   3.328
 5438TIP3    H116320   0.303   5.057   3.260
 5438TIP3    H216321   0.211   4.974   3.346
 5439TIP3   OH216322   3.990   4.703   5.078
 5439TIP3    H116323   4.052   4.771   5.104
 5439TIP3    H216324   4.039   4.646   5.019
 5440TIP3   OH216325   5.095   4.958   4.510
 5440TIP3    H116326   5.030   4.894   4.541
 5440TIP3    H216327   5.174   4.905   4.493
 5441TIP3   OH216328   3.562   2.924   1.057
 5441TIP3    H116329   3.534   2.881   1.138
 5441TIP3    H216330   3.649   2.887   1.040
 5442TIP3   OH216331   5.993   0.085   3.068
 5442TIP3    H116332   5.922   0.076   3.005
 5442TIP3    H216333   5.982   0.172   3.105
 5443TIP3   OH216334   2.631   2.851   3.161
 5443TIP3    H116335   2.680   2.828   3.240
 5443TIP3    H216336   2.691   2.832   3.089
 5444TIP3   OH216337   3.648   3.056   4.333
 5444TIP3    H116338   3.733   3.059   4.289
 5444TIP3    H216339   3.625   3.148   4.346
 5445TIP3   OH216340   3.492   3.030   4.066
 5445TIP3    H116341   3.575   3.012   4.021
 5445TIP3    H216342   3.517   3.076   4.146
 5446TIP3   OH216343   4.149   2.801   0.365
 5446TIP3    H116344   4.114   2.844   0.443
 5446TIP3    H216345   4.236   2.841   0.353
 5447TIP3   OH216346   2.251   0.530   4.330
 5447TIP3    H116347   2.157   0.541   4.315
 5447TIP3    H216348   2.271   0.589   4.402
 5448TIP3   OH216349   1.923   1.626   3.487
 5448TIP3    H116350   1.979   1.588   3.420
 5448TIP3    H216351   1.949   1.718   3.492
 5449TIP3   OH216352   1.666   5.274   0.320
 5449TIP3    H116353   1.754   5.308   0.333
 5449TIP3    H216354   1.669   5.229   0.236
 5450TIP3   OH216355   5.785   3.407   3.161
 5450TIP3    H116356   5.756   3.495   3.135
 5450TIP3    H216357   5.879   3.416   3.176
 5451TIP3   OH216358   5.527   5.118   2.681
 5451TIP3    H116359   5.493   5.126   2.592
 5451TIP3    H216360   5.543   5.208   2.709
 5452TIP3   OH216361   2.489   4.378   2.222
 5452TIP3    H116362   2.422   4.398   2.288
 5452TIP3    H216363   2.519   4.464   2.192
 5453TIP3   OH216364   5.258   2.570   1.383
 5453TIP3    H116365   5.349   2.558   1.411
 5453TIP3    H216366   5.220   2.482   1.388
 5454TIP3   OH216367   4.810   2.700   2.114
 5454TIP3    H116368   4.806   2.653   2.031
 5454TIP3    H216369   4.755   2.650   2.173
 5455TIP3   OH216370   4.062   0.383   2.818
 5455TIP3    H116371   3.978   0.352   2.853
 5455TIP3    H216372   4.126   0.362   2.887
 5456TIP3   OH216373   0.853   1.766   3.236
 5456TIP3    H116374   0.895   1.851   3.228
 5456TIP3    H216375   0.772   1.782   3.285
 5457TIP3   OH216376   1.810   5.955   2.652
 5457TIP3    H116377   1.846   5.930   2.567
 5457TIP3    H216378   1.863   5.906   2.715
 5458TIP3   OH216379   1.650   4.781   1.514
 5458TIP3    H116380   1.617   4.866   1.541
 5458TIP3    H216381   1.680   4.794   1.425
 5459TIP3   OH216382   3.320   3.200   3.130
 5459TIP3    H116383   3.249   3.246   3.085
 5459TIP3    H216384   3.296   3.203   3.222
 5460TIP3   OH216385   2.996   3.071   0.554
 5460TIP3    H116386   2.906   3.048   0.529
 5460TIP3    H216387   3.047   2.992   0.538
 5461TIP3   OH216388   1.955   5.515   2.419
 5461TIP3    H116389   2.037   5.487   2.459
 5461TIP3    H216390   1.897   5.532   2.493
 5462TIP3   OH216391   4.071   3.643   0.930
 5462TIP3    H116392   4.074   3.608   1.020
 5462TIP3    H216393   4.026   3.726   0.939
 5463TIP3   OH216394   5.291   1.219   2.760
 5463TIP3    H116395   5.273   1.311   2.745
 5463TIP3    H216396   5.371   1.201   2.710
 5464TIP3   OH216397   2.634   0.446   0.430
 5464TIP3    H116398   2.546   0.439   0.468
 5464TIP3    H216399   2.692   0.456   0.506
 5465TIP3   OH216400   5.150   5.877   3.093
 5465TIP3    H116401   5.082   5.931   3.053
 5465TIP3    H216402   5.165   5.917   3.178
 5466TIP3   OH216403   1.521   2.683   3.907
 5466TIP3    H116404   1.497   2.771   3.876
 5466TIP3    H216405   1.441   2.651   3.949
 5467TIP3   OH216406   3.363   3.248   0.115
 5467TIP3    H116407   3.291   3.190   0.136
 5467TIP3    H216408   3.370   3.244   0.020
 5468TIP3   OH216409   4.891   0.694   1.296
 5468TIP3    H116410   4.974   0.724   1.258
 5468TIP3    H216411   4.845   0.652   1.224
 5469TIP3   OH216412   3.430   2.916   0.072
 5469TIP3    H116413   3.447   2.975   0.145
 5469TIP3    H216414   3.406   2.973  -0.001
 5470TIP3   OH216415   0.154   0.707   0.283
 5470TIP3    H116416   0.154   0.612   0.269
 5470TIP3    H216417   0.237   0.725   0.326
 5471TIP3   OH216418   5.567   2.845   1.269
 5471TIP3    H116419   5.551   2.769   1.325
 5471TIP3    H216420   5.495   2.905   1.288
 5472TIP3   OH216421   3.826   5.756   2.423
 5472TIP3    H116422   3.823   5.847   2.393
 5472TIP3    H216423   3.739   5.721   2.402
 5473TIP3   OH216424   4.170   5.980   2.715
 5473TIP3    H116425   4.160   6.002   2.808
 5473TIP3    H216426   4.171   6.065   2.670
 5474TIP3   OH216427   6.220   0.432   3.385
 5474TIP3    H116428   6.270   0.492   3.441
 5474TIP3    H216429   6.199   0.484   3.307
 5475TIP3   OH216430   0.995   0.653   4.439
 5475TIP3    H116431   0.948   0.728   4.402
 5475TIP3    H216432   0.979   0.582   4.377
 5476TIP3   OH216433   4.940   0.204   5.161
 5476TIP3    H116434   4.889   0.123   5.160
 5476TIP3    H216435   4.960   0.219   5.254
 5477TIP3   OH216436   3.681   4.039   0.110
 5477TIP3    H116437   3.595   4.076   0.129
 5477TIP3    H216438   3.664   3.968   0.048
 5478TIP3   OH216439   2.884   0.071   1.015
 5478TIP3    H116440   2.824   0.005   1.048
 5478TIP3    H216441   2.931   0.028   0.944
 5479TIP3   OH216442   5.738   0.844   1.927
 5479TIP3    H116443   5.772   0.768   1.974
 5479TIP3    H216444   5.709   0.809   1.842
 5480TIP3   OH216445   0.462   5.081   1.105
 5480TIP3    H116446   0.429   5.163   1.070
 5480TIP3    H216447   0.394   5.052   1.166
 5481TIP3   OH216448   0.696   3.994   0.973
 5481TIP3    H116449   0.787   3.966   0.987
 5481TIP3    H216450   0.673   3.960   0.887
 5482TIP3   OH216451   4.390   1.339   4.405
 5482TIP3    H116452   4.364   1.429   4.387
 5482TIP3    H216453   4.332   1.285   4.352
 5483TIP3   OH216454   0.646   3.093   2.380
 5483TIP3    H116455   0.637   3.102   2.285
 5483TIP3    H216456   0.740   3.088   2.396
 5484TIP3   OH216457   3.650   3.602   1.459
 5484TIP3    H116458   3.614   3.678   1.504
 5484TIP3    H216459   3.574   3.556   1.424
 5485TIP3   OH216460   5.497   1.967   3.187
 5485TIP3    H116461   5.571   1.944   3.132
 5485TIP3    H216462   5.488   2.062   3.177
 5486TIP3   OH216463   5.982   4.281   4.159
 5486TIP3    H116464   5.932   4.301   4.239
 5486TIP3    H216465   6.068   4.321   4.174
 5487TIP3   OH216466   2.258   0.924   1.604
 5487TIP3    H116467   2.274   1.012   1.571
 5487TIP3    H216468   2.247   0.935   1.698
 5488TIP3   OH216469   4.442   4.735   4.827
 5488TIP3    H116470   4.439   4.798   4.755
 5488TIP3    H216471   4.534   4.728   4.849
 5489TIP3   OH216472   3.027   0.825   2.904
 5489TIP3    H116473   3.044   0.895   2.841
 5489TIP3    H216474   2.972   0.763   2.856
 5490TIP3   OH216475   3.039   3.658   4.902
 5490TIP3    H116476   2.957   3.687   4.940
 5490TIP3    H216477   3.095   3.640   4.978
 5491TIP3   OH216478   6.125   4.253   2.129
 5491TIP3    H116479   6.156   4.323   2.187
 5491TIP3    H216480   6.155   4.173   2.171
 5492TIP3   OH216481   4.945   0.930   4.971
 5492TIP3    H116482   4.982   0.916   4.884
 5492TIP3    H216483   5.020   0.955   5.025
 5493TIP3   OH216484   4.888   3.440   2.569
 5493TIP3    H116485   4.859   3.387   2.494
 5493TIP3    H216486   4.811   3.489   2.595
 5494TIP3   OH216487   5.710   4.796   3.352
 5494TIP3    H116488   5.762   4.788   3.272
 5494TIP3    H216489   5.771   4.777   3.423
 5495TIP3   OH216490   4.957   2.020   2.653
 5495TIP3    H116491   5.010   2.093   2.686
 5495TIP3    H216492   4.866   2.050   2.665
 5496TIP3   OH216493   3.955   1.395   5.166
 5496TIP3    H116494   3.974   1.340   5.242
 5496TIP3    H216495   3.866   1.372   5.142
 5497TIP3   OH216496   6.358   5.644   0.063
 5497TIP3    H116497   6.417   5.636   0.137
 5497TIP3    H216498   6.399   5.592  -0.006
 5498TIP3   OH216499   0.312   1.953   3.279
 5498TIP3    H116500   0.383   1.999   3.324
 5498TIP3    H216501   0.351   1.871   3.250
 5499TIP3   OH216502   5.841   3.101   1.262
 5499TIP3    H116503   5.908   3.067   1.321
 5499TIP3    H216504   5.810   3.024   1.214
 5500TIP3   OH216505   4.810   4.855   4.378
 5500TIP3    H116506   4.852   4.808   4.449
 5500TIP3    H216507   4.833   4.806   4.299
 5501TIP3   OH216508   5.227   3.634   0.927
 5501TIP3    H116509   5.319   3.651   0.946
 5501TIP3    H216510   5.224   3.544   0.896
 5502TIP3   OH216511   5.719   1.864   0.279
 5502TIP3    H116512   5.688   1.774   0.278
 5502TIP3    H216513   5.735   1.886   0.187
 5503TIP3   OH216514   1.287   2.837   5.173
 5503TIP3    H116515   1.333   2.839   5.089
 5503TIP3    H216516   1.280   2.929   5.199
 5504TIP3   OH216517   0.095   5.015   0.109
 5504TIP3    H116518   0.135   5.091   0.068
 5504TIP3    H216519   0.128   5.016   0.199
 5505TIP3   OH216520   0.479   3.557   4.230
 5505TIP3    H116521   0.497   3.512   4.147
 5505TIP3    H216522   0.484   3.489   4.296
 5506TIP3   OH216523   1.645   5.958   0.057
 5506TIP3    H116524   1.669   6.039   0.104
 5506TIP3    H216525   1.648   5.890   0.125
 5507TIP3   OH216526   4.855   3.571   2.929
 5507TIP3    H116527   4.894   3.586   3.016
 5507TIP3    H216528   4.900   3.633   2.872
 5508TIP3   OH216529   6.130   1.960   0.152
 5508TIP3    H116530   6.083   1.884   0.186
 5508TIP3    H216531   6.146   1.939   0.060
 5509TIP3   OH216532   5.162   5.286   3.280
 5509TIP3    H116533   5.166   5.254   3.370
 5509TIP3    H216534   5.133   5.210   3.229
 5510TIP3   OH216535   0.401   2.056   4.686
 5510TIP3    H116536   0.331   2.121   4.682
 5510TIP3    H216537   0.423   2.050   4.779
 5511TIP3   OH216538   5.301   5.854   2.203
 5511TIP3    H116539   5.239   5.896   2.142
 5511TIP3    H216540   5.251   5.782   2.242
 5512TIP3   OH216541   5.799   2.706   1.521
 5512TIP3    H116542   5.837   2.657   1.593
 5512TIP3    H216543   5.813   2.651   1.444
 5513TIP3   OH216544   2.504   0.585   2.984
 5513TIP3    H116545   2.534   0.657   3.039
 5513TIP3    H216546   2.444   0.627   2.921
 5514TIP3   OH216547   4.127   1.394   3.569
 5514TIP3    H116548   4.134   1.385   3.664
 5514TIP3    H216549   4.096   1.309   3.539
 5515TIP3   OH216550   0.649   3.408   4.847
 5515TIP3    H116551   0.664   3.493   4.804
 5515TIP3    H216552   0.597   3.428   4.924
 5516TIP3   OH216553   0.286   5.185   3.840
 5516TIP3    H116554   0.252   5.133   3.913
 5516TIP3    H216555   0.210   5.233   3.807
 5517TIP3   OH216556   3.609   0.073   1.736
 5517TIP3    H116557   3.554   0.065   1.658
 5517TIP3    H216558   3.562   0.132   1.793
 5518TIP3   OH216559   3.765   4.682   4.051
 5518TIP3    H116560   3.753   4.615   4.119
 5518TIP3    H216561   3.858   4.674   4.027
 5519TIP3   OH216562   4.989   1.226   5.185
 5519TIP3    H116563   4.927   1.255   5.118
 5519TIP3    H216564   4.978   1.288   5.257
 5520TIP3   OH216565   6.196   5.413   2.957
 5520TIP3    H116566   6.146   5.418   2.876
 5520TIP3    H216567   6.134   5.380   3.022
 5521TIP3   OH216568   5.612   0.878   2.168
 5521TIP3    H116569   5.639   0.858   2.078
 5521TIP3    H216570   5.621   0.795   2.215
 5522TIP3   OH216571   1.331   5.351   1.597
 5522TIP3    H116572   1.347   5.445   1.611
 5522TIP3    H216573   1.240   5.338   1.622
 5523TIP3   OH216574   3.981   0.386   3.543
 5523TIP3    H116575   3.929   0.421   3.615
 5523TIP3    H216576   3.952   0.435   3.466
 5524TIP3   OH216577   5.354   1.038   3.815
 5524TIP3    H116578   5.373   1.122   3.773
 5524TIP3    H216579   5.261   1.024   3.799
 5525TIP3   OH216580   3.462   0.255   1.911
 5525TIP3    H116581   3.476   0.232   2.003
 5525TIP3    H216582   3.368   0.272   1.904
 5526TIP3   OH216583   6.258   1.302   4.420
 5526TIP3    H116584   6.255   1.267   4.331
 5526TIP3    H216585   6.351   1.303   4.443
 5527TIP3   OH216586   2.497   0.013   1.780
 5527TIP3    H116587   2.502   0.005   1.875
 5527TIP3    H216588   2.519  -0.074   1.747
 5528TIP3   OH216589   1.860   5.858   2.899
 5528TIP3    H116590   1.815   5.912   2.964
 5528TIP3    H216591   1.846   5.768   2.928
 5529TIP3   OH216592   5.311   4.731   1.080
 5529TIP3    H116593   5.366   4.705   1.154
 5529TIP3    H216594   5.221   4.722   1.112
 5530TIP3   OH216595   2.168   4.887   2.379
 5530TIP3    H116596   2.198   4.831   2.307
 5530TIP3    H216597   2.142   4.825   2.447
 5531TIP3   OH216598   2.772   1.136   4.653
 5531TIP3    H116599   2.797   1.061   4.707
 5531TIP3    H216600   2.686   1.162   4.688
 5532TIP3   OH216601   5.165   1.734   4.122
 5532TIP3    H116602   5.118   1.802   4.170
 5532TIP3    H216603   5.138   1.652   4.165
 5533TIP3   OH216604   5.352   3.647   0.612
 5533TIP3    H116605   5.390   3.569   0.652
 5533TIP3    H216606   5.260   3.646   0.640
 5534TIP3   OH216607   2.199   4.715   2.104
 5534TIP3    H116608   2.170   4.637   2.150
 5534TIP3    H216609   2.119   4.765   2.087
 5535TIP3   OH216610   2.875   1.576   1.430
 5535TIP3    H116611   2.904   1.615   1.347
 5535TIP3    H216612   2.896   1.483   1.421
 5536TIP3   OH216613   4.086   1.868   2.270
 5536TIP3    H116614   4.005   1.875   2.220
 5536TIP3    H216615   4.128   1.789   2.237
 5537TIP3   OH216616   4.006   3.744   0.195
 5537TIP3    H116617   4.028   3.665   0.147
 5537TIP3    H216618   3.933   3.718   0.252
 5538TIP3   OH216619   1.700   1.462   3.466
 5538TIP3    H116620   1.774   1.511   3.503
 5538TIP3    H216621   1.714   1.466   3.372
 5539TIP3   OH216622   2.654   4.409   4.901
 5539TIP3    H116623   2.729   4.378   4.850
 5539TIP3    H216624   2.605   4.465   4.841
 5540TIP3   OH216625   2.827   5.385   2.407
 5540TIP3    H116626   2.906   5.404   2.356
 5540TIP3    H216627   2.827   5.290   2.417
 5541TIP3   OH216628   5.436   3.692   0.251
 5541TIP3    H116629   5.427   3.596   0.256
 5541TIP3    H216630   5.359   3.720   0.201
 5542TIP3   OH216631   1.289   4.614   2.858
 5542TIP3    H116632   1.309   4.616   2.765
 5542TIP3    H216633   1.369   4.579   2.899
 5543TIP3   OH216634   3.553   1.533   4.455
 5543TIP3    H116635   3.531   1.537   4.362
 5543TIP3    H216636   3.625   1.470   4.460
 5544TIP3   OH216637   1.453   3.706   3.339
 5544TIP3    H116638   1.376   3.700   3.396
 5544TIP3    H216639   1.515   3.643   3.376
 5545TIP3   OH216640   5.036   5.015   1.260
 5545TIP3    H116641   5.030   4.926   1.225
 5545TIP3    H216642   4.969   5.064   1.212
 5546TIP3   OH216643   0.176  -0.002   1.365
 5546TIP3    H116644   0.271  -0.003   1.355
 5546TIP3    H216645   0.147   0.068   1.307
 5547TIP3   OH216646   5.031   2.537   5.040
 5547TIP3    H116647   5.002   2.597   4.971
 5547TIP3    H216648   5.125   2.554   5.049
 5548TIP3   OH216649   4.510   4.567   1.335
 5548TIP3    H116650   4.463   4.598   1.258
 5548TIP3    H216651   4.504   4.472   1.331
 5549TIP3   OH216652   4.382   2.006   0.518
 5549TIP3    H116653   4.469   2.026   0.484
 5549TIP3    H216654   4.356   1.927   0.471
 5550TIP3   OH216655   1.497   2.813   2.574
 5550TIP3    H116656   1.424   2.783   2.520
 5550TIP3    H216657   1.569   2.753   2.552
 5551TIP3   OH216658   3.320   2.562   2.688
 5551TIP3    H116659   3.362   2.477   2.698
 5551TIP3    H216660   3.310   2.594   2.778
 5552TIP3   OH216661   6.291   3.297   3.713
 5552TIP3    H116662   6.214   3.292   3.656
 5552TIP3    H216663   6.290   3.215   3.762
 5553TIP3   OH216664   3.087   4.774   0.429
 5553TIP3    H116665   3.071   4.798   0.338
 5553TIP3    H216666   3.055   4.684   0.437
 5554TIP3   OH216667   4.336   1.199   5.004
 5554TIP3    H116668   4.328   1.292   4.981
 5554TIP3    H216669   4.319   1.196   5.098
 5555TIP3   OH216670   1.035   5.452   1.604
 5555TIP3    H116671   1.043   5.485   1.514
 5555TIP3    H216672   0.950   5.408   1.605
 5556TIP3   OH216673   0.418   1.146   4.527
 5556TIP3    H116674   0.441   1.058   4.497
 5556TIP3    H216675   0.501   1.185   4.555
 5557TIP3   OH216676   4.797   3.071   3.707
 5557TIP3    H116677   4.820   3.079   3.799
 5557TIP3    H216678   4.705   3.096   3.702
 5558TIP3   OH216679   3.581   5.772   2.104
 5558TIP3    H116680   3.644   5.831   2.146
 5558TIP3    H216681   3.511   5.761   2.168
 5559TIP3   OH216682   5.760   5.922   3.691
 5559TIP3    H116683   5.799   5.865   3.625
 5559TIP3    H216684   5.821   5.919   3.765
 5560TIP3   OH216685   5.688   3.334   0.740
 5560TIP3    H116686   5.702   3.332   0.645
 5560TIP3    H216687   5.743   3.406   0.771
 5561TIP3   OH216688   1.823   3.858   4.886
 5561TIP3    H116689   1.762   3.919   4.845
 5561TIP3    H216690   1.782   3.837   4.970
 5562TIP3   OH216691   2.426   4.014   2.447
 5562TIP3    H116692   2.405   3.924   2.471
 5562TIP3    H216693   2.377   4.030   2.366
 5563TIP3   OH216694   3.890   0.621   1.104
 5563TIP3    H116695   3.798   0.594   1.099
 5563TIP3    H216696   3.931   0.558   1.162
 5564TIP3   OH216697   4.692   4.562   4.007
 5564TIP3    H116698   4.653   4.498   4.066
 5564TIP3    H216699   4.737   4.624   4.065
 5565TIP3   OH216700   3.529   4.297   3.113
 5565TIP3    H116701   3.527   4.230   3.181
 5565TIP3    H216702   3.480   4.258   3.040
 5566TIP3   OH216703   3.440   4.247   2.259
 5566TIP3    H116704   3.527   4.241   2.297
 5566TIP3    H216705   3.403   4.327   2.295
 5567TIP3   OH216706   3.408   4.001   2.715
 5567TIP3    H116707   3.394   4.053   2.636
 5567TIP3    H216708   3.501   4.013   2.735
 5568TIP3   OH216709   0.915   1.059   5.019
 5568TIP3    H116710   0.881   0.990   5.076
 5568TIP3    H216711   0.913   1.138   5.072
 5569TIP3   OH216712   4.094   1.850   1.421
 5569TIP3    H116713   4.079   1.873   1.512
 5569TIP3    H216714   4.099   1.755   1.420
 5570TIP3   OH216715   2.507   4.857   1.284
 5570TIP3    H116716   2.530   4.858   1.191
 5570TIP3    H216717   2.584   4.893   1.327
 5571TIP3   OH216718   2.073   2.361   3.175
 5571TIP3    H116719   2.059   2.299   3.104
 5571TIP3    H216720   2.107   2.440   3.132
 5572TIP3   OH216721   5.378   4.135   5.098
 5572TIP3    H116722   5.317   4.161   5.167
 5572TIP3    H216723   5.403   4.045   5.119
 5573TIP3   OH216724   0.448   2.258   1.095
 5573TIP3    H116725   0.399   2.177   1.085
 5573TIP3    H216726   0.506   2.243   1.170
 5574TIP3   OH216727   2.376   2.739   2.426
 5574TIP3    H116728   2.347   2.675   2.491
 5574TIP3    H216729   2.322   2.816   2.442
 5575TIP3   OH216730   3.107   3.741   2.901
 5575TIP3    H116731   3.071   3.768   2.817
 5575TIP3    H216732   3.201   3.736   2.887
 5576TIP3   OH216733   1.602   4.462   0.007
 5576TIP3    H116734   1.529   4.449  -0.053
 5576TIP3    H216735   1.628   4.553  -0.007
 5577TIP3   OH216736   6.235   4.741   4.482
 5577TIP3    H116737   6.226   4.793   4.402
 5577TIP3    H216738   6.221   4.650   4.453
 5578TIP3   OH216739   1.060   4.853   1.886
 5578TIP3    H116740   1.105   4.830   1.805
 5578TIP3    H216741   0.976   4.807   1.882
 5579TIP3   OH216742   5.828   4.846   2.656
 5579TIP3    H116743   5.809   4.816   2.567
 5579TIP3    H216744   5.921   4.829   2.669
 5580TIP3   OH216745   2.116   0.790   1.378
 5580TIP3    H116746   2.193   0.762   1.427
 5580TIP3    H216747   2.089   0.871   1.422
 5581TIP3   OH216748   0.392   1.544   2.210
 5581TIP3    H116749   0.326   1.594   2.163
 5581TIP3    H216750   0.359   1.454   2.210
 5582TIP3   OH216751   3.203   1.429   2.417
 5582TIP3    H116752   3.268   1.429   2.487
 5582TIP3    H216753   3.230   1.358   2.359
 5583TIP3   OH216754   5.630   4.417   0.549
 5583TIP3    H116755   5.675   4.429   0.465
 5583TIP3    H216756   5.614   4.323   0.554
 5584TIP3   OH216757   3.647   2.474   1.018
 5584TIP3    H116758   3.604   2.389   1.025
 5584TIP3    H216759   3.686   2.475   0.931
 5585TIP3   OH216760   6.073   0.609   0.373
 5585TIP3    H116761   6.084   0.570   0.286
 5585TIP3    H216762   6.016   0.547   0.419
 5586TIP3   OH216763   4.816   0.017   4.522
 5586TIP3    H116764   4.782  -0.023   4.603
 5586TIP3    H216765   4.806  -0.052   4.456
 5587TIP3   OH216766   1.402   2.640   1.151
 5587TIP3    H116767   1.482   2.664   1.106
 5587TIP3    H216768   1.356   2.722   1.165
 5588TIP3   OH216769   0.841   3.743   3.318
 5588TIP3    H116770   0.791   3.705   3.390
 5588TIP3    H216771   0.933   3.732   3.344
 5589TIP3   OH216772   0.623   4.486   2.725
 5589TIP3    H116773   0.553   4.420   2.724
 5589TIP3    H216774   0.703   4.435   2.719
 5590TIP3   OH216775   3.090   3.310   2.982
 5590TIP3    H116776   3.024   3.244   2.961
 5590TIP3    H216777   3.039   3.385   3.015
 5591TIP3   OH216778   1.509   4.564   4.588
 5591TIP3    H116779   1.526   4.611   4.506
 5591TIP3    H216780   1.414   4.561   4.594
 5592TIP3   OH216781   3.693   0.597   2.250
 5592TIP3    H116782   3.656   0.581   2.163
 5592TIP3    H216783   3.619   0.586   2.310
 5593TIP3   OH216784   0.059   0.643   3.494
 5593TIP3    H116785   0.017   0.667   3.577
 5593TIP3    H216786   0.050   0.721   3.439
 5594TIP3   OH216787   0.493   4.256   5.058
 5594TIP3    H116788   0.421   4.211   5.102
 5594TIP3    H216789   0.527   4.193   4.995
 5595TIP3   OH216790   6.159   1.257   4.928
 5595TIP3    H116791   6.119   1.175   4.902
 5595TIP3    H216792   6.251   1.249   4.901
 5596TIP3   OH216793   4.845   1.959   1.034
 5596TIP3    H116794   4.797   1.876   1.031
 5596TIP3    H216795   4.929   1.939   0.994
 5597TIP3   OH216796   5.993   0.221   3.637
 5597TIP3    H116797   5.951   0.285   3.579
 5597TIP3    H216798   5.986   0.138   3.591
 5598TIP3   OH216799   3.968   4.332   4.173
 5598TIP3    H116800   3.991   4.358   4.262
 5598TIP3    H216801   3.983   4.411   4.121
 5599TIP3   OH216802   5.009   1.760   2.951
 5599TIP3    H116803   4.941   1.825   2.936
 5599TIP3    H216804   5.084   1.811   2.982
 5600TIP3   OH216805   1.821   3.932   1.438
 5600TIP3    H116806   1.892   3.985   1.473
 5600TIP3    H216807   1.820   3.953   1.345
 5601TIP3   OH216808   5.291   3.356   1.026
 5601TIP3    H116809   5.352   3.314   1.087
 5601TIP3    H216810   5.262   3.284   0.969
 5602TIP3   OH216811   4.086   4.860   1.147
 5602TIP3    H116812   4.075   4.773   1.109
 5602TIP3    H216813   4.018   4.865   1.215
 5603TIP3   OH216814   2.550   4.916   3.249
 5603TIP3    H116815   2.627   4.859   3.260
 5603TIP3    H216816   2.502   4.909   3.331
 5604TIP3   OH216817   2.142   0.649   2.659
 5604TIP3    H116818   2.104   0.625   2.574
 5604TIP3    H216819   2.099   0.590   2.722
 5605TIP3   OH216820   1.530   1.040   0.911
 5605TIP3    H116821   1.524   1.000   0.824
 5605TIP3    H216822   1.544   1.133   0.894
 5606TIP3   OH216823   2.624   1.772   2.188
 5606TIP3    H116824   2.674   1.693   2.167
 5606TIP3    H216825   2.562   1.780   2.115
 5607TIP3   OH216826   1.328   5.393   0.732
 5607TIP3    H116827   1.316   5.332   0.805
 5607TIP3    H216828   1.423   5.406   0.727
 5608TIP3   OH216829   1.611   4.686   4.358
 5608TIP3    H116830   1.670   4.760   4.366
 5608TIP3    H216831   1.665   4.616   4.322
 5609TIP3   OH216832   3.398   1.762   4.444
 5609TIP3    H116833   3.343   1.755   4.522
 5609TIP3    H216834   3.442   1.677   4.438
 5610TIP3   OH216835   2.680   4.015   0.372
 5610TIP3    H116836   2.678   3.935   0.321
 5610TIP3    H216837   2.647   3.990   0.458
 5611TIP3   OH216838   2.574   2.132   4.520
 5611TIP3    H116839   2.568   2.208   4.462
 5611TIP3    H216840   2.668   2.125   4.540
 5612TIP3   OH216841   1.412   3.786   4.081
 5612TIP3    H116842   1.374   3.714   4.131
 5612TIP3    H216843   1.364   3.864   4.108
 5613TIP3   OH216844   5.007   3.206   1.270
 5613TIP3    H116845   4.989   3.225   1.362
 5613TIP3    H216846   4.957   3.271   1.222
 5614TIP3   OH216847   1.078   1.426   4.181
 5614TIP3    H116848   1.148   1.400   4.122
 5614TIP3    H216849   1.000   1.381   4.148
 5615TIP3   OH216850   1.382   2.570   3.049
 5615TIP3    H116851   1.347   2.617   3.125
 5615TIP3    H216852   1.408   2.639   2.988
 5616TIP3   OH216853   0.623   2.103   3.701
 5616TIP3    H116854   0.547   2.147   3.739
 5616TIP3    H216855   0.678   2.079   3.776
 5617TIP3   OH216856   5.110   2.198   0.553
 5617TIP3    H116857   5.125   2.164   0.465
 5617TIP3    H216858   5.195   2.233   0.580
 5618TIP3   OH216859   6.350   1.399   0.278
 5618TIP3    H116860   6.285   1.329   0.274
 5618TIP3    H216861   6.424   1.366   0.226
 5619TIP3   OH216862   4.587   2.541   2.474
 5619TIP3    H116863   4.578   2.636   2.489
 5619TIP3    H216864   4.614   2.534   2.382
 5620TIP3   OH216865   5.379   4.345   3.261
 5620TIP3    H116866   5.374   4.265   3.208
 5620TIP3    H216867   5.472   4.356   3.279
 5621TIP3   OH216868   6.028   3.236   4.624
 5621TIP3    H116869   5.942   3.231   4.583
 5621TIP3    H216870   6.083   3.279   4.559
 5622TIP3   OH216871   3.670   2.277   4.748
 5622TIP3    H116872   3.691   2.226   4.670
 5622TIP3    H216873   3.754   2.287   4.793
 5623TIP3   OH216874   2.483   2.030   2.519
 5623TIP3    H116875   2.543   2.081   2.465
 5623TIP3    H216876   2.508   2.050   2.609
 5624TIP3   OH216877   2.053   3.297   4.830
 5624TIP3    H116878   2.054   3.275   4.737
 5624TIP3    H216879   2.145   3.317   4.850
 5625TIP3   OH216880   3.701   5.129   4.870
 5625TIP3    H116881   3.691   5.163   4.781
 5625TIP3    H216882   3.618   5.086   4.888
 5626TIP3   OH216883   4.288   5.271   0.944
 5626TIP3    H116884   4.379   5.260   0.972
 5626TIP3    H216885   4.248   5.184   0.955
 5627TIP3   OH216886   2.506   2.442   0.310
 5627TIP3    H116887   2.545   2.374   0.253
 5627TIP3    H216888   2.545   2.426   0.396
 5628TIP3   OH216889   0.601   3.766   0.736
 5628TIP3    H116890   0.623   3.799   0.649
 5628TIP3    H216891   0.635   3.677   0.738
 5629TIP3   OH216892   3.489   2.703   1.240
 5629TIP3    H116893   3.527   2.616   1.229
 5629TIP3    H216894   3.502   2.723   1.333
 5630TIP3   OH216895   1.683   3.373   0.358
 5630TIP3    H116896   1.592   3.365   0.328
 5630TIP3    H216897   1.697   3.468   0.366
 5631TIP3   OH216898   2.642   3.561   5.044
 5631TIP3    H116899   2.675   3.479   5.080
 5631TIP3    H216900   2.547   3.556   5.056
 5632TIP3   OH216901   5.950   3.295   1.091
 5632TIP3    H116902   5.903   3.229   1.141
 5632TIP3    H216903   5.897   3.375   1.101
 5633TIP3   OH216904   0.759   2.817   4.317
 5633TIP3    H116905   0.676   2.852   4.350
 5633TIP3    H216906   0.819   2.892   4.320
 5634TIP3   OH216907   1.056   2.712   5.114
 5634TIP3    H116908   1.057   2.742   5.023
 5634TIP3    H216909   1.148   2.704   5.138
 5635TIP3   OH216910   4.485   1.714   2.111
 5635TIP3    H116911   4.423   1.728   2.040
 5635TIP3    H216912   4.544   1.789   2.107
 5636TIP3   OH216913   3.607   1.718   3.158
 5636TIP3    H116914   3.587   1.804   3.120
 5636TIP3    H216915   3.696   1.700   3.128
 5637TIP3   OH216916   0.266   1.522   3.598
 5637TIP3    H116917   0.325   1.591   3.628
 5637TIP3    H216918   0.217   1.562   3.527
 5638TIP3   OH216919   0.050   0.408   3.768
 5638TIP3    H116920  -0.037   0.367   3.775
 5638TIP3    H216921   0.032   0.497   3.739
 5639TIP3   OH216922   5.933   3.933   0.742
 5639TIP3    H116923   5.869   4.004   0.730
 5639TIP3    H216924   6.000   3.950   0.676
 5640TIP3   OH216925   0.450   1.726   4.026
 5640TIP3    H116926   0.502   1.768   3.957
 5640TIP3    H216927   0.480   1.767   4.107
 5641TIP3   OH216928   6.197   4.165   0.668
 5641TIP3    H116929   6.111   4.198   0.640
 5641TIP3    H216930   6.210   4.202   0.755
 5642TIP3   OH216931   0.546   1.870   0.330
 5642TIP3    H116932   0.532   1.958   0.366
 5642TIP3    H216933   0.627   1.840   0.371
 5643TIP3   OH216934   5.679   5.651   0.007
 5643TIP3    H116935   5.678   5.598  -0.072
 5643TIP3    H216936   5.674   5.587   0.079
 5644TIP3   OH216937   3.506   5.517   3.082
 5644TIP3    H116938   3.472   5.451   3.021
 5644TIP3    H216939   3.439   5.585   3.083
 5645TIP3   OH216940   2.363   4.442   3.706
 5645TIP3    H116941   2.414   4.388   3.767
 5645TIP3    H216942   2.351   4.525   3.753
 5646TIP3   OH216943   4.402   5.350   2.802
 5646TIP3    H116944   4.352   5.288   2.750
 5646TIP3    H216945   4.479   5.370   2.748
 5647TIP3   OH216946   3.287   1.140   0.402
 5647TIP3    H116947   3.301   1.047   0.386
 5647TIP3    H216948   3.361   1.183   0.360
 5648TIP3   OH216949   5.323   2.921   3.612
 5648TIP3    H116950   5.285   2.968   3.538
 5648TIP3    H216951   5.413   2.903   3.585
 5649TIP3   OH216952   0.985   0.850   2.453
 5649TIP3    H116953   1.062   0.889   2.412
 5649TIP3    H216954   0.975   0.765   2.410
 5650TIP3   OH216955   6.173   0.695   5.188
 5650TIP3    H116956   6.156   0.649   5.105
 5650TIP3    H216957   6.128   0.779   5.178
 5651TIP3   OH216958   2.668   3.743   0.943
 5651TIP3    H116959   2.672   3.802   0.868
 5651TIP3    H216960   2.577   3.748   0.973
 5652TIP3   OH216961   2.065   2.087   2.651
 5652TIP3    H116962   2.010   2.155   2.612
 5652TIP3    H216963   2.004   2.028   2.695
 5653TIP3   OH216964   6.156   3.139   0.052
 5653TIP3    H116965   6.189   3.129   0.142
 5653TIP3    H216966   6.110   3.224   0.053
 5654TIP3   OH216967   1.222   3.029   2.694
 5654TIP3    H116968   1.146   3.033   2.752
 5654TIP3    H216969   1.190   2.988   2.614
 5655TIP3   OH216970   6.253   5.672   3.949
 5655TIP3    H116971   6.269   5.635   3.862
 5655TIP3    H216972   6.181   5.733   3.936
 5656TIP3   OH216973   3.174   2.427   4.152
 5656TIP3    H116974   3.200   2.453   4.064
 5656TIP3    H216975   3.248   2.454   4.208
 5657TIP3   OH216976   1.580   1.557   0.894
 5657TIP3    H116977   1.582   1.576   0.801
 5657TIP3    H216978   1.598   1.641   0.936
 5658TIP3   OH216979   2.327   1.838   3.541
 5658TIP3    H116980   2.235   1.861   3.555
 5658TIP3    H216981   2.374   1.889   3.607
 5659TIP3   OH216982   0.704   5.322   0.553
 5659TIP3    H116983   0.736   5.277   0.630
 5659TIP3    H216984   0.782   5.338   0.500
 5660TIP3   OH216985   4.560   0.109   1.218
 5660TIP3    H116986   4.573   0.202   1.201
 5660TIP3    H216987   4.559   0.069   1.131
 5661TIP3   OH216988   0.950   5.773   1.326
 5661TIP3    H116989   0.977   5.852   1.372
 5661TIP3    H216990   0.860   5.757   1.355
 5662TIP3   OH216991   0.751   2.894   4.942
 5662TIP3    H116992   0.733   2.884   5.036
 5662TIP3    H216993   0.830   2.842   4.928
 5663TIP3   OH216994   5.441   0.843   1.043
 5663TIP3    H116995   5.508   0.905   1.016
 5663TIP3    H216996   5.401   0.883   1.121
 5664TIP3   OH216997   5.339   3.813   2.787
 5664TIP3    H116998   5.424   3.854   2.805
 5664TIP3    H216999   5.298   3.873   2.724
 5665TIP3   OH217000   2.919   5.077   0.956
 5665TIP3    H117001   2.892   5.022   1.029
 5665TIP3    H217002   2.963   5.151   0.996
 5666TIP3   OH217003   0.943   2.975   3.822
 5666TIP3    H117004   0.899   2.892   3.803
 5666TIP3    H217005   1.030   2.966   3.782
 5667TIP3   OH217006   4.277   1.003   2.262
 5667TIP3    H117007   4.186   1.021   2.240
 5667TIP3    H217008   4.312   0.958   2.185
 5668TIP3   OH217009   5.505   1.863   3.446
 5668TIP3    H117010   5.443   1.915   3.497
 5668TIP3    H217011   5.486   1.886   3.355
 5669TIP3   OH217012   3.601   1.957   0.961
 5669TIP3    H117013   3.691   1.939   0.991
 5669TIP3    H217014   3.558   1.871   0.962
 5670TIP3   OH217015   4.564   0.126   2.977
 5670TIP3    H117016   4.572   0.034   3.002
 5670TIP3    H217017   4.554   0.173   3.060
 5671TIP3   OH217018   4.506   4.729   3.817
 5671TIP3    H117019   4.574   4.688   3.871
 5671TIP3    H217020   4.428   4.676   3.831
 5672TIP3   OH217021   4.593   3.721   0.823
 5672TIP3    H117022   4.674   3.673   0.807
 5672TIP3    H217023   4.547   3.719   0.740
 5673TIP3   OH217024   0.956   1.665   2.712
 5673TIP3    H117025   0.943   1.571   2.729
 5673TIP3    H217026   0.889   1.687   2.648
 5674TIP3   OH217027   1.050   2.679   1.383
 5674TIP3    H117028   1.082   2.745   1.321
 5674TIP3    H217029   1.000   2.729   1.447
 5675TIP3   OH217030   0.994   0.712   3.966
 5675TIP3    H117031   1.087   0.728   3.977
 5675TIP3    H217032   0.955   0.737   4.050
 5676TIP3   OH217033   2.526   5.850   3.072
 5676TIP3    H117034   2.587   5.913   3.112
 5676TIP3    H217035   2.507   5.788   3.143
 5677TIP3   OH217036   6.077   2.248   4.326
 5677TIP3    H117037   6.009   2.314   4.342
 5677TIP3    H217038   6.082   2.243   4.230
 5678TIP3   OH217039   5.645   5.598   3.520
 5678TIP3    H117040   5.643   5.581   3.426
 5678TIP3    H217041   5.580   5.667   3.533
 5679TIP3   OH217042   4.811   5.191   0.836
 5679TIP3    H117043   4.813   5.286   0.825
 5679TIP3    H217044   4.726   5.173   0.876
 5680TIP3   OH217045   4.763   3.026   1.719
 5680TIP3    H117046   4.725   3.077   1.791
 5680TIP3    H217047   4.848   3.067   1.702
 5681TIP3   OH217048   1.398   4.912   3.757
 5681TIP3    H117049   1.451   4.990   3.741
 5681TIP3    H217050   1.389   4.871   3.671
 5682TIP3   OH217051   2.297   1.823   2.849
 5682TIP3    H117052   2.380   1.778   2.830
 5682TIP3    H217053   2.281   1.877   2.772
 5683TIP3   OH217054   1.101   4.385   3.648
 5683TIP3    H117055   1.142   4.380   3.734
 5683TIP3    H217056   1.010   4.360   3.664
 5684TIP3   OH217057   1.674   1.592   4.161
 5684TIP3    H117058   1.630   1.510   4.179
 5684TIP3    H217059   1.722   1.613   4.241
 5685TIP3   OH217060   4.699   1.961   3.742
 5685TIP3    H117061   4.669   2.046   3.707
 5685TIP3    H217062   4.740   1.918   3.667
 5686TIP3   OH217063   1.256   0.247   2.422
 5686TIP3    H117064   1.169   0.233   2.459
 5686TIP3    H217065   1.250   0.212   2.333
 5687TIP3   OH217066   5.723   1.656   3.373
 5687TIP3    H117067   5.764   1.674   3.457
 5687TIP3    H217068   5.717   1.741   3.330
 5688TIP3   OH217069   5.442   5.563   2.241
 5688TIP3    H117070   5.498   5.637   2.216
 5688TIP3    H217071   5.414   5.584   2.330
 5689TIP3   OH217072   3.021   3.961   5.187
 5689TIP3    H117073   2.935   3.928   5.160
 5689TIP3    H217074   3.059   3.889   5.237
 5690TIP3   OH217075   1.522   4.082   1.052
 5690TIP3    H117076   1.466   4.134   0.995
 5690TIP3    H217077   1.574   4.027   0.992
 5691TIP3   OH217078   6.120   1.743   3.171
 5691TIP3    H117079   6.137   1.664   3.121
 5691TIP3    H217080   6.027   1.761   3.157
 5692TIP3   OH217081   5.495   2.473   4.153
 5692TIP3    H117082   5.411   2.450   4.111
 5692TIP3    H217083   5.520   2.394   4.201
 5693TIP3   OH217084   2.109   5.560   4.865
 5693TIP3    H117085   2.147   5.543   4.952
 5693TIP3    H217086   2.030   5.505   4.862
 5694TIP3   OH217087   0.920   0.569   0.603
 5694TIP3    H117088   0.880   0.500   0.550
 5694TIP3    H217089   1.008   0.580   0.565
 5695TIP3   OH217090   5.540   0.079   1.267
 5695TIP3    H117091   5.454   0.115   1.246
 5695TIP3    H217092   5.572   0.132   1.340
 5696TIP3   OH217093   1.979   3.432   2.730
 5696TIP3    H117094   1.928   3.358   2.696
 5696TIP3    H217095   1.977   3.420   2.825
 5697TIP3   OH217096   4.575   0.818   3.248
 5697TIP3    H117097   4.664   0.827   3.214
 5697TIP3    H217098   4.563   0.723   3.259
 5698TIP3   OH217099   0.955   1.061   4.734
 5698TIP3    H117100   0.876   1.038   4.686
 5698TIP3    H217101   0.950   1.009   4.815
 5699TIP3   OH217102   3.527   1.419   3.841
 5699TIP3    H117103   3.450   1.405   3.895
 5699TIP3    H217104   3.598   1.376   3.889
 5700TIP3   OH217105   4.638   5.738   3.742
 5700TIP3    H117106   4.706   5.719   3.807
 5700TIP3    H217107   4.625   5.832   3.748
 5701TIP3   OH217108   3.058   1.607   3.005
 5701TIP3    H117109   3.096   1.553   2.936
 5701TIP3    H217110   2.963   1.602   2.990
 5702TIP3   OH217111   2.362   5.468   3.709
 5702TIP3    H117112   2.290   5.462   3.646
 5702TIP3    H217113   2.347   5.550   3.755
 5703TIP3   OH217114   4.056   1.820   4.426
 5703TIP3    H117115   4.037   1.913   4.412
 5703TIP3    H217116   4.012   1.776   4.353
 5704TIP3   OH217117   5.555   2.040   1.904
 5704TIP3    H117118   5.625   2.027   1.840
 5704TIP3    H217119   5.474   2.039   1.852
 5705TIP3   OH217120   0.090   4.687   4.667
 5705TIP3    H117121   0.165   4.629   4.679
 5705TIP3    H217122   0.099   4.721   4.578
 5706TIP3   OH217123   0.404   3.038   1.304
 5706TIP3    H117124   0.361   3.044   1.219
 5706TIP3    H217125   0.421   2.944   1.316
 5707TIP3   OH217126   4.292   2.609   4.123
 5707TIP3    H117127   4.379   2.650   4.123
 5707TIP3    H217128   4.256   2.630   4.210
 5708TIP3   OH217129   0.539   1.176   4.223
 5708TIP3    H117130   0.541   1.266   4.256
 5708TIP3    H217131   0.459   1.171   4.172
 5709TIP3   OH217132   4.787   0.473   4.189
 5709TIP3    H117133   4.813   0.413   4.119
 5709TIP3    H217134   4.785   0.418   4.267
 5710TIP3   OH217135   0.903   5.904   3.291
 5710TIP3    H117136   0.903   5.995   3.260
 5710TIP3    H217137   0.816   5.892   3.329
 5711TIP3   OH217138   1.213   5.711   3.665
 5711TIP3    H117139   1.142   5.774   3.655
 5711TIP3    H217140   1.190   5.662   3.745
 5712TIP3   OH217141   1.834   2.790   4.561
 5712TIP3    H117142   1.857   2.781   4.654
 5712TIP3    H217143   1.813   2.882   4.551
 5713TIP3   OH217144   3.122   5.843   2.846
 5713TIP3    H117145   3.063   5.880   2.780
 5713TIP3    H217146   3.166   5.919   2.883
 5714TIP3   OH217147   5.949   2.399   0.181
 5714TIP3    H117148   6.007   2.335   0.140
 5714TIP3    H217149   5.989   2.483   0.162
 5715TIP3   OH217150   1.778   3.547   3.251
 5715TIP3    H117151   1.858   3.599   3.245
 5715TIP3    H217152   1.717   3.603   3.299
 5716TIP3   OH217153   5.418   0.133   0.020
 5716TIP3    H117154   5.483   0.202   0.010
 5716TIP3    H217155   5.339   0.177   0.050
 5717TIP3   OH217156   3.399   4.795   2.257
 5717TIP3    H117157   3.311   4.757   2.251
 5717TIP3    H217158   3.458   4.720   2.259
 5718TIP3   OH217159   2.380   1.748   1.097
 5718TIP3    H117160   2.349   1.801   1.171
 5718TIP3    H217161   2.367   1.805   1.021
 5719TIP3   OH217162   5.013   4.623   2.513
 5719TIP3    H117163   5.086   4.564   2.494
 5719TIP3    H217164   5.050   4.711   2.504
 5720TIP3   OH217165   5.492   5.521   1.324
 5720TIP3    H117166   5.583   5.514   1.351
 5720TIP3    H217167   5.455   5.590   1.379
 5721TIP3   OH217168   1.124   5.332   1.830
 5721TIP3    H117169   1.108   5.387   1.754
 5721TIP3    H217170   1.212   5.355   1.859
 5722TIP3   OH217171   3.238   1.519   4.274
 5722TIP3    H117172   3.222   1.613   4.263
 5722TIP3    H217173   3.327   1.507   4.241
 5723TIP3   OH217174   5.438   1.394   4.715
 5723TIP3    H117175   5.505   1.446   4.671
 5723TIP3    H217176   5.487   1.330   4.767
 5724TIP3   OH217177   1.942   0.067   4.365
 5724TIP3    H117178   1.964  -0.006   4.306
 5724TIP3    H217179   2.022   0.082   4.415
 5725TIP3   OH217180   4.106   1.046   2.862
 5725TIP3    H117181   4.129   0.996   2.784
 5725TIP3    H217182   4.190   1.065   2.904
 5726TIP3   OH217183   1.737   3.591   0.149
 5726TIP3    H117184   1.780   3.653   0.090
 5726TIP3    H217185   1.758   3.505   0.113
 5727TIP3   OH217186   5.164   2.435   2.099
 5727TIP3    H117187   5.170   2.388   2.182
 5727TIP3    H217188   5.119   2.374   2.041
 5728TIP3   OH217189   0.355   5.113   3.074
 5728TIP3    H117190   0.325   5.039   3.023
 5728TIP3    H217191   0.450   5.101   3.080
 5729TIP3   OH217192   2.887   3.367   4.867
 5729TIP3    H117193   2.953   3.398   4.805
 5729TIP3    H217194   2.921   3.391   4.953
 5730TIP3   OH217195   0.499   0.170   1.832
 5730TIP3    H117196   0.457   0.114   1.767
 5730TIP3    H217197   0.571   0.211   1.784
 5731TIP3   OH217198   6.316   1.953   0.990
 5731TIP3    H117199   6.246   1.927   1.050
 5731TIP3    H217200   6.313   2.048   0.990
 5732TIP3   OH217201   4.062   4.563   1.090
 5732TIP3    H117202   4.047   4.539   1.181
 5732TIP3    H217203   3.996   4.513   1.041
 5733TIP3   OH217204   1.496   1.858   3.712
 5733TIP3    H117205   1.449   1.938   3.687
 5733TIP3    H217206   1.456   1.832   3.794
 5734TIP3   OH217207   0.374   5.561   4.587
 5734TIP3    H117208   0.376   5.585   4.494
 5734TIP3    H217209   0.368   5.466   4.587
 5735TIP3   OH217210   2.042   4.190   0.074
 5735TIP3    H117211   2.015   4.145   0.154
 5735TIP3    H217212   1.963   4.238   0.047
 5736TIP3   OH217213   4.304   4.483   1.903
 5736TIP3    H117214   4.336   4.428   1.831
 5736TIP3    H217215   4.292   4.569   1.865
 5737TIP3   OH217216   4.091   4.533   3.335
 5737TIP3    H117217   4.004   4.572   3.344
 5737TIP3    H217218   4.079   4.463   3.270
 5738TIP3   OH217219   2.988   3.286   3.417
 5738TIP3    H117220   3.043   3.363   3.430
 5738TIP3    H217221   2.914   3.318   3.365
 5739TIP3   OH217222   3.017   4.056   2.773
 5739TIP3    H117223   3.083   4.053   2.703
 5739TIP3    H217224   3.056   4.111   2.841
 5740TIP3   OH217225   5.412   4.839   4.981
 5740TIP3    H117226   5.491   4.888   5.002
 5740TIP3    H217227   5.401   4.849   4.887
 5741TIP3   OH217228   4.251   3.762   2.400
 5741TIP3    H117229   4.287   3.811   2.475
 5741TIP3    H217230   4.288   3.807   2.324
 5742TIP3   OH217231   2.450   3.433   4.625
 5742TIP3    H117232   2.461   3.345   4.660
 5742TIP3    H217233   2.445   3.422   4.530
 5743TIP3   OH217234   4.781   0.796   3.696
 5743TIP3    H117235   4.757   0.704   3.706
 5743TIP3    H217236   4.701   0.844   3.719
 5744TIP3   OH217237   2.441   3.425   5.170
 5744TIP3    H117238   2.365   3.482   5.158
 5744TIP3    H217239   2.414   3.362   5.237
 5745TIP3   OH217240   3.928   3.698   2.081
 5745TIP3    H117241   4.014   3.693   2.040
 5745TIP3    H217242   3.868   3.721   2.010
 5746TIP3   OH217243   4.344   0.646   1.319
 5746TIP3    H117244   4.402   0.712   1.358
 5746TIP3    H217245   4.313   0.595   1.393
 5747TIP3   OH217246   3.931   5.570   0.931
 5747TIP3    H117247   3.901   5.610   1.012
 5747TIP3    H217248   4.006   5.518   0.956
 5748TIP3   OH217249   4.485   1.182   2.105
 5748TIP3    H117250   4.444   1.239   2.171
 5748TIP3    H217251   4.510   1.242   2.035
 5749TIP3   OH217252   5.759   3.990   4.364
 5749TIP3    H117253   5.703   4.022   4.435
 5749TIP3    H217254   5.848   3.999   4.397
 5750TIP3   OH217255   3.433   2.478   3.636
 5750TIP3    H117256   3.429   2.493   3.541
 5750TIP3    H217257   3.526   2.474   3.656
 5751TIP3   OH217258   0.410   3.628   4.515
 5751TIP3    H117259   0.362   3.615   4.433
 5751TIP3    H217260   0.362   3.697   4.560
 5752TIP3   OH217261   2.683   3.206   4.966
 5752TIP3    H117262   2.625   3.180   4.894
 5752TIP3    H217263   2.735   3.278   4.931
 5753TIP3   OH217264   6.182   2.246   0.135
 5753TIP3    H117265   6.181   2.284   0.223
 5753TIP3    H217266   6.180   2.151   0.150
 5754TIP3   OH217267   5.488   5.933   0.150
 5754TIP3    H117268   5.453   5.898   0.069
 5754TIP3    H217269   5.582   5.945   0.133
 5755TIP3   OH217270   1.191   2.249   4.325
 5755TIP3    H117271   1.152   2.241   4.411
 5755TIP3    H217272   1.128   2.209   4.265
 5756TIP3   OH217273   0.545   3.197   0.585
 5756TIP3    H117274   0.529   3.278   0.537
 5756TIP3    H217275   0.622   3.216   0.639
 5757TIP3   OH217276   0.930   3.124   2.447
 5757TIP3    H117277   0.984   3.052   2.415
 5757TIP3    H217278   0.993   3.193   2.471
 5758TIP3   OH217279   4.351   0.106   1.883
 5758TIP3    H117280   4.329   0.036   1.946
 5758TIP3    H217281   4.325   0.071   1.798
 5759TIP3   OH217282   6.180   4.462   0.661
 5759TIP3    H117283   6.148   4.397   0.598
 5759TIP3    H217284   6.110   4.527   0.667
 5760TIP3   OH217285   6.211   4.588   2.899
 5760TIP3    H117286   6.125   4.569   2.862
 5760TIP3    H217287   6.265   4.609   2.823
 5761TIP3   OH217288   1.587   5.821   2.342
 5761TIP3    H117289   1.566   5.870   2.422
 5761TIP3    H217290   1.671   5.779   2.362
 5762TIP3   OH217291   0.477   2.196   3.006
 5762TIP3    H117292   0.570   2.176   3.006
 5762TIP3    H217293   0.464   2.253   2.930
 5763TIP3   OH217294   3.261   5.993   3.328
 5763TIP3    H117295   3.201   5.919   3.333
 5763TIP3    H217296   3.307   5.992   3.412
 5764TIP3   OH217297   3.083   3.094   2.219
 5764TIP3    H117298   2.995   3.066   2.193
 5764TIP3    H217299   3.140   3.021   2.194
 5765TIP3   OH217300   1.477   2.641   1.872
 5765TIP3    H117301   1.435   2.709   1.819
 5765TIP3    H217302   1.405   2.588   1.905
 5766TIP3   OH217303   4.367   5.065   5.067
 5766TIP3    H117304   4.413   5.074   5.150
 5766TIP3    H217305   4.431   5.028   5.007
 5767TIP3   OH217306   0.680   1.254   4.511
 5767TIP3    H117307   0.745   1.322   4.524
 5767TIP3    H217308   0.627   1.285   4.438
 5768TIP3   OH217309   2.532   4.812   4.168
 5768TIP3    H117310   2.597   4.867   4.125
 5768TIP3    H217311   2.451   4.828   4.120
 5769TIP3   OH217312   5.767   5.579   1.015
 5769TIP3    H117313   5.793   5.486   1.017
 5769TIP3    H217314   5.741   5.598   1.105
 5770TIP3   OH217315   3.301   4.454   2.345
 5770TIP3    H117316   3.244   4.495   2.410
 5770TIP3    H217317   3.285   4.503   2.265
 5771TIP3   OH217318   4.343   1.645   4.318
 5771TIP3    H117319   4.353   1.730   4.361
 5771TIP3    H217320   4.272   1.603   4.367
 5772TIP3   OH217321   4.336   4.106   4.273
 5772TIP3    H117322   4.289   4.142   4.198
 5772TIP3    H217323   4.350   4.181   4.331
 5773TIP3   OH217324   4.511   1.716   3.626
 5773TIP3    H117325   4.539   1.675   3.707
 5773TIP3    H217326   4.508   1.810   3.646
 5774TIP3   OH217327   1.656   4.154   2.423
 5774TIP3    H117328   1.684   4.093   2.354
 5774TIP3    H217329   1.731   4.160   2.482
 5775TIP3   OH217330   3.926   3.050   4.305
 5775TIP3    H117331   3.903   2.977   4.247
 5775TIP3    H217332   3.988   3.012   4.367
 5776TIP3   OH217333   4.786   0.856   1.510
 5776TIP3    H117334   4.859   0.852   1.572
 5776TIP3    H217335   4.818   0.812   1.431
 5777TIP3   OH217336   0.524   4.007   1.733
 5777TIP3    H117337   0.579   4.009   1.654
 5777TIP3    H217338   0.465   3.934   1.719
 5778TIP3   OH217339   5.187   4.304   0.015
 5778TIP3    H117340   5.238   4.372  -0.029
 5778TIP3    H217341   5.122   4.351   0.066
 5779TIP3   OH217342   3.319   5.648   2.036
 5779TIP3    H117343   3.377   5.670   2.108
 5779TIP3    H217344   3.234   5.684   2.061
 5780TIP3   OH217345   5.150   0.711   3.983
 5780TIP3    H117346   5.103   0.681   4.062
 5780TIP3    H217347   5.101   0.788   3.954
 5781TIP3   OH217348   4.584   2.859   3.858
 5781TIP3    H117349   4.639   2.854   3.936
 5781TIP3    H217350   4.614   2.788   3.802
 5782TIP3   OH217351   2.724   2.408   2.953
 5782TIP3    H117352   2.816   2.392   2.974
 5782TIP3    H217353   2.676   2.335   2.994
 5783TIP3   OH217354   4.846   0.182   0.994
 5783TIP3    H117355   4.813   0.172   1.083
 5783TIP3    H217356   4.800   0.115   0.944
 5784TIP3   OH217357   0.330   2.035   4.228
 5784TIP3    H117358   0.320   2.095   4.302
 5784TIP3    H217359   0.269   2.067   4.162
 5785TIP3   OH217360   2.727   0.506   2.297
 5785TIP3    H117361   2.733   0.436   2.232
 5785TIP3    H217362   2.784   0.477   2.369
 5786TIP3   OH217363   0.403   1.362   1.666
 5786TIP3    H117364   0.434   1.410   1.590
 5786TIP3    H217365   0.309   1.350   1.651
 5787TIP3   OH217366   1.956   1.886   2.819
 5787TIP3    H117367   1.992   1.809   2.864
 5787TIP3    H217368   1.901   1.929   2.884
 5788TIP3   OH217369   3.473   4.836   3.294
 5788TIP3    H117370   3.430   4.751   3.301
 5788TIP3    H217371   3.461   4.875   3.381
 5789TIP3   OH217372   4.193   1.038   3.701
 5789TIP3    H117373   4.244   1.113   3.733
 5789TIP3    H217374   4.174   0.987   3.780
 5790TIP3   OH217375   5.144   2.987   2.790
 5790TIP3    H117376   5.232   2.961   2.819
 5790TIP3    H217377   5.110   2.910   2.744
 5791TIP3   OH217378   3.514   5.905   1.870
 5791TIP3    H117379   3.451   5.952   1.924
 5791TIP3    H217380   3.533   5.825   1.919
 5792TIP3   OH217381   0.870   4.951   2.501
 5792TIP3    H117382   0.880   4.918   2.412
 5792TIP3    H217383   0.799   4.898   2.538
 5793TIP3   OH217384   2.945   1.974   1.267
 5793TIP3    H117385   2.939   2.043   1.333
 5793TIP3    H217386   2.855   1.945   1.254
 5794TIP3   OH217387   5.596   1.598   4.580
 5794TIP3    H117388   5.607   1.636   4.493
 5794TIP3    H217389   5.603   1.672   4.640
 5795TIP3   OH217390   5.228   0.882   0.869
 5795TIP3    H117391   5.291   0.953   0.861
 5795TIP3    H217392   5.260   0.831   0.944
 5796TIP3   OH217393   4.215   2.206   4.668
 5796TIP3    H117394   4.193   2.240   4.754
 5796TIP3    H217395   4.179   2.118   4.667
 5797TIP3   OH217396   5.000   5.616   3.074
 5797TIP3    H117397   4.985   5.607   2.980
 5797TIP3    H217398   5.077   5.672   3.081
 5798TIP3   OH217399   0.566   4.490   1.546
 5798TIP3    H117400   0.604   4.404   1.566
 5798TIP3    H217401   0.514   4.476   1.467
 5799TIP3   OH217402   1.892   0.787   0.927
 5799TIP3    H117403   1.813   0.801   0.980
 5799TIP3    H217404   1.958   0.842   0.968
 5800TIP3   OH217405   3.666   5.401   3.502
 5800TIP3    H117406   3.627   5.427   3.418
 5800TIP3    H217407   3.663   5.305   3.501
 5801TIP3   OH217408   5.151   1.588   3.453
 5801TIP3    H117409   5.092   1.531   3.503
 5801TIP3    H217410   5.118   1.677   3.468
 5802TIP3   OH217411   1.153   5.582   3.316
 5802TIP3    H117412   1.188   5.493   3.312
 5802TIP3    H217413   1.229   5.636   3.337
 5803TIP3   OH217414   0.308   3.096   0.719
 5803TIP3    H117415   0.377   3.145   0.676
 5803TIP3    H217416   0.346   3.011   0.738
 5804TIP3   OH217417   5.597   2.204   4.261
 5804TIP3    H117418   5.547   2.123   4.266
 5804TIP3    H217419   5.679   2.179   4.218
 5805TIP3   OH217420   5.777   4.756   1.855
 5805TIP3    H117421   5.867   4.746   1.826
 5805TIP3    H217422   5.725   4.746   1.776
 5806TIP3   OH217423   1.149   4.820   1.305
 5806TIP3    H117424   1.223   4.877   1.326
 5806TIP3    H217425   1.120   4.849   1.218
 5807TIP3   OH217426   4.081   1.290   3.072
 5807TIP3    H117427   4.008   1.324   3.123
 5807TIP3    H217428   4.050   1.290   2.981
 5808TIP3   OH217429   5.604   1.309   3.524
 5808TIP3    H117430   5.540   1.379   3.511
 5808TIP3    H217431   5.673   1.326   3.460
 5809TIP3   OH217432   3.297   5.963   4.689
 5809TIP3    H117433   3.205   5.951   4.664
 5809TIP3    H217434   3.344   5.896   4.640
 5810TIP3   OH217435   1.553   0.125   2.022
 5810TIP3    H117436   1.589   0.213   2.033
 5810TIP3    H217437   1.595   0.073   2.090
 5811TIP3   OH217438   2.277   0.955   2.219
 5811TIP3    H117439   2.342   0.884   2.220
 5811TIP3    H217440   2.197   0.913   2.188
 5812TIP3   OH217441   5.335   5.666   4.357
 5812TIP3    H117442   5.396   5.720   4.408
 5812TIP3    H217443   5.253   5.673   4.405
 5813TIP3   OH217444   5.718   4.807   0.745
 5813TIP3    H117445   5.693   4.825   0.836
 5813TIP3    H217446   5.639   4.769   0.706
 5814TIP3   OH217447   3.057   2.471   2.591
 5814TIP3    H117448   3.145   2.506   2.605
 5814TIP3    H217449   3.008   2.497   2.669
 5815TIP3   OH217450   3.633   0.956   0.540
 5815TIP3    H117451   3.556   0.998   0.578
 5815TIP3    H217452   3.598   0.906   0.466
 5816TIP3   OH217453   1.276   2.390   1.136
 5816TIP3    H117454   1.338   2.461   1.122
 5816TIP3    H217455   1.205   2.408   1.074
 5817TIP3   OH217456   0.033   5.233   4.879
 5817TIP3    H117457   0.077   5.173   4.820
 5817TIP3    H217458   0.089   5.311   4.881
 5818TIP3   OH217459   0.229   0.306   2.803
 5818TIP3    H117460   0.194   0.313   2.714
 5818TIP3    H217461   0.308   0.360   2.802
 5819TIP3   OH217462   0.444   1.266   3.402
 5819TIP3    H117463   0.478   1.354   3.419
 5819TIP3    H217464   0.458   1.218   3.483
 5820TIP3   OH217465   5.745   4.484   0.315
 5820TIP3    H117466   5.686   4.495   0.240
 5820TIP3    H217467   5.813   4.549   0.301
 5821TIP3   OH217468   4.443   3.986   3.470
 5821TIP3    H117469   4.514   4.020   3.416
 5821TIP3    H217470   4.467   4.008   3.559
 5822TIP3   OH217471   0.353   1.529   2.899
 5822TIP3    H117472   0.333   1.486   2.982
 5822TIP3    H217473   0.449   1.527   2.894
 5823TIP3   OH217474   0.319   2.556   3.173
 5823TIP3    H117475   0.290   2.467   3.158
 5823TIP3    H217476   0.350   2.557   3.263
 5824TIP3   OH217477   0.892   1.446   1.441
 5824TIP3    H117478   0.837   1.373   1.469
 5824TIP3    H217479   0.978   1.406   1.424
 5825TIP3   OH217480   6.264   2.298   3.850
 5825TIP3    H117481   6.204   2.277   3.778
 5825TIP3    H217482   6.349   2.269   3.819
 5826TIP3   OH217483   2.844   2.315   4.864
 5826TIP3    H117484   2.755   2.342   4.843
 5826TIP3    H217485   2.899   2.361   4.800
 5827TIP3   OH217486   4.462   0.226   2.535
 5827TIP3    H117487   4.421   0.311   2.550
 5827TIP3    H217488   4.532   0.220   2.600
 5828TIP3   OH217489   1.126   4.772   5.130
 5828TIP3    H117490   1.041   4.809   5.105
 5828TIP3    H217491   1.191   4.831   5.091
 5829TIP3   OH217492   2.000   4.356   0.615
 5829TIP3    H117493   2.034   4.318   0.534
 5829TIP3    H217494   2.078   4.372   0.668
 5830TIP3   OH217495   1.733   1.177   0.371
 5830TIP3    H117496   1.822   1.195   0.341
 5830TIP3    H217497   1.677   1.207   0.299
 5831TIP3   OH217498   0.126   3.465   3.866
 5831TIP3    H117499   0.086   3.379   3.854
 5831TIP3    H217500   0.160   3.464   3.955
 5832TIP3   OH217501   2.325   4.771   0.845
 5832TIP3    H117502   2.282   4.802   0.766
 5832TIP3    H217503   2.258   4.777   0.913
 5833TIP3   OH217504   3.482   0.161   1.095
 5833TIP3    H117505   3.518   0.075   1.115
 5833TIP3    H217506   3.518   0.219   1.162
 5834TIP3   OH217507   0.253   4.001   0.933
 5834TIP3    H117508   0.318   4.024   0.999
 5834TIP3    H217509   0.224   3.913   0.957
 5835TIP3   OH217510   3.916   0.388   4.338
 5835TIP3    H117511   4.009   0.398   4.317
 5835TIP3    H217512   3.915   0.335   4.418
 5836TIP3   OH217513   1.035   3.477   3.560
 5836TIP3    H117514   1.003   3.419   3.491
 5836TIP3    H217515   1.050   3.419   3.635
 5837TIP3   OH217516   3.788   4.463   3.576
 5837TIP3    H117517   3.728   4.515   3.523
 5837TIP3    H217518   3.752   4.467   3.664
 5838TIP3   OH217519   5.525   5.471   4.490
 5838TIP3    H117520   5.597   5.430   4.539
 5838TIP3    H217521   5.501   5.547   4.541
 5839TIP3   OH217522   1.126   2.461   0.920
 5839TIP3    H117523   1.129   2.377   0.875
 5839TIP3    H217524   1.214   2.497   0.911
 5840TIP3   OH217525   1.939   5.445   4.021
 5840TIP3    H117526   2.032   5.463   4.013
 5840TIP3    H217527   1.910   5.499   4.095
 5841TIP3   OH217528   0.146   5.816   1.354
 5841TIP3    H117529   0.189   5.780   1.276
 5841TIP3    H217530   0.107   5.898   1.324
 5842TIP3   OH217531   2.151   3.362   0.981
 5842TIP3    H117532   2.236   3.320   0.976
 5842TIP3    H217533   2.104   3.332   0.903
 5843TIP3   OH217534   4.742   4.303   0.042
 5843TIP3    H117535   4.672   4.340   0.096
 5843TIP3    H217536   4.710   4.310  -0.048
 5844TIP3   OH217537   1.457   5.935   1.192
 5844TIP3    H117538   1.531   5.975   1.238
 5844TIP3    H217539   1.424   5.869   1.254
 5845TIP3   OH217540   4.104   1.565   1.720
 5845TIP3    H117541   4.133   1.571   1.811
 5845TIP3    H217542   4.011   1.545   1.726
 5846TIP3   OH217543   2.009   2.939   4.148
 5846TIP3    H117544   2.046   2.976   4.068
 5846TIP3    H217545   1.916   2.929   4.130
 5847TIP3   OH217546   2.843   3.009   0.064
 5847TIP3    H117547   2.842   2.913   0.064
 5847TIP3    H217548   2.811   3.033  -0.023
 5848TIP3   OH217549   0.602   0.624   4.952
 5848TIP3    H117550   0.570   0.627   5.042
 5848TIP3    H217551   0.532   0.663   4.900
 5849TIP3   OH217552   2.103   2.925   3.549
 5849TIP3    H117553   2.011   2.915   3.526
 5849TIP3    H217554   2.145   2.952   3.468
 5850TIP3   OH217555   5.903   4.816   2.333
 5850TIP3    H117556   5.823   4.835   2.284
 5850TIP3    H217557   5.949   4.751   2.280
 5851TIP3   OH217558   2.746   5.842   0.738
 5851TIP3    H117559   2.674   5.873   0.682
 5851TIP3    H217560   2.709   5.841   0.826
 5852TIP3   OH217561   0.278   1.305   1.915
 5852TIP3    H117562   0.183   1.298   1.919
 5852TIP3    H217563   0.307   1.304   2.006
 5853TIP3   OH217564   2.954   1.826   0.645
 5853TIP3    H117565   2.896   1.752   0.631
 5853TIP3    H217566   2.917   1.872   0.721
 5854TIP3   OH217567   5.955   2.960   2.349
 5854TIP3    H117568   6.031   2.907   2.324
 5854TIP3    H217569   5.880   2.907   2.323
 5855TIP3   OH217570   1.037   3.422   2.310
 5855TIP3    H117571   1.065   3.393   2.397
 5855TIP3    H217572   1.118   3.436   2.262
 5856TIP3   OH217573   1.445   1.347   3.185
 5856TIP3    H117574   1.415   1.431   3.151
 5856TIP3    H217575   1.534   1.363   3.215
 5857TIP3   OH217576   2.191   5.788   3.378
 5857TIP3    H117577   2.139   5.861   3.345
 5857TIP3    H217578   2.173   5.787   3.472
 5858TIP3   OH217579   1.229   5.068   1.918
 5858TIP3    H117580   1.176   5.127   1.865
 5858TIP3    H217581   1.185   4.983   1.912
 5859TIP3   OH217582   4.686   1.496   4.552
 5859TIP3    H117583   4.611   1.510   4.493
 5859TIP3    H217584   4.677   1.563   4.619
 5860TIP3   OH217585   1.875   2.280   0.427
 5860TIP3    H117586   1.795   2.305   0.473
 5860TIP3    H217587   1.941   2.343   0.456
 5861TIP3   OH217588   3.231   1.105   5.003
 5861TIP3    H117589   3.308   1.063   5.043
 5861TIP3    H217590   3.168   1.111   5.075
 5862TIP3   OH217591   0.286   0.252   0.517
 5862TIP3    H117592   0.194   0.278   0.510
 5862TIP3    H217593   0.331   0.332   0.543
 5863TIP3   OH217594   4.105   1.606   0.107
 5863TIP3    H117595   4.047   1.675   0.075
 5863TIP3    H217596   4.050   1.555   0.167
 5864TIP3   OH217597   4.319   3.256   4.862
 5864TIP3    H117598   4.311   3.351   4.852
 5864TIP3    H217599   4.293   3.221   4.777
 5865TIP3   OH217600   5.297   5.878   5.096
 5865TIP3    H117601   5.225   5.912   5.044
 5865TIP3    H217602   5.370   5.870   5.035
 5866TIP3   OH217603   3.686   3.414   3.514
 5866TIP3    H117604   3.594   3.410   3.541
 5866TIP3    H217605   3.683   3.417   3.418
 5867TIP3   OH217606   4.882   4.200   4.953
 5867TIP3    H117607   4.926   4.118   4.975
 5867TIP3    H217608   4.822   4.216   5.026
 5868TIP3   OH217609   5.494   5.353   4.737
 5868TIP3    H117610   5.584   5.358   4.704
 5868TIP3    H217611   5.486   5.428   4.795
 5869TIP3   OH217612   4.722   3.225   1.395
 5869TIP3    H117613   4.760   3.279   1.325
 5869TIP3    H217614   4.691   3.146   1.350
 5870TIP3   OH217615   0.596   0.179   1.251
 5870TIP3    H117616   0.618   0.192   1.159
 5870TIP3    H217617   0.680   0.175   1.295
 5871TIP3   OH217618   1.115   2.116   3.408
 5871TIP3    H117619   1.139   2.024   3.414
 5871TIP3    H217620   1.164   2.159   3.478
 5872TIP3   OH217621   5.192   5.322   0.385
 5872TIP3    H117622   5.222   5.299   0.297
 5872TIP3    H217623   5.227   5.253   0.441
 5873TIP3   OH217624   2.565   0.789   0.850
 5873TIP3    H117625   2.537   0.857   0.789
 5873TIP3    H217626   2.494   0.781   0.912
 5874TIP3   OH217627   5.438   2.102   3.944
 5874TIP3    H117628   5.448   2.026   3.887
 5874TIP3    H217629   5.511   2.095   4.007
 5875TIP3   OH217630   0.173   2.999   2.870
 5875TIP3    H117631   0.133   3.084   2.886
 5875TIP3    H217632   0.221   2.979   2.950
 5876TIP3   OH217633   1.958   0.752   4.564
 5876TIP3    H117634   1.979   0.672   4.516
 5876TIP3    H217635   1.870   0.737   4.598
 5877TIP3   OH217636   6.055   3.460   3.223
 5877TIP3    H117637   6.139   3.483   3.264
 5877TIP3    H217638   5.991   3.518   3.263
 5878TIP3   OH217639   2.147   2.055   4.487
 5878TIP3    H117640   2.202   2.039   4.410
 5878TIP3    H217641   2.076   1.991   4.480
 5879TIP3   OH217642   1.999   3.995   0.771
 5879TIP3    H117643   2.054   4.040   0.707
 5879TIP3    H217644   2.056   3.928   0.809
 5880TIP3   OH217645   3.728   3.892   0.335
 5880TIP3    H117646   3.665   3.820   0.341
 5880TIP3    H217647   3.726   3.918   0.243
 5881TIP3   OH217648   4.947   1.854   4.493
 5881TIP3    H117649   4.986   1.882   4.411
 5881TIP3    H217650   4.884   1.923   4.515
 5882TIP3   OH217651   2.273   1.680   1.511
 5882TIP3    H117652   2.201   1.738   1.486
 5882TIP3    H217653   2.232   1.595   1.526
 5883TIP3   OH217654   0.942   1.314   5.171
 5883TIP3    H117655   0.933   1.387   5.109
 5883TIP3    H217656   1.036   1.296   5.173
 5884TIP3   OH217657   0.362   3.186   1.842
 5884TIP3    H117658   0.319   3.186   1.928
 5884TIP3    H217659   0.295   3.221   1.783
 5885TIP3   OH217660   1.342   2.336   4.041
 5885TIP3    H117661   1.405   2.282   3.993
 5885TIP3    H217662   1.354   2.311   4.132
 5886TIP3   OH217663   1.934   5.392   5.037
 5886TIP3    H117664   1.941   5.387   5.132
 5886TIP3    H217665   1.845   5.421   5.020
 5887TIP3   OH217666   5.609   3.969   1.351
 5887TIP3    H117667   5.587   3.931   1.436
 5887TIP3    H217668   5.564   3.914   1.287
 5888TIP3   OH217669   3.390   3.152   3.808
 5888TIP3    H117670   3.391   3.082   3.874
 5888TIP3    H217671   3.428   3.112   3.730
 5889TIP3   OH217672   1.172   4.591   2.427
 5889TIP3    H117673   1.104   4.535   2.465
 5889TIP3    H217674   1.252   4.569   2.475
 5890TIP3   OH217675   4.147   2.317   3.075
 5890TIP3    H117676   4.073   2.319   3.135
 5890TIP3    H217677   4.153   2.407   3.041
 5891TIP3   OH217678   0.223   1.662   5.140
 5891TIP3    H117679   0.238   1.588   5.199
 5891TIP3    H217680   0.171   1.723   5.191
 5892TIP3   OH217681   6.238   3.682   0.981
 5892TIP3    H117682   6.181   3.655   0.909
 5892TIP3    H217683   6.267   3.770   0.958
 5893TIP3   OH217684   4.878   2.699   0.115
 5893TIP3    H117685   4.792   2.717   0.155
 5893TIP3    H217686   4.864   2.619   0.065
 5894TIP3   OH217687   3.612   0.896   1.146
 5894TIP3    H117688   3.602   0.829   1.078
 5894TIP3    H217689   3.591   0.850   1.227
 5895TIP3   OH217690   3.713   2.850   2.108
 5895TIP3    H117691   3.732   2.917   2.043
 5895TIP3    H217692   3.621   2.866   2.132
 5896TIP3   OH217693   5.676   0.818   2.506
 5896TIP3    H117694   5.624   0.818   2.586
 5896TIP3    H217695   5.638   0.749   2.452
 5897TIP3   OH217696   0.679   4.533   2.163
 5897TIP3    H117697   0.728   4.612   2.138
 5897TIP3    H217698   0.722   4.463   2.115
 5898TIP3   OH217699   0.784   5.395   4.319
 5898TIP3    H117700   0.876   5.392   4.290
 5898TIP3    H217701   0.752   5.479   4.286
 5899TIP3   OH217702   6.040   2.951   3.637
 5899TIP3    H117703   5.999   2.998   3.709
 5899TIP3    H217704   5.967   2.912   3.589
 5900TIP3   OH217705   1.683   0.069   3.253
 5900TIP3    H117706   1.609   0.024   3.213
 5900TIP3    H217707   1.760   0.024   3.219
 5901TIP3   OH217708   1.664   3.556   4.262
 5901TIP3    H117709   1.601   3.603   4.317
 5901TIP3    H217710   1.649   3.464   4.281
 5902TIP3   OH217711   1.323   3.734   0.368
 5902TIP3    H117712   1.367   3.819   0.372
 5902TIP3    H217713   1.337   3.695   0.454
 5903TIP3   OH217714   6.176   1.947   2.502
 5903TIP3    H117715   6.146   1.907   2.584
 5903TIP3    H217716   6.271   1.939   2.504
 5904TIP3   OH217717   4.428   1.335   0.768
 5904TIP3    H117718   4.490   1.275   0.810
 5904TIP3    H217719   4.473   1.364   0.689
 5905TIP3   OH217720   4.785   2.592   5.138
 5905TIP3    H117721   4.780   2.688   5.143
 5905TIP3    H217722   4.873   2.574   5.106
 5906TIP3   OH217723   4.742   0.946   4.761
 5906TIP3    H117724   4.747   1.028   4.711
 5906TIP3    H217725   4.772   0.970   4.848
 5907TIP3   OH217726   5.986   0.899   5.185
 5907TIP3    H117727   5.897   0.880   5.154
 5907TIP3    H217728   5.974   0.939   5.271
 5908TIP3   OH217729   4.345   5.936   5.087
 5908TIP3    H117730   4.410   5.943   5.156
 5908TIP3    H217731   4.261   5.952   5.131
 5909TIP3   OH217732   0.837   4.677   1.861
 5909TIP3    H117733   0.762   4.622   1.840
 5909TIP3    H217734   0.894   4.620   1.912
 5910TIP3   OH217735   0.812   4.578   0.614
 5910TIP3    H117736   0.805   4.638   0.540
 5910TIP3    H217737   0.744   4.513   0.599
 5911TIP3   OH217738   0.409   2.297   3.436
 5911TIP3    H117739   0.440   2.385   3.414
 5911TIP3    H217740   0.326   2.311   3.481
 5912TIP3   OH217741   6.202   3.261   4.838
 5912TIP3    H117742   6.148   3.273   4.760
 5912TIP3    H217743   6.265   3.193   4.814
 5913TIP3   OH217744   1.032   3.858   4.863
 5913TIP3    H117745   1.111   3.867   4.809
 5913TIP3    H217746   1.064   3.824   4.947
 5914TIP3   OH217747   4.837   5.619   3.897
 5914TIP3    H117748   4.834   5.527   3.922
 5914TIP3    H217749   4.915   5.654   3.942
 5915TIP3   OH217750   2.939   0.723   4.555
 5915TIP3    H117751   2.999   0.777   4.606
 5915TIP3    H217752   2.896   0.667   4.619
 5916TIP3   OH217753   5.002   5.158   4.693
 5916TIP3    H117754   5.069   5.226   4.690
 5916TIP3    H217755   5.038   5.086   4.641
 5917TIP3   OH217756   1.452   5.459   4.595
 5917TIP3    H117757   1.497   5.380   4.625
 5917TIP3    H217758   1.396   5.429   4.523
 5918TIP3   OH217759   0.477   3.741   3.620
 5918TIP3    H117760   0.530   3.808   3.662
 5918TIP3    H217761   0.531   3.710   3.547
 5919TIP3   OH217762   4.725   0.051   1.669
 5919TIP3    H117763   4.729   0.033   1.763
 5919TIP3    H217764   4.662  -0.012   1.635
 5920TIP3   OH217765   3.868   1.766   3.691
 5920TIP3    H117766   3.867   1.757   3.596
 5920TIP3    H217767   3.892   1.858   3.706
 5921TIP3   OH217768   2.933   4.896   2.879
 5921TIP3    H117769   3.007   4.872   2.934
 5921TIP3    H217770   2.939   4.991   2.869
 5922TIP3   OH217771   5.651   1.118   1.226
 5922TIP3    H117772   5.669   1.136   1.319
 5922TIP3    H217773   5.565   1.157   1.211
 5923TIP3   OH217774   0.465   1.764   3.191
 5923TIP3    H117775   0.536   1.721   3.238
 5923TIP3    H217776   0.483   1.745   3.099
 5924TIP3   OH217777   0.110   1.928   3.106
 5924TIP3    H117778   0.167   1.962   3.176
 5924TIP3    H217779   0.113   1.995   3.038
 5925TIP3   OH217780   2.169   4.603   1.560
 5925TIP3    H117781   2.185   4.542   1.632
 5925TIP3    H217782   2.074   4.613   1.557
 5926TIP3   OH217783   5.660   2.028   1.262
 5926TIP3    H117784   5.727   2.055   1.199
 5926TIP3    H217785   5.581   2.017   1.209
 5927TIP3   OH217786   3.718   5.545   2.057
 5927TIP3    H117787   3.674   5.625   2.086
 5927TIP3    H217788   3.690   5.533   1.967
 5928TIP3   OH217789   4.889   2.820   2.386
 5928TIP3    H117790   4.895   2.731   2.419
 5928TIP3    H217791   4.963   2.829   2.326
 5929TIP3   OH217792   1.214   3.726   1.083
 5929TIP3    H117793   1.159   3.651   1.105
 5929TIP3    H217794   1.208   3.785   1.158
 5930TIP3   OH217795   5.734   3.475   0.012
 5930TIP3    H117796   5.824   3.507   0.009
 5930TIP3    H217797   5.742   3.380   0.004
 5931TIP3   OH217798   4.133   4.499   0.425
 5931TIP3    H117799   4.199   4.544   0.372
 5931TIP3    H217800   4.077   4.454   0.361
 5932TIP3   OH217801   3.612   1.263   0.050
 5932TIP3    H117802   3.692   1.255   0.102
 5932TIP3    H217803   3.614   1.352   0.017
 5933TIP3   OH217804   0.541   5.795   1.708
 5933TIP3    H117805   0.509   5.773   1.796
 5933TIP3    H217806   0.634   5.774   1.711
 5934TIP3   OH217807   5.420   5.583   3.339
 5934TIP3    H117808   5.326   5.595   3.328
 5934TIP3    H217809   5.431   5.568   3.433
 5935TIP3   OH217810   6.328   3.037   4.724
 5935TIP3    H117811   6.316   3.078   4.639
 5935TIP3    H217812   6.241   3.008   4.750
 5936TIP3   OH217813   3.729   4.769   0.021
 5936TIP3    H117814   3.811   4.762  -0.027
 5936TIP3    H217815   3.722   4.687   0.070
 5937TIP3   OH217816   5.104   0.646   2.067
 5937TIP3    H117817   5.106   0.694   2.150
 5937TIP3    H217818   5.019   0.669   2.028
 5938TIP3   OH217819   5.245   1.479   2.656
 5938TIP3    H117820   5.333   1.514   2.646
 5938TIP3    H217821   5.189   1.557   2.658
 5939TIP3   OH217822   1.962   5.158   4.404
 5939TIP3    H117823   2.027   5.224   4.430
 5939TIP3    H217824   1.959   5.164   4.309
 5940TIP3   OH217825   2.410   0.251   1.673
 5940TIP3    H117826   2.321   0.270   1.704
 5940TIP3    H217827   2.429   0.164   1.708
 5941TIP3   OH217828   4.563   5.703   1.335
 5941TIP3    H117829   4.601   5.791   1.335
 5941TIP3    H217830   4.615   5.654   1.398
 5942TIP3   OH217831   3.406   2.506   4.293
 5942TIP3    H117832   3.452   2.576   4.340
 5942TIP3    H217833   3.357   2.460   4.361
 5943TIP3   OH217834   5.308   1.997   1.717
 5943TIP3    H117835   5.286   1.905   1.731
 5943TIP3    H217836   5.352   1.998   1.632
 5944TIP3   OH217837   2.705   5.051   0.781
 5944TIP3    H117838   2.784   5.061   0.834
 5944TIP3    H217839   2.712   5.118   0.713
 5945TIP3   OH217840   1.587   5.267   4.755
 5945TIP3    H117841   1.665   5.270   4.699
 5945TIP3    H217842   1.602   5.336   4.820
 5946TIP3   OH217843   1.638   2.846   3.039
 5946TIP3    H117844   1.650   2.940   3.051
 5946TIP3    H217845   1.569   2.838   2.974
 5947TIP3   OH217846   4.207   3.685   2.003
 5947TIP3    H117847   4.232   3.641   1.922
 5947TIP3    H217848   4.279   3.665   2.064
 5948TIP3   OH217849   2.097   2.191   2.930
 5948TIP3    H117850   2.132   2.137   2.859
 5948TIP3    H217851   2.017   2.229   2.894
 5949TIP3   OH217852   6.036   2.628   4.081
 5949TIP3    H117853   6.051   2.535   4.097
 5949TIP3    H217854   6.095   2.651   4.010
 5950TIP3   OH217855   1.536   4.402   4.826
 5950TIP3    H117856   1.571   4.395   4.737
 5950TIP3    H217857   1.441   4.394   4.815
 5951TIP3   OH217858   0.024   4.186   2.705
 5951TIP3    H117859  -0.049   4.156   2.759
 5951TIP3    H217860   0.007   4.151   2.618
 5952TIP3   OH217861   2.713   3.891   1.338
 5952TIP3    H117862   2.632   3.843   1.354
 5952TIP3    H217863   2.766   3.830   1.286
 5953TIP3   OH217864   2.042   4.527   3.393
 5953TIP3    H117865   2.095   4.589   3.343
 5953TIP3    H217866   1.993   4.582   3.454
 5954TIP3   OH217867   1.390   1.837   0.836
 5954TIP3    H117868   1.346   1.791   0.764
 5954TIP3    H217869   1.462   1.883   0.794
 5955TIP3   OH217870   4.448   3.692   0.599
 5955TIP3    H117871   4.481   3.603   0.588
 5955TIP3    H217872   4.359   3.689   0.563
 5956TIP3   OH217873   0.609   5.450   4.898
 5956TIP3    H117874   0.557   5.472   4.975
 5956TIP3    H217875   0.682   5.511   4.899
 5957TIP3   OH217876   1.685   1.194   4.430
 5957TIP3    H117877   1.736   1.117   4.405
 5957TIP3    H217878   1.639   1.219   4.350
 5958TIP3   OH217879   0.796   5.093   4.911
 5958TIP3    H117880   0.816   5.002   4.892
 5958TIP3    H217881   0.824   5.105   5.002
 5959TIP3   OH217882   4.290   4.252   1.665
 5959TIP3    H117883   4.232   4.192   1.712
 5959TIP3    H217884   4.232   4.321   1.631
 5960TIP3   OH217885   4.813   1.606   0.441
 5960TIP3    H117886   4.901   1.610   0.403
 5960TIP3    H217887   4.773   1.530   0.398
 5961TIP3   OH217888   2.168   2.035   1.975
 5961TIP3    H117889   2.192   2.005   2.063
 5961TIP3    H217890   2.200   1.967   1.917
 5962TIP3   OH217891   5.225   4.239   4.161
 5962TIP3    H117892   5.208   4.169   4.098
 5962TIP3    H217893   5.321   4.244   4.165
 5963TIP3   OH217894   3.450   0.007   1.523
 5963TIP3    H117895   3.363  -0.002   1.563
 5963TIP3    H217896   3.467  -0.079   1.483
 5964TIP3   OH217897   5.087   4.080   1.704
 5964TIP3    H117898   5.073   4.035   1.787
 5964TIP3    H217899   5.055   4.169   1.720
 5965TIP3   OH217900   3.925   3.021   1.723
 5965TIP3    H117901   3.995   3.047   1.783
 5965TIP3    H217902   3.848   3.008   1.779
 5966TIP3   OH217903   5.559   0.495   5.117
 5966TIP3    H117904   5.510   0.494   5.035
 5966TIP3    H217905   5.492   0.513   5.184
 5967TIP3   OH217906   1.964   4.762   4.111
 5967TIP3    H117907   1.912   4.681   4.109
 5967TIP3    H217908   1.899   4.832   4.104
 5968TIP3   OH217909   3.048   0.453   2.237
 5968TIP3    H117910   3.026   0.447   2.329
 5968TIP3    H217911   3.012   0.374   2.197
 5969TIP3   OH217912   4.876   3.131   5.102
 5969TIP3    H117913   4.806   3.157   5.162
 5969TIP3    H217914   4.955   3.136   5.156
 5970TIP3   OH217915   3.321   5.009   1.613
 5970TIP3    H117916   3.305   5.091   1.660
 5970TIP3    H217917   3.414   5.010   1.592
 5971TIP3   OH217918   0.263   0.912   0.821
 5971TIP3    H117919   0.234   1.002   0.837
 5971TIP3    H217920   0.313   0.889   0.899
 5972TIP3   OH217921   2.876   0.323   0.331
 5972TIP3    H117922   2.954   0.353   0.378
 5972TIP3    H217923   2.804   0.369   0.373
 5973TIP3   OH217924   6.361   2.016   1.615
 5973TIP3    H117925   6.418   1.949   1.653
 5973TIP3    H217926   6.280   2.010   1.667
 5974TIP3   OH217927   0.130   0.071   0.322
 5974TIP3    H117928   0.151   0.071   0.415
 5974TIP3    H217929   0.035   0.083   0.318
 5975TIP3   OH217930   5.047   3.396   4.414
 5975TIP3    H117931   4.994   3.319   4.434
 5975TIP3    H217932   5.109   3.366   4.348
 5976TIP3   OH217933   0.995   4.289   1.838
 5976TIP3    H117934   0.970   4.297   1.746
 5976TIP3    H217935   1.036   4.373   1.858
 5977TIP3   OH217936   5.350   0.971   4.762
 5977TIP3    H117937   5.319   0.998   4.676
 5977TIP3    H217938   5.328   1.044   4.820
 5978TIP3   OH217939   5.697   3.204   3.625
 5978TIP3    H117940   5.617   3.226   3.672
 5978TIP3    H217941   5.677   3.223   3.533
 5979TIP3   OH217942   5.686   0.914   3.653
 5979TIP3    H117943   5.682   0.867   3.736
 5979TIP3    H217944   5.751   0.983   3.667
 5980TIP3   OH217945   0.729   3.342   2.074
 5980TIP3    H117946   0.817   3.336   2.110
 5980TIP3    H217947   0.730   3.422   2.021
 5981TIP3   OH217948   5.536   4.098   1.786
 5981TIP3    H117949   5.497   4.016   1.816
 5981TIP3    H217950   5.474   4.132   1.721
 5982TIP3   OH217951   3.075   5.569   2.931
 5982TIP3    H117952   2.994   5.575   2.982
 5982TIP3    H217953   3.076   5.648   2.878
 5983TIP3   OH217954   4.816   2.651   0.528
 5983TIP3    H117955   4.755   2.610   0.468
 5983TIP3    H217956   4.884   2.585   0.543
 5984TIP3   OH217957   6.191   3.451   2.630
 5984TIP3    H117958   6.204   3.365   2.590
 5984TIP3    H217959   6.124   3.493   2.577
 5985TIP3   OH217960   2.162   5.029   1.738
 5985TIP3    H117961   2.141   4.939   1.762
 5985TIP3    H217962   2.087   5.059   1.686
 5986TIP3   OH217963   2.226   1.749   4.729
 5986TIP3    H117964   2.313   1.787   4.739
 5986TIP3    H217965   2.167   1.814   4.765
 5987TIP3   OH217966   1.053   2.308   2.048
 5987TIP3    H117967   0.974   2.257   2.026
 5987TIP3    H217968   1.028   2.399   2.031
 5988TIP3   OH217969   3.181   1.041   2.815
 5988TIP3    H117970   3.149   1.104   2.750
 5988TIP3    H217971   3.251   0.994   2.769
 5989TIP3   OH217972   2.246   0.471   0.851
 5989TIP3    H117973   2.219   0.401   0.910
 5989TIP3    H217974   2.166   0.524   0.839
 5990TIP3   OH217975   3.616   1.007   2.643
 5990TIP3    H117976   3.613   0.937   2.577
 5990TIP3    H217977   3.642   0.963   2.724
 5991TIP3   OH217978   2.158   5.643   2.990
 5991TIP3    H117979   2.156   5.731   2.952
 5991TIP3    H217980   2.090   5.595   2.944
 5992TIP3   OH217981   0.671   3.165   3.373
 5992TIP3    H117982   0.600   3.229   3.365
 5992TIP3    H217983   0.638   3.089   3.324
 5993TIP3   OH217984   3.699   2.310   5.129
 5993TIP3    H117985   3.658   2.279   5.210
 5993TIP3    H217986   3.791   2.282   5.136
 5994TIP3   OH217987   0.041   4.929   3.380
 5994TIP3    H117988  -0.047   4.904   3.350
 5994TIP3    H217989   0.026   4.966   3.467
 5995TIP3   OH217990   5.970   4.470   2.905
 5995TIP3    H117991   5.993   4.449   2.995
 5995TIP3    H217992   5.876   4.490   2.908
 5996TIP3   OH217993   4.727   5.806   2.738
 5996TIP3    H117994   4.704   5.865   2.666
 5996TIP3    H217995   4.727   5.862   2.816
 5997TIP3   OH217996   4.212   0.788   3.447
 5997TIP3    H117997   4.120   0.779   3.475
 5997TIP3    H217998   4.207   0.804   3.353
 5998TIP3   OH217999   5.237   3.113   0.908
 5998TIP3    H118000   5.208   3.028   0.875
 5998TIP3    H218001   5.318   3.093   0.956
 5999TIP3   OH218002   3.699   1.011   4.519
 5999TIP3    H118003   3.752   0.977   4.591
 5999TIP3    H218004   3.609   0.990   4.543
 6000TIP3   OH218005   2.723   1.310   1.576
 6000TIP3    H118006   2.798   1.308   1.517
 6000TIP3    H218007   2.761   1.308   1.664
 6001TIP3   OH218008   3.288   1.256   2.128
 6001TIP3    H118009   3.344   1.307   2.070
 6001TIP3    H218010   3.228   1.211   2.069
 6002TIP3   OH218011   5.535   5.644   0.876
 6002TIP3    H118012   5.480   5.670   0.950
 6002TIP3    H218013   5.624   5.644   0.910
 6003TIP3   OH218014   3.922   3.335   4.303
 6003TIP3    H118015   3.907   3.243   4.324
 6003TIP3    H218016   3.919   3.338   4.207
 6004TIP3   OH218017   2.882   5.896   2.671
 6004TIP3    H118018   2.801   5.895   2.721
 6004TIP3    H218019   2.869   5.828   2.604
 6005TIP3   OH218020   5.964   5.262   4.075
 6005TIP3    H118021   5.963   5.273   3.980
 6005TIP3    H218022   6.048   5.220   4.094
 6006TIP3   OH218023   2.310   0.957   0.011
 6006TIP3    H118024   2.247   1.026  -0.011
 6006TIP3    H218025   2.395   0.999   0.001
 6007TIP3   OH218026   2.403   5.459   0.235
 6007TIP3    H118027   2.385   5.365   0.233
 6007TIP3    H218028   2.460   5.474   0.159
 6008TIP3   OH218029   5.969   1.856   1.844
 6008TIP3    H118030   6.057   1.821   1.851
 6008TIP3    H218031   5.935   1.855   1.933
 6009TIP3   OH218032   2.905   1.037   1.957
 6009TIP3    H118033   2.985   0.984   1.961
 6009TIP3    H218034   2.865   1.013   1.874
 6010TIP3   OH218035   3.421   2.141   1.243
 6010TIP3    H118036   3.482   2.169   1.175
 6010TIP3    H218037   3.334   2.161   1.208
 6011TIP3   OH218038   1.797   3.601   0.603
 6011TIP3    H118039   1.749   3.522   0.626
 6011TIP3    H218040   1.769   3.666   0.668
 6012TIP3   OH218041   1.172   3.621   4.581
 6012TIP3    H118042   1.189   3.557   4.649
 6012TIP3    H218043   1.165   3.569   4.500
 6013TIP3   OH218044   1.930   3.750   3.190
 6013TIP3    H118045   1.902   3.763   3.099
 6013TIP3    H218046   1.997   3.816   3.204
 6014TIP3   OH218047   2.977   0.149   2.763
 6014TIP3    H118048   2.888   0.123   2.738
 6014TIP3    H218049   3.001   0.089   2.833
 6015TIP3   OH218050   5.112   5.382   0.756
 6015TIP3    H118051   5.112   5.476   0.776
 6015TIP3    H218052   5.061   5.375   0.675
 6016TIP3   OH218053   5.199   1.807   2.245
 6016TIP3    H118054   5.170   1.751   2.173
 6016TIP3    H218055   5.120   1.852   2.274
 6017TIP3   OH218056   3.394   3.604   3.496
 6017TIP3    H118057   3.420   3.609   3.404
 6017TIP3    H218058   3.370   3.694   3.520
 6018TIP3   OH218059   2.449   1.882   1.408
 6018TIP3    H118060   2.483   1.945   1.472
 6018TIP3    H218061   2.415   1.936   1.336
 6019TIP3   OH218062   5.858   4.222   0.313
 6019TIP3    H118063   5.826   4.133   0.305
 6019TIP3    H218064   5.782   4.273   0.341
 6020TIP3   OH218065   3.170   1.731   4.877
 6020TIP3    H118066   3.138   1.799   4.818
 6020TIP3    H218067   3.150   1.764   4.965
 6021TIP3   OH218068   2.397   4.370   1.476
 6021TIP3    H118069   2.477   4.401   1.434
 6021TIP3    H218070   2.386   4.427   1.552
 6022TIP3   OH218071   1.210   1.136   1.044
 6022TIP3    H118072   1.277   1.189   1.088
 6022TIP3    H218073   1.252   1.051   1.032
 6023TIP3   OH218074   3.336   1.014   4.250
 6023TIP3    H118075   3.361   1.105   4.267
 6023TIP3    H218076   3.287   0.987   4.327
 6024TIP3   OH218077   0.557   0.440   0.680
 6024TIP3    H118078   0.608   0.389   0.617
 6024TIP3    H218079   0.492   0.486   0.625
 6025TIP3   OH218080   1.928   3.347   1.191
 6025TIP3    H118081   1.841   3.364   1.155
 6025TIP3    H218082   1.988   3.365   1.118
 6026TIP3   OH218083   4.567   3.596   2.368
 6026TIP3    H118084   4.611   3.671   2.330
 6026TIP3    H218085   4.476   3.605   2.341
 6027TIP3   OH218086   2.196   3.162   3.359
 6027TIP3    H118087   2.250   3.139   3.283
 6027TIP3    H218088   2.123   3.101   3.355
 6028TIP3   OH218089   0.470   2.918   2.549
 6028TIP3    H118090   0.508   3.002   2.575
 6028TIP3    H218091   0.375   2.935   2.549
 6029TIP3   OH218092   2.186   0.551   0.119
 6029TIP3    H118093   2.143   0.610   0.180
 6029TIP3    H218094   2.118   0.488   0.094
 6030TIP3   OH218095   0.216   4.831   1.550
 6030TIP3    H118096   0.220   4.738   1.572
 6030TIP3    H218097   0.123   4.849   1.541
 6031TIP3   OH218098   2.890   4.498   2.633
 6031TIP3    H118099   2.833   4.425   2.611
 6031TIP3    H218100   2.876   4.511   2.727
 6032TIP3   OH218101   2.581   4.220   3.581
 6032TIP3    H118102   2.631   4.224   3.500
 6032TIP3    H218103   2.632   4.161   3.637
 6033TIP3   OH218104   0.332   3.862   4.825
 6033TIP3    H118105   0.248   3.893   4.858
 6033TIP3    H218106   0.328   3.877   4.731
 6034TIP3   OH218107   1.334   1.860   4.564
 6034TIP3    H118108   1.314   1.794   4.498
 6034TIP3    H218109   1.349   1.940   4.514
 6035TIP3   OH218110   3.005   1.821   4.494
 6035TIP3    H118111   3.013   1.733   4.530
 6035TIP3    H218112   3.064   1.874   4.548
 6036TIP3   OH218113   2.105   2.165   3.597
 6036TIP3    H118114   2.145   2.148   3.682
 6036TIP3    H218115   2.177   2.157   3.535
 6037TIP3   OH218116   1.558   0.878   4.037
 6037TIP3    H118117   1.571   0.833   4.121
 6037TIP3    H218118   1.646   0.904   4.010
 6038TIP3   OH218119   0.192   1.708   2.085
 6038TIP3    H118120   0.102   1.687   2.063
 6038TIP3    H218121   0.233   1.731   2.002
 6039TIP3   OH218122   2.554   5.361   2.986
 6039TIP3    H118123   2.513   5.447   2.979
 6039TIP3    H218124   2.514   5.321   3.063
 6040TIP3   OH218125   4.339   0.619   1.017
 6040TIP3    H118126   4.326   0.535   1.062
 6040TIP3    H218127   4.343   0.684   1.088
 6041TIP3   OH218128   2.395   4.763   4.962
 6041TIP3    H118129   2.312   4.811   4.956
 6041TIP3    H218130   2.447   4.813   5.026
 6042TIP3   OH218131   0.846   2.283   0.710
 6042TIP3    H118132   0.924   2.244   0.750
 6042TIP3    H218133   0.826   2.225   0.636
 6043TIP3   OH218134   3.248   4.629   1.652
 6043TIP3    H118135   3.329   4.666   1.616
 6043TIP3    H218136   3.219   4.694   1.717
 6044TIP3   OH218137   2.285   0.717   0.668
 6044TIP3    H118138   2.264   0.737   0.760
 6044TIP3    H218139   2.200   0.694   0.629
 6045TIP3   OH218140   3.013   5.955   0.970
 6045TIP3    H118141   3.073   5.880   0.967
 6045TIP3    H218142   3.035   6.006   0.892
 6046TIP3   OH218143   1.603   4.703   5.075
 6046TIP3    H118144   1.694   4.681   5.094
 6046TIP3    H218145   1.569   4.627   5.027
 6047TIP3   OH218146   3.346   1.595   3.042
 6047TIP3    H118147   3.251   1.585   3.050
 6047TIP3    H218148   3.372   1.643   3.120
 6048TIP3   OH218149   1.037   5.070   3.317
 6048TIP3    H118150   1.012   5.005   3.251
 6048TIP3    H218151   1.132   5.071   3.314
 6049TIP3   OH218152   0.471   4.682   2.623
 6049TIP3    H118153   0.525   4.619   2.672
 6049TIP3    H218154   0.449   4.636   2.542
 6050TIP3   OH218155   1.225   2.403   2.925
 6050TIP3    H118156   1.287   2.466   2.963
 6050TIP3    H218157   1.280   2.338   2.883
 6051TIP3   OH218158   3.258   0.884   1.736
 6051TIP3    H118159   3.218   0.867   1.651
 6051TIP3    H218160   3.342   0.838   1.733
 6052TIP3   OH218161   1.562   3.414   1.732
 6052TIP3    H118162   1.528   3.413   1.822
 6052TIP3    H218163   1.603   3.499   1.723
 6053TIP3   OH218164   2.176   0.080   0.148
 6053TIP3    H118165   2.230   0.004   0.166
 6053TIP3    H218166   2.181   0.132   0.229
 6054TIP3   OH218167   1.942   4.021   2.320
 6054TIP3    H118168   1.978   3.932   2.313
 6054TIP3    H218169   1.872   4.023   2.255
 6055TIP3   OH218170   3.584   1.526   4.848
 6055TIP3    H118171   3.663   1.479   4.824
 6055TIP3    H218172   3.543   1.472   4.915
 6056TIP3   OH218173   5.347   0.330   1.927
 6056TIP3    H118174   5.344   0.404   1.987
 6056TIP3    H218175   5.259   0.327   1.887
 6057TIP3   OH218176   0.838   4.310   2.687
 6057TIP3    H118177   0.842   4.226   2.640
 6057TIP3    H218178   0.906   4.303   2.754
 6058TIP3   OH218179   1.890   5.001   4.631
 6058TIP3    H118180   1.980   5.031   4.638
 6058TIP3    H218181   1.878   4.981   4.538
 6059TIP3   OH218182   1.538   0.359   4.333
 6059TIP3    H118183   1.539   0.442   4.380
 6059TIP3    H218184   1.564   0.382   4.243
 6060TIP3   OH218185   1.753   5.981   3.986
 6060TIP3    H118186   1.728   6.051   4.047
 6060TIP3    H218187   1.818   5.929   4.034
 6061TIP3   OH218188   2.453   5.917   2.092
 6061TIP3    H118189   2.446   5.970   2.171
 6061TIP3    H218190   2.521   5.961   2.040
 6062TIP3   OH218191   4.428   5.151   1.785
 6062TIP3    H118192   4.341   5.189   1.774
 6062TIP3    H218193   4.459   5.135   1.696
 6063TIP3   OH218194   4.414   3.267   2.387
 6063TIP3    H118195   4.355   3.200   2.420
 6063TIP3    H218196   4.431   3.324   2.462
 6064TIP3   OH218197   1.665   0.025   5.168
 6064TIP3    H118198   1.695  -0.061   5.197
 6064TIP3    H218199   1.633   0.067   5.248
 6065TIP3   OH218200   2.211   2.237   1.098
 6065TIP3    H118201   2.250   2.321   1.122
 6065TIP3    H218202   2.186   2.247   1.006
 6066TIP3   OH218203   0.695   1.963   1.913
 6066TIP3    H118204   0.678   1.944   2.005
 6066TIP3    H218205   0.746   1.887   1.883
 6067TIP3   OH218206   2.435   5.282   1.300
 6067TIP3    H118207   2.530   5.269   1.299
 6067TIP3    H218208   2.403   5.231   1.226
 6068TIP3   OH218209   4.792   4.676   2.814
 6068TIP3    H118210   4.750   4.652   2.896
 6068TIP3    H218211   4.782   4.599   2.758
 6069TIP3   OH218212   4.459   2.120   4.890
 6069TIP3    H118213   4.521   2.057   4.928
 6069TIP3    H218214   4.484   2.126   4.798
 6070TIP3   OH218215   1.214   0.470   0.595
 6070TIP3    H118216   1.286   0.438   0.650
 6070TIP3    H218217   1.137   0.420   0.626
 6071TIP3   OH218218   1.839   1.268   3.922
 6071TIP3    H118219   1.753   1.300   3.895
 6071TIP3    H218220   1.898   1.340   3.900
 6072TIP3   OH218221   1.708   3.549   3.843
 6072TIP3    H118222   1.744   3.582   3.925
 6072TIP3    H218223   1.774   3.488   3.810
 6073TIP3   OH218224   5.587   0.208   1.521
 6073TIP3    H118225   5.503   0.249   1.502
 6073TIP3    H218226   5.649   0.252   1.463
 6074TIP3   OH218227   0.504   3.469   2.221
 6074TIP3    H118228   0.474   3.521   2.146
 6074TIP3    H218229   0.595   3.446   2.199
 6075TIP3   OH218230   3.110   2.306   4.618
 6075TIP3    H118231   3.085   2.362   4.545
 6075TIP3    H218232   3.142   2.366   4.685
 6076TIP3   OH218233   5.929   1.332   2.518
 6076TIP3    H118234   5.943   1.239   2.500
 6076TIP3    H218235   6.001   1.356   2.577
 6077TIP3   OH218236   3.642   5.046   0.606
 6077TIP3    H118237   3.725   5.080   0.572
 6077TIP3    H218238   3.596   5.013   0.529
 6078TIP3   OH218239   1.086   4.542   1.929
 6078TIP3    H118240   1.147   4.616   1.933
 6078TIP3    H218241   1.107   4.490   2.007
 6079TIP3   OH218242   0.623   4.151   3.769
 6079TIP3    H118243   0.693   4.177   3.709
 6079TIP3    H218244   0.544   4.188   3.730
 6080TIP3   OH218245   4.677   2.477   1.448
 6080TIP3    H118246   4.664   2.507   1.538
 6080TIP3    H218247   4.662   2.383   1.452
 6081TIP3   OH218248   1.447   1.837   0.221
 6081TIP3    H118249   1.514   1.821   0.155
 6081TIP3    H218250   1.488   1.897   0.283
 6082TIP3   OH218251   2.058   0.544   3.091
 6082TIP3    H118252   2.103   0.586   3.164
 6082TIP3    H218253   2.047   0.613   3.026
 6083TIP3   OH218254   0.118   1.382   5.084
 6083TIP3    H118255   0.086   1.366   4.995
 6083TIP3    H218256   0.160   1.468   5.079
 6084TIP3   OH218257   2.142   3.001   4.384
 6084TIP3    H118258   2.088   2.989   4.306
 6084TIP3    H218259   2.223   3.041   4.351
 6085TIP3   OH218260   2.690   5.244   1.583
 6085TIP3    H118261   2.694   5.270   1.492
 6085TIP3    H218262   2.602   5.267   1.611
 6086TIP3   OH218263   3.921   3.410   3.707
 6086TIP3    H118264   3.865   3.423   3.631
 6086TIP3    H218265   3.862   3.372   3.773
 6087TIP3   OH218266   2.195   3.622   1.162
 6087TIP3    H118267   2.167   3.538   1.125
 6087TIP3    H218268   2.113   3.662   1.192
 6088TIP3   OH218269   2.128   0.946   1.134
 6088TIP3    H118270   2.188   0.950   1.208
 6088TIP3    H218271   2.052   0.997   1.161
 6089TIP3   OH218272   1.297   0.103   3.769
 6089TIP3    H118273   1.359   0.031   3.753
 6089TIP3    H218274   1.248   0.111   3.688
 6090TIP3   OH218275   2.556   3.353   4.378
 6090TIP3    H118276   2.604   3.270   4.387
 6090TIP3    H218277   2.615   3.419   4.415
 6091TIP3   OH218278   5.640   2.318   1.892
 6091TIP3    H118279   5.591   2.243   1.925
 6091TIP3    H218280   5.668   2.366   1.970
 6092TIP3   OH218281   2.825   0.928   1.687
 6092TIP3    H118282   2.731   0.917   1.679
 6092TIP3    H218283   2.861   0.843   1.660
 6093TIP3   OH218284   3.876   5.470   2.747
 6093TIP3    H118285   3.867   5.424   2.664
 6093TIP3    H218286   3.937   5.542   2.729
 6094TIP3   OH218287   2.985   1.836   1.558
 6094TIP3    H118288   2.949   1.843   1.469
 6094TIP3    H218289   2.972   1.745   1.582
 6095TIP3   OH218290   1.744   1.489   2.729
 6095TIP3    H118291   1.665   1.497   2.783
 6095TIP3    H218292   1.815   1.477   2.791
 6096TIP3   OH218293   5.461   4.175   0.654
 6096TIP3    H118294   5.427   4.190   0.566
 6096TIP3    H218295   5.415   4.097   0.685
 6097TIP3   OH218296   3.276   5.529   3.416
 6097TIP3    H118297   3.209   5.597   3.415
 6097TIP3    H218298   3.294   5.515   3.509
 6098TIP3   OH218299   0.224   0.107   1.797
 6098TIP3    H118300   0.240   0.190   1.842
 6098TIP3    H218301   0.141   0.076   1.833
 6099TIP3   OH218302   3.527   3.298   4.383
 6099TIP3    H118303   3.534   3.393   4.373
 6099TIP3    H218304   3.450   3.285   4.438
 6100TIP3   OH218305   2.969   0.861   0.885
 6100TIP3    H118306   3.034   0.879   0.953
 6100TIP3    H218307   2.916   0.941   0.881
 6101TIP3   OH218308   5.652   1.947   0.016
 6101TIP3    H118309   5.604   1.943  -0.066
 6101TIP3    H218310   5.743   1.959  -0.010
 6102TIP3   OH218311   2.141   5.856   1.987
 6102TIP3    H118312   2.193   5.794   2.038
 6102TIP3    H218313   2.101   5.802   1.918
 6103TIP3   OH218314   3.223   2.106   4.108
 6103TIP3    H118315   3.262   2.112   4.021
 6103TIP3    H218316   3.210   2.196   4.135
 6104TIP3   OH218317   0.862   0.393   5.133
 6104TIP3    H118318   0.806   0.357   5.065
 6104TIP3    H218319   0.950   0.391   5.094
 6105TIP3   OH218320   5.062   5.998   3.993
 6105TIP3    H118321   5.108   6.056   3.932
 6105TIP3    H218322   5.124   5.928   4.010
 6106TIP3   OH218323   4.914   3.029   2.923
 6106TIP3    H118324   5.002   3.004   2.894
 6106TIP3    H218325   4.916   3.125   2.926
 6107TIP3   OH218326   3.428   0.760   3.227
 6107TIP3    H118327   3.516   0.749   3.190
 6107TIP3    H218328   3.390   0.832   3.176
 6108TIP3   OH218329   2.520   3.182   4.052
 6108TIP3    H118330   2.525   3.103   4.000
 6108TIP3    H218331   2.611   3.207   4.067
 6109TIP3   OH218332   1.141   0.452   2.228
 6109TIP3    H118333   1.056   0.417   2.203
 6109TIP3    H218334   1.192   0.452   2.148
 6110TIP3   OH218335   3.839   0.551   3.347
 6110TIP3    H118336   3.854   0.640   3.379
 6110TIP3    H218337   3.768   0.561   3.283
 6111TIP3   OH218338   0.847   1.153   3.393
 6111TIP3    H118339   0.852   1.063   3.361
 6111TIP3    H218340   0.938   1.181   3.400
 6112TIP3   OH218341   5.877   5.605   4.000
 6112TIP3    H118342   5.934   5.586   3.926
 6112TIP3    H218343   5.857   5.520   4.038
 6113TIP3   OH218344   4.975   4.290   4.384
 6113TIP3    H118345   4.904   4.225   4.383
 6113TIP3    H218346   5.031   4.265   4.310
 6114TIP3   OH218347   2.949   0.288   5.188
 6114TIP3    H118348   2.953   0.209   5.242
 6114TIP3    H218349   2.927   0.358   5.250
 6115TIP3   OH218350   1.217   1.643   3.456
 6115TIP3    H118351   1.233   1.737   3.443
 6115TIP3    H218352   1.276   1.600   3.394
 6116TIP3   OH218353   5.596   5.332   3.324
 6116TIP3    H118354   5.518   5.366   3.367
 6116TIP3    H218355   5.588   5.237   3.331
 6117TIP3   OH218356   1.088   1.966   3.678
 6117TIP3    H118357   1.159   2.022   3.648
 6117TIP3    H218358   1.079   1.987   3.771
 6118TIP3   OH218359   2.058   2.612   4.736
 6118TIP3    H118360   1.977   2.655   4.764
 6118TIP3    H218361   2.104   2.593   4.817
 6119TIP3   OH218362   6.246   0.891   4.177
 6119TIP3    H118363   6.213   0.950   4.109
 6119TIP3    H218364   6.175   0.886   4.241
 6120TIP3   OH218365   3.150   0.874   1.081
 6120TIP3    H118366   3.171   0.782   1.100
 6120TIP3    H218367   3.232   0.910   1.045
 6121TIP3   OH218368   3.627   2.383   2.354
 6121TIP3    H118369   3.580   2.425   2.282
 6121TIP3    H218370   3.607   2.437   2.430
 6122TIP3   OH218371   5.756   3.708   0.772
 6122TIP3    H118372   5.813   3.785   0.779
 6122TIP3    H218373   5.811   3.634   0.797
 6123TIP3   OH218374   1.958   2.372   3.735
 6123TIP3    H118375   1.927   2.320   3.808
 6123TIP3    H218376   2.013   2.312   3.684
 6124TIP3   OH218377   4.011   2.045   0.069
 6124TIP3    H118378   4.040   1.993  -0.007
 6124TIP3    H218379   4.080   2.109   0.082
 6125TIP3   OH218380   3.186   1.330   3.185
 6125TIP3    H118381   3.115   1.296   3.130
 6125TIP3    H218382   3.224   1.253   3.226
 6126TIP3   OH218383   5.319   0.123   3.995
 6126TIP3    H118384   5.404   0.079   3.998
 6126TIP3    H218385   5.340   0.216   3.986
 6127TIP3   OH218386   1.014   5.340   3.158
 6127TIP3    H118387   1.087   5.399   3.140
 6127TIP3    H218388   1.049   5.275   3.218
 6128TIP3   OH218389   3.866   4.171   3.147
 6128TIP3    H118390   3.815   4.096   3.117
 6128TIP3    H218391   3.928   4.134   3.210
 6129TIP3   OH218392   0.269   4.006   3.255
 6129TIP3    H118393   0.281   3.972   3.344
 6129TIP3    H218394   0.197   3.954   3.219
 6130TIP3   OH218395   2.076   4.773   2.879
 6130TIP3    H118396   2.100   4.855   2.836
 6130TIP3    H218397   2.006   4.737   2.825
 6131TIP3   OH218398   2.163   2.366   2.157
 6131TIP3    H118399   2.115   2.398   2.081
 6131TIP3    H218400   2.221   2.438   2.182
 6132TIP3   OH218401   5.048   1.952   0.173
 6132TIP3    H118402   5.035   1.879   0.112
 6132TIP3    H218403   5.070   1.910   0.256
 6133TIP3   OH218404   2.651   5.088   2.348
 6133TIP3    H118405   2.571   5.133   2.323
 6133TIP3    H218406   2.664   5.111   2.440
 6134TIP3   OH218407   1.302   5.859   0.797
 6134TIP3    H118408   1.376   5.813   0.836
 6134TIP3    H218409   1.248   5.790   0.759
 6135TIP3   OH218410   0.800   2.203   1.958
 6135TIP3    H118411   0.756   2.131   1.913
 6135TIP3    H218412   0.750   2.281   1.934
 6136TIP3   OH218413   5.081   0.490   3.489
 6136TIP3    H118414   5.139   0.555   3.452
 6136TIP3    H218415   5.048   0.529   3.570
 6137TIP3   OH218416   3.455   0.084   0.653
 6137TIP3    H118417   3.454   0.005   0.708
 6137TIP3    H218418   3.376   0.131   0.677
 6138TIP3   OH218419   2.159   5.900   2.893
 6138TIP3    H118420   2.134   5.948   2.972
 6138TIP3    H218421   2.084   5.909   2.834
 6139TIP3   OH218422   0.882   0.265   0.183
 6139TIP3    H118423   0.966   0.222   0.203
 6139TIP3    H218424   0.816   0.202   0.212
 6140TIP3   OH218425   0.781   0.279   3.175
 6140TIP3    H118426   0.781   0.342   3.247
 6140TIP3    H218427   0.869   0.283   3.140
 6141TIP3   OH218428   5.383   1.129   0.561
 6141TIP3    H118429   5.369   1.156   0.470
 6141TIP3    H218430   5.425   1.044   0.554
 6142TIP3   OH218431   5.785   0.628   2.076
 6142TIP3    H118432   5.704   0.618   2.126
 6142TIP3    H218433   5.849   0.574   2.121
 6143TIP3   OH218434   1.871   5.507   4.756
 6143TIP3    H118435   1.824   5.475   4.679
 6143TIP3    H218436   1.814   5.485   4.830
 6144TIP3   OH218437   5.737   2.941   1.622
 6144TIP3    H118438   5.747   3.016   1.563
 6144TIP3    H218439   5.748   2.865   1.565
 6145TIP3   OH218440   6.063   2.273   3.646
 6145TIP3    H118441   5.968   2.265   3.654
 6145TIP3    H218442   6.086   2.212   3.576
 6146TIP3   OH218443   5.324   4.683   0.812
 6146TIP3    H118444   5.242   4.638   0.793
 6146TIP3    H218445   5.311   4.723   0.897
 6147TIP3   OH218446   3.642   2.258   3.159
 6147TIP3    H118447   3.600   2.177   3.131
 6147TIP3    H218448   3.617   2.322   3.092
 6148TIP3   OH218449   6.226   4.414   3.886
 6148TIP3    H118450   6.218   4.370   3.801
 6148TIP3    H218451   6.146   4.465   3.895
 6149TIP3   OH218452   3.786   5.033   2.515
 6149TIP3    H118453   3.798   5.037   2.420
 6149TIP3    H218454   3.777   4.940   2.534
 6150TIP3   OH218455   0.622   3.215   0.262
 6150TIP3    H118456   0.597   3.126   0.238
 6150TIP3    H218457   0.695   3.205   0.323
 6151TIP3   OH218458   6.311   2.147   2.990
 6151TIP3    H118459   6.382   2.187   2.940
 6151TIP3    H218460   6.231   2.180   2.949
 6152TIP3   OH218461   2.186   3.407   3.542
 6152TIP3    H118462   2.192   3.415   3.638
 6152TIP3    H218463   2.197   3.314   3.525
 6153TIP3   OH218464   0.881   5.031   0.361
 6153TIP3    H118465   0.922   4.951   0.394
 6153TIP3    H218466   0.797   5.036   0.406
 6154TIP3   OH218467   1.913   2.143   2.006
 6154TIP3    H118468   2.007   2.127   1.998
 6154TIP3    H218469   1.902   2.182   2.093
 6155TIP3   OH218470   2.422   3.815   1.081
 6155TIP3    H118471   2.399   3.789   1.170
 6155TIP3    H218472   2.347   3.787   1.028
 6156TIP3   OH218473   1.309   2.607   2.129
 6156TIP3    H118474   1.267   2.682   2.088
 6156TIP3    H218475   1.289   2.534   2.071
 6157TIP3   OH218476   2.250   4.141   1.941
 6157TIP3    H118477   2.305   4.089   1.882
 6157TIP3    H218478   2.161   4.130   1.906
 6158TIP3   OH218479   0.437   4.193   0.283
 6158TIP3    H118480   0.426   4.264   0.219
 6158TIP3    H218481   0.423   4.113   0.232
 6159TIP3   OH218482   3.941   0.775   3.523
 6159TIP3    H118483   3.876   0.716   3.563
 6159TIP3    H218484   3.934   0.856   3.572
 6160TIP3   OH218485   5.949   0.231   2.476
 6160TIP3    H118486   5.940   0.146   2.517
 6160TIP3    H218487   5.998   0.284   2.539
 6161TIP3   OH218488   0.608   0.277   2.204
 6161TIP3    H118489   0.649   0.225   2.135
 6161TIP3    H218490   0.525   0.307   2.165
 6162TIP3   OH218491   2.398   4.963   2.198
 6162TIP3    H118492   2.424   4.906   2.270
 6162TIP3    H218493   2.402   5.051   2.235
 6163TIP3   OH218494   4.059   1.830   1.708
 6163TIP3    H118495   4.083   1.893   1.776
 6163TIP3    H218496   4.123   1.759   1.718
 6164TIP3   OH218497   6.056   4.663   1.930
 6164TIP3    H118498   6.059   4.632   1.840
 6164TIP3    H218499   6.072   4.584   1.983
 6165TIP3   OH218500   1.786   3.827   1.835
 6165TIP3    H118501   1.790   3.755   1.773
 6165TIP3    H218502   1.877   3.843   1.860
 6166TIP3   OH218503   4.756   4.963   0.459
 6166TIP3    H118504   4.811   4.977   0.382
 6166TIP3    H218505   4.705   5.043   0.467
 6167TIP3   OH218506   3.270   2.727   4.673
 6167TIP3    H118507   3.350   2.675   4.670
 6167TIP3    H218508   3.264   2.755   4.765
 6168TIP3   OH218509   6.209   5.982   5.188
 6168TIP3    H118510   6.276   6.037   5.148
 6168TIP3    H218511   6.131   5.997   5.134
 6169TIP3   OH218512   3.331   2.474   3.934
 6169TIP3    H118513   3.388   2.551   3.928
 6169TIP3    H218514   3.375   2.407   3.883
 6170TIP3   OH218515   1.943   1.268   3.299
 6170TIP3    H118516   1.976   1.196   3.245
 6170TIP3    H218517   1.944   1.234   3.388
 6171TIP3   OH218518   3.997   0.815   4.553
 6171TIP3    H118519   3.998   0.895   4.606
 6171TIP3    H218520   4.086   0.781   4.559
 6172TIP3   OH218521   6.065   0.997   4.402
 6172TIP3    H118522   6.029   1.081   4.374
 6172TIP3    H218523   5.995   0.934   4.384
 6173TIP3   OH218524   5.229   1.757   1.961
 6173TIP3    H118525   5.313   1.777   2.003
 6173TIP3    H218526   5.253   1.725   1.874
 6174TIP3   OH218527   0.680   1.152   0.909
 6174TIP3    H118528   0.697   1.122   0.819
 6174TIP3    H218529   0.739   1.101   0.963
 6175TIP3   OH218530   3.354   3.464   0.936
 6175TIP3    H118531   3.312   3.417   1.008
 6175TIP3    H218532   3.435   3.498   0.974
 6176TIP3   OH218533   3.778   0.693   3.913
 6176TIP3    H118534   3.815   0.622   3.966
 6176TIP3    H218535   3.683   0.686   3.926
 6177TIP3   OH218536   4.629   3.192   2.182
 6177TIP3    H118537   4.550   3.211   2.232
 6177TIP3    H218538   4.630   3.097   2.173
 6178TIP3   OH218539   5.709   2.279   1.627
 6178TIP3    H118540   5.698   2.318   1.714
 6178TIP3    H218541   5.748   2.193   1.644
 6179TIP3   OH218542   4.087   4.599   4.800
 6179TIP3    H118543   4.131   4.658   4.739
 6179TIP3    H218544   4.014   4.563   4.750
 6180TIP3   OH218545   2.741   5.452   0.359
 6180TIP3    H118546   2.657   5.490   0.385
 6180TIP3    H218547   2.718   5.382   0.299
 6181TIP3   OH218548   4.726   4.668   1.138
 6181TIP3    H118549   4.695   4.622   1.216
 6181TIP3    H218550   4.697   4.613   1.065
 6182TIP3   OH218551   2.078   3.192   1.336
 6182TIP3    H118552   2.157   3.169   1.286
 6182TIP3    H218553   2.029   3.249   1.278
 6183TIP3   OH218554   5.292   3.446   4.660
 6183TIP3    H118555   5.319   3.355   4.655
 6183TIP3    H218556   5.207   3.443   4.705
 6184TIP3   OH218557   4.158   3.197   4.617
 6184TIP3    H118558   4.185   3.275   4.568
 6184TIP3    H218559   4.070   3.217   4.649
 6185TIP3   OH218560   1.221   5.618   3.919
 6185TIP3    H118561   1.201   5.551   3.984
 6185TIP3    H218562   1.205   5.701   3.964
 6186TIP3   OH218563   3.766   5.689   0.699
 6186TIP3    H118564   3.734   5.779   0.699
 6186TIP3    H218565   3.772   5.666   0.792
 6187TIP3   OH218566   3.210   3.357   2.217
 6187TIP3    H118567   3.231   3.384   2.128
 6187TIP3    H218568   3.147   3.286   2.207
 6188TIP3   OH218569   6.037   1.121   2.349
 6188TIP3    H118570   6.036   1.025   2.346
 6188TIP3    H218571   5.993   1.148   2.269
 6189TIP3   OH218572   3.617   1.883   0.411
 6189TIP3    H118573   3.606   1.849   0.499
 6189TIP3    H218574   3.682   1.826   0.370
 6190TIP3   OH218575   3.291   5.356   1.953
 6190TIP3    H118576   3.216   5.333   2.006
 6190TIP3    H218577   3.302   5.450   1.966
 6191TIP3   OH218578   2.515   2.818   1.449
 6191TIP3    H118579   2.604   2.844   1.470
 6191TIP3    H218580   2.470   2.816   1.534
 6192TIP3   OH218581   0.450   3.686   0.387
 6192TIP3    H118582   0.380   3.724   0.440
 6192TIP3    H218583   0.499   3.761   0.354
 6193TIP3   OH218584   2.001   3.280   0.757
 6193TIP3    H118585   1.936   3.282   0.688
 6193TIP3    H218586   1.966   3.221   0.823
 6194TIP3   OH218587   3.355   4.178   2.942
 6194TIP3    H118588   3.279   4.133   2.980
 6194TIP3    H218589   3.372   4.131   2.860
 6195TIP3   OH218590   0.515   1.678   5.144
 6195TIP3    H118591   0.420   1.676   5.127
 6195TIP3    H218592   0.540   1.586   5.153
 6196TIP3   OH218593   1.568   1.082   2.202
 6196TIP3    H118594   1.511   1.117   2.271
 6196TIP3    H218595   1.509   1.065   2.129
 6197TIP3   OH218596   3.676   3.726   4.860
 6197TIP3    H118597   3.709   3.731   4.770
 6197TIP3    H218598   3.659   3.633   4.873
 6198TIP3   OH218599   4.733   4.022   0.955
 6198TIP3    H118600   4.791   3.964   0.904
 6198TIP3    H218601   4.754   4.002   1.046
 6199TIP3   OH218602   0.866   0.283   0.767
 6199TIP3    H118603   0.930   0.267   0.836
 6199TIP3    H218604   0.914   0.270   0.686
 6200TIP3   OH218605   6.200   3.217   3.151
 6200TIP3    H118606   6.194   3.174   3.236
 6200TIP3    H218607   6.158   3.302   3.165
 6201TIP3   OH218608   1.769   5.962   1.101
 6201TIP3    H118609   1.783   6.046   1.144
 6201TIP3    H218610   1.760   5.899   1.172
 6202TIP3   OH218611   5.431   1.578   3.749
 6202TIP3    H118612   5.351   1.623   3.777
 6202TIP3    H218613   5.425   1.575   3.654
 6203TIP3   OH218614   3.330   0.102   4.456
 6203TIP3    H118615   3.407   0.152   4.429
 6203TIP3    H218616   3.275   0.166   4.502
 6204TIP3   OH218617   4.975   2.067   0.786
 6204TIP3    H118618   5.003   1.976   0.791
 6204TIP3    H218619   5.025   2.104   0.714
 6205TIP3   OH218620   0.189   4.804   3.760
 6205TIP3    H118621   0.210   4.768   3.674
 6205TIP3    H218622   0.274   4.833   3.795
 6206TIP3   OH218623   1.785   4.078   0.893
 6206TIP3    H118624   1.866   4.056   0.848
 6206TIP3    H218625   1.756   4.159   0.851
 6207TIP3   OH218626   6.313   0.051   0.832
 6207TIP3    H118627   6.317   0.147   0.834
 6207TIP3    H218628   6.219   0.032   0.829
 6208TIP3   OH218629   4.875   3.848   0.306
 6208TIP3    H118630   4.883   3.943   0.312
 6208TIP3    H218631   4.784   3.829   0.327
 6209TIP3   OH218632   3.810   4.060   2.231
 6209TIP3    H118633   3.890   4.021   2.194
 6209TIP3    H218634   3.781   3.997   2.297
 6210TIP3   OH218635   4.201   3.031   2.222
 6210TIP3    H118636   4.193   3.123   2.199
 6210TIP3    H218637   4.111   2.999   2.224
 6211TIP3   OH218638   1.647   3.001   5.145
 6211TIP3    H118639   1.618   3.059   5.075
 6211TIP3    H218640   1.603   3.033   5.223
 6212TIP3   OH218641   5.236   5.591   4.739
 6212TIP3    H118642   5.159   5.560   4.786
 6212TIP3    H218643   5.308   5.540   4.776
 6213TIP3   OH218644   1.486   0.210   3.040
 6213TIP3    H118645   1.486   0.283   3.102
 6213TIP3    H218646   1.413   0.155   3.067
 6214TIP3   OH218647   4.063   4.927   3.641
 6214TIP3    H118648   4.051   4.996   3.706
 6214TIP3    H218649   4.049   4.971   3.557
 6215TIP3   OH218650   4.630   2.566   3.444
 6215TIP3    H118651   4.538   2.586   3.431
 6215TIP3    H218652   4.662   2.542   3.357
 6216TIP3   OH218653   2.554   4.532   3.278
 6216TIP3    H118654   2.602   4.579   3.209
 6216TIP3    H218655   2.532   4.599   3.342
 6217TIP3   OH218656   0.262   4.972   0.305
 6217TIP3    H118657   0.306   5.054   0.281
 6217TIP3    H218658   0.330   4.922   0.351
 6218TIP3   OH218659   5.385   1.294   3.274
 6218TIP3    H118660   5.343   1.270   3.357
 6218TIP3    H218661   5.365   1.387   3.263
 6219TIP3   OH218662   1.196   0.518   0.274
 6219TIP3    H118663   1.256   0.532   0.348
 6219TIP3    H218664   1.251   0.530   0.196
 6220TIP3   OH218665   6.024   4.429   1.450
 6220TIP3    H118666   5.956   4.466   1.394
 6220TIP3    H218667   6.062   4.358   1.398
 6221TIP3   OH218668   2.248   1.281   0.168
 6221TIP3    H118669   2.173   1.291   0.227
 6221TIP3    H218670   2.219   1.219   0.101
 6222TIP3   OH218671   4.042   5.773   1.202
 6222TIP3    H118672   4.114   5.791   1.141
 6222TIP3    H218673   4.068   5.693   1.247
 6223TIP3   OH218674   1.529   0.242   4.899
 6223TIP3    H118675   1.500   0.151   4.900
 6223TIP3    H218676   1.466   0.287   4.843
 6224TIP3   OH218677   5.566   3.560   3.112
 6224TIP3    H118678   5.518   3.580   3.192
 6224TIP3    H218679   5.538   3.472   3.088
 6225TIP3   OH218680   2.753   5.344   3.713
 6225TIP3    H118681   2.834   5.379   3.677
 6225TIP3    H218682   2.723   5.410   3.775
 6226TIP3   OH218683   3.964   3.134   0.962
 6226TIP3    H118684   3.902   3.207   0.956
 6226TIP3    H218685   4.050   3.176   0.968
 6227TIP3   OH218686   0.278   1.920   0.169
 6227TIP3    H118687   0.197   1.878   0.197
 6227TIP3    H218688   0.338   1.847   0.153
 6228TIP3   OH218689   5.169   3.866   2.178
 6228TIP3    H118690   5.248   3.819   2.152
 6228TIP3    H218691   5.100   3.800   2.180
 6229TIP3   OH218692   4.740   1.253   4.667
 6229TIP3    H118693   4.834   1.244   4.652
 6229TIP3    H218694   4.718   1.339   4.630
 6230TIP3   OH218695   4.765   1.797   3.544
 6230TIP3    H118696   4.784   1.703   3.548
 6230TIP3    H218697   4.671   1.801   3.526
 6231TIP3   OH218698   2.674   4.388   0.013
 6231TIP3    H118699   2.711   4.304   0.038
 6231TIP3    H218700   2.585   4.388   0.049
 6232TIP3   OH218701   0.542   5.395   2.415
 6232TIP3    H118702   0.542   5.309   2.457
 6232TIP3    H218703   0.596   5.383   2.337
 6233TIP3   OH218704   5.910   5.840   2.718
 6233TIP3    H118705   5.956   5.853   2.635
 6233TIP3    H218706   5.944   5.909   2.775
 6234TIP3   OH218707   2.448   3.036   3.259
 6234TIP3    H118708   2.507   2.963   3.242
 6234TIP3    H218709   2.396   3.044   3.179
 6235TIP3   OH218710   2.139   0.427   5.104
 6235TIP3    H118711   2.225   0.394   5.081
 6235TIP3    H218712   2.139   0.518   5.073
 6236TIP3   OH218713   2.774   1.577   0.586
 6236TIP3    H118714   2.680   1.570   0.569
 6236TIP3    H218715   2.813   1.598   0.501
 6237TIP3   OH218716   0.569   2.228   2.579
 6237TIP3    H118717   0.501   2.186   2.526
 6237TIP3    H218718   0.521   2.275   2.647
 6238TIP3   OH218719   5.174   2.429   4.577
 6238TIP3    H118720   5.144   2.512   4.540
 6238TIP3    H218721   5.257   2.412   4.533
 6239TIP3   OH218722   2.383   2.412   1.924
 6239TIP3    H118723   2.420   2.327   1.950
 6239TIP3    H218724   2.345   2.448   2.004
 6240TIP3   OH218725   5.014   3.828   0.943
 6240TIP3    H118726   4.936   3.773   0.935
 6240TIP3    H218727   5.087   3.771   0.918
 6241TIP3   OH218728   0.689   0.055   4.622
 6241TIP3    H118729   0.743   0.087   4.695
 6241TIP3    H218730   0.721   0.103   4.546
 6242TIP3   OH218731   1.371   3.896   1.276
 6242TIP3    H118732   1.422   3.916   1.197
 6242TIP3    H218733   1.437   3.873   1.342
 6243TIP3   OH218734   5.454   1.282   3.754
 6243TIP3    H118735   5.517   1.267   3.685
 6243TIP3    H218736   5.441   1.376   3.755
 6244TIP3   OH218737   3.574   2.815   2.776
 6244TIP3    H118738   3.662   2.785   2.755
 6244TIP3    H218739   3.547   2.866   2.699
 6245TIP3   OH218740   3.501   0.763   1.713
 6245TIP3    H118741   3.557   0.801   1.781
 6245TIP3    H218742   3.477   0.677   1.747
 6246TIP3   OH218743   3.149   3.895   4.808
 6246TIP3    H118744   3.234   3.869   4.773
 6246TIP3    H218745   3.116   3.816   4.853
 6247TIP3   OH218746   1.421   5.744   1.948
 6247TIP3    H118747   1.464   5.829   1.956
 6247TIP3    H218748   1.363   5.739   2.024
 6248TIP3   OH218749   0.876   2.449   1.354
 6248TIP3    H118750   0.850   2.432   1.445
 6248TIP3    H218751   0.945   2.516   1.361
 6249TIP3   OH218752   1.023   2.628   2.917
 6249TIP3    H118753   1.102   2.668   2.953
 6249TIP3    H218754   0.973   2.701   2.881
 6250TIP3   OH218755   1.079   4.000   2.352
 6250TIP3    H118756   1.171   3.986   2.332
 6250TIP3    H218757   1.038   3.914   2.341
 6251TIP3   OH218758   4.437   2.884   0.364
 6251TIP3    H118759   4.494   2.857   0.293
 6251TIP3    H218760   4.489   2.947   0.414
 6252TIP3   OH218761   2.501   1.664   3.412
 6252TIP3    H118762   2.491   1.579   3.455
 6252TIP3    H218763   2.438   1.721   3.456
 6253TIP3   OH218764   3.786   3.581   0.273
 6253TIP3    H118765   3.828   3.497   0.292
 6253TIP3    H218766   3.732   3.598   0.350
 6254TIP3   OH218767   3.166   0.667   3.251
 6254TIP3    H118768   3.089   0.722   3.269
 6254TIP3    H218769   3.241   0.723   3.272
 6255TIP3   OH218770   0.445   5.730   1.986
 6255TIP3    H118771   0.354   5.706   2.002
 6255TIP3    H218772   0.488   5.647   1.966
 6256TIP3   OH218773   5.857   1.097   2.153
 6256TIP3    H118774   5.801   1.022   2.135
 6256TIP3    H218775   5.800   1.161   2.195
 6257TIP3   OH218776   2.165   3.297   0.057
 6257TIP3    H118777   2.134   3.207   0.047
 6257TIP3    H218778   2.114   3.332   0.130
 6258TIP3   OH218779   2.830   3.574   0.507
 6258TIP3    H118780   2.875   3.492   0.486
 6258TIP3    H218781   2.752   3.572   0.453
 6259TIP3   OH218782   4.148   2.372   4.469
 6259TIP3    H118783   4.185   2.306   4.527
 6259TIP3    H218784   4.218   2.392   4.406
 6260TIP3   OH218785   3.836   4.473   0.955
 6260TIP3    H118786   3.757   4.516   0.988
 6260TIP3    H218787   3.813   4.446   0.866
 6261TIP3   OH218788   0.400   4.768   5.018
 6261TIP3    H118789   0.395   4.790   4.925
 6261TIP3    H218790   0.447   4.684   5.020
 6262TIP3   OH218791   6.008   4.305   1.709
 6262TIP3    H118792   6.006   4.333   1.618
 6262TIP3    H218793   5.917   4.286   1.731
 6263TIP3   OH218794   0.117   5.409   5.112
 6263TIP3    H118795   0.041   5.436   5.060
 6263TIP3    H218796   0.133   5.318   5.087
 6264TIP3   OH218797   4.692   3.722   4.955
 6264TIP3    H118798   4.610   3.700   4.998
 6264TIP3    H218799   4.688   3.816   4.941
 6265TIP3   OH218800   3.610   0.708   5.051
 6265TIP3    H118801   3.567   0.644   5.108
 6265TIP3    H218802   3.601   0.671   4.963
 6266TIP3   OH218803   4.615   2.660   1.150
 6266TIP3    H118804   4.648   2.733   1.097
 6266TIP3    H218805   4.646   2.582   1.105
 6267TIP3   OH218806   0.160   4.444   0.042
 6267TIP3    H118807   0.083   4.500   0.044
 6267TIP3    H218808   0.128   4.358   0.071
 6268TIP3   OH218809   5.012   0.105   2.070
 6268TIP3    H118810   5.046   0.187   2.105
 6268TIP3    H218811   5.081   0.073   2.012
 6269TIP3   OH218812   3.193   3.198   3.568
 6269TIP3    H118813   3.176   3.110   3.599
 6269TIP3    H218814   3.107   3.231   3.541
 6270TIP3   OH218815   4.863   0.172   1.276
 6270TIP3    H118816   4.818   0.201   1.356
 6270TIP3    H218817   4.874   0.078   1.288
 6271TIP3   OH218818   4.532   0.240   2.049
 6271TIP3    H118819   4.517   0.204   2.136
 6271TIP3    H218820   4.472   0.192   1.992
 6272TIP3   OH218821   4.043   4.477   3.711
 6272TIP3    H118822   4.097   4.412   3.666
 6272TIP3    H218823   3.957   4.468   3.672
 6273TIP3   OH218824   5.982   2.764   2.657
 6273TIP3    H118825   6.057   2.818   2.634
 6273TIP3    H218826   5.905   2.815   2.630
 6274TIP3   OH218827   4.157   3.184   1.163
 6274TIP3    H118828   4.109   3.145   1.237
 6274TIP3    H218829   4.146   3.279   1.175
 6275TIP3   OH218830   4.759   4.401   2.775
 6275TIP3    H118831   4.806   4.321   2.753
 6275TIP3    H218832   4.728   4.388   2.864
 6276TIP3   OH218833   5.139   4.528   4.370
 6276TIP3    H118834   5.046   4.536   4.388
 6276TIP3    H218835   5.178   4.510   4.456
 6277TIP3   OH218836   1.215   0.335   4.150
 6277TIP3    H118837   1.161   0.354   4.074
 6277TIP3    H218838   1.274   0.265   4.121
 6278TIP3   OH218839   3.703   1.340   2.069
 6278TIP3    H118840   3.718   1.362   2.161
 6278TIP3    H218841   3.613   1.366   2.053
 6279TIP3   OH218842   2.037   1.129   3.627
 6279TIP3    H118843   2.045   1.034   3.636
 6279TIP3    H218844   1.944   1.143   3.605
 6280TIP3   OH218845   3.646   5.252   4.625
 6280TIP3    H118846   3.639   5.223   4.534
 6280TIP3    H218847   3.566   5.302   4.640
 6281TIP3   OH218848   0.252   3.742   2.774
 6281TIP3    H118849   0.202   3.708   2.700
 6281TIP3    H218850   0.185   3.774   2.835
 6282TIP3   OH218851   4.678   0.415   2.413
 6282TIP3    H118852   4.630   0.494   2.439
 6282TIP3    H218853   4.630   0.344   2.455
 6283TIP3   OH218854   2.961   1.601   2.413
 6283TIP3    H118855   3.022   1.528   2.408
 6283TIP3    H218856   3.002   1.662   2.475
 6284TIP3   OH218857   4.719   3.967   3.657
 6284TIP3    H118858   4.814   3.965   3.661
 6284TIP3    H218859   4.691   3.948   3.747
 6285TIP3   OH218860   4.040   2.418   2.492
 6285TIP3    H118861   4.057   2.496   2.438
 6285TIP3    H218862   4.019   2.349   2.428
 6286TIP3   OH218863   4.385   2.950   1.119
 6286TIP3    H118864   4.459   2.895   1.142
 6286TIP3    H218865   4.369   3.004   1.196
 6287TIP3   OH218866   0.362   5.941   0.510
 6287TIP3    H118867   0.405   6.018   0.547
 6287TIP3    H218868   0.408   5.867   0.549
 6288TIP3   OH218869   3.455   3.803   0.172
 6288TIP3    H118870   3.464   3.884   0.221
 6288TIP3    H218871   3.401   3.747   0.227
 6289TIP3   OH218872   0.136   2.218   3.754
 6289TIP3    H118873   0.175   2.265   3.680
 6289TIP3    H218874   0.142   2.126   3.730
 6290TIP3   OH218875   3.173   3.344   3.854
 6290TIP3    H118876   3.266   3.367   3.845
 6290TIP3    H218877   3.164   3.263   3.804
 6291TIP3   OH218878   0.059   3.925   4.944
 6291TIP3    H118879  -0.007   3.862   4.917
 6291TIP3    H218880   0.022   4.010   4.921
 6292TIP3   OH218881   3.609   0.984   0.031
 6292TIP3    H118882   3.600   1.078   0.045
 6292TIP3    H218883   3.519   0.952   0.024
 6293TIP3   OH218884   3.916   3.390   5.012
 6293TIP3    H118885   3.995   3.361   5.058
 6293TIP3    H218886   3.910   3.332   4.936
 6294TIP3   OH218887   2.759   4.757   3.243
 6294TIP3    H118888   2.786   4.668   3.268
 6294TIP3    H218889   2.747   4.752   3.148
 6295TIP3   OH218890   4.178   2.599   3.190
 6295TIP3    H118891   4.226   2.619   3.109
 6295TIP3    H218892   4.185   2.679   3.242
 6296TIP3   OH218893   5.465   0.849   5.157
 6296TIP3    H118894   5.546   0.850   5.208
 6296TIP3    H218895   5.493   0.829   5.068
 6297TIP3   OH218896   6.128   3.663   0.738
 6297TIP3    H118897   6.190   3.732   0.714
 6297TIP3    H218898   6.050   3.683   0.686
 6298TIP3   OH218899   0.827   4.248   3.590
 6298TIP3    H118900   0.833   4.341   3.570
 6298TIP3    H218901   0.835   4.204   3.506
 6299TIP3   OH218902   3.367   2.731   4.124
 6299TIP3    H118903   3.411   2.671   4.183
 6299TIP3    H218904   3.367   2.815   4.170
 6300TIP3   OH218905   4.131   1.374   0.748
 6300TIP3    H118906   4.051   1.423   0.768
 6300TIP3    H218907   4.100   1.286   0.727
 6301TIP3   OH218908   3.222   0.907   4.035
 6301TIP3    H118909   3.192   0.843   4.100
 6301TIP3    H218910   3.256   0.980   4.086
 6302TIP3   OH218911   2.277   2.562   1.049
 6302TIP3    H118912   2.189   2.594   1.029
 6302TIP3    H218913   2.312   2.626   1.111
 6303TIP3   OH218914   0.222   3.636   3.673
 6303TIP3    H118915   0.200   3.583   3.750
 6303TIP3    H218916   0.313   3.660   3.686
 6304TIP3   OH218917   0.216   5.846   3.188
 6304TIP3    H118918   0.224   5.766   3.137
 6304TIP3    H218919   0.305   5.869   3.213
 6305TIP3   OH218920   0.662   1.652   4.392
 6305TIP3    H118921   0.582   1.698   4.366
 6305TIP3    H218922   0.719   1.658   4.316
 6306TIP3   OH218923   5.110   3.507   4.030
 6306TIP3    H118924   5.117   3.541   3.941
 6306TIP3    H218925   5.023   3.468   4.035
 6307TIP3   OH218926   5.862   3.060   2.860
 6307TIP3    H118927   5.928   3.024   2.919
 6307TIP3    H218928   5.893   3.037   2.773
 6308TIP3   OH218929   2.154   2.287   0.194
 6308TIP3    H118930   2.204   2.229   0.136
 6308TIP3    H218931   2.064   2.255   0.188
 6309TIP3   OH218932   4.306   0.156   4.957
 6309TIP3    H118933   4.292   0.182   5.048
 6309TIP3    H218934   4.229   0.103   4.935
 6310TIP3   OH218935   1.795   1.303   2.246
 6310TIP3    H118936   1.858   1.230   2.240
 6310TIP3    H218937   1.831   1.359   2.314
 6311TIP3   OH218938   3.761   0.043   1.402
 6311TIP3    H118939   3.718   0.047   1.488
 6311TIP3    H218940   3.811  -0.039   1.404
 6312TIP3   OH218941   5.196   2.152   0.289
 6312TIP3    H118942   5.280   2.128   0.251
 6312TIP3    H218943   5.135   2.086   0.257
 6313TIP3   OH218944   2.141   0.360   1.478
 6313TIP3    H118945   2.064   0.417   1.474
 6313TIP3    H218946   2.108   0.273   1.460
 6314TIP3   OH218947   0.858   5.136   4.039
 6314TIP3    H118948   0.828   5.052   4.004
 6314TIP3    H218949   0.813   5.202   3.986
 6315TIP3   OH218950   5.074   2.944   3.336
 6315TIP3    H118951   5.012   2.924   3.406
 6315TIP3    H218952   5.072   2.867   3.280
 6316TIP3   OH218953   3.873   0.401   3.832
 6316TIP3    H118954   3.860   0.449   3.913
 6316TIP3    H218955   3.944   0.339   3.851
 6317TIP3   OH218956   4.180   0.175   0.462
 6317TIP3    H118957   4.173   0.246   0.526
 6317TIP3    H218958   4.114   0.111   0.490
 6318TIP3   OH218959   1.570   5.549   2.481
 6318TIP3    H118960   1.525   5.496   2.547
 6318TIP3    H218961   1.501   5.576   2.421
 6319TIP3   OH218962   5.233   1.504   4.578
 6319TIP3    H118963   5.313   1.469   4.617
 6319TIP3    H218964   5.209   1.577   4.635
 6320TIP3   OH218965   0.197   4.848   2.109
 6320TIP3    H118966   0.259   4.823   2.040
 6320TIP3    H218967   0.127   4.894   2.062
 6321TIP3   OH218968   3.923   4.384   0.640
 6321TIP3    H118969   3.995   4.417   0.695
 6321TIP3    H218970   3.937   4.426   0.555
 6322TIP3   OH218971   0.359   1.440   4.870
 6322TIP3    H118972   0.437   1.384   4.865
 6322TIP3    H218973   0.286   1.383   4.847
 6323TIP3   OH218974   3.246   0.161   1.684
 6323TIP3    H118975   3.240   0.253   1.711
 6323TIP3    H218976   3.261   0.114   1.766
 6324TIP3   OH218977   2.365   2.585   2.160
 6324TIP3    H118978   2.456   2.604   2.137
 6324TIP3    H218979   2.348   2.640   2.236
 6325TIP3   OH218980   1.210   3.200   0.771
 6325TIP3    H118981   1.170   3.172   0.689
 6325TIP3    H218982   1.170   3.144   0.838
 6326TIP3   OH218983   2.496   1.620   0.535
 6326TIP3    H118984   2.461   1.547   0.585
 6326TIP3    H218985   2.424   1.684   0.533
 6327TIP3   OH218986   4.798   3.449   4.942
 6327TIP3    H118987   4.863   3.439   5.011
 6327TIP3    H218988   4.788   3.544   4.932
 6328TIP3   OH218989   5.720   5.109   0.140
 6328TIP3    H118990   5.753   5.061   0.216
 6328TIP3    H218991   5.689   5.042   0.080
 6329TIP3   OH218992   6.148   1.755   4.689
 6329TIP3    H118993   6.221   1.810   4.661
 6329TIP3    H218994   6.171   1.728   4.778
 6330TIP3   OH218995   2.215   2.805   0.292
 6330TIP3    H118996   2.282   2.856   0.245
 6330TIP3    H218997   2.227   2.716   0.260
 6331TIP3   OH218998   1.655   2.492   3.743
 6331TIP3    H118999   1.660   2.429   3.816
 6331TIP3    H219000   1.634   2.575   3.785
 6332TIP3   OH219001   1.695   1.268   0.883
 6332TIP3    H119002   1.763   1.335   0.884
 6332TIP3    H219003   1.682   1.247   0.790
 6333TIP3   OH219004   1.909   1.132   0.688
 6333TIP3    H119005   1.983   1.147   0.747
 6333TIP3    H219006   1.948   1.128   0.601
 6334TIP3   OH219007   2.886   5.593   1.993
 6334TIP3    H119008   2.911   5.514   2.040
 6334TIP3    H219009   2.947   5.660   2.024
 6335TIP3   OH219010   5.544   1.338   1.012
 6335TIP3    H119011   5.494   1.381   0.943
 6335TIP3    H219012   5.635   1.358   0.992
 6336TIP3   OH219013   4.338   1.959   2.046
 6336TIP3    H119014   4.304   2.014   2.116
 6336TIP3    H219015   4.262   1.942   1.990
 6337TIP3   OH219016   0.977   2.080   2.886
 6337TIP3    H119017   0.965   1.992   2.850
 6337TIP3    H219018   1.070   2.085   2.907
 6338TIP3   OH219019   0.647   5.379   4.048
 6338TIP3    H119020   0.721   5.381   4.109
 6338TIP3    H219021   0.573   5.410   4.100
 6339TIP3   OH219022   1.088   4.051   0.074
 6339TIP3    H119023   1.156   3.991   0.044
 6339TIP3    H219024   1.077   4.031   0.167
 6340TIP3   OH219025   3.594   5.562   1.791
 6340TIP3    H119026   3.654   5.619   1.743
 6340TIP3    H219027   3.508   5.579   1.751
 6341TIP3   OH219028   0.859   5.648   3.646
 6341TIP3    H119029   0.863   5.588   3.571
 6341TIP3    H219030   0.917   5.720   3.622
 6342TIP3   OH219031   5.676   1.092   2.458
 6342TIP3    H119032   5.719   1.118   2.540
 6342TIP3    H219033   5.678   0.996   2.460
 6343TIP3   OH219034   1.015   2.306   4.535
 6343TIP3    H119035   1.046   2.382   4.585
 6343TIP3    H219036   0.924   2.295   4.564
 6344TIP3   OH219037   0.051   4.414   1.965
 6344TIP3    H119038   0.021   4.410   1.874
 6344TIP3    H219039   0.143   4.439   1.959
 6345TIP3   OH219040   3.811   1.372   3.288
 6345TIP3    H119041   3.787   1.285   3.321
 6345TIP3    H219042   3.729   1.408   3.254
 6346TIP3   OH219043   1.029   3.201   2.032
 6346TIP3    H119044   0.967   3.130   2.048
 6346TIP3    H219045   1.066   3.220   2.118
 6347TIP3   OH219046   4.203   1.360   0.446
 6347TIP3    H119047   4.201   1.346   0.541
 6347TIP3    H219048   4.197   1.272   0.409
 6348TIP3   OH219049   2.135   1.578   0.184
 6348TIP3    H119050   2.118   1.522   0.260
 6348TIP3    H219051   2.101   1.664   0.210
 6349TIP3   OH219052   0.155   0.248   4.739
 6349TIP3    H119053   0.068   0.272   4.773
 6349TIP3    H219054   0.141   0.164   4.695
 6350TIP3   OH219055   4.108   1.023   2.502
 6350TIP3    H119056   4.153   1.012   2.418
 6350TIP3    H219057   4.147   0.956   2.559
 6351TIP3   OH219058   1.541   5.014   1.526
 6351TIP3    H119059   1.540   5.075   1.600
 6351TIP3    H219060   1.566   5.068   1.451
 6352TIP3   OH219061   1.492   1.679   1.475
 6352TIP3    H119062   1.548   1.704   1.402
 6352TIP3    H219063   1.510   1.585   1.488
 6353TIP3   OH219064   3.791   2.818   3.605
 6353TIP3    H119065   3.869   2.794   3.655
 6353TIP3    H219066   3.825   2.855   3.524
 6354TIP3   OH219067   2.224   0.664   3.271
 6354TIP3    H119068   2.172   0.691   3.347
 6354TIP3    H219069   2.295   0.728   3.266
 6355TIP3   OH219070   0.165   2.447   0.973
 6355TIP3    H119071   0.174   2.409   0.885
 6355TIP3    H219072   0.245   2.498   0.984
 6356TIP3   OH219073   0.024   1.679   0.925
 6356TIP3    H119074   0.117   1.657   0.916
 6356TIP3    H219075   0.023   1.775   0.932
 6357TIP3   OH219076   3.534   2.574   0.623
 6357TIP3    H119077   3.563   2.572   0.531
 6357TIP3    H219078   3.450   2.618   0.620
 6358TIP3   OH219079   6.093   4.283   4.585
 6358TIP3    H119080   6.178   4.240   4.579
 6358TIP3    H219081   6.032   4.213   4.609
 6359TIP3   OH219082   0.681   4.744   2.423
 6359TIP3    H119083   0.753   4.681   2.411
 6359TIP3    H219084   0.639   4.717   2.504
 6360TIP3   OH219085   0.203   5.744   3.934
 6360TIP3    H119086   0.112   5.751   3.907
 6360TIP3    H219087   0.243   5.685   3.870
 6361TIP3   OH219088   6.191   0.298   1.747
 6361TIP3    H119089   6.142   0.223   1.713
 6361TIP3    H219090   6.131   0.340   1.808
 6362TIP3   OH219091   0.173   2.089   0.482
 6362TIP3    H119092   0.187   1.995   0.493
 6362TIP3    H219093   0.242   2.130   0.534
 6363TIP3   OH219094   3.167   4.159   4.206
 6363TIP3    H119095   3.159   4.238   4.153
 6363TIP3    H219096   3.136   4.185   4.293
 6364TIP3   OH219097   2.874   4.880   4.963
 6364TIP3    H119098   2.929   4.804   4.941
 6364TIP3    H219099   2.936   4.953   4.968
 6365TIP3   OH219100   2.728   1.822   0.280
 6365TIP3    H119101   2.738   1.836   0.375
 6365TIP3    H219102   2.810   1.855   0.243
 6366TIP3   OH219103   2.855   2.162   0.711
 6366TIP3    H119104   2.914   2.227   0.751
 6366TIP3    H219105   2.768   2.187   0.744
 6367TIP3   OH219106   5.825   3.797   4.711
 6367TIP3    H119107   5.819   3.818   4.805
 6367TIP3    H219108   5.777   3.868   4.668
 6368TIP3   OH219109   5.424   4.447   4.004
 6368TIP3    H119110   5.446   4.384   4.073
 6368TIP3    H219111   5.334   4.473   4.024
 6369TIP3   OH219112   3.904   5.582   3.011
 6369TIP3    H119113   3.855   5.563   2.930
 6369TIP3    H219114   3.843   5.562   3.081
 6370TIP3   OH219115   3.835   1.722   3.408
 6370TIP3    H119116   3.824   1.788   3.339
 6370TIP3    H219117   3.754   1.671   3.405
 6371TIP3   OH219118   3.464   5.329   1.649
 6371TIP3    H119119   3.508   5.346   1.732
 6371TIP3    H219120   3.381   5.289   1.673
 6372TIP3   OH219121   2.834   2.892   3.595
 6372TIP3    H119122   2.754   2.943   3.586
 6372TIP3    H219123   2.870   2.887   3.507
 6373TIP3   OH219124   3.385   1.000   0.983
 6373TIP3    H119125   3.468   0.987   1.027
 6373TIP3    H219126   3.399   0.965   0.895
 6374TIP3   OH219127   3.856   5.128   0.400
 6374TIP3    H119128   3.887   5.093   0.316
 6374TIP3    H219129   3.779   5.180   0.376
 6375TIP3   OH219130   5.605   5.362   3.678
 6375TIP3    H119131   5.635   5.374   3.588
 6375TIP3    H219132   5.556   5.442   3.697
 6376TIP3   OH219133   4.999   4.754   0.570
 6376TIP3    H119134   4.955   4.839   0.574
 6376TIP3    H219135   5.092   4.776   0.571
 6377TIP3   OH219136   6.063   3.417   1.777
 6377TIP3    H119137   6.158   3.403   1.782
 6377TIP3    H219138   6.052   3.508   1.806
 6378TIP3   OH219139   1.849   4.010   3.746
 6378TIP3    H119140   1.942   4.021   3.724
 6378TIP3    H219141   1.844   3.922   3.782
 6379TIP3   OH219142   1.417   2.235   4.726
 6379TIP3    H119143   1.457   2.269   4.806
 6379TIP3    H219144   1.434   2.141   4.729
 6380TIP3   OH219145   2.618   0.710   3.668
 6380TIP3    H119146   2.622   0.661   3.586
 6380TIP3    H219147   2.564   0.656   3.726
 6381TIP3   OH219148   4.743   4.271   5.187
 6381TIP3    H119149   4.667   4.314   5.226
 6381TIP3    H219150   4.753   4.190   5.237
 6382TIP3   OH219151   5.106   1.060   0.394
 6382TIP3    H119152   5.085   1.038   0.485
 6382TIP3    H219153   5.044   1.010   0.342
 6383TIP3   OH219154   1.135   4.540   3.321
 6383TIP3    H119155   1.121   4.593   3.399
 6383TIP3    H219156   1.158   4.604   3.253
 6384TIP3   OH219157   1.117   2.306   2.551
 6384TIP3    H119158   1.144   2.323   2.461
 6384TIP3    H219159   1.198   2.281   2.596
 6385TIP3   OH219160   5.405   2.067   4.554
 6385TIP3    H119161   5.474   2.131   4.570
 6385TIP3    H219162   5.441   2.008   4.489
 6386TIP3   OH219163   3.897   5.008   2.855
 6386TIP3    H119164   3.846   4.959   2.919
 6386TIP3    H219165   3.914   5.093   2.897
 6387TIP3   OH219166   4.219   0.906   0.605
 6387TIP3    H119167   4.265   0.987   0.582
 6387TIP3    H219168   4.216   0.906   0.701
 6388TIP3   OH219169   1.419   5.800   4.090
 6388TIP3    H119170   1.504   5.759   4.075
 6388TIP3    H219171   1.392   5.832   4.004
 6389TIP3   OH219172   3.881   5.888   1.392
 6389TIP3    H119173   3.806   5.891   1.332
 6389TIP3    H219174   3.955   5.863   1.337
 6390TIP3   OH219175   1.790   5.520   0.592
 6390TIP3    H119176   1.850   5.594   0.598
 6390TIP3    H219177   1.819   5.472   0.514
 6391TIP3   OH219178   5.867   4.999   4.683
 6391TIP3    H119179   5.950   5.040   4.703
 6391TIP3    H219180   5.805   5.035   4.746
 6392TIP3   OH219181   4.049   2.812   2.036
 6392TIP3    H119182   4.045   2.853   2.123
 6392TIP3    H219183   3.977   2.854   1.987
 6393TIP3   OH219184   0.212   5.426   3.543
 6393TIP3    H119185   0.284   5.365   3.529
 6393TIP3    H219186   0.228   5.498   3.482
 6394TIP3   OH219187   3.693   5.758   0.161
 6394TIP3    H119188   3.730   5.841   0.191
 6394TIP3    H219189   3.747   5.734   0.085
 6395TIP3   OH219190   2.008   5.688   1.357
 6395TIP3    H119191   2.023   5.635   1.435
 6395TIP3    H219192   2.096   5.701   1.320
 6396TIP3   OH219193   6.025   1.492   1.030
 6396TIP3    H119194   6.062   1.460   1.112
 6396TIP3    H219195   5.949   1.436   1.014
 6397TIP3   OH219196   2.145   0.835   4.754
 6397TIP3    H119197   2.080   0.809   4.689
 6397TIP3    H219198   2.097   0.892   4.814
 6398TIP3   OH219199   3.048   3.904   3.698
 6398TIP3    H119200   2.955   3.888   3.711
 6398TIP3    H219201   3.065   3.987   3.743
 6399TIP3   OH219202   1.450   2.527   4.559
 6399TIP3    H119203   1.423   2.595   4.497
 6399TIP3    H219204   1.376   2.519   4.619
 6400TIP3   OH219205   2.367   5.213   0.815
 6400TIP3    H119206   2.278   5.181   0.801
 6400TIP3    H219207   2.397   5.240   0.729
 6401TIP3   OH219208   0.087   2.212   2.533
 6401TIP3    H119209   0.017   2.193   2.471
 6401TIP3    H219210   0.135   2.285   2.494
 6402TIP3   OH219211   3.305   4.629   4.434
 6402TIP3    H119212   3.270   4.633   4.523
 6402TIP3    H219213   3.252   4.565   4.389
 6403TIP3   OH219214   5.831   1.492   1.356
 6403TIP3    H119215   5.765   1.524   1.417
 6403TIP3    H219216   5.915   1.512   1.400
 6404TIP3   OH219217   4.233   3.771   1.369
 6404TIP3    H119218   4.272   3.761   1.283
 6404TIP3    H219219   4.297   3.733   1.429
 6405TIP3   OH219220   1.248   3.886   4.678
 6405TIP3    H119221   1.341   3.882   4.698
 6405TIP3    H219222   1.228   3.803   4.635
 6406TIP3   OH219223   4.230   4.345   3.521
 6406TIP3    H119224   4.160   4.289   3.488
 6406TIP3    H219225   4.226   4.423   3.466
 6407TIP3   OH219226   0.748   5.719   0.206
 6407TIP3    H119227   0.741   5.794   0.265
 6407TIP3    H219228   0.777   5.758   0.123
 6408TIP3   OH219229   2.842   4.086   1.198
 6408TIP3    H119230   2.935   4.077   1.219
 6408TIP3    H219231   2.802   4.007   1.233
 6409TIP3   OH219232   0.156   1.367   0.060
 6409TIP3    H119233   0.192   1.288   0.019
 6409TIP3    H219234   0.218   1.436   0.038
 6410TIP3   OH219235   5.045   1.969   2.391
 6410TIP3    H119236   4.951   1.973   2.374
 6410TIP3    H219237   5.052   1.969   2.487
 6411TIP3   OH219238   2.404   5.164   3.692
 6411TIP3    H119239   2.352   5.229   3.738
 6411TIP3    H219240   2.478   5.147   3.750
 6412TIP3   OH219241   5.709   2.877   2.624
 6412TIP3    H119242   5.686   2.907   2.536
 6412TIP3    H219243   5.653   2.928   2.682
 6413TIP3   OH219244   0.703   2.731   2.955
 6413TIP3    H119245   0.727   2.736   3.048
 6413TIP3    H219246   0.768   2.785   2.910
 6414TIP3   OH219247   0.077   0.204   1.204
 6414TIP3    H119248  -0.017   0.209   1.188
 6414TIP3    H219249   0.115   0.271   1.147
 6415TIP3   OH219250   5.473   0.259   4.533
 6415TIP3    H119251   5.414   0.313   4.585
 6415TIP3    H219252   5.545   0.237   4.593
 6416TIP3   OH219253   0.882   2.841   1.117
 6416TIP3    H119254   0.806   2.883   1.078
 6416TIP3    H219255   0.884   2.753   1.080
 6417TIP3   OH219256   6.050   0.816   1.897
 6417TIP3    H119257   6.140   0.796   1.871
 6417TIP3    H219258   6.038   0.908   1.876
 6418TIP3   OH219259   4.387   4.245   3.280
 6418TIP3    H119260   4.378   4.255   3.375
 6418TIP3    H219261   4.336   4.167   3.259
 6419TIP3   OH219262   0.627   1.542   3.437
 6419TIP3    H119263   0.618   1.634   3.412
 6419TIP3    H219264   0.721   1.524   3.426
 6420TIP3   OH219265   2.840   4.238   0.980
 6420TIP3    H119266   2.861   4.174   0.913
 6420TIP3    H219267   2.832   4.187   1.060
 6421TIP3   OH219268   1.723   3.401   3.020
 6421TIP3    H119269   1.642   3.351   3.026
 6421TIP3    H219270   1.731   3.445   3.105
 6422TIP3   OH219271   4.812   3.717   4.673
 6422TIP3    H119272   4.767   3.788   4.627
 6422TIP3    H219273   4.741   3.662   4.707
 6423TIP3   OH219274   2.677   3.629   3.004
 6423TIP3    H119275   2.667   3.723   3.018
 6423TIP3    H219276   2.588   3.595   3.011
 6424TIP3   OH219277   0.097   3.578   0.520
 6424TIP3    H119278   0.076   3.669   0.541
 6424TIP3    H219279   0.152   3.548   0.592
 6425TIP3   OH219280   1.235   5.287   3.757
 6425TIP3    H119281   1.147   5.320   3.779
 6425TIP3    H219282   1.281   5.363   3.721
 6426TIP3   OH219283   3.753   3.077   4.709
 6426TIP3    H119284   3.814   3.131   4.658
 6426TIP3    H219285   3.773   2.988   4.683
 6427TIP3   OH219286   0.473   5.306   3.438
 6427TIP3    H119287   0.526   5.236   3.398
 6427TIP3    H219288   0.399   5.316   3.378
 6428TIP3   OH219289   1.295   5.544   2.652
 6428TIP3    H119290   1.218   5.574   2.603
 6428TIP3    H219291   1.259   5.487   2.719
 6429TIP3   OH219292   3.575   0.236   4.085
 6429TIP3    H119293   3.664   0.203   4.087
 6429TIP3    H219294   3.580   0.317   4.034
 6430TIP3   OH219295   4.651   0.227   3.692
 6430TIP3    H119296   4.703   0.147   3.702
 6430TIP3    H219297   4.711   0.290   3.654
 6431TIP3   OH219298   0.294   4.812   1.016
 6431TIP3    H119299   0.268   4.869   0.944
 6431TIP3    H219300   0.241   4.842   1.090
 6432TIP3   OH219301   4.221   1.954   0.972
 6432TIP3    H119302   4.243   1.974   0.881
 6432TIP3    H219303   4.196   2.038   1.009
 6433TIP3   OH219304   0.834   1.849   4.603
 6433TIP3    H119305   0.920   1.840   4.644
 6433TIP3    H219306   0.849   1.904   4.526
 6434TIP3   OH219307   4.507   3.095   3.733
 6434TIP3    H119308   4.492   3.160   3.801
 6434TIP3    H219309   4.537   3.017   3.780
 6435TIP3   OH219310   3.081   4.884   0.183
 6435TIP3    H119311   3.146   4.830   0.138
 6435TIP3    H219312   3.005   4.883   0.125
 6436TIP3   OH219313   5.764   4.091   2.196
 6436TIP3    H119314   5.834   4.061   2.138
 6436TIP3    H219315   5.762   4.186   2.183
 6437TIP3   OH219316   5.403   1.178   0.083
 6437TIP3    H119317   5.432   1.259   0.125
 6437TIP3    H219318   5.444   1.181  -0.004
 6438TIP3   OH219319   3.418   2.695   2.224
 6438TIP3    H119320   3.410   2.695   2.319
 6438TIP3    H219321   3.399   2.605   2.199
 6439TIP3   OH219322   3.676   1.422   5.141
 6439TIP3    H119323   3.606   1.380   5.092
 6439TIP3    H219324   3.631   1.483   5.201
 6440TIP3   OH219325   5.833   0.869   4.271
 6440TIP3    H119326   5.806   0.869   4.362
 6440TIP3    H219327   5.806   0.783   4.238
 6441TIP3   OH219328   5.076   5.898   4.943
 6441TIP3    H119329   5.024   5.852   4.877
 6441TIP3    H219330   5.085   5.987   4.909
 6442TIP3   OH219331   0.510   4.787   1.174
 6442TIP3    H119332   0.539   4.698   1.154
 6442TIP3    H219333   0.443   4.806   1.108
 6443TIP3   OH219334   1.592   3.151   0.589
 6443TIP3    H119335   1.565   3.152   0.680
 6443TIP3    H219336   1.513   3.173   0.540
 6444TIP3   OH219337   4.532   5.857   1.591
 6444TIP3    H119338   4.579   5.921   1.644
 6444TIP3    H219339   4.588   5.780   1.590
 6445TIP3   OH219340   0.681   3.904   0.493
 6445TIP3    H119341   0.775   3.902   0.505
 6445TIP3    H219342   0.668   3.882   0.400
 6446TIP3   OH219343   2.372   2.208   2.909
 6446TIP3    H119344   2.278   2.213   2.928
 6446TIP3    H219345   2.415   2.224   2.993
 6447TIP3   OH219346   1.326   5.142   0.977
 6447TIP3    H119347   1.416   5.158   1.004
 6447TIP3    H219348   1.276   5.214   1.015
 6448TIP3   OH219349   3.828   0.599   4.605
 6448TIP3    H119350   3.874   0.680   4.584
 6448TIP3    H219351   3.821   0.553   4.521
 6449TIP3   OH219352   5.140   5.320   2.368
 6449TIP3    H119353   5.222   5.328   2.417
 6449TIP3    H219354   5.165   5.280   2.285
 6450TIP3   OH219355   4.031   4.741   1.921
 6450TIP3    H119356   4.091   4.669   1.940
 6450TIP3    H219357   4.011   4.779   2.007
 6451TIP3   OH219358   3.006   3.469   4.006
 6451TIP3    H119359   3.066   3.434   3.941
 6451TIP3    H219360   3.008   3.564   3.991
 6452TIP3   OH219361   0.858   0.788   4.213
 6452TIP3    H119362   0.794   0.725   4.245
 6452TIP3    H219363   0.811   0.871   4.208
 6453TIP3   OH219364   5.586   5.109   1.031
 6453TIP3    H119365   5.592   5.014   1.026
 6453TIP3    H219366   5.573   5.127   1.124
 6454TIP3   OH219367   0.261   1.530   1.200
 6454TIP3    H119368   0.291   1.440   1.212
 6454TIP3    H219369   0.340   1.579   1.180
 6455TIP3   OH219370   0.696   2.870   1.838
 6455TIP3    H119371   0.756   2.942   1.817
 6455TIP3    H219372   0.611   2.897   1.802
 6456TIP3   OH219373   5.244   0.395   2.418
 6456TIP3    H119374   5.206   0.461   2.476
 6456TIP3    H219375   5.335   0.388   2.445
 6457TIP3   OH219376   0.413   3.925   2.622
 6457TIP3    H119377   0.374   3.867   2.556
 6457TIP3    H219378   0.381   3.892   2.705
 6458TIP3   OH219379   1.095   0.183   4.674
 6458TIP3    H119380   1.107   0.244   4.601
 6458TIP3    H219381   1.182   0.147   4.690
 6459TIP3   OH219382   3.631   5.298   0.377
 6459TIP3    H119383   3.540   5.303   0.350
 6459TIP3    H219384   3.633   5.336   0.465
 6460TIP3   OH219385   5.190   1.770   1.634
 6460TIP3    H119386   5.249   1.756   1.560
 6460TIP3    H219387   5.113   1.716   1.614
 6461TIP3   OH219388   1.811   3.250   2.542
 6461TIP3    H119389   1.781   3.162   2.521
 6461TIP3    H219390   1.731   3.296   2.569
 6462TIP3   OH219391   4.075   4.795   4.031
 6462TIP3    H119392   4.136   4.795   4.104
 6462TIP3    H219393   4.036   4.883   4.031
 6463TIP3   OH219394   5.478   3.810   1.559
 6463TIP3    H119395   5.385   3.798   1.576
 6463TIP3    H219396   5.519   3.812   1.645
 6464TIP3   OH219397   2.770   1.406   3.328
 6464TIP3    H119398   2.693   1.357   3.360
 6464TIP3    H219399   2.733   1.478   3.277
 6465TIP3   OH219400   5.201   0.683   3.297
 6465TIP3    H119401   5.277   0.736   3.275
 6465TIP3    H219402   5.146   0.740   3.351
 6466TIP3   OH219403   1.370   2.604   0.788
 6466TIP3    H119404   1.400   2.693   0.771
 6466TIP3    H219405   1.446   2.560   0.826
 6467TIP3   OH219406   2.428   4.500   0.173
 6467TIP3    H119407   2.481   4.443   0.230
 6467TIP3    H219408   2.339   4.488   0.205
 6468TIP3   OH219409   4.009   1.932   3.490
 6468TIP3    H119410   4.066   1.977   3.427
 6468TIP3    H219411   3.986   1.850   3.446
 6469TIP3   OH219412   2.121   1.076   0.525
 6469TIP3    H119413   2.201   1.060   0.475
 6469TIP3    H219414   2.141   1.044   0.613
 6470TIP3   OH219415   1.954   0.499   4.430
 6470TIP3    H119416   1.925   0.449   4.506
 6470TIP3    H219417   2.001   0.436   4.376
 6471TIP3   OH219418   2.735   2.924   1.860
 6471TIP3    H119419   2.709   2.834   1.841
 6471TIP3    H219420   2.826   2.917   1.888
 6472TIP3   OH219421   5.185   2.008   4.746
 6472TIP3    H119422   5.154   1.980   4.659
 6472TIP3    H219423   5.252   2.074   4.727
 6473TIP3   OH219424   3.588   1.098   2.327
 6473TIP3    H119425   3.646   1.057   2.391
 6473TIP3    H219426   3.619   1.189   2.323
 6474TIP3   OH219427   0.898   1.555   2.129
 6474TIP3    H119428   0.874   1.620   2.063
 6474TIP3    H219429   0.948   1.489   2.081
 6475TIP3   OH219430   0.183   5.960   4.815
 6475TIP3    H119431   0.157   5.910   4.738
 6475TIP3    H219432   0.249   6.022   4.782
 6476TIP3   OH219433   5.006   2.118   4.928
 6476TIP3    H119434   5.047   2.052   4.872
 6476TIP3    H219435   4.999   2.076   5.014
 6477TIP3   OH219436   6.318   2.217   0.980
 6477TIP3    H119437   6.318   2.302   1.025
 6477TIP3    H219438   6.402   2.213   0.935
 6478TIP3   OH219439   1.307   3.040   1.888
 6478TIP3    H119440   1.372   3.068   1.824
 6478TIP3    H219441   1.243   2.991   1.838
 6479TIP3   OH219442   2.287   3.304   1.503
 6479TIP3    H119443   2.281   3.273   1.593
 6479TIP3    H219444   2.216   3.259   1.457
 6480TIP3   OH219445   3.687   4.021   4.064
 6480TIP3    H119446   3.601   3.989   4.093
 6480TIP3    H219447   3.708   3.966   3.988
 6481TIP3   OH219448   2.416   3.567   2.157
 6481TIP3    H119449   2.330   3.529   2.177
 6481TIP3    H219450   2.468   3.493   2.125
 6482TIP3   OH219451   1.007   4.400   1.084
 6482TIP3    H119452   1.018   4.441   0.999
 6482TIP3    H219453   1.037   4.465   1.147
 6483TIP3   OH219454   4.799   0.083   4.193
 6483TIP3    H119455   4.789   0.146   4.263
 6483TIP3    H219456   4.893   0.065   4.189
 6484TIP3   OH219457   4.851   4.829   5.061
 6484TIP3    H119458   4.887   4.752   5.106
 6484TIP3    H219459   4.799   4.793   4.989
 6485TIP3   OH219460   6.048   1.424   4.527
 6485TIP3    H119461   6.039   1.494   4.463
 6485TIP3    H219462   6.129   1.379   4.504
 6486TIP3   OH219463   6.258   0.273   4.590
 6486TIP3    H119464   6.302   0.190   4.570
 6486TIP3    H219465   6.273   0.327   4.512
 6487TIP3   OH219466   5.051   1.817   0.899
 6487TIP3    H119467   5.013   1.729   0.895
 6487TIP3    H219468   5.145   1.803   0.885
 6488TIP3   OH219469   3.828   4.755   3.695
 6488TIP3    H119470   3.912   4.783   3.729
 6488TIP3    H219471   3.840   4.751   3.600
 6489TIP3   OH219472   1.223   5.947   4.862
 6489TIP3    H119473   1.169   5.884   4.813
 6489TIP3    H219474   1.259   5.896   4.935
 6490TIP3   OH219475   1.727   3.987   2.167
 6490TIP3    H119476   1.694   4.037   2.093
 6490TIP3    H219477   1.731   3.897   2.135
 6491TIP3   OH219478   5.562   1.014   4.364
 6491TIP3    H119479   5.611   1.081   4.316
 6491TIP3    H219480   5.630   0.963   4.409
 6492TIP3   OH219481   6.042   2.464   0.929
 6492TIP3    H119482   6.127   2.500   0.952
 6492TIP3    H219483   6.058   2.410   0.852
 6493TIP3   OH219484   4.962   0.424   2.446
 6493TIP3    H119485   4.868   0.441   2.450
 6493TIP3    H219486   4.979   0.406   2.354
 6494TIP3   OH219487   0.121   1.045   3.969
 6494TIP3    H119488   0.184   0.999   4.025
 6494TIP3    H219489   0.097   1.123   4.018
 6495TIP3   OH219490   5.020   3.204   0.762
 6495TIP3    H119491   5.053   3.178   0.676
 6495TIP3    H219492   5.097   3.201   0.819
 6496TIP3   OH219493   5.963   0.475   3.490
 6496TIP3    H119494   6.042   0.467   3.437
 6496TIP3    H219495   5.946   0.570   3.493
 6497TIP3   OH219496   5.807   4.193   3.676
 6497TIP3    H119497   5.858   4.112   3.677
 6497TIP3    H219498   5.845   4.245   3.747
 6498TIP3   OH219499   2.905   2.952   0.794
 6498TIP3    H119500   2.946   3.013   0.733
 6498TIP3    H219501   2.812   2.974   0.791
 6499TIP3   OH219502   5.324   5.764   2.915
 6499TIP3    H119503   5.415   5.758   2.945
 6499TIP3    H219504   5.274   5.788   2.994
 6500TIP3   OH219505   4.793   1.921   2.924
 6500TIP3    H119506   4.715   1.870   2.942
 6500TIP3    H219507   4.765   1.984   2.857
 6501TIP3   OH219508   1.475   2.697   0.467
 6501TIP3    H119509   1.566   2.694   0.439
 6501TIP3    H219510   1.457   2.609   0.500
 6502TIP3   OH219511   1.876   4.748   2.681
 6502TIP3    H119512   1.852   4.715   2.594
 6502TIP3    H219513   1.809   4.713   2.739
 6503TIP3   OH219514   0.841   1.679   1.611
 6503TIP3    H119515   0.759   1.720   1.583
 6503TIP3    H219516   0.834   1.589   1.579
 6504TIP3   OH219517   3.903   2.129   2.848
 6504TIP3    H119518   3.905   2.208   2.902
 6504TIP3    H219519   3.943   2.156   2.765
 6505TIP3   OH219520   3.794   3.349   2.344
 6505TIP3    H119521   3.732   3.422   2.351
 6505TIP3    H219522   3.827   3.355   2.254
 6506TIP3   OH219523   4.703   5.657   3.456
 6506TIP3    H119524   4.762   5.680   3.528
 6506TIP3    H219525   4.653   5.737   3.439
 6507TIP3   OH219526   0.300   1.416   3.150
 6507TIP3    H119527   0.267   1.502   3.175
 6507TIP3    H219528   0.264   1.357   3.216
 6508TIP3   OH219529   3.504   0.241   5.044
 6508TIP3    H119530   3.589   0.231   5.086
 6508TIP3    H219531   3.524   0.279   4.958
 6509TIP3   OH219532   0.311   2.008   2.712
 6509TIP3    H119533   0.248   1.936   2.720
 6509TIP3    H219534   0.276   2.076   2.769
 6510TIP3   OH219535   2.681   3.492   1.362
 6510TIP3    H119536   2.652   3.570   1.314
 6510TIP3    H219537   2.767   3.515   1.397
 6511TIP3   OH219538   3.602   2.315   2.745
 6511TIP3    H119539   3.559   2.230   2.745
 6511TIP3    H219540   3.679   2.303   2.800
 6512TIP3   OH219541   4.737   0.787   5.089
 6512TIP3    H119542   4.697   0.838   5.159
 6512TIP3    H219543   4.819   0.832   5.069
 6513TIP3   OH219544   4.833   3.378   1.166
 6513TIP3    H119545   4.806   3.465   1.194
 6513TIP3    H219546   4.908   3.392   1.110
 6514TIP3   OH219547   2.067   3.780   1.850
 6514TIP3    H119548   2.140   3.815   1.800
 6514TIP3    H219549   2.106   3.747   1.931
 6515TIP3   OH219550   3.202   5.251   1.727
 6515TIP3    H119551   3.108   5.268   1.720
 6515TIP3    H219552   3.224   5.277   1.816
 6516TIP3   OH219553   5.364   0.115   3.596
 6516TIP3    H119554   5.317   0.142   3.517
 6516TIP3    H219555   5.383   0.197   3.641
 6517TIP3   OH219556   5.762   0.115   2.863
 6517TIP3    H119557   5.700   0.044   2.848
 6517TIP3    H219558   5.832   0.100   2.799
 6518TIP3   OH219559   0.126   1.079   5.056
 6518TIP3    H119560   0.208   1.056   5.011
 6518TIP3    H219561   0.074   0.999   5.052
 6519TIP3   OH219562   2.063   4.792   4.384
 6519TIP3    H119563   2.138   4.834   4.426
 6519TIP3    H219564   2.087   4.786   4.292
 6520TIP3   OH219565   0.569   4.505   3.663
 6520TIP3    H119566   0.581   4.482   3.755
 6520TIP3    H219567   0.497   4.448   3.634
 6521TIP3   OH219568   2.029   5.496   2.770
 6521TIP3    H119569   2.073   5.465   2.690
 6521TIP3    H219570   1.962   5.557   2.739
 6522TIP3   OH219571   0.045   5.411   4.050
 6522TIP3    H119572  -0.005   5.490   4.029
 6522TIP3    H219573   0.114   5.407   3.985
 6523TIP3   OH219574   0.662   3.598   3.486
 6523TIP3    H119575   0.641   3.528   3.424
 6523TIP3    H219576   0.697   3.552   3.563
 6524TIP3   OH219577   3.442   1.961   0.222
 6524TIP3    H119578   3.369   1.909   0.257
 6524TIP3    H219579   3.513   1.949   0.285
 6525TIP3   OH219580   5.648   4.849   1.007
 6525TIP3    H119581   5.721   4.835   1.067
 6525TIP3    H219582   5.574   4.806   1.049
 6526TIP3   OH219583   5.302   1.149   2.383
 6526TIP3    H119584   5.220   1.135   2.335
 6526TIP3    H219585   5.359   1.193   2.320
 6527TIP3   OH219586   0.410   0.776   0.235
 6527TIP3    H119587   0.431   0.683   0.220
 6527TIP3    H219588   0.340   0.795   0.172
 6528TIP3   OH219589   0.185   1.805   0.567
 6528TIP3    H119590   0.135   1.791   0.487
 6528TIP3    H219591   0.237   1.725   0.578
 6529TIP3   OH219592   5.431   3.828   1.210
 6529TIP3    H119593   5.378   3.757   1.247
 6529TIP3    H219594   5.368   3.888   1.172
 6530TIP3   OH219595   2.231   3.424   3.255
 6530TIP3    H119596   2.199   3.342   3.292
 6530TIP3    H219597   2.205   3.491   3.319
 6531TIP3   OH219598   0.998   2.117   4.860
 6531TIP3    H119599   1.013   2.184   4.794
 6531TIP3    H219600   1.036   2.153   4.940
 6532TIP3   OH219601   4.294   2.363   2.137
 6532TIP3    H119602   4.199   2.353   2.130
 6532TIP3    H219603   4.330   2.276   2.122
 6533TIP3   OH219604   4.851   5.069   1.821
 6533TIP3    H119605   4.946   5.079   1.823
 6533TIP3    H219606   4.830   5.045   1.731
 6534TIP3   OH219607   2.433   5.677   3.268
 6534TIP3    H119608   2.480   5.656   3.349
 6534TIP3    H219609   2.346   5.703   3.297
 6535TIP3   OH219610   2.717   5.235   3.455
 6535TIP3    H119611   2.741   5.272   3.540
 6535TIP3    H219612   2.766   5.152   3.450
 6536TIP3   OH219613   4.039   0.185   3.907
 6536TIP3    H119614   4.123   0.194   3.953
 6536TIP3    H219615   3.989   0.122   3.959
 6537TIP3   OH219616   0.409   2.581   3.439
 6537TIP3    H119617   0.334   2.557   3.493
 6537TIP3    H219618   0.463   2.637   3.495
 6538TIP3   OH219619   4.843   2.547   1.867
 6538TIP3    H119620   4.905   2.501   1.811
 6538TIP3    H219621   4.762   2.497   1.859
 6539TIP3   OH219622   3.983   0.861   1.942
 6539TIP3    H119623   4.008   0.788   1.999
 6539TIP3    H219624   4.044   0.856   1.869
 6540TIP3   OH219625   4.805   0.851   0.681
 6540TIP3    H119626   4.827   0.856   0.774
 6540TIP3    H219627   4.781   0.759   0.667
 6541TIP3   OH219628   4.748   3.267   3.460
 6541TIP3    H119629   4.754   3.203   3.531
 6541TIP3    H219630   4.669   3.317   3.480
 6542TIP3   OH219631   1.165   3.641   1.453
 6542TIP3    H119632   1.203   3.671   1.535
 6542TIP3    H219633   1.240   3.616   1.400
 6543TIP3   OH219634   0.255   5.963   5.117
 6543TIP3    H119635   0.213   6.009   5.190
 6543TIP3    H219636   0.229   6.013   5.040
 6544TIP3   OH219637   6.310   4.941   3.012
 6544TIP3    H119638   6.312   4.863   3.067
 6544TIP3    H219639   6.314   5.014   3.074
 6545TIP3   OH219640   4.487   4.060   3.066
 6545TIP3    H119641   4.486   4.137   3.122
 6545TIP3    H219642   4.412   4.008   3.095
 6546TIP3   OH219643   2.572   0.831   1.593
 6546TIP3    H119644   2.575   0.736   1.583
 6546TIP3    H219645   2.539   0.844   1.682
 6547TIP3   OH219646   6.006   4.245   1.217
 6547TIP3    H119647   5.974   4.300   1.145
 6547TIP3    H219648   5.964   4.160   1.202
 6548TIP3   OH219649   3.146   3.067   0.121
 6548TIP3    H119650   3.132   2.982   0.079
 6548TIP3    H219651   3.059   3.096   0.146
 6549TIP3   OH219652   5.546   5.098   1.318
 6549TIP3    H119653   5.454   5.089   1.292
 6549TIP3    H219654   5.544   5.144   1.402
 6550TIP3   OH219655   2.259   4.296   2.560
 6550TIP3    H119656   2.192   4.245   2.515
 6550TIP3    H219657   2.286   4.362   2.496
 6551TIP3   OH219658   5.806   4.588   1.298
 6551TIP3    H119659   5.847   4.659   1.248
 6551TIP3    H219660   5.819   4.510   1.245
 6552TIP3   OH219661   2.254   3.441   2.774
 6552TIP3    H119662   2.161   3.429   2.790
 6552TIP3    H219663   2.297   3.384   2.838
 6553TIP3   OH219664   5.857   0.532   2.546
 6553TIP3    H119665   5.812   0.542   2.629
 6553TIP3    H219666   5.799   0.478   2.493
 6554TIP3   OH219667   3.671   4.551   4.261
 6554TIP3    H119668   3.593   4.587   4.304
 6554TIP3    H219669   3.719   4.507   4.332
 6555TIP3   OH219670   1.459   5.075   2.884
 6555TIP3    H119671   1.363   5.077   2.873
 6555TIP3    H219672   1.476   4.996   2.935
 6556TIP3   OH219673   2.493   2.727   2.719
 6556TIP3    H119674   2.486   2.652   2.659
 6556TIP3    H219675   2.501   2.688   2.806
 6557TIP3   OH219676   0.442   2.376   2.788
 6557TIP3    H119677   0.506   2.445   2.772
 6557TIP3    H219678   0.363   2.423   2.815
 6558TIP3   OH219679   2.972   4.519   4.312
 6558TIP3    H119680   2.966   4.603   4.358
 6558TIP3    H219681   2.927   4.457   4.370
 6559TIP3   OH219682   4.632   0.936   1.761
 6559TIP3    H119683   4.624   0.952   1.667
 6559TIP3    H219684   4.657   0.844   1.768
 6560TIP3   OH219685   5.415   0.431   3.186
 6560TIP3    H119686   5.501   0.467   3.204
 6560TIP3    H219687   5.420   0.339   3.214
 6561TIP3   OH219688   5.905   5.029   1.065
 6561TIP3    H119689   5.824   5.077   1.083
 6561TIP3    H219690   5.945   5.077   0.992
 6562TIP3   OH219691   2.975   1.130   0.700
 6562TIP3    H119692   3.061   1.134   0.742
 6562TIP3    H219693   2.983   1.189   0.624
 6563TIP3   OH219694   5.700   1.283   0.230
 6563TIP3    H119695   5.624   1.340   0.245
 6563TIP3    H219696   5.721   1.296   0.137
 6564TIP3   OH219697   6.296   4.876   3.881
 6564TIP3    H119698   6.233   4.877   3.809
 6564TIP3    H219699   6.362   4.813   3.854
 6565TIP3   OH219700   4.254   3.915   2.627
 6565TIP3    H119701   4.311   3.991   2.621
 6565TIP3    H219702   4.169   3.947   2.597
 6566TIP3   OH219703   0.914   1.772   2.295
 6566TIP3    H119704   0.858   1.741   2.366
 6566TIP3    H219705   0.928   1.695   2.240
 6567TIP3   OH219706   4.481   0.313   4.771
 6567TIP3    H119707   4.438   0.264   4.841
 6567TIP3    H219708   4.538   0.374   4.817
 6568TIP3   OH219709   5.499   5.388   2.048
 6568TIP3    H119710   5.538   5.313   2.093
 6568TIP3    H219711   5.483   5.452   2.117
 6569TIP3   OH219712   5.128   4.255   4.673
 6569TIP3    H119713   5.188   4.269   4.601
 6569TIP3    H219714   5.075   4.180   4.646
 6570TIP3   OH219715   2.705   1.268   2.286
 6570TIP3    H119716   2.649   1.197   2.316
 6570TIP3    H219717   2.682   1.343   2.341
 6571TIP3   OH219718   3.742   4.305   0.098
 6571TIP3    H119719   3.734   4.213   0.123
 6571TIP3    H219720   3.719   4.306   0.005
 6572TIP3   OH219721   3.577   1.582   3.408
 6572TIP3    H119722   3.554   1.643   3.338
 6572TIP3    H219723   3.536   1.500   3.383
 6573TIP3   OH219724   5.565   2.289   1.363
 6573TIP3    H119725   5.573   2.197   1.341
 6573TIP3    H219726   5.587   2.294   1.456
 6574TIP3   OH219727   6.240   5.588   3.217
 6574TIP3    H119728   6.324   5.541   3.218
 6574TIP3    H219729   6.174   5.520   3.217
 6575TIP3   OH219730   3.505   3.530   2.166
 6575TIP3    H119731   3.499   3.440   2.133
 6575TIP3    H219732   3.598   3.541   2.189
 6576TIP3   OH219733   4.364   3.603   0.978
 6576TIP3    H119734   4.431   3.605   0.909
 6576TIP3    H219735   4.344   3.510   0.989
 6577TIP3   OH219736   2.164   3.838   0.947
 6577TIP3    H119737   2.114   3.758   0.958
 6577TIP3    H219738   2.137   3.894   1.020
 6578TIP3   OH219739   3.826   1.688   0.046
 6578TIP3    H119740   3.753   1.631   0.021
 6578TIP3    H219741   3.866   1.714  -0.037
 6579TIP3   OH219742   3.361   5.239   2.540
 6579TIP3    H119743   3.272   5.204   2.542
 6579TIP3    H219744   3.417   5.162   2.532
 6580TIP3   OH219745   2.210   5.588   2.040
 6580TIP3    H119746   2.154   5.527   2.089
 6580TIP3    H219747   2.203   5.559   1.949
 6581TIP3   OH219748   0.707   5.758   1.470
 6581TIP3    H119749   0.626   5.803   1.490
 6581TIP3    H219750   0.755   5.757   1.552
 6582TIP3   OH219751   3.269   1.165   1.757
 6582TIP3    H119752   3.355   1.170   1.714
 6582TIP3    H219753   3.261   1.073   1.782
 6583TIP3   OH219754   2.898   1.943   3.334
 6583TIP3    H119755   2.818   1.902   3.300
 6583TIP3    H219756   2.967   1.879   3.316
 6584TIP3   OH219757   5.962   5.445   2.663
 6584TIP3    H119758   5.973   5.364   2.713
 6584TIP3    H219759   6.049   5.466   2.631
 6585TIP3   OH219760   5.741   1.989   1.716
 6585TIP3    H119761   5.709   1.955   1.632
 6585TIP3    H219762   5.813   1.930   1.739
 6586TIP3   OH219763   1.386   3.935   2.453
 6586TIP3    H119764   1.392   3.966   2.543
 6586TIP3    H219765   1.329   3.859   2.457
 6587TIP3   OH219766   2.228   0.769   0.940
 6587TIP3    H119767   2.277   0.709   0.997
 6587TIP3    H219768   2.190   0.833   1.001
 6588TIP3   OH219769   0.133   1.035   2.252
 6588TIP3    H119770   0.202   0.997   2.307
 6588TIP3    H219771   0.088   0.959   2.215
 6589TIP3   OH219772   5.670   3.359   2.117
 6589TIP3    H119773   5.749   3.349   2.169
 6589TIP3    H219774   5.672   3.285   2.056
 6590TIP3   OH219775   3.180   4.283   3.466
 6590TIP3    H119776   3.206   4.210   3.522
 6590TIP3    H219777   3.263   4.328   3.446
 6591TIP3   OH219778   1.273   1.629   0.384
 6591TIP3    H119779   1.332   1.702   0.364
 6591TIP3    H219780   1.325   1.551   0.366
 6592TIP3   OH219781   0.405   0.239   4.848
 6592TIP3    H119782   0.375   0.149   4.851
 6592TIP3    H219783   0.325   0.290   4.833
 6593TIP3   OH219784   2.278   5.809   0.266
 6593TIP3    H119785   2.336   5.845   0.198
 6593TIP3    H219786   2.274   5.715   0.247
 6594TIP3   OH219787   2.138   5.243   1.286
 6594TIP3    H119788   2.097   5.163   1.317
 6594TIP3    H219789   2.198   5.214   1.217
 6595TIP3   OH219790   2.655   4.007   4.598
 6595TIP3    H119791   2.664   3.950   4.674
 6595TIP3    H219792   2.694   3.958   4.526
 6596TIP3   OH219793   3.065   4.735   2.338
 6596TIP3    H119794   2.983   4.785   2.339
 6596TIP3    H219795   3.099   4.745   2.427
 6597TIP3   OH219796   0.745   5.936   2.499
 6597TIP3    H119797   0.711   5.886   2.425
 6597TIP3    H219798   0.750   5.872   2.570
 6598TIP3   OH219799   4.622   4.876   0.195
 6598TIP3    H119800   4.640   4.953   0.142
 6598TIP3    H219801   4.705   4.828   0.197
 6599TIP3   OH219802   1.474   5.156   3.556
 6599TIP3    H119803   1.425   5.233   3.586
 6599TIP3    H219804   1.564   5.188   3.544
 6600TIP3   OH219805   0.614   4.897   2.184
 6600TIP3    H119806   0.615   4.868   2.275
 6600TIP3    H219807   0.702   4.932   2.170
 6601TIP3   OH219808   3.648   3.958   4.581
 6601TIP3    H119809   3.660   3.865   4.566
 6601TIP3    H219810   3.686   4.000   4.504
 6602TIP3   OH219811   0.553   5.515   1.504
 6602TIP3    H119812   0.522   5.546   1.419
 6602TIP3    H219813   0.626   5.572   1.526
 6603TIP3   OH219814   2.273   2.987   4.792
 6603TIP3    H119815   2.185   3.009   4.760
 6603TIP3    H219816   2.323   3.068   4.780
 6604TIP3   OH219817   3.324   5.785   3.938
 6604TIP3    H119818   3.302   5.706   3.987
 6604TIP3    H219819   3.350   5.849   4.005
 6605TIP3   OH219820   0.971   1.558   3.354
 6605TIP3    H119821   0.934   1.630   3.303
 6605TIP3    H219822   1.039   1.598   3.407
 6606TIP3   OH219823   2.581   3.725   4.829
 6606TIP3    H119824   2.565   3.663   4.899
 6606TIP3    H219825   2.518   3.795   4.844
 6607TIP3   OH219826   3.497   0.228   0.039
 6607TIP3    H119827   3.536   0.164   0.098
 6607TIP3    H219828   3.423   0.182  -0.001
 6608TIP3   OH219829   3.585   5.259   1.916
 6608TIP3    H119830   3.600   5.188   1.978
 6608TIP3    H219831   3.570   5.336   1.970
 6609TIP3   OH219832   0.159   2.906   4.482
 6609TIP3    H119833   0.189   2.995   4.501
 6609TIP3    H219834   0.231   2.850   4.510
 6610TIP3   OH219835   6.316   2.866   1.127
 6610TIP3    H119836   6.236   2.918   1.124
 6610TIP3    H219837   6.387   2.929   1.132
 6611TIP3   OH219838   4.427   4.162   2.215
 6611TIP3    H119839   4.500   4.205   2.260
 6611TIP3    H219840   4.435   4.189   2.124
 6612TIP3   OH219841   5.522   3.804   4.333
 6612TIP3    H119842   5.610   3.840   4.322
 6612TIP3    H219843   5.465   3.880   4.337
 6613TIP3   OH219844   2.086   3.709   4.111
 6613TIP3    H119845   2.055   3.645   4.176
 6613TIP3    H219846   2.073   3.794   4.154
 6614TIP3   OH219847   2.389   2.135   0.609
 6614TIP3    H119848   2.373   2.042   0.630
 6614TIP3    H219849   2.313   2.161   0.558
 6615TIP3   OH219850   6.049   5.389   3.184
 6615TIP3    H119851   5.978   5.402   3.247
 6615TIP3    H219852   6.074   5.298   3.195
 6616TIP3   OH219853   5.936   1.749   1.091
 6616TIP3    H119854   5.964   1.796   1.170
 6616TIP3    H219855   5.994   1.673   1.087
 6617TIP3   OH219856   0.365   5.340   1.048
 6617TIP3    H119857   0.337   5.354   0.957
 6617TIP3    H219858   0.330   5.415   1.096
 6618TIP3   OH219859   4.498   1.242   3.657
 6618TIP3    H119860   4.572   1.222   3.600
 6618TIP3    H219861   4.440   1.296   3.602
 6619TIP3   OH219862   6.026   0.418   1.487
 6619TIP3    H119863   5.937   0.381   1.483
 6619TIP3    H219864   6.024   0.478   1.561
 6620TIP3   OH219865   1.919   0.527   3.441
 6620TIP3    H119866   1.840   0.478   3.416
 6620TIP3    H219867   1.932   0.506   3.533
 6621TIP3   OH219868   4.514   5.142   3.619
 6621TIP3    H119869   4.478   5.063   3.660
 6621TIP3    H219870   4.608   5.128   3.617
 6622TIP3   OH219871   2.211   3.188   0.587
 6622TIP3    H119872   2.175   3.133   0.518
 6622TIP3    H219873   2.137   3.207   0.644
 6623TIP3   OH219874   2.172   1.196   2.163
 6623TIP3    H119875   2.188   1.241   2.246
 6623TIP3    H219876   2.224   1.116   2.169
 6624TIP3   OH219877   0.707   3.515   1.405
 6624TIP3    H119878   0.626   3.494   1.451
 6624TIP3    H219879   0.689   3.598   1.361
 6625TIP3   OH219880   1.695   1.986   1.440
 6625TIP3    H119881   1.624   1.927   1.413
 6625TIP3    H219882   1.667   2.072   1.408
 6626TIP3   OH219883   2.468   1.127   4.529
 6626TIP3    H119884   2.417   1.143   4.450
 6626TIP3    H219885   2.530   1.059   4.504
 6627TIP3   OH219886   4.321   3.614   3.531
 6627TIP3    H119887   4.268   3.565   3.595
 6627TIP3    H219888   4.258   3.670   3.486
 6628TIP3   OH219889   4.473   3.218   3.486
 6628TIP3    H119890   4.475   3.187   3.576
 6628TIP3    H219891   4.448   3.311   3.493
 6629TIP3   OH219892   0.523   0.172   4.090
 6629TIP3    H119893   0.518   0.077   4.096
 6629TIP3    H219894   0.539   0.190   3.997
 6630TIP3   OH219895   6.197   1.168   0.311
 6630TIP3    H119896   6.107   1.134   0.312
 6630TIP3    H219897   6.251   1.092   0.291
 6631TIP3   OH219898   3.703   1.296   4.766
 6631TIP3    H119899   3.613   1.270   4.783
 6631TIP3    H219900   3.721   1.267   4.677
 6632TIP3   OH219901   1.117   4.971   4.369
 6632TIP3    H119902   1.061   5.021   4.429
 6632TIP3    H219903   1.199   5.021   4.366
 6633TIP3   OH219904   5.480   3.626   2.473
 6633TIP3    H119905   5.406   3.585   2.430
 6633TIP3    H219906   5.464   3.720   2.466
 6634TIP3   OH219907   5.174   4.854   2.517
 6634TIP3    H119908   5.248   4.910   2.495
 6634TIP3    H219909   5.208   4.794   2.584
 6635TIP3   OH219910   2.379   0.470   4.078
 6635TIP3    H119911   2.420   0.384   4.092
 6635TIP3    H219912   2.355   0.500   4.165
 6636TIP3   OH219913   4.973   3.382   3.798
 6636TIP3    H119914   4.879   3.392   3.784
 6636TIP3    H219915   5.014   3.439   3.734
 6637TIP3   OH219916   2.583   4.406   3.883
 6637TIP3    H119917   2.662   4.365   3.850
 6637TIP3    H219918   2.613   4.489   3.921
 6638TIP3   OH219919   2.091   3.848   4.892
 6638TIP3    H119920   2.076   3.848   4.798
 6638TIP3    H219921   2.004   3.839   4.931
 6639TIP3   OH219922   0.691   5.776   1.093
 6639TIP3    H119923   0.783   5.751   1.099
 6639TIP3    H219924   0.662   5.739   1.009
 6640TIP3   OH219925   4.990   4.093   3.911
 6640TIP3    H119926   5.076   4.061   3.937
 6640TIP3    H219927   4.966   4.040   3.835
 6641TIP3   OH219928   6.135   5.107   3.541
 6641TIP3    H119929   6.148   5.182   3.483
 6641TIP3    H219930   6.223   5.072   3.554
 6642TIP3   OH219931   2.544   0.830   4.132
 6642TIP3    H119932   2.625   0.828   4.081
 6642TIP3    H219933   2.474   0.842   4.067
 6643TIP3   OH219934   1.958   0.957   0.250
 6643TIP3    H119935   1.940   1.046   0.279
 6643TIP3    H219936   1.874   0.911   0.255
 6644TIP3   OH219937   0.065   5.943   0.733
 6644TIP3    H119938   0.062   5.936   0.637
 6644TIP3    H219939   0.158   5.955   0.753
 6645TIP3   OH219940   6.170   2.846   4.933
 6645TIP3    H119941   6.085   2.837   4.890
 6645TIP3    H219942   6.156   2.913   5.000
   6.36568   6.00162   5.19756   0.00000   0.00000  -2.12190   0.00000  -2.12190  -3.00081
