Title t= 403.00000 step= 201500
19927
    1ASP      N    1   1.573   0.541   1.627
    1ASP    HT1    2   1.599   0.465   1.693
    1ASP    HT2    3   1.537   0.493   1.542
    1ASP    HT3    4   1.501   0.597   1.678
    1ASP     CA    5   1.680   0.647   1.606
    1ASP     HA    6   1.771   0.602   1.570
    1ASP     CB    7   1.625   0.745   1.499
    1ASP    HB1    8   1.559   0.823   1.542
    1ASP    HB2    9   1.568   0.687   1.423
    1ASP     CG   10   1.733   0.818   1.428
    1ASP    OD1   11   1.855   0.798   1.450
    1ASP    OD2   12   1.697   0.900   1.340
    1ASP      C   13   1.722   0.719   1.741
    1ASP      O   14   1.696   0.658   1.844
    2ALA      N   15   1.791   0.837   1.744
    2ALA     HN   16   1.818   0.881   1.659
    2ALA     CA   17   1.845   0.882   1.874
    2ALA     HA   18   1.818   0.812   1.951
    2ALA     CB   19   2.002   0.886   1.862
    2ALA    HB1   20   2.043   0.785   1.840
    2ALA    HB2   21   2.037   0.906   1.966
    2ALA    HB3   22   2.043   0.961   1.791
    2ALA      C   23   1.784   1.021   1.906
    2ALA      O   24   1.764   1.113   1.823
    3ASP      N   25   1.748   1.045   2.027
    3ASP     HN   26   1.779   0.983   2.100
    3ASP     CA   27   1.668   1.152   2.075
    3ASP     HA   28   1.579   1.158   2.015
    3ASP     CB   29   1.615   1.146   2.219
    3ASP    HB1   30   1.544   1.229   2.243
    3ASP    HB2   31   1.700   1.148   2.290
    3ASP     CG   32   1.538   1.025   2.245
    3ASP    OD1   33   1.414   1.029   2.281
    3ASP    OD2   34   1.595   0.914   2.238
    3ASP      C   35   1.731   1.287   2.060
    3ASP      O   36   1.854   1.297   2.079
    4GLY      N   37   1.650   1.386   2.020
    4GLY     HN   38   1.552   1.370   2.012
    4GLY     CA   39   1.695   1.522   1.994
    4GLY    HA1   40   1.612   1.568   1.942
    4GLY    HA2   41   1.781   1.522   1.929
    4GLY      C   42   1.710   1.595   2.125
    4GLY      O   43   1.679   1.536   2.232
    5PRO      N   44   1.746   1.725   2.129
    5PRO     CD   45   1.758   1.809   2.007
    5PRO    HD1   46   1.680   1.791   1.930
    5PRO    HD2   47   1.856   1.781   1.965
    5PRO     CA   48   1.786   1.796   2.250
    5PRO     HA   49   1.850   1.726   2.301
    5PRO     CB   50   1.855   1.918   2.190
    5PRO    HB1   51   1.958   1.890   2.160
    5PRO    HB2   52   1.854   2.002   2.262
    5PRO     CG   53   1.771   1.948   2.066
    5PRO    HG1   54   1.671   1.988   2.094
    5PRO    HG2   55   1.821   2.023   2.002
    5PRO      C   56   1.673   1.836   2.344
    5PRO      O   57   1.689   1.906   2.443
    6GLY      N   58   1.553   1.784   2.332
    6GLY     HN   59   1.522   1.731   2.254
    6GLY     CA   60   1.439   1.812   2.420
    6GLY    HA1   61   1.475   1.827   2.521
    6GLY    HA2   62   1.370   1.729   2.422
    6GLY      C   63   1.374   1.943   2.382
    6GLY      O   64   1.422   2.019   2.299
    7ASP      N   65   1.258   1.980   2.441
    7ASP     HN   66   1.208   1.923   2.506
    7ASP     CA   67   1.189   2.108   2.411
    7ASP     HA   68   1.190   2.115   2.303
    7ASP     CB   69   1.041   2.119   2.463
    7ASP    HB1   70   0.993   2.218   2.447
    7ASP    HB2   71   1.035   2.101   2.572
    7ASP     CG   72   0.947   2.013   2.405
    7ASP    OD1   73   0.978   1.950   2.303
    7ASP    OD2   74   0.843   1.985   2.465
    7ASP      C   75   1.263   2.235   2.466
    7ASP      O   76   1.327   2.231   2.571
    8PRO      N   77   1.256   2.351   2.402
    8PRO     CD   78   1.211   2.366   2.267
    8PRO    HD1   79   1.101   2.350   2.264
    8PRO    HD2   80   1.265   2.303   2.193
    8PRO     CA   81   1.300   2.479   2.460
    8PRO     HA   82   1.407   2.488   2.453
    8PRO     CB   83   1.230   2.578   2.368
    8PRO    HB1   84   1.264   2.683   2.351
    8PRO    HB2   85   1.121   2.584   2.389
    8PRO     CG   86   1.233   2.510   2.226
    8PRO    HG1   87   1.150   2.543   2.160
    8PRO    HG2   88   1.330   2.526   2.175
    8PRO      C   89   1.275   2.506   2.611
    8PRO      O   90   1.167   2.480   2.662
    9ASP      N   91   1.382   2.558   2.680
    9ASP     HN   92   1.477   2.557   2.651
    9ASP     CA   93   1.371   2.591   2.826
    9ASP     HA   94   1.316   2.517   2.882
    9ASP     CB   95   1.513   2.612   2.880
    9ASP    HB1   96   1.508   2.657   2.981
    9ASP    HB2   97   1.566   2.686   2.816
    9ASP     CG   98   1.584   2.487   2.879
    9ASP    OD1   99   1.533   2.374   2.868
    9ASP    OD2  100   1.707   2.492   2.896
    9ASP      C  101   1.281   2.713   2.851
    9ASP      O  102   1.279   2.807   2.771
   10ALA      N  103   1.208   2.720   2.969
   10ALA     HN  104   1.207   2.640   3.028
   10ALA     CA  105   1.126   2.829   3.017
   10ALA     HA  106   1.068   2.847   2.928
   10ALA     CB  107   1.024   2.785   3.121
   10ALA    HB1  108   1.075   2.726   3.200
   10ALA    HB2  109   0.947   2.716   3.082
   10ALA    HB3  110   0.975   2.872   3.170
   10ALA      C  111   1.194   2.964   3.043
   10ALA      O  112   1.298   2.971   3.107
   11GLY      N  113   1.142   3.077   2.990
   11GLY     HN  114   1.062   3.072   2.930
   11GLY     CA  115   1.178   3.212   3.038
   11GLY    HA1  116   1.159   3.280   2.957
   11GLY    HA2  117   1.283   3.209   3.064
   11GLY      C  118   1.104   3.279   3.154
   11GLY    OT1  119   0.988   3.244   3.177
   11GLY    OT2  120   1.156   3.375   3.216
   12SOD    SOD  121   5.381   2.895   3.091
   13SOD    SOD  122   5.238   3.003   4.742
   14SOD    SOD  123   3.251   4.798   2.558
   15SOD    SOD  124   1.677   4.497   5.132
   16SOD    SOD  125   0.916   4.029   3.259
   17SOD    SOD  126   1.971   2.486   4.034
   18SOD    SOD  127   0.159   3.515   0.662
   19SOD    SOD  128   3.031   1.847   0.573
   20SOD    SOD  129   2.425   3.784   3.299
   21SOD    SOD  130   3.872   3.324   1.813
   22SOD    SOD  131   5.883   3.917   2.441
   23SOD    SOD  132   1.061   3.545   3.580
   24SOD    SOD  133   1.029   5.876   2.556
   25SOD    SOD  134   4.798   5.857   2.205
   26SOD    SOD  135   1.499   4.259   1.827
   27SOD    SOD  136   5.418   2.860   1.746
   28SOD    SOD  137   3.813   4.122   0.812
   29SOD    SOD  138   4.207   1.636   4.473
   30SOD    SOD  139   4.034   3.946   5.041
   31SOD    SOD  140   2.026   4.943   1.373
   32SOD    SOD  141   0.320   4.597   4.451
   33SOD    SOD  142   0.705   1.277   4.159
   34CLA    CLA  143   5.200   2.419   0.857
   35CLA    CLA  144   0.286   3.582   3.852
   36CLA    CLA  145   1.748   0.300   1.711
   37CLA    CLA  146   1.959   4.392   3.395
   38CLA    CLA  147   4.386   2.469   3.971
   39CLA    CLA  148   1.639   5.785   1.633
   40CLA    CLA  149   2.544   4.211   1.072
   41CLA    CLA  150   5.349   5.334   1.686
   42CLA    CLA  151   2.580   1.570   4.228
   43CLA    CLA  152   4.091   3.281   2.218
   44CLA    CLA  153   0.599   4.485   2.536
   45CLA    CLA  154   5.831   2.867   2.013
   46CLA    CLA  155   4.850   3.843   4.068
   47CLA    CLA  156   4.148   0.817   1.008
   48CLA    CLA  157   2.612   1.818   3.390
   49CLA    CLA  158   1.924   2.960   1.365
   50CLA    CLA  159   0.323   0.628   4.641
   51CLA    CLA  160   0.810   0.303   0.770
   52TIP3   OH2  161   0.333   4.053   1.922
   52TIP3    H1  162   0.367   4.130   1.968
   52TIP3    H2  163   0.283   4.088   1.849
   53TIP3   OH2  164   1.088   2.182   3.322
   53TIP3    H1  165   1.072   2.147   3.234
   53TIP3    H2  166   1.041   2.265   3.324
   54TIP3   OH2  167   6.047   4.383   2.241
   54TIP3    H1  168   6.047   4.478   2.254
   54TIP3    H2  169   6.126   4.353   2.285
   55TIP3   OH2  170   2.384   1.259   3.882
   55TIP3    H1  171   2.380   1.292   3.972
   55TIP3    H2  172   2.385   1.338   3.828
   56TIP3   OH2  173   2.740   5.610   1.012
   56TIP3    H1  174   2.712   5.519   1.006
   56TIP3    H2  175   2.808   5.618   0.945
   57TIP3   OH2  176   3.692   1.995   0.859
   57TIP3    H1  177   3.686   2.077   0.907
   57TIP3    H2  178   3.708   1.928   0.926
   58TIP3   OH2  179  -0.006   0.269   2.561
   58TIP3    H1  180  -0.002   0.197   2.624
   58TIP3    H2  181  -0.021   0.347   2.614
   59TIP3   OH2  182   1.492   4.926   1.186
   59TIP3    H1  183   1.519   4.892   1.271
   59TIP3    H2  184   1.563   4.985   1.160
   60TIP3   OH2  185   0.440   2.124   2.668
   60TIP3    H1  186   0.440   2.046   2.612
   60TIP3    H2  187   0.383   2.186   2.623
   61TIP3   OH2  188   2.599   5.774   1.601
   61TIP3    H1  189   2.594   5.739   1.513
   61TIP3    H2  190   2.629   5.864   1.589
   62TIP3   OH2  191   1.100   4.280   2.099
   62TIP3    H1  192   1.195   4.286   2.098
   62TIP3    H2  193   1.072   4.342   2.167
   63TIP3   OH2  194   3.262   4.898   3.080
   63TIP3    H1  195   3.209   4.957   3.132
   63TIP3    H2  196   3.199   4.840   3.037
   64TIP3   OH2  197   1.392   3.269   0.992
   64TIP3    H1  198   1.434   3.208   0.932
   64TIP3    H2  199   1.464   3.323   1.025
   65TIP3   OH2  200   3.162   4.785   3.469
   65TIP3    H1  201   3.097   4.716   3.460
   65TIP3    H2  202   3.111   4.864   3.489
   66TIP3   OH2  203   5.639   2.680   3.427
   66TIP3    H1  204   5.627   2.636   3.511
   66TIP3    H2  205   5.640   2.609   3.363
   67TIP3   OH2  206   4.430   2.747   3.064
   67TIP3    H1  207   4.402   2.836   3.043
   67TIP3    H2  208   4.525   2.748   3.049
   68TIP3   OH2  209   1.527   3.836   4.080
   68TIP3    H1  210   1.535   3.746   4.049
   68TIP3    H2  211   1.465   3.832   4.152
   69TIP3   OH2  212   2.718   1.328   0.903
   69TIP3    H1  213   2.729   1.253   0.844
   69TIP3    H2  214   2.686   1.289   0.985
   70TIP3   OH2  215   1.600   3.375   4.028
   70TIP3    H1  216   1.549   3.451   3.999
   70TIP3    H2  217   1.569   3.358   4.116
   71TIP3   OH2  218   2.280   3.936   4.610
   71TIP3    H1  219   2.341   3.910   4.679
   71TIP3    H2  220   2.254   4.025   4.632
   72TIP3   OH2  221   4.244   1.142   4.539
   72TIP3    H1  222   4.219   1.215   4.481
   72TIP3    H2  223   4.325   1.172   4.580
   73TIP3   OH2  224   5.348   2.588   0.560
   73TIP3    H1  225   5.343   2.570   0.654
   73TIP3    H2  226   5.393   2.673   0.554
   74TIP3   OH2  227   1.839   4.199   3.983
   74TIP3    H1  228   1.931   4.206   4.006
   74TIP3    H2  229   1.827   4.106   3.960
   75TIP3   OH2  230   3.043   2.103   4.368
   75TIP3    H1  231   3.108   2.144   4.424
   75TIP3    H2  232   2.965   2.158   4.376
   76TIP3   OH2  233   5.355   2.167   1.548
   76TIP3    H1  234   5.357   2.117   1.466
   76TIP3    H2  235   5.310   2.249   1.525
   77TIP3   OH2  236   2.583   0.445   5.039
   77TIP3    H1  237   2.563   0.536   5.059
   77TIP3    H2  238   2.652   0.421   5.101
   78TIP3   OH2  239   4.890   3.904   1.360
   78TIP3    H1  240   4.908   3.881   1.451
   78TIP3    H2  241   4.941   3.842   1.309
   79TIP3   OH2  242   2.284   0.728   2.103
   79TIP3    H1  243   2.195   0.719   2.070
   79TIP3    H2  244   2.285   0.813   2.146
   80TIP3   OH2  245   1.267   1.989   1.546
   80TIP3    H1  246   1.338   2.034   1.591
   80TIP3    H2  247   1.303   1.903   1.525
   81TIP3   OH2  248   0.504   1.040   1.983
   81TIP3    H1  249   0.558   0.984   2.040
   81TIP3    H2  250   0.480   1.114   2.037
   82TIP3   OH2  251   1.618   4.811   1.427
   82TIP3    H1  252   1.637   4.833   1.518
   82TIP3    H2  253   1.641   4.718   1.419
   83TIP3   OH2  254   0.896   3.681   3.202
   83TIP3    H1  255   0.917   3.640   3.119
   83TIP3    H2  256   0.917   3.614   3.268
   84TIP3   OH2  257   4.878   1.401   2.836
   84TIP3    H1  258   4.883   1.428   2.928
   84TIP3    H2  259   4.922   1.316   2.834
   85TIP3   OH2  260   2.241   0.680   4.668
   85TIP3    H1  261   2.164   0.691   4.723
   85TIP3    H2  262   2.303   0.631   4.722
   86TIP3   OH2  263   5.629   3.032   4.348
   86TIP3    H1  264   5.696   2.979   4.304
   86TIP3    H2  265   5.547   2.985   4.331
   87TIP3   OH2  266   0.189   1.010   3.982
   87TIP3    H1  267   0.118   0.998   3.918
   87TIP3    H2  268   0.252   1.066   3.938
   88TIP3   OH2  269   2.808   5.548   4.856
   88TIP3    H1  270   2.810   5.642   4.872
   88TIP3    H2  271   2.749   5.537   4.782
   89TIP3   OH2  272   3.196   4.247   4.327
   89TIP3    H1  273   3.243   4.233   4.244
   89TIP3    H2  274   3.161   4.161   4.349
   90TIP3   OH2  275   1.224   1.115   4.779
   90TIP3    H1  276   1.206   1.113   4.684
   90TIP3    H2  277   1.290   1.048   4.792
   91TIP3   OH2  278   3.397   1.062   4.201
   91TIP3    H1  279   3.392   1.156   4.184
   91TIP3    H2  280   3.441   1.026   4.124
   92TIP3   OH2  281   4.053   1.400   3.646
   92TIP3    H1  282   4.106   1.474   3.675
   92TIP3    H2  283   4.055   1.406   3.550
   93TIP3   OH2  284   2.977   0.096   1.369
   93TIP3    H1  285   2.972   0.077   1.463
   93TIP3    H2  286   2.900   0.054   1.332
   94TIP3   OH2  287   1.285   0.333   3.790
   94TIP3    H1  288   1.330   0.312   3.871
   94TIP3    H2  289   1.197   0.296   3.800
   95TIP3   OH2  290   1.871   4.278   0.263
   95TIP3    H1  291   1.944   4.261   0.322
   95TIP3    H2  292   1.911   4.319   0.186
   96TIP3   OH2  293   0.319   1.862   5.155
   96TIP3    H1  294   0.240   1.809   5.168
   96TIP3    H2  295   0.388   1.798   5.140
   97TIP3   OH2  296   0.996   2.891   3.832
   97TIP3    H1  297   1.028   2.946   3.904
   97TIP3    H2  298   0.941   2.825   3.874
   98TIP3   OH2  299   6.276   4.740   0.854
   98TIP3    H1  300   6.268   4.767   0.945
   98TIP3    H2  301   6.190   4.760   0.816
   99TIP3   OH2  302   6.135   3.756   1.248
   99TIP3    H1  303   6.201   3.764   1.317
   99TIP3    H2  304   6.092   3.672   1.266
  100TIP3   OH2  305   1.564   4.291   1.597
  100TIP3    H1  306   1.615   4.247   1.529
  100TIP3    H2  307   1.483   4.317   1.553
  101TIP3   OH2  308   3.703   1.153   1.987
  101TIP3    H1  309   3.719   1.193   1.901
  101TIP3    H2  310   3.618   1.111   1.978
  102TIP3   OH2  311   1.192   0.374   2.824
  102TIP3    H1  312   1.232   0.289   2.845
  102TIP3    H2  313   1.239   0.437   2.878
  103TIP3   OH2  314   0.583   5.555   4.495
  103TIP3    H1  315   0.517   5.610   4.453
  103TIP3    H2  316   0.643   5.618   4.537
  104TIP3   OH2  317   2.491   4.959   1.226
  104TIP3    H1  318   2.576   4.963   1.183
  104TIP3    H2  319   2.444   4.889   1.181
  105TIP3   OH2  320   5.197   5.717   3.123
  105TIP3    H1  321   5.152   5.634   3.140
  105TIP3    H2  322   5.127   5.781   3.115
  106TIP3   OH2  323   1.353   5.703   3.030
  106TIP3    H1  324   1.339   5.782   2.979
  106TIP3    H2  325   1.390   5.734   3.113
  107TIP3   OH2  326   1.312   4.426   4.667
  107TIP3    H1  327   1.408   4.433   4.673
  107TIP3    H2  328   1.284   4.512   4.635
  108TIP3   OH2  329   4.103   3.979   3.424
  108TIP3    H1  330   4.052   4.059   3.439
  108TIP3    H2  331   4.188   3.997   3.464
  109TIP3   OH2  332   2.838   2.136   1.436
  109TIP3    H1  333   2.931   2.158   1.439
  109TIP3    H2  334   2.824   2.079   1.512
  110TIP3   OH2  335   0.576   2.283   3.144
  110TIP3    H1  336   0.590   2.189   3.152
  110TIP3    H2  337   0.651   2.314   3.094
  111TIP3   OH2  338   3.747   0.776   1.204
  111TIP3    H1  339   3.674   0.818   1.248
  111TIP3    H2  340   3.737   0.800   1.112
  112TIP3   OH2  341   5.131   2.791   2.028
  112TIP3    H1  342   5.051   2.841   2.042
  112TIP3    H2  343   5.150   2.752   2.113
  113TIP3   OH2  344   3.966   3.166   3.806
  113TIP3    H1  345   3.923   3.232   3.752
  113TIP3    H2  346   4.060   3.187   3.800
  114TIP3   OH2  347   0.056   1.748   2.522
  114TIP3    H1  348   0.147   1.745   2.552
  114TIP3    H2  349   0.034   1.841   2.524
  115TIP3   OH2  350   5.139   1.557   3.750
  115TIP3    H1  351   5.203   1.609   3.701
  115TIP3    H2  352   5.055   1.582   3.712
  116TIP3   OH2  353   1.943   5.678   4.532
  116TIP3    H1  354   1.963   5.594   4.491
  116TIP3    H2  355   2.029   5.719   4.544
  117TIP3   OH2  356   2.245   3.871   5.160
  117TIP3    H1  357   2.306   3.843   5.228
  117TIP3    H2  358   2.258   3.965   5.152
  118TIP3   OH2  359   2.876   0.371   4.939
  118TIP3    H1  360   2.930   0.449   4.949
  118TIP3    H2  361   2.821   0.369   5.018
  119TIP3   OH2  362   4.873   4.041   3.272
  119TIP3    H1  363   4.864   3.962   3.324
  119TIP3    H2  364   4.832   4.020   3.188
  120TIP3   OH2  365   3.836   0.200   3.608
  120TIP3    H1  366   3.931   0.205   3.619
  120TIP3    H2  367   3.824   0.184   3.514
  121TIP3   OH2  368   3.062   0.938   4.486
  121TIP3    H1  369   3.091   1.005   4.548
  121TIP3    H2  370   3.056   0.984   4.402
  122TIP3   OH2  371   0.604   0.872   2.696
  122TIP3    H1  372   0.518   0.886   2.658
  122TIP3    H2  373   0.646   0.809   2.637
  123TIP3   OH2  374   0.171   2.629   0.283
  123TIP3    H1  375   0.107   2.623   0.212
  123TIP3    H2  376   0.225   2.550   0.273
  124TIP3   OH2  377   0.395   0.434   1.556
  124TIP3    H1  378   0.301   0.423   1.574
  124TIP3    H2  379   0.437   0.418   1.641
  125TIP3   OH2  380   4.411   2.837   3.442
  125TIP3    H1  381   4.479   2.771   3.457
  125TIP3    H2  382   4.346   2.820   3.510
  126TIP3   OH2  383   1.329   3.680   1.962
  126TIP3    H1  384   1.340   3.590   1.930
  126TIP3    H2  385   1.383   3.733   1.903
  127TIP3   OH2  386   2.763   3.800   2.751
  127TIP3    H1  387   2.717   3.728   2.708
  127TIP3    H2  388   2.695   3.866   2.767
  128TIP3   OH2  389   0.637   2.226   0.337
  128TIP3    H1  390   0.726   2.195   0.323
  128TIP3    H2  391   0.632   2.243   0.431
  129TIP3   OH2  392   3.276   3.942   3.370
  129TIP3    H1  393   3.363   3.971   3.398
  129TIP3    H2  394   3.289   3.909   3.282
  130TIP3   OH2  395   2.426   3.585   3.699
  130TIP3    H1  396   2.420   3.670   3.654
  130TIP3    H2  397   2.344   3.541   3.678
  131TIP3   OH2  398   1.000   2.990   4.672
  131TIP3    H1  399   0.974   3.082   4.678
  131TIP3    H2  400   0.917   2.942   4.667
  132TIP3   OH2  401   3.690   5.235   4.849
  132TIP3    H1  402   3.778   5.258   4.877
  132TIP3    H2  403   3.685   5.263   4.758
  133TIP3   OH2  404   1.284   5.212   4.741
  133TIP3    H1  405   1.230   5.135   4.726
  133TIP3    H2  406   1.266   5.269   4.666
  134TIP3   OH2  407   2.185   2.812   3.452
  134TIP3    H1  408   2.115   2.783   3.394
  134TIP3    H2  409   2.255   2.841   3.394
  135TIP3   OH2  410   5.054   4.264   3.196
  135TIP3    H1  411   5.103   4.183   3.179
  135TIP3    H2  412   4.963   4.235   3.205
  136TIP3   OH2  413   2.813   1.158   0.372
  136TIP3    H1  414   2.765   1.232   0.335
  136TIP3    H2  415   2.746   1.096   0.398
  137TIP3   OH2  416   5.340   2.376   1.263
  137TIP3    H1  417   5.416   2.427   1.289
  137TIP3    H2  418   5.277   2.441   1.232
  138TIP3   OH2  419   3.797   3.661   0.650
  138TIP3    H1  420   3.880   3.625   0.617
  138TIP3    H2  421   3.732   3.635   0.585
  139TIP3   OH2  422   3.091   4.708   2.727
  139TIP3    H1  423   3.023   4.767   2.759
  139TIP3    H2  424   3.089   4.634   2.788
  140TIP3   OH2  425   0.341   5.823   4.963
  140TIP3    H1  426   0.362   5.890   4.897
  140TIP3    H2  427   0.246   5.815   4.959
  141TIP3   OH2  428   0.784   5.969   0.033
  141TIP3    H1  429   0.796   5.905   0.103
  141TIP3    H2  430   0.850   6.036   0.051
  142TIP3   OH2  431   3.254   3.805   0.437
  142TIP3    H1  432   3.301   3.886   0.456
  142TIP3    H2  433   3.282   3.780   0.349
  143TIP3   OH2  434   2.971   4.494   1.098
  143TIP3    H1  435   2.932   4.421   1.050
  143TIP3    H2  436   2.969   4.466   1.189
  144TIP3   OH2  437   6.261   2.836   3.876
  144TIP3    H1  438   6.317   2.823   3.800
  144TIP3    H2  439   6.239   2.929   3.875
  145TIP3   OH2  440   2.633   0.821   1.814
  145TIP3    H1  441   2.654   0.843   1.723
  145TIP3    H2  442   2.717   0.824   1.859
  146TIP3   OH2  443   2.275   2.012   0.225
  146TIP3    H1  444   2.236   1.928   0.200
  146TIP3    H2  445   2.273   2.012   0.320
  147TIP3   OH2  446   3.159   2.478   3.705
  147TIP3    H1  447   3.134   2.424   3.780
  147TIP3    H2  448   3.150   2.419   3.630
  148TIP3   OH2  449   3.299   0.502   4.041
  148TIP3    H1  450   3.212   0.464   4.032
  148TIP3    H2  451   3.334   0.463   4.121
  149TIP3   OH2  452   4.862   5.444   0.352
  149TIP3    H1  453   4.800   5.471   0.419
  149TIP3    H2  454   4.842   5.352   0.336
  150TIP3   OH2  455   5.462   5.323   3.181
  150TIP3    H1  456   5.499   5.397   3.132
  150TIP3    H2  457   5.495   5.335   3.270
  151TIP3   OH2  458   0.022   2.499   4.555
  151TIP3    H1  459   0.102   2.447   4.548
  151TIP3    H2  460  -0.049   2.434   4.549
  152TIP3   OH2  461   3.066   0.913   2.082
  152TIP3    H1  462   3.076   1.002   2.116
  152TIP3    H2  463   3.155   0.880   2.073
  153TIP3   OH2  464   3.563   0.725   4.101
  153TIP3    H1  465   3.620   0.788   4.144
  153TIP3    H2  466   3.524   0.674   4.172
  154TIP3   OH2  467   2.796   1.804   0.030
  154TIP3    H1  468   2.728   1.782  -0.034
  154TIP3    H2  469   2.789   1.898   0.042
  155TIP3   OH2  470   4.114   2.748   0.684
  155TIP3    H1  471   4.172   2.672   0.693
  155TIP3    H2  472   4.026   2.711   0.691
  156TIP3   OH2  473   2.990   3.550   2.986
  156TIP3    H1  474   3.078   3.544   2.948
  156TIP3    H2  475   3.004   3.537   3.079
  157TIP3   OH2  476   4.977   3.153   0.690
  157TIP3    H1  477   4.973   3.195   0.776
  157TIP3    H2  478   4.917   3.078   0.697
  158TIP3   OH2  479   4.887   1.935   2.094
  158TIP3    H1  480   4.795   1.922   2.119
  158TIP3    H2  481   4.929   1.851   2.113
  159TIP3   OH2  482   3.825   1.299   0.157
  159TIP3    H1  483   3.806   1.263   0.243
  159TIP3    H2  484   3.739   1.308   0.115
  160TIP3   OH2  485   0.785   1.418   2.445
  160TIP3    H1  486   0.714   1.449   2.503
  160TIP3    H2  487   0.851   1.487   2.451
  161TIP3   OH2  488   1.928   5.066   2.618
  161TIP3    H1  489   1.998   5.111   2.571
  161TIP3    H2  490   1.971   4.994   2.664
  162TIP3   OH2  491   3.231   4.539   1.980
  162TIP3    H1  492   3.280   4.547   1.898
  162TIP3    H2  493   3.216   4.445   1.989
  163TIP3   OH2  494   4.151   0.632   2.677
  163TIP3    H1  495   4.104   0.680   2.610
  163TIP3    H2  496   4.103   0.650   2.758
  164TIP3   OH2  497   5.173   0.114   3.334
  164TIP3    H1  498   5.160   0.204   3.365
  164TIP3    H2  499   5.124   0.110   3.252
  165TIP3   OH2  500   3.673   4.654   0.737
  165TIP3    H1  501   3.751   4.635   0.790
  165TIP3    H2  502   3.706   4.659   0.647
  166TIP3   OH2  503   1.008   5.662   3.194
  166TIP3    H1  504   1.027   5.600   3.264
  166TIP3    H2  505   0.927   5.704   3.220
  167TIP3   OH2  506   3.376   3.368   3.263
  167TIP3    H1  507   3.335   3.432   3.205
  167TIP3    H2  508   3.353   3.398   3.351
  168TIP3   OH2  509   6.029   4.601   4.856
  168TIP3    H1  510   6.018   4.660   4.930
  168TIP3    H2  511   5.939   4.576   4.832
  169TIP3   OH2  512   3.482   5.246   0.864
  169TIP3    H1  513   3.536   5.183   0.912
  169TIP3    H2  514   3.393   5.231   0.895
  170TIP3   OH2  515   1.134   1.755   1.744
  170TIP3    H1  516   1.069   1.775   1.811
  170TIP3    H2  517   1.138   1.834   1.690
  171TIP3   OH2  518   1.741   5.578   0.428
  171TIP3    H1  519   1.743   5.653   0.487
  171TIP3    H2  520   1.704   5.612   0.347
  172TIP3   OH2  521   5.389   5.257   1.252
  172TIP3    H1  522   5.450   5.297   1.314
  172TIP3    H2  523   5.445   5.211   1.190
  173TIP3   OH2  524   0.641   0.077   0.309
  173TIP3    H1  525   0.574   0.015   0.278
  173TIP3    H2  526   0.641   0.067   0.404
  174TIP3   OH2  527   0.707   2.462   3.999
  174TIP3    H1  528   0.630   2.415   3.966
  174TIP3    H2  529   0.780   2.424   3.950
  175TIP3   OH2  530   0.444   4.377   1.829
  175TIP3    H1  531   0.532   4.352   1.800
  175TIP3    H2  532   0.456   4.464   1.868
  176TIP3   OH2  533   2.642   0.472   1.608
  176TIP3    H1  534   2.622   0.528   1.684
  176TIP3    H2  535   2.562   0.476   1.555
  177TIP3   OH2  536   5.508   4.118   4.581
  177TIP3    H1  537   5.601   4.107   4.600
  177TIP3    H2  538   5.463   4.080   4.656
  178TIP3   OH2  539   5.167   1.189   1.925
  178TIP3    H1  540   5.249   1.175   1.876
  178TIP3    H2  541   5.150   1.283   1.915
  179TIP3   OH2  542   0.092   5.726   3.653
  179TIP3    H1  543   0.005   5.753   3.683
  179TIP3    H2  544   0.077   5.645   3.605
  180TIP3   OH2  545   0.325   3.541   1.096
  180TIP3    H1  546   0.392   3.588   1.145
  180TIP3    H2  547   0.242   3.578   1.125
  181TIP3   OH2  548   0.597   5.160   5.088
  181TIP3    H1  549   0.691   5.143   5.079
  181TIP3    H2  550   0.560   5.075   5.114
  182TIP3   OH2  551   0.911   2.598   4.685
  182TIP3    H1  552   0.942   2.596   4.775
  182TIP3    H2  553   0.990   2.609   4.633
  183TIP3   OH2  554   4.791   4.157   1.695
  183TIP3    H1  555   4.762   4.073   1.728
  183TIP3    H2  556   4.798   4.144   1.600
  184TIP3   OH2  557   4.002   4.101   0.957
  184TIP3    H1  558   4.080   4.093   0.902
  184TIP3    H2  559   4.030   4.070   1.043
  185TIP3   OH2  560   0.762   4.174   0.822
  185TIP3    H1  561   0.840   4.229   0.833
  185TIP3    H2  562   0.797   4.088   0.799
  186TIP3   OH2  563   3.815   4.807   3.432
  186TIP3    H1  564   3.863   4.890   3.442
  186TIP3    H2  565   3.844   4.753   3.505
  187TIP3   OH2  566   3.294   2.717   3.663
  187TIP3    H1  567   3.233   2.643   3.652
  187TIP3    H2  568   3.342   2.697   3.743
  188TIP3   OH2  569   4.098   5.569   2.162
  188TIP3    H1  570   4.122   5.649   2.116
  188TIP3    H2  571   4.179   5.517   2.165
  189TIP3   OH2  572   0.634   5.349   2.136
  189TIP3    H1  573   0.689   5.420   2.170
  189TIP3    H2  574   0.545   5.374   2.162
  190TIP3   OH2  575   1.242   4.152   4.614
  190TIP3    H1  576   1.299   4.076   4.621
  190TIP3    H2  577   1.292   4.223   4.653
  191TIP3   OH2  578   4.039   2.028   4.225
  191TIP3    H1  579   4.010   2.104   4.275
  191TIP3    H2  580   3.973   1.961   4.241
  192TIP3   OH2  581   3.280   3.185   0.210
  192TIP3    H1  582   3.351   3.124   0.188
  192TIP3    H2  583   3.318   3.242   0.276
  193TIP3   OH2  584   1.141   3.756   0.496
  193TIP3    H1  585   1.090   3.786   0.571
  193TIP3    H2  586   1.217   3.713   0.535
  194TIP3   OH2  587   6.222   5.638   1.627
  194TIP3    H1  588   6.251   5.610   1.713
  194TIP3    H2  589   6.131   5.610   1.622
  195TIP3   OH2  590   4.113   2.680   1.015
  195TIP3    H1  591   4.148   2.611   1.071
  195TIP3    H2  592   4.190   2.730   0.987
  196TIP3   OH2  593   3.091   0.174   0.069
  196TIP3    H1  594   3.083   0.269   0.082
  196TIP3    H2  595   3.186   0.158   0.071
  197TIP3   OH2  596   2.163   3.446   3.353
  197TIP3    H1  597   2.237   3.386   3.360
  197TIP3    H2  598   2.115   3.416   3.276
  198TIP3   OH2  599   4.630   2.307   2.534
  198TIP3    H1  600   4.643   2.373   2.465
  198TIP3    H2  601   4.715   2.300   2.577
  199TIP3   OH2  602   3.823   0.905   0.219
  199TIP3    H1  603   3.877   0.953   0.282
  199TIP3    H2  604   3.874   0.907   0.138
  200TIP3   OH2  605   0.217   1.212   0.146
  200TIP3    H1  606   0.279   1.150   0.184
  200TIP3    H2  607   0.187   1.170   0.065
  201TIP3   OH2  608   2.695   0.428   4.729
  201TIP3    H1  609   2.744   0.388   4.801
  201TIP3    H2  610   2.694   0.522   4.749
  202TIP3   OH2  611   1.968   2.302   0.163
  202TIP3    H1  612   2.031   2.265   0.101
  202TIP3    H2  613   1.891   2.323   0.109
  203TIP3   OH2  614   3.758   5.564   1.582
  203TIP3    H1  615   3.688   5.622   1.612
  203TIP3    H2  616   3.763   5.580   1.488
  204TIP3   OH2  617   4.064   2.361   3.690
  204TIP3    H1  618   4.061   2.267   3.674
  204TIP3    H2  619   3.999   2.398   3.630
  205TIP3   OH2  620   5.752   3.256   1.754
  205TIP3    H1  621   5.808   3.229   1.827
  205TIP3    H2  622   5.728   3.347   1.774
  206TIP3   OH2  623   3.392   5.756   3.671
  206TIP3    H1  624   3.347   5.821   3.618
  206TIP3    H2  625   3.381   5.674   3.624
  207TIP3   OH2  626   3.830   3.101   2.174
  207TIP3    H1  627   3.892   3.173   2.169
  207TIP3    H2  628   3.808   3.094   2.267
  208TIP3   OH2  629   3.359   4.934   5.004
  208TIP3    H1  630   3.365   4.964   4.913
  208TIP3    H2  631   3.448   4.943   5.037
  209TIP3   OH2  632   2.548   3.055   0.044
  209TIP3    H1  633   2.533   3.015   0.130
  209TIP3    H2  634   2.481   3.123   0.038
  210TIP3   OH2  635   0.023   2.638   2.528
  210TIP3    H1  636   0.021   2.562   2.586
  210TIP3    H2  637   0.034   2.602   2.440
  211TIP3   OH2  638   0.373   3.583   3.569
  211TIP3    H1  639   0.409   3.494   3.573
  211TIP3    H2  640   0.331   3.595   3.654
  212TIP3   OH2  641   3.580   3.158   2.082
  212TIP3    H1  642   3.663   3.145   2.127
  212TIP3    H2  643   3.572   3.084   2.023
  213TIP3   OH2  644   0.318   4.860   4.794
  213TIP3    H1  645   0.274   4.938   4.828
  213TIP3    H2  646   0.254   4.789   4.806
  214TIP3   OH2  647   0.546   0.198   3.800
  214TIP3    H1  648   0.516   0.220   3.888
  214TIP3    H2  649   0.471   0.219   3.744
  215TIP3   OH2  650   1.800   4.688   0.513
  215TIP3    H1  651   1.781   4.667   0.421
  215TIP3    H2  652   1.855   4.615   0.543
  216TIP3   OH2  653   3.596   0.801   4.580
  216TIP3    H1  654   3.581   0.800   4.485
  216TIP3    H2  655   3.508   0.797   4.618
  217TIP3   OH2  656   5.030   4.791   0.635
  217TIP3    H1  657   5.024   4.850   0.560
  217TIP3    H2  658   4.957   4.816   0.692
  218TIP3   OH2  659   0.516   0.880   3.850
  218TIP3    H1  660   0.581   0.851   3.786
  218TIP3    H2  661   0.441   0.823   3.835
  219TIP3   OH2  662   1.707   1.801   1.127
  219TIP3    H1  663   1.676   1.825   1.040
  219TIP3    H2  664   1.783   1.858   1.142
  220TIP3   OH2  665   1.507   3.228   1.583
  220TIP3    H1  666   1.449   3.184   1.646
  220TIP3    H2  667   1.543   3.157   1.530
  221TIP3   OH2  668   5.729   0.458   3.057
  221TIP3    H1  669   5.712   0.364   3.058
  221TIP3    H2  670   5.709   0.487   3.147
  222TIP3   OH2  671   4.130   3.837   2.265
  222TIP3    H1  672   4.122   3.762   2.207
  222TIP3    H2  673   4.205   3.816   2.322
  223TIP3   OH2  674   3.078   4.356   2.515
  223TIP3    H1  675   3.126   4.381   2.594
  223TIP3    H2  676   3.008   4.298   2.546
  224TIP3   OH2  677   1.930   5.774   4.227
  224TIP3    H1  678   1.862   5.747   4.288
  224TIP3    H2  679   1.916   5.719   4.150
  225TIP3   OH2  680   6.012   3.561   1.669
  225TIP3    H1  681   5.937   3.590   1.721
  225TIP3    H2  682   6.072   3.636   1.668
  226TIP3   OH2  683   4.725   0.052   5.016
  226TIP3    H1  684   4.754   0.128   4.965
  226TIP3    H2  685   4.704   0.088   5.102
  227TIP3   OH2  686   2.841   2.830   4.761
  227TIP3    H1  687   2.927   2.865   4.785
  227TIP3    H2  688   2.779   2.898   4.788
  228TIP3   OH2  689   3.604   2.367   0.102
  228TIP3    H1  690   3.669   2.341   0.168
  228TIP3    H2  691   3.651   2.360   0.019
  229TIP3   OH2  692   1.693   4.712   3.213
  229TIP3    H1  693   1.633   4.749   3.149
  229TIP3    H2  694   1.730   4.634   3.170
  230TIP3   OH2  695   4.694   5.444   2.969
  230TIP3    H1  696   4.749   5.507   3.015
  230TIP3    H2  697   4.628   5.497   2.924
  231TIP3   OH2  698   0.777   3.143   0.495
  231TIP3    H1  699   0.858   3.157   0.446
  231TIP3    H2  700   0.716   3.109   0.430
  232TIP3   OH2  701   3.636   3.305   3.791
  232TIP3    H1  702   3.550   3.309   3.750
  232TIP3    H2  703   3.657   3.212   3.793
  233TIP3   OH2  704   6.193   5.389   3.201
  233TIP3    H1  705   6.174   5.430   3.285
  233TIP3    H2  706   6.107   5.374   3.162
  234TIP3   OH2  707   5.157   0.975   0.073
  234TIP3    H1  708   5.176   0.990  -0.020
  234TIP3    H2  709   5.121   0.887   0.077
  235TIP3   OH2  710   4.002   0.010   0.740
  235TIP3    H1  711   4.000   0.022   0.835
  235TIP3    H2  712   4.079   0.059   0.711
  236TIP3   OH2  713   5.200   2.296   3.040
  236TIP3    H1  714   5.137   2.363   3.013
  236TIP3    H2  715   5.190   2.226   2.976
  237TIP3   OH2  716   3.606   1.966   2.524
  237TIP3    H1  717   3.623   2.003   2.611
  237TIP3    H2  718   3.659   2.018   2.465
  238TIP3   OH2  719   4.198   0.679   0.599
  238TIP3    H1  720   4.220   0.658   0.508
  238TIP3    H2  721   4.122   0.625   0.618
  239TIP3   OH2  722   0.212   5.809   2.740
  239TIP3    H1  723   0.240   5.718   2.750
  239TIP3    H2  724   0.164   5.829   2.821
  240TIP3   OH2  725   5.362   1.231   2.838
  240TIP3    H1  726   5.379   1.210   2.747
  240TIP3    H2  727   5.324   1.151   2.875
  241TIP3   OH2  728   0.888   1.681   4.944
  241TIP3    H1  729   0.880   1.648   4.854
  241TIP3    H2  730   0.882   1.602   4.998
  242TIP3   OH2  731   0.151   0.090   4.696
  242TIP3    H1  732   0.173   0.075   4.604
  242TIP3    H2  733   0.085   0.160   4.694
  243TIP3   OH2  734   2.455   5.466   4.108
  243TIP3    H1  735   2.384   5.489   4.169
  243TIP3    H2  736   2.517   5.538   4.115
  244TIP3   OH2  737   5.221   2.054   0.585
  244TIP3    H1  738   5.279   1.978   0.581
  244TIP3    H2  739   5.151   2.034   0.523
  245TIP3   OH2  740   1.595   5.871   1.190
  245TIP3    H1  741   1.578   5.922   1.270
  245TIP3    H2  742   1.564   5.782   1.212
  246TIP3   OH2  743   1.112   5.502   4.248
  246TIP3    H1  744   1.070   5.585   4.269
  246TIP3    H2  745   1.198   5.526   4.215
  247TIP3   OH2  746   3.539   4.897   1.857
  247TIP3    H1  747   3.606   4.844   1.902
  247TIP3    H2  748   3.568   4.988   1.872
  248TIP3   OH2  749   2.443   0.250   2.418
  248TIP3    H1  750   2.379   0.189   2.456
  248TIP3    H2  751   2.493   0.197   2.357
  249TIP3   OH2  752   2.284   2.093   1.305
  249TIP3    H1  753   2.256   2.020   1.360
  249TIP3    H2  754   2.233   2.168   1.337
  250TIP3   OH2  755   0.085   4.339   2.101
  250TIP3    H1  756   0.051   4.396   2.032
  250TIP3    H2  757   0.176   4.325   2.078
  251TIP3   OH2  758   3.369   1.463   3.934
  251TIP3    H1  759   3.430   1.479   4.007
  251TIP3    H2  760   3.295   1.418   3.974
  252TIP3   OH2  761   5.721   5.005   3.475
  252TIP3    H1  762   5.743   5.042   3.560
  252TIP3    H2  763   5.718   5.081   3.416
  253TIP3   OH2  764   3.213   0.166   4.132
  253TIP3    H1  765   3.159   0.245   4.143
  253TIP3    H2  766   3.285   0.195   4.075
  254TIP3   OH2  767   2.226   2.800   1.362
  254TIP3    H1  768   2.234   2.708   1.388
  254TIP3    H2  769   2.135   2.823   1.383
  255TIP3   OH2  770   2.261   4.372   0.415
  255TIP3    H1  771   2.263   4.338   0.505
  255TIP3    H2  772   2.231   4.298   0.362
  256TIP3   OH2  773   0.633   1.593   0.408
  256TIP3    H1  774   0.710   1.538   0.422
  256TIP3    H2  775   0.565   1.554   0.462
  257TIP3   OH2  776   5.401   4.339   5.056
  257TIP3    H1  777   5.369   4.384   4.978
  257TIP3    H2  778   5.492   4.319   5.035
  258TIP3   OH2  779   0.504   4.062   0.952
  258TIP3    H1  780   0.542   4.003   1.018
  258TIP3    H2  781   0.574   4.125   0.934
  259TIP3   OH2  782   5.293   5.056   4.424
  259TIP3    H1  783   5.355   5.002   4.376
  259TIP3    H2  784   5.336   5.142   4.430
  260TIP3   OH2  785   2.642   4.569   1.926
  260TIP3    H1  786   2.736   4.562   1.944
  260TIP3    H2  787   2.620   4.660   1.944
  261TIP3   OH2  788   1.751   3.025   3.388
  261TIP3    H1  789   1.773   3.095   3.327
  261TIP3    H2  790   1.725   2.952   3.331
  262TIP3   OH2  791   2.752   4.774   1.018
  262TIP3    H1  792   2.814   4.763   1.090
  262TIP3    H2  793   2.690   4.702   1.030
  263TIP3   OH2  794   6.130   1.364   0.798
  263TIP3    H1  795   6.093   1.341   0.712
  263TIP3    H2  796   6.060   1.344   0.860
  264TIP3   OH2  797   4.855   1.458   0.079
  264TIP3    H1  798   4.820   1.455  -0.010
  264TIP3    H2  799   4.854   1.367   0.107
  265TIP3   OH2  800   3.352   1.231   0.608
  265TIP3    H1  801   3.285   1.249   0.674
  265TIP3    H2  802   3.315   1.159   0.557
  266TIP3   OH2  803   5.064   0.894   5.109
  266TIP3    H1  804   5.032   0.971   5.155
  266TIP3    H2  805   5.055   0.823   5.173
  267TIP3   OH2  806   3.467   2.624   3.865
  267TIP3    H1  807   3.511   2.581   3.792
  267TIP3    H2  808   3.530   2.689   3.897
  268TIP3   OH2  809   3.994   0.540   1.781
  268TIP3    H1  810   4.001   0.589   1.699
  268TIP3    H2  811   4.053   0.585   1.842
  269TIP3   OH2  812   5.939   1.363   1.320
  269TIP3    H1  813   6.009   1.423   1.346
  269TIP3    H2  814   5.958   1.341   1.229
  270TIP3   OH2  815   1.376   4.991   2.254
  270TIP3    H1  816   1.411   5.023   2.338
  270TIP3    H2  817   1.288   4.961   2.275
  271TIP3   OH2  818   1.386   3.216   2.689
  271TIP3    H1  819   1.428   3.191   2.771
  271TIP3    H2  820   1.459   3.233   2.629
  272TIP3   OH2  821   5.347   5.029   2.179
  272TIP3    H1  822   5.374   5.057   2.266
  272TIP3    H2  823   5.252   5.016   2.187
  273TIP3   OH2  824   5.010   4.811   1.016
  273TIP3    H1  825   5.077   4.818   1.083
  273TIP3    H2  826   5.049   4.853   0.939
  274TIP3   OH2  827   2.177   4.541   1.629
  274TIP3    H1  828   2.195   4.622   1.676
  274TIP3    H2  829   2.201   4.471   1.690
  275TIP3   OH2  830   2.257   2.443   2.719
  275TIP3    H1  831   2.280   2.353   2.744
  275TIP3    H2  832   2.301   2.456   2.635
  276TIP3   OH2  833   2.903   0.535   1.839
  276TIP3    H1  834   2.879   0.591   1.913
  276TIP3    H2  835   2.979   0.486   1.870
  277TIP3   OH2  836   2.767   0.353   2.031
  277TIP3    H1  837   2.813   0.396   1.960
  277TIP3    H2  838   2.690   0.313   1.989
  278TIP3   OH2  839   6.225   4.373   3.637
  278TIP3    H1  840   6.245   4.330   3.554
  278TIP3    H2  841   6.130   4.378   3.639
  279TIP3   OH2  842   3.052   1.824   1.237
  279TIP3    H1  843   3.073   1.762   1.167
  279TIP3    H2  844   3.129   1.881   1.243
  280TIP3   OH2  845   3.190   0.724   3.877
  280TIP3    H1  846   3.273   0.770   3.893
  280TIP3    H2  847   3.204   0.678   3.795
  281TIP3   OH2  848   0.902   0.818   4.504
  281TIP3    H1  849   0.830   0.818   4.567
  281TIP3    H2  850   0.911   0.910   4.479
  282TIP3   OH2  851   5.395   5.625   2.400
  282TIP3    H1  852   5.376   5.695   2.463
  282TIP3    H2  853   5.490   5.627   2.389
  283TIP3   OH2  854   3.140   4.773   5.087
  283TIP3    H1  855   3.199   4.845   5.063
  283TIP3    H2  856   3.182   4.694   5.053
  284TIP3   OH2  857   2.648   2.915   0.803
  284TIP3    H1  858   2.726   2.946   0.848
  284TIP3    H2  859   2.681   2.873   0.723
  285TIP3   OH2  860   3.276   0.577   2.875
  285TIP3    H1  861   3.228   0.593   2.793
  285TIP3    H2  862   3.265   0.484   2.891
  286TIP3   OH2  863   3.529   1.520   3.428
  286TIP3    H1  864   3.501   1.519   3.520
  286TIP3    H2  865   3.480   1.593   3.390
  287TIP3   OH2  866   6.215   2.316   0.929
  287TIP3    H1  867   6.249   2.404   0.944
  287TIP3    H2  868   6.124   2.330   0.902
  288TIP3   OH2  869   1.136   2.236   0.315
  288TIP3    H1  870   1.172   2.163   0.265
  288TIP3    H2  871   1.189   2.312   0.288
  289TIP3   OH2  872   5.660   4.063   2.877
  289TIP3    H1  873   5.665   3.970   2.901
  289TIP3    H2  874   5.600   4.065   2.802
  290TIP3   OH2  875   1.924   5.097   2.936
  290TIP3    H1  876   1.913   5.124   3.027
  290TIP3    H2  877   1.940   5.179   2.888
  291TIP3   OH2  878   2.414   1.947   2.990
  291TIP3    H1  879   2.380   2.016   2.933
  291TIP3    H2  880   2.346   1.934   3.056
  292TIP3   OH2  881   4.996   5.872   3.434
  292TIP3    H1  882   4.948   5.890   3.515
  292TIP3    H2  883   4.928   5.873   3.366
  293TIP3   OH2  884   0.247   3.723   2.767
  293TIP3    H1  885   0.277   3.809   2.796
  293TIP3    H2  886   0.252   3.668   2.846
  294TIP3   OH2  887   4.594   5.196   0.725
  294TIP3    H1  888   4.511   5.174   0.768
  294TIP3    H2  889   4.661   5.169   0.788
  295TIP3   OH2  890   3.087   1.266   4.922
  295TIP3    H1  891   3.158   1.289   4.863
  295TIP3    H2  892   3.080   1.342   4.981
  296TIP3   OH2  893   5.924   0.684   0.170
  296TIP3    H1  894   5.904   0.741   0.244
  296TIP3    H2  895   5.953   0.743   0.100
  297TIP3   OH2  896   0.641   3.562   4.681
  297TIP3    H1  897   0.647   3.573   4.776
  297TIP3    H2  898   0.725   3.594   4.648
  298TIP3   OH2  899   3.580   3.749   1.788
  298TIP3    H1  900   3.564   3.844   1.788
  298TIP3    H2  901   3.505   3.712   1.834
  299TIP3   OH2  902   4.952   0.739   1.063
  299TIP3    H1  903   4.892   0.814   1.061
  299TIP3    H2  904   5.036   0.775   1.033
  300TIP3   OH2  905   5.656   3.761   2.122
  300TIP3    H1  906   5.680   3.840   2.073
  300TIP3    H2  907   5.570   3.781   2.159
  301TIP3   OH2  908   3.646   5.328   4.274
  301TIP3    H1  909   3.561   5.292   4.249
  301TIP3    H2  910   3.710   5.278   4.223
  302TIP3   OH2  911   2.038   2.250   4.637
  302TIP3    H1  912   2.079   2.335   4.654
  302TIP3    H2  913   2.108   2.186   4.650
  303TIP3   OH2  914   5.725   2.453   0.148
  303TIP3    H1  915   5.668   2.530   0.145
  303TIP3    H2  916   5.775   2.458   0.067
  304TIP3   OH2  917   1.385   5.810   2.637
  304TIP3    H1  918   1.312   5.759   2.602
  304TIP3    H2  919   1.435   5.837   2.559
  305TIP3   OH2  920   4.210   5.925   3.789
  305TIP3    H1  921   4.296   5.891   3.765
  305TIP3    H2  922   4.210   6.016   3.760
  306TIP3   OH2  923   1.226   0.772   1.630
  306TIP3    H1  924   1.291   0.735   1.690
  306TIP3    H2  925   1.206   0.858   1.666
  307TIP3   OH2  926   5.270   5.641   0.250
  307TIP3    H1  927   5.336   5.686   0.196
  307TIP3    H2  928   5.218   5.590   0.188
  308TIP3   OH2  929   0.205   0.605   2.248
  308TIP3    H1  930   0.166   0.531   2.295
  308TIP3    H2  931   0.130   0.656   2.217
  309TIP3   OH2  932   0.836   3.079   4.100
  309TIP3    H1  933   0.767   3.047   4.158
  309TIP3    H2  934   0.793   3.144   4.045
  310TIP3   OH2  935   0.847   4.651   2.458
  310TIP3    H1  936   0.815   4.738   2.483
  310TIP3    H2  937   0.780   4.591   2.488
  311TIP3   OH2  938   2.782   1.311   2.564
  311TIP3    H1  939   2.759   1.268   2.646
  311TIP3    H2  940   2.862   1.268   2.535
  312TIP3   OH2  941   3.617   0.456   4.575
  312TIP3    H1  942   3.694   0.412   4.539
  312TIP3    H2  943   3.648   0.542   4.602
  313TIP3   OH2  944   3.981   4.174   4.987
  313TIP3    H1  945   4.035   4.222   4.924
  313TIP3    H2  946   3.924   4.240   5.026
  314TIP3   OH2  947   0.943   0.043   4.066
  314TIP3    H1  948   0.989  -0.011   4.002
  314TIP3    H2  949   0.851   0.032   4.046
  315TIP3   OH2  950   5.467   1.228   0.474
  315TIP3    H1  951   5.472   1.154   0.535
  315TIP3    H2  952   5.549   1.224   0.424
  316TIP3   OH2  953   0.936   4.087   2.767
  316TIP3    H1  954   0.852   4.133   2.766
  316TIP3    H2  955   0.968   4.092   2.677
  317TIP3   OH2  956   1.569   4.887   3.052
  317TIP3    H1  957   1.585   4.942   2.975
  317TIP3    H2  958   1.605   4.938   3.125
  318TIP3   OH2  959   0.293   1.795   2.988
  318TIP3    H1  960   0.277   1.884   2.957
  318TIP3    H2  961   0.367   1.804   3.048
  319TIP3   OH2  962   3.039   1.845   4.728
  319TIP3    H1  963   3.089   1.907   4.782
  319TIP3    H2  964   2.970   1.897   4.689
  320TIP3   OH2  965   3.970   5.334   4.809
  320TIP3    H1  966   3.955   5.422   4.773
  320TIP3    H2  967   3.986   5.349   4.902
  321TIP3   OH2  968   4.919   0.766   3.672
  321TIP3    H1  969   4.995   0.787   3.727
  321TIP3    H2  970   4.845   0.763   3.733
  322TIP3   OH2  971   5.209   0.588   3.670
  322TIP3    H1  972   5.285   0.621   3.622
  322TIP3    H2  973   5.198   0.649   3.743
  323TIP3   OH2  974   1.640   4.329   0.406
  323TIP3    H1  975   1.578   4.362   0.342
  323TIP3    H2  976   1.723   4.321   0.359
  324TIP3   OH2  977   2.284   4.100   5.052
  324TIP3    H1  978   2.319   4.068   4.968
  324TIP3    H2  979   2.327   4.185   5.064
  325TIP3   OH2  980   3.247   1.809   4.334
  325TIP3    H1  981   3.267   1.896   4.300
  325TIP3    H2  982   3.165   1.821   4.383
  326TIP3   OH2  983   4.937   1.155   4.000
  326TIP3    H1  984   4.879   1.216   4.045
  326TIP3    H2  985   4.940   1.188   3.910
  327TIP3   OH2  986   1.709   1.320   3.408
  327TIP3    H1  987   1.718   1.352   3.498
  327TIP3    H2  988   1.615   1.323   3.390
  328TIP3   OH2  989   1.015   5.247   1.254
  328TIP3    H1  990   1.019   5.217   1.163
  328TIP3    H2  991   1.021   5.342   1.248
  329TIP3   OH2  992   1.181   1.493   3.313
  329TIP3    H1  993   1.111   1.545   3.352
  329TIP3    H2  994   1.231   1.556   3.260
  330TIP3   OH2  995   5.192   2.363   0.546
  330TIP3    H1  996   5.194   2.367   0.642
  330TIP3    H2  997   5.252   2.432   0.518
  331TIP3   OH2  998   2.677   4.110   0.291
  331TIP3    H1  999   2.763   4.152   0.283
  331TIP3    H2 1000   2.646   4.137   0.378
  332TIP3   OH2 1001   4.107   1.850   4.509
  332TIP3    H1 1002   4.109   1.892   4.595
  332TIP3    H2 1003   4.025   1.880   4.470
  333TIP3   OH2 1004   2.843   4.848   4.705
  333TIP3    H1 1005   2.856   4.806   4.790
  333TIP3    H2 1006   2.757   4.817   4.676
  334TIP3   OH2 1007   0.896   0.847   3.254
  334TIP3    H1 1008   0.953   0.803   3.191
  334TIP3    H2 1009   0.921   0.940   3.249
  335TIP3   OH2 1010   5.273   4.421   4.742
  335TIP3    H1 1011   5.242   4.511   4.744
  335TIP3    H2 1012   5.199   4.369   4.774
  336TIP3   OH2 1013   5.502   2.050   2.370
  336TIP3    H1 1014   5.589   2.066   2.334
  336TIP3    H2 1015   5.448   2.121   2.335
  337TIP3   OH2 1016   2.815   3.624   3.765
  337TIP3    H1 1017   2.748   3.601   3.830
  337TIP3    H2 1018   2.831   3.717   3.780
  338TIP3   OH2 1019   4.840   0.589   4.496
  338TIP3    H1 1020   4.869   0.510   4.542
  338TIP3    H2 1021   4.919   0.621   4.452
  339TIP3   OH2 1022   4.914   4.550   4.047
  339TIP3    H1 1023   5.003   4.569   4.076
  339TIP3    H2 1024   4.909   4.454   4.044
  340TIP3   OH2 1025   2.905   4.561   2.425
  340TIP3    H1 1026   2.948   4.646   2.433
  340TIP3    H2 1027   2.964   4.500   2.471
  341TIP3   OH2 1028   4.012   2.184   3.963
  341TIP3    H1 1029   4.016   2.099   4.007
  341TIP3    H2 1030   4.098   2.223   3.978
  342TIP3   OH2 1031   1.522   5.328   3.306
  342TIP3    H1 1032   1.525   5.347   3.400
  342TIP3    H2 1033   1.578   5.395   3.266
  343TIP3   OH2 1034   0.865   0.203   4.376
  343TIP3    H1 1035   0.795   0.139   4.389
  343TIP3    H2 1036   0.899   0.220   4.464
  344TIP3   OH2 1037   2.124   3.445   4.594
  344TIP3    H1 1038   2.181   3.518   4.615
  344TIP3    H2 1039   2.126   3.389   4.672
  345TIP3   OH2 1040   5.517   1.570   0.317
  345TIP3    H1 1041   5.499   1.556   0.410
  345TIP3    H2 1042   5.538   1.663   0.311
  346TIP3   OH2 1043   0.438   5.460   4.854
  346TIP3    H1 1044   0.526   5.424   4.863
  346TIP3    H2 1045   0.431   5.524   4.925
  347TIP3   OH2 1046   0.900   5.341   4.281
  347TIP3    H1 1047   0.984   5.382   4.261
  347TIP3    H2 1048   0.840   5.414   4.296
  348TIP3   OH2 1049   4.309   3.249   0.883
  348TIP3    H1 1050   4.257   3.324   0.914
  348TIP3    H2 1051   4.301   3.184   0.953
  349TIP3   OH2 1052   3.376   5.362   2.988
  349TIP3    H1 1053   3.453   5.307   2.993
  349TIP3    H2 1054   3.312   5.311   2.938
  350TIP3   OH2 1055   3.638   2.523   4.402
  350TIP3    H1 1056   3.708   2.587   4.384
  350TIP3    H2 1057   3.602   2.502   4.315
  351TIP3   OH2 1058   1.493   3.796   0.373
  351TIP3    H1 1059   1.498   3.861   0.442
  351TIP3    H2 1060   1.425   3.735   0.402
  352TIP3   OH2 1061   4.071   0.683   1.562
  352TIP3    H1 1062   4.166   0.688   1.570
  352TIP3    H2 1063   4.054   0.693   1.468
  353TIP3   OH2 1064   4.455   3.371   4.388
  353TIP3    H1 1065   4.481   3.462   4.373
  353TIP3    H2 1066   4.538   3.323   4.395
  354TIP3   OH2 1067   3.034   4.008   1.922
  354TIP3    H1 1068   3.025   4.089   1.971
  354TIP3    H2 1069   2.990   3.942   1.975
  355TIP3   OH2 1070   3.202   3.154   2.985
  355TIP3    H1 1071   3.204   3.217   2.913
  355TIP3    H2 1072   3.122   3.103   2.969
  356TIP3   OH2 1073   1.455   4.111   4.931
  356TIP3    H1 1074   1.468   4.136   5.022
  356TIP3    H2 1075   1.412   4.026   4.935
  357TIP3   OH2 1076   1.167   5.023   1.298
  357TIP3    H1 1077   1.226   5.075   1.353
  357TIP3    H2 1078   1.090   5.078   1.285
  358TIP3   OH2 1079   6.247   0.544   3.229
  358TIP3    H1 1080   6.159   0.546   3.192
  358TIP3    H2 1081   6.271   0.451   3.228
  359TIP3   OH2 1082   3.842   0.450   5.025
  359TIP3    H1 1083   3.789   0.446   5.105
  359TIP3    H2 1084   3.844   0.359   4.994
  360TIP3   OH2 1085   3.262   4.628   4.330
  360TIP3    H1 1086   3.203   4.625   4.254
  360TIP3    H2 1087   3.207   4.603   4.404
  361TIP3   OH2 1088   1.217   4.291   3.464
  361TIP3    H1 1089   1.255   4.214   3.505
  361TIP3    H2 1090   1.289   4.331   3.415
  362TIP3   OH2 1091   4.619   0.333   2.028
  362TIP3    H1 1092   4.649   0.400   1.966
  362TIP3    H2 1093   4.657   0.359   2.112
  363TIP3   OH2 1094   0.930   2.235   0.663
  363TIP3    H1 1095   0.950   2.154   0.710
  363TIP3    H2 1096   0.886   2.290   0.727
  364TIP3   OH2 1097   5.464   5.371   2.420
  364TIP3    H1 1098   5.437   5.461   2.398
  364TIP3    H2 1099   5.410   5.316   2.364
  365TIP3   OH2 1100   0.382   3.267   2.924
  365TIP3    H1 1101   0.321   3.204   2.887
  365TIP3    H2 1102   0.396   3.331   2.855
  366TIP3   OH2 1103   6.398   5.771   4.945
  366TIP3    H1 1104   6.324   5.829   4.925
  366TIP3    H2 1105   6.383   5.694   4.891
  367TIP3   OH2 1106   5.621   4.312   2.200
  367TIP3    H1 1107   5.632   4.266   2.283
  367TIP3    H2 1108   5.528   4.335   2.199
  368TIP3   OH2 1109   3.791   4.835   1.647
  368TIP3    H1 1110   3.811   4.926   1.666
  368TIP3    H2 1111   3.877   4.792   1.641
  369TIP3   OH2 1112   5.881   2.885   3.131
  369TIP3    H1 1113   5.926   2.812   3.090
  369TIP3    H2 1114   5.942   2.916   3.199
  370TIP3   OH2 1115   5.840   5.657   4.317
  370TIP3    H1 1116   5.835   5.746   4.283
  370TIP3    H2 1117   5.749   5.629   4.324
  371TIP3   OH2 1118   2.741   3.706   4.917
  371TIP3    H1 1119   2.724   3.776   4.979
  371TIP3    H2 1120   2.828   3.725   4.881
  372TIP3   OH2 1121   5.558   3.088   1.645
  372TIP3    H1 1122   5.624   3.042   1.594
  372TIP3    H2 1123   5.605   3.161   1.685
  373TIP3   OH2 1124   5.772   5.580   2.789
  373TIP3    H1 1125   5.685   5.544   2.808
  373TIP3    H2 1126   5.776   5.661   2.838
  374TIP3   OH2 1127   3.907   1.828   2.479
  374TIP3    H1 1128   3.869   1.831   2.391
  374TIP3    H2 1129   3.915   1.920   2.504
  375TIP3   OH2 1130   5.209   0.823   4.869
  375TIP3    H1 1131   5.134   0.812   4.927
  375TIP3    H2 1132   5.243   0.735   4.856
  376TIP3   OH2 1133   3.621   0.415   4.072
  376TIP3    H1 1134   3.609   0.509   4.059
  376TIP3    H2 1135   3.643   0.381   3.986
  377TIP3   OH2 1136   3.169   1.835   3.416
  377TIP3    H1 1137   3.171   1.867   3.326
  377TIP3    H2 1138   3.083   1.794   3.424
  378TIP3   OH2 1139   3.978   1.524   4.991
  378TIP3    H1 1140   4.020   1.509   5.076
  378TIP3    H2 1141   3.959   1.618   4.991
  379TIP3   OH2 1142   3.857   4.185   1.263
  379TIP3    H1 1143   3.940   4.136   1.263
  379TIP3    H2 1144   3.807   4.147   1.335
  380TIP3   OH2 1145   1.141   0.646   2.109
  380TIP3    H1 1146   1.170   0.704   2.039
  380TIP3    H2 1147   1.157   0.558   2.075
  381TIP3   OH2 1148   5.976   0.372   3.431
  381TIP3    H1 1149   5.966   0.293   3.377
  381TIP3    H2 1150   6.043   0.349   3.495
  382TIP3   OH2 1151   0.030   3.137   0.925
  382TIP3    H1 1152   0.072   3.220   0.905
  382TIP3    H2 1153  -0.057   3.161   0.958
  383TIP3   OH2 1154   5.741   4.813   4.918
  383TIP3    H1 1155   5.653   4.844   4.899
  383TIP3    H2 1156   5.792   4.837   4.840
  384TIP3   OH2 1157   4.721   3.583   5.220
  384TIP3    H1 1158   4.671   3.570   5.139
  384TIP3    H2 1159   4.813   3.578   5.192
  385TIP3   OH2 1160   2.622   1.256   4.148
  385TIP3    H1 1161   2.714   1.280   4.158
  385TIP3    H2 1162   2.574   1.339   4.152
  386TIP3   OH2 1163   1.272   0.546   1.302
  386TIP3    H1 1164   1.217   0.485   1.252
  386TIP3    H2 1165   1.240   0.633   1.276
  387TIP3   OH2 1166   5.800   1.421   4.838
  387TIP3    H1 1167   5.889   1.457   4.831
  387TIP3    H2 1168   5.788   1.372   4.757
  388TIP3   OH2 1169   4.704   1.199   3.555
  388TIP3    H1 1170   4.695   1.250   3.474
  388TIP3    H2 1171   4.768   1.131   3.533
  389TIP3   OH2 1172   4.061   2.396   1.911
  389TIP3    H1 1173   4.133   2.339   1.939
  389TIP3    H2 1174   4.035   2.360   1.826
  390TIP3   OH2 1175   4.446   3.065   4.716
  390TIP3    H1 1176   4.402   2.980   4.720
  390TIP3    H2 1177   4.520   3.050   4.658
  391TIP3   OH2 1178   6.094   2.063   1.074
  391TIP3    H1 1179   6.133   2.149   1.063
  391TIP3    H2 1180   6.071   2.058   1.167
  392TIP3   OH2 1181   2.701   3.168   2.077
  392TIP3    H1 1182   2.683   3.105   2.007
  392TIP3    H2 1183   2.782   3.212   2.049
  393TIP3   OH2 1184   0.645   1.656   3.661
  393TIP3    H1 1185   0.711   1.603   3.704
  393TIP3    H2 1186   0.678   1.669   3.572
  394TIP3   OH2 1187   2.607   1.985   0.503
  394TIP3    H1 1188   2.583   1.952   0.590
  394TIP3    H2 1189   2.570   1.921   0.442
  395TIP3   OH2 1190   2.497   4.311   2.895
  395TIP3    H1 1191   2.505   4.358   2.812
  395TIP3    H2 1192   2.440   4.237   2.874
  396TIP3   OH2 1193   1.527   3.615   1.596
  396TIP3    H1 1194   1.534   3.557   1.520
  396TIP3    H2 1195   1.509   3.557   1.669
  397TIP3   OH2 1196   1.894   2.813   1.627
  397TIP3    H1 1197   1.806   2.780   1.640
  397TIP3    H2 1198   1.891   2.858   1.542
  398TIP3   OH2 1199   3.795   4.634   0.508
  398TIP3    H1 1200   3.879   4.589   0.517
  398TIP3    H2 1201   3.752   4.589   0.435
  399TIP3   OH2 1202   3.938   1.961   0.608
  399TIP3    H1 1203   3.878   2.030   0.580
  399TIP3    H2 1204   3.964   1.987   0.697
  400TIP3   OH2 1205   5.821   1.841   4.428
  400TIP3    H1 1206   5.780   1.755   4.417
  400TIP3    H2 1207   5.915   1.824   4.417
  401TIP3   OH2 1208   6.264   0.128   1.157
  401TIP3    H1 1209   6.325   0.055   1.156
  401TIP3    H2 1210   6.189   0.096   1.208
  402TIP3   OH2 1211   3.230   0.766   4.168
  402TIP3    H1 1212   3.305   0.749   4.224
  402TIP3    H2 1213   3.243   0.708   4.093
  403TIP3   OH2 1214   0.134   5.042   4.893
  403TIP3    H1 1215   0.061   4.987   4.922
  403TIP3    H2 1216   0.143   5.107   4.963
  404TIP3   OH2 1217   5.489   1.221   1.266
  404TIP3    H1 1218   5.562   1.283   1.266
  404TIP3    H2 1219   5.443   1.240   1.348
  405TIP3   OH2 1220   3.105   0.195   4.879
  405TIP3    H1 1221   3.048   0.138   4.931
  405TIP3    H2 1222   3.077   0.284   4.901
  406TIP3   OH2 1223   0.970   3.479   3.385
  406TIP3    H1 1224   0.908   3.414   3.417
  406TIP3    H2 1225   1.036   3.429   3.338
  407TIP3   OH2 1226   2.481   1.477   1.380
  407TIP3    H1 1227   2.457   1.541   1.313
  407TIP3    H2 1228   2.414   1.409   1.373
  408TIP3   OH2 1229   0.331   1.713   2.548
  408TIP3    H1 1230   0.390   1.755   2.611
  408TIP3    H2 1231   0.323   1.623   2.578
  409TIP3   OH2 1232   0.628   5.734   2.371
  409TIP3    H1 1233   0.709   5.725   2.320
  409TIP3    H2 1234   0.558   5.721   2.307
  410TIP3   OH2 1235   2.891   3.771   1.721
  410TIP3    H1 1236   2.956   3.776   1.791
  410TIP3    H2 1237   2.852   3.859   1.718
  411TIP3   OH2 1238   1.874   2.602   4.809
  411TIP3    H1 1239   1.806   2.628   4.747
  411TIP3    H2 1240   1.951   2.652   4.782
  412TIP3   OH2 1241   4.589   3.485   1.553
  412TIP3    H1 1242   4.683   3.480   1.570
  412TIP3    H2 1243   4.580   3.462   1.461
  413TIP3   OH2 1244   5.906   4.073   1.748
  413TIP3    H1 1245   5.975   4.121   1.792
  413TIP3    H2 1246   5.834   4.136   1.740
  414TIP3   OH2 1247   5.191   4.937   2.440
  414TIP3    H1 1248   5.266   4.996   2.446
  414TIP3    H2 1249   5.153   4.936   2.528
  415TIP3   OH2 1250   0.595   0.806   1.661
  415TIP3    H1 1251   0.666   0.776   1.605
  415TIP3    H2 1252   0.614   0.899   1.676
  416TIP3   OH2 1253   6.042   5.833   2.095
  416TIP3    H1 1254   6.098   5.861   2.167
  416TIP3    H2 1255   5.987   5.909   2.076
  417TIP3   OH2 1256   4.412   5.066   1.417
  417TIP3    H1 1257   4.467   5.073   1.495
  417TIP3    H2 1258   4.324   5.052   1.452
  418TIP3   OH2 1259   4.174   2.726   0.370
  418TIP3    H1 1260   4.133   2.645   0.402
  418TIP3    H2 1261   4.146   2.793   0.433
  419TIP3   OH2 1262   0.119   4.234   2.880
  419TIP3    H1 1263   0.045   4.251   2.938
  419TIP3    H2 1264   0.166   4.162   2.923
  420TIP3   OH2 1265   6.378   0.294   4.206
  420TIP3    H1 1266   6.373   0.205   4.172
  420TIP3    H2 1267   6.371   0.284   4.301
  421TIP3   OH2 1268   2.922   1.658   4.879
  421TIP3    H1 1269   2.960   1.724   4.820
  421TIP3    H2 1270   2.996   1.626   4.930
  422TIP3   OH2 1271   6.158   4.681   3.903
  422TIP3    H1 1272   6.082   4.623   3.905
  422TIP3    H2 1273   6.138   4.744   3.835
  423TIP3   OH2 1274   0.008   5.275   0.063
  423TIP3    H1 1275   0.020   5.234  -0.023
  423TIP3    H2 1276  -0.007   5.202   0.123
  424TIP3   OH2 1277   1.645   1.436   4.418
  424TIP3    H1 1278   1.625   1.361   4.475
  424TIP3    H2 1279   1.736   1.458   4.439
  425TIP3   OH2 1280   5.845   1.904   2.074
  425TIP3    H1 1281   5.792   1.909   1.994
  425TIP3    H2 1282   5.807   1.830   2.123
  426TIP3   OH2 1283   3.378   4.279   0.163
  426TIP3    H1 1284   3.292   4.315   0.139
  426TIP3    H2 1285   3.410   4.238   0.083
  427TIP3   OH2 1286   5.480   4.108   4.310
  427TIP3    H1 1287   5.464   4.127   4.402
  427TIP3    H2 1288   5.575   4.122   4.299
  428TIP3   OH2 1289   5.305   5.328   2.197
  428TIP3    H1 1290   5.275   5.283   2.118
  428TIP3    H2 1291   5.349   5.406   2.164
  429TIP3   OH2 1292   4.280   1.389   3.488
  429TIP3    H1 1293   4.353   1.411   3.431
  429TIP3    H2 1294   4.258   1.299   3.465
  430TIP3   OH2 1295   1.990   4.869   2.780
  430TIP3    H1 1296   1.963   4.934   2.846
  430TIP3    H2 1297   2.079   4.845   2.805
  431TIP3   OH2 1298   3.362   0.085   0.138
  431TIP3    H1 1299   3.365  -0.008   0.160
  431TIP3    H2 1300   3.437   0.124   0.183
  432TIP3   OH2 1301   2.485   4.508   0.506
  432TIP3    H1 1302   2.553   4.441   0.493
  432TIP3    H2 1303   2.407   4.470   0.467
  433TIP3   OH2 1304   5.750   3.087   2.216
  433TIP3    H1 1305   5.771   3.011   2.163
  433TIP3    H2 1306   5.661   3.110   2.191
  434TIP3   OH2 1307   3.678   4.566   0.271
  434TIP3    H1 1308   3.706   4.520   0.192
  434TIP3    H2 1309   3.586   4.545   0.280
  435TIP3   OH2 1310   2.855   1.485   1.609
  435TIP3    H1 1311   2.775   1.457   1.655
  435TIP3    H2 1312   2.825   1.550   1.547
  436TIP3   OH2 1313   5.732   1.069   0.534
  436TIP3    H1 1314   5.651   1.090   0.580
  436TIP3    H2 1315   5.784   1.020   0.598
  437TIP3   OH2 1316   3.559   5.485   0.749
  437TIP3    H1 1317   3.554   5.395   0.782
  437TIP3    H2 1318   3.479   5.496   0.698
  438TIP3   OH2 1319   3.915   3.533   0.886
  438TIP3    H1 1320   3.904   3.587   0.808
  438TIP3    H2 1321   3.875   3.449   0.864
  439TIP3   OH2 1322   5.297   0.236   2.011
  439TIP3    H1 1323   5.353   0.255   2.086
  439TIP3    H2 1324   5.305   0.314   1.956
  440TIP3   OH2 1325   1.457   0.296   4.150
  440TIP3    H1 1326   1.482   0.267   4.237
  440TIP3    H2 1327   1.362   0.288   4.148
  441TIP3   OH2 1328   0.059   2.637   0.550
  441TIP3    H1 1329   0.110   2.632   0.469
  441TIP3    H2 1330   0.014   2.721   0.545
  442TIP3   OH2 1331   3.482   0.520   1.121
  442TIP3    H1 1332   3.551   0.469   1.163
  442TIP3    H2 1333   3.465   0.592   1.182
  443TIP3   OH2 1334   5.134   5.502   1.590
  443TIP3    H1 1335   5.152   5.518   1.498
  443TIP3    H2 1336   5.198   5.436   1.616
  444TIP3   OH2 1337   3.069   0.961   3.258
  444TIP3    H1 1338   3.094   0.933   3.346
  444TIP3    H2 1339   3.099   0.890   3.201
  445TIP3   OH2 1340   0.229   2.936   4.994
  445TIP3    H1 1341   0.273   2.851   5.004
  445TIP3    H2 1342   0.136   2.917   5.008
  446TIP3   OH2 1343   5.816   2.555   1.909
  446TIP3    H1 1344   5.820   2.651   1.912
  446TIP3    H2 1345   5.725   2.536   1.889
  447TIP3   OH2 1346   2.989   3.940   4.068
  447TIP3    H1 1347   3.062   3.960   4.010
  447TIP3    H2 1348   3.029   3.899   4.145
  448TIP3   OH2 1349   1.091   0.168   0.707
  448TIP3    H1 1350   1.113   0.138   0.795
  448TIP3    H2 1351   1.011   0.219   0.718
  449TIP3   OH2 1352   2.423   5.131   3.650
  449TIP3    H1 1353   2.334   5.151   3.679
  449TIP3    H2 1354   2.416   5.125   3.555
  450TIP3   OH2 1355   3.082   1.406   2.884
  450TIP3    H1 1356   3.134   1.363   2.816
  450TIP3    H2 1357   3.127   1.385   2.965
  451TIP3   OH2 1358   3.915   5.322   0.927
  451TIP3    H1 1359   3.975   5.286   0.992
  451TIP3    H2 1360   3.926   5.265   0.850
  452TIP3   OH2 1361   3.494   1.720   2.527
  452TIP3    H1 1362   3.523   1.809   2.550
  452TIP3    H2 1363   3.476   1.724   2.433
  453TIP3   OH2 1364   2.380   3.981   1.207
  453TIP3    H1 1365   2.336   4.026   1.279
  453TIP3    H2 1366   2.441   4.046   1.172
  454TIP3   OH2 1367   2.567   3.595   2.595
  454TIP3    H1 1368   2.477   3.591   2.563
  454TIP3    H2 1369   2.558   3.593   2.690
  455TIP3   OH2 1370   5.008   3.249   2.654
  455TIP3    H1 1371   4.969   3.277   2.571
  455TIP3    H2 1372   5.038   3.330   2.695
  456TIP3   OH2 1373   3.016   1.238   1.573
  456TIP3    H1 1374   2.965   1.291   1.634
  456TIP3    H2 1375   2.979   1.150   1.580
  457TIP3   OH2 1376   6.257   2.315   2.525
  457TIP3    H1 1377   6.255   2.283   2.615
  457TIP3    H2 1378   6.166   2.334   2.504
  458TIP3   OH2 1379   5.248   3.496   1.585
  458TIP3    H1 1380   5.233   3.557   1.513
  458TIP3    H2 1381   5.333   3.521   1.621
  459TIP3   OH2 1382   0.944   1.577   4.682
  459TIP3    H1 1383   0.929   1.660   4.637
  459TIP3    H2 1384   1.016   1.536   4.634
  460TIP3   OH2 1385   3.971   4.440   4.131
  460TIP3    H1 1386   3.877   4.457   4.134
  460TIP3    H2 1387   4.010   4.525   4.112
  461TIP3   OH2 1388   1.049   4.725   2.820
  461TIP3    H1 1389   1.122   4.759   2.871
  461TIP3    H2 1390   0.980   4.790   2.831
  462TIP3   OH2 1391   5.918   4.906   0.238
  462TIP3    H1 1392   5.951   4.825   0.198
  462TIP3    H2 1393   5.841   4.878   0.287
  463TIP3   OH2 1394   3.773   4.575   4.887
  463TIP3    H1 1395   3.791   4.669   4.882
  463TIP3    H2 1396   3.694   4.563   4.835
  464TIP3   OH2 1397   2.349   4.972   2.146
  464TIP3    H1 1398   2.300   4.908   2.095
  464TIP3    H2 1399   2.349   4.937   2.235
  465TIP3   OH2 1400   4.208   5.864   3.487
  465TIP3    H1 1401   4.127   5.915   3.497
  465TIP3    H2 1402   4.217   5.818   3.571
  466TIP3   OH2 1403   5.573   3.605   2.681
  466TIP3    H1 1404   5.526   3.560   2.751
  466TIP3    H2 1405   5.507   3.660   2.640
  467TIP3   OH2 1406   2.663   1.889   4.366
  467TIP3    H1 1407   2.607   1.812   4.358
  467TIP3    H2 1408   2.678   1.917   4.275
  468TIP3   OH2 1409   5.099   3.685   0.542
  468TIP3    H1 1410   5.019   3.634   0.555
  468TIP3    H2 1411   5.162   3.622   0.507
  469TIP3   OH2 1412   4.821   1.631   4.542
  469TIP3    H1 1413   4.769   1.591   4.612
  469TIP3    H2 1414   4.781   1.599   4.461
  470TIP3   OH2 1415   3.774   4.289   1.918
  470TIP3    H1 1416   3.764   4.318   1.827
  470TIP3    H2 1417   3.687   4.301   1.956
  471TIP3   OH2 1418   1.799   4.699   4.268
  471TIP3    H1 1419   1.887   4.669   4.292
  471TIP3    H2 1420   1.787   4.668   4.178
  472TIP3   OH2 1421   4.752   3.857   3.463
  472TIP3    H1 1422   4.821   3.796   3.489
  472TIP3    H2 1423   4.699   3.808   3.400
  473TIP3   OH2 1424   3.313   2.129   3.779
  473TIP3    H1 1425   3.323   2.040   3.814
  473TIP3    H2 1426   3.303   2.184   3.856
  474TIP3   OH2 1427   4.944   4.336   4.761
  474TIP3    H1 1428   4.865   4.349   4.814
  474TIP3    H2 1429   4.940   4.405   4.694
  475TIP3   OH2 1430   1.971   1.261   1.791
  475TIP3    H1 1431   2.038   1.222   1.847
  475TIP3    H2 1432   1.895   1.204   1.803
  476TIP3   OH2 1433   3.821   2.359   2.272
  476TIP3    H1 1434   3.774   2.441   2.286
  476TIP3    H2 1435   3.906   2.386   2.237
  477TIP3   OH2 1436   0.519   3.871   0.555
  477TIP3    H1 1437   0.448   3.893   0.616
  477TIP3    H2 1438   0.514   3.938   0.487
  478TIP3   OH2 1439   1.373   4.625   1.160
  478TIP3    H1 1440   1.381   4.614   1.065
  478TIP3    H2 1441   1.451   4.582   1.196
  479TIP3   OH2 1442   1.333   5.085   2.858
  479TIP3    H1 1443   1.367   5.133   2.782
  479TIP3    H2 1444   1.370   5.130   2.934
  480TIP3   OH2 1445   6.041   2.790   5.107
  480TIP3    H1 1446   6.011   2.725   5.044
  480TIP3    H2 1447   5.961   2.817   5.154
  481TIP3   OH2 1448   3.179   3.219   4.146
  481TIP3    H1 1449   3.160   3.310   4.166
  481TIP3    H2 1450   3.177   3.213   4.051
  482TIP3   OH2 1451   4.221   5.535   2.773
  482TIP3    H1 1452   4.245   5.564   2.861
  482TIP3    H2 1453   4.126   5.525   2.776
  483TIP3   OH2 1454   3.526   3.641   4.238
  483TIP3    H1 1455   3.476   3.608   4.313
  483TIP3    H2 1456   3.551   3.563   4.190
  484TIP3   OH2 1457   6.021   0.809   3.108
  484TIP3    H1 1458   5.984   0.724   3.134
  484TIP3    H2 1459   6.114   0.803   3.130
  485TIP3   OH2 1460   3.271   3.705   3.995
  485TIP3    H1 1461   3.271   3.737   4.086
  485TIP3    H2 1462   3.202   3.639   3.993
  486TIP3   OH2 1463   1.050   5.136   1.723
  486TIP3    H1 1464   1.020   5.225   1.742
  486TIP3    H2 1465   1.128   5.124   1.778
  487TIP3   OH2 1466   0.465   2.757   4.472
  487TIP3    H1 1467   0.477   2.709   4.554
  487TIP3    H2 1468   0.480   2.692   4.404
  488TIP3   OH2 1469   2.113   4.957   3.373
  488TIP3    H1 1470   2.060   4.892   3.328
  488TIP3    H2 1471   2.099   4.938   3.466
  489TIP3   OH2 1472   6.075   2.399   5.094
  489TIP3    H1 1473   6.109   2.469   5.149
  489TIP3    H2 1474   6.097   2.425   5.005
  490TIP3   OH2 1475   3.680   2.773   3.334
  490TIP3    H1 1476   3.751   2.837   3.346
  490TIP3    H2 1477   3.601   2.826   3.333
  491TIP3   OH2 1478   2.575   5.491   0.362
  491TIP3    H1 1479   2.619   5.479   0.278
  491TIP3    H2 1480   2.507   5.425   0.363
  492TIP3   OH2 1481   4.544   1.619   3.271
  492TIP3    H1 1482   4.449   1.631   3.264
  492TIP3    H2 1483   4.579   1.658   3.191
  493TIP3   OH2 1484   4.181   4.128   3.101
  493TIP3    H1 1485   4.149   4.218   3.113
  493TIP3    H2 1486   4.134   4.097   3.024
  494TIP3   OH2 1487   1.276   2.455   4.137
  494TIP3    H1 1488   1.344   2.486   4.078
  494TIP3    H2 1489   1.207   2.521   4.131
  495TIP3   OH2 1490   5.729   3.718   2.457
  495TIP3    H1 1491   5.675   3.770   2.399
  495TIP3    H2 1492   5.705   3.627   2.437
  496TIP3   OH2 1493   0.844   2.229   0.081
  496TIP3    H1 1494   0.792   2.190   0.011
  496TIP3    H2 1495   0.928   2.185   0.075
  497TIP3   OH2 1496   0.829   0.677   3.477
  497TIP3    H1 1497   0.905   0.621   3.491
  497TIP3    H2 1498   0.850   0.728   3.399
  498TIP3   OH2 1499   5.769   3.548   3.154
  498TIP3    H1 1500   5.758   3.514   3.243
  498TIP3    H2 1501   5.797   3.472   3.103
  499TIP3   OH2 1502   1.087   4.674   3.443
  499TIP3    H1 1503   1.025   4.735   3.482
  499TIP3    H2 1504   1.111   4.616   3.515
  500TIP3   OH2 1505   5.527   4.294   3.334
  500TIP3    H1 1506   5.444   4.343   3.334
  500TIP3    H2 1507   5.534   4.259   3.245
  501TIP3   OH2 1508   0.330   3.239   3.583
  501TIP3    H1 1509   0.407   3.231   3.526
  501TIP3    H2 1510   0.268   3.292   3.533
  502TIP3   OH2 1511   5.320   5.480   2.795
  502TIP3    H1 1512   5.297   5.573   2.798
  502TIP3    H2 1513   5.241   5.437   2.764
  503TIP3   OH2 1514   2.377   1.926   4.135
  503TIP3    H1 1515   2.354   1.881   4.216
  503TIP3    H2 1516   2.409   2.012   4.162
  504TIP3   OH2 1517   4.825   0.504   1.180
  504TIP3    H1 1518   4.844   0.584   1.132
  504TIP3    H2 1519   4.860   0.434   1.125
  505TIP3   OH2 1520   3.390   5.675   4.194
  505TIP3    H1 1521   3.483   5.668   4.175
  505TIP3    H2 1522   3.357   5.740   4.132
  506TIP3   OH2 1523   1.851   3.502   1.428
  506TIP3    H1 1524   1.829   3.493   1.520
  506TIP3    H2 1525   1.936   3.458   1.419
  507TIP3   OH2 1526   3.670   5.023   4.578
  507TIP3    H1 1527   3.663   4.946   4.520
  507TIP3    H2 1528   3.748   5.069   4.548
  508TIP3   OH2 1529   0.036   5.498   0.243
  508TIP3    H1 1530   0.126   5.522   0.219
  508TIP3    H2 1531   0.003   5.452   0.166
  509TIP3   OH2 1532   1.886   4.564   0.817
  509TIP3    H1 1533   1.817   4.597   0.875
  509TIP3    H2 1534   1.842   4.498   0.763
  510TIP3   OH2 1535   5.940   0.658   2.842
  510TIP3    H1 1536   5.975   0.748   2.840
  510TIP3    H2 1537   5.850   0.667   2.811
  511TIP3   OH2 1538   4.766   5.901   3.265
  511TIP3    H1 1539   4.689   5.936   3.310
  511TIP3    H2 1540   4.775   5.955   3.187
  512TIP3   OH2 1541   0.361   2.919   1.639
  512TIP3    H1 1542   0.267   2.932   1.626
  512TIP3    H2 1543   0.398   3.007   1.639
  513TIP3   OH2 1544   0.037   1.443   4.100
  513TIP3    H1 1545   0.032   1.403   4.013
  513TIP3    H2 1546   0.127   1.475   4.106
  514TIP3   OH2 1547   2.659   1.385   2.320
  514TIP3    H1 1548   2.663   1.386   2.416
  514TIP3    H2 1549   2.620   1.300   2.299
  515TIP3   OH2 1550   0.796   2.969   1.601
  515TIP3    H1 1551   0.768   3.010   1.683
  515TIP3    H2 1552   0.819   3.042   1.544
  516TIP3   OH2 1553   3.760   3.995   1.747
  516TIP3    H1 1554   3.802   4.008   1.833
  516TIP3    H2 1555   3.667   4.011   1.763
  517TIP3   OH2 1556   3.286   3.427   1.100
  517TIP3    H1 1557   3.246   3.514   1.100
  517TIP3    H2 1558   3.309   3.411   1.009
  518TIP3   OH2 1559   1.385   2.371   1.701
  518TIP3    H1 1560   1.467   2.345   1.660
  518TIP3    H2 1561   1.409   2.438   1.764
  519TIP3   OH2 1562   2.757   4.992   0.826
  519TIP3    H1 1563   2.787   4.939   0.900
  519TIP3    H2 1564   2.664   4.974   0.819
  520TIP3   OH2 1565   5.627   2.715   0.072
  520TIP3    H1 1566   5.551   2.669   0.037
  520TIP3    H2 1567   5.589   2.787   0.124
  521TIP3   OH2 1568   2.455   0.668   5.137
  521TIP3    H1 1569   2.441   0.678   5.232
  521TIP3    H2 1570   2.515   0.740   5.115
  522TIP3   OH2 1571   2.794   1.056   1.349
  522TIP3    H1 1572   2.755   1.118   1.410
  522TIP3    H2 1573   2.865   1.015   1.397
  523TIP3   OH2 1574   3.173   0.253   0.823
  523TIP3    H1 1575   3.092   0.205   0.835
  523TIP3    H2 1576   3.222   0.238   0.904
  524TIP3   OH2 1577   0.654   4.241   0.467
  524TIP3    H1 1578   0.617   4.165   0.421
  524TIP3    H2 1579   0.725   4.271   0.410
  525TIP3   OH2 1580   5.409   4.030   1.899
  525TIP3    H1 1581   5.337   3.977   1.932
  525TIP3    H2 1582   5.375   4.119   1.899
  526TIP3   OH2 1583   2.816   0.149   3.522
  526TIP3    H1 1584   2.725   0.162   3.549
  526TIP3    H2 1585   2.865   0.150   3.605
  527TIP3   OH2 1586   4.788   5.390   1.282
  527TIP3    H1 1587   4.847   5.384   1.357
  527TIP3    H2 1588   4.845   5.414   1.209
  528TIP3   OH2 1589   4.650   5.063   3.800
  528TIP3    H1 1590   4.597   5.109   3.734
  528TIP3    H2 1591   4.740   5.074   3.770
  529TIP3   OH2 1592   4.492   3.347   3.401
  529TIP3    H1 1593   4.460   3.382   3.318
  529TIP3    H2 1594   4.583   3.323   3.385
  530TIP3   OH2 1595   4.762   4.463   1.957
  530TIP3    H1 1596   4.825   4.490   2.024
  530TIP3    H2 1597   4.741   4.543   1.909
  531TIP3   OH2 1598   2.881   4.570   1.752
  531TIP3    H1 1599   2.890   4.480   1.783
  531TIP3    H2 1600   2.797   4.573   1.707
  532TIP3   OH2 1601   4.618   1.915   2.401
  532TIP3    H1 1602   4.701   1.961   2.411
  532TIP3    H2 1603   4.610   1.863   2.481
  533TIP3   OH2 1604   4.681   2.466   4.094
  533TIP3    H1 1605   4.596   2.459   4.050
  533TIP3    H2 1606   4.693   2.381   4.137
  534TIP3   OH2 1607   4.545   2.065   2.653
  534TIP3    H1 1608   4.584   2.146   2.621
  534TIP3    H2 1609   4.489   2.036   2.580
  535TIP3   OH2 1610   3.551   1.164   4.537
  535TIP3    H1 1611   3.635   1.178   4.582
  535TIP3    H2 1612   3.506   1.100   4.591
  536TIP3   OH2 1613   5.507   0.601   3.506
  536TIP3    H1 1614   5.535   0.521   3.551
  536TIP3    H2 1615   5.573   0.666   3.529
  537TIP3   OH2 1616   2.462   5.560   3.757
  537TIP3    H1 1617   2.417   5.484   3.721
  537TIP3    H2 1618   2.399   5.631   3.750
  538TIP3   OH2 1619   1.150   1.814   2.684
  538TIP3    H1 1620   1.193   1.838   2.766
  538TIP3    H2 1621   1.065   1.780   2.709
  539TIP3   OH2 1622   3.605   1.206   2.247
  539TIP3    H1 1623   3.535   1.140   2.249
  539TIP3    H2 1624   3.647   1.192   2.162
  540TIP3   OH2 1625   0.060   0.059   2.727
  540TIP3    H1 1626   0.093   0.081   2.815
  540TIP3    H2 1627   0.139   0.034   2.679
  541TIP3   OH2 1628   6.115   5.155   4.365
  541TIP3    H1 1629   6.208   5.176   4.371
  541TIP3    H2 1630   6.073   5.237   4.338
  542TIP3   OH2 1631   6.059   4.939   1.121
  542TIP3    H1 1632   6.048   4.851   1.158
  542TIP3    H2 1633   6.151   4.960   1.138
  543TIP3   OH2 1634   4.743   3.510   2.580
  543TIP3    H1 1635   4.794   3.470   2.650
  543TIP3    H2 1636   4.754   3.604   2.593
  544TIP3   OH2 1637   0.776   2.729   1.081
  544TIP3    H1 1638   0.849   2.675   1.052
  544TIP3    H2 1639   0.700   2.671   1.077
  545TIP3   OH2 1640   5.508   2.915   1.959
  545TIP3    H1 1641   5.501   2.998   2.007
  545TIP3    H2 1642   5.599   2.889   1.968
  546TIP3   OH2 1643   3.392   1.684   0.119
  546TIP3    H1 1644   3.428   1.678   0.207
  546TIP3    H2 1645   3.302   1.652   0.128
  547TIP3   OH2 1646   5.138   1.946   4.371
  547TIP3    H1 1647   5.096   1.940   4.456
  547TIP3    H2 1648   5.229   1.919   4.387
  548TIP3   OH2 1649   4.920   2.114   3.756
  548TIP3    H1 1650   4.830   2.137   3.734
  548TIP3    H2 1651   4.925   2.122   3.851
  549TIP3   OH2 1652   1.205   1.399   1.308
  549TIP3    H1 1653   1.190   1.331   1.241
  549TIP3    H2 1654   1.208   1.351   1.390
  550TIP3   OH2 1655   4.293   2.476   1.387
  550TIP3    H1 1656   4.254   2.554   1.425
  550TIP3    H2 1657   4.245   2.463   1.305
  551TIP3   OH2 1658   2.739   0.633   4.161
  551TIP3    H1 1659   2.818   0.666   4.204
  551TIP3    H2 1660   2.765   0.550   4.122
  552TIP3   OH2 1661   2.870   1.040   1.849
  552TIP3    H1 1662   2.960   1.038   1.881
  552TIP3    H2 1663   2.817   1.049   1.928
  553TIP3   OH2 1664   3.027   3.831   2.643
  553TIP3    H1 1665   2.939   3.809   2.674
  553TIP3    H2 1666   3.065   3.746   2.617
  554TIP3   OH2 1667   3.703   5.612   1.317
  554TIP3    H1 1668   3.611   5.586   1.312
  554TIP3    H2 1669   3.729   5.628   1.226
  555TIP3   OH2 1670   1.865   5.106   3.408
  555TIP3    H1 1671   1.803   5.104   3.335
  555TIP3    H2 1672   1.811   5.130   3.484
  556TIP3   OH2 1673   4.258   4.022   0.890
  556TIP3    H1 1674   4.220   3.936   0.907
  556TIP3    H2 1675   4.321   4.034   0.961
  557TIP3   OH2 1676   4.221   2.191   2.042
  557TIP3    H1 1677   4.249   2.111   2.086
  557TIP3    H2 1678   4.282   2.258   2.074
  558TIP3   OH2 1679   0.575   4.490   4.189
  558TIP3    H1 1680   0.656   4.464   4.231
  558TIP3    H2 1681   0.572   4.440   4.107
  559TIP3   OH2 1682   5.591   4.698   1.699
  559TIP3    H1 1683   5.556   4.738   1.619
  559TIP3    H2 1684   5.667   4.751   1.721
  560TIP3   OH2 1685   4.844   2.190   2.667
  560TIP3    H1 1686   4.935   2.209   2.648
  560TIP3    H2 1687   4.817   2.127   2.601
  561TIP3   OH2 1688   5.551   1.513   4.715
  561TIP3    H1 1689   5.509   1.427   4.714
  561TIP3    H2 1690   5.636   1.497   4.757
  562TIP3   OH2 1691   3.692   1.575   4.227
  562TIP3    H1 1692   3.737   1.564   4.311
  562TIP3    H2 1693   3.599   1.576   4.249
  563TIP3   OH2 1694   2.070   3.536   2.360
  563TIP3    H1 1695   1.979   3.564   2.374
  563TIP3    H2 1696   2.109   3.540   2.448
  564TIP3   OH2 1697   3.462   4.951   1.611
  564TIP3    H1 1698   3.483   4.904   1.691
  564TIP3    H2 1699   3.383   5.001   1.632
  565TIP3   OH2 1700   3.630   4.925   1.398
  565TIP3    H1 1701   3.551   4.936   1.452
  565TIP3    H2 1702   3.701   4.918   1.461
  566TIP3   OH2 1703   1.016   3.956   0.680
  566TIP3    H1 1704   1.002   4.049   0.663
  566TIP3    H2 1705   0.937   3.928   0.726
  567TIP3   OH2 1706   4.011   1.829   1.056
  567TIP3    H1 1707   3.917   1.817   1.047
  567TIP3    H2 1708   4.048   1.743   1.038
  568TIP3   OH2 1709   6.110   5.086   0.237
  568TIP3    H1 1710   6.036   5.028   0.259
  568TIP3    H2 1711   6.149   5.047   0.159
  569TIP3   OH2 1712   4.566   3.412   2.089
  569TIP3    H1 1713   4.491   3.463   2.056
  569TIP3    H2 1714   4.579   3.445   2.178
  570TIP3   OH2 1715   2.926   5.874   1.452
  570TIP3    H1 1716   2.952   5.824   1.529
  570TIP3    H2 1717   2.901   5.807   1.388
  571TIP3   OH2 1718   1.995   3.859   4.901
  571TIP3    H1 1719   1.914   3.831   4.942
  571TIP3    H2 1720   2.064   3.831   4.961
  572TIP3   OH2 1721   0.922   0.498   4.668
  572TIP3    H1 1722   0.888   0.552   4.597
  572TIP3    H2 1723   0.948   0.560   4.736
  573TIP3   OH2 1724   1.427   3.728   3.218
  573TIP3    H1 1725   1.497   3.684   3.171
  573TIP3    H2 1726   1.347   3.690   3.183
  574TIP3   OH2 1727   0.244   4.210   1.381
  574TIP3    H1 1728   0.320   4.227   1.437
  574TIP3    H2 1729   0.259   4.265   1.304
  575TIP3   OH2 1730   3.056   4.440   4.172
  575TIP3    H1 1731   2.965   4.463   4.189
  575TIP3    H2 1732   3.083   4.391   4.250
  576TIP3   OH2 1733   5.829   3.201   5.188
  576TIP3    H1 1734   5.827   3.271   5.122
  576TIP3    H2 1735   5.757   3.223   5.247
  577TIP3   OH2 1736   1.955   0.324   2.786
  577TIP3    H1 1737   1.981   0.322   2.694
  577TIP3    H2 1738   1.906   0.242   2.799
  578TIP3   OH2 1739   0.887   1.441   3.368
  578TIP3    H1 1740   0.844   1.425   3.452
  578TIP3    H2 1741   0.981   1.432   3.387
  579TIP3   OH2 1742   4.321   5.671   1.547
  579TIP3    H1 1743   4.347   5.595   1.495
  579TIP3    H2 1744   4.226   5.667   1.550
  580TIP3   OH2 1745   3.514   4.707   3.911
  580TIP3    H1 1746   3.478   4.639   3.855
  580TIP3    H2 1747   3.522   4.783   3.853
  581TIP3   OH2 1748   0.977   3.328   1.354
  581TIP3    H1 1749   1.046   3.340   1.289
  581TIP3    H2 1750   0.977   3.234   1.372
  582TIP3   OH2 1751   0.976   4.650   0.732
  582TIP3    H1 1752   0.921   4.724   0.704
  582TIP3    H2 1753   0.991   4.666   0.825
  583TIP3   OH2 1754   6.086   3.269   4.344
  583TIP3    H1 1755   6.126   3.304   4.424
  583TIP3    H2 1756   6.160   3.244   4.290
  584TIP3   OH2 1757   1.777   2.654   1.276
  584TIP3    H1 1758   1.764   2.587   1.343
  584TIP3    H2 1759   1.808   2.730   1.324
  585TIP3   OH2 1760   2.587   1.552   2.953
  585TIP3    H1 1761   2.511   1.496   2.937
  585TIP3    H2 1762   2.654   1.518   2.894
  586TIP3   OH2 1763   6.052   5.067   3.220
  586TIP3    H1 1764   5.968   5.022   3.206
  586TIP3    H2 1765   6.080   5.039   3.307
  587TIP3   OH2 1766   1.404   3.341   4.222
  587TIP3    H1 1767   1.341   3.412   4.232
  587TIP3    H2 1768   1.366   3.284   4.155
  588TIP3   OH2 1769   2.139   4.566   0.225
  588TIP3    H1 1770   2.235   4.557   0.229
  588TIP3    H2 1771   2.111   4.569   0.316
  589TIP3   OH2 1772   1.316   0.261   3.130
  589TIP3    H1 1773   1.252   0.190   3.137
  589TIP3    H2 1774   1.401   0.216   3.125
  590TIP3   OH2 1775   1.998   2.803   0.676
  590TIP3    H1 1776   1.973   2.774   0.588
  590TIP3    H2 1777   2.060   2.875   0.660
  591TIP3   OH2 1778   2.712   0.146   4.304
  591TIP3    H1 1779   2.649   0.098   4.250
  591TIP3    H2 1780   2.659   0.184   4.374
  592TIP3   OH2 1781   0.236   3.787   4.797
  592TIP3    H1 1782   0.292   3.711   4.812
  592TIP3    H2 1783   0.201   3.775   4.709
  593TIP3   OH2 1784   3.192   4.675   0.517
  593TIP3    H1 1785   3.140   4.755   0.502
  593TIP3    H2 1786   3.221   4.683   0.608
  594TIP3   OH2 1787   2.622   1.374   3.292
  594TIP3    H1 1788   2.579   1.352   3.209
  594TIP3    H2 1789   2.659   1.461   3.277
  595TIP3   OH2 1790   0.247   4.165   4.606
  595TIP3    H1 1791   0.234   4.115   4.687
  595TIP3    H2 1792   0.162   4.207   4.591
  596TIP3   OH2 1793   5.683   5.859   1.640
  596TIP3    H1 1794   5.718   5.773   1.665
  596TIP3    H2 1795   5.761   5.912   1.622
  597TIP3   OH2 1796   0.906   0.955   0.547
  597TIP3    H1 1797   0.919   1.021   0.478
  597TIP3    H2 1798   0.985   0.961   0.601
  598TIP3   OH2 1799   2.603   3.822   4.091
  598TIP3    H1 1800   2.609   3.736   4.049
  598TIP3    H2 1801   2.521   3.818   4.140
  599TIP3   OH2 1802   1.338   5.671   0.433
  599TIP3    H1 1803   1.409   5.654   0.495
  599TIP3    H2 1804   1.270   5.713   0.486
  600TIP3   OH2 1805   5.165   4.551   2.965
  600TIP3    H1 1806   5.071   4.533   2.967
  600TIP3    H2 1807   5.171   4.647   2.963
  601TIP3   OH2 1808   6.118   1.765   1.068
  601TIP3    H1 1809   6.066   1.756   1.148
  601TIP3    H2 1810   6.141   1.857   1.064
  602TIP3   OH2 1811   6.146   2.292   0.536
  602TIP3    H1 1812   6.164   2.383   0.559
  602TIP3    H2 1813   6.169   2.242   0.614
  603TIP3   OH2 1814   5.253   1.142   0.677
  603TIP3    H1 1815   5.268   1.229   0.714
  603TIP3    H2 1816   5.158   1.135   0.670
  604TIP3   OH2 1817   3.723   0.191   1.531
  604TIP3    H1 1818   3.790   0.128   1.505
  604TIP3    H2 1819   3.771   0.271   1.549
  605TIP3   OH2 1820   0.657   2.341   4.403
  605TIP3    H1 1821   0.740   2.358   4.358
  605TIP3    H2 1822   0.682   2.321   4.493
  606TIP3   OH2 1823   2.445   5.637   3.081
  606TIP3    H1 1824   2.478   5.552   3.111
  606TIP3    H2 1825   2.466   5.639   2.988
  607TIP3   OH2 1826   4.134   0.306   1.377
  607TIP3    H1 1827   4.137   0.264   1.463
  607TIP3    H2 1828   4.212   0.274   1.332
  608TIP3   OH2 1829   1.435   5.602   4.864
  608TIP3    H1 1830   1.472   5.578   4.779
  608TIP3    H2 1831   1.482   5.682   4.889
  609TIP3   OH2 1832   3.618   1.336   0.664
  609TIP3    H1 1833   3.624   1.287   0.746
  609TIP3    H2 1834   3.530   1.316   0.631
  610TIP3   OH2 1835   1.572   1.078   3.545
  610TIP3    H1 1836   1.511   1.147   3.571
  610TIP3    H2 1837   1.650   1.093   3.599
  611TIP3   OH2 1838   3.470   0.819   3.864
  611TIP3    H1 1839   3.501   0.786   3.948
  611TIP3    H2 1840   3.549   0.848   3.819
  612TIP3   OH2 1841   3.399   3.683   1.981
  612TIP3    H1 1842   3.347   3.603   1.991
  612TIP3    H2 1843   3.400   3.723   2.067
  613TIP3   OH2 1844   5.677   0.532   2.286
  613TIP3    H1 1845   5.617   0.499   2.353
  613TIP3    H2 1846   5.749   0.572   2.336
  614TIP3   OH2 1847   3.152   2.339   0.278
  614TIP3    H1 1848   3.235   2.300   0.303
  614TIP3    H2 1849   3.103   2.346   0.360
  615TIP3   OH2 1850   4.013   4.544   2.235
  615TIP3    H1 1851   4.066   4.473   2.269
  615TIP3    H2 1852   4.074   4.616   2.220
  616TIP3   OH2 1853   0.453   1.074   1.053
  616TIP3    H1 1854   0.492   1.156   1.021
  616TIP3    H2 1855   0.420   1.032   0.973
  617TIP3   OH2 1856   2.160   1.072   2.926
  617TIP3    H1 1857   2.199   0.987   2.946
  617TIP3    H2 1858   2.176   1.085   2.832
  618TIP3   OH2 1859   0.951   5.074   2.964
  618TIP3    H1 1860   0.876   5.083   2.905
  618TIP3    H2 1861   0.976   5.164   2.985
  619TIP3   OH2 1862   4.322   5.398   3.046
  619TIP3    H1 1863   4.247   5.409   3.105
  619TIP3    H2 1864   4.356   5.487   3.034
  620TIP3   OH2 1865   6.081   0.886   2.727
  620TIP3    H1 1866   6.153   0.885   2.790
  620TIP3    H2 1867   6.082   0.974   2.690
  621TIP3   OH2 1868   0.330   1.845   4.525
  621TIP3    H1 1869   0.357   1.815   4.612
  621TIP3    H2 1870   0.393   1.912   4.502
  622TIP3   OH2 1871   0.347   5.423   2.154
  622TIP3    H1 1872   0.329   5.355   2.218
  622TIP3    H2 1873   0.325   5.382   2.070
  623TIP3   OH2 1874   5.741   5.685   1.340
  623TIP3    H1 1875   5.745   5.753   1.408
  623TIP3    H2 1876   5.663   5.706   1.289
  624TIP3   OH2 1877   2.617   0.830   1.221
  624TIP3    H1 1878   2.690   0.778   1.189
  624TIP3    H2 1879   2.655   0.914   1.245
  625TIP3   OH2 1880   3.529   3.655   3.110
  625TIP3    H1 1881   3.558   3.742   3.084
  625TIP3    H2 1882   3.596   3.596   3.077
  626TIP3   OH2 1883   1.506   3.093   3.193
  626TIP3    H1 1884   1.553   3.010   3.203
  626TIP3    H2 1885   1.422   3.069   3.153
  627TIP3   OH2 1886   3.777   1.994   3.213
  627TIP3    H1 1887   3.780   2.027   3.302
  627TIP3    H2 1888   3.726   2.058   3.165
  628TIP3   OH2 1889   6.268   4.201   1.142
  628TIP3    H1 1890   6.335   4.261   1.174
  628TIP3    H2 1891   6.236   4.157   1.220
  629TIP3   OH2 1892   0.382   0.698   3.204
  629TIP3    H1 1893   0.359   0.644   3.129
  629TIP3    H2 1894   0.457   0.749   3.175
  630TIP3   OH2 1895   4.427   1.668   5.197
  630TIP3    H1 1896   4.404   1.757   5.172
  630TIP3    H2 1897   4.443   1.622   5.115
  631TIP3   OH2 1898   0.510   3.238   3.392
  631TIP3    H1 1899   0.599   3.263   3.418
  631TIP3    H2 1900   0.522   3.160   3.338
  632TIP3   OH2 1901   0.394   0.875   4.823
  632TIP3    H1 1902   0.383   0.821   4.745
  632TIP3    H2 1903   0.486   0.864   4.846
  633TIP3   OH2 1904   3.913   2.154   2.018
  633TIP3    H1 1905   3.906   2.245   1.992
  633TIP3    H2 1906   3.998   2.147   2.061
  634TIP3   OH2 1907   2.870   3.306   0.404
  634TIP3    H1 1908   2.833   3.391   0.426
  634TIP3    H2 1909   2.871   3.303   0.308
  635TIP3   OH2 1910   2.989   1.506   1.243
  635TIP3    H1 1911   2.959   1.565   1.174
  635TIP3    H2 1912   3.060   1.456   1.202
  636TIP3   OH2 1913   2.924   5.269   4.841
  636TIP3    H1 1914   2.874   5.349   4.859
  636TIP3    H2 1915   2.950   5.277   4.750
  637TIP3   OH2 1916   6.277   4.265   4.023
  637TIP3    H1 1917   6.353   4.210   4.006
  637TIP3    H2 1918   6.204   4.219   3.981
  638TIP3   OH2 1919   3.713   2.645   0.774
  638TIP3    H1 1920   3.736   2.684   0.858
  638TIP3    H2 1921   3.797   2.616   0.738
  639TIP3   OH2 1922   2.107   4.157   1.604
  639TIP3    H1 1923   2.013   4.138   1.610
  639TIP3    H2 1924   2.138   4.152   1.694
  640TIP3   OH2 1925   0.257   1.665   0.564
  640TIP3    H1 1926   0.234   1.678   0.656
  640TIP3    H2 1927   0.309   1.742   0.541
  641TIP3   OH2 1928   5.905   0.217   2.764
  641TIP3    H1 1929   5.868   0.131   2.744
  641TIP3    H2 1930   5.833   0.278   2.750
  642TIP3   OH2 1931   3.594   3.359   4.852
  642TIP3    H1 1932   3.543   3.300   4.907
  642TIP3    H2 1933   3.661   3.303   4.812
  643TIP3   OH2 1934   3.163   1.410   1.429
  643TIP3    H1 1935   3.088   1.446   1.381
  643TIP3    H2 1936   3.127   1.336   1.478
  644TIP3   OH2 1937   6.162   4.716   0.081
  644TIP3    H1 1938   6.070   4.693   0.073
  644TIP3    H2 1939   6.208   4.633   0.074
  645TIP3   OH2 1940   6.218   4.450   0.076
  645TIP3    H1 1941   6.220   4.453   0.172
  645TIP3    H2 1942   6.277   4.378   0.054
  646TIP3   OH2 1943   0.171   1.286   3.388
  646TIP3    H1 1944   0.167   1.241   3.304
  646TIP3    H2 1945   0.250   1.339   3.384
  647TIP3   OH2 1946   2.792   3.555   0.483
  647TIP3    H1 1947   2.825   3.601   0.560
  647TIP3    H2 1948   2.703   3.589   0.472
  648TIP3   OH2 1949   2.403   0.977   0.154
  648TIP3    H1 1950   2.499   0.970   0.148
  648TIP3    H2 1951   2.377   1.014   0.070
  649TIP3   OH2 1952   4.020   2.508   4.420
  649TIP3    H1 1953   4.110   2.502   4.386
  649TIP3    H2 1954   3.969   2.451   4.362
  650TIP3   OH2 1955   5.730   3.094   0.690
  650TIP3    H1 1956   5.768   3.025   0.636
  650TIP3    H2 1957   5.725   3.170   0.633
  651TIP3   OH2 1958   6.123   4.572   2.975
  651TIP3    H1 1959   6.062   4.506   3.006
  651TIP3    H2 1960   6.205   4.552   3.020
  652TIP3   OH2 1961   5.684   2.512   3.663
  652TIP3    H1 1962   5.690   2.463   3.745
  652TIP3    H2 1963   5.767   2.560   3.657
  653TIP3   OH2 1964   6.249   5.852   0.074
  653TIP3    H1 1965   6.165   5.866   0.118
  653TIP3    H2 1966   6.228   5.804  -0.005
  654TIP3   OH2 1967   5.347   1.272   3.519
  654TIP3    H1 1968   5.289   1.211   3.565
  654TIP3    H2 1969   5.391   1.319   3.589
  655TIP3   OH2 1970   5.192   4.595   4.131
  655TIP3    H1 1971   5.230   4.540   4.200
  655TIP3    H2 1972   5.261   4.602   4.065
  656TIP3   OH2 1973   3.572   1.405   0.117
  656TIP3    H1 1974   3.561   1.399   0.022
  656TIP3    H2 1975   3.571   1.499   0.135
  657TIP3   OH2 1976   6.026   0.234   1.956
  657TIP3    H1 1977   5.957   0.276   2.006
  657TIP3    H2 1978   5.980   0.180   1.891
  658TIP3   OH2 1979   6.156   2.168   4.280
  658TIP3    H1 1980   6.229   2.223   4.250
  658TIP3    H2 1981   6.185   2.079   4.262
  659TIP3   OH2 1982   4.725   3.089   1.735
  659TIP3    H1 1983   4.653   3.132   1.781
  659TIP3    H2 1984   4.683   3.042   1.663
  660TIP3   OH2 1985   3.559   2.984   1.820
  660TIP3    H1 1986   3.577   2.892   1.800
  660TIP3    H2 1987   3.468   2.985   1.848
  661TIP3   OH2 1988   1.802   5.470   0.834
  661TIP3    H1 1989   1.810   5.557   0.796
  661TIP3    H2 1990   1.722   5.434   0.795
  662TIP3   OH2 1991   2.967   0.452   0.427
  662TIP3    H1 1992   3.029   0.425   0.359
  662TIP3    H2 1993   2.937   0.370   0.466
  663TIP3   OH2 1994   1.432   4.200   2.586
  663TIP3    H1 1995   1.351   4.167   2.625
  663TIP3    H2 1996   1.444   4.147   2.507
  664TIP3   OH2 1997   4.052   3.453   1.260
  664TIP3    H1 1998   3.960   3.473   1.281
  664TIP3    H2 1999   4.102   3.491   1.332
  665TIP3   OH2 2000   0.952   3.351   2.436
  665TIP3    H1 2001   1.012   3.412   2.479
  665TIP3    H2 2002   0.965   3.268   2.482
  666TIP3   OH2 2003  -0.050   3.076   4.236
  666TIP3    H1 2004  -0.112   3.032   4.294
  666TIP3    H2 2005   0.015   3.010   4.214
  667TIP3   OH2 2006   0.882   0.328   2.417
  667TIP3    H1 2007   0.881   0.255   2.478
  667TIP3    H2 2008   0.974   0.358   2.417
  668TIP3   OH2 2009   1.472   0.963   4.451
  668TIP3    H1 2010   1.515   0.943   4.368
  668TIP3    H2 2011   1.395   1.014   4.426
  669TIP3   OH2 2012   5.675   0.114   1.178
  669TIP3    H1 2013   5.749   0.174   1.172
  669TIP3    H2 2014   5.712   0.028   1.161
  670TIP3   OH2 2015   0.161   2.204   4.523
  670TIP3    H1 2016   0.220   2.208   4.598
  670TIP3    H2 2017   0.095   2.139   4.547
  671TIP3   OH2 2018   6.197   5.268   4.905
  671TIP3    H1 2019   6.108   5.234   4.892
  671TIP3    H2 2020   6.244   5.241   4.826
  672TIP3   OH2 2021   0.433   0.219   4.048
  672TIP3    H1 2022   0.394   0.141   4.089
  672TIP3    H2 2023   0.525   0.216   4.074
  673TIP3   OH2 2024   4.419   4.519   3.501
  673TIP3    H1 2025   4.490   4.584   3.506
  673TIP3    H2 2026   4.362   4.541   3.575
  674TIP3   OH2 2027   3.677   0.861   1.853
  674TIP3    H1 2028   3.626   0.924   1.803
  674TIP3    H2 2029   3.768   0.888   1.841
  675TIP3   OH2 2030   2.184   0.678   5.045
  675TIP3    H1 2031   2.184   0.583   5.038
  675TIP3    H2 2032   2.268   0.700   5.084
  676TIP3   OH2 2033   5.861   1.197   2.554
  676TIP3    H1 2034   5.954   1.193   2.579
  676TIP3    H2 2035   5.832   1.106   2.555
  677TIP3   OH2 2036   2.000   4.280   5.041
  677TIP3    H1 2037   2.007   4.241   5.128
  677TIP3    H2 2038   2.061   4.354   5.044
  678TIP3   OH2 2039   0.366   5.119   4.047
  678TIP3    H1 2040   0.419   5.194   4.018
  678TIP3    H2 2041   0.416   5.082   4.120
  679TIP3   OH2 2042   0.233   1.291   0.869
  679TIP3    H1 2043   0.145   1.266   0.841
  679TIP3    H2 2044   0.260   1.222   0.929
  680TIP3   OH2 2045   4.827   4.106   2.403
  680TIP3    H1 2046   4.868   4.192   2.398
  680TIP3    H2 2047   4.893   4.045   2.369
  681TIP3   OH2 2048   1.034   2.800   2.020
  681TIP3    H1 2049   1.007   2.716   2.056
  681TIP3    H2 2050   0.986   2.807   1.937
  682TIP3   OH2 2051   2.780   5.967   0.884
  682TIP3    H1 2052   2.748   6.051   0.916
  682TIP3    H2 2053   2.706   5.907   0.893
  683TIP3   OH2 2054   0.191   1.662   4.773
  683TIP3    H1 2055   0.188   1.757   4.773
  683TIP3    H2 2056   0.270   1.640   4.724
  684TIP3   OH2 2057   6.090   4.453   1.555
  684TIP3    H1 2058   6.178   4.434   1.586
  684TIP3    H2 2059   6.084   4.548   1.554
  685TIP3   OH2 2060   4.274   2.889   4.473
  685TIP3    H1 2061   4.295   2.866   4.563
  685TIP3    H2 2062   4.312   2.818   4.420
  686TIP3   OH2 2063   4.861   1.872   1.225
  686TIP3    H1 2064   4.904   1.822   1.155
  686TIP3    H2 2065   4.904   1.844   1.305
  687TIP3   OH2 2066   5.492   2.937   2.863
  687TIP3    H1 2067   5.536   3.020   2.846
  687TIP3    H2 2068   5.563   2.873   2.872
  688TIP3   OH2 2069   5.617   0.871   0.123
  688TIP3    H1 2070   5.561   0.948   0.121
  688TIP3    H2 2071   5.604   0.829   0.039
  689TIP3   OH2 2072   3.972   5.396   4.393
  689TIP3    H1 2073   4.040   5.408   4.327
  689TIP3    H2 2074   3.932   5.482   4.402
  690TIP3   OH2 2075   4.957   5.406   1.066
  690TIP3    H1 2076   4.880   5.385   1.013
  690TIP3    H2 2077   4.966   5.501   1.057
  691TIP3   OH2 2078   1.380   5.109   1.469
  691TIP3    H1 2079   1.437   5.033   1.472
  691TIP3    H2 2080   1.418   5.171   1.531
  692TIP3   OH2 2081   3.668   2.776   4.088
  692TIP3    H1 2082   3.752   2.758   4.046
  692TIP3    H2 2083   3.669   2.721   4.167
  693TIP3   OH2 2084   1.597   3.684   1.207
  693TIP3    H1 2085   1.553   3.729   1.135
  693TIP3    H2 2086   1.526   3.643   1.257
  694TIP3   OH2 2087   0.555   3.332   3.749
  694TIP3    H1 2088   0.521   3.243   3.737
  694TIP3    H2 2089   0.486   3.378   3.798
  695TIP3   OH2 2090   3.501   2.218   3.578
  695TIP3    H1 2091   3.458   2.161   3.514
  695TIP3    H2 2092   3.463   2.193   3.662
  696TIP3   OH2 2093   2.826   2.758   0.165
  696TIP3    H1 2094   2.894   2.690   0.165
  696TIP3    H2 2095   2.768   2.733   0.093
  697TIP3   OH2 2096   6.126   3.357   3.659
  697TIP3    H1 2097   6.206   3.390   3.617
  697TIP3    H2 2098   6.085   3.435   3.697
  698TIP3   OH2 2099   4.185   2.982   3.038
  698TIP3    H1 2100   4.256   3.047   3.040
  698TIP3    H2 2101   4.173   2.957   3.130
  699TIP3   OH2 2102   2.329   4.584   2.802
  699TIP3    H1 2103   2.297   4.621   2.720
  699TIP3    H2 2104   2.423   4.604   2.803
  700TIP3   OH2 2105   6.240   3.265   3.336
  700TIP3    H1 2106   6.210   3.177   3.359
  700TIP3    H2 2107   6.331   3.268   3.365
  701TIP3   OH2 2108   3.563   0.529   2.230
  701TIP3    H1 2109   3.560   0.625   2.231
  701TIP3    H2 2110   3.490   0.503   2.174
  702TIP3   OH2 2111   0.576   1.764   0.991
  702TIP3    H1 2112   0.653   1.816   1.015
  702TIP3    H2 2113   0.527   1.820   0.931
  703TIP3   OH2 2114   3.732   1.605   4.499
  703TIP3    H1 2115   3.686   1.689   4.506
  703TIP3    H2 2116   3.678   1.544   4.549
  704TIP3   OH2 2117   2.932   3.339   4.744
  704TIP3    H1 2118   2.928   3.408   4.677
  704TIP3    H2 2119   2.976   3.380   4.818
  705TIP3   OH2 2120   0.381   3.569   4.870
  705TIP3    H1 2121   0.323   3.513   4.922
  705TIP3    H2 2122   0.458   3.582   4.925
  706TIP3   OH2 2123   0.227   0.870   3.594
  706TIP3    H1 2124   0.219   0.776   3.609
  706TIP3    H2 2125   0.141   0.905   3.616
  707TIP3   OH2 2126   5.333   0.501   1.913
  707TIP3    H1 2127   5.286   0.515   1.995
  707TIP3    H2 2128   5.285   0.553   1.849
  708TIP3   OH2 2129   1.795   5.721   0.700
  708TIP3    H1 2130   1.871   5.687   0.653
  708TIP3    H2 2131   1.820   5.811   0.724
  709TIP3   OH2 2132   4.566   2.905   1.624
  709TIP3    H1 2133   4.541   2.834   1.683
  709TIP3    H2 2134   4.533   2.877   1.538
  710TIP3   OH2 2135   2.319   5.103   4.206
  710TIP3    H1 2136   2.400   5.058   4.228
  710TIP3    H2 2137   2.341   5.156   4.130
  711TIP3   OH2 2138   5.886   0.314   0.695
  711TIP3    H1 2139   5.917   0.224   0.708
  711TIP3    H2 2140   5.795   0.312   0.723
  712TIP3   OH2 2141   3.841   2.603   3.092
  712TIP3    H1 2142   3.888   2.598   3.176
  712TIP3    H2 2143   3.753   2.572   3.112
  713TIP3   OH2 2144   1.935   0.870   4.430
  713TIP3    H1 2145   1.964   0.859   4.339
  713TIP3    H2 2146   1.882   0.793   4.448
  714TIP3   OH2 2147   2.176   5.449   1.894
  714TIP3    H1 2148   2.090   5.419   1.923
  714TIP3    H2 2149   2.237   5.386   1.932
  715TIP3   OH2 2150   0.512   4.540   1.055
  715TIP3    H1 2151   0.502   4.586   0.972
  715TIP3    H2 2152   0.604   4.552   1.079
  716TIP3   OH2 2153   0.064   0.790   4.857
  716TIP3    H1 2154   0.088   0.734   4.931
  716TIP3    H2 2155   0.112   0.753   4.782
  717TIP3   OH2 2156   1.982   0.331   5.078
  717TIP3    H1 2157   2.062   0.371   5.111
  717TIP3    H2 2158   1.927   0.319   5.155
  718TIP3   OH2 2159   3.462   3.172   3.540
  718TIP3    H1 2160   3.400   3.180   3.612
  718TIP3    H2 2161   3.464   3.078   3.520
  719TIP3   OH2 2162   0.245   3.584   2.994
  719TIP3    H1 2163   0.213   3.556   3.080
  719TIP3    H2 2164   0.321   3.528   2.978
  720TIP3   OH2 2165   1.902   0.625   3.932
  720TIP3    H1 2166   1.928   0.534   3.920
  720TIP3    H2 2167   1.838   0.641   3.862
  721TIP3   OH2 2168   3.164   0.186   1.213
  721TIP3    H1 2169   3.147   0.280   1.204
  721TIP3    H2 2170   3.088   0.152   1.260
  722TIP3   OH2 2171   4.997   3.030   3.391
  722TIP3    H1 2172   4.909   3.060   3.368
  722TIP3    H2 2173   4.987   2.988   3.476
  723TIP3   OH2 2174   6.165   4.736   3.309
  723TIP3    H1 2175   6.252   4.751   3.345
  723TIP3    H2 2176   6.161   4.793   3.232
  724TIP3   OH2 2177   2.665   1.523   0.724
  724TIP3    H1 2178   2.676   1.443   0.776
  724TIP3    H2 2179   2.576   1.552   0.742
  725TIP3   OH2 2180   1.176   0.753   4.458
  725TIP3    H1 2181   1.080   0.751   4.465
  725TIP3    H2 2182   1.199   0.843   4.483
  726TIP3   OH2 2183   1.320   2.286   0.081
  726TIP3    H1 2184   1.337   2.193   0.068
  726TIP3    H2 2185   1.236   2.301   0.038
  727TIP3   OH2 2186   5.945   5.078   4.788
  727TIP3    H1 2187   5.957   4.989   4.754
  727TIP3    H2 2188   5.935   5.133   4.711
  728TIP3   OH2 2189   6.142   0.128   1.610
  728TIP3    H1 2190   6.196   0.068   1.559
  728TIP3    H2 2191   6.078   0.162   1.548
  729TIP3   OH2 2192   3.061   4.993   4.004
  729TIP3    H1 2193   3.115   5.043   3.943
  729TIP3    H2 2194   3.116   4.920   4.031
  730TIP3   OH2 2195   3.024   2.439   4.948
  730TIP3    H1 2196   3.100   2.488   4.917
  730TIP3    H2 2197   2.956   2.505   4.959
  731TIP3   OH2 2198   0.908   2.131   0.396
  731TIP3    H1 2199   0.960   2.192   0.343
  731TIP3    H2 2200   0.899   2.174   0.481
  732TIP3   OH2 2201   6.124   1.660   2.946
  732TIP3    H1 2202   6.174   1.618   2.876
  732TIP3    H2 2203   6.055   1.708   2.901
  733TIP3   OH2 2204   4.584   4.359   1.296
  733TIP3    H1 2205   4.548   4.368   1.385
  733TIP3    H2 2206   4.631   4.441   1.281
  734TIP3   OH2 2207   2.741   0.855   4.438
  734TIP3    H1 2208   2.735   0.910   4.361
  734TIP3    H2 2209   2.792   0.907   4.501
  735TIP3   OH2 2210   3.617   2.452   5.046
  735TIP3    H1 2211   3.601   2.450   4.951
  735TIP3    H2 2212   3.679   2.381   5.061
  736TIP3   OH2 2213   1.163   0.137   1.999
  736TIP3    H1 2214   1.222   0.106   1.930
  736TIP3    H2 2215   1.081   0.155   1.954
  737TIP3   OH2 2216   1.133   0.672   3.695
  737TIP3    H1 2217   1.068   0.624   3.747
  737TIP3    H2 2218   1.182   0.723   3.760
  738TIP3   OH2 2219   1.964   0.074   4.956
  738TIP3    H1 2220   1.947   0.010   5.026
  738TIP3    H2 2221   1.991   0.153   5.002
  739TIP3   OH2 2222   3.737   5.895   4.685
  739TIP3    H1 2223   3.750   5.960   4.754
  739TIP3    H2 2224   3.723   5.947   4.606
  740TIP3   OH2 2225   3.017   3.995   4.368
  740TIP3    H1 2226   3.025   3.916   4.422
  740TIP3    H2 2227   2.927   3.992   4.336
  741TIP3   OH2 2228   3.039   3.538   3.253
  741TIP3    H1 2229   3.133   3.530   3.265
  741TIP3    H2 2230   3.004   3.541   3.342
  742TIP3   OH2 2231   1.128   4.975   0.801
  742TIP3    H1 2232   1.183   4.950   0.726
  742TIP3    H2 2233   1.172   4.936   0.876
  743TIP3   OH2 2234   5.816   1.056   3.507
  743TIP3    H1 2235   5.756   1.102   3.565
  743TIP3    H2 2236   5.791   1.084   3.419
  744TIP3   OH2 2237   3.188   5.153   2.159
  744TIP3    H1 2238   3.248   5.226   2.147
  744TIP3    H2 2239   3.242   5.075   2.148
  745TIP3   OH2 2240   2.207   0.163   0.748
  745TIP3    H1 2241   2.198   0.144   0.841
  745TIP3    H2 2242   2.302   0.174   0.735
  746TIP3   OH2 2243   3.675   5.286   1.194
  746TIP3    H1 2244   3.639   5.347   1.130
  746TIP3    H2 2245   3.672   5.201   1.151
  747TIP3   OH2 2246   2.307   1.139   3.292
  747TIP3    H1 2247   2.319   1.186   3.374
  747TIP3    H2 2248   2.357   1.058   3.302
  748TIP3   OH2 2249   4.586   2.631   3.495
  748TIP3    H1 2250   4.650   2.563   3.473
  748TIP3    H2 2251   4.571   2.620   3.589
  749TIP3   OH2 2252   5.852   5.223   0.130
  749TIP3    H1 2253   5.822   5.292   0.188
  749TIP3    H2 2254   5.943   5.209   0.154
  750TIP3   OH2 2255   4.436   3.219   2.536
  750TIP3    H1 2256   4.456   3.239   2.627
  750TIP3    H2 2257   4.521   3.205   2.495
  751TIP3   OH2 2258   3.271   0.189   1.772
  751TIP3    H1 2259   3.242   0.157   1.686
  751TIP3    H2 2260   3.361   0.219   1.758
  752TIP3   OH2 2261   3.634   4.722   3.258
  752TIP3    H1 2262   3.608   4.638   3.296
  752TIP3    H2 2263   3.699   4.757   3.318
  753TIP3   OH2 2264   1.913   2.645   2.994
  753TIP3    H1 2265   1.989   2.639   2.937
  753TIP3    H2 2266   1.843   2.603   2.944
  754TIP3   OH2 2267   5.660   1.192   0.032
  754TIP3    H1 2268   5.579   1.150   0.061
  754TIP3    H2 2269   5.684   1.249   0.105
  755TIP3   OH2 2270   1.260   2.051   1.045
  755TIP3    H1 2271   1.172   2.062   1.082
  755TIP3    H2 2272   1.314   2.112   1.094
  756TIP3   OH2 2273   3.204   4.129   2.736
  756TIP3    H1 2274   3.122   4.099   2.776
  756TIP3    H2 2275   3.214   4.219   2.767
  757TIP3   OH2 2276   1.615   3.076   1.390
  757TIP3    H1 2277   1.693   3.021   1.379
  757TIP3    H2 2278   1.601   3.115   1.304
  758TIP3   OH2 2279   3.280   0.866   0.103
  758TIP3    H1 2280   3.258   0.837   0.191
  758TIP3    H2 2281   3.362   0.914   0.114
  759TIP3   OH2 2282   2.348   5.235   2.007
  759TIP3    H1 2283   2.318   5.267   2.092
  759TIP3    H2 2284   2.357   5.140   2.019
  760TIP3   OH2 2285   2.326   3.832   4.207
  760TIP3    H1 2286   2.301   3.751   4.250
  760TIP3    H2 2287   2.243   3.871   4.178
  761TIP3   OH2 2288   4.592   2.610   3.780
  761TIP3    H1 2289   4.624   2.695   3.811
  761TIP3    H2 2290   4.523   2.587   3.843
  762TIP3   OH2 2291   0.426   1.520   4.455
  762TIP3    H1 2292   0.414   1.513   4.550
  762TIP3    H2 2293   0.506   1.472   4.438
  763TIP3   OH2 2294   6.080   4.282   4.630
  763TIP3    H1 2295   6.046   4.344   4.695
  763TIP3    H2 2296   6.100   4.203   4.680
  764TIP3   OH2 2297   6.091   0.944   3.917
  764TIP3    H1 2298   6.169   0.978   3.872
  764TIP3    H2 2299   6.059   1.018   3.968
  765TIP3   OH2 2300   5.822   4.361   0.105
  765TIP3    H1 2301   5.849   4.312   0.183
  765TIP3    H2 2302   5.860   4.313   0.032
  766TIP3   OH2 2303  -0.041   3.674   2.793
  766TIP3    H1 2304  -0.046   3.584   2.824
  766TIP3    H2 2305   0.050   3.684   2.764
  767TIP3   OH2 2306   5.003   3.078   4.675
  767TIP3    H1 2307   4.952   3.144   4.724
  767TIP3    H2 2308   4.952   2.998   4.684
  768TIP3   OH2 2309   1.236   1.684   0.236
  768TIP3    H1 2310   1.321   1.695   0.193
  768TIP3    H2 2311   1.221   1.767   0.282
  769TIP3   OH2 2312   2.684   2.298   3.238
  769TIP3    H1 2313   2.673   2.203   3.236
  769TIP3    H2 2314   2.670   2.322   3.330
  770TIP3   OH2 2315   6.034   3.180   1.316
  770TIP3    H1 2316   5.951   3.222   1.339
  770TIP3    H2 2317   6.099   3.249   1.328
  771TIP3   OH2 2318   0.455   5.989   4.132
  771TIP3    H1 2319   0.513   6.006   4.058
  771TIP3    H2 2320   0.442   5.894   4.131
  772TIP3   OH2 2321   4.219   3.235   3.737
  772TIP3    H1 2322   4.232   3.329   3.748
  772TIP3    H2 2323   4.282   3.195   3.797
  773TIP3   OH2 2324   0.879   5.024   0.726
  773TIP3    H1 2325   0.875   5.119   0.731
  773TIP3    H2 2326   0.964   5.002   0.765
  774TIP3   OH2 2327   6.154   3.510   0.042
  774TIP3    H1 2328   6.118   3.591   0.077
  774TIP3    H2 2329   6.121   3.506  -0.048
  775TIP3   OH2 2330   5.691   3.809   0.127
  775TIP3    H1 2331   5.706   3.901   0.149
  775TIP3    H2 2332   5.628   3.813   0.054
  776TIP3   OH2 2333   4.587   3.138   4.208
  776TIP3    H1 2334   4.499   3.128   4.244
  776TIP3    H2 2335   4.639   3.070   4.250
  777TIP3   OH2 2336   3.826   0.131   3.045
  777TIP3    H1 2337   3.845   0.221   3.017
  777TIP3    H2 2338   3.877   0.076   2.986
  778TIP3   OH2 2339   4.583   4.970   1.877
  778TIP3    H1 2340   4.659   5.028   1.883
  778TIP3    H2 2341   4.520   5.007   1.938
  779TIP3   OH2 2342   5.800   3.065   4.910
  779TIP3    H1 2343   5.826   3.097   4.997
  779TIP3    H2 2344   5.719   3.112   4.890
  780TIP3   OH2 2345   5.247   2.667   1.362
  780TIP3    H1 2346   5.326   2.655   1.310
  780TIP3    H2 2347   5.179   2.688   1.298
  781TIP3   OH2 2348   0.853   4.017   4.331
  781TIP3    H1 2349   0.838   3.927   4.303
  781TIP3    H2 2350   0.895   4.009   4.417
  782TIP3   OH2 2351   2.854   2.020   2.363
  782TIP3    H1 2352   2.829   1.973   2.442
  782TIP3    H2 2353   2.941   1.986   2.341
  783TIP3   OH2 2354   2.314   3.693   4.979
  783TIP3    H1 2355   2.289   3.607   5.013
  783TIP3    H2 2356   2.292   3.754   5.049
  784TIP3   OH2 2357   2.366   4.138   2.223
  784TIP3    H1 2358   2.433   4.204   2.206
  784TIP3    H2 2359   2.414   4.055   2.225
  785TIP3   OH2 2360   3.907   5.690   3.785
  785TIP3    H1 2361   3.831   5.647   3.824
  785TIP3    H2 2362   3.903   5.780   3.816
  786TIP3   OH2 2363   5.701   4.756   2.712
  786TIP3    H1 2364   5.643   4.680   2.720
  786TIP3    H2 2365   5.788   4.723   2.733
  787TIP3   OH2 2366   4.545   5.318   3.178
  787TIP3    H1 2367   4.614   5.318   3.111
  787TIP3    H2 2368   4.464   5.337   3.129
  788TIP3   OH2 2369   5.201   1.338   0.411
  788TIP3    H1 2370   5.159   1.256   0.382
  788TIP3    H2 2371   5.292   1.314   0.425
  789TIP3   OH2 2372   2.704   0.842   2.616
  789TIP3    H1 2373   2.675   0.772   2.675
  789TIP3    H2 2374   2.645   0.915   2.635
  790TIP3   OH2 2375   6.209   3.384   1.760
  790TIP3    H1 2376   6.203   3.290   1.739
  790TIP3    H2 2377   6.135   3.423   1.714
  791TIP3   OH2 2378   2.525   1.447   0.514
  791TIP3    H1 2379   2.484   1.533   0.509
  791TIP3    H2 2380   2.599   1.460   0.574
  792TIP3   OH2 2381   3.116   2.588   1.558
  792TIP3    H1 2382   3.028   2.551   1.555
  792TIP3    H2 2383   3.158   2.557   1.477
  793TIP3   OH2 2384   3.343   3.237   0.498
  793TIP3    H1 2385   3.368   3.147   0.522
  793TIP3    H2 2386   3.409   3.292   0.540
  794TIP3   OH2 2387   5.917   0.749   4.334
  794TIP3    H1 2388   5.889   0.788   4.251
  794TIP3    H2 2389   5.914   0.655   4.319
  795TIP3   OH2 2390   4.481   3.843   5.029
  795TIP3    H1 2391   4.554   3.876   5.082
  795TIP3    H2 2392   4.513   3.761   4.992
  796TIP3   OH2 2393   3.293   3.845   4.756
  796TIP3    H1 2394   3.345   3.883   4.685
  796TIP3    H2 2395   3.332   3.880   4.836
  797TIP3   OH2 2396   5.783   3.653   4.488
  797TIP3    H1 2397   5.730   3.725   4.454
  797TIP3    H2 2398   5.742   3.574   4.454
  798TIP3   OH2 2399   2.035   0.502   4.323
  798TIP3    H1 2400   2.107   0.565   4.329
  798TIP3    H2 2401   2.013   0.481   4.413
  799TIP3   OH2 2402   5.263   3.087   2.025
  799TIP3    H1 2403   5.235   2.998   2.045
  799TIP3    H2 2404   5.283   3.085   1.932
  800TIP3   OH2 2405   1.226   3.196   4.848
  800TIP3    H1 2406   1.237   3.101   4.841
  800TIP3    H2 2407   1.156   3.217   4.786
  801TIP3   OH2 2408   5.896   4.698   0.729
  801TIP3    H1 2409   5.803   4.722   0.721
  801TIP3    H2 2410   5.895   4.619   0.784
  802TIP3   OH2 2411   2.726   0.720   4.828
  802TIP3    H1 2412   2.673   0.779   4.881
  802TIP3    H2 2413   2.740   0.766   4.746
  803TIP3   OH2 2414   0.456   5.509   3.568
  803TIP3    H1 2415   0.402   5.430   3.572
  803TIP3    H2 2416   0.534   5.487   3.619
  804TIP3   OH2 2417   5.928   0.799   2.189
  804TIP3    H1 2418   5.979   0.821   2.267
  804TIP3    H2 2419   5.976   0.728   2.148
  805TIP3   OH2 2420   2.234   0.096   0.440
  805TIP3    H1 2421   2.189   0.167   0.395
  805TIP3    H2 2422   2.270   0.136   0.519
  806TIP3   OH2 2423   3.934   0.006   2.111
  806TIP3    H1 2424   3.890  -0.022   2.031
  806TIP3    H2 2425   3.973   0.091   2.089
  807TIP3   OH2 2426   5.404   5.041   0.092
  807TIP3    H1 2427   5.469   5.077   0.152
  807TIP3    H2 2428   5.419   5.088   0.010
  808TIP3   OH2 2429   0.313   3.897   1.559
  808TIP3    H1 2430   0.276   3.952   1.628
  808TIP3    H2 2431   0.339   3.817   1.604
  809TIP3   OH2 2432   0.904   1.501   1.030
  809TIP3    H1 2433   0.835   1.508   0.964
  809TIP3    H2 2434   0.954   1.583   1.020
  810TIP3   OH2 2435   5.988   0.504   3.678
  810TIP3    H1 2436   5.967   0.500   3.585
  810TIP3    H2 2437   6.076   0.541   3.681
  811TIP3   OH2 2438   5.119   5.652   2.489
  811TIP3    H1 2439   5.185   5.583   2.497
  811TIP3    H2 2440   5.170   5.734   2.491
  812TIP3   OH2 2441   1.827   5.115   2.150
  812TIP3    H1 2442   1.801   5.205   2.170
  812TIP3    H2 2443   1.792   5.063   2.223
  813TIP3   OH2 2444   3.380   1.186   4.948
  813TIP3    H1 2445   3.402   1.248   5.017
  813TIP3    H2 2446   3.351   1.240   4.875
  814TIP3   OH2 2447   0.413   0.821   1.449
  814TIP3    H1 2448   0.435   0.798   1.539
  814TIP3    H2 2449   0.460   0.902   1.432
  815TIP3   OH2 2450   0.855   4.292   2.522
  815TIP3    H1 2451   0.783   4.351   2.498
  815TIP3    H2 2452   0.860   4.231   2.448
  816TIP3   OH2 2453   4.984   5.571   3.504
  816TIP3    H1 2454   4.944   5.538   3.424
  816TIP3    H2 2455   4.924   5.638   3.535
  817TIP3   OH2 2456   1.657   4.032   5.116
  817TIP3    H1 2457   1.726   4.044   5.180
  817TIP3    H2 2458   1.591   4.098   5.138
  818TIP3   OH2 2459   2.781   5.347   1.325
  818TIP3    H1 2460   2.780   5.317   1.234
  818TIP3    H2 2461   2.805   5.440   1.319
  819TIP3   OH2 2462   3.568   5.234   2.819
  819TIP3    H1 2463   3.632   5.251   2.888
  819TIP3    H2 2464   3.580   5.142   2.796
  820TIP3   OH2 2465   4.656   4.701   5.048
  820TIP3    H1 2466   4.662   4.629   4.985
  820TIP3    H2 2467   4.647   4.779   4.994
  821TIP3   OH2 2468   4.447   5.850   0.893
  821TIP3    H1 2469   4.460   5.941   0.867
  821TIP3    H2 2470   4.404   5.809   0.817
  822TIP3   OH2 2471   2.422   3.056   0.740
  822TIP3    H1 2472   2.499   3.005   0.761
  822TIP3    H2 2473   2.407   3.111   0.818
  823TIP3   OH2 2474   5.214   3.080   4.402
  823TIP3    H1 2475   5.147   3.079   4.333
  823TIP3    H2 2476   5.176   3.132   4.472
  824TIP3   OH2 2477   5.139   5.716   4.919
  824TIP3    H1 2478   5.205   5.653   4.948
  824TIP3    H2 2479   5.119   5.692   4.829
  825TIP3   OH2 2480   3.799   2.684   4.665
  825TIP3    H1 2481   3.723   2.680   4.723
  825TIP3    H2 2482   3.768   2.730   4.587
  826TIP3   OH2 2483   5.643   1.417   3.972
  826TIP3    H1 2484   5.685   1.501   3.990
  826TIP3    H2 2485   5.566   1.416   4.029
  827TIP3   OH2 2486   1.728   1.158   2.562
  827TIP3    H1 2487   1.684   1.156   2.647
  827TIP3    H2 2488   1.800   1.096   2.572
  828TIP3   OH2 2489   4.014   3.257   3.410
  828TIP3    H1 2490   3.991   3.273   3.319
  828TIP3    H2 2491   4.099   3.300   3.422
  829TIP3   OH2 2492   5.864   4.367   2.797
  829TIP3    H1 2493   5.913   4.289   2.822
  829TIP3    H2 2494   5.919   4.409   2.730
  830TIP3   OH2 2495   4.464   4.386   1.532
  830TIP3    H1 2496   4.444   4.295   1.553
  830TIP3    H2 2497   4.415   4.438   1.595
  831TIP3   OH2 2498   1.600   4.550   1.381
  831TIP3    H1 2499   1.524   4.491   1.388
  831TIP3    H2 2500   1.664   4.500   1.331
  832TIP3   OH2 2501   1.050   5.859   1.127
  832TIP3    H1 2502   1.141   5.835   1.112
  832TIP3    H2 2503   1.052   5.953   1.141
  833TIP3   OH2 2504   2.503   3.903   0.356
  833TIP3    H1 2505   2.573   3.946   0.306
  833TIP3    H2 2506   2.514   3.936   0.446
  834TIP3   OH2 2507   3.090   0.493   0.744
  834TIP3    H1 2508   3.016   0.469   0.688
  834TIP3    H2 2509   3.115   0.410   0.786
  835TIP3   OH2 2510   5.495   3.498   4.265
  835TIP3    H1 2511   5.485   3.410   4.300
  835TIP3    H2 2512   5.433   3.551   4.316
  836TIP3   OH2 2513   2.283   1.304   2.385
  836TIP3    H1 2514   2.202   1.288   2.335
  836TIP3    H2 2515   2.275   1.395   2.413
  837TIP3   OH2 2516   5.597   0.754   4.102
  837TIP3    H1 2517   5.611   0.701   4.180
  837TIP3    H2 2518   5.666   0.821   4.105
  838TIP3   OH2 2519   2.693   0.189   2.272
  838TIP3    H1 2520   2.687   0.280   2.243
  838TIP3    H2 2521   2.778   0.159   2.241
  839TIP3   OH2 2522   3.238   4.777   4.027
  839TIP3    H1 2523   3.235   4.689   3.988
  839TIP3    H2 2524   3.331   4.799   4.028
  840TIP3   OH2 2525   1.030   4.317   3.040
  840TIP3    H1 2526   1.023   4.391   3.100
  840TIP3    H2 2527   1.025   4.357   2.953
  841TIP3   OH2 2528   2.321   5.640   4.646
  841TIP3    H1 2529   2.330   5.585   4.569
  841TIP3    H2 2530   2.251   5.600   4.697
  842TIP3   OH2 2531   1.451   0.164   2.568
  842TIP3    H1 2532   1.375   0.208   2.531
  842TIP3    H2 2533   1.460   0.084   2.515
  843TIP3   OH2 2534   4.047   5.890   4.755
  843TIP3    H1 2535   3.955   5.864   4.760
  843TIP3    H2 2536   4.096   5.811   4.776
  844TIP3   OH2 2537   4.797   2.610   4.946
  844TIP3    H1 2538   4.763   2.696   4.922
  844TIP3    H2 2539   4.859   2.627   5.017
  845TIP3   OH2 2540   1.631   5.457   5.095
  845TIP3    H1 2541   1.644   5.426   5.005
  845TIP3    H2 2542   1.590   5.543   5.085
  846TIP3   OH2 2543   0.490   2.061   4.502
  846TIP3    H1 2544   0.436   2.108   4.565
  846TIP3    H2 2545   0.580   2.072   4.534
  847TIP3   OH2 2546   3.877   3.387   3.992
  847TIP3    H1 2547   3.864   3.350   4.079
  847TIP3    H2 2548   3.858   3.314   3.932
  848TIP3   OH2 2549   0.915   2.382   1.493
  848TIP3    H1 2550   0.955   2.296   1.479
  848TIP3    H2 2551   0.858   2.369   1.570
  849TIP3   OH2 2552   0.512   3.247   5.001
  849TIP3    H1 2553   0.527   3.160   5.038
  849TIP3    H2 2554   0.584   3.258   4.938
  850TIP3   OH2 2555   3.520   0.282   0.765
  850TIP3    H1 2556   3.575   0.204   0.773
  850TIP3    H2 2557   3.432   0.252   0.786
  851TIP3   OH2 2558   2.668   4.793   1.689
  851TIP3    H1 2559   2.614   4.801   1.768
  851TIP3    H2 2560   2.755   4.824   1.715
  852TIP3   OH2 2561   1.138   1.848   4.910
  852TIP3    H1 2562   1.098   1.923   4.954
  852TIP3    H2 2563   1.068   1.783   4.906
  853TIP3   OH2 2564   1.555   5.966   4.734
  853TIP3    H1 2565   1.628   5.913   4.703
  853TIP3    H2 2566   1.490   5.961   4.663
  854TIP3   OH2 2567   1.850   4.009   2.279
  854TIP3    H1 2568   1.812   4.013   2.367
  854TIP3    H2 2569   1.943   4.030   2.293
  855TIP3   OH2 2570   6.042   0.487   1.626
  855TIP3    H1 2571   6.093   0.537   1.561
  855TIP3    H2 2572   6.106   0.430   1.668
  856TIP3   OH2 2573   1.732   5.121   1.077
  856TIP3    H1 2574   1.690   5.164   1.151
  856TIP3    H2 2575   1.783   5.190   1.035
  857TIP3   OH2 2576   3.777   4.590   4.505
  857TIP3    H1 2577   3.868   4.593   4.535
  857TIP3    H2 2578   3.755   4.681   4.488
  858TIP3   OH2 2579   2.981   4.813   3.791
  858TIP3    H1 2580   3.054   4.750   3.793
  858TIP3    H2 2581   3.013   4.887   3.843
  859TIP3   OH2 2582   1.553   2.077   1.748
  859TIP3    H1 2583   1.501   2.105   1.824
  859TIP3    H2 2584   1.566   2.157   1.698
  860TIP3   OH2 2585   3.894   2.596   5.057
  860TIP3    H1 2586   3.803   2.618   5.073
  860TIP3    H2 2587   3.895   2.500   5.056
  861TIP3   OH2 2588   2.252   5.824   1.935
  861TIP3    H1 2589   2.208   5.751   1.893
  861TIP3    H2 2590   2.228   5.817   2.028
  862TIP3   OH2 2591   3.308   3.825   0.127
  862TIP3    H1 2592   3.228   3.876   0.112
  862TIP3    H2 2593   3.378   3.891   0.128
  863TIP3   OH2 2594   3.092   5.847   5.090
  863TIP3    H1 2595   3.086   5.902   5.168
  863TIP3    H2 2596   3.151   5.895   5.031
  864TIP3   OH2 2597   2.853   3.586   0.765
  864TIP3    H1 2598   2.844   3.555   0.855
  864TIP3    H2 2599   2.870   3.680   0.774
  865TIP3   OH2 2600   4.924   1.304   2.426
  865TIP3    H1 2601   4.904   1.351   2.345
  865TIP3    H2 2602   4.880   1.353   2.495
  866TIP3   OH2 2603   0.301   4.434   1.199
  866TIP3    H1 2604   0.241   4.492   1.152
  866TIP3    H2 2605   0.388   4.467   1.176
  867TIP3   OH2 2606   6.062   2.649   3.088
  867TIP3    H1 2607   5.988   2.603   3.129
  867TIP3    H2 2608   6.042   2.647   2.995
  868TIP3   OH2 2609   2.100   0.441   0.696
  868TIP3    H1 2610   2.155   0.369   0.725
  868TIP3    H2 2611   2.160   0.505   0.659
  869TIP3   OH2 2612   0.301   2.173   0.994
  869TIP3    H1 2613   0.286   2.079   0.987
  869TIP3    H2 2614   0.334   2.198   0.907
  870TIP3   OH2 2615   1.522   3.460   2.825
  870TIP3    H1 2616   1.611   3.437   2.797
  870TIP3    H2 2617   1.506   3.545   2.785
  871TIP3   OH2 2618   0.914   0.213   3.223
  871TIP3    H1 2619   0.985   0.172   3.173
  871TIP3    H2 2620   0.941   0.204   3.314
  872TIP3   OH2 2621   5.539   5.491   2.961
  872TIP3    H1 2622   5.540   5.582   2.990
  872TIP3    H2 2623   5.463   5.486   2.903
  873TIP3   OH2 2624   5.604   2.480   3.250
  873TIP3    H1 2625   5.608   2.441   3.163
  873TIP3    H2 2626   5.627   2.409   3.310
  874TIP3   OH2 2627   2.804   0.670   1.095
  874TIP3    H1 2628   2.767   0.683   1.008
  874TIP3    H2 2629   2.897   0.654   1.079
  875TIP3   OH2 2630   4.329   2.687   4.287
  875TIP3    H1 2631   4.242   2.709   4.255
  875TIP3    H2 2632   4.347   2.601   4.251
  876TIP3   OH2 2633   6.100   2.191   2.173
  876TIP3    H1 2634   6.046   2.208   2.096
  876TIP3    H2 2635   6.102   2.096   2.181
  877TIP3   OH2 2636   0.279   5.356   1.903
  877TIP3    H1 2637   0.337   5.387   1.834
  877TIP3    H2 2638   0.218   5.428   1.917
  878TIP3   OH2 2639   1.905   1.096   4.607
  878TIP3    H1 2640   1.954   1.093   4.689
  878TIP3    H2 2641   1.926   1.014   4.563
  879TIP3   OH2 2642   2.857   5.715   4.078
  879TIP3    H1 2643   2.778   5.704   4.026
  879TIP3    H2 2644   2.833   5.683   4.165
  880TIP3   OH2 2645   0.761   2.076   4.660
  880TIP3    H1 2646   0.844   2.096   4.704
  880TIP3    H2 2647   0.713   2.159   4.662
  881TIP3   OH2 2648   6.196   1.430   1.307
  881TIP3    H1 2649   6.277   1.417   1.356
  881TIP3    H2 2650   6.224   1.456   1.219
  882TIP3   OH2 2651   0.937   0.787   2.760
  882TIP3    H1 2652   0.923   0.829   2.675
  882TIP3    H2 2653   0.920   0.694   2.744
  883TIP3   OH2 2654   5.566  -0.016   2.603
  883TIP3    H1 2655   5.513   0.006   2.680
  883TIP3    H2 2656   5.656  -0.015   2.636
  884TIP3   OH2 2657   4.359   1.837   3.683
  884TIP3    H1 2658   4.364   1.873   3.595
  884TIP3    H2 2659   4.449   1.837   3.715
  885TIP3   OH2 2660   5.889   5.742   4.923
  885TIP3    H1 2661   5.975   5.702   4.915
  885TIP3    H2 2662   5.863   5.725   5.014
  886TIP3   OH2 2663   1.372   5.786   0.168
  886TIP3    H1 2664   1.376   5.767   0.262
  886TIP3    H2 2665   1.319   5.715   0.132
  887TIP3   OH2 2666   0.446   1.776   3.206
  887TIP3    H1 2667   0.487   1.776   3.293
  887TIP3    H2 2668   0.389   1.853   3.206
  888TIP3   OH2 2669   1.501   4.632   4.008
  888TIP3    H1 2670   1.593   4.623   3.983
  888TIP3    H2 2671   1.493   4.582   4.089
  889TIP3   OH2 2672   2.199   0.507   1.280
  889TIP3    H1 2673   2.222   0.537   1.192
  889TIP3    H2 2674   2.179   0.588   1.328
  890TIP3   OH2 2675   0.948   3.648   2.440
  890TIP3    H1 2676   1.019   3.594   2.404
  890TIP3    H2 2677   0.936   3.616   2.529
  891TIP3   OH2 2678   3.514   0.142   3.279
  891TIP3    H1 2679   3.525   0.048   3.292
  891TIP3    H2 2680   3.430   0.150   3.234
  892TIP3   OH2 2681   1.367   5.609   4.131
  892TIP3    H1 2682   1.445   5.572   4.090
  892TIP3    H2 2683   1.334   5.672   4.067
  893TIP3   OH2 2684   1.883   1.745   2.707
  893TIP3    H1 2685   1.863   1.658   2.740
  893TIP3    H2 2686   1.798   1.786   2.694
  894TIP3   OH2 2687   3.708   0.784   2.129
  894TIP3    H1 2688   3.680   0.813   2.042
  894TIP3    H2 2689   3.783   0.840   2.150
  895TIP3   OH2 2690   1.069   4.809   3.836
  895TIP3    H1 2691   0.995   4.799   3.776
  895TIP3    H2 2692   1.066   4.731   3.890
  896TIP3   OH2 2693   2.289   4.156   1.404
  896TIP3    H1 2694   2.263   4.240   1.367
  896TIP3    H2 2695   2.234   4.145   1.482
  897TIP3   OH2 2696   3.247   2.515   2.992
  897TIP3    H1 2697   3.210   2.566   3.064
  897TIP3    H2 2698   3.209   2.428   3.002
  898TIP3   OH2 2699   4.912   5.958   4.002
  898TIP3    H1 2700   4.838   5.950   3.943
  898TIP3    H2 2701   4.906   5.880   4.058
  899TIP3   OH2 2702   4.473   1.439   1.578
  899TIP3    H1 2703   4.453   1.376   1.647
  899TIP3    H2 2704   4.404   1.427   1.513
  900TIP3   OH2 2705   4.031   4.745   3.609
  900TIP3    H1 2706   4.123   4.718   3.605
  900TIP3    H2 2707   4.017   4.768   3.700
  901TIP3   OH2 2708   3.317   5.489   0.173
  901TIP3    H1 2709   3.392   5.526   0.218
  901TIP3    H2 2710   3.278   5.429   0.236
  902TIP3   OH2 2711   1.748   1.268   1.353
  902TIP3    H1 2712   1.761   1.291   1.445
  902TIP3    H2 2713   1.779   1.345   1.304
  903TIP3   OH2 2714   3.452   2.905   4.872
  903TIP3    H1 2715   3.439   2.978   4.811
  903TIP3    H2 2716   3.398   2.927   4.948
  904TIP3   OH2 2717   2.059   3.783   3.819
  904TIP3    H1 2718   2.148   3.791   3.784
  904TIP3    H2 2719   2.038   3.690   3.810
  905TIP3   OH2 2720   4.879   2.017   2.444
  905TIP3    H1 2721   4.905   2.084   2.380
  905TIP3    H2 2722   4.959   1.967   2.460
  906TIP3   OH2 2723   5.345   3.040   2.441
  906TIP3    H1 2724   5.396   3.091   2.505
  906TIP3    H2 2725   5.383   2.952   2.445
  907TIP3   OH2 2726   5.715   3.341   4.634
  907TIP3    H1 2727   5.729   3.247   4.625
  907TIP3    H2 2728   5.719   3.375   4.545
  908TIP3   OH2 2729   3.812   4.857   4.133
  908TIP3    H1 2730   3.861   4.879   4.212
  908TIP3    H2 2731   3.874   4.809   4.078
  909TIP3   OH2 2732  -0.010   4.157   1.436
  909TIP3    H1 2733   0.084   4.173   1.430
  909TIP3    H2 2734  -0.017   4.077   1.488
  910TIP3   OH2 2735   0.896   4.905   1.073
  910TIP3    H1 2736   0.974   4.850   1.062
  910TIP3    H2 2737   0.830   4.865   1.016
  911TIP3   OH2 2738   3.716   5.058   3.580
  911TIP3    H1 2739   3.628   5.080   3.609
  911TIP3    H2 2740   3.717   5.082   3.487
  912TIP3   OH2 2741   4.997   4.674   4.311
  912TIP3    H1 2742   5.055   4.670   4.235
  912TIP3    H2 2743   4.976   4.767   4.320
  913TIP3   OH2 2744   0.475   5.108   1.189
  913TIP3    H1 2745   0.457   5.086   1.098
  913TIP3    H2 2746   0.393   5.089   1.235
  914TIP3   OH2 2747   4.361   3.899   2.444
  914TIP3    H1 2748   4.417   3.974   2.424
  914TIP3    H2 2749   4.413   3.846   2.504
  915TIP3   OH2 2750   5.078   2.237   4.744
  915TIP3    H1 2751   5.006   2.281   4.699
  915TIP3    H2 2752   5.122   2.186   4.675
  916TIP3   OH2 2753   1.235   3.853   2.149
  916TIP3    H1 2754   1.225   3.924   2.086
  916TIP3    H2 2755   1.274   3.782   2.099
  917TIP3   OH2 2756   2.943   4.221   0.567
  917TIP3    H1 2757   2.999   4.291   0.602
  917TIP3    H2 2758   2.982   4.140   0.600
  918TIP3   OH2 2759   1.720   2.715   4.589
  918TIP3    H1 2760   1.673   2.739   4.669
  918TIP3    H2 2761   1.735   2.797   4.544
  919TIP3   OH2 2762   5.959   5.741   2.625
  919TIP3    H1 2763   5.900   5.686   2.676
  919TIP3    H2 2764   6.036   5.754   2.681
  920TIP3   OH2 2765   2.438   2.801   3.286
  920TIP3    H1 2766   2.482   2.733   3.233
  920TIP3    H2 2767   2.372   2.838   3.227
  921TIP3   OH2 2768   1.166   2.399   5.080
  921TIP3    H1 2769   1.152   2.423   5.172
  921TIP3    H2 2770   1.157   2.482   5.033
  922TIP3   OH2 2771   4.387   2.745   2.699
  922TIP3    H1 2772   4.424   2.829   2.725
  922TIP3    H2 2773   4.293   2.761   2.689
  923TIP3   OH2 2774   5.556   2.458   1.880
  923TIP3    H1 2775   5.514   2.511   1.812
  923TIP3    H2 2776   5.505   2.476   1.959
  924TIP3   OH2 2777   6.187   3.922   2.695
  924TIP3    H1 2778   6.223   3.837   2.718
  924TIP3    H2 2779   6.209   3.934   2.603
  925TIP3   OH2 2780   5.009   0.333   0.706
  925TIP3    H1 2781   5.002   0.381   0.788
  925TIP3    H2 2782   5.089   0.281   0.715
  926TIP3   OH2 2783   5.736   3.160   0.275
  926TIP3    H1 2784   5.793   3.237   0.265
  926TIP3    H2 2785   5.659   3.193   0.321
  927TIP3   OH2 2786   3.501   5.170   2.350
  927TIP3    H1 2787   3.501   5.249   2.403
  927TIP3    H2 2788   3.492   5.202   2.260
  928TIP3   OH2 2789   3.845   0.023   0.509
  928TIP3    H1 2790   3.777   0.084   0.484
  928TIP3    H2 2791   3.858   0.037   0.603
  929TIP3   OH2 2792   0.043   4.819   3.439
  929TIP3    H1 2793   0.130   4.851   3.416
  929TIP3    H2 2794   0.031   4.845   3.530
  930TIP3   OH2 2795   1.309   3.958   3.372
  930TIP3    H1 2796   1.339   3.930   3.458
  930TIP3    H2 2797   1.360   3.904   3.311
  931TIP3   OH2 2798   2.281   1.852   1.453
  931TIP3    H1 2799   2.328   1.790   1.398
  931TIP3    H2 2800   2.198   1.809   1.473
  932TIP3   OH2 2801   2.415   3.203   2.513
  932TIP3    H1 2802   2.364   3.213   2.432
  932TIP3    H2 2803   2.500   3.170   2.484
  933TIP3   OH2 2804   6.214   5.233   0.430
  933TIP3    H1 2805   6.161   5.200   0.357
  933TIP3    H2 2806   6.204   5.167   0.498
  934TIP3   OH2 2807   4.370   0.101   3.754
  934TIP3    H1 2808   4.424   0.130   3.828
  934TIP3    H2 2809   4.433   0.076   3.687
  935TIP3   OH2 2810   1.956   5.095   0.825
  935TIP3    H1 2811   1.956   5.180   0.869
  935TIP3    H2 2812   1.938   5.115   0.733
  936TIP3   OH2 2813   4.479   3.685   0.834
  936TIP3    H1 2814   4.505   3.661   0.923
  936TIP3    H2 2815   4.478   3.780   0.834
  937TIP3   OH2 2816   6.298   5.146   3.756
  937TIP3    H1 2817   6.294   5.177   3.665
  937TIP3    H2 2818   6.218   5.178   3.796
  938TIP3   OH2 2819   5.851   5.559   0.921
  938TIP3    H1 2820   5.887   5.638   0.881
  938TIP3    H2 2821   5.862   5.573   1.015
  939TIP3   OH2 2822   1.622   5.895   0.109
  939TIP3    H1 2823   1.533   5.868   0.132
  939TIP3    H2 2824   1.621   5.990   0.120
  940TIP3   OH2 2825   5.220   4.357   0.263
  940TIP3    H1 2826   5.210   4.432   0.322
  940TIP3    H2 2827   5.303   4.317   0.289
  941TIP3   OH2 2828   6.146   2.401   3.677
  941TIP3    H1 2829   6.095   2.331   3.719
  941TIP3    H2 2830   6.156   2.468   3.744
  942TIP3   OH2 2831   4.041   5.466   3.892
  942TIP3    H1 2832   4.007   5.410   3.822
  942TIP3    H2 2833   4.008   5.553   3.871
  943TIP3   OH2 2834   4.304   4.458   0.574
  943TIP3    H1 2835   4.352   4.409   0.507
  943TIP3    H2 2836   4.317   4.550   0.551
  944TIP3   OH2 2837   2.063   3.148   4.982
  944TIP3    H1 2838   1.987   3.106   4.941
  944TIP3    H2 2839   2.043   3.149   5.075
  945TIP3   OH2 2840   2.333   2.066   0.859
  945TIP3    H1 2841   2.334   2.153   0.898
  945TIP3    H2 2842   2.244   2.055   0.825
  946TIP3   OH2 2843   3.953   5.769   2.941
  946TIP3    H1 2844   3.920   5.691   2.896
  946TIP3    H2 2845   3.972   5.831   2.870
  947TIP3   OH2 2846   4.886   5.721   0.457
  947TIP3    H1 2847   4.948   5.782   0.417
  947TIP3    H2 2848   4.906   5.637   0.416
  948TIP3   OH2 2849   5.824   3.793   1.336
  948TIP3    H1 2850   5.889   3.860   1.359
  948TIP3    H2 2851   5.833   3.782   1.242
  949TIP3   OH2 2852   1.914   2.487   1.509
  949TIP3    H1 2853   1.893   2.578   1.533
  949TIP3    H2 2854   1.926   2.443   1.593
  950TIP3   OH2 2855   2.886   5.341   4.575
  950TIP3    H1 2856   2.868   5.247   4.564
  950TIP3    H2 2857   2.942   5.363   4.501
  951TIP3   OH2 2858   2.839   5.573   3.787
  951TIP3    H1 2859   2.860   5.512   3.857
  951TIP3    H2 2860   2.791   5.644   3.830
  952TIP3   OH2 2861   1.821   0.737   4.179
  952TIP3    H1 2862   1.843   0.688   4.258
  952TIP3    H2 2863   1.834   0.675   4.107
  953TIP3   OH2 2864   1.732   4.426   0.658
  953TIP3    H1 2865   1.678   4.499   0.627
  953TIP3    H2 2866   1.724   4.360   0.590
  954TIP3   OH2 2867   0.432   1.607   0.002
  954TIP3    H1 2868   0.414   1.685  -0.051
  954TIP3    H2 2869   0.442   1.641   0.091
  955TIP3   OH2 2870   2.916   2.971   3.218
  955TIP3    H1 2871   2.946   2.926   3.297
  955TIP3    H2 2872   2.994   3.017   3.186
  956TIP3   OH2 2873   5.714   5.307   2.530
  956TIP3    H1 2874   5.624   5.329   2.506
  956TIP3    H2 2875   5.741   5.378   2.588
  957TIP3   OH2 2876   0.066   0.032   2.036
  957TIP3    H1 2877   0.039  -0.003   2.121
  957TIP3    H2 2878   0.154   0.066   2.050
  958TIP3   OH2 2879   5.721   4.516   3.242
  958TIP3    H1 2880   5.683   4.597   3.275
  958TIP3    H2 2881   5.701   4.516   3.149
  959TIP3   OH2 2882   0.321   3.800   0.191
  959TIP3    H1 2883   0.227   3.790   0.207
  959TIP3    H2 2884   0.356   3.711   0.196
  960TIP3   OH2 2885   5.726   3.987   1.110
  960TIP3    H1 2886   5.813   4.026   1.108
  960TIP3    H2 2887   5.742   3.893   1.097
  961TIP3   OH2 2888   2.669   3.044   2.942
  961TIP3    H1 2889   2.645   2.986   2.870
  961TIP3    H2 2890   2.674   2.986   3.019
  962TIP3   OH2 2891   2.317   4.062   2.626
  962TIP3    H1 2892   2.368   4.021   2.696
  962TIP3    H2 2893   2.295   3.989   2.567
  963TIP3   OH2 2894   0.328   0.522   3.484
  963TIP3    H1 2895   0.395   0.457   3.461
  963TIP3    H2 2896   0.351   0.599   3.432
  964TIP3   OH2 2897   2.040   3.552   0.180
  964TIP3    H1 2898   2.002   3.590   0.259
  964TIP3    H2 2899   2.119   3.604   0.164
  965TIP3   OH2 2900   2.814   3.061   0.218
  965TIP3    H1 2901   2.854   2.975   0.225
  965TIP3    H2 2902   2.825   3.086   0.126
  966TIP3   OH2 2903   6.225   1.546   4.574
  966TIP3    H1 2904   6.274   1.476   4.530
  966TIP3    H2 2905   6.291   1.614   4.591
  967TIP3   OH2 2906   4.058   4.688   3.279
  967TIP3    H1 2907   4.046   4.743   3.357
  967TIP3    H2 2908   3.996   4.617   3.291
  968TIP3   OH2 2909   4.222   2.443   4.226
  968TIP3    H1 2910   4.129   2.434   4.205
  968TIP3    H2 2911   4.264   2.453   4.141
  969TIP3   OH2 2912   3.676   1.922   1.531
  969TIP3    H1 2913   3.690   1.849   1.471
  969TIP3    H2 2914   3.613   1.889   1.595
  970TIP3   OH2 2915   0.893   0.675   4.250
  970TIP3    H1 2916   0.879   0.734   4.324
  970TIP3    H2 2917   0.820   0.614   4.254
  971TIP3   OH2 2918   3.708   3.019   3.780
  971TIP3    H1 2919   3.689   2.946   3.721
  971TIP3    H2 2920   3.803   3.031   3.772
  972TIP3   OH2 2921   5.524   3.791   1.824
  972TIP3    H1 2922   5.617   3.805   1.808
  972TIP3    H2 2923   5.488   3.879   1.837
  973TIP3   OH2 2924   4.373   2.795   4.704
  973TIP3    H1 2925   4.468   2.788   4.696
  973TIP3    H2 2926   4.343   2.705   4.717
  974TIP3   OH2 2927   4.029   0.257   2.067
  974TIP3    H1 2928   4.044   0.286   1.977
  974TIP3    H2 2929   3.948   0.301   2.094
  975TIP3   OH2 2930   3.907   0.302   2.783
  975TIP3    H1 2931   3.936   0.333   2.869
  975TIP3    H2 2932   3.946   0.214   2.776
  976TIP3   OH2 2933   4.610   0.752   3.692
  976TIP3    H1 2934   4.631   0.813   3.762
  976TIP3    H2 2935   4.523   0.718   3.714
  977TIP3   OH2 2936   0.968   4.382   1.142
  977TIP3    H1 2937   0.947   4.297   1.180
  977TIP3    H2 2938   0.975   4.442   1.217
  978TIP3   OH2 2939   5.414   2.368   4.005
  978TIP3    H1 2940   5.466   2.308   4.058
  978TIP3    H2 2941   5.474   2.439   3.982
  979TIP3   OH2 2942   0.720   3.752   2.076
  979TIP3    H1 2943   0.707   3.658   2.064
  979TIP3    H2 2944   0.632   3.789   2.069
  980TIP3   OH2 2945   6.024   5.411   0.736
  980TIP3    H1 2946   5.950   5.461   0.773
  980TIP3    H2 2947   6.065   5.472   0.675
  981TIP3   OH2 2948  -0.011   1.980   3.845
  981TIP3    H1 2949   0.017   2.047   3.783
  981TIP3    H2 2950   0.059   1.916   3.845
  982TIP3   OH2 2951   1.297   3.782   3.816
  982TIP3    H1 2952   1.349   3.862   3.806
  982TIP3    H2 2953   1.213   3.812   3.850
  983TIP3   OH2 2954   1.679   4.862   0.125
  983TIP3    H1 2955   1.589   4.881   0.152
  983TIP3    H2 2956   1.720   4.822   0.202
  984TIP3   OH2 2957   0.758   2.799   4.306
  984TIP3    H1 2958   0.679   2.755   4.277
  984TIP3    H2 2959   0.740   2.893   4.294
  985TIP3   OH2 2960   0.592   3.082   3.203
  985TIP3    H1 2961   0.677   3.084   3.159
  985TIP3    H2 2962   0.533   3.040   3.140
  986TIP3   OH2 2963   5.761   1.785   3.145
  986TIP3    H1 2964   5.780   1.854   3.081
  986TIP3    H2 2965   5.696   1.824   3.203
  987TIP3   OH2 2966   2.261   5.435   0.714
  987TIP3    H1 2967   2.188   5.476   0.667
  987TIP3    H2 2968   2.261   5.344   0.682
  988TIP3   OH2 2969   4.996   3.724   2.875
  988TIP3    H1 2970   5.035   3.759   2.795
  988TIP3    H2 2971   5.070   3.688   2.923
  989TIP3   OH2 2972   4.349   5.312   4.786
  989TIP3    H1 2973   4.326   5.325   4.878
  989TIP3    H2 2974   4.444   5.302   4.786
  990TIP3   OH2 2975   5.173   2.719   3.821
  990TIP3    H1 2976   5.262   2.737   3.791
  990TIP3    H2 2977   5.144   2.645   3.767
  991TIP3   OH2 2978   1.462   2.099   3.556
  991TIP3    H1 2979   1.526   2.151   3.507
  991TIP3    H2 2980   1.508   2.020   3.580
  992TIP3   OH2 2981   5.454   4.399   4.554
  992TIP3    H1 2982   5.513   4.327   4.576
  992TIP3    H2 2983   5.395   4.405   4.628
  993TIP3   OH2 2984   5.750   0.544   0.901
  993TIP3    H1 2985   5.745   0.594   0.820
  993TIP3    H2 2986   5.660   0.521   0.922
  994TIP3   OH2 2987   5.037   3.248   1.929
  994TIP3    H1 2988   4.960   3.243   1.984
  994TIP3    H2 2989   5.108   3.214   1.983
  995TIP3   OH2 2990   5.494   3.947   2.667
  995TIP3    H1 2991   5.401   3.926   2.657
  995TIP3    H2 2992   5.509   4.018   2.605
  996TIP3   OH2 2993   3.317   5.814   1.222
  996TIP3    H1 2994   3.405   5.801   1.188
  996TIP3    H2 2995   3.320   5.899   1.266
  997TIP3   OH2 2996   2.273   4.995   0.947
  997TIP3    H1 2997   2.249   4.923   1.005
  997TIP3    H2 2998   2.356   4.968   0.908
  998TIP3   OH2 2999   1.630   0.342   3.702
  998TIP3    H1 3000   1.614   0.356   3.795
  998TIP3    H2 3001   1.702   0.280   3.698
  999TIP3   OH2 3002   0.846   3.600   1.132
  999TIP3    H1 3003   0.937   3.630   1.130
  999TIP3    H2 3004   0.828   3.572   1.043
 1000TIP3   OH2 3005   5.549   2.804   0.505
 1000TIP3    H1 3006   5.604   2.726   0.499
 1000TIP3    H2 3007   5.543   2.822   0.599
 1001TIP3   OH2 3008   3.002   1.704   1.469
 1001TIP3    H1 3009   3.011   1.748   1.384
 1001TIP3    H2 3010   2.991   1.612   1.447
 1002TIP3   OH2 3011   2.034   1.230   4.302
 1002TIP3    H1 3012   2.118   1.204   4.340
 1002TIP3    H2 3013   1.986   1.148   4.291
 1003TIP3   OH2 3014   1.836   0.766   0.656
 1003TIP3    H1 3015   1.844   0.671   0.669
 1003TIP3    H2 3016   1.840   0.802   0.745
 1004TIP3   OH2 3017   4.645   5.274   4.828
 1004TIP3    H1 3018   4.660   5.346   4.888
 1004TIP3    H2 3019   4.663   5.310   4.741
 1005TIP3   OH2 3020   1.647   4.714   4.565
 1005TIP3    H1 3021   1.717   4.659   4.599
 1005TIP3    H2 3022   1.692   4.776   4.507
 1006TIP3   OH2 3023   0.578   2.848   4.918
 1006TIP3    H1 3024   0.579   2.898   4.836
 1006TIP3    H2 3025   0.539   2.908   4.982
 1007TIP3   OH2 3026   3.544   0.080   0.487
 1007TIP3    H1 3027   3.605   0.039   0.548
 1007TIP3    H2 3028   3.467   0.101   0.541
 1008TIP3   OH2 3029   5.666   4.320   2.616
 1008TIP3    H1 3030   5.737   4.329   2.552
 1008TIP3    H2 3031   5.698   4.366   2.694
 1009TIP3   OH2 3032   2.903   5.991   2.200
 1009TIP3    H1 3033   2.962   5.949   2.137
 1009TIP3    H2 3034   2.961   6.032   2.263
 1010TIP3   OH2 3035   4.418   4.849   2.232
 1010TIP3    H1 3036   4.481   4.785   2.264
 1010TIP3    H2 3037   4.471   4.915   2.187
 1011TIP3   OH2 3038   3.888   5.164   4.513
 1011TIP3    H1 3039   3.972   5.150   4.558
 1011TIP3    H2 3040   3.899   5.248   4.468
 1012TIP3   OH2 3041   0.544   3.801   2.387
 1012TIP3    H1 3042   0.527   3.746   2.310
 1012TIP3    H2 3043   0.640   3.801   2.395
 1013TIP3   OH2 3044   2.144   4.411   4.463
 1013TIP3    H1 3045   2.104   4.328   4.491
 1013TIP3    H2 3046   2.236   4.402   4.487
 1014TIP3   OH2 3047   4.651   0.896   3.904
 1014TIP3    H1 3048   4.659   0.989   3.882
 1014TIP3    H2 3049   4.606   0.895   3.988
 1015TIP3   OH2 3050   3.451   2.807   0.030
 1015TIP3    H1 3051   3.543   2.793   0.010
 1015TIP3    H2 3052   3.420   2.723   0.062
 1016TIP3   OH2 3053   6.293   0.210   3.712
 1016TIP3    H1 3054   6.318   0.292   3.668
 1016TIP3    H2 3055   6.238   0.239   3.786
 1017TIP3   OH2 3056   2.842   4.303   1.470
 1017TIP3    H1 3057   2.850   4.393   1.441
 1017TIP3    H2 3058   2.920   4.259   1.434
 1018TIP3   OH2 3059   0.452   4.777   4.565
 1018TIP3    H1 3060   0.402   4.806   4.641
 1018TIP3    H2 3061   0.479   4.858   4.522
 1019TIP3   OH2 3062   3.724   2.693   0.010
 1019TIP3    H1 3063   3.733   2.601  -0.015
 1019TIP3    H2 3064   3.733   2.692   0.106
 1020TIP3   OH2 3065   3.211   4.415   2.745
 1020TIP3    H1 3066   3.276   4.463   2.693
 1020TIP3    H2 3067   3.228   4.442   2.835
 1021TIP3   OH2 3068   5.435   5.719   0.057
 1021TIP3    H1 3069   5.416   5.773  -0.020
 1021TIP3    H2 3070   5.517   5.754   0.091
 1022TIP3   OH2 3071   6.196   2.909   0.793
 1022TIP3    H1 3072   6.178   2.896   0.886
 1022TIP3    H2 3073   6.286   2.939   0.789
 1023TIP3   OH2 3074   1.180   1.587   4.518
 1023TIP3    H1 3075   1.221   1.592   4.604
 1023TIP3    H2 3076   1.207   1.667   4.474
 1024TIP3   OH2 3077   0.336   4.859   3.284
 1024TIP3    H1 3078   0.264   4.880   3.226
 1024TIP3    H2 3079   0.385   4.791   3.238
 1025TIP3   OH2 3080   3.571   1.520   1.556
 1025TIP3    H1 3081   3.642   1.509   1.619
 1025TIP3    H2 3082   3.597   1.597   1.504
 1026TIP3   OH2 3083   2.533   5.727   2.172
 1026TIP3    H1 3084   2.464   5.794   2.172
 1026TIP3    H2 3085   2.561   5.721   2.081
 1027TIP3   OH2 3086   6.293   3.522   4.240
 1027TIP3    H1 3087   6.278   3.445   4.294
 1027TIP3    H2 3088   6.321   3.487   4.155
 1028TIP3   OH2 3089   2.541   3.196   0.518
 1028TIP3    H1 3090   2.484   3.138   0.569
 1028TIP3    H2 3091   2.573   3.260   0.582
 1029TIP3   OH2 3092   0.342   5.893   2.318
 1029TIP3    H1 3093   0.408   5.917   2.384
 1029TIP3    H2 3094   0.383   5.824   2.267
 1030TIP3   OH2 3095   1.693   5.382   4.821
 1030TIP3    H1 3096   1.713   5.382   4.727
 1030TIP3    H2 3097   1.651   5.298   4.836
 1031TIP3   OH2 3098   5.246   3.380   1.011
 1031TIP3    H1 3099   5.311   3.360   1.078
 1031TIP3    H2 3100   5.168   3.332   1.037
 1032TIP3   OH2 3101   4.864   1.764   2.967
 1032TIP3    H1 3102   4.959   1.759   2.970
 1032TIP3    H2 3103   4.846   1.854   2.940
 1033TIP3   OH2 3104   2.237   4.680   3.405
 1033TIP3    H1 3105   2.167   4.667   3.342
 1033TIP3    H2 3106   2.213   4.760   3.452
 1034TIP3   OH2 3107   5.949   0.602   2.463
 1034TIP3    H1 3108   6.008   0.663   2.419
 1034TIP3    H2 3109   6.003   0.562   2.532
 1035TIP3   OH2 3110   0.905   4.848   2.173
 1035TIP3    H1 3111   0.864   4.928   2.205
 1035TIP3    H2 3112   0.836   4.803   2.124
 1036TIP3   OH2 3113   1.307   3.873   4.667
 1036TIP3    H1 3114   1.269   3.827   4.592
 1036TIP3    H2 3115   1.401   3.877   4.648
 1037TIP3   OH2 3116   0.953   5.191   0.992
 1037TIP3    H1 3117   0.924   5.100   0.989
 1037TIP3    H2 3118   0.956   5.218   0.900
 1038TIP3   OH2 3119   2.601   5.647   0.591
 1038TIP3    H1 3120   2.522   5.655   0.644
 1038TIP3    H2 3121   2.571   5.610   0.508
 1039TIP3   OH2 3122   1.782   4.470   3.128
 1039TIP3    H1 3123   1.719   4.405   3.097
 1039TIP3    H2 3124   1.816   4.433   3.209
 1040TIP3   OH2 3125   3.252   2.983   1.835
 1040TIP3    H1 3126   3.195   3.037   1.781
 1040TIP3    H2 3127   3.238   2.894   1.804
 1041TIP3   OH2 3128   4.406   1.686   2.769
 1041TIP3    H1 3129   4.319   1.685   2.729
 1041TIP3    H2 3130   4.418   1.776   2.798
 1042TIP3   OH2 3131   1.165   1.418   0.095
 1042TIP3    H1 3132   1.194   1.346   0.152
 1042TIP3    H2 3133   1.206   1.496   0.133
 1043TIP3   OH2 3134   6.086   1.806   2.666
 1043TIP3    H1 3135   6.007   1.831   2.714
 1043TIP3    H2 3136   6.153   1.867   2.698
 1044TIP3   OH2 3137   5.147   0.274   5.095
 1044TIP3    H1 3138   5.224   0.224   5.067
 1044TIP3    H2 3139   5.129   0.241   5.183
 1045TIP3   OH2 3140   2.959   0.061   2.573
 1045TIP3    H1 3141   2.889   0.080   2.636
 1045TIP3    H2 3142   2.982   0.146   2.536
 1046TIP3   OH2 3143   2.104   2.238   2.050
 1046TIP3    H1 3144   2.060   2.184   2.115
 1046TIP3    H2 3145   2.074   2.327   2.069
 1047TIP3   OH2 3146   3.922   2.048   1.433
 1047TIP3    H1 3147   3.849   2.000   1.471
 1047TIP3    H2 3148   3.999   1.997   1.457
 1048TIP3   OH2 3149   3.637   4.959   2.737
 1048TIP3    H1 3150   3.707   4.945   2.800
 1048TIP3    H2 3151   3.622   4.873   2.698
 1049TIP3   OH2 3152   1.612   4.947   2.020
 1049TIP3    H1 3153   1.620   4.982   2.108
 1049TIP3    H2 3154   1.531   4.896   2.021
 1050TIP3   OH2 3155   3.701   3.471   3.030
 1050TIP3    H1 3156   3.769   3.485   3.096
 1050TIP3    H2 3157   3.749   3.452   2.950
 1051TIP3   OH2 3158   0.258   2.242   3.384
 1051TIP3    H1 3159   0.279   2.150   3.397
 1051TIP3    H2 3160   0.250   2.252   3.289
 1052TIP3   OH2 3161   3.453   0.294   4.288
 1052TIP3    H1 3162   3.526   0.317   4.231
 1052TIP3    H2 3163   3.485   0.219   4.339
 1053TIP3   OH2 3164   2.309   1.000   2.145
 1053TIP3    H1 3165   2.235   1.035   2.193
 1053TIP3    H2 3166   2.386   1.030   2.194
 1054TIP3   OH2 3167   3.657   2.672   2.704
 1054TIP3    H1 3168   3.743   2.708   2.726
 1054TIP3    H2 3169   3.633   2.619   2.780
 1055TIP3   OH2 3170   5.052   3.902   2.352
 1055TIP3    H1 3171   5.068   3.830   2.291
 1055TIP3    H2 3172   5.138   3.936   2.373
 1056TIP3   OH2 3173   2.310   4.377   1.225
 1056TIP3    H1 3174   2.378   4.436   1.258
 1056TIP3    H2 3175   2.358   4.299   1.196
 1057TIP3   OH2 3176   4.093   1.015   2.834
 1057TIP3    H1 3177   4.072   1.079   2.902
 1057TIP3    H2 3178   4.010   0.969   2.819
 1058TIP3   OH2 3179   2.893   3.247   1.073
 1058TIP3    H1 3180   2.811   3.202   1.055
 1058TIP3    H2 3181   2.959   3.195   1.026
 1059TIP3   OH2 3182   5.051   3.496   4.650
 1059TIP3    H1 3183   4.966   3.477   4.690
 1059TIP3    H2 3184   5.111   3.431   4.687
 1060TIP3   OH2 3185   4.453   4.357   4.824
 1060TIP3    H1 3186   4.385   4.350   4.758
 1060TIP3    H2 3187   4.493   4.271   4.827
 1061TIP3   OH2 3188   0.326   3.988   4.387
 1061TIP3    H1 3189   0.291   4.036   4.463
 1061TIP3    H2 3190   0.275   4.020   4.313
 1062TIP3   OH2 3191   4.934   4.463   3.614
 1062TIP3    H1 3192   4.894   4.483   3.529
 1062TIP3    H2 3193   4.963   4.372   3.607
 1063TIP3   OH2 3194   2.765   1.054   2.333
 1063TIP3    H1 3195   2.676   1.087   2.340
 1063TIP3    H2 3196   2.809   1.085   2.412
 1064TIP3   OH2 3197   0.397   3.213   1.676
 1064TIP3    H1 3198   0.465   3.227   1.742
 1064TIP3    H2 3199   0.316   3.234   1.721
 1065TIP3   OH2 3200   5.480   2.075   2.934
 1065TIP3    H1 3201   5.425   2.014   2.982
 1065TIP3    H2 3202   5.444   2.077   2.846
 1066TIP3   OH2 3203   2.266   2.595   4.470
 1066TIP3    H1 3204   2.179   2.621   4.439
 1066TIP3    H2 3205   2.268   2.500   4.458
 1067TIP3   OH2 3206   5.234   5.945   4.791
 1067TIP3    H1 3207   5.317   5.911   4.756
 1067TIP3    H2 3208   5.202   5.875   4.849
 1068TIP3   OH2 3209   2.095   2.933   0.127
 1068TIP3    H1 3210   2.160   2.990   0.168
 1068TIP3    H2 3211   2.084   2.969   0.039
 1069TIP3   OH2 3212   5.897   2.132   2.481
 1069TIP3    H1 3213   5.840   2.167   2.550
 1069TIP3    H2 3214   5.845   2.140   2.401
 1070TIP3   OH2 3215   2.725   4.077   1.322
 1070TIP3    H1 3216   2.686   4.136   1.258
 1070TIP3    H2 3217   2.774   4.134   1.380
 1071TIP3   OH2 3218   4.284   0.182   1.177
 1071TIP3    H1 3219   4.357   0.131   1.210
 1071TIP3    H2 3220   4.265   0.144   1.091
 1072TIP3   OH2 3221   0.686   1.537   0.881
 1072TIP3    H1 3222   0.647   1.621   0.856
 1072TIP3    H2 3223   0.653   1.475   0.816
 1073TIP3   OH2 3224   2.057   2.122   3.536
 1073TIP3    H1 3225   2.050   2.141   3.629
 1073TIP3    H2 3226   1.999   2.186   3.494
 1074TIP3   OH2 3227   1.575   0.297   4.908
 1074TIP3    H1 3228   1.579   0.301   5.003
 1074TIP3    H2 3229   1.481   0.295   4.888
 1075TIP3   OH2 3230   6.061   1.025   4.261
 1075TIP3    H1 3231   6.146   1.063   4.240
 1075TIP3    H2 3232   6.073   0.987   4.348
 1076TIP3   OH2 3233   1.688   0.117   1.106
 1076TIP3    H1 3234   1.754   0.081   1.164
 1076TIP3    H2 3235   1.621   0.152   1.165
 1077TIP3   OH2 3236   5.069   2.588   2.975
 1077TIP3    H1 3237   4.999   2.539   2.932
 1077TIP3    H2 3238   5.024   2.658   3.022
 1078TIP3   OH2 3239   3.580   1.910   3.570
 1078TIP3    H1 3240   3.501   1.877   3.612
 1078TIP3    H2 3241   3.549   1.949   3.488
 1079TIP3   OH2 3242   0.737   0.847   2.174
 1079TIP3    H1 3243   0.828   0.873   2.187
 1079TIP3    H2 3244   0.731   0.825   2.081
 1080TIP3   OH2 3245   5.135   5.560   4.322
 1080TIP3    H1 3246   5.184   5.622   4.376
 1080TIP3    H2 3247   5.071   5.614   4.276
 1081TIP3   OH2 3248   3.888   5.013   3.788
 1081TIP3    H1 3249   3.890   4.921   3.816
 1081TIP3    H2 3250   3.820   5.016   3.720
 1082TIP3   OH2 3251   3.466   0.221   2.183
 1082TIP3    H1 3252   3.502   0.220   2.272
 1082TIP3    H2 3253   3.484   0.133   2.150
 1083TIP3   OH2 3254   0.427   4.026   0.107
 1083TIP3    H1 3255   0.381   3.943   0.117
 1083TIP3    H2 3256   0.391   4.063   0.026
 1084TIP3   OH2 3257   5.970   4.245   1.127
 1084TIP3    H1 3258   6.005   4.160   1.099
 1084TIP3    H2 3259   5.979   4.244   1.222
 1085TIP3   OH2 3260   3.835   0.642   0.328
 1085TIP3    H1 3261   3.821   0.734   0.306
 1085TIP3    H2 3262   3.924   0.638   0.362
 1086TIP3   OH2 3263   1.403   2.218   1.228
 1086TIP3    H1 3264   1.380   2.230   1.320
 1086TIP3    H2 3265   1.353   2.285   1.181
 1087TIP3   OH2 3266   2.116   1.260   3.141
 1087TIP3    H1 3267   2.179   1.216   3.200
 1087TIP3    H2 3268   2.097   1.194   3.074
 1088TIP3   OH2 3269   0.708   4.821   1.952
 1088TIP3    H1 3270   0.629   4.789   1.909
 1088TIP3    H2 3271   0.695   4.915   1.960
 1089TIP3   OH2 3272   4.190   2.033   1.144
 1089TIP3    H1 3273   4.149   1.949   1.126
 1089TIP3    H2 3274   4.122   2.085   1.185
 1090TIP3   OH2 3275   5.903   5.734   1.105
 1090TIP3    H1 3276   5.861   5.805   1.056
 1090TIP3    H2 3277   5.854   5.729   1.187
 1091TIP3   OH2 3278   1.301   1.043   0.719
 1091TIP3    H1 3279   1.358   1.091   0.660
 1091TIP3    H2 3280   1.351   1.034   0.800
 1092TIP3   OH2 3281   5.806   2.200   0.652
 1092TIP3    H1 3282   5.779   2.266   0.588
 1092TIP3    H2 3283   5.812   2.119   0.601
 1093TIP3   OH2 3284   3.313   1.524   0.523
 1093TIP3    H1 3285   3.300   1.440   0.477
 1093TIP3    H2 3286   3.346   1.499   0.610
 1094TIP3   OH2 3287   0.389   4.226   2.562
 1094TIP3    H1 3288   0.421   4.149   2.515
 1094TIP3    H2 3289   0.442   4.298   2.529
 1095TIP3   OH2 3290   2.914   4.251   0.304
 1095TIP3    H1 3291   2.934   4.224   0.394
 1095TIP3    H2 3292   2.944   4.342   0.300
 1096TIP3   OH2 3293   5.952   3.830   0.480
 1096TIP3    H1 3294   6.011   3.759   0.506
 1096TIP3    H2 3295   5.886   3.787   0.424
 1097TIP3   OH2 3296   1.459  -0.037   2.280
 1097TIP3    H1 3297   1.541  -0.029   2.327
 1097TIP3    H2 3298   1.484  -0.061   2.191
 1098TIP3   OH2 3299   4.065   0.274   1.804
 1098TIP3    H1 3300   4.042   0.360   1.768
 1098TIP3    H2 3301   4.073   0.217   1.727
 1099TIP3   OH2 3302   2.417   0.115   1.006
 1099TIP3    H1 3303   2.390   0.059   1.078
 1099TIP3    H2 3304   2.351   0.184   1.003
 1100TIP3   OH2 3305   2.163   5.602   3.496
 1100TIP3    H1 3306   2.217   5.567   3.425
 1100TIP3    H2 3307   2.073   5.585   3.469
 1101TIP3   OH2 3308   1.393   1.428   4.263
 1101TIP3    H1 3309   1.396   1.334   4.248
 1101TIP3    H2 3310   1.471   1.446   4.317
 1102TIP3   OH2 3311   3.633   2.989   4.580
 1102TIP3    H1 3312   3.646   2.997   4.486
 1102TIP3    H2 3313   3.539   3.007   4.593
 1103TIP3   OH2 3314   6.099   0.031   3.608
 1103TIP3    H1 3315   6.107  -0.037   3.676
 1103TIP3    H2 3316   6.149   0.105   3.641
 1104TIP3   OH2 3317   3.504   0.173   2.503
 1104TIP3    H1 3318   3.478   0.260   2.533
 1104TIP3    H2 3319   3.588   0.158   2.546
 1105TIP3   OH2 3320   2.908   4.862   1.818
 1105TIP3    H1 3321   2.961   4.783   1.826
 1105TIP3    H2 3322   2.907   4.899   1.907
 1106TIP3   OH2 3323   2.669   3.296   4.823
 1106TIP3    H1 3324   2.757   3.325   4.800
 1106TIP3    H2 3325   2.622   3.290   4.740
 1107TIP3   OH2 3326   4.940   2.969   0.453
 1107TIP3    H1 3327   4.991   2.962   0.534
 1107TIP3    H2 3328   5.001   2.941   0.384
 1108TIP3   OH2 3329   4.129   3.775   0.866
 1108TIP3    H1 3330   4.090   3.710   0.925
 1108TIP3    H2 3331   4.213   3.735   0.840
 1109TIP3   OH2 3332   4.056   2.014   4.715
 1109TIP3    H1 3333   4.087   2.098   4.749
 1109TIP3    H2 3334   3.963   2.028   4.696
 1110TIP3   OH2 3335   0.405   4.286  -0.069
 1110TIP3    H1 3336   0.460   4.360  -0.042
 1110TIP3    H2 3337   0.327   4.292  -0.014
 1111TIP3   OH2 3338   3.279   1.040   0.421
 1111TIP3    H1 3339   3.191   1.017   0.392
 1111TIP3    H2 3340   3.317   1.088   0.347
 1112TIP3   OH2 3341   1.026   5.766   2.761
 1112TIP3    H1 3342   0.955   5.773   2.826
 1112TIP3    H2 3343   1.056   5.675   2.768
 1113TIP3   OH2 3344   5.061   4.097   2.029
 1113TIP3    H1 3345   4.985   4.042   2.047
 1113TIP3    H2 3346   5.028   4.163   1.968
 1114TIP3   OH2 3347   5.477   4.464   1.263
 1114TIP3    H1 3348   5.400   4.409   1.249
 1114TIP3    H2 3349   5.549   4.402   1.277
 1115TIP3   OH2 3350  -0.016   0.751   1.143
 1115TIP3    H1 3351  -0.005   0.736   1.049
 1115TIP3    H2 3352   0.067   0.788   1.172
 1116TIP3   OH2 3353   2.325   2.071   2.422
 1116TIP3    H1 3354   2.294   1.987   2.388
 1116TIP3    H2 3355   2.413   2.081   2.384
 1117TIP3   OH2 3356   4.391   3.876   1.774
 1117TIP3    H1 3357   4.310   3.825   1.783
 1117TIP3    H2 3358   4.458   3.822   1.814
 1118TIP3   OH2 3359   2.308   4.411   4.109
 1118TIP3    H1 3360   2.371   4.368   4.168
 1118TIP3    H2 3361   2.255   4.339   4.075
 1119TIP3   OH2 3362   3.025   4.496   0.379
 1119TIP3    H1 3363   3.085   4.532   0.445
 1119TIP3    H2 3364   2.941   4.538   0.398
 1120TIP3   OH2 3365   4.543   4.810   0.539
 1120TIP3    H1 3366   4.630   4.770   0.536
 1120TIP3    H2 3367   4.490   4.757   0.479
 1121TIP3   OH2 3368   3.110   1.291   3.157
 1121TIP3    H1 3369   3.195   1.333   3.168
 1121TIP3    H2 3370   3.087   1.260   3.245
 1122TIP3   OH2 3371   1.369   0.820   3.789
 1122TIP3    H1 3372   1.402   0.752   3.847
 1122TIP3    H2 3373   1.430   0.821   3.716
 1123TIP3   OH2 3374   0.616   0.665   4.851
 1123TIP3    H1 3375   0.637   0.638   4.761
 1123TIP3    H2 3376   0.532   0.624   4.869
 1124TIP3   OH2 3377   3.554   5.523   3.693
 1124TIP3    H1 3378   3.514   5.437   3.682
 1124TIP3    H2 3379   3.495   5.570   3.752
 1125TIP3   OH2 3380   3.172   5.718   4.486
 1125TIP3    H1 3381   3.227   5.793   4.462
 1125TIP3    H2 3382   3.234   5.650   4.512
 1126TIP3   OH2 3383   4.687   1.004   3.216
 1126TIP3    H1 3384   4.650   0.940   3.155
 1126TIP3    H2 3385   4.718   0.952   3.290
 1127TIP3   OH2 3386   6.172   5.619   3.387
 1127TIP3    H1 3387   6.096   5.676   3.396
 1127TIP3    H2 3388   6.238   5.673   3.343
 1128TIP3   OH2 3389   6.288   4.505   4.937
 1128TIP3    H1 3390   6.231   4.431   4.954
 1128TIP3    H2 3391   6.230   4.572   4.900
 1129TIP3   OH2 3392   5.183   5.248   3.134
 1129TIP3    H1 3393   5.272   5.269   3.161
 1129TIP3    H2 3394   5.191   5.225   3.041
 1130TIP3   OH2 3395   6.091   5.575   4.859
 1130TIP3    H1 3396   6.048   5.587   4.774
 1130TIP3    H2 3397   6.156   5.507   4.843
 1131TIP3   OH2 3398   0.110   0.380   3.584
 1131TIP3    H1 3399   0.038   0.399   3.525
 1131TIP3    H2 3400   0.180   0.439   3.556
 1132TIP3   OH2 3401   1.642   4.150   4.727
 1132TIP3    H1 3402   1.732   4.125   4.746
 1132TIP3    H2 3403   1.595   4.133   4.809
 1133TIP3   OH2 3404   5.230   0.647   3.163
 1133TIP3    H1 3405   5.323   0.668   3.153
 1133TIP3    H2 3406   5.186   0.732   3.165
 1134TIP3   OH2 3407   0.404   3.238   1.237
 1134TIP3    H1 3408   0.490   3.233   1.195
 1134TIP3    H2 3409   0.416   3.298   1.311
 1135TIP3   OH2 3410   4.352   3.262   1.571
 1135TIP3    H1 3411   4.294   3.314   1.516
 1135TIP3    H2 3412   4.425   3.320   1.593
 1136TIP3   OH2 3413   6.063   3.815   1.936
 1136TIP3    H1 3414   6.029   3.904   1.946
 1136TIP3    H2 3415   6.112   3.818   1.853
 1137TIP3   OH2 3416   5.813   4.593   1.387
 1137TIP3    H1 3417   5.851   4.619   1.471
 1137TIP3    H2 3418   5.792   4.500   1.398
 1138TIP3   OH2 3419   0.676   4.222   2.738
 1138TIP3    H1 3420   0.680   4.276   2.660
 1138TIP3    H2 3421   0.645   4.281   2.807
 1139TIP3   OH2 3422   1.795   1.329   0.435
 1139TIP3    H1 3423   1.817   1.260   0.497
 1139TIP3    H2 3424   1.758   1.283   0.360
 1140TIP3   OH2 3425   0.286   4.671   4.241
 1140TIP3    H1 3426   0.347   4.678   4.167
 1140TIP3    H2 3427   0.200   4.687   4.202
 1141TIP3   OH2 3428   1.664   2.354   1.181
 1141TIP3    H1 3429   1.679   2.289   1.250
 1141TIP3    H2 3430   1.582   2.397   1.207
 1142TIP3   OH2 3431   0.134   5.140   0.310
 1142TIP3    H1 3432   0.054   5.186   0.331
 1142TIP3    H2 3433   0.111   5.047   0.318
 1143TIP3   OH2 3434   3.580  -0.031   1.421
 1143TIP3    H1 3435   3.619   0.052   1.449
 1143TIP3    H2 3436   3.632  -0.098   1.466
 1144TIP3   OH2 3437   2.098   3.142   4.044
 1144TIP3    H1 3438   2.076   3.095   3.963
 1144TIP3    H2 3439   2.017   3.183   4.072
 1145TIP3   OH2 3440   0.722   1.070   4.882
 1145TIP3    H1 3441   0.748   1.051   4.792
 1145TIP3    H2 3442   0.677   1.154   4.877
 1146TIP3   OH2 3443   0.697   5.812   2.768
 1146TIP3    H1 3444   0.712   5.787   2.859
 1146TIP3    H2 3445   0.689   5.907   2.771
 1147TIP3   OH2 3446   0.886   3.465   3.028
 1147TIP3    H1 3447   0.938   3.400   3.076
 1147TIP3    H2 3448   0.802   3.421   3.013
 1148TIP3   OH2 3449   2.586   0.997   0.452
 1148TIP3    H1 3450   2.515   1.036   0.503
 1148TIP3    H2 3451   2.605   0.915   0.497
 1149TIP3   OH2 3452   3.740   3.571   3.709
 1149TIP3    H1 3453   3.812   3.515   3.680
 1149TIP3    H2 3454   3.681   3.512   3.755
 1150TIP3   OH2 3455   5.897   2.530   3.963
 1150TIP3    H1 3456   5.933   2.502   4.047
 1150TIP3    H2 3457   5.964   2.506   3.899
 1151TIP3   OH2 3458   0.892   3.005   0.134
 1151TIP3    H1 3459   0.911   2.923   0.179
 1151TIP3    H2 3460   0.806   3.031   0.168
 1152TIP3   OH2 3461   1.369   2.671   4.723
 1152TIP3    H1 3462   1.402   2.582   4.736
 1152TIP3    H2 3463   1.344   2.674   4.631
 1153TIP3   OH2 3464   3.156   1.068   5.144
 1153TIP3    H1 3465   3.142   1.134   5.076
 1153TIP3    H2 3466   3.150   0.984   5.099
 1154TIP3   OH2 3467   4.045   3.639   3.592
 1154TIP3    H1 3468   4.087   3.569   3.542
 1154TIP3    H2 3469   4.036   3.602   3.680
 1155TIP3   OH2 3470   1.172   3.342   3.558
 1155TIP3    H1 3471   1.194   3.350   3.465
 1155TIP3    H2 3472   1.169   3.248   3.574
 1156TIP3   OH2 3473   3.420   1.339   1.972
 1156TIP3    H1 3474   3.387   1.425   1.945
 1156TIP3    H2 3475   3.471   1.357   2.051
 1157TIP3   OH2 3476   0.492   2.135   4.236
 1157TIP3    H1 3477   0.582   2.168   4.229
 1157TIP3    H2 3478   0.485   2.104   4.326
 1158TIP3   OH2 3479   5.512   3.410   0.148
 1158TIP3    H1 3480   5.608   3.420   0.149
 1158TIP3    H2 3481   5.497   3.340   0.085
 1159TIP3   OH2 3482   5.652   1.711   4.988
 1159TIP3    H1 3483   5.661   1.755   4.903
 1159TIP3    H2 3484   5.558   1.699   5.000
 1160TIP3   OH2 3485   3.426   0.378   2.740
 1160TIP3    H1 3486   3.337   0.345   2.754
 1160TIP3    H2 3487   3.480   0.326   2.800
 1161TIP3   OH2 3488   3.028   0.874   0.572
 1161TIP3    H1 3489   3.025   0.890   0.478
 1161TIP3    H2 3490   3.090   0.802   0.582
 1162TIP3   OH2 3491   3.792   5.515   2.546
 1162TIP3    H1 3492   3.753   5.438   2.506
 1162TIP3    H2 3493   3.873   5.530   2.496
 1163TIP3   OH2 3494   1.782   3.331   4.766
 1163TIP3    H1 3495   1.752   3.369   4.849
 1163TIP3    H2 3496   1.853   3.389   4.738
 1164TIP3   OH2 3497   4.471   0.069   0.130
 1164TIP3    H1 3498   4.384   0.104   0.114
 1164TIP3    H2 3499   4.455  -0.023   0.154
 1165TIP3   OH2 3500   3.736   1.853   4.115
 1165TIP3    H1 3501   3.716   1.764   4.141
 1165TIP3    H2 3502   3.674   1.873   4.045
 1166TIP3   OH2 3503   3.045   1.648   2.408
 1166TIP3    H1 3504   3.073   1.739   2.420
 1166TIP3    H2 3505   3.117   1.596   2.441
 1167TIP3   OH2 3506   4.201   3.073   1.083
 1167TIP3    H1 3507   4.137   3.105   1.146
 1167TIP3    H2 3508   4.266   3.026   1.136
 1168TIP3   OH2 3509   4.529   1.632   0.660
 1168TIP3    H1 3510   4.559   1.569   0.726
 1168TIP3    H2 3511   4.609   1.657   0.614
 1169TIP3   OH2 3512   6.177   5.654   1.924
 1169TIP3    H1 3513   6.160   5.733   1.975
 1169TIP3    H2 3514   6.108   5.593   1.951
 1170TIP3   OH2 3515   1.316   5.751   1.149
 1170TIP3    H1 3516   1.377   5.679   1.131
 1170TIP3    H2 3517   1.346   5.786   1.233
 1171TIP3   OH2 3518   3.868   4.466   1.192
 1171TIP3    H1 3519   3.883   4.373   1.213
 1171TIP3    H2 3520   3.945   4.490   1.139
 1172TIP3   OH2 3521   5.985   4.625   2.026
 1172TIP3    H1 3522   5.897   4.605   2.056
 1172TIP3    H2 3523   6.006   4.555   1.964
 1173TIP3   OH2 3524   3.517   4.260   1.280
 1173TIP3    H1 3525   3.590   4.231   1.335
 1173TIP3    H2 3526   3.511   4.193   1.212
 1174TIP3   OH2 3527   2.398   4.566   4.625
 1174TIP3    H1 3528   2.420   4.578   4.532
 1174TIP3    H2 3529   2.470   4.608   4.672
 1175TIP3   OH2 3530   3.315   3.568   0.229
 1175TIP3    H1 3531   3.248   3.560   0.297
 1175TIP3    H2 3532   3.289   3.644   0.178
 1176TIP3   OH2 3533   2.678   1.205   3.839
 1176TIP3    H1 3534   2.594   1.206   3.885
 1176TIP3    H2 3535   2.657   1.225   3.748
 1177TIP3   OH2 3536   0.732   4.744   3.214
 1177TIP3    H1 3537   0.814   4.783   3.182
 1177TIP3    H2 3538   0.709   4.797   3.290
 1178TIP3   OH2 3539   2.701   0.319   3.828
 1178TIP3    H1 3540   2.716   0.332   3.734
 1178TIP3    H2 3541   2.622   0.371   3.847
 1179TIP3   OH2 3542   4.048   4.023   0.220
 1179TIP3    H1 3543   4.075   3.960   0.153
 1179TIP3    H2 3544   3.979   3.979   0.268
 1180TIP3   OH2 3545   6.166   2.522   0.665
 1180TIP3    H1 3546   6.182   2.536   0.758
 1180TIP3    H2 3547   6.242   2.561   0.622
 1181TIP3   OH2 3548   0.145   3.757   3.508
 1181TIP3    H1 3549   0.086   3.682   3.505
 1181TIP3    H2 3550   0.233   3.718   3.509
 1182TIP3   OH2 3551   2.255   2.285   1.687
 1182TIP3    H1 3552   2.204   2.266   1.608
 1182TIP3    H2 3553   2.197   2.261   1.759
 1183TIP3   OH2 3554   6.209   3.813   3.021
 1183TIP3    H1 3555   6.257   3.762   2.956
 1183TIP3    H2 3556   6.150   3.868   2.971
 1184TIP3   OH2 3557   4.314   2.567   0.630
 1184TIP3    H1 3558   4.315   2.481   0.672
 1184TIP3    H2 3559   4.382   2.562   0.563
 1185TIP3   OH2 3560   4.022   5.417   3.134
 1185TIP3    H1 3561   3.993   5.329   3.159
 1185TIP3    H2 3562   4.035   5.462   3.217
 1186TIP3   OH2 3563   1.588   2.185   2.670
 1186TIP3    H1 3564   1.500   2.177   2.635
 1186TIP3    H2 3565   1.579   2.238   2.749
 1187TIP3   OH2 3566   0.991   4.465   2.270
 1187TIP3    H1 3567   1.055   4.418   2.324
 1187TIP3    H2 3568   0.963   4.539   2.324
 1188TIP3   OH2 3569   3.282   3.604   3.162
 1188TIP3    H1 3570   3.374   3.630   3.155
 1188TIP3    H2 3571   3.234   3.687   3.156
 1189TIP3   OH2 3572   0.436   1.908   0.789
 1189TIP3    H1 3573   0.348   1.913   0.826
 1189TIP3    H2 3574   0.421   1.909   0.694
 1190TIP3   OH2 3575   6.034   2.212   3.843
 1190TIP3    H1 3576   5.978   2.257   3.907
 1190TIP3    H2 3577   6.037   2.121   3.873
 1191TIP3   OH2 3578   6.284   4.009   5.030
 1191TIP3    H1 3579   6.346   4.028   4.959
 1191TIP3    H2 3580   6.282   4.089   5.083
 1192TIP3   OH2 3581   3.336   2.138   0.048
 1192TIP3    H1 3582   3.372   2.184   0.124
 1192TIP3    H2 3583   3.269   2.197   0.014
 1193TIP3   OH2 3584   6.029   5.601   2.401
 1193TIP3    H1 3585   5.997   5.666   2.463
 1193TIP3    H2 3586   5.995   5.629   2.316
 1194TIP3   OH2 3587   3.866   2.296   0.215
 1194TIP3    H1 3588   3.934   2.277   0.279
 1194TIP3    H2 3589   3.913   2.334   0.140
 1195TIP3   OH2 3590   0.536   1.099   1.690
 1195TIP3    H1 3591   0.513   1.113   1.782
 1195TIP3    H2 3592   0.454   1.115   1.642
 1196TIP3   OH2 3593   0.654   5.431   1.875
 1196TIP3    H1 3594   0.602   5.510   1.891
 1196TIP3    H2 3595   0.649   5.382   1.957
 1197TIP3   OH2 3596   2.462   0.640   4.156
 1197TIP3    H1 3597   2.557   0.642   4.147
 1197TIP3    H2 3598   2.433   0.579   4.088
 1198TIP3   OH2 3599   4.550   4.524   2.799
 1198TIP3    H1 3600   4.519   4.471   2.726
 1198TIP3    H2 3601   4.645   4.530   2.786
 1199TIP3   OH2 3602   2.976   2.668   2.397
 1199TIP3    H1 3603   2.929   2.751   2.402
 1199TIP3    H2 3604   3.069   2.693   2.402
 1200TIP3   OH2 3605   0.302   4.820   2.099
 1200TIP3    H1 3606   0.292   4.915   2.090
 1200TIP3    H2 3607   0.306   4.804   2.193
 1201TIP3   OH2 3608   4.734   4.075   4.570
 1201TIP3    H1 3609   4.783   4.072   4.652
 1201TIP3    H2 3610   4.779   4.013   4.513
 1202TIP3   OH2 3611   3.244   0.997   1.219
 1202TIP3    H1 3612   3.238   0.963   1.308
 1202TIP3    H2 3613   3.161   0.972   1.179
 1203TIP3   OH2 3614   5.800   3.457   5.052
 1203TIP3    H1 3615   5.759   3.504   4.980
 1203TIP3    H2 3616   5.833   3.526   5.110
 1204TIP3   OH2 3617   2.569   1.386   4.464
 1204TIP3    H1 3618   2.551   1.297   4.434
 1204TIP3    H2 3619   2.585   1.436   4.384
 1205TIP3   OH2 3620   4.686   2.221   3.746
 1205TIP3    H1 3621   4.614   2.190   3.800
 1205TIP3    H2 3622   4.645   2.280   3.682
 1206TIP3   OH2 3623   5.668   4.598   3.516
 1206TIP3    H1 3624   5.751   4.579   3.472
 1206TIP3    H2 3625   5.625   4.661   3.458
 1207TIP3   OH2 3626   5.543   4.888   3.688
 1207TIP3    H1 3627   5.549   4.833   3.766
 1207TIP3    H2 3628   5.620   4.864   3.636
 1208TIP3   OH2 3629   2.071   2.277   1.103
 1208TIP3    H1 3630   2.154   2.266   1.057
 1208TIP3    H2 3631   2.004   2.266   1.035
 1209TIP3   OH2 3632   4.325   5.733   3.264
 1209TIP3    H1 3633   4.295   5.758   3.351
 1209TIP3    H2 3634   4.377   5.654   3.279
 1210TIP3   OH2 3635   0.375   1.603   3.714
 1210TIP3    H1 3636   0.460   1.625   3.675
 1210TIP3    H2 3637   0.365   1.509   3.699
 1211TIP3   OH2 3638   5.862   5.902   4.211
 1211TIP3    H1 3639   5.857   5.940   4.123
 1211TIP3    H2 3640   5.824   5.969   4.268
 1212TIP3   OH2 3641   5.586   5.099   4.048
 1212TIP3    H1 3642   5.643   5.165   4.088
 1212TIP3    H2 3643   5.502   5.144   4.037
 1213TIP3   OH2 3644   4.123   0.905   2.433
 1213TIP3    H1 3645   4.140   0.926   2.524
 1213TIP3    H2 3646   4.196   0.847   2.407
 1214TIP3   OH2 3647   1.015   4.019   4.570
 1214TIP3    H1 3648   1.108   4.038   4.581
 1214TIP3    H2 3649   0.973   4.060   4.645
 1215TIP3   OH2 3650   1.023   4.107   3.690
 1215TIP3    H1 3651   1.051   4.133   3.777
 1215TIP3    H2 3652   0.953   4.043   3.704
 1216TIP3   OH2 3653   1.159   2.542   3.701
 1216TIP3    H1 3654   1.229   2.552   3.766
 1216TIP3    H2 3655   1.197   2.484   3.634
 1217TIP3   OH2 3656   0.221   4.927   0.051
 1217TIP3    H1 3657   0.249   5.015   0.023
 1217TIP3    H2 3658   0.125   4.932   0.052
 1218TIP3   OH2 3659   5.479   0.276   2.793
 1218TIP3    H1 3660   5.392   0.267   2.756
 1218TIP3    H2 3661   5.466   0.321   2.876
 1219TIP3   OH2 3662   4.906   2.104   0.965
 1219TIP3    H1 3663   4.958   2.125   1.042
 1219TIP3    H2 3664   4.962   2.047   0.912
 1220TIP3   OH2 3665   5.396   0.491   4.283
 1220TIP3    H1 3666   5.458   0.554   4.320
 1220TIP3    H2 3667   5.343   0.542   4.222
 1221TIP3   OH2 3668   0.070   2.704   1.882
 1221TIP3    H1 3669   0.156   2.703   1.841
 1221TIP3    H2 3670   0.061   2.617   1.922
 1222TIP3   OH2 3671   3.460   1.038   1.035
 1222TIP3    H1 3672   3.480   0.963   0.980
 1222TIP3    H2 3673   3.398   1.004   1.100
 1223TIP3   OH2 3674   4.786   4.172   2.116
 1223TIP3    H1 3675   4.753   4.114   2.048
 1223TIP3    H2 3676   4.814   4.113   2.187
 1224TIP3   OH2 3677   1.897   1.776   0.650
 1224TIP3    H1 3678   1.899   1.691   0.693
 1224TIP3    H2 3679   1.813   1.779   0.605
 1225TIP3   OH2 3680   0.441   3.390   1.457
 1225TIP3    H1 3681   0.382   3.337   1.510
 1225TIP3    H2 3682   0.505   3.425   1.519
 1226TIP3   OH2 3683   3.368   1.688   2.238
 1226TIP3    H1 3684   3.371   1.596   2.263
 1226TIP3    H2 3685   3.423   1.694   2.160
 1227TIP3   OH2 3686   4.298   0.434   2.784
 1227TIP3    H1 3687   4.247   0.509   2.754
 1227TIP3    H2 3688   4.245   0.395   2.853
 1228TIP3   OH2 3689   5.366   3.617   0.713
 1228TIP3    H1 3690   5.370   3.675   0.789
 1228TIP3    H2 3691   5.404   3.535   0.743
 1229TIP3   OH2 3692   1.068   3.041   3.363
 1229TIP3    H1 3693   0.990   3.031   3.418
 1229TIP3    H2 3694   1.033   3.071   3.279
 1230TIP3   OH2 3695   1.182   0.795   0.728
 1230TIP3    H1 3696   1.218   0.876   0.694
 1230TIP3    H2 3697   1.251   0.758   0.783
 1231TIP3   OH2 3698   1.504   5.657   0.643
 1231TIP3    H1 3699   1.563   5.704   0.701
 1231TIP3    H2 3700   1.543   5.570   0.634
 1232TIP3   OH2 3701   0.609   4.835   2.333
 1232TIP3    H1 3702   0.636   4.750   2.298
 1232TIP3    H2 3703   0.515   4.839   2.316
 1233TIP3   OH2 3704   1.990   1.948   3.111
 1233TIP3    H1 3705   1.952   1.862   3.089
 1233TIP3    H2 3706   2.066   1.955   3.053
 1234TIP3   OH2 3707   3.767   4.765   1.215
 1234TIP3    H1 3708   3.747   4.815   1.294
 1234TIP3    H2 3709   3.775   4.674   1.246
 1235TIP3   OH2 3710   3.802   5.416   3.533
 1235TIP3    H1 3711   3.892   5.420   3.502
 1235TIP3    H2 3712   3.798   5.480   3.604
 1236TIP3   OH2 3713   3.551   5.718   1.636
 1236TIP3    H1 3714   3.526   5.721   1.729
 1236TIP3    H2 3715   3.547   5.809   1.607
 1237TIP3   OH2 3716   1.232   0.330   1.029
 1237TIP3    H1 3717   1.229   0.235   1.033
 1237TIP3    H2 3718   1.185   0.352   0.948
 1238TIP3   OH2 3719   4.104   3.004   2.334
 1238TIP3    H1 3720   4.132   3.036   2.420
 1238TIP3    H2 3721   4.107   3.081   2.278
 1239TIP3   OH2 3722   3.172   1.895   2.407
 1239TIP3    H1 3723   3.221   1.895   2.325
 1239TIP3    H2 3724   3.207   1.970   2.456
 1240TIP3   OH2 3725   4.871   0.631   1.825
 1240TIP3    H1 3726   4.794   0.575   1.812
 1240TIP3    H2 3727   4.835   0.716   1.848
 1241TIP3   OH2 3728   1.283   0.776   2.793
 1241TIP3    H1 3729   1.215   0.844   2.798
 1241TIP3    H2 3730   1.364   0.822   2.814
 1242TIP3   OH2 3731   0.710   3.356   0.278
 1242TIP3    H1 3732   0.686   3.391   0.192
 1242TIP3    H2 3733   0.638   3.298   0.301
 1243TIP3   OH2 3734   2.119   1.619   3.966
 1243TIP3    H1 3735   2.208   1.597   3.995
 1243TIP3    H2 3736   2.071   1.536   3.968
 1244TIP3   OH2 3737   1.615   3.450   1.921
 1244TIP3    H1 3738   1.651   3.445   1.832
 1244TIP3    H2 3739   1.580   3.362   1.938
 1245TIP3   OH2 3740   2.157   1.229   0.535
 1245TIP3    H1 3741   2.177   1.285   0.610
 1245TIP3    H2 3742   2.230   1.243   0.474
 1246TIP3   OH2 3743   3.740   5.267   3.823
 1246TIP3    H1 3744   3.787   5.198   3.871
 1246TIP3    H2 3745   3.782   5.269   3.737
 1247TIP3   OH2 3746   3.222   5.062   1.733
 1247TIP3    H1 3747   3.175   5.123   1.677
 1247TIP3    H2 3748   3.201   5.090   1.822
 1248TIP3   OH2 3749   1.297   5.238   1.808
 1248TIP3    H1 3750   1.377   5.188   1.793
 1248TIP3    H2 3751   1.283   5.234   1.902
 1249TIP3   OH2 3752   5.207   2.843   4.077
 1249TIP3    H1 3753   5.201   2.788   3.999
 1249TIP3    H2 3754   5.259   2.918   4.049
 1250TIP3   OH2 3755   2.161   2.078   0.497
 1250TIP3    H1 3756   2.085   2.090   0.440
 1250TIP3    H2 3757   2.124   2.064   0.584
 1251TIP3   OH2 3758   2.201   1.484   1.902
 1251TIP3    H1 3759   2.216   1.499   1.995
 1251TIP3    H2 3760   2.235   1.396   1.886
 1252TIP3   OH2 3761   1.925   5.896   3.638
 1252TIP3    H1 3762   1.904   5.839   3.712
 1252TIP3    H2 3763   1.998   5.950   3.668
 1253TIP3   OH2 3764   3.355   1.521   1.066
 1253TIP3    H1 3765   3.378   1.590   1.129
 1253TIP3    H2 3766   3.302   1.459   1.117
 1254TIP3   OH2 3767   0.873   1.964   1.576
 1254TIP3    H1 3768   0.955   1.941   1.533
 1254TIP3    H2 3769   0.894   2.040   1.630
 1255TIP3   OH2 3770   1.811   4.394   4.164
 1255TIP3    H1 3771   1.781   4.446   4.090
 1255TIP3    H2 3772   1.830   4.308   4.126
 1256TIP3   OH2 3773   0.538   3.863   1.407
 1256TIP3    H1 3774   0.535   3.940   1.350
 1256TIP3    H2 3775   0.457   3.868   1.458
 1257TIP3   OH2 3776   0.182   4.127   3.997
 1257TIP3    H1 3777   0.270   4.137   4.034
 1257TIP3    H2 3778   0.183   4.042   3.953
 1258TIP3   OH2 3779   3.823   0.513   1.060
 1258TIP3    H1 3780   3.767   0.496   1.135
 1258TIP3    H2 3781   3.894   0.449   1.069
 1259TIP3   OH2 3782   1.434   1.382   3.386
 1259TIP3    H1 3783   1.421   1.343   3.472
 1259TIP3    H2 3784   1.346   1.391   3.350
 1260TIP3   OH2 3785   0.255   0.265   5.181
 1260TIP3    H1 3786   0.173   0.241   5.223
 1260TIP3    H2 3787   0.255   0.361   5.181
 1261TIP3   OH2 3788   1.820   0.101   2.838
 1261TIP3    H1 3789   1.806   0.027   2.779
 1261TIP3    H2 3790   1.848   0.060   2.920
 1262TIP3   OH2 3791   3.460   5.442   2.414
 1262TIP3    H1 3792   3.483   5.532   2.436
 1262TIP3    H2 3793   3.378   5.426   2.460
 1263TIP3   OH2 3794   0.238   0.424   4.863
 1263TIP3    H1 3795   0.316   0.406   4.917
 1263TIP3    H2 3796   0.263   0.499   4.810
 1264TIP3   OH2 3797   0.102   2.221   2.964
 1264TIP3    H1 3798   0.035   2.265   3.016
 1264TIP3    H2 3799   0.079   2.242   2.873
 1265TIP3   OH2 3800   5.899   2.154   4.399
 1265TIP3    H1 3801   5.864   2.066   4.384
 1265TIP3    H2 3802   5.988   2.151   4.363
 1266TIP3   OH2 3803   5.286   0.828   1.780
 1266TIP3    H1 3804   5.216   0.848   1.843
 1266TIP3    H2 3805   5.264   0.740   1.749
 1267TIP3   OH2 3806   3.240   5.625   5.046
 1267TIP3    H1 3807   3.183   5.698   5.069
 1267TIP3    H2 3808   3.298   5.659   4.978
 1268TIP3   OH2 3809   0.990   0.179   3.487
 1268TIP3    H1 3810   1.068   0.230   3.509
 1268TIP3    H2 3811   0.926   0.205   3.553
 1269TIP3   OH2 3812   5.912   2.259   1.961
 1269TIP3    H1 3813   5.868   2.343   1.952
 1269TIP3    H2 3814   5.872   2.203   1.894
 1270TIP3   OH2 3815   0.475   2.994   5.123
 1270TIP3    H1 3816   0.384   2.999   5.153
 1270TIP3    H2 3817   0.524   2.966   5.200
 1271TIP3   OH2 3818   2.234   0.286   4.021
 1271TIP3    H1 3819   2.227   0.192   4.002
 1271TIP3    H2 3820   2.193   0.295   4.107
 1272TIP3   OH2 3821   2.961   1.207   4.577
 1272TIP3    H1 3822   2.951   1.236   4.487
 1272TIP3    H2 3823   3.036   1.257   4.611
 1273TIP3   OH2 3824   3.341   4.598   5.076
 1273TIP3    H1 3825   3.425   4.626   5.112
 1273TIP3    H2 3826   3.308   4.534   5.140
 1274TIP3   OH2 3827   5.811   2.318   2.995
 1274TIP3    H1 3828   5.800   2.268   3.075
 1274TIP3    H2 3829   5.885   2.278   2.950
 1275TIP3   OH2 3830   1.628   0.642   3.835
 1275TIP3    H1 3831   1.577   0.620   3.757
 1275TIP3    H2 3832   1.624   0.564   3.890
 1276TIP3   OH2 3833   5.301   3.228   4.649
 1276TIP3    H1 3834   5.373   3.234   4.712
 1276TIP3    H2 3835   5.304   3.311   4.601
 1277TIP3   OH2 3836   2.685   2.015   4.873
 1277TIP3    H1 3837   2.606   2.007   4.820
 1277TIP3    H2 3838   2.727   1.929   4.867
 1278TIP3   OH2 3839   4.801   3.525   2.854
 1278TIP3    H1 3840   4.859   3.599   2.874
 1278TIP3    H2 3841   4.766   3.499   2.940
 1279TIP3   OH2 3842   5.519   2.805   0.780
 1279TIP3    H1 3843   5.591   2.813   0.843
 1279TIP3    H2 3844   5.443   2.785   0.834
 1280TIP3   OH2 3845   1.409   4.431   0.880
 1280TIP3    H1 3846   1.339   4.460   0.821
 1280TIP3    H2 3847   1.364   4.416   0.964
 1281TIP3   OH2 3848   0.756   0.317   1.805
 1281TIP3    H1 3849   0.717   0.325   1.893
 1281TIP3    H2 3850   0.780   0.407   1.781
 1282TIP3   OH2 3851   2.491   1.491   4.700
 1282TIP3    H1 3852   2.406   1.447   4.690
 1282TIP3    H2 3853   2.532   1.484   4.614
 1283TIP3   OH2 3854   0.822   0.742   1.520
 1283TIP3    H1 3855   0.878   0.666   1.534
 1283TIP3    H2 3856   0.882   0.816   1.521
 1284TIP3   OH2 3857   6.195   2.893   1.084
 1284TIP3    H1 3858   6.228   2.900   1.174
 1284TIP3    H2 3859   6.102   2.911   1.092
 1285TIP3   OH2 3860   3.259   2.602   2.704
 1285TIP3    H1 3861   3.231   2.586   2.794
 1285TIP3    H2 3862   3.315   2.679   2.710
 1286TIP3   OH2 3863   5.497   4.146   2.452
 1286TIP3    H1 3864   5.533   4.218   2.504
 1286TIP3    H2 3865   5.402   4.155   2.462
 1287TIP3   OH2 3866   3.922   2.295   2.794
 1287TIP3    H1 3867   3.938   2.369   2.736
 1287TIP3    H2 3868   4.008   2.254   2.805
 1288TIP3   OH2 3869   0.723   0.559   3.057
 1288TIP3    H1 3870   0.669   0.574   2.979
 1288TIP3    H2 3871   0.697   0.628   3.118
 1289TIP3   OH2 3872   2.955   5.614   0.103
 1289TIP3    H1 3873   2.974   5.671   0.028
 1289TIP3    H2 3874   2.979   5.666   0.179
 1290TIP3   OH2 3875   4.365   0.830   4.594
 1290TIP3    H1 3876   4.359   0.920   4.562
 1290TIP3    H2 3877   4.455   0.804   4.576
 1291TIP3   OH2 3878   3.245   5.229   4.664
 1291TIP3    H1 3879   3.184   5.187   4.603
 1291TIP3    H2 3880   3.254   5.165   4.735
 1292TIP3   OH2 3881   6.206   5.130   2.982
 1292TIP3    H1 3882   6.173   5.128   3.072
 1292TIP3    H2 3883   6.128   5.125   2.927
 1293TIP3   OH2 3884   1.578   0.766   0.122
 1293TIP3    H1 3885   1.556   0.699   0.187
 1293TIP3    H2 3886   1.660   0.735   0.084
 1294TIP3   OH2 3887   3.683   4.951   3.115
 1294TIP3    H1 3888   3.655   4.864   3.144
 1294TIP3    H2 3889   3.764   4.935   3.067
 1295TIP3   OH2 3890   1.004   4.211   0.573
 1295TIP3    H1 3891   0.949   4.289   0.578
 1295TIP3    H2 3892   1.078   4.237   0.518
 1296TIP3   OH2 3893   1.600   1.116   0.128
 1296TIP3    H1 3894   1.519   1.072   0.099
 1296TIP3    H2 3895   1.616   1.081   0.215
 1297TIP3   OH2 3896   0.099   3.304   1.537
 1297TIP3    H1 3897   0.093   3.286   1.631
 1297TIP3    H2 3898   0.118   3.397   1.531
 1298TIP3   OH2 3899   2.709   3.989   4.300
 1298TIP3    H1 3900   2.623   3.997   4.341
 1298TIP3    H2 3901   2.695   3.927   4.228
 1299TIP3   OH2 3902   0.026   4.563   3.108
 1299TIP3    H1 3903   0.059   4.530   3.191
 1299TIP3    H2 3904   0.103   4.568   3.052
 1300TIP3   OH2 3905   3.450   4.961   0.548
 1300TIP3    H1 3906   3.379   4.932   0.490
 1300TIP3    H2 3907   3.452   5.056   0.537
 1301TIP3   OH2 3908   6.224   4.984   2.146
 1301TIP3    H1 3909   6.245   4.924   2.217
 1301TIP3    H2 3910   6.233   5.071   2.184
 1302TIP3   OH2 3911   0.199   4.296   3.770
 1302TIP3    H1 3912   0.155   4.380   3.764
 1302TIP3    H2 3913   0.192   4.270   3.862
 1303TIP3   OH2 3914   1.228   2.898   4.815
 1303TIP3    H1 3915   1.158   2.914   4.752
 1303TIP3    H2 3916   1.283   2.831   4.774
 1304TIP3   OH2 3917   6.319   5.465   0.845
 1304TIP3    H1 3918   6.250   5.448   0.910
 1304TIP3    H2 3919   6.362   5.380   0.832
 1305TIP3   OH2 3920   2.538   5.654   2.833
 1305TIP3    H1 3921   2.630   5.657   2.807
 1305TIP3    H2 3922   2.493   5.706   2.766
 1306TIP3   OH2 3923   6.045   5.369   3.980
 1306TIP3    H1 3924   6.046   5.457   3.941
 1306TIP3    H2 3925   6.128   5.364   4.029
 1307TIP3   OH2 3926   1.227   5.557   2.833
 1307TIP3    H1 3927   1.272   5.477   2.806
 1307TIP3    H2 3928   1.272   5.584   2.913
 1308TIP3   OH2 3929   2.004   4.274   1.870
 1308TIP3    H1 3930   2.086   4.323   1.869
 1308TIP3    H2 3931   1.943   4.328   1.819
 1309TIP3   OH2 3932   0.654   3.131   2.735
 1309TIP3    H1 3933   0.581   3.119   2.674
 1309TIP3    H2 3934   0.675   3.224   2.729
 1310TIP3   OH2 3935   4.638   1.938   4.550
 1310TIP3    H1 3936   4.617   1.969   4.462
 1310TIP3    H2 3937   4.733   1.942   4.555
 1311TIP3   OH2 3938   2.479   0.367   4.254
 1311TIP3    H1 3939   2.523   0.349   4.337
 1311TIP3    H2 3940   2.386   0.353   4.271
 1312TIP3   OH2 3941   1.539   2.281   0.499
 1312TIP3    H1 3942   1.632   2.305   0.503
 1312TIP3    H2 3943   1.528   2.218   0.570
 1313TIP3   OH2 3944   5.922   2.647   0.742
 1313TIP3    H1 3945   5.988   2.603   0.689
 1313TIP3    H2 3946   5.942   2.620   0.832
 1314TIP3   OH2 3947   0.270   2.642   3.187
 1314TIP3    H1 3948   0.273   2.550   3.161
 1314TIP3    H2 3949   0.313   2.644   3.273
 1315TIP3   OH2 3950   0.459   0.478   2.747
 1315TIP3    H1 3951   0.516   0.536   2.695
 1315TIP3    H2 3952   0.465   0.393   2.703
 1316TIP3   OH2 3953   2.254   4.052   0.018
 1316TIP3    H1 3954   2.199   3.977  -0.003
 1316TIP3    H2 3955   2.334   4.039  -0.033
 1317TIP3   OH2 3956   2.025   0.358   3.823
 1317TIP3    H1 3957   2.024   0.345   3.918
 1317TIP3    H2 3958   2.117   0.351   3.799
 1318TIP3   OH2 3959   3.966   5.609   5.040
 1318TIP3    H1 3960   4.028   5.630   4.970
 1318TIP3    H2 3961   4.012   5.631   5.120
 1319TIP3   OH2 3962   6.243   3.365   2.818
 1319TIP3    H1 3963   6.303   3.343   2.889
 1319TIP3    H2 3964   6.156   3.352   2.855
 1320TIP3   OH2 3965   1.908   1.014   4.154
 1320TIP3    H1 3966   1.869   0.927   4.163
 1320TIP3    H2 3967   1.854   1.058   4.089
 1321TIP3   OH2 3968   3.325   4.838   1.379
 1321TIP3    H1 3969   3.376   4.758   1.391
 1321TIP3    H2 3970   3.334   4.885   1.462
 1322TIP3   OH2 3971   0.724   5.532   1.309
 1322TIP3    H1 3972   0.744   5.447   1.348
 1322TIP3    H2 3973   0.777   5.534   1.229
 1323TIP3   OH2 3974   2.784   5.088   1.158
 1323TIP3    H1 3975   2.803   5.023   1.226
 1323TIP3    H2 3976   2.845   5.067   1.087
 1324TIP3   OH2 3977   2.147   3.498   5.131
 1324TIP3    H1 3978   2.183   3.410   5.125
 1324TIP3    H2 3979   2.059   3.490   5.093
 1325TIP3   OH2 3980   5.108   3.691   0.827
 1325TIP3    H1 3981   5.154   3.729   0.752
 1325TIP3    H2 3982   5.109   3.596   0.811
 1326TIP3   OH2 3983   2.306   0.459   4.502
 1326TIP3    H1 3984   2.279   0.511   4.578
 1326TIP3    H2 3985   2.316   0.523   4.432
 1327TIP3   OH2 3986   1.408   1.799   4.939
 1327TIP3    H1 3987   1.318   1.824   4.920
 1327TIP3    H2 3988   1.456   1.882   4.943
 1328TIP3   OH2 3989   4.911   0.315   4.980
 1328TIP3    H1 3990   4.926   0.404   4.948
 1328TIP3    H2 3991   4.995   0.289   5.017
 1329TIP3   OH2 3992   4.861   2.890   5.021
 1329TIP3    H1 3993   4.786   2.900   5.080
 1329TIP3    H2 3994   4.934   2.931   5.067
 1330TIP3   OH2 3995   5.727   3.069   4.607
 1330TIP3    H1 3996   5.710   3.058   4.513
 1330TIP3    H2 3997   5.799   3.009   4.626
 1331TIP3   OH2 3998   4.197   2.152   0.045
 1331TIP3    H1 3999   4.249   2.075   0.025
 1331TIP3    H2 4000   4.107   2.120   0.052
 1332TIP3   OH2 4001   2.229   5.248   1.119
 1332TIP3    H1 4002   2.137   5.248   1.147
 1332TIP3    H2 4003   2.234   5.178   1.054
 1333TIP3   OH2 4004   2.018   5.362   1.562
 1333TIP3    H1 4005   1.998   5.452   1.588
 1333TIP3    H2 4006   2.069   5.326   1.634
 1334TIP3   OH2 4007   3.370  -0.019   4.768
 1334TIP3    H1 4008   3.313   0.026   4.705
 1334TIP3    H2 4009   3.360  -0.112   4.748
 1335TIP3   OH2 4010   1.050   1.846   1.399
 1335TIP3    H1 4011   1.137   1.884   1.387
 1335TIP3    H2 4012   1.055   1.762   1.355
 1336TIP3   OH2 4013   4.887   0.953   4.416
 1336TIP3    H1 4014   4.893   0.917   4.505
 1336TIP3    H2 4015   4.978   0.971   4.392
 1337TIP3   OH2 4016   3.044   2.674   1.251
 1337TIP3    H1 4017   3.093   2.729   1.311
 1337TIP3    H2 4018   3.003   2.735   1.190
 1338TIP3   OH2 4019   0.592   0.819   3.101
 1338TIP3    H1 4020   0.611   0.871   3.022
 1338TIP3    H2 4021   0.668   0.833   3.157
 1339TIP3   OH2 4022   2.552   1.796   1.760
 1339TIP3    H1 4023   2.528   1.874   1.710
 1339TIP3    H2 4024   2.604   1.744   1.699
 1340TIP3   OH2 4025   4.906   0.137   3.866
 1340TIP3    H1 4026   4.956   0.094   3.796
 1340TIP3    H2 4027   4.932   0.229   3.861
 1341TIP3   OH2 4028   0.296   2.598   1.054
 1341TIP3    H1 4029   0.311   2.693   1.056
 1341TIP3    H2 4030   0.204   2.589   1.031
 1342TIP3   OH2 4031   4.557   5.618   1.257
 1342TIP3    H1 4032   4.504   5.693   1.228
 1342TIP3    H2 4033   4.496   5.544   1.255
 1343TIP3   OH2 4034   3.874   3.475   0.286
 1343TIP3    H1 4035   3.848   3.514   0.202
 1343TIP3    H2 4036   3.791   3.461   0.332
 1344TIP3   OH2 4037   2.011   1.361   3.995
 1344TIP3    H1 4038   1.965   1.305   3.933
 1344TIP3    H2 4039   2.020   1.308   4.074
 1345TIP3   OH2 4040   3.550   1.459   3.089
 1345TIP3    H1 4041   3.535   1.449   2.995
 1345TIP3    H2 4042   3.524   1.549   3.108
 1346TIP3   OH2 4043   2.867   3.627   4.101
 1346TIP3    H1 4044   2.783   3.634   4.055
 1346TIP3    H2 4045   2.855   3.680   4.180
 1347TIP3   OH2 4046   1.360   1.972   0.425
 1347TIP3    H1 4047   1.265   1.960   0.413
 1347TIP3    H2 4048   1.368   2.013   0.511
 1348TIP3   OH2 4049   5.462   3.376   0.861
 1348TIP3    H1 4050   5.469   3.282   0.846
 1348TIP3    H2 4051   5.385   3.387   0.917
 1349TIP3   OH2 4052   1.289   3.870   1.013
 1349TIP3    H1 4053   1.223   3.818   1.059
 1349TIP3    H2 4054   1.364   3.811   1.005
 1350TIP3   OH2 4055   3.060   3.064   0.409
 1350TIP3    H1 4056   3.130   3.085   0.347
 1350TIP3    H2 4057   2.982   3.107   0.373
 1351TIP3   OH2 4058   5.143   4.150   4.238
 1351TIP3    H1 4059   5.103   4.200   4.309
 1351TIP3    H2 4060   5.104   4.185   4.158
 1352TIP3   OH2 4061   3.347   5.550   0.573
 1352TIP3    H1 4062   3.259   5.526   0.544
 1352TIP3    H2 4063   3.405   5.501   0.516
 1353TIP3   OH2 4064   4.991   1.099   2.800
 1353TIP3    H1 4065   4.936   1.068   2.728
 1353TIP3    H2 4066   4.966   1.045   2.875
 1354TIP3   OH2 4067   0.076   2.346   4.860
 1354TIP3    H1 4068   0.167   2.369   4.875
 1354TIP3    H2 4069   0.055   2.284   4.930
 1355TIP3   OH2 4070   6.223   4.840   2.843
 1355TIP3    H1 4071   6.190   4.759   2.884
 1355TIP3    H2 4072   6.146   4.897   2.840
 1356TIP3   OH2 4073   5.781   5.065   3.747
 1356TIP3    H1 4074   5.753   4.982   3.784
 1356TIP3    H2 4075   5.854   5.093   3.802
 1357TIP3   OH2 4076   5.065   3.108   4.158
 1357TIP3    H1 4077   5.111   3.091   4.076
 1357TIP3    H2 4078   4.988   3.051   4.154
 1358TIP3   OH2 4079   1.485   3.018   2.864
 1358TIP3    H1 4080   1.423   3.007   2.936
 1358TIP3    H2 4081   1.467   2.943   2.806
 1359TIP3   OH2 4082   0.220   0.612   0.440
 1359TIP3    H1 4083   0.184   0.532   0.479
 1359TIP3    H2 4084   0.310   0.616   0.472
 1360TIP3   OH2 4085   5.640   3.479   0.651
 1360TIP3    H1 4086   5.645   3.466   0.746
 1360TIP3    H2 4087   5.724   3.517   0.627
 1361TIP3   OH2 4088   3.744   4.910   0.489
 1361TIP3    H1 4089   3.758   4.817   0.507
 1361TIP3    H2 4090   3.655   4.927   0.519
 1362TIP3   OH2 4091   0.524   4.993   4.259
 1362TIP3    H1 4092   0.601   5.049   4.269
 1362TIP3    H2 4093   0.473   5.008   4.339
 1363TIP3   OH2 4094   1.193   4.111   0.947
 1363TIP3    H1 4095   1.220   4.029   0.988
 1363TIP3    H2 4096   1.098   4.110   0.951
 1364TIP3   OH2 4097   2.407   3.192   1.200
 1364TIP3    H1 4098   2.439   3.103   1.186
 1364TIP3    H2 4099   2.333   3.182   1.259
 1365TIP3   OH2 4100   3.433   4.283   1.545
 1365TIP3    H1 4101   3.451   4.278   1.451
 1365TIP3    H2 4102   3.340   4.260   1.554
 1366TIP3   OH2 4103   3.044   2.350   0.547
 1366TIP3    H1 4104   2.954   2.332   0.576
 1366TIP3    H2 4105   3.039   2.437   0.507
 1367TIP3   OH2 4106   6.135   1.416   3.391
 1367TIP3    H1 4107   6.059   1.460   3.354
 1367TIP3    H2 4108   6.144   1.336   3.339
 1368TIP3   OH2 4109   0.067   5.778   3.263
 1368TIP3    H1 4110   0.147   5.829   3.265
 1368TIP3    H2 4111   0.090   5.698   3.216
 1369TIP3   OH2 4112   0.788   5.408   0.240
 1369TIP3    H1 4113   0.829   5.322   0.249
 1369TIP3    H2 4114   0.758   5.430   0.328
 1370TIP3   OH2 4115   1.699   3.942   2.844
 1370TIP3    H1 4116   1.692   3.851   2.871
 1370TIP3    H2 4117   1.610   3.976   2.849
 1371TIP3   OH2 4118   2.565   2.700   1.008
 1371TIP3    H1 4119   2.523   2.638   1.069
 1371TIP3    H2 4120   2.524   2.784   1.028
 1372TIP3   OH2 4121   1.631   1.854   2.706
 1372TIP3    H1 4122   1.626   1.902   2.623
 1372TIP3    H2 4123   1.674   1.915   2.766
 1373TIP3   OH2 4124   2.687   5.207   2.628
 1373TIP3    H1 4125   2.743   5.272   2.671
 1373TIP3    H2 4126   2.700   5.224   2.534
 1374TIP3   OH2 4127   3.440   4.925   2.564
 1374TIP3    H1 4128   3.456   4.958   2.476
 1374TIP3    H2 4129   3.509   4.965   2.617
 1375TIP3   OH2 4130   5.106   5.826   0.340
 1375TIP3    H1 4131   5.155   5.746   0.321
 1375TIP3    H2 4132   5.166   5.879   0.392
 1376TIP3   OH2 4133   4.810   3.436   4.765
 1376TIP3    H1 4134   4.721   3.460   4.739
 1376TIP3    H2 4135   4.804   3.345   4.792
 1377TIP3   OH2 4136   2.661   2.139   3.652
 1377TIP3    H1 4137   2.723   2.073   3.619
 1377TIP3    H2 4138   2.576   2.096   3.647
 1378TIP3   OH2 4139   4.789   4.704   0.513
 1378TIP3    H1 4140   4.827   4.629   0.468
 1378TIP3    H2 4141   4.839   4.710   0.594
 1379TIP3   OH2 4142   3.033   2.869   2.723
 1379TIP3    H1 4143   3.018   2.775   2.727
 1379TIP3    H2 4144   2.963   2.902   2.666
 1380TIP3   OH2 4145   4.403   0.470   0.699
 1380TIP3    H1 4146   4.457   0.523   0.640
 1380TIP3    H2 4147   4.325   0.523   0.714
 1381TIP3   OH2 4148   4.338   3.137   4.307
 1381TIP3    H1 4149   4.307   3.067   4.365
 1381TIP3    H2 4150   4.368   3.205   4.367
 1382TIP3   OH2 4151   4.363   3.350  -0.038
 1382TIP3    H1 4152   4.382   3.374   0.053
 1382TIP3    H2 4153   4.432   3.288  -0.061
 1383TIP3   OH2 4154   4.424   1.217   1.773
 1383TIP3    H1 4155   4.518   1.198   1.769
 1383TIP3    H2 4156   4.382   1.139   1.738
 1384TIP3   OH2 4157   6.190   3.452   4.532
 1384TIP3    H1 4158   6.233   3.478   4.613
 1384TIP3    H2 4159   6.109   3.503   4.531
 1385TIP3   OH2 4160   2.711   1.102   3.282
 1385TIP3    H1 4161   2.656   1.049   3.224
 1385TIP3    H2 4162   2.712   1.189   3.241
 1386TIP3   OH2 4163   2.848   5.009   2.391
 1386TIP3    H1 4164   2.805   4.962   2.462
 1386TIP3    H2 4165   2.791   5.084   2.374
 1387TIP3   OH2 4166   3.790   0.519   3.484
 1387TIP3    H1 4167   3.874   0.492   3.446
 1387TIP3    H2 4168   3.726   0.458   3.448
 1388TIP3   OH2 4169   5.934   1.641   5.123
 1388TIP3    H1 4170   5.912   1.723   5.168
 1388TIP3    H2 4171   5.869   1.634   5.053
 1389TIP3   OH2 4172   2.871   4.224   1.001
 1389TIP3    H1 4173   2.785   4.184   1.007
 1389TIP3    H2 4174   2.923   4.160   0.951
 1390TIP3   OH2 4175   2.054   3.902   2.963
 1390TIP3    H1 4176   2.002   3.843   3.018
 1390TIP3    H2 4177   1.993   3.972   2.939
 1391TIP3   OH2 4178   4.372   1.208   4.102
 1391TIP3    H1 4179   4.282   1.233   4.124
 1391TIP3    H2 4180   4.421   1.290   4.107
 1392TIP3   OH2 4181   4.622   1.847   2.047
 1392TIP3    H1 4182   4.562   1.804   1.986
 1392TIP3    H2 4183   4.657   1.777   2.101
 1393TIP3   OH2 4184   6.238   1.204   0.116
 1393TIP3    H1 4185   6.255   1.270   0.184
 1393TIP3    H2 4186   6.243   1.120   0.163
 1394TIP3   OH2 4187   5.319   4.803   1.578
 1394TIP3    H1 4188   5.391   4.828   1.520
 1394TIP3    H2 4189   5.260   4.879   1.577
 1395TIP3   OH2 4190   4.605   2.322   1.556
 1395TIP3    H1 4191   4.636   2.374   1.481
 1395TIP3    H2 4192   4.551   2.383   1.606
 1396TIP3   OH2 4193   5.295   1.799   0.252
 1396TIP3    H1 4194   5.212   1.767   0.217
 1396TIP3    H2 4195   5.278   1.810   0.346
 1397TIP3   OH2 4196   3.624   2.782   3.645
 1397TIP3    H1 4197   3.615   2.792   3.551
 1397TIP3    H2 4198   3.706   2.732   3.656
 1398TIP3   OH2 4199   1.928   5.599   0.094
 1398TIP3    H1 4200   1.839   5.577   0.122
 1398TIP3    H2 4201   1.916   5.667   0.027
 1399TIP3   OH2 4202   3.775   3.382   2.045
 1399TIP3    H1 4203   3.704   3.320   2.033
 1399TIP3    H2 4204   3.760   3.421   2.130
 1400TIP3   OH2 4205   5.108   4.977   4.598
 1400TIP3    H1 4206   5.176   4.993   4.533
 1400TIP3    H2 4207   5.136   5.027   4.675
 1401TIP3   OH2 4208   2.467   3.026   1.611
 1401TIP3    H1 4209   2.434   2.952   1.660
 1401TIP3    H2 4210   2.396   3.090   1.613
 1402TIP3   OH2 4211   3.137   1.993   4.133
 1402TIP3    H1 4212   3.054   2.004   4.088
 1402TIP3    H2 4213   3.118   2.013   4.224
 1403TIP3   OH2 4214   3.716   5.752   0.792
 1403TIP3    H1 4215   3.641   5.693   0.802
 1403TIP3    H2 4216   3.775   5.729   0.863
 1404TIP3   OH2 4217   5.858   0.950   0.761
 1404TIP3    H1 4218   5.833   1.010   0.832
 1404TIP3    H2 4219   5.948   0.924   0.782
 1405TIP3   OH2 4220   3.629   3.165   0.304
 1405TIP3    H1 4221   3.665   3.095   0.250
 1405TIP3    H2 4222   3.602   3.121   0.385
 1406TIP3   OH2 4223   1.418   4.476   1.746
 1406TIP3    H1 4224   1.327   4.452   1.727
 1406TIP3    H2 4225   1.423   4.569   1.723
 1407TIP3   OH2 4226   2.203   3.632   4.371
 1407TIP3    H1 4227   2.115   3.657   4.398
 1407TIP3    H2 4228   2.233   3.572   4.439
 1408TIP3   OH2 4229   2.839   0.275   0.586
 1408TIP3    H1 4230   2.883   0.243   0.665
 1408TIP3    H2 4231   2.791   0.199   0.553
 1409TIP3   OH2 4232   3.093   3.789   4.522
 1409TIP3    H1 4233   3.080   3.695   4.535
 1409TIP3    H2 4234   3.150   3.816   4.595
 1410TIP3   OH2 4235   0.558   2.722   0.248
 1410TIP3    H1 4236   0.600   2.715   0.162
 1410TIP3    H2 4237   0.603   2.656   0.302
 1411TIP3   OH2 4238   0.159   3.336   0.504
 1411TIP3    H1 4239   0.229   3.270   0.511
 1411TIP3    H2 4240   0.084   3.287   0.470
 1412TIP3   OH2 4241   3.088   5.491   0.446
 1412TIP3    H1 4242   3.047   5.458   0.526
 1412TIP3    H2 4243   3.035   5.567   0.421
 1413TIP3   OH2 4244   0.573   1.782   3.899
 1413TIP3    H1 4245   0.625   1.702   3.906
 1413TIP3    H2 4246   0.554   1.790   3.806
 1414TIP3   OH2 4247   3.629   5.273   1.508
 1414TIP3    H1 4248   3.631   5.263   1.413
 1414TIP3    H2 4249   3.557   5.334   1.524
 1415TIP3   OH2 4250   3.598   0.907   4.308
 1415TIP3    H1 4251   3.510   0.944   4.302
 1415TIP3    H2 4252   3.657   0.981   4.292
 1416TIP3   OH2 4253   2.847   1.954   3.556
 1416TIP3    H1 4254   2.789   1.898   3.503
 1416TIP3    H2 4255   2.908   1.991   3.493
 1417TIP3   OH2 4256   5.300   0.841   4.386
 1417TIP3    H1 4257   5.300   0.930   4.422
 1417TIP3    H2 4258   5.342   0.851   4.300
 1418TIP3   OH2 4259   2.209   1.847   3.634
 1418TIP3    H1 4260   2.199   1.762   3.591
 1418TIP3    H2 4261   2.177   1.832   3.724
 1419TIP3   OH2 4262   3.412   5.443   1.093
 1419TIP3    H1 4263   3.399   5.476   1.181
 1419TIP3    H2 4264   3.498   5.475   1.066
 1420TIP3   OH2 4265   2.724   0.487   1.330
 1420TIP3    H1 4266   2.630   0.504   1.336
 1420TIP3    H2 4267   2.752   0.538   1.254
 1421TIP3   OH2 4268   5.510   3.109   0.879
 1421TIP3    H1 4269   5.576   3.103   0.809
 1421TIP3    H2 4270   5.500   3.019   0.910
 1422TIP3   OH2 4271   1.326   1.370   2.526
 1422TIP3    H1 4272   1.291   1.418   2.601
 1422TIP3    H2 4273   1.315   1.278   2.550
 1423TIP3   OH2 4274   2.048   4.620   4.889
 1423TIP3    H1 4275   2.034   4.615   4.983
 1423TIP3    H2 4276   2.110   4.549   4.870
 1424TIP3   OH2 4277   0.181   5.344   4.827
 1424TIP3    H1 4278   0.216   5.272   4.880
 1424TIP3    H2 4279   0.255   5.403   4.813
 1425TIP3   OH2 4280   0.847   4.149   1.212
 1425TIP3    H1 4281   0.752   4.143   1.199
 1425TIP3    H2 4282   0.884   4.091   1.146
 1426TIP3   OH2 4283   3.545   0.678   2.891
 1426TIP3    H1 4284   3.614   0.617   2.864
 1426TIP3    H2 4285   3.467   0.624   2.902
 1427TIP3   OH2 4286   4.517   5.799   5.081
 1427TIP3    H1 4287   4.546   5.890   5.072
 1427TIP3    H2 4288   4.425   5.800   5.055
 1428TIP3   OH2 4289   5.412   3.809   2.242
 1428TIP3    H1 4290   5.391   3.898   2.215
 1428TIP3    H2 4291   5.339   3.756   2.210
 1429TIP3   OH2 4292   0.276   1.214   2.211
 1429TIP3    H1 4293   0.297   1.299   2.248
 1429TIP3    H2 4294   0.231   1.233   2.129
 1430TIP3   OH2 4295   1.599   4.063   1.811
 1430TIP3    H1 4296   1.664   4.031   1.873
 1430TIP3    H2 4297   1.560   3.984   1.774
 1431TIP3   OH2 4298   5.925   0.261   1.486
 1431TIP3    H1 4299   5.946   0.350   1.512
 1431TIP3    H2 4300   5.897   0.268   1.395
 1432TIP3   OH2 4301   5.486   2.894   4.044
 1432TIP3    H1 4302   5.447   2.920   4.127
 1432TIP3    H2 4303   5.564   2.949   4.036
 1433TIP3   OH2 4304   5.579   2.005   4.467
 1433TIP3    H1 4305   5.494   1.987   4.427
 1433TIP3    H2 4306   5.641   1.953   4.416
 1434TIP3   OH2 4307   3.956   4.311   0.699
 1434TIP3    H1 4308   3.964   4.394   0.746
 1434TIP3    H2 4309   4.043   4.298   0.659
 1435TIP3   OH2 4310   6.331   3.699   1.473
 1435TIP3    H1 4311   6.406   3.652   1.510
 1435TIP3    H2 4312   6.275   3.717   1.549
 1436TIP3   OH2 4313   6.036   3.123   1.896
 1436TIP3    H1 4314   6.066   3.110   1.805
 1436TIP3    H2 4315   5.957   3.070   1.902
 1437TIP3   OH2 4316   1.478   1.692   3.958
 1437TIP3    H1 4317   1.527   1.692   4.040
 1437TIP3    H2 4318   1.395   1.650   3.980
 1438TIP3   OH2 4319   1.748   2.080   3.207
 1438TIP3    H1 4320   1.702   2.001   3.234
 1438TIP3    H2 4321   1.833   2.050   3.177
 1439TIP3   OH2 4322   4.612   1.209   3.822
 1439TIP3    H1 4323   4.678   1.236   3.758
 1439TIP3    H2 4324   4.585   1.291   3.864
 1440TIP3   OH2 4325   4.787   1.284   4.547
 1440TIP3    H1 4326   4.703   1.320   4.574
 1440TIP3    H2 4327   4.821   1.240   4.624
 1441TIP3   OH2 4328   0.431   1.966   2.432
 1441TIP3    H1 4329   0.508   1.918   2.403
 1441TIP3    H2 4330   0.364   1.899   2.443
 1442TIP3   OH2 4331  -0.058   1.172   2.799
 1442TIP3    H1 4332   0.030   1.197   2.771
 1442TIP3    H2 4333  -0.045   1.091   2.848
 1443TIP3   OH2 4334   2.678   4.772   0.253
 1443TIP3    H1 4335   2.691   4.758   0.159
 1443TIP3    H2 4336   2.645   4.862   0.260
 1444TIP3   OH2 4337   3.917   5.309   1.329
 1444TIP3    H1 4338   3.847   5.244   1.324
 1444TIP3    H2 4339   3.876   5.391   1.302
 1445TIP3   OH2 4340   3.667   3.218   1.714
 1445TIP3    H1 4341   3.659   3.207   1.619
 1445TIP3    H2 4342   3.641   3.134   1.750
 1446TIP3   OH2 4343   4.829   2.661   2.056
 1446TIP3    H1 4344   4.792   2.713   2.127
 1446TIP3    H2 4345   4.821   2.716   1.978
 1447TIP3   OH2 4346   5.953   2.019   0.502
 1447TIP3    H1 4347   5.998   2.047   0.582
 1447TIP3    H2 4348   6.012   1.955   0.462
 1448TIP3   OH2 4349   1.749   5.100   3.936
 1448TIP3    H1 4350   1.666   5.129   3.974
 1448TIP3    H2 4351   1.784   5.179   3.895
 1449TIP3   OH2 4352   4.044   5.640   1.647
 1449TIP3    H1 4353   4.018   5.549   1.633
 1449TIP3    H2 4354   3.965   5.683   1.680
 1450TIP3   OH2 4355   2.689   1.384   0.283
 1450TIP3    H1 4356   2.628   1.456   0.291
 1450TIP3    H2 4357   2.761   1.420   0.231
 1451TIP3   OH2 4358   5.102   1.327   1.122
 1451TIP3    H1 4359   5.047   1.391   1.076
 1451TIP3    H2 4360   5.079   1.335   1.214
 1452TIP3   OH2 4361   2.490   1.273   3.071
 1452TIP3    H1 4362   2.433   1.214   3.121
 1452TIP3    H2 4363   2.437   1.297   2.995
 1453TIP3   OH2 4364   2.645   0.904   5.026
 1453TIP3    H1 4365   2.652   0.997   5.048
 1453TIP3    H2 4366   2.700   0.860   5.090
 1454TIP3   OH2 4367  -0.009   0.414   3.932
 1454TIP3    H1 4368   0.001   0.321   3.950
 1454TIP3    H2 4369   0.036   0.457   4.005
 1455TIP3   OH2 4370   0.130   1.690   1.153
 1455TIP3    H1 4371   0.057   1.631   1.171
 1455TIP3    H2 4372   0.205   1.632   1.140
 1456TIP3   OH2 4373   5.701   5.816   0.939
 1456TIP3    H1 4374   5.670   5.794   0.851
 1456TIP3    H2 4375   5.637   5.777   0.998
 1457TIP3   OH2 4376   3.254   1.691   1.833
 1457TIP3    H1 4377   3.160   1.670   1.838
 1457TIP3    H2 4378   3.291   1.621   1.780
 1458TIP3   OH2 4379   0.498   5.244   1.430
 1458TIP3    H1 4380   0.592   5.256   1.445
 1458TIP3    H2 4381   0.490   5.228   1.336
 1459TIP3   OH2 4382   3.454   1.078   1.886
 1459TIP3    H1 4383   3.448   1.063   1.791
 1459TIP3    H2 4384   3.411   1.162   1.899
 1460TIP3   OH2 4385   3.481   2.165   2.722
 1460TIP3    H1 4386   3.425   2.217   2.780
 1460TIP3    H2 4387   3.569   2.202   2.735
 1461TIP3   OH2 4388   4.627   0.714   0.424
 1461TIP3    H1 4389   4.602   0.622   0.415
 1461TIP3    H2 4390   4.628   0.730   0.518
 1462TIP3   OH2 4391   4.541   2.343   3.515
 1462TIP3    H1 4392   4.466   2.397   3.539
 1462TIP3    H2 4393   4.517   2.303   3.432
 1463TIP3   OH2 4394   3.226   2.577   4.780
 1463TIP3    H1 4395   3.284   2.592   4.706
 1463TIP3    H2 4396   3.139   2.567   4.742
 1464TIP3   OH2 4397   5.932   3.545   3.803
 1464TIP3    H1 4398   5.904   3.538   3.895
 1464TIP3    H2 4399   5.850   3.549   3.753
 1465TIP3   OH2 4400   0.531   5.753   3.465
 1465TIP3    H1 4401   0.526   5.742   3.559
 1465TIP3    H2 4402   0.527   5.664   3.429
 1466TIP3   OH2 4403   0.052   5.557   3.135
 1466TIP3    H1 4404  -0.020   5.508   3.174
 1466TIP3    H2 4405   0.037   5.553   3.041
 1467TIP3   OH2 4406   3.593   1.832   4.505
 1467TIP3    H1 4407   3.520   1.770   4.499
 1467TIP3    H2 4408   3.553   1.917   4.487
 1468TIP3   OH2 4409   6.232   5.140   4.669
 1468TIP3    H1 4410   6.260   5.051   4.688
 1468TIP3    H2 4411   6.287   5.166   4.595
 1469TIP3   OH2 4412   4.948   3.203   0.244
 1469TIP3    H1 4413   5.042   3.220   0.238
 1469TIP3    H2 4414   4.921   3.245   0.326
 1470TIP3   OH2 4415   4.643   4.528   4.551
 1470TIP3    H1 4416   4.679   4.535   4.463
 1470TIP3    H2 4417   4.634   4.619   4.581
 1471TIP3   OH2 4418   5.648   2.469   0.799
 1471TIP3    H1 4419   5.606   2.395   0.755
 1471TIP3    H2 4420   5.689   2.518   0.728
 1472TIP3   OH2 4421   6.253   5.835   1.078
 1472TIP3    H1 4422   6.165   5.868   1.058
 1472TIP3    H2 4423   6.285   5.801   0.994
 1473TIP3   OH2 4424   0.104   2.270   4.265
 1473TIP3    H1 4425   0.114   2.237   4.354
 1473TIP3    H2 4426   0.194   2.284   4.235
 1474TIP3   OH2 4427   3.432   3.461   5.065
 1474TIP3    H1 4428   3.475   3.400   5.125
 1474TIP3    H2 4429   3.404   3.406   4.991
 1475TIP3   OH2 4430   2.841   5.817   4.906
 1475TIP3    H1 4431   2.884   5.879   4.965
 1475TIP3    H2 4432   2.888   5.827   4.823
 1476TIP3   OH2 4433   4.120   0.481   3.245
 1476TIP3    H1 4434   4.183   0.428   3.294
 1476TIP3    H2 4435   4.136   0.571   3.273
 1477TIP3   OH2 4436   2.364   2.804   1.718
 1477TIP3    H1 4437   2.292   2.787   1.780
 1477TIP3    H2 4438   2.442   2.769   1.761
 1478TIP3   OH2 4439   1.691   2.985   0.267
 1478TIP3    H1 4440   1.625   3.054   0.270
 1478TIP3    H2 4441   1.711   2.974   0.174
 1479TIP3   OH2 4442   5.944   0.797   1.468
 1479TIP3    H1 4443   5.990   0.753   1.396
 1479TIP3    H2 4444   6.014   0.834   1.522
 1480TIP3   OH2 4445   5.029   4.982   3.468
 1480TIP3    H1 4446   5.103   5.034   3.436
 1480TIP3    H2 4447   5.070   4.901   3.500
 1481TIP3   OH2 4448   4.723   3.178   3.360
 1481TIP3    H1 4449   4.767   3.211   3.282
 1481TIP3    H2 4450   4.642   3.139   3.327
 1482TIP3   OH2 4451   1.989   0.299   0.506
 1482TIP3    H1 4452   2.031   0.351   0.574
 1482TIP3    H2 4453   2.046   0.309   0.429
 1483TIP3   OH2 4454   2.180   0.943   4.545
 1483TIP3    H1 4455   2.097   0.910   4.511
 1483TIP3    H2 4456   2.221   0.867   4.586
 1484TIP3   OH2 4457   3.660   0.388   1.277
 1484TIP3    H1 4458   3.677   0.311   1.224
 1484TIP3    H2 4459   3.681   0.361   1.367
 1485TIP3   OH2 4460   2.003   0.382   2.525
 1485TIP3    H1 4461   1.914   0.413   2.505
 1485TIP3    H2 4462   2.059   0.435   2.469
 1486TIP3   OH2 4463   3.902   1.138   3.339
 1486TIP3    H1 4464   3.876   1.046   3.343
 1486TIP3    H2 4465   3.838   1.184   3.393
 1487TIP3   OH2 4466   3.727   2.211   3.985
 1487TIP3    H1 4467   3.700   2.149   3.918
 1487TIP3    H2 4468   3.821   2.197   3.993
 1488TIP3   OH2 4469   0.576   5.223   1.712
 1488TIP3    H1 4470   0.542   5.240   1.624
 1488TIP3    H2 4471   0.607   5.308   1.742
 1489TIP3   OH2 4472   0.130   4.257   0.726
 1489TIP3    H1 4473   0.178   4.332   0.761
 1489TIP3    H2 4474   0.085   4.220   0.803
 1490TIP3   OH2 4475   0.286   0.225   3.086
 1490TIP3    H1 4476   0.241   0.184   3.160
 1490TIP3    H2 4477   0.215   0.252   3.028
 1491TIP3   OH2 4478   0.828   4.834   0.557
 1491TIP3    H1 4479   0.744   4.847   0.514
 1491TIP3    H2 4480   0.838   4.909   0.615
 1492TIP3   OH2 4481   3.007   4.269   5.013
 1492TIP3    H1 4482   2.968   4.289   5.098
 1492TIP3    H2 4483   2.975   4.339   4.955
 1493TIP3   OH2 4484   2.145   0.065   2.076
 1493TIP3    H1 4485   2.082   0.119   2.124
 1493TIP3    H2 4486   2.218   0.124   2.059
 1494TIP3   OH2 4487   1.782   4.719   5.094
 1494TIP3    H1 4488   1.773   4.782   5.024
 1494TIP3    H2 4489   1.864   4.744   5.138
 1495TIP3   OH2 4490   4.236   0.977   2.005
 1495TIP3    H1 4491   4.207   1.056   2.051
 1495TIP3    H2 4492   4.234   1.001   1.912
 1496TIP3   OH2 4493   5.667   2.547   0.494
 1496TIP3    H1 4494   5.752   2.504   0.487
 1496TIP3    H2 4495   5.605   2.482   0.461
 1497TIP3   OH2 4496   4.993   0.949   0.525
 1497TIP3    H1 4497   5.026   0.996   0.602
 1497TIP3    H2 4498   4.951   0.871   0.561
 1498TIP3   OH2 4499   2.230   1.461   4.345
 1498TIP3    H1 4500   2.220   1.369   4.371
 1498TIP3    H2 4501   2.317   1.465   4.306
 1499TIP3   OH2 4502   3.307   2.265   2.088
 1499TIP3    H1 4503   3.275   2.320   2.160
 1499TIP3    H2 4504   3.334   2.183   2.131
 1500TIP3   OH2 4505   5.119   3.891   4.217
 1500TIP3    H1 4506   5.138   3.985   4.207
 1500TIP3    H2 4507   5.036   3.879   4.172
 1501TIP3   OH2 4508   4.847   1.900   1.832
 1501TIP3    H1 4509   4.757   1.924   1.810
 1501TIP3    H2 4510   4.839   1.854   1.916
 1502TIP3   OH2 4511   5.958   4.500   3.883
 1502TIP3    H1 4512   5.869   4.497   3.917
 1502TIP3    H2 4513   5.950   4.472   3.792
 1503TIP3   OH2 4514   0.874   1.326   0.676
 1503TIP3    H1 4515   0.942   1.271   0.637
 1503TIP3    H2 4516   0.844   1.277   0.752
 1504TIP3   OH2 4517   2.480   0.343   1.997
 1504TIP3    H1 4518   2.386   0.332   2.014
 1504TIP3    H2 4519   2.491   0.438   1.989
 1505TIP3   OH2 4520   5.116   1.392   1.390
 1505TIP3    H1 4521   5.033   1.349   1.413
 1505TIP3    H2 4522   5.181   1.348   1.444
 1506TIP3   OH2 4523   2.477   5.861   2.552
 1506TIP3    H1 4524   2.441   5.840   2.466
 1506TIP3    H2 4525   2.566   5.891   2.534
 1507TIP3   OH2 4526   4.187   4.159   0.642
 1507TIP3    H1 4527   4.231   4.199   0.566
 1507TIP3    H2 4528   4.259   4.136   0.701
 1508TIP3   OH2 4529   5.515   0.620   3.230
 1508TIP3    H1 4530   5.510   0.598   3.323
 1508TIP3    H2 4531   5.580   0.691   3.226
 1509TIP3   OH2 4532   1.257   0.490   4.496
 1509TIP3    H1 4533   1.329   0.484   4.559
 1509TIP3    H2 4534   1.235   0.584   4.494
 1510TIP3   OH2 4535   2.905   3.815   2.072
 1510TIP3    H1 4536   2.860   3.876   2.130
 1510TIP3    H2 4537   2.836   3.754   2.045
 1511TIP3   OH2 4538   0.425   5.882   0.769
 1511TIP3    H1 4539   0.373   5.804   0.751
 1511TIP3    H2 4540   0.450   5.874   0.861
 1512TIP3   OH2 4541   5.689   4.914   2.436
 1512TIP3    H1 4542   5.647   4.895   2.520
 1512TIP3    H2 4543   5.734   4.833   2.412
 1513TIP3   OH2 4544   6.230   1.889   1.905
 1513TIP3    H1 4545   6.213   1.875   1.998
 1513TIP3    H2 4546   6.223   1.802   1.866
 1514TIP3   OH2 4547   3.776   3.549   0.030
 1514TIP3    H1 4548   3.684   3.521   0.024
 1514TIP3    H2 4549   3.791   3.600  -0.049
 1515TIP3   OH2 4550   2.268   5.531   4.313
 1515TIP3    H1 4551   2.185   5.498   4.346
 1515TIP3    H2 4552   2.266   5.625   4.331
 1516TIP3   OH2 4553   4.363   2.172   0.486
 1516TIP3    H1 4554   4.392   2.083   0.503
 1516TIP3    H2 4555   4.316   2.198   0.565
 1517TIP3   OH2 4556   4.528   1.482   4.263
 1517TIP3    H1 4557   4.463   1.529   4.211
 1517TIP3    H2 4558   4.596   1.546   4.281
 1518TIP3   OH2 4559   2.992   0.681   2.309
 1518TIP3    H1 4560   2.979   0.731   2.389
 1518TIP3    H2 4561   3.058   0.730   2.260
 1519TIP3   OH2 4562   4.627   1.275   2.733
 1519TIP3    H1 4563   4.702   1.329   2.757
 1519TIP3    H2 4564   4.551   1.320   2.771
 1520TIP3   OH2 4565   0.124   2.273   0.103
 1520TIP3    H1 4566   0.077   2.193   0.079
 1520TIP3    H2 4567   0.159   2.305   0.019
 1521TIP3   OH2 4568   4.852   0.251   0.415
 1521TIP3    H1 4569   4.815   0.239   0.503
 1521TIP3    H2 4570   4.915   0.180   0.405
 1522TIP3   OH2 4571   0.121   0.246   0.575
 1522TIP3    H1 4572   0.043   0.240   0.520
 1522TIP3    H2 4573   0.166   0.162   0.561
 1523TIP3   OH2 4574   1.240   1.282   3.900
 1523TIP3    H1 4575   1.246   1.195   3.940
 1523TIP3    H2 4576   1.294   1.338   3.955
 1524TIP3   OH2 4577   1.100   2.858   0.591
 1524TIP3    H1 4578   1.092   2.913   0.513
 1524TIP3    H2 4579   1.177   2.804   0.575
 1525TIP3   OH2 4580   4.819   2.974   4.048
 1525TIP3    H1 4581   4.771   2.932   4.119
 1525TIP3    H2 4582   4.835   2.904   3.985
 1526TIP3   OH2 4583   1.718   2.578   2.052
 1526TIP3    H1 4584   1.697   2.488   2.079
 1526TIP3    H2 4585   1.801   2.597   2.097
 1527TIP3   OH2 4586   1.194   0.221   1.586
 1527TIP3    H1 4587   1.226   0.223   1.677
 1527TIP3    H2 4588   1.099   0.213   1.594
 1528TIP3   OH2 4589   5.165   5.925   3.700
 1528TIP3    H1 4590   5.074   5.921   3.673
 1528TIP3    H2 4591   5.214   5.893   3.624
 1529TIP3   OH2 4592   0.036   0.939   2.898
 1529TIP3    H1 4593  -0.006   0.902   2.976
 1529TIP3    H2 4594   0.111   0.882   2.882
 1530TIP3   OH2 4595   0.505   0.300   0.200
 1530TIP3    H1 4596   0.554   0.222   0.226
 1530TIP3    H2 4597   0.572   0.367   0.185
 1531TIP3   OH2 4598   5.202   2.216   3.307
 1531TIP3    H1 4599   5.217   2.290   3.248
 1531TIP3    H2 4600   5.185   2.255   3.392
 1532TIP3   OH2 4601   4.024   0.679   2.902
 1532TIP3    H1 4602   3.978   0.763   2.907
 1532TIP3    H2 4603   4.034   0.652   2.993
 1533TIP3   OH2 4604   4.263   4.874   4.239
 1533TIP3    H1 4605   4.199   4.927   4.287
 1533TIP3    H2 4606   4.323   4.938   4.201
 1534TIP3   OH2 4607   2.170   0.532   1.868
 1534TIP3    H1 4608   2.079   0.501   1.866
 1534TIP3    H2 4609   2.214   0.472   1.927
 1535TIP3   OH2 4610   2.511   1.385   0.040
 1535TIP3    H1 4611   2.478   1.468   0.073
 1535TIP3    H2 4612   2.600   1.378   0.076
 1536TIP3   OH2 4613   0.676   1.172   0.865
 1536TIP3    H1 4614   0.596   1.222   0.847
 1536TIP3    H2 4615   0.681   1.108   0.795
 1537TIP3   OH2 4616   5.803   4.887   1.038
 1537TIP3    H1 4617   5.880   4.902   1.094
 1537TIP3    H2 4618   5.763   4.808   1.073
 1538TIP3   OH2 4619   3.103   3.511   4.903
 1538TIP3    H1 4620   3.077   3.519   4.995
 1538TIP3    H2 4621   3.170   3.442   4.904
 1539TIP3   OH2 4622   4.446   1.240   2.059
 1539TIP3    H1 4623   4.441   1.256   1.965
 1539TIP3    H2 4624   4.354   1.234   2.087
 1540TIP3   OH2 4625   4.043   4.740   4.527
 1540TIP3    H1 4626   4.082   4.814   4.573
 1540TIP3    H2 4627   4.079   4.663   4.570
 1541TIP3   OH2 4628   3.357   1.098   2.259
 1541TIP3    H1 4629   3.277   1.129   2.302
 1541TIP3    H2 4630   3.325   1.052   2.181
 1542TIP3   OH2 4631   4.589   5.873   1.439
 1542TIP3    H1 4632   4.624   5.799   1.488
 1542TIP3    H2 4633   4.526   5.835   1.378
 1543TIP3   OH2 4634   2.602   5.913   3.607
 1543TIP3    H1 4635   2.530   5.871   3.653
 1543TIP3    H2 4636   2.580   6.006   3.609
 1544TIP3   OH2 4637   2.285   0.236   1.644
 1544TIP3    H1 4638   2.193   0.211   1.641
 1544TIP3    H2 4639   2.317   0.223   1.555
 1545TIP3   OH2 4640   4.672   0.167   3.037
 1545TIP3    H1 4641   4.707   0.167   2.948
 1545TIP3    H2 4642   4.739   0.124   3.090
 1546TIP3   OH2 4643   3.250   4.667   1.030
 1546TIP3    H1 4644   3.334   4.691   1.068
 1546TIP3    H2 4645   3.227   4.584   1.073
 1547TIP3   OH2 4646   6.372   5.441   2.882
 1547TIP3    H1 4647   6.305   5.456   2.816
 1547TIP3    H2 4648   6.371   5.347   2.897
 1548TIP3   OH2 4649   2.814   5.237   0.705
 1548TIP3    H1 4650   2.894   5.267   0.747
 1548TIP3    H2 4651   2.792   5.155   0.751
 1549TIP3   OH2 4652   5.857   1.222   4.265
 1549TIP3    H1 4653   5.899   1.271   4.336
 1549TIP3    H2 4654   5.906   1.140   4.260
 1550TIP3   OH2 4655   5.432  -0.025   4.409
 1550TIP3    H1 4656   5.457   0.067   4.397
 1550TIP3    H2 4657   5.449  -0.066   4.325
 1551TIP3   OH2 4658   2.330   5.607   1.603
 1551TIP3    H1 4659   2.308   5.548   1.675
 1551TIP3    H2 4660   2.424   5.595   1.589
 1552TIP3   OH2 4661   2.705   4.842   2.566
 1552TIP3    H1 4662   2.768   4.864   2.635
 1552TIP3    H2 4663   2.682   4.751   2.585
 1553TIP3   OH2 4664   4.345   5.189   3.429
 1553TIP3    H1 4665   4.348   5.107   3.477
 1553TIP3    H2 4666   4.368   5.166   3.340
 1554TIP3   OH2 4667   1.856   1.395   3.636
 1554TIP3    H1 4668   1.911   1.361   3.566
 1554TIP3    H2 4669   1.892   1.356   3.716
 1555TIP3   OH2 4670   1.761   0.815   4.684
 1555TIP3    H1 4671   1.830   0.771   4.733
 1555TIP3    H2 4672   1.735   0.888   4.740
 1556TIP3   OH2 4673   0.590   1.149   3.771
 1556TIP3    H1 4674   0.624   1.084   3.709
 1556TIP3    H2 4675   0.542   1.098   3.835
 1557TIP3   OH2 4676   3.726   5.915   2.706
 1557TIP3    H1 4677   3.783   5.907   2.630
 1557TIP3    H2 4678   3.722   5.827   2.742
 1558TIP3   OH2 4679   6.115   0.657   4.996
 1558TIP3    H1 4680   6.071   0.661   4.911
 1558TIP3    H2 4681   6.155   0.744   5.006
 1559TIP3   OH2 4682   3.770   2.242   5.000
 1559TIP3    H1 4683   3.752   2.151   5.024
 1559TIP3    H2 4684   3.865   2.250   5.009
 1560TIP3   OH2 4685   4.324   0.146   2.090
 1560TIP3    H1 4686   4.367   0.221   2.048
 1560TIP3    H2 4687   4.232   0.153   2.064
 1561TIP3   OH2 4688   0.003   4.572   2.287
 1561TIP3    H1 4689  -0.018   4.489   2.329
 1561TIP3    H2 4690   0.081   4.555   2.235
 1562TIP3   OH2 4691   2.411   4.925   3.014
 1562TIP3    H1 4692   2.390   4.843   2.971
 1562TIP3    H2 4693   2.410   4.990   2.944
 1563TIP3   OH2 4694   3.699   0.846   2.570
 1563TIP3    H1 4695   3.784   0.805   2.552
 1563TIP3    H2 4696   3.635   0.779   2.548
 1564TIP3   OH2 4697   4.925   1.728   3.284
 1564TIP3    H1 4698   4.946   1.821   3.291
 1564TIP3    H2 4699   4.866   1.711   3.357
 1565TIP3   OH2 4700   6.146   2.060   1.705
 1565TIP3    H1 4701   6.181   2.030   1.789
 1565TIP3    H2 4702   6.070   2.004   1.689
 1566TIP3   OH2 4703   1.782   3.236   3.201
 1566TIP3    H1 4704   1.769   3.331   3.203
 1566TIP3    H2 4705   1.697   3.201   3.173
 1567TIP3   OH2 4706   3.366   1.684   2.972
 1567TIP3    H1 4707   3.309   1.724   2.906
 1567TIP3    H2 4708   3.437   1.748   2.984
 1568TIP3   OH2 4709   1.435   0.270   1.239
 1568TIP3    H1 4710   1.366   0.302   1.181
 1568TIP3    H2 4711   1.395   0.197   1.286
 1569TIP3   OH2 4712   4.519   2.417   0.525
 1569TIP3    H1 4713   4.484   2.336   0.488
 1569TIP3    H2 4714   4.552   2.465   0.450
 1570TIP3   OH2 4715   5.964   3.139   0.501
 1570TIP3    H1 4716   5.947   3.187   0.420
 1570TIP3    H2 4717   5.945   3.048   0.478
 1571TIP3   OH2 4718   4.197   0.593   2.179
 1571TIP3    H1 4719   4.119   0.556   2.220
 1571TIP3    H2 4720   4.252   0.619   2.253
 1572TIP3   OH2 4721   2.096   3.921   4.059
 1572TIP3    H1 4722   2.114   3.976   3.983
 1572TIP3    H2 4723   2.078   3.834   4.022
 1573TIP3   OH2 4724   6.148   4.394   2.668
 1573TIP3    H1 4725   6.146   4.309   2.712
 1573TIP3    H2 4726   6.238   4.424   2.679
 1574TIP3   OH2 4727   1.468   5.606   4.433
 1574TIP3    H1 4728   1.552   5.600   4.389
 1574TIP3    H2 4729   1.412   5.543   4.387
 1575TIP3   OH2 4730   3.232   0.918   1.505
 1575TIP3    H1 4731   3.268   0.861   1.572
 1575TIP3    H2 4732   3.146   0.944   1.537
 1576TIP3   OH2 4733   2.224   4.318   2.594
 1576TIP3    H1 4734   2.263   4.383   2.653
 1576TIP3    H2 4735   2.253   4.234   2.630
 1577TIP3   OH2 4736   2.827   3.074   3.618
 1577TIP3    H1 4737   2.752   3.058   3.561
 1577TIP3    H2 4738   2.896   3.106   3.560
 1578TIP3   OH2 4739   4.343   1.647   2.180
 1578TIP3    H1 4740   4.408   1.610   2.121
 1578TIP3    H2 4741   4.382   1.638   2.267
 1579TIP3   OH2 4742   0.170   2.157   2.043
 1579TIP3    H1 4743   0.207   2.233   1.998
 1579TIP3    H2 4744   0.216   2.154   2.127
 1580TIP3   OH2 4745   5.316   0.655   0.595
 1580TIP3    H1 4746   5.405   0.634   0.569
 1580TIP3    H2 4747   5.268   0.668   0.513
 1581TIP3   OH2 4748   2.845   4.007   4.639
 1581TIP3    H1 4749   2.852   4.012   4.735
 1581TIP3    H2 4750   2.901   4.078   4.608
 1582TIP3   OH2 4751   2.005   3.855   0.276
 1582TIP3    H1 4752   2.045   3.918   0.336
 1582TIP3    H2 4753   1.913   3.881   0.271
 1583TIP3   OH2 4754   5.224   0.674   0.323
 1583TIP3    H1 4755   5.171   0.594   0.320
 1583TIP3    H2 4756   5.167   0.742   0.288
 1584TIP3   OH2 4757   2.389   2.098   3.864
 1584TIP3    H1 4758   2.323   2.064   3.925
 1584TIP3    H2 4759   2.422   2.020   3.819
 1585TIP3   OH2 4760   5.004   1.067   0.768
 1585TIP3    H1 4761   4.937   1.131   0.795
 1585TIP3    H2 4762   5.044   1.039   0.850
 1586TIP3   OH2 4763   5.667   3.795   0.843
 1586TIP3    H1 4764   5.580   3.835   0.853
 1586TIP3    H2 4765   5.649   3.703   0.824
 1587TIP3   OH2 4766   4.978   5.761   1.607
 1587TIP3    H1 4767   4.950   5.794   1.522
 1587TIP3    H2 4768   5.018   5.676   1.589
 1588TIP3   OH2 4769   4.814   2.033   2.908
 1588TIP3    H1 4770   4.772   2.105   2.861
 1588TIP3    H2 4771   4.904   2.032   2.874
 1589TIP3   OH2 4772   4.607   3.697   1.761
 1589TIP3    H1 4773   4.607   3.608   1.724
 1589TIP3    H2 4774   4.683   3.698   1.820
 1590TIP3   OH2 4775   0.256   0.887   1.908
 1590TIP3    H1 4776   0.262   0.839   1.992
 1590TIP3    H2 4777   0.316   0.961   1.919
 1591TIP3   OH2 4778   5.819   2.505   2.202
 1591TIP3    H1 4779   5.837   2.476   2.113
 1591TIP3    H2 4780   5.795   2.597   2.193
 1592TIP3   OH2 4781   3.126   3.163   4.660
 1592TIP3    H1 4782   3.055   3.211   4.703
 1592TIP3    H2 4783   3.111   3.176   4.567
 1593TIP3   OH2 4784   0.319   3.127   0.569
 1593TIP3    H1 4785   0.313   3.058   0.502
 1593TIP3    H2 4786   0.392   3.100   0.624
 1594TIP3   OH2 4787   1.358   4.068   2.301
 1594TIP3    H1 4788   1.445   4.081   2.265
 1594TIP3    H2 4789   1.326   3.988   2.260
 1595TIP3   OH2 4790   0.342   2.360   4.173
 1595TIP3    H1 4791   0.387   2.294   4.225
 1595TIP3    H2 4792   0.372   2.345   4.084
 1596TIP3   OH2 4793   0.099   4.105   3.613
 1596TIP3    H1 4794   0.047   4.152   3.548
 1596TIP3    H2 4795   0.130   4.173   3.673
 1597TIP3   OH2 4796   2.783   4.700   2.202
 1597TIP3    H1 4797   2.829   4.711   2.285
 1597TIP3    H2 4798   2.691   4.714   2.223
 1598TIP3   OH2 4799   2.746   3.910   5.122
 1598TIP3    H1 4800   2.749   3.823   5.163
 1598TIP3    H2 4801   2.754   3.971   5.195
 1599TIP3   OH2 4802   3.085   5.579   4.014
 1599TIP3    H1 4803   3.071   5.499   4.065
 1599TIP3    H2 4804   3.008   5.632   4.031
 1600TIP3   OH2 4805   6.133   3.544   2.470
 1600TIP3    H1 4806   6.088   3.529   2.553
 1600TIP3    H2 4807   6.176   3.629   2.481
 1601TIP3   OH2 4808   5.212   3.920   2.642
 1601TIP3    H1 4809   5.123   3.917   2.607
 1601TIP3    H2 4810   5.255   3.843   2.605
 1602TIP3   OH2 4811   6.127   5.436   1.038
 1602TIP3    H1 4812   6.056   5.489   1.002
 1602TIP3    H2 4813   6.098   5.412   1.126
 1603TIP3   OH2 4814   0.712   2.386   1.907
 1603TIP3    H1 4815   0.713   2.452   1.839
 1603TIP3    H2 4816   0.657   2.423   1.976
 1604TIP3   OH2 4817   1.873   2.037   4.939
 1604TIP3    H1 4818   1.943   1.971   4.943
 1604TIP3    H2 4819   1.886   2.089   5.019
 1605TIP3   OH2 4820   5.654   1.052   1.940
 1605TIP3    H1 4821   5.678   0.963   1.912
 1605TIP3    H2 4822   5.736   1.090   1.971
 1606TIP3   OH2 4823   2.939   0.022   4.707
 1606TIP3    H1 4824   2.982  -0.043   4.652
 1606TIP3    H2 4825   3.007   0.051   4.768
 1607TIP3   OH2 4826   6.269   5.035   0.644
 1607TIP3    H1 4827   6.315   4.961   0.606
 1607TIP3    H2 4828   6.201   4.996   0.699
 1608TIP3   OH2 4829   2.145   0.196   1.024
 1608TIP3    H1 4830   2.060   0.214   0.983
 1608TIP3    H2 4831   2.124   0.171   1.113
 1609TIP3   OH2 4832   1.897   3.584   0.490
 1609TIP3    H1 4833   1.861   3.614   0.573
 1609TIP3    H2 4834   1.932   3.496   0.509
 1610TIP3   OH2 4835   0.187   4.587   3.536
 1610TIP3    H1 4836   0.185   4.581   3.632
 1610TIP3    H2 4837   0.116   4.648   3.515
 1611TIP3   OH2 4838   2.146   2.430   3.868
 1611TIP3    H1 4839   2.232   2.406   3.904
 1611TIP3    H2 4840   2.165   2.462   3.780
 1612TIP3   OH2 4841   3.066   3.055   0.966
 1612TIP3    H1 4842   3.028   2.998   0.899
 1612TIP3    H2 4843   3.152   3.080   0.931
 1613TIP3   OH2 4844   0.287   0.015   2.529
 1613TIP3    H1 4845   0.382   0.022   2.527
 1613TIP3    H2 4846   0.256   0.101   2.501
 1614TIP3   OH2 4847   5.210   0.124   1.478
 1614TIP3    H1 4848   5.204   0.031   1.501
 1614TIP3    H2 4849   5.149   0.135   1.406
 1615TIP3   OH2 4850   1.242   2.320   3.550
 1615TIP3    H1 4851   1.268   2.228   3.553
 1615TIP3    H2 4852   1.322   2.366   3.524
 1616TIP3   OH2 4853   4.486   2.179   1.852
 1616TIP3    H1 4854   4.543   2.137   1.787
 1616TIP3    H2 4855   4.397   2.155   1.825
 1617TIP3   OH2 4856   1.893   2.320   3.418
 1617TIP3    H1 4857   1.941   2.381   3.362
 1617TIP3    H2 4858   1.815   2.298   3.368
 1618TIP3   OH2 4859   2.459   3.327   2.102
 1618TIP3    H1 4860   2.416   3.349   2.020
 1618TIP3    H2 4861   2.527   3.264   2.077
 1619TIP3   OH2 4862   2.714   0.223   1.666
 1619TIP3    H1 4863   2.663   0.292   1.623
 1619TIP3    H2 4864   2.798   0.265   1.686
 1620TIP3   OH2 4865   0.900   3.657   0.635
 1620TIP3    H1 4866   0.838   3.729   0.644
 1620TIP3    H2 4867   0.865   3.587   0.691
 1621TIP3   OH2 4868   1.054   0.534   3.457
 1621TIP3    H1 4869   1.083   0.444   3.440
 1621TIP3    H2 4870   1.081   0.551   3.547
 1622TIP3   OH2 4871   1.374   3.800   4.337
 1622TIP3    H1 4872   1.344   3.716   4.372
 1622TIP3    H2 4873   1.301   3.860   4.351
 1623TIP3   OH2 4874   5.706   2.780   2.778
 1623TIP3    H1 4875   5.713   2.694   2.819
 1623TIP3    H2 4876   5.795   2.801   2.751
 1624TIP3   OH2 4877   5.704   4.358   4.896
 1624TIP3    H1 4878   5.754   4.392   4.822
 1624TIP3    H2 4879   5.684   4.436   4.948
 1625TIP3   OH2 4880   6.198   0.628   3.815
 1625TIP3    H1 4881   6.180   0.672   3.899
 1625TIP3    H2 4882   6.244   0.548   3.840
 1626TIP3   OH2 4883   2.273   4.846   1.677
 1626TIP3    H1 4884   2.271   4.940   1.657
 1626TIP3    H2 4885   2.362   4.819   1.653
 1627TIP3   OH2 4886   5.720   2.339   3.463
 1627TIP3    H1 4887   5.763   2.267   3.510
 1627TIP3    H2 4888   5.715   2.410   3.527
 1628TIP3   OH2 4889   4.248   4.990   0.823
 1628TIP3    H1 4890   4.199   4.990   0.741
 1628TIP3    H2 4891   4.184   4.964   0.889
 1629TIP3   OH2 4892   4.794   0.049   1.577
 1629TIP3    H1 4893   4.863   0.106   1.543
 1629TIP3    H2 4894   4.792   0.067   1.671
 1630TIP3   OH2 4895   5.856   1.213   1.533
 1630TIP3    H1 4896   5.887   1.253   1.452
 1630TIP3    H2 4897   5.802   1.139   1.504
 1631TIP3   OH2 4898   6.042   2.398   2.369
 1631TIP3    H1 4899   5.956   2.430   2.343
 1631TIP3    H2 4900   6.069   2.342   2.297
 1632TIP3   OH2 4901   3.217   5.274   0.954
 1632TIP3    H1 4902   3.145   5.274   1.018
 1632TIP3    H2 4903   3.283   5.332   0.991
 1633TIP3   OH2 4904   3.916   5.791   2.235
 1633TIP3    H1 4905   3.825   5.767   2.218
 1633TIP3    H2 4906   3.950   5.821   2.151
 1634TIP3   OH2 4907   4.656   3.106   0.493
 1634TIP3    H1 4908   4.606   3.082   0.572
 1634TIP3    H2 4909   4.725   3.041   0.489
 1635TIP3   OH2 4910   0.083   2.441   1.942
 1635TIP3    H1 4911   0.074   2.366   2.001
 1635TIP3    H2 4912   0.072   2.404   1.854
 1636TIP3   OH2 4913   0.403   5.815   0.380
 1636TIP3    H1 4914   0.362   5.737   0.417
 1636TIP3    H2 4915   0.334   5.856   0.328
 1637TIP3   OH2 4916   2.436   0.719   0.251
 1637TIP3    H1 4917   2.429   0.804   0.208
 1637TIP3    H2 4918   2.502   0.672   0.200
 1638TIP3   OH2 4919   4.165   3.740   4.979
 1638TIP3    H1 4920   4.231   3.794   4.936
 1638TIP3    H2 4921   4.207   3.655   4.992
 1639TIP3   OH2 4922   6.318   3.634   3.967
 1639TIP3    H1 4923   6.402   3.631   3.921
 1639TIP3    H2 4924   6.335   3.686   4.046
 1640TIP3   OH2 4925   4.459   0.419   3.955
 1640TIP3    H1 4926   4.386   0.424   3.894
 1640TIP3    H2 4927   4.448   0.495   4.012
 1641TIP3   OH2 4928   2.721   5.465   5.103
 1641TIP3    H1 4929   2.768   5.450   5.021
 1641TIP3    H2 4930   2.758   5.547   5.137
 1642TIP3   OH2 4931   3.712   4.188   3.830
 1642TIP3    H1 4932   3.628   4.181   3.786
 1642TIP3    H2 4933   3.772   4.136   3.777
 1643TIP3   OH2 4934   1.943   1.543   0.310
 1643TIP3    H1 4935   1.915   1.630   0.341
 1643TIP3    H2 4936   1.919   1.484   0.382
 1644TIP3   OH2 4937   3.390   4.607   2.623
 1644TIP3    H1 4938   3.405   4.539   2.557
 1644TIP3    H2 4939   3.475   4.650   2.634
 1645TIP3   OH2 4940   6.157   3.686   3.760
 1645TIP3    H1 4941   6.074   3.640   3.766
 1645TIP3    H2 4942   6.195   3.678   3.847
 1646TIP3   OH2 4943   1.084   3.029   4.159
 1646TIP3    H1 4944   1.091   2.936   4.183
 1646TIP3    H2 4945   0.990   3.045   4.152
 1647TIP3   OH2 4946   2.330   5.830   1.281
 1647TIP3    H1 4947   2.302   5.830   1.372
 1647TIP3    H2 4948   2.425   5.826   1.285
 1648TIP3   OH2 4949   3.778   3.954   3.419
 1648TIP3    H1 4950   3.804   3.862   3.418
 1648TIP3    H2 4951   3.782   3.981   3.327
 1649TIP3   OH2 4952   3.613   3.502   1.436
 1649TIP3    H1 4953   3.566   3.422   1.458
 1649TIP3    H2 4954   3.544   3.568   1.426
 1650TIP3   OH2 4955   0.809   3.108   3.019
 1650TIP3    H1 4956   0.853   3.163   3.084
 1650TIP3    H2 4957   0.762   3.171   2.963
 1651TIP3   OH2 4958   2.429   3.150   3.836
 1651TIP3    H1 4959   2.523   3.165   3.827
 1651TIP3    H2 4960   2.410   3.175   3.926
 1652TIP3   OH2 4961   3.284   0.435   2.100
 1652TIP3    H1 4962   3.207   0.428   2.156
 1652TIP3    H2 4963   3.334   0.355   2.117
 1653TIP3   OH2 4964   3.565   0.213   0.252
 1653TIP3    H1 4965   3.583   0.305   0.273
 1653TIP3    H2 4966   3.562   0.170   0.338
 1654TIP3   OH2 4967   0.284   2.639   4.103
 1654TIP3    H1 4968   0.371   2.676   4.092
 1654TIP3    H2 4969   0.297   2.562   4.159
 1655TIP3   OH2 4970   5.103   1.057   4.237
 1655TIP3    H1 4971   5.187   1.030   4.202
 1655TIP3    H2 4972   5.045   1.061   4.161
 1656TIP3   OH2 4973   5.613   3.638   3.787
 1656TIP3    H1 4974   5.519   3.626   3.805
 1656TIP3    H2 4975   5.627   3.732   3.793
 1657TIP3   OH2 4976   0.501   1.918   1.419
 1657TIP3    H1 4977   0.471   2.009   1.424
 1657TIP3    H2 4978   0.475   1.889   1.332
 1658TIP3   OH2 4979   1.152   3.528   4.652
 1658TIP3    H1 4980   1.174   3.532   4.559
 1658TIP3    H2 4981   1.226   3.570   4.695
 1659TIP3   OH2 4982   1.119   3.660   1.092
 1659TIP3    H1 4983   1.171   3.634   1.168
 1659TIP3    H2 4984   1.147   3.602   1.022
 1660TIP3   OH2 4985   2.817   1.966   0.747
 1660TIP3    H1 4986   2.843   2.056   0.767
 1660TIP3    H2 4987   2.831   1.918   0.828
 1661TIP3   OH2 4988   5.461   3.706   1.265
 1661TIP3    H1 4989   5.476   3.787   1.216
 1661TIP3    H2 4990   5.396   3.729   1.331
 1662TIP3   OH2 4991   0.335   2.862   0.113
 1662TIP3    H1 4992   0.426   2.832   0.112
 1662TIP3    H2 4993   0.285   2.784   0.087
 1663TIP3   OH2 4994   2.102   0.614   3.691
 1663TIP3    H1 4995   2.073   0.527   3.717
 1663TIP3    H2 4996   2.195   0.604   3.672
 1664TIP3   OH2 4997   5.708   1.052   2.847
 1664TIP3    H1 4998   5.659   1.106   2.910
 1664TIP3    H2 4999   5.799   1.079   2.859
 1665TIP3   OH2 5000   0.342   0.157   1.128
 1665TIP3    H1 5001   0.332   0.178   1.035
 1665TIP3    H2 5002   0.340   0.242   1.172
 1666TIP3   OH2 5003   2.216   5.435   3.696
 1666TIP3    H1 5004   2.169   5.362   3.657
 1666TIP3    H2 5005   2.194   5.510   3.640
 1667TIP3   OH2 5006   3.610   3.874   1.267
 1667TIP3    H1 5007   3.641   3.927   1.341
 1667TIP3    H2 5008   3.545   3.816   1.304
 1668TIP3   OH2 5009   0.905   0.942   2.508
 1668TIP3    H1 5010   0.953   0.949   2.425
 1668TIP3    H2 5011   0.898   1.033   2.539
 1669TIP3   OH2 5012   4.497   0.881   2.111
 1669TIP3    H1 5013   4.411   0.901   2.073
 1669TIP3    H2 5014   4.540   0.967   2.118
 1670TIP3   OH2 5015   1.131   3.797   4.454
 1670TIP3    H1 5016   1.096   3.881   4.482
 1670TIP3    H2 5017   1.056   3.737   4.459
 1671TIP3   OH2 5018   5.161   5.000   0.787
 1671TIP3    H1 5019   5.073   5.009   0.750
 1671TIP3    H2 5020   5.191   5.090   0.800
 1672TIP3   OH2 5021   0.600   5.347   2.771
 1672TIP3    H1 5022   0.541   5.342   2.846
 1672TIP3    H2 5023   0.606   5.441   2.751
 1673TIP3   OH2 5024   4.691   3.954   0.742
 1673TIP3    H1 5025   4.734   3.905   0.812
 1673TIP3    H2 5026   4.704   3.900   0.664
 1674TIP3   OH2 5027   6.197   0.267   0.468
 1674TIP3    H1 5028   6.102   0.277   0.459
 1674TIP3    H2 5029   6.212   0.173   0.457
 1675TIP3   OH2 5030   5.998   4.988   2.871
 1675TIP3    H1 5031   5.930   5.021   2.811
 1675TIP3    H2 5032   5.954   4.920   2.922
 1676TIP3   OH2 5033   0.746   0.798   1.895
 1676TIP3    H1 5034   0.676   0.801   1.830
 1676TIP3    H2 5035   0.781   0.887   1.897
 1677TIP3   OH2 5036   4.119   2.822   2.024
 1677TIP3    H1 5037   4.130   2.911   2.057
 1677TIP3    H2 5038   4.204   2.781   2.038
 1678TIP3   OH2 5039   2.806   0.962   3.829
 1678TIP3    H1 5040   2.767   1.049   3.837
 1678TIP3    H2 5041   2.857   0.951   3.909
 1679TIP3   OH2 5042   3.527   1.328   4.292
 1679TIP3    H1 5043   3.604   1.288   4.252
 1679TIP3    H2 5044   3.518   1.283   4.377
 1680TIP3   OH2 5045   2.571   2.103   2.581
 1680TIP3    H1 5046   2.552   2.146   2.498
 1680TIP3    H2 5047   2.594   2.013   2.557
 1681TIP3   OH2 5048   5.683   5.658   3.254
 1681TIP3    H1 5049   5.656   5.579   3.301
 1681TIP3    H2 5050   5.691   5.724   3.323
 1682TIP3   OH2 5051   2.327   3.468   0.490
 1682TIP3    H1 5052   2.351   3.431   0.405
 1682TIP3    H2 5053   2.283   3.396   0.535
 1683TIP3   OH2 5054   4.059   3.018   0.849
 1683TIP3    H1 5055   4.062   2.932   0.806
 1683TIP3    H2 5056   4.106   3.005   0.932
 1684TIP3   OH2 5057   6.240   3.107   1.678
 1684TIP3    H1 5058   6.295   3.108   1.599
 1684TIP3    H2 5059   6.290   3.057   1.742
 1685TIP3   OH2 5060   5.176   4.519   1.001
 1685TIP3    H1 5061   5.264   4.531   0.966
 1685TIP3    H2 5062   5.170   4.581   1.074
 1686TIP3   OH2 5063   5.447   4.771   0.265
 1686TIP3    H1 5064   5.541   4.787   0.270
 1686TIP3    H2 5065   5.407   4.858   0.272
 1687TIP3   OH2 5066   2.590   3.850   3.170
 1687TIP3    H1 5067   2.681   3.836   3.143
 1687TIP3    H2 5068   2.571   3.940   3.143
 1688TIP3   OH2 5069   2.032   5.374   1.276
 1688TIP3    H1 5070   2.000   5.341   1.359
 1688TIP3    H2 5071   2.083   5.452   1.299
 1689TIP3   OH2 5072   4.849   2.450   3.879
 1689TIP3    H1 5073   4.815   2.365   3.851
 1689TIP3    H2 5074   4.805   2.467   3.963
 1690TIP3   OH2 5075   3.369   5.952   4.104
 1690TIP3    H1 5076   3.298   6.007   4.136
 1690TIP3    H2 5077   3.340   5.921   4.018
 1691TIP3   OH2 5078   5.159   4.774   0.224
 1691TIP3    H1 5079   5.201   4.737   0.146
 1691TIP3    H2 5080   5.069   4.740   0.221
 1692TIP3   OH2 5081   5.838   3.489   4.057
 1692TIP3    H1 5082   5.780   3.416   4.035
 1692TIP3    H2 5083   5.783   3.566   4.052
 1693TIP3   OH2 5084   4.595   5.850   2.312
 1693TIP3    H1 5085   4.557   5.763   2.298
 1693TIP3    H2 5086   4.535   5.892   2.373
 1694TIP3   OH2 5087   1.494   5.165   4.038
 1694TIP3    H1 5088   1.498   5.070   4.025
 1694TIP3    H2 5089   1.400   5.184   4.038
 1695TIP3   OH2 5090   5.445   0.204   1.771
 1695TIP3    H1 5091   5.395   0.135   1.728
 1695TIP3    H2 5092   5.412   0.206   1.861
 1696TIP3   OH2 5093   3.767   2.854   4.975
 1696TIP3    H1 5094   3.823   2.777   4.977
 1696TIP3    H2 5095   3.695   2.830   4.916
 1697TIP3   OH2 5096   0.794   1.897   1.096
 1697TIP3    H1 5097   0.838   1.880   1.179
 1697TIP3    H2 5098   0.817   1.987   1.073
 1698TIP3   OH2 5099   4.525   5.067   2.685
 1698TIP3    H1 5100   4.548   4.974   2.676
 1698TIP3    H2 5101   4.433   5.066   2.711
 1699TIP3   OH2 5102   0.661   4.278   4.833
 1699TIP3    H1 5103   0.617   4.361   4.851
 1699TIP3    H2 5104   0.742   4.283   4.883
 1700TIP3   OH2 5105   2.002   3.383   0.639
 1700TIP3    H1 5106   1.941   3.402   0.709
 1700TIP3    H2 5107   2.088   3.384   0.681
 1701TIP3   OH2 5108   1.127   2.382   0.825
 1701TIP3    H1 5109   1.140   2.449   0.758
 1701TIP3    H2 5110   1.097   2.305   0.777
 1702TIP3   OH2 5111   5.283   4.679   0.653
 1702TIP3    H1 5112   5.339   4.756   0.640
 1702TIP3    H2 5113   5.194   4.714   0.653
 1703TIP3   OH2 5114   3.260   5.394   3.811
 1703TIP3    H1 5115   3.327   5.368   3.874
 1703TIP3    H2 5116   3.195   5.442   3.863
 1704TIP3   OH2 5117   3.083   5.478   2.755
 1704TIP3    H1 5118   3.052   5.567   2.771
 1704TIP3    H2 5119   3.043   5.426   2.824
 1705TIP3   OH2 5120   0.050   3.343   3.059
 1705TIP3    H1 5121   0.037   3.248   3.050
 1705TIP3    H2 5122   0.001   3.366   3.137
 1706TIP3   OH2 5123   0.463   1.139   2.522
 1706TIP3    H1 5124   0.524   1.148   2.448
 1706TIP3    H2 5125   0.441   1.046   2.523
 1707TIP3   OH2 5126   4.658  -0.012   0.384
 1707TIP3    H1 5127   4.584  -0.061   0.419
 1707TIP3    H2 5128   4.660   0.069   0.435
 1708TIP3   OH2 5129   0.084   1.263   1.973
 1708TIP3    H1 5130   0.003   1.282   1.925
 1708TIP3    H2 5131   0.143   1.335   1.950
 1709TIP3   OH2 5132   3.566   0.945   0.284
 1709TIP3    H1 5133   3.545   0.862   0.326
 1709TIP3    H2 5134   3.661   0.943   0.273
 1710TIP3   OH2 5135   5.390   1.088   1.039
 1710TIP3    H1 5136   5.434   1.152   1.095
 1710TIP3    H2 5137   5.443   1.009   1.046
 1711TIP3   OH2 5138   4.750   1.762   0.556
 1711TIP3    H1 5139   4.759   1.722   0.470
 1711TIP3    H2 5140   4.836   1.748   0.597
 1712TIP3   OH2 5141   4.989   5.418   4.612
 1712TIP3    H1 5142   5.037   5.500   4.606
 1712TIP3    H2 5143   5.009   5.385   4.700
 1713TIP3   OH2 5144   0.088   5.130   1.706
 1713TIP3    H1 5145   0.159   5.167   1.758
 1713TIP3    H2 5146   0.023   5.103   1.771
 1714TIP3   OH2 5147   0.690   4.623   2.829
 1714TIP3    H1 5148   0.740   4.686   2.776
 1714TIP3    H2 5149   0.647   4.567   2.764
 1715TIP3   OH2 5150   2.124   3.420   1.380
 1715TIP3    H1 5151   2.121   3.334   1.338
 1715TIP3    H2 5152   2.205   3.460   1.347
 1716TIP3   OH2 5153   3.941   3.211   0.127
 1716TIP3    H1 5154   3.870   3.150   0.109
 1716TIP3    H2 5155   3.899   3.286   0.168
 1717TIP3   OH2 5156   4.381   4.536   1.742
 1717TIP3    H1 5157   4.366   4.630   1.738
 1717TIP3    H2 5158   4.405   4.519   1.833
 1718TIP3   OH2 5159   0.775   4.618   1.118
 1718TIP3    H1 5160   0.839   4.684   1.089
 1718TIP3    H2 5161   0.815   4.534   1.095
 1719TIP3   OH2 5162   5.575   0.276   4.337
 1719TIP3    H1 5163   5.529   0.351   4.300
 1719TIP3    H2 5164   5.657   0.271   4.288
 1720TIP3   OH2 5165   4.054   4.618   0.629
 1720TIP3    H1 5166   4.064   4.712   0.646
 1720TIP3    H2 5167   4.086   4.606   0.540
 1721TIP3   OH2 5168   2.039   0.154   3.029
 1721TIP3    H1 5169   2.014   0.213   2.959
 1721TIP3    H2 5170   2.031   0.207   3.109
 1722TIP3   OH2 5171   1.655   2.166   2.306
 1722TIP3    H1 5172   1.699   2.098   2.356
 1722TIP3    H2 5173   1.566   2.133   2.292
 1723TIP3   OH2 5174   1.736   2.946   1.123
 1723TIP3    H1 5175   1.790   2.945   1.202
 1723TIP3    H2 5176   1.797   2.930   1.051
 1724TIP3   OH2 5177   2.620   2.780   1.482
 1724TIP3    H1 5178   2.570   2.850   1.524
 1724TIP3    H2 5179   2.710   2.792   1.512
 1725TIP3   OH2 5180   0.954   1.909   4.296
 1725TIP3    H1 5181   0.901   1.974   4.249
 1725TIP3    H2 5182   1.044   1.933   4.277
 1726TIP3   OH2 5183   4.155   4.465   1.416
 1726TIP3    H1 5184   4.246   4.443   1.435
 1726TIP3    H2 5185   4.144   4.442   1.323
 1727TIP3   OH2 5186   5.401   2.649   2.467
 1727TIP3    H1 5187   5.443   2.729   2.498
 1727TIP3    H2 5188   5.470   2.583   2.468
 1728TIP3   OH2 5189   2.968   4.529   2.089
 1728TIP3    H1 5190   2.887   4.570   2.121
 1728TIP3    H2 5191   3.027   4.602   2.073
 1729TIP3   OH2 5192   3.358   1.679   4.549
 1729TIP3    H1 5193   3.397   1.592   4.559
 1729TIP3    H2 5194   3.293   1.668   4.480
 1730TIP3   OH2 5195   3.233   1.395   2.262
 1730TIP3    H1 5196   3.142   1.425   2.258
 1730TIP3    H2 5197   3.249   1.355   2.177
 1731TIP3   OH2 5198   0.103   2.461   2.758
 1731TIP3    H1 5199   0.168   2.523   2.792
 1731TIP3    H2 5200   0.041   2.451   2.830
 1732TIP3   OH2 5201   5.025   5.504   2.052
 1732TIP3    H1 5202   5.002   5.474   1.964
 1732TIP3    H2 5203   5.120   5.510   2.051
 1733TIP3   OH2 5204   2.377   2.480   1.829
 1733TIP3    H1 5205   2.376   2.485   1.925
 1733TIP3    H2 5206   2.293   2.439   1.807
 1734TIP3   OH2 5207   0.924   4.044   1.718
 1734TIP3    H1 5208   0.945   3.971   1.776
 1734TIP3    H2 5209   0.906   4.117   1.777
 1735TIP3   OH2 5210   2.250   1.189   4.457
 1735TIP3    H1 5211   2.227   1.109   4.504
 1735TIP3    H2 5212   2.345   1.183   4.443
 1736TIP3   OH2 5213   2.718   3.365   1.544
 1736TIP3    H1 5214   2.747   3.311   1.470
 1736TIP3    H2 5215   2.681   3.444   1.504
 1737TIP3   OH2 5216   5.526   3.090   5.022
 1737TIP3    H1 5217   5.506   3.163   4.963
 1737TIP3    H2 5218   5.483   3.114   5.105
 1738TIP3   OH2 5219   3.545   0.649   0.586
 1738TIP3    H1 5220   3.592   0.649   0.670
 1738TIP3    H2 5221   3.508   0.737   0.580
 1739TIP3   OH2 5222   1.311   1.719   3.641
 1739TIP3    H1 5223   1.355   1.665   3.707
 1739TIP3    H2 5224   1.312   1.666   3.562
 1740TIP3   OH2 5225   1.825   2.794   2.363
 1740TIP3    H1 5226   1.904   2.776   2.413
 1740TIP3    H2 5227   1.856   2.814   2.274
 1741TIP3   OH2 5228   4.238   0.841   4.826
 1741TIP3    H1 5229   4.306   0.819   4.762
 1741TIP3    H2 5230   4.161   0.791   4.796
 1742TIP3   OH2 5231   2.002   3.713   1.315
 1742TIP3    H1 5232   2.014   3.776   1.387
 1742TIP3    H2 5233   1.967   3.635   1.356
 1743TIP3   OH2 5234   1.196   3.598   2.851
 1743TIP3    H1 5235   1.173   3.677   2.803
 1743TIP3    H2 5236   1.183   3.527   2.788
 1744TIP3   OH2 5237   5.505   1.489   2.509
 1744TIP3    H1 5238   5.597   1.475   2.534
 1744TIP3    H2 5239   5.500   1.582   2.490
 1745TIP3   OH2 5240   2.852   4.422   4.666
 1745TIP3    H1 5241   2.912   4.363   4.619
 1745TIP3    H2 5242   2.876   4.411   4.758
 1746TIP3   OH2 5243   3.445   3.401   1.730
 1746TIP3    H1 5244   3.526   3.357   1.755
 1746TIP3    H2 5245   3.441   3.394   1.635
 1747TIP3   OH2 5246   6.211   5.663   0.369
 1747TIP3    H1 5247   6.279   5.605   0.337
 1747TIP3    H2 5248   6.194   5.634   0.458
 1748TIP3   OH2 5249   2.419   4.489   1.791
 1748TIP3    H1 5250   2.493   4.513   1.848
 1748TIP3    H2 5251   2.460   4.459   1.710
 1749TIP3   OH2 5252   0.968   0.401   2.001
 1749TIP3    H1 5253   0.922   0.444   2.074
 1749TIP3    H2 5254   0.944   0.452   1.924
 1750TIP3   OH2 5255   2.556   3.065   5.157
 1750TIP3    H1 5256   2.555   3.020   5.242
 1750TIP3    H2 5257   2.629   3.026   5.110
 1751TIP3   OH2 5258   4.771   2.644   2.568
 1751TIP3    H1 5259   4.725   2.625   2.486
 1751TIP3    H2 5260   4.724   2.594   2.634
 1752TIP3   OH2 5261   2.894   1.330   4.237
 1752TIP3    H1 5262   2.907   1.415   4.280
 1752TIP3    H2 5263   2.913   1.348   4.145
 1753TIP3   OH2 5264   0.290   4.574   3.934
 1753TIP3    H1 5265   0.204   4.559   3.896
 1753TIP3    H2 5266   0.315   4.490   3.972
 1754TIP3   OH2 5267   1.063   1.012   1.688
 1754TIP3    H1 5268   0.978   1.036   1.651
 1754TIP3    H2 5269   1.104   1.096   1.709
 1755TIP3   OH2 5270   4.023   0.495   0.652
 1755TIP3    H1 5271   3.945   0.527   0.698
 1755TIP3    H2 5272   4.047   0.414   0.698
 1756TIP3   OH2 5273   2.732   4.510   0.313
 1756TIP3    H1 5274   2.750   4.499   0.407
 1756TIP3    H2 5275   2.720   4.604   0.302
 1757TIP3   OH2 5276   1.503   2.058   4.313
 1757TIP3    H1 5277   1.589   2.029   4.283
 1757TIP3    H2 5278   1.520   2.104   4.395
 1758TIP3   OH2 5279   4.667   4.487   1.675
 1758TIP3    H1 5280   4.732   4.420   1.655
 1758TIP3    H2 5281   4.596   4.471   1.612
 1759TIP3   OH2 5282   5.759   2.128   2.239
 1759TIP3    H1 5283   5.773   2.041   2.202
 1759TIP3    H2 5284   5.816   2.185   2.187
 1760TIP3   OH2 5285   5.726   0.171   3.417
 1760TIP3    H1 5286   5.821   0.174   3.404
 1760TIP3    H2 5287   5.690   0.161   3.329
 1761TIP3   OH2 5288   3.645   1.065   4.029
 1761TIP3    H1 5289   3.721   1.035   4.079
 1761TIP3    H2 5290   3.668   1.045   3.938
 1762TIP3   OH2 5291   1.926   1.067   1.455
 1762TIP3    H1 5292   1.860   1.127   1.420
 1762TIP3    H2 5293   1.882   0.982   1.458
 1763TIP3   OH2 5294   2.479   1.646   0.261
 1763TIP3    H1 5295   2.480   1.668   0.354
 1763TIP3    H2 5296   2.387   1.654   0.236
 1764TIP3   OH2 5297   4.965   4.654   3.795
 1764TIP3    H1 5298   4.907   4.625   3.864
 1764TIP3    H2 5299   4.965   4.583   3.731
 1765TIP3   OH2 5300   2.827   4.153   4.118
 1765TIP3    H1 5301   2.904   4.101   4.094
 1765TIP3    H2 5302   2.793   4.111   4.197
 1766TIP3   OH2 5303   3.245   0.838   0.880
 1766TIP3    H1 5304   3.255   0.806   0.790
 1766TIP3    H2 5305   3.247   0.933   0.872
 1767TIP3   OH2 5306   0.800  -0.023   3.106
 1767TIP3    H1 5307   0.812   0.046   3.170
 1767TIP3    H2 5308   0.824   0.017   3.022
 1768TIP3   OH2 5309   4.674   2.745   1.130
 1768TIP3    H1 5310   4.729   2.671   1.104
 1768TIP3    H2 5311   4.721   2.823   1.102
 1769TIP3   OH2 5312   2.052   4.627   2.369
 1769TIP3    H1 5313   2.021   4.550   2.321
 1769TIP3    H2 5314   1.972   4.675   2.391
 1770TIP3   OH2 5315   0.965   0.467   3.759
 1770TIP3    H1 5316   0.954   0.457   3.854
 1770TIP3    H2 5317   0.943   0.382   3.723
 1771TIP3   OH2 5318   4.272   3.525   1.412
 1771TIP3    H1 5319   4.293   3.525   1.319
 1771TIP3    H2 5320   4.338   3.582   1.452
 1772TIP3   OH2 5321   2.901   1.742   2.822
 1772TIP3    H1 5322   2.823   1.781   2.862
 1772TIP3    H2 5323   2.879   1.649   2.812
 1773TIP3   OH2 5324   4.567   1.501   3.891
 1773TIP3    H1 5325   4.510   1.508   3.814
 1773TIP3    H2 5326   4.564   1.588   3.931
 1774TIP3   OH2 5327   3.032   4.173   1.245
 1774TIP3    H1 5328   2.955   4.163   1.190
 1774TIP3    H2 5329   3.101   4.199   1.185
 1775TIP3   OH2 5330   0.255   2.909   4.434
 1775TIP3    H1 5331   0.261   2.936   4.343
 1775TIP3    H2 5332   0.326   2.846   4.446
 1776TIP3   OH2 5333   2.768   2.527   0.901
 1776TIP3    H1 5334   2.842   2.533   0.961
 1776TIP3    H2 5335   2.731   2.615   0.900
 1777TIP3   OH2 5336   1.844   4.506   2.880
 1777TIP3    H1 5337   1.809   4.473   2.962
 1777TIP3    H2 5338   1.939   4.499   2.890
 1778TIP3   OH2 5339   0.576   3.877   4.508
 1778TIP3    H1 5340   0.494   3.912   4.473
 1778TIP3    H2 5341   0.557   3.859   4.600
 1779TIP3   OH2 5342   3.014   1.192   2.530
 1779TIP3    H1 5343   3.070   1.192   2.608
 1779TIP3    H2 5344   3.060   1.136   2.467
 1780TIP3   OH2 5345   2.495   5.052   5.092
 1780TIP3    H1 5346   2.518   5.133   5.138
 1780TIP3    H2 5347   2.405   5.035   5.118
 1781TIP3   OH2 5348   5.935   5.583   2.147
 1781TIP3    H1 5349   5.982   5.654   2.104
 1781TIP3    H2 5350   5.843   5.597   2.124
 1782TIP3   OH2 5351   4.534   4.802   3.870
 1782TIP3    H1 5352   4.548   4.719   3.823
 1782TIP3    H2 5353   4.575   4.868   3.814
 1783TIP3   OH2 5354  -0.003   0.345   4.713
 1783TIP3    H1 5355   0.057   0.357   4.786
 1783TIP3    H2 5356   0.013   0.420   4.656
 1784TIP3   OH2 5357   2.090   1.589   1.658
 1784TIP3    H1 5358   2.144   1.608   1.734
 1784TIP3    H2 5359   2.091   1.493   1.651
 1785TIP3   OH2 5360   4.446   1.566   1.934
 1785TIP3    H1 5361   4.373   1.511   1.904
 1785TIP3    H2 5362   4.441   1.644   1.879
 1786TIP3   OH2 5363   0.191   5.501   4.414
 1786TIP3    H1 5364   0.267   5.559   4.414
 1786TIP3    H2 5365   0.220   5.422   4.368
 1787TIP3   OH2 5366   0.923   3.179   0.995
 1787TIP3    H1 5367   0.971   3.244   1.046
 1787TIP3    H2 5368   0.979   3.163   0.919
 1788TIP3   OH2 5369   3.966   2.677   1.263
 1788TIP3    H1 5370   4.019   2.707   1.189
 1788TIP3    H2 5371   3.875   2.689   1.234
 1789TIP3   OH2 5372   2.704   2.705   4.312
 1789TIP3    H1 5373   2.739   2.620   4.287
 1789TIP3    H2 5374   2.651   2.733   4.237
 1790TIP3   OH2 5375   0.964   4.867   3.133
 1790TIP3    H1 5376   0.965   4.944   3.076
 1790TIP3    H2 5377   1.048   4.872   3.180
 1791TIP3   OH2 5378   1.757   5.260   1.523
 1791TIP3    H1 5379   1.674   5.266   1.569
 1791TIP3    H2 5380   1.781   5.351   1.505
 1792TIP3   OH2 5381   5.651   0.048   2.353
 1792TIP3    H1 5382   5.610   0.016   2.433
 1792TIP3    H2 5383   5.710   0.117   2.382
 1793TIP3   OH2 5384   3.051   3.656   3.546
 1793TIP3    H1 5385   3.027   3.736   3.594
 1793TIP3    H2 5386   3.003   3.587   3.591
 1794TIP3   OH2 5387   1.534   5.306   1.658
 1794TIP3    H1 5388   1.543   5.300   1.753
 1794TIP3    H2 5389   1.460   5.365   1.645
 1795TIP3   OH2 5390   5.653   0.381   3.613
 1795TIP3    H1 5391   5.683   0.327   3.540
 1795TIP3    H2 5392   5.712   0.359   3.685
 1796TIP3   OH2 5393   3.158   5.640   1.384
 1796TIP3    H1 5394   3.134   5.699   1.456
 1796TIP3    H2 5395   3.159   5.697   1.307
 1797TIP3   OH2 5396   6.044   2.870   4.172
 1797TIP3    H1 5397   6.081   2.783   4.156
 1797TIP3    H2 5398   6.065   2.888   4.264
 1798TIP3   OH2 5399   2.104   5.767   0.366
 1798TIP3    H1 5400   2.020   5.795   0.329
 1798TIP3    H2 5401   2.164   5.766   0.291
 1799TIP3   OH2 5402   1.004   0.848   2.213
 1799TIP3    H1 5403   1.048   0.766   2.192
 1799TIP3    H2 5404   1.070   0.899   2.261
 1800TIP3   OH2 5405   4.486   0.590   2.597
 1800TIP3    H1 5406   4.434   0.552   2.669
 1800TIP3    H2 5407   4.527   0.514   2.556
 1801TIP3   OH2 5408   2.724   3.869   1.117
 1801TIP3    H1 5409   2.746   3.797   1.175
 1801TIP3    H2 5410   2.708   3.943   1.176
 1802TIP3   OH2 5411   5.365   2.233   4.380
 1802TIP3    H1 5412   5.341   2.323   4.403
 1802TIP3    H2 5413   5.422   2.242   4.303
 1803TIP3   OH2 5414   5.629   0.635   4.343
 1803TIP3    H1 5415   5.613   0.707   4.404
 1803TIP3    H2 5416   5.711   0.595   4.374
 1804TIP3   OH2 5417   0.201   4.157   1.714
 1804TIP3    H1 5418   0.111   4.188   1.708
 1804TIP3    H2 5419   0.253   4.225   1.673
 1805TIP3   OH2 5420   2.493   5.426   4.448
 1805TIP3    H1 5421   2.430   5.354   4.448
 1805TIP3    H2 5422   2.449   5.497   4.402
 1806TIP3   OH2 5423   4.913   5.089   2.958
 1806TIP3    H1 5424   4.997   5.116   2.922
 1806TIP3    H2 5425   4.931   5.005   3.001
 1807TIP3   OH2 5426   1.129   0.013   1.220
 1807TIP3    H1 5427   1.089   0.098   1.240
 1807TIP3    H2 5428   1.173  -0.012   1.302
 1808TIP3   OH2 5429   0.104   5.155   3.190
 1808TIP3    H1 5430   0.113   5.070   3.146
 1808TIP3    H2 5431   0.051   5.207   3.130
 1809TIP3   OH2 5432   3.313   5.485   4.593
 1809TIP3    H1 5433   3.322   5.466   4.500
 1809TIP3    H2 5434   3.278   5.405   4.631
 1810TIP3   OH2 5435   5.469   5.859   4.278
 1810TIP3    H1 5436   5.379   5.843   4.251
 1810TIP3    H2 5437   5.490   5.945   4.243
 1811TIP3   OH2 5438   4.220   5.765   2.558
 1811TIP3    H1 5439   4.221   5.735   2.649
 1811TIP3    H2 5440   4.307   5.742   2.525
 1812TIP3   OH2 5441   3.844   0.346   4.510
 1812TIP3    H1 5442   3.883   0.266   4.547
 1812TIP3    H2 5443   3.909   0.414   4.525
 1813TIP3   OH2 5444   5.931   0.159   0.403
 1813TIP3    H1 5445   5.901   0.113   0.324
 1813TIP3    H2 5446   5.851   0.190   0.444
 1814TIP3   OH2 5447   2.741   2.493   3.894
 1814TIP3    H1 5448   2.823   2.477   3.848
 1814TIP3    H2 5449   2.713   2.580   3.864
 1815TIP3   OH2 5450   6.073   0.358   4.138
 1815TIP3    H1 5451   6.067   0.384   4.230
 1815TIP3    H2 5452   6.155   0.397   4.108
 1816TIP3   OH2 5453   5.809   0.937   4.147
 1816TIP3    H1 5454   5.770   1.009   4.097
 1816TIP3    H2 5455   5.891   0.973   4.181
 1817TIP3   OH2 5456   1.791   0.884   0.905
 1817TIP3    H1 5457   1.742   0.949   0.856
 1817TIP3    H2 5458   1.736   0.864   0.981
 1818TIP3   OH2 5459   0.285   2.873   1.003
 1818TIP3    H1 5460   0.226   2.943   0.975
 1818TIP3    H2 5461   0.369   2.895   0.962
 1819TIP3   OH2 5462   0.730   0.292   4.150
 1819TIP3    H1 5463   0.780   0.262   4.226
 1819TIP3    H2 5464   0.753   0.230   4.081
 1820TIP3   OH2 5465   2.253   3.103   0.331
 1820TIP3    H1 5466   2.174   3.154   0.310
 1820TIP3    H2 5467   2.323   3.146   0.281
 1821TIP3   OH2 5468   3.902   5.068   5.041
 1821TIP3    H1 5469   3.983   5.029   5.072
 1821TIP3    H2 5470   3.915   5.162   5.052
 1822TIP3   OH2 5471   5.411   1.437   5.125
 1822TIP3    H1 5472   5.401   1.531   5.111
 1822TIP3    H2 5473   5.501   1.418   5.097
 1823TIP3   OH2 5474   0.679   3.490   2.029
 1823TIP3    H1 5475   0.659   3.415   1.973
 1823TIP3    H2 5476   0.701   3.452   2.114
 1824TIP3   OH2 5477   4.465   1.034   1.359
 1824TIP3    H1 5478   4.558   1.041   1.342
 1824TIP3    H2 5479   4.444   0.942   1.344
 1825TIP3   OH2 5480   1.235   4.055   4.333
 1825TIP3    H1 5481   1.190   4.131   4.297
 1825TIP3    H2 5482   1.318   4.090   4.366
 1826TIP3   OH2 5483   0.496   1.242   4.059
 1826TIP3    H1 5484   0.439   1.178   4.017
 1826TIP3    H2 5485   0.473   1.326   4.018
 1827TIP3   OH2 5486   5.939   2.574   2.557
 1827TIP3    H1 5487   5.973   2.493   2.517
 1827TIP3    H2 5488   5.995   2.643   2.521
 1828TIP3   OH2 5489   4.436   3.459   0.197
 1828TIP3    H1 5490   4.516   3.407   0.205
 1828TIP3    H2 5491   4.461   3.547   0.225
 1829TIP3   OH2 5492   4.958   4.801   2.670
 1829TIP3    H1 5493   4.907   4.757   2.737
 1829TIP3    H2 5494   4.901   4.872   2.639
 1830TIP3   OH2 5495   4.600   3.690   0.237
 1830TIP3    H1 5496   4.628   3.666   0.325
 1830TIP3    H2 5497   4.625   3.782   0.227
 1831TIP3   OH2 5498   0.387   3.815   5.098
 1831TIP3    H1 5499   0.462   3.775   5.141
 1831TIP3    H2 5500   0.393   3.785   5.007
 1832TIP3   OH2 5501   5.461   0.228   1.012
 1832TIP3    H1 5502   5.525   0.245   1.080
 1832TIP3    H2 5503   5.471   0.135   0.992
 1833TIP3   OH2 5504   2.304   4.689   4.188
 1833TIP3    H1 5505   2.277   4.638   4.112
 1833TIP3    H2 5506   2.346   4.625   4.246
 1834TIP3   OH2 5507   1.823   2.908   5.064
 1834TIP3    H1 5508   1.816   2.941   4.975
 1834TIP3    H2 5509   1.755   2.840   5.070
 1835TIP3   OH2 5510   2.017   4.854   0.358
 1835TIP3    H1 5511   1.936   4.802   0.362
 1835TIP3    H2 5512   2.084   4.797   0.395
 1836TIP3   OH2 5513   0.380   4.904   1.041
 1836TIP3    H1 5514   0.330   4.868   1.115
 1836TIP3    H2 5515   0.339   4.866   0.964
 1837TIP3   OH2 5516   5.618   0.901   3.295
 1837TIP3    H1 5517   5.618   0.839   3.368
 1837TIP3    H2 5518   5.548   0.962   3.314
 1838TIP3   OH2 5519   3.212   5.846   2.490
 1838TIP3    H1 5520   3.269   5.865   2.565
 1838TIP3    H2 5521   3.226   5.919   2.430
 1839TIP3   OH2 5522   3.347   5.498   3.481
 1839TIP3    H1 5523   3.302   5.487   3.398
 1839TIP3    H2 5524   3.427   5.447   3.472
 1840TIP3   OH2 5525   4.722   5.828   4.397
 1840TIP3    H1 5526   4.729   5.749   4.344
 1840TIP3    H2 5527   4.680   5.799   4.478
 1841TIP3   OH2 5528   2.158   5.882   4.654
 1841TIP3    H1 5529   2.173   5.901   4.561
 1841TIP3    H2 5530   2.223   5.815   4.675
 1842TIP3   OH2 5531   3.295   3.058   0.819
 1842TIP3    H1 5532   3.369   3.024   0.870
 1842TIP3    H2 5533   3.300   3.011   0.736
 1843TIP3   OH2 5534   0.192   3.061   2.831
 1843TIP3    H1 5535   0.145   3.062   2.914
 1843TIP3    H2 5536   0.141   3.002   2.775
 1844TIP3   OH2 5537   3.826   1.236   2.415
 1844TIP3    H1 5538   3.792   1.179   2.484
 1844TIP3    H2 5539   3.760   1.232   2.346
 1845TIP3   OH2 5540   1.991   1.662   1.407
 1845TIP3    H1 5541   1.967   1.754   1.410
 1845TIP3    H2 5542   2.030   1.645   1.493
 1846TIP3   OH2 5543   4.540   0.169   4.026
 1846TIP3    H1 5544   4.514   0.256   3.995
 1846TIP3    H2 5545   4.562   0.182   4.118
 1847TIP3   OH2 5546   0.072   2.881   2.639
 1847TIP3    H1 5547   0.054   2.943   2.567
 1847TIP3    H2 5548   0.078   2.796   2.596
 1848TIP3   OH2 5549   1.080   1.932   0.406
 1848TIP3    H1 5550   1.014   1.906   0.341
 1848TIP3    H2 5551   1.063   2.024   0.422
 1849TIP3   OH2 5552   2.993   1.606   1.811
 1849TIP3    H1 5553   2.968   1.546   1.741
 1849TIP3    H2 5554   2.912   1.653   1.832
 1850TIP3   OH2 5555   5.374   4.545   0.430
 1850TIP3    H1 5556   5.355   4.573   0.520
 1850TIP3    H2 5557   5.410   4.623   0.388
 1851TIP3   OH2 5558   0.147   5.972   2.523
 1851TIP3    H1 5559   0.177   5.904   2.464
 1851TIP3    H2 5560   0.173   5.942   2.610
 1852TIP3   OH2 5561   5.154   1.174   2.581
 1852TIP3    H1 5562   5.086   1.215   2.528
 1852TIP3    H2 5563   5.108   1.142   2.659
 1853TIP3   OH2 5564   4.526   0.453   0.400
 1853TIP3    H1 5565   4.441   0.413   0.381
 1853TIP3    H2 5566   4.590   0.390   0.370
 1854TIP3   OH2 5567   6.159   1.952   0.306
 1854TIP3    H1 5568   6.117   2.011   0.243
 1854TIP3    H2 5569   6.253   1.972   0.299
 1855TIP3   OH2 5570   1.367   3.329   2.259
 1855TIP3    H1 5571   1.369   3.369   2.346
 1855TIP3    H2 5572   1.287   3.276   2.259
 1856TIP3   OH2 5573   3.279   2.980   5.102
 1856TIP3    H1 5574   3.187   2.983   5.074
 1856TIP3    H2 5575   3.277   3.009   5.193
 1857TIP3   OH2 5576   5.422   1.918   3.908
 1857TIP3    H1 5577   5.472   1.848   3.865
 1857TIP3    H2 5578   5.484   1.958   3.968
 1858TIP3   OH2 5579   0.744   0.408   0.108
 1858TIP3    H1 5580   0.761   0.319   0.076
 1858TIP3    H2 5581   0.779   0.465   0.038
 1859TIP3   OH2 5582   3.175   4.544   0.141
 1859TIP3    H1 5583   3.165   4.477   0.073
 1859TIP3    H2 5584   3.102   4.527   0.200
 1860TIP3   OH2 5585   4.658   4.330   3.424
 1860TIP3    H1 5586   4.573   4.332   3.467
 1860TIP3    H2 5587   4.686   4.422   3.422
 1861TIP3   OH2 5588   1.394   4.804   3.247
 1861TIP3    H1 5589   1.332   4.735   3.223
 1861TIP3    H2 5590   1.440   4.824   3.165
 1862TIP3   OH2 5591   4.169   5.011   3.813
 1862TIP3    H1 5592   4.206   5.099   3.814
 1862TIP3    H2 5593   4.075   5.025   3.829
 1863TIP3   OH2 5594   2.610   1.448   1.734
 1863TIP3    H1 5595   2.569   1.370   1.771
 1863TIP3    H2 5596   2.565   1.521   1.777
 1864TIP3   OH2 5597   4.498   0.492   4.654
 1864TIP3    H1 5598   4.542   0.432   4.594
 1864TIP3    H2 5599   4.439   0.436   4.705
 1865TIP3   OH2 5600   4.610   3.764   1.306
 1865TIP3    H1 5601   4.541   3.734   1.364
 1865TIP3    H2 5602   4.609   3.859   1.314
 1866TIP3   OH2 5603   3.972   3.973   0.691
 1866TIP3    H1 5604   4.044   4.029   0.663
 1866TIP3    H2 5605   4.015   3.898   0.732
 1867TIP3   OH2 5606   2.766   0.349   4.106
 1867TIP3    H1 5607   2.730   0.310   4.026
 1867TIP3    H2 5608   2.748   0.283   4.174
 1868TIP3   OH2 5609   5.252   0.356   1.110
 1868TIP3    H1 5610   5.335   0.314   1.090
 1868TIP3    H2 5611   5.205   0.292   1.164
 1869TIP3   OH2 5612   0.459   3.333   0.404
 1869TIP3    H1 5613   0.414   3.250   0.423
 1869TIP3    H2 5614   0.495   3.361   0.488
 1870TIP3   OH2 5615   5.620   4.724   4.239
 1870TIP3    H1 5616   5.564   4.646   4.232
 1870TIP3    H2 5617   5.697   4.693   4.286
 1871TIP3   OH2 5618   2.113   3.693   2.719
 1871TIP3    H1 5619   2.117   3.750   2.796
 1871TIP3    H2 5620   2.020   3.670   2.710
 1872TIP3   OH2 5621   0.302   4.626   2.595
 1872TIP3    H1 5622   0.262   4.562   2.655
 1872TIP3    H2 5623   0.390   4.593   2.580
 1873TIP3   OH2 5624   1.624   5.056   3.267
 1873TIP3    H1 5625   1.561   5.011   3.323
 1873TIP3    H2 5626   1.592   5.147   3.263
 1874TIP3   OH2 5627   0.729   4.023   2.000
 1874TIP3    H1 5628   0.798   3.972   2.043
 1874TIP3    H2 5629   0.647   3.983   2.031
 1875TIP3   OH2 5630   4.533   0.429   1.579
 1875TIP3    H1 5631   4.510   0.341   1.549
 1875TIP3    H2 5632   4.557   0.476   1.499
 1876TIP3   OH2 5633   0.924   0.133   1.881
 1876TIP3    H1 5634   0.890   0.220   1.862
 1876TIP3    H2 5635   0.912   0.084   1.800
 1877TIP3   OH2 5636   2.441   1.652   0.838
 1877TIP3    H1 5637   2.455   1.746   0.827
 1877TIP3    H2 5638   2.473   1.633   0.926
 1878TIP3   OH2 5639   4.720   5.857   0.181
 1878TIP3    H1 5640   4.759   5.770   0.174
 1878TIP3    H2 5641   4.625   5.840   0.181
 1879TIP3   OH2 5642   4.362   0.978   3.936
 1879TIP3    H1 5643   4.379   0.999   3.844
 1879TIP3    H2 5644   4.354   1.064   3.979
 1880TIP3   OH2 5645   4.764   2.286   2.117
 1880TIP3    H1 5646   4.859   2.295   2.119
 1880TIP3    H2 5647   4.748   2.193   2.099
 1881TIP3   OH2 5648   4.978   0.681   3.404
 1881TIP3    H1 5649   4.914   0.693   3.474
 1881TIP3    H2 5650   5.062   0.700   3.445
 1882TIP3   OH2 5651   3.099   0.827   4.938
 1882TIP3    H1 5652   3.011   0.806   4.907
 1882TIP3    H2 5653   3.126   0.748   4.986
 1883TIP3   OH2 5654   2.377   2.758   0.348
 1883TIP3    H1 5655   2.379   2.843   0.393
 1883TIP3    H2 5656   2.419   2.698   0.409
 1884TIP3   OH2 5657   5.047   2.990   2.368
 1884TIP3    H1 5658   5.139   3.010   2.352
 1884TIP3    H2 5659   5.049   2.912   2.424
 1885TIP3   OH2 5660   1.823   2.319   0.580
 1885TIP3    H1 5661   1.911   2.350   0.560
 1885TIP3    H2 5662   1.806   2.350   0.669
 1886TIP3   OH2 5663   4.782   2.930   0.758
 1886TIP3    H1 5664   4.710   2.868   0.750
 1886TIP3    H2 5665   4.837   2.894   0.828
 1887TIP3   OH2 5666   3.015   0.631   0.124
 1887TIP3    H1 5667   3.065   0.553   0.145
 1887TIP3    H2 5668   2.959   0.645   0.200
 1888TIP3   OH2 5669   1.514   0.096   0.875
 1888TIP3    H1 5670   1.499   0.001   0.881
 1888TIP3    H2 5671   1.580   0.114   0.942
 1889TIP3   OH2 5672   1.055   5.883   3.014
 1889TIP3    H1 5673   1.090   5.810   3.065
 1889TIP3    H2 5674   1.130   5.916   2.964
 1890TIP3   OH2 5675   2.480   3.294   2.928
 1890TIP3    H1 5676   2.560   3.246   2.907
 1890TIP3    H2 5677   2.434   3.238   2.990
 1891TIP3   OH2 5678   5.095   4.601   2.059
 1891TIP3    H1 5679   5.157   4.647   2.002
 1891TIP3    H2 5680   5.127   4.511   2.061
 1892TIP3   OH2 5681   5.445   3.456   2.116
 1892TIP3    H1 5682   5.392   3.508   2.057
 1892TIP3    H2 5683   5.506   3.519   2.155
 1893TIP3   OH2 5684   6.217   5.605   0.627
 1893TIP3    H1 5685   6.265   5.553   0.692
 1893TIP3    H2 5686   6.170   5.670   0.679
 1894TIP3   OH2 5687   3.552   4.483   3.361
 1894TIP3    H1 5688   3.534   4.393   3.334
 1894TIP3    H2 5689   3.479   4.506   3.419
 1895TIP3   OH2 5690   5.980   5.597   3.801
 1895TIP3    H1 5691   5.915   5.667   3.803
 1895TIP3    H2 5692   5.938   5.527   3.752
 1896TIP3   OH2 5693   1.744   3.788   1.635
 1896TIP3    H1 5694   1.678   3.719   1.633
 1896TIP3    H2 5695   1.718   3.847   1.565
 1897TIP3   OH2 5696   6.087   1.744   4.436
 1897TIP3    H1 5697   6.175   1.759   4.403
 1897TIP3    H2 5698   6.099   1.684   4.510
 1898TIP3   OH2 5699   2.963   0.387   2.688
 1898TIP3    H1 5700   3.005   0.369   2.604
 1898TIP3    H2 5701   2.977   0.481   2.701
 1899TIP3   OH2 5702   2.196   1.670   3.159
 1899TIP3    H1 5703   2.240   1.745   3.201
 1899TIP3    H2 5704   2.268   1.619   3.121
 1900TIP3   OH2 5705   3.795   1.917   2.800
 1900TIP3    H1 5706   3.828   1.830   2.778
 1900TIP3    H2 5707   3.818   1.971   2.724
 1901TIP3   OH2 5708   1.030   0.514   1.513
 1901TIP3    H1 5709   1.121   0.537   1.533
 1901TIP3    H2 5710   1.003   0.455   1.583
 1902TIP3   OH2 5711   3.793   1.671   1.737
 1902TIP3    H1 5712   3.859   1.658   1.669
 1902TIP3    H2 5713   3.803   1.763   1.762
 1903TIP3   OH2 5714   6.022   4.809   4.690
 1903TIP3    H1 5715   6.036   4.734   4.747
 1903TIP3    H2 5716   6.110   4.831   4.657
 1904TIP3   OH2 5717   0.728   3.914   3.180
 1904TIP3    H1 5718   0.634   3.925   3.197
 1904TIP3    H2 5719   0.738   3.819   3.170
 1905TIP3   OH2 5720   5.769   4.709   0.458
 1905TIP3    H1 5721   5.734   4.780   0.511
 1905TIP3    H2 5722   5.858   4.697   0.488
 1906TIP3   OH2 5723   0.143   2.244   0.711
 1906TIP3    H1 5724   0.096   2.167   0.679
 1906TIP3    H2 5725   0.085   2.283   0.775
 1907TIP3   OH2 5726   0.980   1.395   2.773
 1907TIP3    H1 5727   1.032   1.473   2.752
 1907TIP3    H2 5728   0.991   1.384   2.867
 1908TIP3   OH2 5729   5.688   5.216   0.450
 1908TIP3    H1 5730   5.624   5.228   0.519
 1908TIP3    H2 5731   5.772   5.206   0.495
 1909TIP3   OH2 5732   3.056   0.643   0.990
 1909TIP3    H1 5733   3.091   0.722   0.949
 1909TIP3    H2 5734   3.085   0.572   0.933
 1910TIP3   OH2 5735   2.819   3.510   1.024
 1910TIP3    H1 5736   2.772   3.563   1.088
 1910TIP3    H2 5737   2.826   3.423   1.065
 1911TIP3   OH2 5738   1.024   2.166   1.150
 1911TIP3    H1 5739   0.930   2.176   1.138
 1911TIP3    H2 5740   1.035   2.142   1.242
 1912TIP3   OH2 5741   3.183   2.860   1.412
 1912TIP3    H1 5742   3.216   2.782   1.457
 1912TIP3    H2 5743   3.251   2.883   1.349
 1913TIP3   OH2 5744   0.608   1.516   4.176
 1913TIP3    H1 5745   0.528   1.502   4.126
 1913TIP3    H2 5746   0.580   1.566   4.253
 1914TIP3   OH2 5747   0.046   3.118   2.450
 1914TIP3    H1 5748  -0.034   3.164   2.423
 1914TIP3    H2 5749   0.109   3.189   2.464
 1915TIP3   OH2 5750   0.582   5.405   2.435
 1915TIP3    H1 5751   0.508   5.345   2.451
 1915TIP3    H2 5752   0.568   5.477   2.496
 1916TIP3   OH2 5753   4.612   2.381   1.106
 1916TIP3    H1 5754   4.551   2.316   1.141
 1916TIP3    H2 5755   4.643   2.343   1.024
 1917TIP3   OH2 5756   0.481   3.877   2.066
 1917TIP3    H1 5757   0.439   3.917   1.990
 1917TIP3    H2 5758   0.428   3.907   2.141
 1918TIP3   OH2 5759   4.416   5.083   1.153
 1918TIP3    H1 5760   4.437   4.990   1.148
 1918TIP3    H2 5761   4.382   5.094   1.242
 1919TIP3   OH2 5762   4.486   3.384   0.664
 1919TIP3    H1 5763   4.465   3.402   0.755
 1919TIP3    H2 5764   4.535   3.301   0.667
 1920TIP3   OH2 5765   3.341   3.263   2.178
 1920TIP3    H1 5766   3.389   3.190   2.138
 1920TIP3    H2 5767   3.272   3.220   2.230
 1921TIP3   OH2 5768   1.860   1.839   0.380
 1921TIP3    H1 5769   1.798   1.862   0.449
 1921TIP3    H2 5770   1.897   1.922   0.352
 1922TIP3   OH2 5771   5.672   1.305   0.295
 1922TIP3    H1 5772   5.762   1.318   0.323
 1922TIP3    H2 5773   5.629   1.389   0.310
 1923TIP3   OH2 5774   2.493   2.629   1.287
 1923TIP3    H1 5775   2.409   2.602   1.326
 1923TIP3    H2 5776   2.537   2.677   1.356
 1924TIP3   OH2 5777   3.962   2.186   4.452
 1924TIP3    H1 5778   3.903   2.259   4.433
 1924TIP3    H2 5779   3.904   2.112   4.469
 1925TIP3   OH2 5780   3.056   3.931   0.257
 1925TIP3    H1 5781   3.137   3.946   0.307
 1925TIP3    H2 5782   3.023   3.847   0.290
 1926TIP3   OH2 5783   6.122   4.075   4.810
 1926TIP3    H1 5784   6.126   4.065   4.905
 1926TIP3    H2 5785   6.077   3.996   4.780
 1927TIP3   OH2 5786   5.461   4.010   0.388
 1927TIP3    H1 5787   5.370   3.982   0.378
 1927TIP3    H2 5788   5.482   4.051   0.304
 1928TIP3   OH2 5789   3.429   3.298   1.466
 1928TIP3    H1 5790   3.480   3.219   1.453
 1928TIP3    H2 5791   3.350   3.285   1.413
 1929TIP3   OH2 5792   6.297   0.976   0.262
 1929TIP3    H1 5793   6.371   0.991   0.322
 1929TIP3    H2 5794   6.306   0.884   0.237
 1930TIP3   OH2 5795   6.333   4.995   1.206
 1930TIP3    H1 5796   6.366   5.085   1.204
 1930TIP3    H2 5797   6.310   4.980   1.298
 1931TIP3   OH2 5798   1.603   5.236   1.276
 1931TIP3    H1 5799   1.647   5.293   1.339
 1931TIP3    H2 5800   1.514   5.271   1.272
 1932TIP3   OH2 5801   4.018   1.353   4.763
 1932TIP3    H1 5802   4.078   1.284   4.792
 1932TIP3    H2 5803   3.980   1.386   4.845
 1933TIP3   OH2 5804   3.997   3.472   0.533
 1933TIP3    H1 5805   3.966   3.454   0.444
 1933TIP3    H2 5806   4.093   3.473   0.525
 1934TIP3   OH2 5807   6.172   5.808   3.736
 1934TIP3    H1 5808   6.159   5.859   3.816
 1934TIP3    H2 5809   6.098   5.747   3.735
 1935TIP3   OH2 5810   5.882   3.201   3.594
 1935TIP3    H1 5811   5.825   3.255   3.649
 1935TIP3    H2 5812   5.970   3.237   3.608
 1936TIP3   OH2 5813   3.748   2.768   1.026
 1936TIP3    H1 5814   3.671   2.720   1.056
 1936TIP3    H2 5815   3.757   2.840   1.087
 1937TIP3   OH2 5816   4.221   5.489   1.825
 1937TIP3    H1 5817   4.201   5.561   1.765
 1937TIP3    H2 5818   4.135   5.453   1.848
 1938TIP3   OH2 5819   6.130   3.686   3.245
 1938TIP3    H1 5820   6.102   3.600   3.215
 1938TIP3    H2 5821   6.162   3.730   3.167
 1939TIP3   OH2 5822   6.181   2.639   4.301
 1939TIP3    H1 5823   6.161   2.642   4.395
 1939TIP3    H2 5824   6.270   2.604   4.297
 1940TIP3   OH2 5825   3.675   0.792   0.949
 1940TIP3    H1 5826   3.596   0.747   0.978
 1940TIP3    H2 5827   3.721   0.728   0.895
 1941TIP3   OH2 5828   1.226   1.113   3.150
 1941TIP3    H1 5829   1.177   1.070   3.080
 1941TIP3    H2 5830   1.315   1.080   3.140
 1942TIP3   OH2 5831   5.802   4.174   5.097
 1942TIP3    H1 5832   5.800   4.251   5.040
 1942TIP3    H2 5833   5.895   4.162   5.118
 1943TIP3   OH2 5834   3.984   3.104   2.872
 1943TIP3    H1 5835   4.034   3.045   2.928
 1943TIP3    H2 5836   3.911   3.133   2.927
 1944TIP3   OH2 5837   0.325   5.219   5.013
 1944TIP3    H1 5838   0.309   5.199   5.105
 1944TIP3    H2 5839   0.410   5.180   4.994
 1945TIP3   OH2 5840   3.828   4.452   2.701
 1945TIP3    H1 5841   3.815   4.445   2.796
 1945TIP3    H2 5842   3.917   4.419   2.687
 1946TIP3   OH2 5843   3.665   4.443   2.187
 1946TIP3    H1 5844   3.713   4.370   2.227
 1946TIP3    H2 5845   3.714   4.521   2.211
 1947TIP3   OH2 5846   3.879   0.554   2.228
 1947TIP3    H1 5847   3.849   0.471   2.192
 1947TIP3    H2 5848   3.806   0.615   2.212
 1948TIP3   OH2 5849   0.175   1.135   4.431
 1948TIP3    H1 5850   0.133   1.095   4.508
 1948TIP3    H2 5851   0.196   1.061   4.374
 1949TIP3   OH2 5852   5.774   1.268   3.272
 1949TIP3    H1 5853   5.759   1.309   3.187
 1949TIP3    H2 5854   5.820   1.187   3.252
 1950TIP3   OH2 5855   4.914   5.395   0.733
 1950TIP3    H1 5856   4.839   5.411   0.789
 1950TIP3    H2 5857   4.959   5.480   0.728
 1951TIP3   OH2 5858   4.579   0.337   0.852
 1951TIP3    H1 5859   4.508   0.374   0.799
 1951TIP3    H2 5860   4.538   0.316   0.936
 1952TIP3   OH2 5861   1.429   0.136   3.586
 1952TIP3    H1 5862   1.397   0.199   3.652
 1952TIP3    H2 5863   1.515   0.169   3.562
 1953TIP3   OH2 5864   4.272   1.314   2.572
 1953TIP3    H1 5865   4.262   1.219   2.574
 1953TIP3    H2 5866   4.230   1.341   2.490
 1954TIP3   OH2 5867   2.729   5.346   1.878
 1954TIP3    H1 5868   2.759   5.299   1.799
 1954TIP3    H2 5869   2.741   5.439   1.857
 1955TIP3   OH2 5870   1.346   5.718   1.750
 1955TIP3    H1 5871   1.351   5.635   1.704
 1955TIP3    H2 5872   1.424   5.766   1.722
 1956TIP3   OH2 5873   5.365   5.519   4.980
 1956TIP3    H1 5874   5.372   5.445   5.040
 1956TIP3    H2 5875   5.444   5.513   4.926
 1957TIP3   OH2 5876   4.857   2.028   4.813
 1957TIP3    H1 5877   4.909   2.079   4.875
 1957TIP3    H2 5878   4.796   2.091   4.775
 1958TIP3   OH2 5879   2.440   3.877   1.826
 1958TIP3    H1 5880   2.526   3.918   1.833
 1958TIP3    H2 5881   2.389   3.937   1.772
 1959TIP3   OH2 5882   2.235   2.775   2.197
 1959TIP3    H1 5883   2.258   2.846   2.138
 1959TIP3    H2 5884   2.202   2.819   2.276
 1960TIP3   OH2 5885   1.757   4.730   2.740
 1960TIP3    H1 5886   1.816   4.806   2.741
 1960TIP3    H2 5887   1.801   4.665   2.795
 1961TIP3   OH2 5888   1.476   4.206   3.574
 1961TIP3    H1 5889   1.472   4.278   3.511
 1961TIP3    H2 5890   1.570   4.194   3.591
 1962TIP3   OH2 5891   0.279   0.178   3.666
 1962TIP3    H1 5892   0.253   0.137   3.749
 1962TIP3    H2 5893   0.215   0.247   3.652
 1963TIP3   OH2 5894   1.664   1.933   0.807
 1963TIP3    H1 5895   1.622   1.961   0.726
 1963TIP3    H2 5896   1.664   2.012   0.862
 1964TIP3   OH2 5897   1.491   3.503   0.787
 1964TIP3    H1 5898   1.497   3.434   0.720
 1964TIP3    H2 5899   1.544   3.470   0.860
 1965TIP3   OH2 5900   3.239   2.645   0.611
 1965TIP3    H1 5901   3.305   2.621   0.546
 1965TIP3    H2 5902   3.290   2.662   0.691
 1966TIP3   OH2 5903   2.866   4.944   2.107
 1966TIP3    H1 5904   2.861   4.987   2.193
 1966TIP3    H2 5905   2.809   4.868   2.115
 1967TIP3   OH2 5906   1.648   1.832   1.386
 1967TIP3    H1 5907   1.661   1.804   1.296
 1967TIP3    H2 5908   1.569   1.787   1.415
 1968TIP3   OH2 5909   3.716   5.125   3.300
 1968TIP3    H1 5910   3.797   5.159   3.260
 1968TIP3    H2 5911   3.684   5.059   3.239
 1969TIP3   OH2 5912   2.006   3.045   4.509
 1969TIP3    H1 5913   2.085   2.991   4.501
 1969TIP3    H2 5914   2.025   3.123   4.456
 1970TIP3   OH2 5915   0.345   2.171   1.394
 1970TIP3    H1 5916   0.311   2.261   1.388
 1970TIP3    H2 5917   0.329   2.145   1.484
 1971TIP3   OH2 5918   5.762   0.415   1.786
 1971TIP3    H1 5919   5.857   0.420   1.777
 1971TIP3    H2 5920   5.740   0.485   1.848
 1972TIP3   OH2 5921   1.655   5.332   0.388
 1972TIP3    H1 5922   1.668   5.298   0.300
 1972TIP3    H2 5923   1.696   5.418   0.387
 1973TIP3   OH2 5924   1.271   0.980   0.347
 1973TIP3    H1 5925   1.354   0.977   0.394
 1973TIP3    H2 5926   1.257   0.891   0.316
 1974TIP3   OH2 5927   1.668   2.641   1.657
 1974TIP3    H1 5928   1.629   2.595   1.731
 1974TIP3    H2 5929   1.594   2.677   1.609
 1975TIP3   OH2 5930   6.106   5.131   2.567
 1975TIP3    H1 5931   6.094   5.166   2.479
 1975TIP3    H2 5932   6.067   5.043   2.564
 1976TIP3   OH2 5933   0.195   3.048   1.219
 1976TIP3    H1 5934   0.274   3.098   1.239
 1976TIP3    H2 5935   0.225   2.978   1.161
 1977TIP3   OH2 5936   5.037   2.902   2.824
 1977TIP3    H1 5937   5.103   2.834   2.811
 1977TIP3    H2 5938   5.024   2.904   2.919
 1978TIP3   OH2 5939   0.794   2.789   2.672
 1978TIP3    H1 5940   0.795   2.735   2.592
 1978TIP3    H2 5941   0.880   2.830   2.674
 1979TIP3   OH2 5942   2.594   2.052   3.215
 1979TIP3    H1 5943   2.634   1.973   3.252
 1979TIP3    H2 5944   2.502   2.028   3.203
 1980TIP3   OH2 5945   3.423   0.907   2.951
 1980TIP3    H1 5946   3.471   0.974   3.000
 1980TIP3    H2 5947   3.484   0.834   2.944
 1981TIP3   OH2 5948   2.842   3.862   0.760
 1981TIP3    H1 5949   2.898   3.898   0.691
 1981TIP3    H2 5950   2.760   3.911   0.753
 1982TIP3   OH2 5951   4.149   0.973   1.447
 1982TIP3    H1 5952   4.080   0.907   1.447
 1982TIP3    H2 5953   4.207   0.947   1.375
 1983TIP3   OH2 5954   4.631   5.070   2.954
 1983TIP3    H1 5955   4.607   5.099   2.867
 1983TIP3    H2 5956   4.721   5.101   2.966
 1984TIP3   OH2 5957   1.183   0.182   4.165
 1984TIP3    H1 5958   1.167   0.256   4.224
 1984TIP3    H2 5959   1.096   0.148   4.144
 1985TIP3   OH2 5960   1.964   0.543   0.079
 1985TIP3    H1 5961   1.889   0.602   0.084
 1985TIP3    H2 5962   2.038   0.594   0.111
 1986TIP3   OH2 5963   5.609   2.693   4.412
 1986TIP3    H1 5964   5.683   2.692   4.350
 1986TIP3    H2 5965   5.650   2.698   4.498
 1987TIP3   OH2 5966   1.871   0.691   0.361
 1987TIP3    H1 5967   1.864   0.732   0.447
 1987TIP3    H2 5968   1.965   0.686   0.344
 1988TIP3   OH2 5969   3.525   1.453   3.715
 1988TIP3    H1 5970   3.597   1.513   3.733
 1988TIP3    H2 5971   3.461   1.470   3.784
 1989TIP3   OH2 5972   3.631   5.039   5.087
 1989TIP3    H1 5973   3.726   5.046   5.096
 1989TIP3    H2 5974   3.611   5.087   5.006
 1990TIP3   OH2 5975   1.811   0.563   2.774
 1990TIP3    H1 5976   1.810   0.603   2.861
 1990TIP3    H2 5977   1.841   0.473   2.790
 1991TIP3   OH2 5978   1.483   2.559   3.479
 1991TIP3    H1 5979   1.542   2.595   3.544
 1991TIP3    H2 5980   1.484   2.622   3.407
 1992TIP3   OH2 5981   5.945   4.402   3.627
 1992TIP3    H1 5982   5.937   4.454   3.547
 1992TIP3    H2 5983   5.895   4.322   3.607
 1993TIP3   OH2 5984   1.468   3.955   3.006
 1993TIP3    H1 5985   1.466   3.878   3.063
 1993TIP3    H2 5986   1.379   3.961   2.971
 1994TIP3   OH2 5987   2.254   4.684   0.824
 1994TIP3    H1 5988   2.218   4.636   0.899
 1994TIP3    H2 5989   2.348   4.667   0.829
 1995TIP3   OH2 5990   4.114   3.631   4.614
 1995TIP3    H1 5991   4.144   3.541   4.625
 1995TIP3    H2 5992   4.024   3.631   4.648
 1996TIP3   OH2 5993   0.879   5.668   0.952
 1996TIP3    H1 5994   0.858   5.579   0.979
 1996TIP3    H2 5995   0.919   5.708   1.029
 1997TIP3   OH2 5996   6.189   4.004   0.448
 1997TIP3    H1 5997   6.101   3.983   0.480
 1997TIP3    H2 5998   6.231   4.049   0.521
 1998TIP3   OH2 5999   5.777   1.555   4.471
 1998TIP3    H1 6000   5.727   1.550   4.553
 1998TIP3    H2 6001   5.843   1.486   4.479
 1999TIP3   OH2 6002   1.681   0.541   0.247
 1999TIP3    H1 6003   1.744   0.604   0.285
 1999TIP3    H2 6004   1.693   0.462   0.299
 2000TIP3   OH2 6005   4.179   1.240   2.133
 2000TIP3    H1 6006   4.193   1.277   2.220
 2000TIP3    H2 6007   4.088   1.262   2.111
 2001TIP3   OH2 6008   3.011   2.348   4.167
 2001TIP3    H1 6009   2.918   2.356   4.184
 2001TIP3    H2 6010   3.040   2.274   4.221
 2002TIP3   OH2 6011   3.230   0.645   3.587
 2002TIP3    H1 6012   3.284   0.578   3.631
 2002TIP3    H2 6013   3.147   0.600   3.569
 2003TIP3   OH2 6014   5.450   2.586   0.978
 2003TIP3    H1 6015   5.521   2.553   0.924
 2003TIP3    H2 6016   5.376   2.529   0.958
 2004TIP3   OH2 6017   1.066   2.655   4.074
 2004TIP3    H1 6018   0.978   2.662   4.037
 2004TIP3    H2 6019   1.054   2.672   4.167
 2005TIP3   OH2 6020   3.397   0.200   3.924
 2005TIP3    H1 6021   3.464   0.143   3.963
 2005TIP3    H2 6022   3.435   0.228   3.841
 2006TIP3   OH2 6023   2.271   3.360   0.778
 2006TIP3    H1 6024   2.322   3.346   0.858
 2006TIP3    H2 6025   2.296   3.447   0.748
 2007TIP3   OH2 6026   6.102   3.631   0.586
 2007TIP3    H1 6027   6.184   3.679   0.591
 2007TIP3    H2 6028   6.092   3.590   0.672
 2008TIP3   OH2 6029   0.105   5.200   4.047
 2008TIP3    H1 6030   0.172   5.133   4.035
 2008TIP3    H2 6031   0.106   5.251   3.966
 2009TIP3   OH2 6032   2.010   4.550   1.395
 2009TIP3    H1 6033   1.966   4.465   1.384
 2009TIP3    H2 6034   2.070   4.536   1.468
 2010TIP3   OH2 6035   0.770   5.974   1.615
 2010TIP3    H1 6036   0.840   5.970   1.680
 2010TIP3    H2 6037   0.725   6.057   1.633
 2011TIP3   OH2 6038   0.279   5.400   1.378
 2011TIP3    H1 6039   0.358   5.363   1.418
 2011TIP3    H2 6040   0.294   5.495   1.380
 2012TIP3   OH2 6041   3.161   0.138   4.576
 2012TIP3    H1 6042   3.147   0.204   4.644
 2012TIP3    H2 6043   3.076   0.130   4.533
 2013TIP3   OH2 6044   3.176   5.897   1.975
 2013TIP3    H1 6045   3.172   5.963   2.045
 2013TIP3    H2 6046   3.136   5.940   1.899
 2014TIP3   OH2 6047   4.394   5.389   2.652
 2014TIP3    H1 6048   4.338   5.459   2.683
 2014TIP3    H2 6049   4.368   5.312   2.703
 2015TIP3   OH2 6050   2.381   1.516   3.993
 2015TIP3    H1 6051   2.443   1.556   4.054
 2015TIP3    H2 6052   2.414   1.540   3.906
 2016TIP3   OH2 6053   1.562   2.190   4.543
 2016TIP3    H1 6054   1.642   2.168   4.590
 2016TIP3    H2 6055   1.514   2.248   4.603
 2017TIP3   OH2 6056   3.071   4.064   0.967
 2017TIP3    H1 6057   3.047   3.986   1.017
 2017TIP3    H2 6058   3.131   4.033   0.900
 2018TIP3   OH2 6059   3.219   4.818   0.057
 2018TIP3    H1 6060   3.228   4.724   0.044
 2018TIP3    H2 6061   3.295   4.856   0.014
 2019TIP3   OH2 6062   3.235   3.140   3.277
 2019TIP3    H1 6063   3.302   3.208   3.286
 2019TIP3    H2 6064   3.211   3.143   3.184
 2020TIP3   OH2 6065   4.351   1.391   3.184
 2020TIP3    H1 6066   4.263   1.399   3.220
 2020TIP3    H2 6067   4.360   1.299   3.161
 2021TIP3   OH2 6068   5.402   1.510   1.696
 2021TIP3    H1 6069   5.350   1.460   1.759
 2021TIP3    H2 6070   5.428   1.446   1.630
 2022TIP3   OH2 6071   5.296   2.653   3.085
 2022TIP3    H1 6072   5.349   2.576   3.063
 2022TIP3    H2 6073   5.219   2.646   3.030
 2023TIP3   OH2 6074   5.499   0.568   1.003
 2023TIP3    H1 6075   5.416   0.524   1.019
 2023TIP3    H2 6076   5.478   0.661   1.007
 2024TIP3   OH2 6077   5.568   0.547   0.513
 2024TIP3    H1 6078   5.603   0.498   0.438
 2024TIP3    H2 6079   5.644   0.594   0.548
 2025TIP3   OH2 6080   4.148   0.100   1.546
 2025TIP3    H1 6081   4.072   0.053   1.512
 2025TIP3    H2 6082   4.217   0.034   1.550
 2026TIP3   OH2 6083   1.786   2.391   1.838
 2026TIP3    H1 6084   1.802   2.477   1.875
 2026TIP3    H2 6085   1.712   2.356   1.888
 2027TIP3   OH2 6086   0.547   2.604   4.270
 2027TIP3    H1 6087   0.570   2.592   4.178
 2027TIP3    H2 6088   0.592   2.533   4.316
 2028TIP3   OH2 6089   5.809   4.536   4.703
 2028TIP3    H1 6090   5.730   4.572   4.662
 2028TIP3    H2 6091   5.864   4.509   4.630
 2029TIP3   OH2 6092   0.292   4.016   2.980
 2029TIP3    H1 6093   0.349   4.041   3.052
 2029TIP3    H2 6094   0.352   3.998   2.907
 2030TIP3   OH2 6095   1.634   3.217   4.522
 2030TIP3    H1 6096   1.643   3.194   4.614
 2030TIP3    H2 6097   1.672   3.304   4.514
 2031TIP3   OH2 6098   2.990   4.343   1.886
 2031TIP3    H1 6099   2.954   4.259   1.916
 2031TIP3    H2 6100   2.999   4.395   1.966
 2032TIP3   OH2 6101   4.442   2.504   3.261
 2032TIP3    H1 6102   4.435   2.575   3.197
 2032TIP3    H2 6103   4.536   2.499   3.280
 2033TIP3   OH2 6104   0.863   0.838   4.026
 2033TIP3    H1 6105   0.825   0.791   3.951
 2033TIP3    H2 6106   0.844   0.783   4.101
 2034TIP3   OH2 6107   3.376   2.938   1.198
 2034TIP3    H1 6108   3.444   2.931   1.130
 2034TIP3    H2 6109   3.335   3.023   1.182
 2035TIP3   OH2 6110   0.588   0.487   3.934
 2035TIP3    H1 6111   0.559   0.500   3.844
 2035TIP3    H2 6112   0.513   0.447   3.978
 2036TIP3   OH2 6113   4.133   5.963   0.702
 2036TIP3    H1 6114   4.164   6.029   0.764
 2036TIP3    H2 6115   4.194   5.890   0.712
 2037TIP3   OH2 6116   3.213   1.267   4.034
 2037TIP3    H1 6117   3.121   1.250   4.015
 2037TIP3    H2 6118   3.258   1.186   4.010
 2038TIP3   OH2 6119   4.392   2.686   0.972
 2038TIP3    H1 6120   4.424   2.716   0.887
 2038TIP3    H2 6121   4.467   2.698   1.031
 2039TIP3   OH2 6122   0.018   0.778   0.592
 2039TIP3    H1 6123   0.057   0.860   0.562
 2039TIP3    H2 6124   0.091   0.730   0.632
 2040TIP3   OH2 6125   2.700   5.263   0.081
 2040TIP3    H1 6126   2.726   5.242  -0.009
 2040TIP3    H2 6127   2.615   5.306   0.072
 2041TIP3   OH2 6128   5.728   1.692   2.186
 2041TIP3    H1 6129   5.696   1.677   2.275
 2041TIP3    H2 6130   5.807   1.638   2.179
 2042TIP3   OH2 6131   3.458   5.222   0.307
 2042TIP3    H1 6132   3.458   5.256   0.397
 2042TIP3    H2 6133   3.370   5.241   0.275
 2043TIP3   OH2 6134   0.165   0.870   3.315
 2043TIP3    H1 6135   0.234   0.827   3.265
 2043TIP3    H2 6136   0.181   0.841   3.405
 2044TIP3   OH2 6137   4.164   2.695   1.492
 2044TIP3    H1 6138   4.133   2.692   1.582
 2044TIP3    H2 6139   4.085   2.706   1.440
 2045TIP3   OH2 6140   3.629   2.162   3.097
 2045TIP3    H1 6141   3.559   2.217   3.131
 2045TIP3    H2 6142   3.648   2.197   3.010
 2046TIP3   OH2 6143   1.747   1.915   1.629
 2046TIP3    H1 6144   1.712   1.903   1.540
 2046TIP3    H2 6145   1.679   1.964   1.675
 2047TIP3   OH2 6146   5.118   2.524   1.147
 2047TIP3    H1 6147   5.037   2.575   1.144
 2047TIP3    H2 6148   5.121   2.479   1.062
 2048TIP3   OH2 6149   4.317   3.065   0.418
 2048TIP3    H1 6150   4.317   3.112   0.502
 2048TIP3    H2 6151   4.401   3.086   0.379
 2049TIP3   OH2 6152   1.890   2.169   0.907
 2049TIP3    H1 6153   1.918   2.094   0.855
 2049TIP3    H2 6154   1.795   2.168   0.900
 2050TIP3   OH2 6155   3.884   1.958   1.857
 2050TIP3    H1 6156   3.869   2.022   1.788
 2050TIP3    H2 6157   3.886   2.009   1.938
 2051TIP3   OH2 6158   1.917   5.738   1.333
 2051TIP3    H1 6159   1.875   5.697   1.257
 2051TIP3    H2 6160   1.997   5.687   1.347
 2052TIP3   OH2 6161   2.483   1.053   0.740
 2052TIP3    H1 6162   2.452   1.137   0.775
 2052TIP3    H2 6163   2.458   0.988   0.806
 2053TIP3   OH2 6164   3.704   2.216   4.262
 2053TIP3    H1 6165   3.650   2.294   4.274
 2053TIP3    H2 6166   3.705   2.201   4.168
 2054TIP3   OH2 6167   2.758   3.658   1.279
 2054TIP3    H1 6168   2.684   3.665   1.340
 2054TIP3    H2 6169   2.835   3.647   1.335
 2055TIP3   OH2 6170   5.008   2.517   0.139
 2055TIP3    H1 6171   5.019   2.425   0.161
 2055TIP3    H2 6172   5.004   2.519   0.043
 2056TIP3   OH2 6173   6.271   1.838   3.125
 2056TIP3    H1 6174   6.321   1.805   3.200
 2056TIP3    H2 6175   6.249   1.760   3.074
 2057TIP3   OH2 6176   0.642   3.508   0.065
 2057TIP3    H1 6177   0.643   3.590   0.114
 2057TIP3    H2 6178   0.715   3.516   0.004
 2058TIP3   OH2 6179   4.320   2.233   3.058
 2058TIP3    H1 6180   4.242   2.273   3.096
 2058TIP3    H2 6181   4.287   2.171   2.994
 2059TIP3   OH2 6182   1.246   4.815   1.697
 2059TIP3    H1 6183   1.167   4.771   1.665
 2059TIP3    H2 6184   1.280   4.862   1.621
 2060TIP3   OH2 6185   1.072   4.704   1.028
 2060TIP3    H1 6186   1.081   4.656   1.110
 2060TIP3    H2 6187   1.162   4.726   1.002
 2061TIP3   OH2 6188   1.382   0.961   0.044
 2061TIP3    H1 6189   1.447   0.897   0.071
 2061TIP3    H2 6190   1.304   0.909   0.022
 2062TIP3   OH2 6191   5.168   1.558   2.547
 2062TIP3    H1 6192   5.188   1.505   2.470
 2062TIP3    H2 6193   5.073   1.552   2.557
 2063TIP3   OH2 6194   2.041   3.425   0.995
 2063TIP3    H1 6195   2.085   3.510   0.997
 2063TIP3    H2 6196   2.113   3.361   0.993
 2064TIP3   OH2 6197   4.661   3.118   1.164
 2064TIP3    H1 6198   4.586   3.075   1.203
 2064TIP3    H2 6199   4.717   3.141   1.238
 2065TIP3   OH2 6200   4.714   3.234   5.083
 2065TIP3    H1 6201   4.676   3.318   5.059
 2065TIP3    H2 6202   4.795   3.257   5.129
 2066TIP3   OH2 6203   0.220   2.602   4.801
 2066TIP3    H1 6204   0.178   2.552   4.731
 2066TIP3    H2 6205   0.232   2.690   4.765
 2067TIP3   OH2 6206   4.751   5.763   4.830
 2067TIP3    H1 6207   4.659   5.774   4.808
 2067TIP3    H2 6208   4.795   5.837   4.786
 2068TIP3   OH2 6209   2.039   3.225   2.845
 2068TIP3    H1 6210   2.080   3.140   2.862
 2068TIP3    H2 6211   2.110   3.288   2.854
 2069TIP3   OH2 6212   3.131   0.120   0.377
 2069TIP3    H1 6213   3.201   0.065   0.341
 2069TIP3    H2 6214   3.061   0.058   0.397
 2070TIP3   OH2 6215   4.210   2.592   1.768
 2070TIP3    H1 6216   4.237   2.526   1.704
 2070TIP3    H2 6217   4.174   2.541   1.840
 2071TIP3   OH2 6218   5.592   5.451   3.442
 2071TIP3    H1 6219   5.604   5.386   3.511
 2071TIP3    H2 6220   5.514   5.501   3.469
 2072TIP3   OH2 6221   0.260   2.727   0.702
 2072TIP3    H1 6222   0.198   2.667   0.660
 2072TIP3    H2 6223   0.345   2.701   0.667
 2073TIP3   OH2 6224   5.556   4.567   1.922
 2073TIP3    H1 6225   5.566   4.612   1.838
 2073TIP3    H2 6226   5.489   4.617   1.968
 2074TIP3   OH2 6227   2.655   0.532   2.199
 2074TIP3    H1 6228   2.690   0.489   2.121
 2074TIP3    H2 6229   2.630   0.619   2.169
 2075TIP3   OH2 6230   2.388   5.673   0.743
 2075TIP3    H1 6231   2.327   5.603   0.721
 2075TIP3    H2 6232   2.336   5.754   0.735
 2076TIP3   OH2 6233   0.427   5.342   4.583
 2076TIP3    H1 6234   0.491   5.401   4.543
 2076TIP3    H2 6235   0.395   5.390   4.659
 2077TIP3   OH2 6236   4.392   0.045   3.153
 2077TIP3    H1 6237   4.438  -0.031   3.190
 2077TIP3    H2 6238   4.447   0.073   3.080
 2078TIP3   OH2 6239   3.128   2.743   1.794
 2078TIP3    H1 6240   3.104   2.683   1.864
 2078TIP3    H2 6241   3.112   2.693   1.714
 2079TIP3   OH2 6242   5.658   2.090   1.550
 2079TIP3    H1 6243   5.569   2.055   1.554
 2079TIP3    H2 6244   5.668   2.139   1.631
 2080TIP3   OH2 6245   3.976   3.871   1.629
 2080TIP3    H1 6246   3.907   3.910   1.683
 2080TIP3    H2 6247   4.026   3.945   1.596
 2081TIP3   OH2 6248   4.979   5.248   4.407
 2081TIP3    H1 6249   4.989   5.305   4.483
 2081TIP3    H2 6250   4.894   5.272   4.370
 2082TIP3   OH2 6251   2.001   0.076   2.581
 2082TIP3    H1 6252   1.971   0.160   2.545
 2082TIP3    H2 6253   2.096   0.087   2.589
 2083TIP3   OH2 6254   4.896   3.489   0.527
 2083TIP3    H1 6255   4.883   3.494   0.622
 2083TIP3    H2 6256   4.955   3.414   0.515
 2084TIP3   OH2 6257   1.363   2.415   0.327
 2084TIP3    H1 6258   1.350   2.364   0.247
 2084TIP3    H2 6259   1.436   2.372   0.371
 2085TIP3   OH2 6260   6.301   1.480   1.006
 2085TIP3    H1 6261   6.231   1.417   0.991
 2085TIP3    H2 6262   6.376   1.444   0.959
 2086TIP3   OH2 6263   2.298   3.509   3.961
 2086TIP3    H1 6264   2.270   3.494   3.871
 2086TIP3    H2 6265   2.337   3.425   3.988
 2087TIP3   OH2 6266   2.643   1.170   5.125
 2087TIP3    H1 6267   2.727   1.192   5.083
 2087TIP3    H2 6268   2.591   1.250   5.118
 2088TIP3   OH2 6269   3.472   1.321   2.589
 2088TIP3    H1 6270   3.504   1.364   2.511
 2088TIP3    H2 6271   3.519   1.237   2.592
 2089TIP3   OH2 6272   4.155   4.770   2.199
 2089TIP3    H1 6273   4.248   4.787   2.211
 2089TIP3    H2 6274   4.126   4.835   2.135
 2090TIP3   OH2 6275   2.675   4.291   5.092
 2090TIP3    H1 6276   2.699   4.377   5.058
 2090TIP3    H2 6277   2.581   4.285   5.077
 2091TIP3   OH2 6278   3.883   5.767   1.119
 2091TIP3    H1 6279   3.946   5.808   1.178
 2091TIP3    H2 6280   3.936   5.714   1.060
 2092TIP3   OH2 6281   2.355   4.938   0.519
 2092TIP3    H1 6282   2.346   4.942   0.424
 2092TIP3    H2 6283   2.431   4.882   0.534
 2093TIP3   OH2 6284   3.511   4.543   0.939
 2093TIP3    H1 6285   3.558   4.572   1.017
 2093TIP3    H2 6286   3.556   4.584   0.866
 2094TIP3   OH2 6287   1.199   5.334   4.461
 2094TIP3    H1 6288   1.245   5.254   4.433
 2094TIP3    H2 6289   1.164   5.370   4.380
 2095TIP3   OH2 6290   5.232   3.642   3.608
 2095TIP3    H1 6291   5.173   3.569   3.624
 2095TIP3    H2 6292   5.272   3.660   3.693
 2096TIP3   OH2 6293   0.296   4.433   4.687
 2096TIP3    H1 6294   0.374   4.461   4.736
 2096TIP3    H2 6295   0.318   4.345   4.655
 2097TIP3   OH2 6296   2.041   4.860   3.612
 2097TIP3    H1 6297   2.082   4.858   3.698
 2097TIP3    H2 6298   1.985   4.782   3.610
 2098TIP3   OH2 6299   3.430   3.147   2.725
 2098TIP3    H1 6300   3.358   3.106   2.678
 2098TIP3    H2 6301   3.456   3.083   2.791
 2099TIP3   OH2 6302   3.379   2.217   0.327
 2099TIP3    H1 6303   3.337   2.150   0.382
 2099TIP3    H2 6304   3.470   2.189   0.321
 2100TIP3   OH2 6305   2.623   3.010   3.440
 2100TIP3    H1 6306   2.553   3.051   3.492
 2100TIP3    H2 6307   2.578   2.945   3.386
 2101TIP3   OH2 6308   2.989   3.319   2.011
 2101TIP3    H1 6309   3.044   3.247   1.982
 2101TIP3    H2 6310   3.047   3.396   2.012
 2102TIP3   OH2 6311   2.063   5.189   3.628
 2102TIP3    H1 6312   2.026   5.143   3.703
 2102TIP3    H2 6313   2.024   5.146   3.552
 2103TIP3   OH2 6314   1.006   4.250   4.299
 2103TIP3    H1 6315   0.958   4.170   4.319
 2103TIP3    H2 6316   0.984   4.269   4.207
 2104TIP3   OH2 6317   1.177   2.278   4.819
 2104TIP3    H1 6318   1.084   2.275   4.797
 2104TIP3    H2 6319   1.179   2.306   4.911
 2105TIP3   OH2 6320   4.114   1.627   2.029
 2105TIP3    H1 6321   4.168   1.642   2.106
 2105TIP3    H2 6322   4.164   1.566   1.976
 2106TIP3   OH2 6323   5.424   1.084   0.133
 2106TIP3    H1 6324   5.423   1.177   0.155
 2106TIP3    H2 6325   5.332   1.059   0.128
 2107TIP3   OH2 6326   2.524   4.748   2.301
 2107TIP3    H1 6327   2.438   4.717   2.275
 2107TIP3    H2 6328   2.507   4.813   2.370
 2108TIP3   OH2 6329   5.750   4.098   0.437
 2108TIP3    H1 6330   5.791   4.011   0.447
 2108TIP3    H2 6331   5.704   4.112   0.520
 2109TIP3   OH2 6332   6.185   2.588   0.940
 2109TIP3    H1 6333   6.227   2.662   0.984
 2109TIP3    H2 6334   6.094   2.592   0.968
 2110TIP3   OH2 6335   4.728   5.395   3.656
 2110TIP3    H1 6336   4.790   5.322   3.658
 2110TIP3    H2 6337   4.643   5.354   3.644
 2111TIP3   OH2 6338   1.836   5.875   3.261
 2111TIP3    H1 6339   1.827   5.960   3.302
 2111TIP3    H2 6340   1.794   5.814   3.321
 2112TIP3   OH2 6341   4.588   3.882   4.274
 2112TIP3    H1 6342   4.642   3.887   4.195
 2112TIP3    H2 6343   4.508   3.930   4.251
 2113TIP3   OH2 6344   2.898   4.344   3.933
 2113TIP3    H1 6345   2.897   4.261   3.980
 2113TIP3    H2 6346   2.921   4.409   3.999
 2114TIP3   OH2 6347   3.049   5.852   1.087
 2114TIP3    H1 6348   3.141   5.847   1.111
 2114TIP3    H2 6349   3.050   5.888   0.998
 2115TIP3   OH2 6350   2.358   4.433   3.274
 2115TIP3    H1 6351   2.332   4.508   3.327
 2115TIP3    H2 6352   2.344   4.357   3.330
 2116TIP3   OH2 6353   5.373   4.267   4.071
 2116TIP3    H1 6354   5.322   4.214   4.010
 2116TIP3    H2 6355   5.382   4.213   4.150
 2117TIP3   OH2 6356   2.252   4.132   2.907
 2117TIP3    H1 6357   2.176   4.190   2.902
 2117TIP3    H2 6358   2.224   4.061   2.966
 2118TIP3   OH2 6359   1.259   1.350   0.800
 2118TIP3    H1 6360   1.290   1.435   0.768
 2118TIP3    H2 6361   1.296   1.343   0.888
 2119TIP3   OH2 6362   2.956   3.588   5.128
 2119TIP3    H1 6363   2.908   3.647   5.186
 2119TIP3    H2 6364   2.923   3.609   5.040
 2120TIP3   OH2 6365   5.298   2.175   5.149
 2120TIP3    H1 6366   5.358   2.105   5.123
 2120TIP3    H2 6367   5.269   2.214   5.066
 2121TIP3   OH2 6368   1.481   5.107   0.038
 2121TIP3    H1 6369   1.414   5.112   0.106
 2121TIP3    H2 6370   1.564   5.112   0.085
 2122TIP3   OH2 6371   1.976   4.159   1.166
 2122TIP3    H1 6372   1.898   4.138   1.114
 2122TIP3    H2 6373   1.996   4.249   1.142
 2123TIP3   OH2 6374   0.460   2.253   3.924
 2123TIP3    H1 6375   0.548   2.219   3.943
 2123TIP3    H2 6376   0.463   2.276   3.832
 2124TIP3   OH2 6377   3.317   2.016   0.490
 2124TIP3    H1 6378   3.399   1.987   0.530
 2124TIP3    H2 6379   3.277   1.936   0.456
 2125TIP3   OH2 6380   3.534   4.545   1.914
 2125TIP3    H1 6381   3.481   4.583   1.844
 2125TIP3    H2 6382   3.615   4.597   1.914
 2126TIP3   OH2 6383   1.930   4.134   4.816
 2126TIP3    H1 6384   1.948   4.187   4.893
 2126TIP3    H2 6385   1.948   4.044   4.843
 2127TIP3   OH2 6386   4.253   1.499   1.394
 2127TIP3    H1 6387   4.166   1.504   1.354
 2127TIP3    H2 6388   4.272   1.405   1.397
 2128TIP3   OH2 6389   5.568   0.988   2.569
 2128TIP3    H1 6390   5.658   0.959   2.586
 2128TIP3    H2 6391   5.549   1.050   2.639
 2129TIP3   OH2 6392   1.542   2.437  -0.021
 2129TIP3    H1 6393   1.469   2.393   0.022
 2129TIP3    H2 6394   1.585   2.486   0.049
 2130TIP3   OH2 6395   1.253   3.888   4.940
 2130TIP3    H1 6396   1.292   3.816   4.988
 2130TIP3    H2 6397   1.275   3.871   4.849
 2131TIP3   OH2 6398   0.669   5.034   3.066
 2131TIP3    H1 6399   0.656   5.128   3.073
 2131TIP3    H2 6400   0.760   5.025   3.038
 2132TIP3   OH2 6401   2.184   1.618   1.193
 2132TIP3    H1 6402   2.239   1.543   1.216
 2132TIP3    H2 6403   2.121   1.625   1.265
 2133TIP3   OH2 6404   5.512   3.566   1.634
 2133TIP3    H1 6405   5.535   3.636   1.694
 2133TIP3    H2 6406   5.570   3.578   1.559
 2134TIP3   OH2 6407   4.095   1.652   2.666
 2134TIP3    H1 6408   4.070   1.597   2.592
 2134TIP3    H2 6409   4.061   1.607   2.743
 2135TIP3   OH2 6410   2.963   2.241   2.245
 2135TIP3    H1 6411   2.914   2.257   2.165
 2135TIP3    H2 6412   2.929   2.157   2.277
 2136TIP3   OH2 6413   4.920   2.823   4.746
 2136TIP3    H1 6414   4.918   2.854   4.837
 2136TIP3    H2 6415   4.947   2.731   4.753
 2137TIP3   OH2 6416   6.075   2.567   0.029
 2137TIP3    H1 6417   6.007   2.527  -0.026
 2137TIP3    H2 6418   6.030   2.633   0.080
 2138TIP3   OH2 6419   4.532   5.334   1.162
 2138TIP3    H1 6420   4.606   5.362   1.214
 2138TIP3    H2 6421   4.535   5.238   1.165
 2139TIP3   OH2 6422   4.123   4.370   0.081
 2139TIP3    H1 6423   4.093   4.378   0.172
 2139TIP3    H2 6424   4.212   4.336   0.088
 2140TIP3   OH2 6425   0.224   4.786   0.854
 2140TIP3    H1 6426   0.209   4.743   0.938
 2140TIP3    H2 6427   0.141   4.779   0.808
 2141TIP3   OH2 6428   4.514   5.401   0.239
 2141TIP3    H1 6429   4.569   5.324   0.253
 2141TIP3    H2 6430   4.534   5.458   0.313
 2142TIP3   OH2 6431   5.812   2.419   1.586
 2142TIP3    H1 6432   5.905   2.395   1.585
 2142TIP3    H2 6433   5.812   2.513   1.601
 2143TIP3   OH2 6434   5.195   5.834   2.031
 2143TIP3    H1 6435   5.110   5.797   2.056
 2143TIP3    H2 6436   5.176   5.927   2.015
 2144TIP3   OH2 6437   4.588   1.270  -0.007
 2144TIP3    H1 6438   4.539   1.315   0.062
 2144TIP3    H2 6439   4.573   1.323  -0.085
 2145TIP3   OH2 6440   3.405   3.561   3.807
 2145TIP3    H1 6441   3.413   3.601   3.721
 2145TIP3    H2 6442   3.391   3.635   3.867
 2146TIP3   OH2 6443   5.948   0.655   1.867
 2146TIP3    H1 6444   5.998   0.625   1.944
 2146TIP3    H2 6445   6.006   0.636   1.793
 2147TIP3   OH2 6446   6.168   4.473   1.113
 2147TIP3    H1 6447   6.124   4.388   1.108
 2147TIP3    H2 6448   6.167   4.507   1.023
 2148TIP3   OH2 6449   5.179   2.802   4.623
 2148TIP3    H1 6450   5.241   2.754   4.568
 2148TIP3    H2 6451   5.135   2.734   4.674
 2149TIP3   OH2 6452   0.481   0.599   1.296
 2149TIP3    H1 6453   0.476   0.542   1.373
 2149TIP3    H2 6454   0.460   0.686   1.330
 2150TIP3   OH2 6455   0.084   3.469   0.086
 2150TIP3    H1 6456  -0.007   3.465   0.059
 2150TIP3    H2 6457   0.123   3.388   0.054
 2151TIP3   OH2 6458   1.525   4.909   3.657
 2151TIP3    H1 6459   1.588   4.854   3.610
 2151TIP3    H2 6460   1.441   4.867   3.640
 2152TIP3   OH2 6461   4.346   5.521   3.645
 2152TIP3    H1 6462   4.266   5.564   3.616
 2152TIP3    H2 6463   4.389   5.494   3.563
 2153TIP3   OH2 6464   2.820   4.283   2.977
 2153TIP3    H1 6465   2.738   4.304   2.932
 2153TIP3    H2 6466   2.797   4.215   3.039
 2154TIP3   OH2 6467   5.111   1.960   0.842
 2154TIP3    H1 6468   5.194   1.917   0.863
 2154TIP3    H2 6469   5.131   2.015   0.766
 2155TIP3   OH2 6470   2.725   0.591   3.287
 2155TIP3    H1 6471   2.778   0.557   3.359
 2155TIP3    H2 6472   2.643   0.617   3.328
 2156TIP3   OH2 6473   5.816   0.513   1.387
 2156TIP3    H1 6474   5.853   0.560   1.462
 2156TIP3    H2 6475   5.731   0.555   1.373
 2157TIP3   OH2 6476   4.773   3.464   1.843
 2157TIP3    H1 6477   4.864   3.472   1.873
 2157TIP3    H2 6478   4.732   3.406   1.906
 2158TIP3   OH2 6479   2.557   0.399   2.633
 2158TIP3    H1 6480   2.507   0.360   2.562
 2158TIP3    H2 6481   2.638   0.429   2.591
 2159TIP3   OH2 6482   1.075   2.430   3.150
 2159TIP3    H1 6483   1.111   2.478   3.224
 2159TIP3    H2 6484   1.143   2.369   3.125
 2160TIP3   OH2 6485   4.647   0.444   4.294
 2160TIP3    H1 6486   4.641   0.348   4.292
 2160TIP3    H2 6487   4.709   0.463   4.364
 2161TIP3   OH2 6488   0.055   5.236   4.442
 2161TIP3    H1 6489   0.086   5.227   4.352
 2161TIP3    H2 6490   0.105   5.309   4.478
 2162TIP3   OH2 6491   5.830   4.005   2.656
 2162TIP3    H1 6492   5.914   4.038   2.687
 2162TIP3    H2 6493   5.765   4.052   2.710
 2163TIP3   OH2 6494   0.774   5.456   3.218
 2163TIP3    H1 6495   0.779   5.422   3.308
 2163TIP3    H2 6496   0.688   5.499   3.214
 2164TIP3   OH2 6497   1.770   4.446   2.552
 2164TIP3    H1 6498   1.784   4.479   2.641
 2164TIP3    H2 6499   1.765   4.351   2.563
 2165TIP3   OH2 6500   1.506   4.451   2.663
 2165TIP3    H1 6501   1.585   4.439   2.715
 2165TIP3    H2 6502   1.492   4.365   2.622
 2166TIP3   OH2 6503   1.001   3.988   4.971
 2166TIP3    H1 6504   0.982   4.013   4.881
 2166TIP3    H2 6505   1.094   3.964   4.970
 2167TIP3   OH2 6506   4.226   4.862   1.869
 2167TIP3    H1 6507   4.249   4.830   1.782
 2167TIP3    H2 6508   4.195   4.784   1.915
 2168TIP3   OH2 6509   0.297   2.590   3.761
 2168TIP3    H1 6510   0.239   2.532   3.811
 2168TIP3    H2 6511   0.238   2.638   3.702
 2169TIP3   OH2 6512   5.330   0.067   4.944
 2169TIP3    H1 6513   5.338   0.115   4.862
 2169TIP3    H2 6514   5.420   0.043   4.966
 2170TIP3   OH2 6515   2.362   1.758   4.404
 2170TIP3    H1 6516   2.402   1.676   4.375
 2170TIP3    H2 6517   2.270   1.749   4.379
 2171TIP3   OH2 6518   2.538   2.387   5.186
 2171TIP3    H1 6519   2.512   2.421   5.271
 2171TIP3    H2 6520   2.584   2.305   5.205
 2172TIP3   OH2 6521   2.016   2.415   2.299
 2172TIP3    H1 6522   1.968   2.440   2.378
 2172TIP3    H2 6523   2.018   2.319   2.301
 2173TIP3   OH2 6524   1.784   5.427   2.576
 2173TIP3    H1 6525   1.866   5.473   2.557
 2173TIP3    H2 6526   1.726   5.495   2.611
 2174TIP3   OH2 6527   0.918   3.619   4.794
 2174TIP3    H1 6528   0.902   3.538   4.842
 2174TIP3    H2 6529   0.990   3.600   4.735
 2175TIP3   OH2 6530   4.683   5.715   2.050
 2175TIP3    H1 6531   4.670   5.750   1.962
 2175TIP3    H2 6532   4.686   5.620   2.038
 2176TIP3   OH2 6533   3.916   1.426   0.836
 2176TIP3    H1 6534   3.957   1.341   0.817
 2176TIP3    H2 6535   3.924   1.475   0.755
 2177TIP3   OH2 6536   6.040   0.656   1.233
 2177TIP3    H1 6537   6.031   0.563   1.214
 2177TIP3    H2 6538   6.119   0.683   1.186
 2178TIP3   OH2 6539   3.225   0.196   3.552
 2178TIP3    H1 6540   3.188   0.246   3.479
 2178TIP3    H2 6541   3.162   0.208   3.623
 2179TIP3   OH2 6542   4.720   5.302   4.289
 2179TIP3    H1 6543   4.724   5.283   4.195
 2179TIP3    H2 6544   4.651   5.244   4.321
 2180TIP3   OH2 6545   0.303   2.518   2.363
 2180TIP3    H1 6546   0.365   2.540   2.292
 2180TIP3    H2 6547   0.229   2.478   2.318
 2181TIP3   OH2 6548   0.861   3.303   0.701
 2181TIP3    H1 6549   0.928   3.235   0.690
 2181TIP3    H2 6550   0.783   3.268   0.658
 2182TIP3   OH2 6551   4.624   0.537   1.347
 2182TIP3    H1 6552   4.636   0.625   1.382
 2182TIP3    H2 6553   4.696   0.526   1.285
 2183TIP3   OH2 6554   0.575   5.610   2.645
 2183TIP3    H1 6555   0.627   5.685   2.676
 2183TIP3    H2 6556   0.484   5.637   2.659
 2184TIP3   OH2 6557   1.451   0.636   0.407
 2184TIP3    H1 6558   1.512   0.681   0.465
 2184TIP3    H2 6559   1.480   0.545   0.408
 2185TIP3   OH2 6560   0.760   2.139   3.451
 2185TIP3    H1 6561   0.828   2.204   3.434
 2185TIP3    H2 6562   0.741   2.148   3.545
 2186TIP3   OH2 6563   3.509   5.613   3.085
 2186TIP3    H1 6564   3.467   5.538   3.044
 2186TIP3    H2 6565   3.601   5.607   3.059
 2187TIP3   OH2 6566   6.136   5.276   1.629
 2187TIP3    H1 6567   6.099   5.364   1.632
 2187TIP3    H2 6568   6.189   5.275   1.549
 2188TIP3   OH2 6569   0.483   4.058   3.246
 2188TIP3    H1 6570   0.546   4.127   3.265
 2188TIP3    H2 6571   0.433   4.048   3.327
 2189TIP3   OH2 6572   2.367   0.158   1.353
 2189TIP3    H1 6573   2.460   0.180   1.351
 2189TIP3    H2 6574   2.360   0.081   1.297
 2190TIP3   OH2 6575   0.892   2.541   2.161
 2190TIP3    H1 6576   0.957   2.498   2.105
 2190TIP3    H2 6577   0.859   2.470   2.217
 2191TIP3   OH2 6578   0.363   2.488   1.661
 2191TIP3    H1 6579   0.434   2.480   1.597
 2191TIP3    H2 6580   0.289   2.442   1.620
 2192TIP3   OH2 6581   1.237   0.053   0.977
 2192TIP3    H1 6582   1.239  -0.011   1.048
 2192TIP3    H2 6583   1.328   0.064   0.952
 2193TIP3   OH2 6584   5.914   5.300   2.225
 2193TIP3    H1 6585   5.929   5.291   2.319
 2193TIP3    H2 6586   5.920   5.394   2.208
 2194TIP3   OH2 6587   4.333   4.611   3.216
 2194TIP3    H1 6588   4.267   4.636   3.281
 2194TIP3    H2 6589   4.411   4.589   3.268
 2195TIP3   OH2 6590   2.299   1.195   0.011
 2195TIP3    H1 6591   2.337   1.282   0.003
 2195TIP3    H2 6592   2.257   1.195   0.097
 2196TIP3   OH2 6593   5.834   3.437   0.266
 2196TIP3    H1 6594   5.828   3.528   0.293
 2196TIP3    H2 6595   5.825   3.439   0.171
 2197TIP3   OH2 6596   1.593   0.442   4.498
 2197TIP3    H1 6597   1.571   0.439   4.591
 2197TIP3    H2 6598   1.656   0.514   4.491
 2198TIP3   OH2 6599   6.058   3.311   2.134
 2198TIP3    H1 6600   6.019   3.398   2.125
 2198TIP3    H2 6601   6.059   3.276   2.045
 2199TIP3   OH2 6602   4.957   3.620   1.250
 2199TIP3    H1 6603   4.993   3.532   1.258
 2199TIP3    H2 6604   4.874   3.607   1.203
 2200TIP3   OH2 6605   2.971   2.295   2.712
 2200TIP3    H1 6606   3.002   2.220   2.762
 2200TIP3    H2 6607   2.875   2.291   2.719
 2201TIP3   OH2 6608   1.165   3.968   4.079
 2201TIP3    H1 6609   1.175   3.987   4.172
 2201TIP3    H2 6610   1.197   4.048   4.035
 2202TIP3   OH2 6611   0.547   4.107   1.287
 2202TIP3    H1 6612   0.458   4.122   1.253
 2202TIP3    H2 6613   0.556   4.172   1.357
 2203TIP3   OH2 6614   3.619   5.044   1.022
 2203TIP3    H1 6615   3.584   4.991   0.951
 2203TIP3    H2 6616   3.712   5.021   1.026
 2204TIP3   OH2 6617   1.879   3.229   0.882
 2204TIP3    H1 6618   1.901   3.138   0.903
 2204TIP3    H2 6619   1.941   3.281   0.933
 2205TIP3   OH2 6620   1.729   3.025   0.603
 2205TIP3    H1 6621   1.704   3.044   0.512
 2205TIP3    H2 6622   1.820   2.996   0.597
 2206TIP3   OH2 6623   2.893   5.636   4.336
 2206TIP3    H1 6624   2.918   5.545   4.348
 2206TIP3    H2 6625   2.970   5.686   4.362
 2207TIP3   OH2 6626   1.184   4.062   1.945
 2207TIP3    H1 6627   1.150   4.139   1.989
 2207TIP3    H2 6628   1.256   4.095   1.891
 2208TIP3   OH2 6629   1.737   5.751   4.696
 2208TIP3    H1 6630   1.787   5.721   4.620
 2208TIP3    H2 6631   1.786   5.720   4.772
 2209TIP3   OH2 6632   2.076   3.576   4.111
 2209TIP3    H1 6633   2.104   3.607   4.197
 2209TIP3    H2 6634   2.157   3.548   4.068
 2210TIP3   OH2 6635   2.159   5.699   3.912
 2210TIP3    H1 6636   2.174   5.605   3.912
 2210TIP3    H2 6637   2.227   5.734   3.970
 2211TIP3   OH2 6638   0.463   5.646   1.380
 2211TIP3    H1 6639   0.439   5.642   1.288
 2211TIP3    H2 6640   0.552   5.609   1.383
 2212TIP3   OH2 6641   3.159   5.472   1.596
 2212TIP3    H1 6642   3.104   5.529   1.650
 2212TIP3    H2 6643   3.160   5.513   1.510
 2213TIP3   OH2 6644   1.432   5.876   4.422
 2213TIP3    H1 6645   1.416   5.781   4.428
 2213TIP3    H2 6646   1.345   5.914   4.409
 2214TIP3   OH2 6647   5.286   3.111   1.417
 2214TIP3    H1 6648   5.206   3.073   1.453
 2214TIP3    H2 6649   5.292   3.197   1.459
 2215TIP3   OH2 6650   6.073   2.329   1.628
 2215TIP3    H1 6651   6.118   2.413   1.640
 2215TIP3    H2 6652   6.128   2.265   1.673
 2216TIP3   OH2 6653   3.752   3.498   1.708
 2216TIP3    H1 6654   3.749   3.579   1.759
 2216TIP3    H2 6655   3.727   3.525   1.619
 2217TIP3   OH2 6656   0.038   2.247   1.453
 2217TIP3    H1 6657   0.077   2.246   1.366
 2217TIP3    H2 6658  -0.054   2.270   1.438
 2218TIP3   OH2 6659   5.776   2.393   1.015
 2218TIP3    H1 6660   5.728   2.313   1.038
 2218TIP3    H2 6661   5.715   2.442   0.960
 2219TIP3   OH2 6662   0.767   4.807   1.547
 2219TIP3    H1 6663   0.792   4.879   1.605
 2219TIP3    H2 6664   0.761   4.847   1.460
 2220TIP3   OH2 6665   3.372   4.944   2.073
 2220TIP3    H1 6666   3.442   4.915   2.131
 2220TIP3    H2 6667   3.408   4.936   1.985
 2221TIP3   OH2 6668   3.824   3.031   0.666
 2221TIP3    H1 6669   3.871   3.061   0.744
 2221TIP3    H2 6670   3.893   2.994   0.610
 2222TIP3   OH2 6671   0.930   3.000   2.785
 2222TIP3    H1 6672   0.895   3.019   2.872
 2222TIP3    H2 6673   0.856   3.015   2.726
 2223TIP3   OH2 6674   2.299   5.762   3.685
 2223TIP3    H1 6675   2.257   5.714   3.613
 2223TIP3    H2 6676   2.227   5.783   3.745
 2224TIP3   OH2 6677   5.624   0.209   0.329
 2224TIP3    H1 6678   5.601   0.151   0.402
 2224TIP3    H2 6679   5.668   0.283   0.370
 2225TIP3   OH2 6680   5.068   0.465   0.459
 2225TIP3    H1 6681   5.026   0.398   0.513
 2225TIP3    H2 6682   5.151   0.426   0.432
 2226TIP3   OH2 6683   6.274   3.520   1.064
 2226TIP3    H1 6684   6.285   3.596   1.121
 2226TIP3    H2 6685   6.358   3.475   1.067
 2227TIP3   OH2 6686   6.167   0.030   5.068
 2227TIP3    H1 6687   6.109   0.089   5.020
 2227TIP3    H2 6688   6.108  -0.027   5.117
 2228TIP3   OH2 6689   5.661   5.376   1.186
 2228TIP3    H1 6690   5.615   5.305   1.141
 2228TIP3    H2 6691   5.718   5.331   1.249
 2229TIP3   OH2 6692   4.543   1.283   2.417
 2229TIP3    H1 6693   4.587   1.214   2.466
 2229TIP3    H2 6694   4.450   1.270   2.435
 2230TIP3   OH2 6695   2.064   2.443   3.252
 2230TIP3    H1 6696   2.138   2.423   3.195
 2230TIP3    H2 6697   1.994   2.470   3.192
 2231TIP3   OH2 6698   0.902   3.840   2.860
 2231TIP3    H1 6699   0.890   3.838   2.954
 2231TIP3    H2 6700   0.926   3.931   2.840
 2232TIP3   OH2 6701   2.960   5.656   0.822
 2232TIP3    H1 6702   3.013   5.735   0.819
 2232TIP3    H2 6703   2.930   5.644   0.732
 2233TIP3   OH2 6704   6.037   0.036   1.280
 2233TIP3    H1 6705   5.991  -0.002   1.356
 2233TIP3    H2 6706   5.981   0.108   1.252
 2234TIP3   OH2 6707   0.481   5.342   0.917
 2234TIP3    H1 6708   0.544   5.272   0.937
 2234TIP3    H2 6709   0.396   5.297   0.916
 2235TIP3   OH2 6710   3.491   4.422   3.840
 2235TIP3    H1 6711   3.569   4.373   3.865
 2235TIP3    H2 6712   3.426   4.400   3.905
 2236TIP3   OH2 6713   4.385   3.779   1.507
 2236TIP3    H1 6714   4.357   3.859   1.462
 2236TIP3    H2 6715   4.407   3.808   1.595
 2237TIP3   OH2 6716   5.411   2.586   0.276
 2237TIP3    H1 6717   5.343   2.612   0.338
 2237TIP3    H2 6718   5.401   2.646   0.202
 2238TIP3   OH2 6719   2.468   2.634   2.816
 2238TIP3    H1 6720   2.536   2.576   2.781
 2238TIP3    H2 6721   2.387   2.584   2.805
 2239TIP3   OH2 6722   1.047   1.495   3.840
 2239TIP3    H1 6723   1.109   1.424   3.861
 2239TIP3    H2 6724   1.082   1.534   3.760
 2240TIP3   OH2 6725   0.895   1.565   2.078
 2240TIP3    H1 6726   0.805   1.551   2.107
 2240TIP3    H2 6727   0.948   1.513   2.138
 2241TIP3   OH2 6728   4.665   0.881   1.134
 2241TIP3    H1 6729   4.593   0.931   1.096
 2241TIP3    H2 6730   4.676   0.807   1.074
 2242TIP3   OH2 6731   3.193   0.261   2.815
 2242TIP3    H1 6732   3.178   0.176   2.857
 2242TIP3    H2 6733   3.108   0.284   2.779
 2243TIP3   OH2 6734   2.159   5.628   1.374
 2243TIP3    H1 6735   2.203   5.625   1.459
 2243TIP3    H2 6736   2.221   5.672   1.316
 2244TIP3   OH2 6737   4.858   5.713   4.118
 2244TIP3    H1 6738   4.782   5.679   4.165
 2244TIP3    H2 6739   4.890   5.639   4.067
 2245TIP3   OH2 6740   3.502   2.959   3.954
 2245TIP3    H1 6741   3.558   2.905   4.010
 2245TIP3    H2 6742   3.563   3.003   3.895
 2246TIP3   OH2 6743   1.123   2.028   4.675
 2246TIP3    H1 6744   1.151   2.098   4.735
 2246TIP3    H2 6745   1.115   1.951   4.731
 2247TIP3   OH2 6746   3.914   2.433   4.145
 2247TIP3    H1 6747   3.951   2.444   4.057
 2247TIP3    H2 6748   3.819   2.438   4.131
 2248TIP3   OH2 6749   3.136   1.842   5.111
 2248TIP3    H1 6750   3.206   1.801   5.059
 2248TIP3    H2 6751   3.183   1.898   5.173
 2249TIP3   OH2 6752   1.959   0.262   2.131
 2249TIP3    H1 6753   1.872   0.223   2.140
 2249TIP3    H2 6754   1.951   0.320   2.055
 2250TIP3   OH2 6755   6.159   5.772   1.347
 2250TIP3    H1 6756   6.186   5.783   1.256
 2250TIP3    H2 6757   6.194   5.686   1.373
 2251TIP3   OH2 6758   2.783   0.781   0.240
 2251TIP3    H1 6759   2.745   0.776   0.153
 2251TIP3    H2 6760   2.835   0.861   0.240
 2252TIP3   OH2 6761   2.961   1.834   4.410
 2252TIP3    H1 6762   2.955   1.882   4.328
 2252TIP3    H2 6763   2.928   1.894   4.477
 2253TIP3   OH2 6764   1.383   1.378   1.966
 2253TIP3    H1 6765   1.325   1.311   2.003
 2253TIP3    H2 6766   1.404   1.345   1.878
 2254TIP3   OH2 6767   2.107   2.837   2.474
 2254TIP3    H1 6768   2.171   2.803   2.537
 2254TIP3    H2 6769   2.096   2.929   2.500
 2255TIP3   OH2 6770   5.697   5.021   1.368
 2255TIP3    H1 6771   5.757   5.024   1.293
 2255TIP3    H2 6772   5.751   5.044   1.443
 2256TIP3   OH2 6773   1.305   5.450   1.645
 2256TIP3    H1 6774   1.289   5.396   1.723
 2256TIP3    H2 6775   1.219   5.462   1.605
 2257TIP3   OH2 6776   2.966   3.831   1.013
 2257TIP3    H1 6777   2.892   3.880   1.049
 2257TIP3    H2 6778   2.952   3.832   0.918
 2258TIP3   OH2 6779   2.827   0.953   4.672
 2258TIP3    H1 6780   2.885   1.009   4.620
 2258TIP3    H2 6781   2.804   1.007   4.748
 2259TIP3   OH2 6782   3.513   2.689   1.179
 2259TIP3    H1 6783   3.444   2.624   1.165
 2259TIP3    H2 6784   3.471   2.759   1.229
 2260TIP3   OH2 6785   5.057   2.643   0.544
 2260TIP3    H1 6786   4.962   2.644   0.537
 2260TIP3    H2 6787   5.078   2.557   0.580
 2261TIP3   OH2 6788   2.250   5.774   0.139
 2261TIP3    H1 6789   2.174   5.814   0.097
 2261TIP3    H2 6790   2.293   5.725   0.068
 2262TIP3   OH2 6791   0.608   1.231   0.241
 2262TIP3    H1 6792   0.544   1.293   0.275
 2262TIP3    H2 6793   0.638   1.270   0.159
 2263TIP3   OH2 6794   2.803   1.848   1.581
 2263TIP3    H1 6795   2.883   1.795   1.587
 2263TIP3    H2 6796   2.746   1.798   1.523
 2264TIP3   OH2 6797   2.207   0.944   0.347
 2264TIP3    H1 6798   2.296   0.945   0.314
 2264TIP3    H2 6799   2.163   1.016   0.302
 2265TIP3   OH2 6800   2.759   0.579   3.012
 2265TIP3    H1 6801   2.827   0.643   2.989
 2265TIP3    H2 6802   2.732   0.603   3.100
 2266TIP3   OH2 6803   2.578   0.681   0.781
 2266TIP3    H1 6804   2.499   0.733   0.795
 2266TIP3    H2 6805   2.572   0.652   0.690
 2267TIP3   OH2 6806   0.964   5.481   4.878
 2267TIP3    H1 6807   0.955   5.457   4.785
 2267TIP3    H2 6808   1.054   5.456   4.901
 2268TIP3   OH2 6809   3.389   0.532   3.769
 2268TIP3    H1 6810   3.391   0.530   3.864
 2268TIP3    H2 6811   3.456   0.597   3.745
 2269TIP3   OH2 6812   5.928   2.431   0.497
 2269TIP3    H1 6813   5.999   2.378   0.532
 2269TIP3    H2 6814   5.972   2.502   0.451
 2270TIP3   OH2 6815   1.323   0.290   2.207
 2270TIP3    H1 6816   1.241   0.262   2.166
 2270TIP3    H2 6817   1.345   0.219   2.267
 2271TIP3   OH2 6818   4.328   1.044   2.643
 2271TIP3    H1 6819   4.250   1.029   2.697
 2271TIP3    H2 6820   4.401   1.014   2.698
 2272TIP3   OH2 6821   4.249   2.383   2.763
 2272TIP3    H1 6822   4.251   2.291   2.788
 2272TIP3    H2 6823   4.250   2.430   2.846
 2273TIP3   OH2 6824   1.055   3.073   2.011
 2273TIP3    H1 6825   1.073   2.979   2.010
 2273TIP3    H2 6826   1.071   3.100   2.102
 2274TIP3   OH2 6827   1.020   5.746   4.298
 2274TIP3    H1 6828   0.964   5.781   4.229
 2274TIP3    H2 6829   1.076   5.819   4.324
 2275TIP3   OH2 6830   2.808   4.828   2.823
 2275TIP3    H1 6831   2.840   4.842   2.913
 2275TIP3    H2 6832   2.756   4.748   2.828
 2276TIP3   OH2 6833   5.667   4.877   0.654
 2276TIP3    H1 6834   5.703   4.937   0.720
 2276TIP3    H2 6835   5.577   4.905   0.642
 2277TIP3   OH2 6836   0.359   1.860   1.193
 2277TIP3    H1 6837   0.366   1.784   1.135
 2277TIP3    H2 6838   0.273   1.851   1.234
 2278TIP3   OH2 6839   4.371   1.415   4.819
 2278TIP3    H1 6840   4.364   1.320   4.806
 2278TIP3    H2 6841   4.449   1.425   4.875
 2279TIP3   OH2 6842   5.770   5.163   4.971
 2279TIP3    H1 6843   5.773   5.125   5.058
 2279TIP3    H2 6844   5.836   5.115   4.921
 2280TIP3   OH2 6845   5.091   2.186   1.277
 2280TIP3    H1 6846   5.145   2.107   1.277
 2280TIP3    H2 6847   5.153   2.258   1.277
 2281TIP3   OH2 6848   0.495   5.472   0.069
 2281TIP3    H1 6849   0.520   5.539   0.133
 2281TIP3    H2 6850   0.403   5.491   0.049
 2282TIP3   OH2 6851   1.613   3.439   1.054
 2282TIP3    H1 6852   1.662   3.393   1.122
 2282TIP3    H2 6853   1.614   3.531   1.082
 2283TIP3   OH2 6854   3.849   5.412   0.623
 2283TIP3    H1 6855   3.761   5.432   0.655
 2283TIP3    H2 6856   3.834   5.368   0.539
 2284TIP3   OH2 6857   2.101   1.041   4.822
 2284TIP3    H1 6858   2.169   1.008   4.763
 2284TIP3    H2 6859   2.149   1.088   4.890
 2285TIP3   OH2 6860   2.449   5.841   3.270
 2285TIP3    H1 6861   2.538   5.838   3.305
 2285TIP3    H2 6862   2.449   5.777   3.199
 2286TIP3   OH2 6863   5.139   3.127   3.895
 2286TIP3    H1 6864   5.213   3.091   3.846
 2286TIP3    H2 6865   5.164   3.218   3.912
 2287TIP3   OH2 6866   0.034   5.160   3.471
 2287TIP3    H1 6867  -0.048   5.112   3.484
 2287TIP3    H2 6868   0.047   5.159   3.376
 2288TIP3   OH2 6869   5.792   0.694   0.666
 2288TIP3    H1 6870   5.803   0.786   0.689
 2288TIP3    H2 6871   5.861   0.676   0.603
 2289TIP3   OH2 6872   4.034   1.009   4.216
 2289TIP3    H1 6873   4.118   0.967   4.234
 2289TIP3    H2 6874   4.057   1.091   4.171
 2290TIP3   OH2 6875   0.416   3.648   2.558
 2290TIP3    H1 6876   0.360   3.716   2.596
 2290TIP3    H2 6877   0.475   3.696   2.500
 2291TIP3   OH2 6878   3.824   0.163   3.330
 2291TIP3    H1 6879   3.729   0.156   3.336
 2291TIP3    H2 6880   3.842   0.151   3.236
 2292TIP3   OH2 6881   4.769   1.702   5.103
 2292TIP3    H1 6882   4.806   1.786   5.129
 2292TIP3    H2 6883   4.739   1.664   5.185
 2293TIP3   OH2 6884   2.528   4.902   4.161
 2293TIP3    H1 6885   2.462   4.833   4.161
 2293TIP3    H2 6886   2.609   4.858   4.186
 2294TIP3   OH2 6887   4.409   5.561   0.886
 2294TIP3    H1 6888   4.360   5.582   0.806
 2294TIP3    H2 6889   4.401   5.640   0.940
 2295TIP3   OH2 6890   6.294   3.381   0.719
 2295TIP3    H1 6891   6.321   3.315   0.656
 2295TIP3    H2 6892   6.205   3.355   0.744
 2296TIP3   OH2 6893   0.980   2.049   2.061
 2296TIP3    H1 6894   0.985   1.966   2.013
 2296TIP3    H2 6895   0.975   2.023   2.153
 2297TIP3   OH2 6896   6.266   4.827   2.353
 2297TIP3    H1 6897   6.299   4.744   2.320
 2297TIP3    H2 6898   6.316   4.843   2.433
 2298TIP3   OH2 6899   1.305   0.327   4.881
 2298TIP3    H1 6900   1.285   0.236   4.900
 2298TIP3    H2 6901   1.261   0.376   4.951
 2299TIP3   OH2 6902   3.705   4.086   1.476
 2299TIP3    H1 6903   3.769   4.078   1.546
 2299TIP3    H2 6904   3.621   4.066   1.518
 2300TIP3   OH2 6905   4.902   4.423   5.048
 2300TIP3    H1 6906   4.859   4.339   5.064
 2300TIP3    H2 6907   4.847   4.466   4.982
 2301TIP3   OH2 6908   2.218   3.314   4.836
 2301TIP3    H1 6909   2.161   3.259   4.890
 2301TIP3    H2 6910   2.286   3.344   4.897
 2302TIP3   OH2 6911   3.572   4.482   4.675
 2302TIP3    H1 6912   3.500   4.466   4.614
 2302TIP3    H2 6913   3.634   4.534   4.623
 2303TIP3   OH2 6914   6.299   4.538   1.955
 2303TIP3    H1 6915   6.327   4.629   1.954
 2303TIP3    H2 6916   6.218   4.538   2.006
 2304TIP3   OH2 6917   3.496   4.017   1.829
 2304TIP3    H1 6918   3.485   4.112   1.823
 2304TIP3    H2 6919   3.407   3.983   1.837
 2305TIP3   OH2 6920   3.341   0.736   1.658
 2305TIP3    H1 6921   3.427   0.693   1.655
 2305TIP3    H2 6922   3.307   0.716   1.745
 2306TIP3   OH2 6923   6.324   1.153   4.216
 2306TIP3    H1 6924   6.375   1.194   4.147
 2306TIP3    H2 6925   6.379   1.161   4.294
 2307TIP3   OH2 6926   0.093   1.948   2.257
 2307TIP3    H1 6927   0.053   1.974   2.340
 2307TIP3    H2 6928   0.085   2.026   2.201
 2308TIP3   OH2 6929   1.895   5.918   0.269
 2308TIP3    H1 6930   1.831   5.900   0.200
 2308TIP3    H2 6931   1.842   5.946   0.344
 2309TIP3   OH2 6932   3.163   3.075   2.357
 2309TIP3    H1 6933   3.073   3.105   2.372
 2309TIP3    H2 6934   3.202   3.069   2.444
 2310TIP3   OH2 6935   1.319   5.819   3.961
 2310TIP3    H1 6936   1.385   5.868   4.011
 2310TIP3    H2 6937   1.316   5.863   3.876
 2311TIP3   OH2 6938   5.712   0.780   3.541
 2311TIP3    H1 6939   5.720   0.786   3.636
 2311TIP3    H2 6940   5.766   0.852   3.508
 2312TIP3   OH2 6941   2.508   0.162   3.505
 2312TIP3    H1 6942   2.498   0.106   3.582
 2312TIP3    H2 6943   2.425   0.155   3.459
 2313TIP3   OH2 6944   3.608   4.508   1.248
 2313TIP3    H1 6945   3.583   4.415   1.244
 2313TIP3    H2 6946   3.701   4.509   1.224
 2314TIP3   OH2 6947   0.391   0.458   0.821
 2314TIP3    H1 6948   0.425   0.380   0.776
 2314TIP3    H2 6949   0.332   0.499   0.758
 2315TIP3   OH2 6950   0.137   4.851   3.100
 2315TIP3    H1 6951   0.139   4.858   3.005
 2315TIP3    H2 6952   0.105   4.763   3.117
 2316TIP3   OH2 6953   0.206   1.688   3.389
 2316TIP3    H1 6954   0.293   1.651   3.377
 2316TIP3    H2 6955   0.155   1.654   3.315
 2317TIP3   OH2 6956   3.633   0.040   4.033
 2317TIP3    H1 6957   3.677   0.080   4.109
 2317TIP3    H2 6958   3.692   0.057   3.960
 2318TIP3   OH2 6959   0.030   3.844   4.205
 2318TIP3    H1 6960   0.028   3.907   4.277
 2318TIP3    H2 6961  -0.018   3.768   4.239
 2319TIP3   OH2 6962   3.329   5.371   4.947
 2319TIP3    H1 6963   3.423   5.384   4.935
 2319TIP3    H2 6964   3.295   5.458   4.968
 2320TIP3   OH2 6965   6.081   1.281   2.936
 2320TIP3    H1 6966   6.089   1.374   2.958
 2320TIP3    H2 6967   6.149   1.266   2.871
 2321TIP3   OH2 6968   4.941   1.924   0.123
 2321TIP3    H1 6969   4.971   1.834   0.136
 2321TIP3    H2 6970   4.848   1.916   0.103
 2322TIP3   OH2 6971   3.500   5.050   0.073
 2322TIP3    H1 6972   3.503   5.080   0.164
 2322TIP3    H2 6973   3.517   5.129   0.022
 2323TIP3   OH2 6974   2.779   0.529   2.456
 2323TIP3    H1 6975   2.750   0.550   2.367
 2323TIP3    H2 6976   2.864   0.570   2.464
 2324TIP3   OH2 6977   0.077   3.595   3.278
 2324TIP3    H1 6978  -0.018   3.602   3.272
 2324TIP3    H2 6979   0.108   3.686   3.277
 2325TIP3   OH2 6980   1.189   0.358   0.142
 2325TIP3    H1 6981   1.259   0.422   0.156
 2325TIP3    H2 6982   1.159   0.335   0.230
 2326TIP3   OH2 6983   1.723   1.307   0.994
 2326TIP3    H1 6984   1.737   1.214   0.979
 2326TIP3    H2 6985   1.805   1.339   1.031
 2327TIP3   OH2 6986   0.790   3.506   0.859
 2327TIP3    H1 6987   0.699   3.498   0.889
 2327TIP3    H2 6988   0.806   3.425   0.811
 2328TIP3   OH2 6989   3.113   1.960   0.200
 2328TIP3    H1 6990   3.034   2.000   0.236
 2328TIP3    H2 6991   3.129   2.006   0.118
 2329TIP3   OH2 6992   2.165   0.557   2.339
 2329TIP3    H1 6993   2.124   0.604   2.267
 2329TIP3    H2 6994   2.258   0.552   2.315
 2330TIP3   OH2 6995   5.190   0.322   2.353
 2330TIP3    H1 6996   5.220   0.372   2.276
 2330TIP3    H2 6997   5.139   0.385   2.403
 2331TIP3   OH2 6998   5.114   1.923   3.708
 2331TIP3    H1 6999   5.057   1.992   3.742
 2331TIP3    H2 7000   5.179   1.909   3.777
 2332TIP3   OH2 7001   0.803   2.725   3.948
 2332TIP3    H1 7002   0.748   2.779   3.892
 2332TIP3    H2 7003   0.746   2.653   3.975
 2333TIP3   OH2 7004   1.827   1.204   3.867
 2333TIP3    H1 7005   1.760   1.158   3.917
 2333TIP3    H2 7006   1.843   1.149   3.790
 2334TIP3   OH2 7007   0.514   0.060   3.032
 2334TIP3    H1 7008   0.443   0.119   3.059
 2334TIP3    H2 7009   0.582   0.119   3.000
 2335TIP3   OH2 7010   1.680   5.723   4.023
 2335TIP3    H1 7011   1.641   5.810   4.017
 2335TIP3    H2 7012   1.616   5.665   3.981
 2336TIP3   OH2 7013   5.723   4.118   0.841
 2336TIP3    H1 7014   5.654   4.157   0.787
 2336TIP3    H2 7015   5.692   4.029   0.858
 2337TIP3   OH2 7016   3.608   5.780   1.095
 2337TIP3    H1 7017   3.702   5.765   1.091
 2337TIP3    H2 7018   3.569   5.698   1.065
 2338TIP3   OH2 7019   1.870   5.365   3.847
 2338TIP3    H1 7020   1.964   5.363   3.862
 2338TIP3    H2 7021   1.858   5.431   3.779
 2339TIP3   OH2 7022   2.035   4.784   3.908
 2339TIP3    H1 7023   2.085   4.705   3.886
 2339TIP3    H2 7024   2.092   4.833   3.966
 2340TIP3   OH2 7025   3.093   0.368   1.914
 2340TIP3    H1 7026   3.159   0.305   1.887
 2340TIP3    H2 7027   3.117   0.391   2.004
 2341TIP3   OH2 7028   4.258   2.026   3.855
 2341TIP3    H1 7029   4.270   1.961   3.786
 2341TIP3    H2 7030   4.165   2.047   3.853
 2342TIP3   OH2 7031   1.125   0.653   4.078
 2342TIP3    H1 7032   1.109   0.659   4.172
 2342TIP3    H2 7033   1.052   0.599   4.045
 2343TIP3   OH2 7034   0.894   2.747   0.255
 2343TIP3    H1 7035   0.955   2.713   0.320
 2343TIP3    H2 7036   0.857   2.668   0.214
 2344TIP3   OH2 7037   4.416   4.263   4.261
 2344TIP3    H1 7038   4.333   4.282   4.306
 2344TIP3    H2 7039   4.481   4.260   4.331
 2345TIP3   OH2 7040   0.922   2.950   1.161
 2345TIP3    H1 7041   0.870   2.872   1.146
 2345TIP3    H2 7042   0.915   3.000   1.080
 2346TIP3   OH2 7043   1.789   3.194   0.099
 2346TIP3    H1 7044   1.876   3.157   0.087
 2346TIP3    H2 7045   1.792   3.278   0.054
 2347TIP3   OH2 7046   3.507   0.625   2.571
 2347TIP3    H1 7047   3.564   0.557   2.535
 2347TIP3    H2 7048   3.484   0.594   2.658
 2348TIP3   OH2 7049   6.053   4.729   3.656
 2348TIP3    H1 7050   6.114   4.738   3.583
 2348TIP3    H2 7051   5.970   4.704   3.615
 2349TIP3   OH2 7052   0.781   1.009   2.861
 2349TIP3    H1 7053   0.872   0.984   2.873
 2349TIP3    H2 7054   0.747   0.950   2.794
 2350TIP3   OH2 7055   5.004   4.258   0.109
 2350TIP3    H1 7056   5.078   4.279   0.165
 2350TIP3    H2 7057   4.941   4.215   0.167
 2351TIP3   OH2 7058   3.831   0.911   2.832
 2351TIP3    H1 7059   3.785   0.880   2.754
 2351TIP3    H2 7060   3.810   1.004   2.836
 2352TIP3   OH2 7061   0.063   1.070   4.770
 2352TIP3    H1 7062   0.101   1.129   4.834
 2352TIP3    H2 7063   0.050   0.988   4.817
 2353TIP3   OH2 7064   2.690   5.533   3.576
 2353TIP3    H1 7065   2.602   5.557   3.606
 2353TIP3    H2 7066   2.747   5.551   3.651
 2354TIP3   OH2 7067   4.659   0.219   2.703
 2354TIP3    H1 7068   4.619   0.234   2.617
 2354TIP3    H2 7069   4.753   0.219   2.686
 2355TIP3   OH2 7070   0.597   2.045   5.101
 2355TIP3    H1 7071   0.517   2.004   5.131
 2355TIP3    H2 7072   0.647   1.974   5.059
 2356TIP3   OH2 7073   4.573   4.276   4.484
 2356TIP3    H1 7074   4.654   4.226   4.493
 2356TIP3    H2 7075   4.597   4.365   4.511
 2357TIP3   OH2 7076   1.110   0.058   2.794
 2357TIP3    H1 7077   1.202   0.079   2.807
 2357TIP3    H2 7078   1.063   0.137   2.819
 2358TIP3   OH2 7079   3.278   5.778   2.755
 2358TIP3    H1 7080   3.305   5.810   2.841
 2358TIP3    H2 7081   3.326   5.695   2.744
 2359TIP3   OH2 7082   1.044   4.601   1.291
 2359TIP3    H1 7083   1.097   4.674   1.321
 2359TIP3    H2 7084   0.998   4.571   1.370
 2360TIP3   OH2 7085   5.492   4.878   5.099
 2360TIP3    H1 7086   5.503   4.832   5.182
 2360TIP3    H2 7087   5.464   4.967   5.124
 2361TIP3   OH2 7088   1.506   4.484   4.238
 2361TIP3    H1 7089   1.592   4.464   4.276
 2361TIP3    H2 7090   1.448   4.491   4.313
 2362TIP3   OH2 7091   1.673   3.351   3.639
 2362TIP3    H1 7092   1.589   3.330   3.681
 2362TIP3    H2 7093   1.723   3.269   3.644
 2363TIP3   OH2 7094   1.554   1.686   0.802
 2363TIP3    H1 7095   1.615   1.759   0.797
 2363TIP3    H2 7096   1.481   1.718   0.855
 2364TIP3   OH2 7097   1.055   4.529   4.344
 2364TIP3    H1 7098   1.116   4.565   4.408
 2364TIP3    H2 7099   1.067   4.434   4.350
 2365TIP3   OH2 7100   2.920   2.849   4.033
 2365TIP3    H1 7101   2.979   2.783   4.070
 2365TIP3    H2 7102   2.928   2.837   3.938
 2366TIP3   OH2 7103   4.474   4.984   4.067
 2366TIP3    H1 7104   4.471   4.985   3.972
 2366TIP3    H2 7105   4.549   4.930   4.089
 2367TIP3   OH2 7106   0.483   3.193   4.475
 2367TIP3    H1 7107   0.464   3.269   4.530
 2367TIP3    H2 7108   0.415   3.194   4.408
 2368TIP3   OH2 7109   4.113   0.409   3.927
 2368TIP3    H1 7110   4.058   0.482   3.900
 2368TIP3    H2 7111   4.102   0.343   3.859
 2369TIP3   OH2 7112   1.690   5.116   3.658
 2369TIP3    H1 7113   1.607   5.069   3.647
 2369TIP3    H2 7114   1.712   5.105   3.750
 2370TIP3   OH2 7115   1.195   4.667   4.545
 2370TIP3    H1 7116   1.160   4.700   4.628
 2370TIP3    H2 7117   1.267   4.727   4.525
 2371TIP3   OH2 7118   2.415   2.010   4.449
 2371TIP3    H1 7119   2.400   1.915   4.444
 2371TIP3    H2 7120   2.503   2.022   4.414
 2372TIP3   OH2 7121   0.744   1.922   0.442
 2372TIP3    H1 7122   0.754   1.862   0.367
 2372TIP3    H2 7123   0.806   1.993   0.425
 2373TIP3   OH2 7124   1.082   5.375   5.146
 2373TIP3    H1 7125   1.167   5.370   5.103
 2373TIP3    H2 7126   1.098   5.343   5.234
 2374TIP3   OH2 7127   3.522   3.597   4.713
 2374TIP3    H1 7128   3.549   3.669   4.770
 2374TIP3    H2 7129   3.527   3.519   4.769
 2375TIP3   OH2 7130   1.822   1.525   1.250
 2375TIP3    H1 7131   1.886   1.574   1.301
 2375TIP3    H2 7132   1.770   1.591   1.206
 2376TIP3   OH2 7133   2.991   4.066   2.902
 2376TIP3    H1 7134   2.995   4.006   2.977
 2376TIP3    H2 7135   2.954   4.147   2.939
 2377TIP3   OH2 7136   6.087   3.823   1.606
 2377TIP3    H1 7137   6.160   3.883   1.587
 2377TIP3    H2 7138   6.012   3.861   1.560
 2378TIP3   OH2 7139   2.097   3.252   4.356
 2378TIP3    H1 7140   2.141   3.304   4.424
 2378TIP3    H2 7141   2.031   3.310   4.319
 2379TIP3   OH2 7142   1.920   5.563   3.389
 2379TIP3    H1 7143   1.928   5.483   3.338
 2379TIP3    H2 7144   1.961   5.631   3.334
 2380TIP3   OH2 7145   2.378   1.269   0.382
 2380TIP3    H1 7146   2.444   1.223   0.330
 2380TIP3    H2 7147   2.427   1.332   0.434
 2381TIP3   OH2 7148   3.823   3.628   5.097
 2381TIP3    H1 7149   3.729   3.636   5.077
 2381TIP3    H2 7150   3.854   3.559   5.038
 2382TIP3   OH2 7151   3.298   2.965   0.539
 2382TIP3    H1 7152   3.230   3.022   0.504
 2382TIP3    H2 7153   3.351   2.941   0.463
 2383TIP3   OH2 7154   4.338   0.543   1.020
 2383TIP3    H1 7155   4.349   0.548   1.115
 2383TIP3    H2 7156   4.301   0.628   0.996
 2384TIP3   OH2 7157   2.836   3.180   0.655
 2384TIP3    H1 7158   2.866   3.186   0.565
 2384TIP3    H2 7159   2.768   3.247   0.663
 2385TIP3   OH2 7160   0.122   3.327   1.127
 2385TIP3    H1 7161   0.106   3.234   1.139
 2385TIP3    H2 7162   0.215   3.339   1.150
 2386TIP3   OH2 7163   2.682   3.323   0.076
 2386TIP3    H1 7164   2.771   3.342   0.103
 2386TIP3    H2 7165   2.691   3.253   0.010
 2387TIP3   OH2 7166   4.678   0.371   5.107
 2387TIP3    H1 7167   4.726   0.433   5.162
 2387TIP3    H2 7168   4.742   0.341   5.043
 2388TIP3   OH2 7169   5.955   0.012   4.244
 2388TIP3    H1 7170   5.940  -0.071   4.198
 2388TIP3    H2 7171   6.044   0.004   4.279
 2389TIP3   OH2 7172   3.115   3.708   1.197
 2389TIP3    H1 7173   3.039   3.723   1.140
 2389TIP3    H2 7174   3.082   3.652   1.267
 2390TIP3   OH2 7175   3.310   1.928   1.965
 2390TIP3    H1 7176   3.283   1.921   2.057
 2390TIP3    H2 7177   3.306   1.839   1.932
 2391TIP3   OH2 7178   5.545   1.926   4.763
 2391TIP3    H1 7179   5.540   1.989   4.692
 2391TIP3    H2 7180   5.453   1.904   4.782
 2392TIP3   OH2 7181   0.068   3.068   3.100
 2392TIP3    H1 7182   0.038   2.978   3.116
 2392TIP3    H2 7183   0.147   3.077   3.153
 2393TIP3   OH2 7184   3.857   1.554   1.962
 2393TIP3    H1 7185   3.811   1.585   1.884
 2393TIP3    H2 7186   3.940   1.603   1.961
 2394TIP3   OH2 7187   1.833   3.192   2.459
 2394TIP3    H1 7188   1.788   3.159   2.537
 2394TIP3    H2 7189   1.923   3.159   2.467
 2395TIP3   OH2 7190   3.296   5.757   0.783
 2395TIP3    H1 7191   3.311   5.699   0.709
 2395TIP3    H2 7192   3.202   5.776   0.780
 2396TIP3   OH2 7193   5.284   3.986   3.009
 2396TIP3    H1 7194   5.278   3.973   3.103
 2396TIP3    H2 7195   5.195   4.002   2.981
 2397TIP3   OH2 7196   0.616   2.292   0.602
 2397TIP3    H1 7197   0.529   2.309   0.638
 2397TIP3    H2 7198   0.676   2.324   0.669
 2398TIP3   OH2 7199   5.257   0.163   4.102
 2398TIP3    H1 7200   5.259   0.184   4.009
 2398TIP3    H2 7201   5.213   0.237   4.142
 2399TIP3   OH2 7202   1.151   1.712   2.236
 2399TIP3    H1 7203   1.087   1.643   2.251
 2399TIP3    H2 7204   1.105   1.793   2.257
 2400TIP3   OH2 7205   0.697   1.386   3.122
 2400TIP3    H1 7206   0.621   1.439   3.098
 2400TIP3    H2 7207   0.702   1.394   3.217
 2401TIP3   OH2 7208   4.988   2.163   2.028
 2401TIP3    H1 7209   5.017   2.154   1.937
 2401TIP3    H2 7210   4.951   2.077   2.050
 2402TIP3   OH2 7211   0.631   3.184   1.101
 2402TIP3    H1 7212   0.600   3.123   1.034
 2402TIP3    H2 7213   0.727   3.180   1.094
 2403TIP3   OH2 7214   0.623   3.635   3.137
 2403TIP3    H1 7215   0.686   3.607   3.203
 2403TIP3    H2 7216   0.539   3.602   3.168
 2404TIP3   OH2 7217   2.265   3.226   2.282
 2404TIP3    H1 7218   2.329   3.280   2.236
 2404TIP3    H2 7219   2.181   3.254   2.246
 2405TIP3   OH2 7220   5.133   2.723   3.472
 2405TIP3    H1 7221   5.048   2.699   3.509
 2405TIP3    H2 7222   5.178   2.639   3.459
 2406TIP3   OH2 7223   4.994   0.123   3.592
 2406TIP3    H1 7224   5.028   0.038   3.622
 2406TIP3    H2 7225   5.050   0.188   3.635
 2407TIP3   OH2 7226   5.443   5.726   3.477
 2407TIP3    H1 7227   5.511   5.786   3.445
 2407TIP3    H2 7228   5.361   5.771   3.456
 2408TIP3   OH2 7229   0.874   2.469   0.244
 2408TIP3    H1 7230   0.852   2.391   0.192
 2408TIP3    H2 7231   0.966   2.486   0.223
 2409TIP3   OH2 7232   1.204   5.171   4.222
 2409TIP3    H1 7233   1.138   5.107   4.194
 2409TIP3    H2 7234   1.209   5.233   4.150
 2410TIP3   OH2 7235   3.546   1.059   3.145
 2410TIP3    H1 7236   3.488   1.038   3.218
 2410TIP3    H2 7237   3.626   1.091   3.186
 2411TIP3   OH2 7238   0.815   5.306   3.474
 2411TIP3    H1 7239   0.857   5.326   3.557
 2411TIP3    H2 7240   0.731   5.267   3.497
 2412TIP3   OH2 7241   5.467   3.119   0.077
 2412TIP3    H1 7242   5.446   3.037   0.121
 2412TIP3    H2 7243   5.494   3.092  -0.011
 2413TIP3   OH2 7244   4.394   4.266   2.729
 2413TIP3    H1 7245   4.338   4.207   2.678
 2413TIP3    H2 7246   4.353   4.268   2.816
 2414TIP3   OH2 7247   2.049   0.735   0.851
 2414TIP3    H1 7248   2.021   0.807   0.795
 2414TIP3    H2 7249   1.970   0.683   0.864
 2415TIP3   OH2 7250   5.545   2.348   0.324
 2415TIP3    H1 7251   5.498   2.429   0.305
 2415TIP3    H2 7252   5.619   2.349   0.262
 2416TIP3   OH2 7253   5.328   2.561   3.369
 2416TIP3    H1 7254   5.343   2.623   3.297
 2416TIP3    H2 7255   5.409   2.510   3.373
 2417TIP3   OH2 7256   5.997   3.850   2.255
 2417TIP3    H1 7257   5.991   3.900   2.174
 2417TIP3    H2 7258   6.003   3.758   2.227
 2418TIP3   OH2 7259   1.086   5.529   3.416
 2418TIP3    H1 7260   1.004   5.480   3.421
 2418TIP3    H2 7261   1.152   5.469   3.449
 2419TIP3   OH2 7262   3.178   1.509   4.360
 2419TIP3    H1 7263   3.138   1.546   4.439
 2419TIP3    H2 7264   3.154   1.416   4.363
 2420TIP3   OH2 7265   5.674   1.690   2.734
 2420TIP3    H1 7266   5.668   1.595   2.744
 2420TIP3    H2 7267   5.585   1.721   2.750
 2421TIP3   OH2 7268   1.512   5.560   3.868
 2421TIP3    H1 7269   1.437   5.511   3.835
 2421TIP3    H2 7270   1.546   5.607   3.792
 2422TIP3   OH2 7271   2.828   2.261   4.391
 2422TIP3    H1 7272   2.780   2.327   4.342
 2422TIP3    H2 7273   2.774   2.245   4.469
 2423TIP3   OH2 7274   4.743   1.693   0.168
 2423TIP3    H1 7275   4.708   1.660   0.251
 2423TIP3    H2 7276   4.783   1.617   0.127
 2424TIP3   OH2 7277   4.856   3.428   0.832
 2424TIP3    H1 7278   4.838   3.344   0.874
 2424TIP3    H2 7279   4.950   3.425   0.812
 2425TIP3   OH2 7280   4.920   1.217   2.093
 2425TIP3    H1 7281   5.002   1.209   2.045
 2425TIP3    H2 7282   4.907   1.311   2.104
 2426TIP3   OH2 7283   1.651   4.452   3.480
 2426TIP3    H1 7284   1.659   4.547   3.473
 2426TIP3    H2 7285   1.735   4.418   3.449
 2427TIP3   OH2 7286   3.322   0.440   3.210
 2427TIP3    H1 7287   3.272   0.453   3.291
 2427TIP3    H2 7288   3.301   0.351   3.183
 2428TIP3   OH2 7289   3.010   5.748   2.714
 2428TIP3    H1 7290   3.096   5.756   2.673
 2428TIP3    H2 7291   3.011   5.815   2.783
 2429TIP3   OH2 7292   2.264   1.203   1.944
 2429TIP3    H1 7293   2.231   1.148   2.015
 2429TIP3    H2 7294   2.301   1.142   1.880
 2430TIP3   OH2 7295   4.396   5.219   0.903
 2430TIP3    H1 7296   4.400   5.176   0.989
 2430TIP3    H2 7297   4.305   5.207   0.876
 2431TIP3   OH2 7298   3.828   3.678   3.436
 2431TIP3    H1 7299   3.753   3.622   3.456
 2431TIP3    H2 7300   3.893   3.655   3.503
 2432TIP3   OH2 7301   4.702   4.006   1.911
 2432TIP3    H1 7302   4.747   3.926   1.936
 2432TIP3    H2 7303   4.615   3.998   1.952
 2433TIP3   OH2 7304   3.378   2.504   3.387
 2433TIP3    H1 7305   3.310   2.453   3.431
 2433TIP3    H2 7306   3.334   2.585   3.360
 2434TIP3   OH2 7307   6.083   0.453   5.176
 2434TIP3    H1 7308   6.139   0.479   5.248
 2434TIP3    H2 7309   6.107   0.511   5.104
 2435TIP3   OH2 7310   4.031   0.727   1.291
 2435TIP3    H1 7311   3.936   0.719   1.284
 2435TIP3    H2 7312   4.062   0.729   1.201
 2436TIP3   OH2 7313   0.689   3.763   0.183
 2436TIP3    H1 7314   0.772   3.749   0.229
 2436TIP3    H2 7315   0.685   3.858   0.170
 2437TIP3   OH2 7316   5.763   3.693   0.346
 2437TIP3    H1 7317   5.729   3.738   0.269
 2437TIP3    H2 7318   5.689   3.688   0.406
 2438TIP3   OH2 7319   5.535   0.054   0.607
 2438TIP3    H1 7320   5.546  -0.001   0.684
 2438TIP3    H2 7321   5.577   0.137   0.630
 2439TIP3   OH2 7322   2.244   4.429   4.820
 2439TIP3    H1 7323   2.267   4.340   4.794
 2439TIP3    H2 7324   2.279   4.484   4.749
 2440TIP3   OH2 7325   4.401   3.937   0.419
 2440TIP3    H1 7326   4.377   3.850   0.451
 2440TIP3    H2 7327   4.435   3.921   0.330
 2441TIP3   OH2 7328   4.533   5.804   4.693
 2441TIP3    H1 7329   4.501   5.720   4.662
 2441TIP3    H2 7330   4.469   5.868   4.661
 2442TIP3   OH2 7331   2.989   5.536   1.834
 2442TIP3    H1 7332   3.001   5.449   1.870
 2442TIP3    H2 7333   3.008   5.595   1.907
 2443TIP3   OH2 7334   1.928   1.524   4.749
 2443TIP3    H1 7335   1.942   1.455   4.684
 2443TIP3    H2 7336   1.843   1.561   4.727
 2444TIP3   OH2 7337   1.582   2.675   2.389
 2444TIP3    H1 7338   1.665   2.719   2.368
 2444TIP3    H2 7339   1.606   2.583   2.401
 2445TIP3   OH2 7340   3.219   5.124   2.841
 2445TIP3    H1 7341   3.268   5.048   2.872
 2445TIP3    H2 7342   3.144   5.129   2.901
 2446TIP3   OH2 7343   2.991   5.214   1.940
 2446TIP3    H1 7344   2.900   5.194   1.963
 2446TIP3    H2 7345   3.042   5.182   2.015
 2447TIP3   OH2 7346   3.073   1.204   2.114
 2447TIP3    H1 7347   3.080   1.240   2.026
 2447TIP3    H2 7348   3.000   1.253   2.154
 2448TIP3   OH2 7349   4.378   4.785   4.771
 2448TIP3    H1 7350   4.303   4.841   4.793
 2448TIP3    H2 7351   4.338   4.703   4.742
 2449TIP3   OH2 7352   4.003   0.569   4.467
 2449TIP3    H1 7353   4.071   0.575   4.400
 2449TIP3    H2 7354   3.936   0.632   4.438
 2450TIP3   OH2 7355   5.596   0.306   0.714
 2450TIP3    H1 7356   5.556   0.355   0.642
 2450TIP3    H2 7357   5.566   0.351   0.793
 2451TIP3   OH2 7358   1.616   5.591   0.176
 2451TIP3    H1 7359   1.546   5.527   0.181
 2451TIP3    H2 7360   1.579   5.663   0.125
 2452TIP3   OH2 7361   3.283   4.112   4.110
 2452TIP3    H1 7362   3.283   4.046   4.040
 2452TIP3    H2 7363   3.278   4.196   4.064
 2453TIP3   OH2 7364   1.447   0.456   0.164
 2453TIP3    H1 7365   1.457   0.362   0.176
 2453TIP3    H2 7366   1.534   0.492   0.179
 2454TIP3   OH2 7367   1.775   0.861   2.945
 2454TIP3    H1 7368   1.770   0.924   3.018
 2454TIP3    H2 7369   1.788   0.776   2.988
 2455TIP3   OH2 7370   1.728   1.503   3.992
 2455TIP3    H1 7371   1.713   1.535   3.903
 2455TIP3    H2 7372   1.794   1.434   3.982
 2456TIP3   OH2 7373   2.325   3.620   4.647
 2456TIP3    H1 7374   2.368   3.572   4.717
 2456TIP3    H2 7375   2.319   3.710   4.681
 2457TIP3   OH2 7376   0.097   2.371   2.264
 2457TIP3    H1 7377   0.146   2.299   2.303
 2457TIP3    H2 7378   0.007   2.358   2.295
 2458TIP3   OH2 7379   2.894   4.377   3.672
 2458TIP3    H1 7380   2.871   4.373   3.765
 2458TIP3    H2 7381   2.819   4.418   3.630
 2459TIP3   OH2 7382   1.721   3.501   2.171
 2459TIP3    H1 7383   1.754   3.412   2.173
 2459TIP3    H2 7384   1.682   3.511   2.084
 2460TIP3   OH2 7385   0.048   1.775   4.503
 2460TIP3    H1 7386   0.140   1.801   4.494
 2460TIP3    H2 7387   0.012   1.838   4.566
 2461TIP3   OH2 7388   2.769   2.046   2.996
 2461TIP3    H1 7389   2.728   1.964   2.969
 2461TIP3    H2 7390   2.726   2.069   3.078
 2462TIP3   OH2 7391   5.132   5.133   4.212
 2462TIP3    H1 7392   5.198   5.104   4.274
 2462TIP3    H2 7393   5.074   5.190   4.263
 2463TIP3   OH2 7394   3.733   3.759   2.089
 2463TIP3    H1 7395   3.659   3.734   2.033
 2463TIP3    H2 7396   3.724   3.854   2.099
 2464TIP3   OH2 7397   4.040   3.958   1.180
 2464TIP3    H1 7398   3.984   3.884   1.154
 2464TIP3    H2 7399   4.084   3.927   1.259
 2465TIP3   OH2 7400   0.634   5.524   0.739
 2465TIP3    H1 7401   0.692   5.561   0.805
 2465TIP3    H2 7402   0.588   5.453   0.784
 2466TIP3   OH2 7403   1.164   0.554   0.590
 2466TIP3    H1 7404   1.223   0.621   0.623
 2466TIP3    H2 7405   1.110   0.530   0.665
 2467TIP3   OH2 7406   5.255   5.924   2.483
 2467TIP3    H1 7407   5.303   5.956   2.407
 2467TIP3    H2 7408   5.269   5.991   2.550
 2468TIP3   OH2 7409   2.683   5.849   0.187
 2468TIP3    H1 7410   2.770   5.864   0.225
 2468TIP3    H2 7411   2.622   5.870   0.257
 2469TIP3   OH2 7412   6.097   3.937   3.389
 2469TIP3    H1 7413   6.125   3.851   3.359
 2469TIP3    H2 7414   6.174   3.993   3.381
 2470TIP3   OH2 7415   4.993   1.746   0.698
 2470TIP3    H1 7416   4.990   1.834   0.736
 2470TIP3    H2 7417   5.085   1.722   0.700
 2471TIP3   OH2 7418   4.365   0.721   1.580
 2471TIP3    H1 7419   4.413   0.664   1.640
 2471TIP3    H2 7420   4.432   0.762   1.527
 2472TIP3   OH2 7421   4.742   0.207   0.667
 2472TIP3    H1 7422   4.667   0.254   0.703
 2472TIP3    H2 7423   4.818   0.240   0.716
 2473TIP3   OH2 7424   3.527   4.892   0.809
 2473TIP3    H1 7425   3.542   4.801   0.787
 2473TIP3    H2 7426   3.490   4.930   0.729
 2474TIP3   OH2 7427   5.196   1.031   4.683
 2474TIP3    H1 7428   5.203   0.953   4.738
 2474TIP3    H2 7429   5.218   1.104   4.742
 2475TIP3   OH2 7430   5.671   5.589   2.351
 2475TIP3    H1 7431   5.707   5.511   2.393
 2475TIP3    H2 7432   5.675   5.570   2.257
 2476TIP3   OH2 7433   6.096   5.955   3.976
 2476TIP3    H1 7434   6.020   6.007   4.004
 2476TIP3    H2 7435   6.108   5.891   4.045
 2477TIP3   OH2 7436   1.885   0.268   0.146
 2477TIP3    H1 7437   1.868   0.258   0.240
 2477TIP3    H2 7438   1.880   0.362   0.130
 2478TIP3   OH2 7439   0.710   1.471   2.800
 2478TIP3    H1 7440   0.642   1.403   2.800
 2478TIP3    H2 7441   0.792   1.423   2.806
 2479TIP3   OH2 7442   5.791   2.019   0.289
 2479TIP3    H1 7443   5.842   2.023   0.370
 2479TIP3    H2 7444   5.848   2.057   0.222
 2480TIP3   OH2 7445   1.301   2.730   1.985
 2480TIP3    H1 7446   1.211   2.762   1.984
 2480TIP3    H2 7447   1.339   2.770   2.063
 2481TIP3   OH2 7448   3.919   0.726   2.488
 2481TIP3    H1 7449   3.908   0.659   2.421
 2481TIP3    H2 7450   3.988   0.782   2.455
 2482TIP3   OH2 7451   6.003   2.940   2.246
 2482TIP3    H1 7452   5.948   2.895   2.182
 2482TIP3    H2 7453   5.965   3.028   2.251
 2483TIP3   OH2 7454   3.667   1.317   3.967
 2483TIP3    H1 7455   3.590   1.325   3.911
 2483TIP3    H2 7456   3.664   1.227   3.999
 2484TIP3   OH2 7457   6.018   4.070   0.185
 2484TIP3    H1 7458   5.923   4.061   0.189
 2484TIP3    H2 7459   6.044   4.089   0.275
 2485TIP3   OH2 7460   1.407   2.289   0.881
 2485TIP3    H1 7461   1.412   2.384   0.870
 2485TIP3    H2 7462   1.322   2.274   0.921
 2486TIP3   OH2 7463   1.227   1.545   2.730
 2486TIP3    H1 7464   1.313   1.550   2.773
 2486TIP3    H2 7465   1.205   1.636   2.709
 2487TIP3   OH2 7466   4.666   4.972   5.030
 2487TIP3    H1 7467   4.743   5.029   5.021
 2487TIP3    H2 7468   4.598   5.029   5.068
 2488TIP3   OH2 7469   3.542   5.178   1.812
 2488TIP3    H1 7470   3.521   5.133   1.730
 2488TIP3    H2 7471   3.534   5.271   1.791
 2489TIP3   OH2 7472   0.820   4.947   0.232
 2489TIP3    H1 7473   0.775   4.871   0.270
 2489TIP3    H2 7474   0.773   4.965   0.151
 2490TIP3   OH2 7475   0.410   0.728   2.119
 2490TIP3    H1 7476   0.399   0.799   2.183
 2490TIP3    H2 7477   0.353   0.658   2.152
 2491TIP3   OH2 7478   3.438   3.855   2.196
 2491TIP3    H1 7479   3.472   3.941   2.170
 2491TIP3    H2 7480   3.432   3.860   2.291
 2492TIP3   OH2 7481   0.652   2.035   3.213
 2492TIP3    H1 7482   0.621   1.951   3.247
 2492TIP3    H2 7483   0.718   2.064   3.276
 2493TIP3   OH2 7484   6.145   4.828   1.833
 2493TIP3    H1 7485   6.120   4.789   1.917
 2493TIP3    H2 7486   6.157   4.921   1.851
 2494TIP3   OH2 7487   3.368   2.275   4.251
 2494TIP3    H1 7488   3.359   2.342   4.183
 2494TIP3    H2 7489   3.319   2.309   4.325
 2495TIP3   OH2 7490   1.218   5.490   2.103
 2495TIP3    H1 7491   1.233   5.486   2.198
 2495TIP3    H2 7492   1.140   5.437   2.089
 2496TIP3   OH2 7493   1.161   3.441   1.586
 2496TIP3    H1 7494   1.169   3.460   1.679
 2496TIP3    H2 7495   1.105   3.510   1.551
 2497TIP3   OH2 7496   6.317   0.041   4.152
 2497TIP3    H1 7497   6.291  -0.033   4.098
 2497TIP3    H2 7498   6.280   0.022   4.238
 2498TIP3   OH2 7499   4.981   4.507   0.495
 2498TIP3    H1 7500   4.963   4.458   0.575
 2498TIP3    H2 7501   5.031   4.584   0.525
 2499TIP3   OH2 7502   2.735   5.948   2.488
 2499TIP3    H1 7503   2.718   6.006   2.413
 2499TIP3    H2 7504   2.778   6.004   2.553
 2500TIP3   OH2 7505   3.160   4.769   2.096
 2500TIP3    H1 7506   3.198   4.704   2.037
 2500TIP3    H2 7507   3.212   4.848   2.082
 2501TIP3   OH2 7508   3.388   2.189   5.071
 2501TIP3    H1 7509   3.365   2.204   4.980
 2501TIP3    H2 7510   3.419   2.274   5.103
 2502TIP3   OH2 7511   0.383   3.685   1.719
 2502TIP3    H1 7512   0.473   3.676   1.689
 2502TIP3    H2 7513   0.382   3.649   1.807
 2503TIP3   OH2 7514   0.402   4.920   3.813
 2503TIP3    H1 7515   0.409   4.875   3.728
 2503TIP3    H2 7516   0.309   4.921   3.832
 2504TIP3   OH2 7517   0.389   3.053   3.845
 2504TIP3    H1 7518   0.356   3.137   3.879
 2504TIP3    H2 7519   0.354   3.048   3.756
 2505TIP3   OH2 7520   4.524   3.132   3.621
 2505TIP3    H1 7521   4.523   3.217   3.664
 2505TIP3    H2 7522   4.491   3.150   3.532
 2506TIP3   OH2 7523   5.707   3.069   4.031
 2506TIP3    H1 7524   5.690   3.161   4.047
 2506TIP3    H2 7525   5.802   3.064   4.019
 2507TIP3   OH2 7526   5.734   1.166   4.038
 2507TIP3    H1 7527   5.753   1.201   4.125
 2507TIP3    H2 7528   5.690   1.239   3.992
 2508TIP3   OH2 7529   4.623   1.996   1.147
 2508TIP3    H1 7530   4.709   1.964   1.177
 2508TIP3    H2 7531   4.588   1.923   1.095
 2509TIP3   OH2 7532   0.628   4.612   1.663
 2509TIP3    H1 7533   0.678   4.684   1.623
 2509TIP3    H2 7534   0.633   4.541   1.600
 2510TIP3   OH2 7535   5.498   4.831   1.380
 2510TIP3    H1 7536   5.526   4.922   1.387
 2510TIP3    H2 7537   5.561   4.790   1.321
 2511TIP3   OH2 7538   4.698   4.095   3.977
 2511TIP3    H1 7539   4.715   4.089   3.883
 2511TIP3    H2 7540   4.746   4.021   4.014
 2512TIP3   OH2 7541   1.109   3.450   0.498
 2512TIP3    H1 7542   1.179   3.514   0.501
 2512TIP3    H2 7543   1.034   3.493   0.539
 2513TIP3   OH2 7544   3.651   4.285   2.546
 2513TIP3    H1 7545   3.715   4.326   2.605
 2513TIP3    H2 7546   3.568   4.328   2.567
 2514TIP3   OH2 7547   5.878   2.947   3.733
 2514TIP3    H1 7548   5.882   3.022   3.673
 2514TIP3    H2 7549   5.933   2.972   3.807
 2515TIP3   OH2 7550   4.725   3.155   2.542
 2515TIP3    H1 7551   4.693   3.199   2.621
 2515TIP3    H2 7552   4.783   3.086   2.575
 2516TIP3   OH2 7553   1.803   4.454   4.935
 2516TIP3    H1 7554   1.817   4.369   4.893
 2516TIP3    H2 7555   1.880   4.506   4.912
 2517TIP3   OH2 7556   0.791   2.404   4.994
 2517TIP3    H1 7557   0.864   2.457   4.960
 2517TIP3    H2 7558   0.817   2.384   5.085
 2518TIP3   OH2 7559   0.318   2.520   3.461
 2518TIP3    H1 7560   0.269   2.438   3.460
 2518TIP3    H2 7561   0.324   2.543   3.554
 2519TIP3   OH2 7562   5.674   0.586   2.826
 2519TIP3    H1 7563   5.605   0.647   2.852
 2519TIP3    H2 7564   5.701   0.545   2.908
 2520TIP3   OH2 7565   2.995   0.025   2.145
 2520TIP3    H1 7566   3.075   0.057   2.186
 2520TIP3    H2 7567   2.986  -0.065   2.177
 2521TIP3   OH2 7568   0.703   2.452   3.649
 2521TIP3    H1 7569   0.747   2.463   3.564
 2521TIP3    H2 7570   0.767   2.406   3.703
 2522TIP3   OH2 7571   2.011   0.157   1.628
 2522TIP3    H1 7572   1.993   0.107   1.708
 2522TIP3    H2 7573   1.944   0.226   1.628
 2523TIP3   OH2 7574   3.537   3.939   0.519
 2523TIP3    H1 7575   3.496   4.003   0.462
 2523TIP3    H2 7576   3.584   3.880   0.459
 2524TIP3   OH2 7577   5.856   4.730   4.368
 2524TIP3    H1 7578   5.902   4.686   4.439
 2524TIP3    H2 7579   5.908   4.712   4.290
 2525TIP3   OH2 7580   5.793   0.834   1.087
 2525TIP3    H1 7581   5.818   0.789   1.167
 2525TIP3    H2 7582   5.738   0.907   1.116
 2526TIP3   OH2 7583   2.333   0.188   4.612
 2526TIP3    H1 7584   2.277   0.128   4.563
 2526TIP3    H2 7585   2.322   0.273   4.569
 2527TIP3   OH2 7586   1.502   4.159   4.424
 2527TIP3    H1 7587   1.504   4.214   4.503
 2527TIP3    H2 7588   1.594   4.151   4.398
 2528TIP3   OH2 7589   5.489   2.253   4.754
 2528TIP3    H1 7590   5.535   2.249   4.838
 2528TIP3    H2 7591   5.558   2.270   4.690
 2529TIP3   OH2 7592   2.936   3.417   1.684
 2529TIP3    H1 7593   2.887   3.460   1.754
 2529TIP3    H2 7594   2.869   3.385   1.624
 2530TIP3   OH2 7595   5.467   1.326   2.095
 2530TIP3    H1 7596   5.525   1.283   2.159
 2530TIP3    H2 7597   5.452   1.414   2.131
 2531TIP3   OH2 7598   4.350   5.644   3.008
 2531TIP3    H1 7599   4.409   5.687   2.946
 2531TIP3    H2 7600   4.335   5.710   3.076
 2532TIP3   OH2 7601   2.081   3.806   0.021
 2532TIP3    H1 7602   2.054   3.812   0.113
 2532TIP3    H2 7603   2.032   3.876  -0.023
 2533TIP3   OH2 7604   5.812   2.030   1.323
 2533TIP3    H1 7605   5.850   2.086   1.391
 2533TIP3    H2 7606   5.729   2.000   1.361
 2534TIP3   OH2 7607   0.918   5.488   2.667
 2534TIP3    H1 7608   1.010   5.465   2.676
 2534TIP3    H2 7609   0.899   5.542   2.744
 2535TIP3   OH2 7610   1.698   1.007   4.852
 2535TIP3    H1 7611   1.751   1.086   4.857
 2535TIP3    H2 7612   1.724   0.955   4.928
 2536TIP3   OH2 7613   3.809   1.286   0.440
 2536TIP3    H1 7614   3.846   1.207   0.480
 2536TIP3    H2 7615   3.735   1.309   0.496
 2537TIP3   OH2 7616   2.696   3.064   1.118
 2537TIP3    H1 7617   2.624   3.002   1.107
 2537TIP3    H2 7618   2.685   3.097   1.207
 2538TIP3   OH2 7619   1.357   2.025   0.138
 2538TIP3    H1 7620   1.381   2.014   0.230
 2538TIP3    H2 7621   1.437   2.003   0.090
 2539TIP3   OH2 7622   3.364   4.426   4.485
 2539TIP3    H1 7623   3.349   4.493   4.418
 2539TIP3    H2 7624   3.349   4.344   4.439
 2540TIP3   OH2 7625   2.606   5.354   2.116
 2540TIP3    H1 7626   2.524   5.345   2.067
 2540TIP3    H2 7627   2.672   5.368   2.048
 2541TIP3   OH2 7628   2.202   3.699   0.546
 2541TIP3    H1 7629   2.268   3.709   0.615
 2541TIP3    H2 7630   2.244   3.642   0.482
 2542TIP3   OH2 7631   4.658   2.750   4.168
 2542TIP3    H1 7632   4.591   2.773   4.103
 2542TIP3    H2 7633   4.683   2.661   4.146
 2543TIP3   OH2 7634   5.999   2.432   4.200
 2543TIP3    H1 7635   5.953   2.471   4.275
 2543TIP3    H2 7636   6.077   2.487   4.189
 2544TIP3   OH2 7637   0.227   0.008   4.438
 2544TIP3    H1 7638   0.153  -0.031   4.391
 2544TIP3    H2 7639   0.294   0.021   4.372
 2545TIP3   OH2 7640   4.073   0.267   3.455
 2545TIP3    H1 7641   4.149   0.225   3.413
 2545TIP3    H2 7642   4.002   0.257   3.391
 2546TIP3   OH2 7643   5.580   2.749   3.103
 2546TIP3    H1 7644   5.596   2.712   3.190
 2546TIP3    H2 7645   5.660   2.730   3.054
 2547TIP3   OH2 7646   5.397   3.976   4.839
 2547TIP3    H1 7647   5.347   3.896   4.821
 2547TIP3    H2 7648   5.330   4.039   4.868
 2548TIP3   OH2 7649   5.358   4.726   4.896
 2548TIP3    H1 7650   5.430   4.774   4.935
 2548TIP3    H2 7651   5.337   4.658   4.960
 2549TIP3   OH2 7652   4.735   1.664   4.272
 2549TIP3    H1 7653   4.779   1.660   4.187
 2549TIP3    H2 7654   4.762   1.747   4.310
 2550TIP3   OH2 7655   5.301   1.124   2.194
 2550TIP3    H1 7656   5.386   1.168   2.195
 2550TIP3    H2 7657   5.276   1.122   2.101
 2551TIP3   OH2 7658   4.290   5.397   1.099
 2551TIP3    H1 7659   4.382   5.375   1.114
 2551TIP3    H2 7660   4.290   5.444   1.016
 2552TIP3   OH2 7661   1.509   2.806   1.185
 2552TIP3    H1 7662   1.479   2.897   1.177
 2552TIP3    H2 7663   1.604   2.812   1.181
 2553TIP3   OH2 7664   3.827   0.746   4.366
 2553TIP3    H1 7665   3.780   0.777   4.289
 2553TIP3    H2 7666   3.789   0.796   4.439
 2554TIP3   OH2 7667   3.787   0.285   2.154
 2554TIP3    H1 7668   3.757   0.195   2.160
 2554TIP3    H2 7669   3.716   0.337   2.190
 2555TIP3   OH2 7670   1.689   4.991   0.835
 2555TIP3    H1 7671   1.658   5.036   0.914
 2555TIP3    H2 7672   1.784   4.993   0.842
 2556TIP3   OH2 7673   2.234   3.950   3.648
 2556TIP3    H1 7674   2.236   4.003   3.728
 2556TIP3    H2 7675   2.167   3.991   3.593
 2557TIP3   OH2 7676   6.027   5.707   0.163
 2557TIP3    H1 7677   6.054   5.687   0.252
 2557TIP3    H2 7678   6.056   5.631   0.111
 2558TIP3   OH2 7679   3.883   2.090   2.574
 2558TIP3    H1 7680   3.824   2.165   2.570
 2558TIP3    H2 7681   3.965   2.121   2.537
 2559TIP3   OH2 7682   4.725   4.287   3.154
 2559TIP3    H1 7683   4.646   4.339   3.138
 2559TIP3    H2 7684   4.728   4.277   3.250
 2560TIP3   OH2 7685   2.159   5.114   1.464
 2560TIP3    H1 7686   2.113   5.172   1.525
 2560TIP3    H2 7687   2.240   5.160   1.443
 2561TIP3   OH2 7688   5.335   4.001   3.634
 2561TIP3    H1 7689   5.251   3.990   3.590
 2561TIP3    H2 7690   5.360   4.091   3.615
 2562TIP3   OH2 7691   5.163   0.633   4.655
 2562TIP3    H1 7692   5.102   0.596   4.591
 2562TIP3    H2 7693   5.112   0.699   4.702
 2563TIP3   OH2 7694   2.035   0.297   3.264
 2563TIP3    H1 7695   1.968   0.340   3.319
 2563TIP3    H2 7696   2.082   0.370   3.224
 2564TIP3   OH2 7697   4.141   1.241   3.840
 2564TIP3    H1 7698   4.188   1.163   3.810
 2564TIP3    H2 7699   4.106   1.280   3.760
 2565TIP3   OH2 7700   0.753   0.989   0.203
 2565TIP3    H1 7701   0.702   0.925   0.253
 2565TIP3    H2 7702   0.704   1.071   0.212
 2566TIP3   OH2 7703   4.338   1.223   0.916
 2566TIP3    H1 7704   4.345   1.284   0.990
 2566TIP3    H2 7705   4.245   1.220   0.896
 2567TIP3   OH2 7706   5.379   0.968   1.426
 2567TIP3    H1 7707   5.336   1.050   1.448
 2567TIP3    H2 7708   5.433   0.947   1.503
 2568TIP3   OH2 7709   1.926   4.607   3.630
 2568TIP3    H1 7710   1.877   4.546   3.686
 2568TIP3    H2 7711   1.954   4.553   3.556
 2569TIP3   OH2 7712   3.011   2.574   0.092
 2569TIP3    H1 7713   2.985   2.540   0.178
 2569TIP3    H2 7714   3.105   2.554   0.086
 2570TIP3   OH2 7715   1.358   5.405   1.305
 2570TIP3    H1 7716   1.287   5.438   1.252
 2570TIP3    H2 7717   1.322   5.398   1.393
 2571TIP3   OH2 7718   2.693   1.071   2.045
 2571TIP3    H1 7719   2.726   1.107   2.127
 2571TIP3    H2 7720   2.661   0.983   2.068
 2572TIP3   OH2 7721   5.335   2.666   4.450
 2572TIP3    H1 7722   5.429   2.666   4.432
 2572TIP3    H2 7723   5.300   2.599   4.392
 2573TIP3   OH2 7724   2.263   2.311   0.349
 2573TIP3    H1 7725   2.217   2.261   0.416
 2573TIP3    H2 7726   2.314   2.247   0.301
 2574TIP3   OH2 7727   3.427   1.403   1.358
 2574TIP3    H1 7728   3.350   1.360   1.396
 2574TIP3    H2 7729   3.469   1.446   1.432
 2575TIP3   OH2 7730   2.887   2.446   1.479
 2575TIP3    H1 7731   2.927   2.365   1.448
 2575TIP3    H2 7732   2.815   2.462   1.418
 2576TIP3   OH2 7733   4.194   3.529   4.085
 2576TIP3    H1 7734   4.158   3.483   4.161
 2576TIP3    H2 7735   4.226   3.612   4.119
 2577TIP3   OH2 7736   3.145   4.781   1.637
 2577TIP3    H1 7737   3.133   4.871   1.668
 2577TIP3    H2 7738   3.059   4.756   1.604
 2578TIP3   OH2 7739   1.399   3.252   5.059
 2578TIP3    H1 7740   1.338   3.219   4.994
 2578TIP3    H2 7741   1.348   3.313   5.112
 2579TIP3   OH2 7742   3.412   4.277   5.067
 2579TIP3    H1 7743   3.489   4.309   5.115
 2579TIP3    H2 7744   3.338   4.313   5.115
 2580TIP3   OH2 7745   2.866   1.547   0.120
 2580TIP3    H1 7746   2.846   1.641   0.118
 2580TIP3    H2 7747   2.847   1.517   0.031
 2581TIP3   OH2 7748   2.840   1.856   1.008
 2581TIP3    H1 7749   2.887   1.859   1.092
 2581TIP3    H2 7750   2.759   1.904   1.025
 2582TIP3   OH2 7751   0.947   5.003   3.525
 2582TIP3    H1 7752   0.867   5.034   3.484
 2582TIP3    H2 7753   0.917   4.951   3.600
 2583TIP3   OH2 7754   1.027   3.800   3.916
 2583TIP3    H1 7755   1.070   3.853   3.983
 2583TIP3    H2 7756   0.934   3.821   3.925
 2584TIP3   OH2 7757   5.516   5.583   1.633
 2584TIP3    H1 7758   5.454   5.510   1.634
 2584TIP3    H2 7759   5.587   5.554   1.690
 2585TIP3   OH2 7760   3.976   1.985   3.019
 2585TIP3    H1 7761   3.919   2.018   3.089
 2585TIP3    H2 7762   3.918   1.936   2.961
 2586TIP3   OH2 7763   4.655   4.326   0.760
 2586TIP3    H1 7764   4.583   4.269   0.732
 2586TIP3    H2 7765   4.615   4.388   0.820
 2587TIP3   OH2 7766   0.644   3.040   0.282
 2587TIP3    H1 7767   0.595   3.088   0.215
 2587TIP3    H2 7768   0.608   2.952   0.280
 2588TIP3   OH2 7769   1.190   2.949   4.478
 2588TIP3    H1 7770   1.119   2.991   4.526
 2588TIP3    H2 7771   1.252   3.020   4.459
 2589TIP3   OH2 7772   0.874   2.215   1.732
 2589TIP3    H1 7773   0.831   2.249   1.810
 2589TIP3    H2 7774   0.967   2.237   1.743
 2590TIP3   OH2 7775   3.990   5.282   3.709
 2590TIP3    H1 7776   4.039   5.285   3.627
 2590TIP3    H2 7777   3.979   5.188   3.726
 2591TIP3   OH2 7778   0.225   0.899   4.242
 2591TIP3    H1 7779   0.166   0.921   4.170
 2591TIP3    H2 7780   0.310   0.884   4.201
 2592TIP3   OH2 7781   5.402   1.846   4.363
 2592TIP3    H1 7782   5.471   1.809   4.309
 2592TIP3    H2 7783   5.379   1.776   4.424
 2593TIP3   OH2 7784   6.302   1.751   0.817
 2593TIP3    H1 7785   6.263   1.703   0.744
 2593TIP3    H2 7786   6.243   1.737   0.891
 2594TIP3   OH2 7787   1.225   2.002   4.175
 2594TIP3    H1 7788   1.312   2.033   4.200
 2594TIP3    H2 7789   1.182   2.079   4.138
 2595TIP3   OH2 7790   6.036   1.658   1.909
 2595TIP3    H1 7791   6.033   1.643   2.004
 2595TIP3    H2 7792   6.117   1.616   1.881
 2596TIP3   OH2 7793   4.281   3.271   3.027
 2596TIP3    H1 7794   4.316   3.353   3.063
 2596TIP3    H2 7795   4.262   3.291   2.935
 2597TIP3   OH2 7796   4.824   3.160   2.858
 2597TIP3    H1 7797   4.881   3.223   2.814
 2597TIP3    H2 7798   4.857   3.074   2.831
 2598TIP3   OH2 7799   2.409   5.196   1.326
 2598TIP3    H1 7800   2.462   5.119   1.303
 2598TIP3    H2 7801   2.342   5.200   1.258
 2599TIP3   OH2 7802   6.046   4.105   2.460
 2599TIP3    H1 7803   6.123   4.147   2.421
 2599TIP3    H2 7804   5.997   4.177   2.499
 2600TIP3   OH2 7805   3.419   5.503   2.725
 2600TIP3    H1 7806   3.461   5.417   2.727
 2600TIP3    H2 7807   3.329   5.485   2.699
 2601TIP3   OH2 7808   3.143   4.470   1.401
 2601TIP3    H1 7809   3.209   4.537   1.418
 2601TIP3    H2 7810   3.115   4.441   1.488
 2602TIP3   OH2 7811   1.746   4.060   4.278
 2602TIP3    H1 7812   1.743   3.964   4.273
 2602TIP3    H2 7813   1.687   4.089   4.209
 2603TIP3   OH2 7814   4.963   1.045   1.829
 2603TIP3    H1 7815   4.963   0.964   1.880
 2603TIP3    H2 7816   5.020   1.104   1.878
 2604TIP3   OH2 7817   5.928   1.607   4.222
 2604TIP3    H1 7818   5.995   1.539   4.213
 2604TIP3    H2 7819   5.887   1.589   4.307
 2605TIP3   OH2 7820   1.536   5.152   4.832
 2605TIP3    H1 7821   1.558   5.126   4.743
 2605TIP3    H2 7822   1.444   5.177   4.828
 2606TIP3   OH2 7823   3.025   0.666   2.764
 2606TIP3    H1 7824   3.098   0.711   2.721
 2606TIP3    H2 7825   2.983   0.735   2.816
 2607TIP3   OH2 7826   5.333   1.866   3.000
 2607TIP3    H1 7827   5.400   1.800   3.015
 2607TIP3    H2 7828   5.269   1.824   2.943
 2608TIP3   OH2 7829   1.687   4.737   3.487
 2608TIP3    H1 7830   1.695   4.750   3.392
 2608TIP3    H2 7831   1.769   4.771   3.523
 2609TIP3   OH2 7832   4.281   4.002   4.634
 2609TIP3    H1 7833   4.291   4.097   4.629
 2609TIP3    H2 7834   4.186   3.987   4.635
 2610TIP3   OH2 7835   4.572   4.543   2.334
 2610TIP3    H1 7836   4.505   4.551   2.402
 2610TIP3    H2 7837   4.547   4.465   2.284
 2611TIP3   OH2 7838   5.942   1.950   4.152
 2611TIP3    H1 7839   6.009   1.914   4.209
 2611TIP3    H2 7840   5.969   1.926   4.064
 2612TIP3   OH2 7841   5.338   3.659   1.972
 2612TIP3    H1 7842   5.414   3.686   1.921
 2612TIP3    H2 7843   5.269   3.719   1.945
 2613TIP3   OH2 7844   1.398   0.733   5.108
 2613TIP3    H1 7845   1.358   0.783   5.179
 2613TIP3    H2 7846   1.388   0.641   5.134
 2614TIP3   OH2 7847   2.969   0.965   1.594
 2614TIP3    H1 7848   2.928   0.981   1.679
 2614TIP3    H2 7849   2.952   0.872   1.576
 2615TIP3   OH2 7850   5.044   4.825   1.334
 2615TIP3    H1 7851   5.034   4.913   1.297
 2615TIP3    H2 7852   4.957   4.804   1.368
 2616TIP3   OH2 7853   5.259   4.741   1.888
 2616TIP3    H1 7854   5.285   4.693   1.809
 2616TIP3    H2 7855   5.305   4.825   1.882
 2617TIP3   OH2 7856   4.324   0.359   4.864
 2617TIP3    H1 7857   4.259   0.424   4.890
 2617TIP3    H2 7858   4.274   0.277   4.857
 2618TIP3   OH2 7859   3.923   5.886   2.486
 2618TIP3    H1 7860   3.943   5.978   2.469
 2618TIP3    H2 7861   3.905   5.849   2.399
 2619TIP3   OH2 7862   4.189   5.083   0.458
 2619TIP3    H1 7863   4.275   5.105   0.423
 2619TIP3    H2 7864   4.136   5.063   0.380
 2620TIP3   OH2 7865   2.006   4.989   5.020
 2620TIP3    H1 7866   1.940   5.007   5.087
 2620TIP3    H2 7867   1.956   4.970   4.941
 2621TIP3   OH2 7868   0.539   2.512   5.042
 2621TIP3    H1 7869   0.627   2.489   5.011
 2621TIP3    H2 7870   0.552   2.539   5.133
 2622TIP3   OH2 7871   2.634   2.015   1.059
 2622TIP3    H1 7872   2.620   2.109   1.059
 2622TIP3    H2 7873   2.548   1.978   1.036
 2623TIP3   OH2 7874   4.894   1.489   1.228
 2623TIP3    H1 7875   4.808   1.531   1.232
 2623TIP3    H2 7876   4.906   1.469   1.135
 2624TIP3   OH2 7877   3.481   5.765   3.301
 2624TIP3    H1 7878   3.535   5.738   3.375
 2624TIP3    H2 7879   3.498   5.701   3.233
 2625TIP3   OH2 7880   0.259   0.132   0.842
 2625TIP3    H1 7881   0.166   0.146   0.828
 2625TIP3    H2 7882   0.301   0.166   0.763
 2626TIP3   OH2 7883   2.669   2.199   3.964
 2626TIP3    H1 7884   2.603   2.171   3.900
 2626TIP3    H2 7885   2.711   2.275   3.923
 2627TIP3   OH2 7886   0.867   5.702   2.515
 2627TIP3    H1 7887   0.774   5.703   2.491
 2627TIP3    H2 7888   0.876   5.627   2.572
 2628TIP3   OH2 7889   0.160   3.893   1.025
 2628TIP3    H1 7890   0.076   3.873   1.068
 2628TIP3    H2 7891   0.189   3.974   1.067
 2629TIP3   OH2 7892   6.135   4.799   0.529
 2629TIP3    H1 7893   6.081   4.720   0.530
 2629TIP3    H2 7894   6.097   4.854   0.597
 2630TIP3   OH2 7895   2.550   5.144   4.823
 2630TIP3    H1 7896   2.547   5.131   4.918
 2630TIP3    H2 7897   2.506   5.228   4.810
 2631TIP3   OH2 7898   4.299   5.198   2.847
 2631TIP3    H1 7899   4.318   5.249   2.926
 2631TIP3    H2 7900   4.224   5.144   2.872
 2632TIP3   OH2 7901   2.659   2.235   0.174
 2632TIP3    H1 7902   2.704   2.240   0.258
 2632TIP3    H2 7903   2.647   2.326   0.147
 2633TIP3   OH2 7904   2.376   0.013   3.678
 2633TIP3    H1 7905   2.366  -0.081   3.687
 2633TIP3    H2 7906   2.290   0.049   3.698
 2634TIP3   OH2 7907   4.773   0.143   1.244
 2634TIP3    H1 7908   4.688   0.100   1.249
 2634TIP3    H2 7909   4.775   0.184   1.157
 2635TIP3   OH2 7910   0.750   2.730   1.467
 2635TIP3    H1 7911   0.664   2.731   1.426
 2635TIP3    H2 7912   0.767   2.821   1.491
 2636TIP3   OH2 7913   4.227   0.624   0.332
 2636TIP3    H1 7914   4.224   0.574   0.250
 2636TIP3    H2 7915   4.217   0.715   0.304
 2637TIP3   OH2 7916   3.283   1.376   4.762
 2637TIP3    H1 7917   3.213   1.434   4.733
 2637TIP3    H2 7918   3.362   1.410   4.720
 2638TIP3   OH2 7919   0.075   0.935   2.498
 2638TIP3    H1 7920   0.102   1.027   2.490
 2638TIP3    H2 7921   0.129   0.901   2.569
 2639TIP3   OH2 7922   3.092   3.649   1.889
 2639TIP3    H1 7923   3.053   3.662   1.976
 2639TIP3    H2 7924   3.144   3.569   1.898
 2640TIP3   OH2 7925   5.298   4.564   2.553
 2640TIP3    H1 7926   5.219   4.585   2.503
 2640TIP3    H2 7927   5.368   4.564   2.489
 2641TIP3   OH2 7928   2.837   0.730   2.034
 2641TIP3    H1 7929   2.774   0.733   2.106
 2641TIP3    H2 7930   2.881   0.815   2.037
 2642TIP3   OH2 7931   5.642   1.421   1.244
 2642TIP3    H1 7932   5.736   1.417   1.263
 2642TIP3    H2 7933   5.627   1.510   1.213
 2643TIP3   OH2 7934   4.646   5.016   0.090
 2643TIP3    H1 7935   4.705   4.950   0.128
 2643TIP3    H2 7936   4.704   5.074   0.042
 2644TIP3   OH2 7937   5.870   3.022   0.896
 2644TIP3    H1 7938   5.932   2.969   0.847
 2644TIP3    H2 7939   5.811   3.058   0.829
 2645TIP3   OH2 7940   5.741   2.012   2.985
 2645TIP3    H1 7941   5.654   2.038   2.954
 2645TIP3    H2 7942   5.755   2.065   3.064
 2646TIP3   OH2 7943   4.866   1.522   4.886
 2646TIP3    H1 7944   4.793   1.499   4.829
 2646TIP3    H2 7945   4.830   1.586   4.947
 2647TIP3   OH2 7946   4.156   0.063   2.689
 2647TIP3    H1 7947   4.193   0.074   2.601
 2647TIP3    H2 7948   4.231   0.075   2.747
 2648TIP3   OH2 7949   0.352   2.881   0.416
 2648TIP3    H1 7950   0.380   2.789   0.415
 2648TIP3    H2 7951   0.354   2.908   0.324
 2649TIP3   OH2 7952   3.132   4.429   0.689
 2649TIP3    H1 7953   3.193   4.500   0.668
 2649TIP3    H2 7954   3.181   4.373   0.749
 2650TIP3   OH2 7955   0.637   5.067   1.974
 2650TIP3    H1 7956   0.586   5.058   1.894
 2650TIP3    H2 7957   0.596   5.140   2.020
 2651TIP3   OH2 7958   3.824   2.115   1.115
 2651TIP3    H1 7959   3.827   2.025   1.147
 2651TIP3    H2 7960   3.846   2.169   1.191
 2652TIP3   OH2 7961   5.911   3.468   1.148
 2652TIP3    H1 7962   5.949   3.382   1.130
 2652TIP3    H2 7963   5.925   3.482   1.242
 2653TIP3   OH2 7964   6.278   0.813   3.570
 2653TIP3    H1 7965   6.218   0.886   3.554
 2653TIP3    H2 7966   6.231   0.756   3.630
 2654TIP3   OH2 7967   3.460   5.497   1.964
 2654TIP3    H1 7968   3.393   5.468   2.026
 2654TIP3    H2 7969   3.438   5.588   1.945
 2655TIP3   OH2 7970   5.638   5.270   3.637
 2655TIP3    H1 7971   5.557   5.234   3.674
 2655TIP3    H2 7972   5.708   5.223   3.682
 2656TIP3   OH2 7973   0.625   2.097   1.659
 2656TIP3    H1 7974   0.645   2.042   1.584
 2656TIP3    H2 7975   0.710   2.127   1.690
 2657TIP3   OH2 7976   4.690   3.099   2.260
 2657TIP3    H1 7977   4.696   3.119   2.354
 2657TIP3    H2 7978   4.606   3.055   2.250
 2658TIP3   OH2 7979   1.713   1.923   4.162
 2658TIP3    H1 7980   1.757   1.953   4.082
 2658TIP3    H2 7981   1.759   1.843   4.186
 2659TIP3   OH2 7982   0.463   1.113   4.393
 2659TIP3    H1 7983   0.375   1.141   4.417
 2659TIP3    H2 7984   0.453   1.069   4.309
 2660TIP3   OH2 7985   1.495   2.850   2.590
 2660TIP3    H1 7986   1.510   2.802   2.509
 2660TIP3    H2 7987   1.407   2.824   2.618
 2661TIP3   OH2 7988   5.677   2.724   4.698
 2661TIP3    H1 7989   5.659   2.656   4.763
 2661TIP3    H2 7990   5.627   2.800   4.728
 2662TIP3   OH2 7991   1.098   3.953   3.152
 2662TIP3    H1 7992   1.130   3.979   3.066
 2662TIP3    H2 7993   1.137   3.867   3.168
 2663TIP3   OH2 7994   0.679   2.837   3.527
 2663TIP3    H1 7995   0.729   2.760   3.497
 2663TIP3    H2 7996   0.655   2.883   3.447
 2664TIP3   OH2 7997   4.854   2.319   1.352
 2664TIP3    H1 7998   4.947   2.320   1.330
 2664TIP3    H2 7999   4.824   2.231   1.331
 2665TIP3   OH2 8000   5.128   5.467   0.532
 2665TIP3    H1 8001   5.139   5.557   0.562
 2665TIP3    H2 8002   5.055   5.433   0.583
 2666TIP3   OH2 8003   3.547   2.311   1.229
 2666TIP3    H1 8004   3.565   2.218   1.221
 2666TIP3    H2 8005   3.519   2.338   1.141
 2667TIP3   OH2 8006   5.080   0.355   3.771
 2667TIP3    H1 8007   5.160   0.308   3.794
 2667TIP3    H2 8008   5.110   0.437   3.733
 2668TIP3   OH2 8009   1.493   2.525   1.285
 2668TIP3    H1 8010   1.411   2.545   1.329
 2668TIP3    H2 8011   1.513   2.605   1.235
 2669TIP3   OH2 8012   5.299   5.799   3.947
 2669TIP3    H1 8013   5.381   5.761   3.913
 2669TIP3    H2 8014   5.239   5.797   3.873
 2670TIP3   OH2 8015   6.110   1.115   2.594
 2670TIP3    H1 8016   6.174   1.142   2.660
 2670TIP3    H2 8017   6.157   1.118   2.511
 2671TIP3   OH2 8018   1.666   2.665   5.089
 2671TIP3    H1 8019   1.724   2.590   5.076
 2671TIP3    H2 8020   1.640   2.690   5.000
 2672TIP3   OH2 8021   5.991   4.082   4.195
 2672TIP3    H1 8022   6.005   4.041   4.281
 2672TIP3    H2 8023   6.043   4.028   4.135
 2673TIP3   OH2 8024   1.166   5.617   0.070
 2673TIP3    H1 8025   1.098   5.639   0.006
 2673TIP3    H2 8026   1.121   5.574   0.141
 2674TIP3   OH2 8027   3.463   1.828   1.699
 2674TIP3    H1 8028   3.383   1.796   1.658
 2674TIP3    H2 8029   3.434   1.903   1.752
 2675TIP3   OH2 8030   6.184   2.570   3.879
 2675TIP3    H1 8031   6.274   2.548   3.900
 2675TIP3    H2 8032   6.176   2.662   3.904
 2676TIP3   OH2 8033   0.488   1.419   5.003
 2676TIP3    H1 8034   0.560   1.447   5.059
 2676TIP3    H2 8035   0.432   1.366   5.060
 2677TIP3   OH2 8036   5.221   4.034   0.681
 2677TIP3    H1 8037   5.152   3.995   0.627
 2677TIP3    H2 8038   5.174   4.085   0.747
 2678TIP3   OH2 8039   0.368   0.637   3.766
 2678TIP3    H1 8040   0.338   0.560   3.813
 2678TIP3    H2 8041   0.361   0.613   3.674
 2679TIP3   OH2 8042   2.181   4.557   3.890
 2679TIP3    H1 8043   2.242   4.526   3.823
 2679TIP3    H2 8044   2.148   4.476   3.930
 2680TIP3   OH2 8045   2.970   5.329   0.089
 2680TIP3    H1 8046   2.882   5.293   0.095
 2680TIP3    H2 8047   2.962   5.418   0.122
 2681TIP3   OH2 8048   4.518   4.993   3.184
 2681TIP3    H1 8049   4.571   5.030   3.254
 2681TIP3    H2 8050   4.554   5.032   3.104
 2682TIP3   OH2 8051   5.656   0.762   3.805
 2682TIP3    H1 8052   5.740   0.730   3.838
 2682TIP3    H2 8053   5.615   0.805   3.881
 2683TIP3   OH2 8054   1.095   2.181   3.921
 2683TIP3    H1 8055   1.094   2.098   3.874
 2683TIP3    H2 8056   1.171   2.227   3.886
 2684TIP3   OH2 8057   2.014   2.678   0.068
 2684TIP3    H1 8058   2.078   2.621   0.111
 2684TIP3    H2 8059   2.048   2.766   0.080
 2685TIP3   OH2 8060   1.047   0.213   4.643
 2685TIP3    H1 8061   1.017   0.139   4.697
 2685TIP3    H2 8062   1.027   0.290   4.696
 2686TIP3   OH2 8063   2.072   0.875   1.086
 2686TIP3    H1 8064   2.090   0.820   1.010
 2686TIP3    H2 8065   1.994   0.838   1.126
 2687TIP3   OH2 8066   5.758   4.639   2.367
 2687TIP3    H1 8067   5.802   4.583   2.431
 2687TIP3    H2 8068   5.797   4.615   2.283
 2688TIP3   OH2 8069   4.484  -0.016   2.260
 2688TIP3    H1 8070   4.561   0.038   2.240
 2688TIP3    H2 8071   4.421   0.005   2.192
 2689TIP3   OH2 8072   5.730   4.072   0.157
 2689TIP3    H1 8073   5.648   4.090   0.111
 2689TIP3    H2 8074   5.718   4.110   0.244
 2690TIP3   OH2 8075   3.374   3.100   4.604
 2690TIP3    H1 8076   3.279   3.113   4.612
 2690TIP3    H2 8077   3.401   3.165   4.538
 2691TIP3   OH2 8078   0.689   4.308   1.729
 2691TIP3    H1 8079   0.760   4.295   1.792
 2691TIP3    H2 8080   0.721   4.269   1.648
 2692TIP3   OH2 8081   6.035   0.449   0.271
 2692TIP3    H1 8082   6.128   0.464   0.287
 2692TIP3    H2 8083   6.008   0.524   0.218
 2693TIP3   OH2 8084   0.736   5.894   3.051
 2693TIP3    H1 8085   0.800   5.962   3.031
 2693TIP3    H2 8086   0.748   5.877   3.145
 2694TIP3   OH2 8087   4.581   5.549   0.474
 2694TIP3    H1 8088   4.517   5.503   0.529
 2694TIP3    H2 8089   4.643   5.588   0.536
 2695TIP3   OH2 8090   3.292   3.258   4.900
 2695TIP3    H1 8091   3.235   3.236   4.826
 2695TIP3    H2 8092   3.238   3.242   4.977
 2696TIP3   OH2 8093   5.926   2.003   5.010
 2696TIP3    H1 8094   5.896   2.093   5.018
 2696TIP3    H2 8095   5.907   1.963   5.095
 2697TIP3   OH2 8096   0.898   0.175   2.176
 2697TIP3    H1 8097   0.886   0.264   2.209
 2697TIP3    H2 8098   0.931   0.187   2.087
 2698TIP3   OH2 8099   4.653   1.022   0.687
 2698TIP3    H1 8100   4.656   1.035   0.593
 2698TIP3    H2 8101   4.679   0.930   0.699
 2699TIP3   OH2 8102   1.258   5.028   3.332
 2699TIP3    H1 8103   1.314   4.950   3.345
 2699TIP3    H2 8104   1.292   5.068   3.252
 2700TIP3   OH2 8105   2.622   3.445   2.285
 2700TIP3    H1 8106   2.557   3.435   2.215
 2700TIP3    H2 8107   2.583   3.509   2.345
 2701TIP3   OH2 8108   1.112   1.914   3.073
 2701TIP3    H1 8109   1.183   1.905   3.009
 2701TIP3    H2 8110   1.089   2.007   3.071
 2702TIP3   OH2 8111   0.933   3.908   1.062
 2702TIP3    H1 8112   0.979   3.824   1.061
 2702TIP3    H2 8113   0.850   3.890   1.019
 2703TIP3   OH2 8114   4.434   1.435   2.881
 2703TIP3    H1 8115   4.407   1.469   2.966
 2703TIP3    H2 8116   4.404   1.502   2.818
 2704TIP3   OH2 8117   2.287   5.874   1.558
 2704TIP3    H1 8118   2.349   5.807   1.587
 2704TIP3    H2 8119   2.326   5.957   1.586
 2705TIP3   OH2 8120   1.485   4.890   3.964
 2705TIP3    H1 8121   1.508   4.902   3.872
 2705TIP3    H2 8122   1.488   4.795   3.977
 2706TIP3   OH2 8123   4.793   5.204   4.022
 2706TIP3    H1 8124   4.865   5.141   4.019
 2706TIP3    H2 8125   4.733   5.176   3.953
 2707TIP3   OH2 8126   1.716   4.945   0.554
 2707TIP3    H1 8127   1.740   4.856   0.531
 2707TIP3    H2 8128   1.711   4.945   0.649
 2708TIP3   OH2 8129   2.562   3.821   2.444
 2708TIP3    H1 8130   2.493   3.780   2.392
 2708TIP3    H2 8131   2.596   3.750   2.500
 2709TIP3   OH2 8132   3.213   0.923   3.504
 2709TIP3    H1 8133   3.256   0.857   3.559
 2709TIP3    H2 8134   3.172   0.983   3.567
 2710TIP3   OH2 8135  -0.024   2.987   3.433
 2710TIP3    H1 8136   0.058   3.025   3.403
 2710TIP3    H2 8137  -0.020   2.990   3.528
 2711TIP3   OH2 8138   1.949   5.530   4.074
 2711TIP3    H1 8139   2.026   5.498   4.026
 2711TIP3    H2 8140   1.879   5.470   4.050
 2712TIP3   OH2 8141   0.931   0.733   0.721
 2712TIP3    H1 8142   0.893   0.786   0.651
 2712TIP3    H2 8143   1.023   0.761   0.725
 2713TIP3   OH2 8144   3.514   2.920   0.926
 2713TIP3    H1 8145   3.487   2.836   0.888
 2713TIP3    H2 8146   3.603   2.903   0.958
 2714TIP3   OH2 8147   0.890   4.228   1.912
 2714TIP3    H1 8148   0.971   4.234   1.964
 2714TIP3    H2 8149   0.838   4.162   1.957
 2715TIP3   OH2 8150   5.571   2.448   2.380
 2715TIP3    H1 8151   5.505   2.404   2.326
 2715TIP3    H2 8152   5.640   2.471   2.319
 2716TIP3   OH2 8153   4.941   4.567   2.517
 2716TIP3    H1 8154   4.959   4.643   2.573
 2716TIP3    H2 8155   4.980   4.589   2.433
 2717TIP3   OH2 8156   1.858   5.594   4.883
 2717TIP3    H1 8157   1.810   5.513   4.860
 2717TIP3    H2 8158   1.875   5.585   4.976
 2718TIP3   OH2 8159   0.088   2.253   1.160
 2718TIP3    H1 8160   0.176   2.233   1.128
 2718TIP3    H2 8161   0.030   2.233   1.087
 2719TIP3   OH2 8162   4.891   1.535   2.601
 2719TIP3    H1 8163   4.894   1.468   2.669
 2719TIP3    H2 8164   4.835   1.603   2.637
 2720TIP3   OH2 8165   5.387   1.600   4.505
 2720TIP3    H1 8166   5.445   1.582   4.579
 2720TIP3    H2 8167   5.299   1.586   4.539
 2721TIP3   OH2 8168   4.110   1.344   1.637
 2721TIP3    H1 8169   4.038   1.282   1.630
 2721TIP3    H2 8170   4.175   1.312   1.575
 2722TIP3   OH2 8171   3.960   1.616   3.986
 2722TIP3    H1 8172   4.001   1.624   3.900
 2722TIP3    H2 8173   4.005   1.542   4.027
 2723TIP3   OH2 8174   0.749   3.878   0.744
 2723TIP3    H1 8175   0.674   3.897   0.688
 2723TIP3    H2 8176   0.711   3.831   0.819
 2724TIP3   OH2 8177   5.720   2.735   3.887
 2724TIP3    H1 8178   5.758   2.811   3.844
 2724TIP3    H2 8179   5.794   2.677   3.905
 2725TIP3   OH2 8180   5.814   4.017   3.166
 2725TIP3    H1 8181   5.867   4.028   3.245
 2725TIP3    H2 8182   5.775   3.930   3.175
 2726TIP3   OH2 8183   3.167   2.409   2.269
 2726TIP3    H1 8184   3.092   2.352   2.250
 2726TIP3    H2 8185   3.182   2.398   2.363
 2727TIP3   OH2 8186   4.973   2.022   1.475
 2727TIP3    H1 8187   5.012   2.078   1.407
 2727TIP3    H2 8188   4.879   2.039   1.469
 2728TIP3   OH2 8189   3.666   5.505   0.995
 2728TIP3    H1 8190   3.760   5.498   0.977
 2728TIP3    H2 8191   3.626   5.517   0.909
 2729TIP3   OH2 8192   4.557   4.052   3.438
 2729TIP3    H1 8193   4.615   3.986   3.473
 2729TIP3    H2 8194   4.614   4.126   3.418
 2730TIP3   OH2 8195   5.240   0.571   4.030
 2730TIP3    H1 8196   5.210   0.662   4.022
 2730TIP3    H2 8197   5.294   0.557   3.952
 2731TIP3   OH2 8198   5.572   4.029   1.376
 2731TIP3    H1 8199   5.600   4.094   1.311
 2731TIP3    H2 8200   5.634   3.958   1.368
 2732TIP3   OH2 8201   3.087   1.563   4.634
 2732TIP3    H1 8202   2.993   1.548   4.640
 2732TIP3    H2 8203   3.101   1.648   4.677
 2733TIP3   OH2 8204   5.184   1.415   2.335
 2733TIP3    H1 8205   5.118   1.351   2.362
 2733TIP3    H2 8206   5.204   1.393   2.245
 2734TIP3   OH2 8207   6.231   1.681   4.113
 2734TIP3    H1 8208   6.141   1.659   4.088
 2734TIP3    H2 8209   6.277   1.598   4.111
 2735TIP3   OH2 8210   5.682   1.752   2.450
 2735TIP3    H1 8211   5.657   1.740   2.542
 2735TIP3    H2 8212   5.741   1.828   2.452
 2736TIP3   OH2 8213   4.491   3.381   4.082
 2736TIP3    H1 8214   4.441   3.375   4.164
 2736TIP3    H2 8215   4.562   3.318   4.094
 2737TIP3   OH2 8216   2.939   4.865   0.619
 2737TIP3    H1 8217   3.019   4.904   0.655
 2737TIP3    H2 8218   2.869   4.903   0.672
 2738TIP3   OH2 8219   5.917   1.884   1.710
 2738TIP3    H1 8220   5.899   1.840   1.627
 2738TIP3    H2 8221   5.932   1.813   1.772
 2739TIP3   OH2 8222   3.292   4.681   0.767
 2739TIP3    H1 8223   3.258   4.770   0.777
 2739TIP3    H2 8224   3.279   4.641   0.853
 2740TIP3   OH2 8225   3.664   5.918   2.982
 2740TIP3    H1 8226   3.669   5.937   2.888
 2740TIP3    H2 8227   3.724   5.845   2.995
 2741TIP3   OH2 8228   0.618   0.667   4.164
 2741TIP3    H1 8229   0.572   0.617   4.231
 2741TIP3    H2 8230   0.618   0.611   4.086
 2742TIP3   OH2 8231   2.465   5.409   4.775
 2742TIP3    H1 8232   2.517   5.461   4.712
 2742TIP3    H2 8233   2.375   5.423   4.747
 2743TIP3   OH2 8234   1.816   0.360   4.782
 2743TIP3    H1 8235   1.727   0.358   4.816
 2743TIP3    H2 8236   1.871   0.346   4.859
 2744TIP3   OH2 8237   5.234   3.219   0.297
 2744TIP3    H1 8238   5.312   3.275   0.302
 2744TIP3    H2 8239   5.250   3.163   0.221
 2745TIP3   OH2 8240   4.731   0.708   0.162
 2745TIP3    H1 8241   4.693   0.627   0.128
 2745TIP3    H2 8242   4.680   0.728   0.240
 2746TIP3   OH2 8243   1.875   4.995   4.203
 2746TIP3    H1 8244   1.833   5.030   4.125
 2746TIP3    H2 8245   1.937   4.929   4.170
 2747TIP3   OH2 8246   4.004   2.262   1.290
 2747TIP3    H1 8247   3.987   2.186   1.346
 2747TIP3    H2 8248   3.994   2.337   1.349
 2748TIP3   OH2 8249   3.025   4.769   3.018
 2748TIP3    H1 8250   2.968   4.776   3.095
 2748TIP3    H2 8251   2.994   4.692   2.972
 2749TIP3   OH2 8252   4.161   5.664   4.438
 2749TIP3    H1 8253   4.198   5.611   4.367
 2749TIP3    H2 8254   4.163   5.606   4.514
 2750TIP3   OH2 8255   4.457   4.380   0.360
 2750TIP3    H1 8256   4.420   4.298   0.325
 2750TIP3    H2 8257   4.524   4.351   0.422
 2751TIP3   OH2 8258   6.314   4.637   1.342
 2751TIP3    H1 8259   6.256   4.571   1.303
 2751TIP3    H2 8260   6.259   4.684   1.404
 2752TIP3   OH2 8261   1.117   0.355   0.420
 2752TIP3    H1 8262   1.122   0.432   0.477
 2752TIP3    H2 8263   1.025   0.329   0.423
 2753TIP3   OH2 8264   1.830   2.912   2.895
 2753TIP3    H1 8265   1.819   2.828   2.851
 2753TIP3    H2 8266   1.885   2.963   2.836
 2754TIP3   OH2 8267   4.642   0.283   0.218
 2754TIP3    H1 8268   4.717   0.265   0.275
 2754TIP3    H2 8269   4.599   0.198   0.208
 2755TIP3   OH2 8270   1.586   1.391   0.767
 2755TIP3    H1 8271   1.647   1.348   0.828
 2755TIP3    H2 8272   1.590   1.483   0.792
 2756TIP3   OH2 8273   5.738   1.593   0.691
 2756TIP3    H1 8274   5.722   1.618   0.782
 2756TIP3    H2 8275   5.702   1.664   0.639
 2757TIP3   OH2 8276   0.195   5.235   1.188
 2757TIP3    H1 8277   0.236   5.246   1.103
 2757TIP3    H2 8278   0.222   5.313   1.238
 2758TIP3   OH2 8279   4.688   1.470   1.823
 2758TIP3    H1 8280   4.676   1.525   1.746
 2758TIP3    H2 8281   4.622   1.500   1.885
 2759TIP3   OH2 8282   0.300   2.455   1.364
 2759TIP3    H1 8283   0.249   2.463   1.283
 2759TIP3    H2 8284   0.324   2.545   1.387
 2760TIP3   OH2 8285   4.724   1.081   0.162
 2760TIP3    H1 8286   4.652   1.129   0.121
 2760TIP3    H2 8287   4.800   1.100   0.108
 2761TIP3   OH2 8288   5.236   5.013   3.265
 2761TIP3    H1 8289   5.184   5.082   3.224
 2761TIP3    H2 8290   5.288   5.058   3.332
 2762TIP3   OH2 8291   5.434   2.100   2.035
 2762TIP3    H1 8292   5.489   2.023   2.052
 2762TIP3    H2 8293   5.431   2.105   1.939
 2763TIP3   OH2 8294   2.637   0.913   4.150
 2763TIP3    H1 8295   2.713   0.965   4.177
 2763TIP3    H2 8296   2.668   0.822   4.152
 2764TIP3   OH2 8297   3.756   0.138   2.589
 2764TIP3    H1 8298   3.771   0.103   2.677
 2764TIP3    H2 8299   3.827   0.103   2.536
 2765TIP3   OH2 8300   5.129   1.065   1.013
 2765TIP3    H1 8301   5.221   1.054   0.991
 2765TIP3    H2 8302   5.129   1.132   1.082
 2766TIP3   OH2 8303   1.250   2.359   1.455
 2766TIP3    H1 8304   1.198   2.438   1.441
 2766TIP3    H2 8305   1.286   2.369   1.543
 2767TIP3   OH2 8306   4.550   0.185   1.461
 2767TIP3    H1 8307   4.612   0.140   1.519
 2767TIP3    H2 8308   4.605   0.233   1.400
 2768TIP3   OH2 8309   1.005   2.586   1.021
 2768TIP3    H1 8310   0.996   2.570   1.115
 2768TIP3    H2 8311   1.099   2.593   1.007
 2769TIP3   OH2 8312   0.065   1.630   3.675
 2769TIP3    H1 8313   0.115   1.684   3.613
 2769TIP3    H2 8314  -0.026   1.641   3.649
 2770TIP3   OH2 8315   0.637   5.123   4.731
 2770TIP3    H1 8316   0.728   5.148   4.719
 2770TIP3    H2 8317   0.589   5.206   4.735
 2771TIP3   OH2 8318   3.665   2.550   1.361
 2771TIP3    H1 8319   3.634   2.584   1.277
 2771TIP3    H2 8320   3.622   2.465   1.369
 2772TIP3   OH2 8321   3.868   6.032   0.726
 2772TIP3    H1 8322   3.960   6.008   0.718
 2772TIP3    H2 8323   3.823   5.949   0.741
 2773TIP3   OH2 8324   3.470   0.986   4.749
 2773TIP3    H1 8325   3.389   1.032   4.731
 2773TIP3    H2 8326   3.443   0.906   4.795
 2774TIP3   OH2 8327   5.043   1.957   0.398
 2774TIP3    H1 8328   5.029   1.965   0.303
 2774TIP3    H2 8329   5.006   1.872   0.421
 2775TIP3   OH2 8330   0.584   2.871   1.265
 2775TIP3    H1 8331   0.549   2.949   1.222
 2775TIP3    H2 8332   0.650   2.838   1.205
 2776TIP3   OH2 8333   2.689   0.123   4.692
 2776TIP3    H1 8334   2.769   0.076   4.717
 2776TIP3    H2 8335   2.720   0.206   4.655
 2777TIP3   OH2 8336   4.409   2.682   0.228
 2777TIP3    H1 8337   4.418   2.723   0.142
 2777TIP3    H2 8338   4.318   2.698   0.253
 2778TIP3   OH2 8339   0.457   1.506   4.759
 2778TIP3    H1 8340   0.501   1.434   4.712
 2778TIP3    H2 8341   0.452   1.476   4.850
 2779TIP3   OH2 8342   5.156   1.589   4.830
 2779TIP3    H1 8343   5.166   1.595   4.735
 2779TIP3    H2 8344   5.062   1.584   4.844
 2780TIP3   OH2 8345   5.930   4.581   3.415
 2780TIP3    H1 8346   6.017   4.615   3.394
 2780TIP3    H2 8347   5.891   4.562   3.330
 2781TIP3   OH2 8348   4.640   1.455   0.861
 2781TIP3    H1 8349   4.658   1.475   0.953
 2781TIP3    H2 8350   4.655   1.361   0.854
 2782TIP3   OH2 8351   2.186   3.445   3.692
 2782TIP3    H1 8352   2.152   3.356   3.686
 2782TIP3    H2 8353   2.112   3.497   3.726
 2783TIP3   OH2 8354   4.136   1.044   3.608
 2783TIP3    H1 8355   4.138   1.072   3.516
 2783TIP3    H2 8356   4.182   0.960   3.607
 2784TIP3   OH2 8357   1.037   0.931   4.948
 2784TIP3    H1 8358   1.068   1.003   4.893
 2784TIP3    H2 8359   1.044   0.965   5.038
 2785TIP3   OH2 8360   4.046   0.237   4.334
 2785TIP3    H1 8361   4.031   0.221   4.427
 2785TIP3    H2 8362   3.958   0.250   4.297
 2786TIP3   OH2 8363   4.156   4.634   1.952
 2786TIP3    H1 8364   4.208   4.554   1.958
 2786TIP3    H2 8365   4.067   4.603   1.934
 2787TIP3   OH2 8366   6.034   5.021   1.484
 2787TIP3    H1 8367   6.082   5.091   1.529
 2787TIP3    H2 8368   5.942   5.039   1.504
 2788TIP3   OH2 8369   5.966   4.977   4.031
 2788TIP3    H1 8370   5.910   4.995   4.107
 2788TIP3    H2 8371   6.050   4.952   4.069
 2789TIP3   OH2 8372   0.081   1.944   1.449
 2789TIP3    H1 8373   0.175   1.938   1.428
 2789TIP3    H2 8374   0.071   2.030   1.490
 2790TIP3   OH2 8375   2.543   1.273   1.918
 2790TIP3    H1 8376   2.456   1.270   1.956
 2790TIP3    H2 8377   2.581   1.187   1.939
 2791TIP3   OH2 8378   4.946   4.310   0.696
 2791TIP3    H1 8379   4.982   4.386   0.743
 2791TIP3    H2 8380   4.853   4.311   0.718
 2792TIP3   OH2 8381   3.760   0.641   3.114
 2792TIP3    H1 8382   3.687   0.611   3.168
 2792TIP3    H2 8383   3.719   0.675   3.034
 2793TIP3   OH2 8384   2.495   3.860   2.868
 2793TIP3    H1 8385   2.471   3.908   2.947
 2793TIP3    H2 8386   2.496   3.769   2.895
 2794TIP3   OH2 8387   4.114   5.119   4.694
 2794TIP3    H1 8388   4.064   5.182   4.745
 2794TIP3    H2 8389   4.116   5.040   4.748
 2795TIP3   OH2 8390   0.319   1.198   3.816
 2795TIP3    H1 8391   0.267   1.266   3.773
 2795TIP3    H2 8392   0.402   1.198   3.769
 2796TIP3   OH2 8393   1.394   4.838   4.538
 2796TIP3    H1 8394   1.484   4.809   4.527
 2796TIP3    H2 8395   1.393   4.927   4.503
 2797TIP3   OH2 8396   3.545   1.283   0.957
 2797TIP3    H1 8397   3.517   1.196   0.984
 2797TIP3    H2 8398   3.468   1.339   0.972
 2798TIP3   OH2 8399   0.688   4.927   3.487
 2798TIP3    H1 8400   0.613   4.875   3.517
 2798TIP3    H2 8401   0.651   5.013   3.467
 2799TIP3   OH2 8402   3.257   1.969   1.317
 2799TIP3    H1 8403   3.252   1.940   1.408
 2799TIP3    H2 8404   3.340   2.017   1.312
 2800TIP3   OH2 8405   4.790  -0.038   4.340
 2800TIP3    H1 8406   4.867  -0.028   4.283
 2800TIP3    H2 8407   4.825  -0.025   4.429
 2801TIP3   OH2 8408   4.378   2.396   2.538
 2801TIP3    H1 8409   4.322   2.398   2.616
 2801TIP3    H2 8410   4.457   2.350   2.565
 2802TIP3   OH2 8411   3.345   3.346   4.437
 2802TIP3    H1 8412   3.299   3.413   4.488
 2802TIP3    H2 8413   3.314   3.358   4.348
 2803TIP3   OH2 8414   4.352   1.166   2.920
 2803TIP3    H1 8415   4.404   1.233   2.876
 2803TIP3    H2 8416   4.262   1.198   2.917
 2804TIP3   OH2 8417   4.089   2.796   4.215
 2804TIP3    H1 8418   4.034   2.828   4.285
 2804TIP3    H2 8419   4.028   2.758   4.151
 2805TIP3   OH2 8420   3.651   4.150   0.643
 2805TIP3    H1 8421   3.567   4.195   0.638
 2805TIP3    H2 8422   3.639   4.070   0.591
 2806TIP3   OH2 8423   1.792   0.895   5.130
 2806TIP3    H1 8424   1.770   0.886   5.222
 2806TIP3    H2 8425   1.744   0.825   5.086
 2807TIP3   OH2 8426   0.632   4.357   2.970
 2807TIP3    H1 8427   0.571   4.351   3.044
 2807TIP3    H2 8428   0.656   4.450   2.965
 2808TIP3   OH2 8429   1.854   1.655   4.193
 2808TIP3    H1 8430   1.816   1.605   4.121
 2808TIP3    H2 8431   1.786   1.656   4.260
 2809TIP3   OH2 8432   0.634   3.758   2.869
 2809TIP3    H1 8433   0.725   3.787   2.861
 2809TIP3    H2 8434   0.629   3.719   2.957
 2810TIP3   OH2 8435   0.804   2.391   3.044
 2810TIP3    H1 8436   0.894   2.413   3.069
 2810TIP3    H2 8437   0.771   2.470   3.001
 2811TIP3   OH2 8438   1.860   0.142   3.717
 2811TIP3    H1 8439   1.826   0.080   3.780
 2811TIP3    H2 8440   1.916   0.200   3.768
 2812TIP3   OH2 8441   5.596   0.604   1.983
 2812TIP3    H1 8442   5.603   0.654   2.065
 2812TIP3    H2 8443   5.502   0.597   1.968
 2813TIP3   OH2 8444   0.912   2.525   4.307
 2813TIP3    H1 8445   0.859   2.604   4.297
 2813TIP3    H2 8446   0.959   2.538   4.389
 2814TIP3   OH2 8447   0.143   4.871   2.785
 2814TIP3    H1 8448   0.047   4.867   2.788
 2814TIP3    H2 8449   0.170   4.781   2.768
 2815TIP3   OH2 8450   4.770   1.535   0.384
 2815TIP3    H1 8451   4.822   1.474   0.332
 2815TIP3    H2 8452   4.764   1.495   0.470
 2816TIP3   OH2 8453   3.401   3.640   2.748
 2816TIP3    H1 8454   3.418   3.690   2.668
 2816TIP3    H2 8455   3.455   3.562   2.738
 2817TIP3   OH2 8456   4.742   4.061   3.013
 2817TIP3    H1 8457   4.675   4.067   2.945
 2817TIP3    H2 8458   4.760   4.152   3.038
 2818TIP3   OH2 8459   0.909   4.005   0.346
 2818TIP3    H1 8460   0.964   3.978   0.272
 2818TIP3    H2 8461   0.964   3.990   0.423
 2819TIP3   OH2 8462   0.551   6.015   0.559
 2819TIP3    H1 8463   0.525   5.974   0.641
 2819TIP3    H2 8464   0.495   5.974   0.493
 2820TIP3   OH2 8465   2.498   5.234   1.574
 2820TIP3    H1 8466   2.473   5.202   1.487
 2820TIP3    H2 8467   2.575   5.288   1.558
 2821TIP3   OH2 8468   0.443   4.861   0.207
 2821TIP3    H1 8469   0.498   4.916   0.153
 2821TIP3    H2 8470   0.355   4.871   0.171
 2822TIP3   OH2 8471   0.334   4.806   2.373
 2822TIP3    H1 8472   0.292   4.860   2.440
 2822TIP3    H2 8473   0.372   4.733   2.421
 2823TIP3   OH2 8474   3.367   0.417   0.542
 2823TIP3    H1 8475   3.412   0.337   0.571
 2823TIP3    H2 8476   3.417   0.488   0.583
 2824TIP3   OH2 8477   5.098   2.240   2.624
 2824TIP3    H1 8478   5.124   2.201   2.541
 2824TIP3    H2 8479   5.132   2.330   2.619
 2825TIP3   OH2 8480   0.443   0.565   4.335
 2825TIP3    H1 8481   0.392   0.608   4.404
 2825TIP3    H2 8482   0.377   0.533   4.273
 2826TIP3   OH2 8483   1.820   3.126   3.635
 2826TIP3    H1 8484   1.794   3.076   3.558
 2826TIP3    H2 8485   1.769   3.088   3.706
 2827TIP3   OH2 8486   3.944   1.047   0.434
 2827TIP3    H1 8487   4.035   1.076   0.427
 2827TIP3    H2 8488   3.944   0.982   0.504
 2828TIP3   OH2 8489   4.698   2.693   3.055
 2828TIP3    H1 8490   4.728   2.701   3.145
 2828TIP3    H2 8491   4.734   2.770   3.010
 2829TIP3   OH2 8492   4.668   5.609   1.533
 2829TIP3    H1 8493   4.614   5.544   1.489
 2829TIP3    H2 8494   4.718   5.651   1.462
 2830TIP3   OH2 8495   5.439   4.965   1.935
 2830TIP3    H1 8496   5.530   4.935   1.943
 2830TIP3    H2 8497   5.420   5.005   2.020
 2831TIP3   OH2 8498   5.806   3.306   1.436
 2831TIP3    H1 8499   5.743   3.377   1.425
 2831TIP3    H2 8500   5.816   3.297   1.531
 2832TIP3   OH2 8501   2.098   2.569   1.767
 2832TIP3    H1 8502   2.065   2.653   1.799
 2832TIP3    H2 8503   2.169   2.546   1.827
 2833TIP3   OH2 8504   1.708   1.586   0.508
 2833TIP3    H1 8505   1.695   1.588   0.603
 2833TIP3    H2 8506   1.709   1.493   0.486
 2834TIP3   OH2 8507   3.093   2.465   0.957
 2834TIP3    H1 8508   3.021   2.457   1.020
 2834TIP3    H2 8509   3.085   2.553   0.922
 2835TIP3   OH2 8510   0.345   2.704   1.813
 2835TIP3    H1 8511   0.352   2.777   1.750
 2835TIP3    H2 8512   0.358   2.626   1.760
 2836TIP3   OH2 8513   4.885   5.957   3.669
 2836TIP3    H1 8514   4.832   5.884   3.701
 2836TIP3    H2 8515   4.848   6.034   3.712
 2837TIP3   OH2 8516   5.456   3.766   2.902
 2837TIP3    H1 8517   5.405   3.846   2.912
 2837TIP3    H2 8518   5.499   3.775   2.818
 2838TIP3   OH2 8519   5.356   5.534   3.792
 2838TIP3    H1 8520   5.266   5.503   3.784
 2838TIP3    H2 8521   5.373   5.536   3.887
 2839TIP3   OH2 8522   4.066   5.826   1.997
 2839TIP3    H1 8523   4.133   5.888   1.967
 2839TIP3    H2 8524   4.008   5.815   1.922
 2840TIP3   OH2 8525   5.376   3.012   3.794
 2840TIP3    H1 8526   5.381   2.935   3.737
 2840TIP3    H2 8527   5.414   2.981   3.877
 2841TIP3   OH2 8528   1.102   3.041   0.379
 2841TIP3    H1 8529   1.047   3.119   0.375
 2841TIP3    H2 8530   1.117   3.018   0.287
 2842TIP3   OH2 8531   3.847   4.851   2.894
 2842TIP3    H1 8532   3.808   4.780   2.841
 2842TIP3    H2 8533   3.933   4.817   2.919
 2843TIP3   OH2 8534   5.049   4.285   4.462
 2843TIP3    H1 8535   5.035   4.200   4.505
 2843TIP3    H2 8536   5.003   4.348   4.517
 2844TIP3   OH2 8537   1.586   0.396   3.053
 2844TIP3    H1 8538   1.497   0.422   3.029
 2844TIP3    H2 8539   1.614   0.338   2.982
 2845TIP3   OH2 8540   4.801   0.912   1.384
 2845TIP3    H1 8541   4.773   0.910   1.293
 2845TIP3    H2 8542   4.896   0.900   1.381
 2846TIP3   OH2 8543   5.025   0.477   3.251
 2846TIP3    H1 8544   5.095   0.524   3.206
 2846TIP3    H2 8545   4.996   0.538   3.319
 2847TIP3   OH2 8546   2.653   2.933   4.135
 2847TIP3    H1 8547   2.740   2.896   4.152
 2847TIP3    H2 8548   2.639   2.994   4.207
 2848TIP3   OH2 8549   4.047   1.138   3.082
 2848TIP3    H1 8550   4.085   1.225   3.090
 2848TIP3    H2 8551   3.968   1.141   3.136
 2849TIP3   OH2 8552   0.274   0.938   2.268
 2849TIP3    H1 8553   0.269   1.023   2.224
 2849TIP3    H2 8554   0.186   0.902   2.260
 2850TIP3   OH2 8555   3.441   2.033   3.362
 2850TIP3    H1 8556   3.436   2.091   3.286
 2850TIP3    H2 8557   3.350   2.014   3.384
 2851TIP3   OH2 8558   6.202   0.676   4.377
 2851TIP3    H1 8559   6.164   0.733   4.443
 2851TIP3    H2 8560   6.159   0.592   4.390
 2852TIP3   OH2 8561   0.485   2.405   2.806
 2852TIP3    H1 8562   0.414   2.465   2.832
 2852TIP3    H2 8563   0.440   2.326   2.777
 2853TIP3   OH2 8564   1.617   0.116   0.568
 2853TIP3    H1 8565   1.556   0.124   0.641
 2853TIP3    H2 8566   1.565   0.080   0.497
 2854TIP3   OH2 8567   1.815   5.264   4.584
 2854TIP3    H1 8568   1.876   5.243   4.513
 2854TIP3    H2 8569   1.731   5.228   4.556
 2855TIP3   OH2 8570   6.056   1.653   3.815
 2855TIP3    H1 8571   6.060   1.561   3.840
 2855TIP3    H2 8572   6.066   1.653   3.720
 2856TIP3   OH2 8573   5.849   0.156   4.847
 2856TIP3    H1 8574   5.782   0.220   4.822
 2856TIP3    H2 8575   5.915   0.208   4.894
 2857TIP3   OH2 8576   5.369   0.797   1.199
 2857TIP3    H1 8577   5.413   0.852   1.263
 2857TIP3    H2 8578   5.327   0.728   1.251
 2858TIP3   OH2 8579   3.557   5.577   0.309
 2858TIP3    H1 8580   3.597   5.500   0.268
 2858TIP3    H2 8581   3.630   5.637   0.323
 2859TIP3   OH2 8582   0.292   5.250   3.614
 2859TIP3    H1 8583   0.221   5.280   3.672
 2859TIP3    H2 8584   0.246   5.211   3.539
 2860TIP3   OH2 8585   5.702   3.070   3.062
 2860TIP3    H1 8586   5.657   3.070   3.146
 2860TIP3    H2 8587   5.764   2.997   3.068
 2861TIP3   OH2 8588   4.010   4.334   1.653
 2861TIP3    H1 8589   4.035   4.402   1.591
 2861TIP3    H2 8590   3.919   4.353   1.675
 2862TIP3   OH2 8591   0.255   5.638   0.049
 2862TIP3    H1 8592   0.230   5.645  -0.043
 2862TIP3    H2 8593   0.263   5.728   0.079
 2863TIP3   OH2 8594   3.500   2.405   0.677
 2863TIP3    H1 8595   3.517   2.355   0.757
 2863TIP3    H2 8596   3.418   2.368   0.644
 2864TIP3   OH2 8597   5.165   4.718   4.718
 2864TIP3    H1 8598   5.150   4.810   4.698
 2864TIP3    H2 8599   5.218   4.720   4.799
 2865TIP3   OH2 8600   4.147   4.126   3.786
 2865TIP3    H1 8601   4.078   4.060   3.783
 2865TIP3    H2 8602   4.211   4.097   3.721
 2866TIP3   OH2 8603   2.310   2.027   5.116
 2866TIP3    H1 8604   2.305   1.934   5.093
 2866TIP3    H2 8605   2.381   2.032   5.179
 2867TIP3   OH2 8606   6.220   2.026   4.894
 2867TIP3    H1 8607   6.146   2.031   4.833
 2867TIP3    H2 8608   6.205   2.097   4.956
 2868TIP3   OH2 8609   0.093   0.392   2.338
 2868TIP3    H1 8610   0.064   0.353   2.421
 2868TIP3    H2 8611   0.044   0.346   2.271
 2869TIP3   OH2 8612   2.172   1.594  -0.052
 2869TIP3    H1 8613   2.230   1.669  -0.041
 2869TIP3    H2 8614   2.166   1.555   0.035
 2870TIP3   OH2 8615   5.410   5.477   1.967
 2870TIP3    H1 8616   5.382   5.561   1.931
 2870TIP3    H2 8617   5.386   5.413   1.900
 2871TIP3   OH2 8618   4.732   1.205   0.858
 2871TIP3    H1 8619   4.708   1.180   0.948
 2871TIP3    H2 8620   4.719   1.126   0.807
 2872TIP3   OH2 8621   5.654   3.782   3.104
 2872TIP3    H1 8622   5.613   3.753   3.023
 2872TIP3    H2 8623   5.711   3.709   3.130
 2873TIP3   OH2 8624   1.801   4.629   3.991
 2873TIP3    H1 8625   1.859   4.701   3.966
 2873TIP3    H2 8626   1.800   4.571   3.915
 2874TIP3   OH2 8627   3.482   1.050   0.011
 2874TIP3    H1 8628   3.551   1.104  -0.027
 2874TIP3    H2 8629   3.470   1.084   0.099
 2875TIP3   OH2 8630   1.406   3.349   3.302
 2875TIP3    H1 8631   1.319   3.361   3.263
 2875TIP3    H2 8632   1.430   3.259   3.281
 2876TIP3   OH2 8633   3.368   0.669   1.359
 2876TIP3    H1 8634   3.280   0.699   1.384
 2876TIP3    H2 8635   3.387   0.597   1.419
 2877TIP3   OH2 8636   0.361   3.111   4.795
 2877TIP3    H1 8637   0.441   3.075   4.759
 2877TIP3    H2 8638   0.377   3.119   4.889
 2878TIP3   OH2 8639   0.466   1.518   3.086
 2878TIP3    H1 8640   0.455   1.604   3.125
 2878TIP3    H2 8641   0.390   1.508   3.028
 2879TIP3   OH2 8642   1.148   1.931   0.679
 2879TIP3    H1 8643   1.119   1.925   0.588
 2879TIP3    H2 8644   1.070   1.911   0.730
 2880TIP3   OH2 8645   3.436   0.051   5.011
 2880TIP3    H1 8646   3.511  -0.004   5.033
 2880TIP3    H2 8647   3.417   0.031   4.919
 2881TIP3   OH2 8648   0.814   1.738   3.447
 2881TIP3    H1 8649   0.841   1.729   3.356
 2881TIP3    H2 8650   0.891   1.771   3.493
 2882TIP3   OH2 8651   2.096   4.328   3.139
 2882TIP3    H1 8652   2.060   4.360   3.222
 2882TIP3    H2 8653   2.122   4.408   3.093
 2883TIP3   OH2 8654   3.844   3.364   2.810
 2883TIP3    H1 8655   3.936   3.359   2.785
 2883TIP3    H2 8656   3.797   3.316   2.742
 2884TIP3   OH2 8657   2.280   2.935   3.093
 2884TIP3    H1 8658   2.303   3.027   3.102
 2884TIP3    H2 8659   2.185   2.935   3.085
 2885TIP3   OH2 8660   3.953   2.007   0.110
 2885TIP3    H1 8661   3.912   2.089   0.135
 2885TIP3    H2 8662   3.966   1.960   0.192
 2886TIP3   OH2 8663   6.294   1.560   1.821
 2886TIP3    H1 8664   6.316   1.619   1.749
 2886TIP3    H2 8665   6.347   1.590   1.894
 2887TIP3   OH2 8666   1.204   2.364   1.091
 2887TIP3    H1 8667   1.127   2.318   1.124
 2887TIP3    H2 8668   1.179   2.394   1.004
 2888TIP3   OH2 8669   1.412   5.710   2.006
 2888TIP3    H1 8670   1.423   5.615   2.015
 2888TIP3    H2 8671   1.378   5.721   1.917
 2889TIP3   OH2 8672   6.307   2.945   5.103
 2889TIP3    H1 8673   6.285   3.037   5.094
 2889TIP3    H2 8674   6.223   2.901   5.120
 2890TIP3   OH2 8675   2.490   4.897   0.795
 2890TIP3    H1 8676   2.420   4.918   0.734
 2890TIP3    H2 8677   2.505   4.803   0.783
 2891TIP3   OH2 8678   4.479   1.910   2.881
 2891TIP3    H1 8679   4.389   1.920   2.913
 2891TIP3    H2 8680   4.491   1.983   2.821
 2892TIP3   OH2 8681   3.158   4.123   2.340
 2892TIP3    H1 8682   3.252   4.117   2.321
 2892TIP3    H2 8683   3.153   4.174   2.420
 2893TIP3   OH2 8684   4.146   5.011   1.503
 2893TIP3    H1 8685   4.127   5.064   1.581
 2893TIP3    H2 8686   4.060   4.990   1.466
 2894TIP3   OH2 8687   5.809   4.255   1.987
 2894TIP3    H1 8688   5.864   4.303   1.926
 2894TIP3    H2 8689   5.792   4.316   2.059
 2895TIP3   OH2 8690   6.261   0.295   3.288
 2895TIP3    H1 8691   6.191   0.239   3.322
 2895TIP3    H2 8692   6.337   0.237   3.280
 2896TIP3   OH2 8693   4.254   1.937   2.157
 2896TIP3    H1 8694   4.274   1.855   2.112
 2896TIP3    H2 8695   4.340   1.976   2.175
 2897TIP3   OH2 8696   3.536   0.593   3.234
 2897TIP3    H1 8697   3.467   0.547   3.185
 2897TIP3    H2 8698   3.564   0.529   3.300
 2898TIP3   OH2 8699   5.893   0.098   1.726
 2898TIP3    H1 8700   5.854   0.169   1.674
 2898TIP3    H2 8701   5.956   0.058   1.667
 2899TIP3   OH2 8702   6.095   2.928   0.071
 2899TIP3    H1 8703   6.013   2.938   0.121
 2899TIP3    H2 8704   6.143   3.009   0.088
 2900TIP3   OH2 8705   1.235   5.434   4.926
 2900TIP3    H1 8706   1.268   5.363   4.871
 2900TIP3    H2 8707   1.298   5.505   4.914
 2901TIP3   OH2 8708   2.158   4.339   0.955
 2901TIP3    H1 8709   2.226   4.314   1.017
 2901TIP3    H2 8710   2.140   4.431   0.974
 2902TIP3   OH2 8711   5.880   2.747   1.562
 2902TIP3    H1 8712   5.918   2.829   1.531
 2902TIP3    H2 8713   5.925   2.730   1.645
 2903TIP3   OH2 8714   1.089   0.151   3.862
 2903TIP3    H1 8715   1.004   0.182   3.894
 2903TIP3    H2 8716   1.067   0.084   3.798
 2904TIP3   OH2 8717   4.965   2.821   1.287
 2904TIP3    H1 8718   4.932   2.873   1.360
 2904TIP3    H2 8719   4.911   2.741   1.288
 2905TIP3   OH2 8720   1.932   4.141   3.009
 2905TIP3    H1 8721   1.984   4.184   3.077
 2905TIP3    H2 8722   1.853   4.112   3.054
 2906TIP3   OH2 8723   0.396   1.501   3.991
 2906TIP3    H1 8724   0.308   1.528   4.017
 2906TIP3    H2 8725   0.406   1.536   3.902
 2907TIP3   OH2 8726   4.987   2.961   1.777
 2907TIP3    H1 8727   4.944   3.046   1.785
 2907TIP3    H2 8728   5.013   2.939   1.867
 2908TIP3   OH2 8729   1.374   1.743   1.502
 2908TIP3    H1 8730   1.403   1.692   1.577
 2908TIP3    H2 8731   1.379   1.682   1.428
 2909TIP3   OH2 8732   3.465   0.482   1.545
 2909TIP3    H1 8733   3.372   0.489   1.566
 2909TIP3    H2 8734   3.498   0.414   1.604
 2910TIP3   OH2 8735   3.423   5.378   1.632
 2910TIP3    H1 8736   3.417   5.459   1.683
 2910TIP3    H2 8737   3.336   5.367   1.594
 2911TIP3   OH2 8738   5.230   3.689   1.389
 2911TIP3    H1 8739   5.224   3.688   1.294
 2911TIP3    H2 8740   5.171   3.760   1.416
 2912TIP3   OH2 8741   1.287   4.176   3.980
 2912TIP3    H1 8742   1.374   4.166   4.018
 2912TIP3    H2 8743   1.285   4.266   3.948
 2913TIP3   OH2 8744   6.258   2.421   0.227
 2913TIP3    H1 8745   6.344   2.386   0.207
 2913TIP3    H2 8746   6.214   2.429   0.142
 2914TIP3   OH2 8747   1.085   2.084   0.028
 2914TIP3    H1 8748   1.162   2.037   0.061
 2914TIP3    H2 8749   1.088   2.071  -0.067
 2915TIP3   OH2 8750   6.133   5.798   2.819
 2915TIP3    H1 8751   6.087   5.807   2.903
 2915TIP3    H2 8752   6.226   5.796   2.843
 2916TIP3   OH2 8753   0.436   0.583   2.436
 2916TIP3    H1 8754   0.355   0.593   2.387
 2916TIP3    H2 8755   0.485   0.515   2.390
 2917TIP3   OH2 8756   2.015   4.402   2.191
 2917TIP3    H1 8757   2.012   4.306   2.190
 2917TIP3    H2 8758   2.076   4.425   2.121
 2918TIP3   OH2 8759   5.715   5.449   0.179
 2918TIP3    H1 8760   5.632   5.412   0.208
 2918TIP3    H2 8761   5.703   5.467   0.086
 2919TIP3   OH2 8762   4.370   3.492   3.845
 2919TIP3    H1 8763   4.408   3.467   3.929
 2919TIP3    H2 8764   4.334   3.579   3.859
 2920TIP3   OH2 8765   4.353   5.470   5.076
 2920TIP3    H1 8766   4.400   5.500   5.154
 2920TIP3    H2 8767   4.404   5.503   5.002
 2921TIP3   OH2 8768   3.639   5.757   4.888
 2921TIP3    H1 8769   3.552   5.726   4.865
 2921TIP3    H2 8770   3.667   5.809   4.813
 2922TIP3   OH2 8771   0.713   4.392   3.948
 2922TIP3    H1 8772   0.796   4.416   3.989
 2922TIP3    H2 8773   0.673   4.476   3.925
 2923TIP3   OH2 8774   1.202   4.312   2.383
 2923TIP3    H1 8775   1.258   4.243   2.348
 2923TIP3    H2 8776   1.216   4.309   2.478
 2924TIP3   OH2 8777   5.869   3.622   3.478
 2924TIP3    H1 8778   5.942   3.612   3.417
 2924TIP3    H2 8779   5.833   3.533   3.487
 2925TIP3   OH2 8780   2.970   3.744   4.793
 2925TIP3    H1 8781   3.044   3.690   4.823
 2925TIP3    H2 8782   3.012   3.820   4.751
 2926TIP3   OH2 8783   4.405   0.161   2.806
 2926TIP3    H1 8784   4.496   0.177   2.781
 2926TIP3    H2 8785   4.366   0.248   2.811
 2927TIP3   OH2 8786   1.128   1.642   1.247
 2927TIP3    H1 8787   1.121   1.658   1.153
 2927TIP3    H2 8788   1.144   1.548   1.254
 2928TIP3   OH2 8789   0.650   4.866   0.975
 2928TIP3    H1 8790   0.655   4.817   0.893
 2928TIP3    H2 8791   0.565   4.843   1.012
 2929TIP3   OH2 8792   2.438   3.506   0.074
 2929TIP3    H1 8793   2.471   3.453   0.147
 2929TIP3    H2 8794   2.413   3.589   0.114
 2930TIP3   OH2 8795   4.355   5.653   1.982
 2930TIP3    H1 8796   4.410   5.668   1.906
 2930TIP3    H2 8797   4.275   5.613   1.948
 2931TIP3   OH2 8798   6.213   1.408   5.221
 2931TIP3    H1 8799   6.302   1.428   5.249
 2931TIP3    H2 8800   6.222   1.378   5.131
 2932TIP3   OH2 8801   4.201   5.438   1.384
 2932TIP3    H1 8802   4.221   5.439   1.290
 2932TIP3    H2 8803   4.115   5.396   1.390
 2933TIP3   OH2 8804   2.036   2.301   4.155
 2933TIP3    H1 8805   2.041   2.268   4.245
 2933TIP3    H2 8806   2.036   2.222   4.101
 2934TIP3   OH2 8807   1.414   2.111   0.676
 2934TIP3    H1 8808   1.333   2.062   0.692
 2934TIP3    H2 8809   1.422   2.170   0.751
 2935TIP3   OH2 8810   5.718   3.464   0.915
 2935TIP3    H1 8811   5.632   3.422   0.918
 2935TIP3    H2 8812   5.762   3.434   0.995
 2936TIP3   OH2 8813   4.803   4.674   2.284
 2936TIP3    H1 8814   4.733   4.621   2.322
 2936TIP3    H2 8815   4.861   4.611   2.242
 2937TIP3   OH2 8816   5.802   4.166   4.554
 2937TIP3    H1 8817   5.889   4.170   4.514
 2937TIP3    H2 8818   5.811   4.102   4.625
 2938TIP3   OH2 8819   1.680   5.213   4.318
 2938TIP3    H1 8820   1.682   5.297   4.272
 2938TIP3    H2 8821   1.637   5.153   4.258
 2939TIP3   OH2 8822   3.016   1.656   3.092
 2939TIP3    H1 8823   2.928   1.634   3.123
 2939TIP3    H2 8824   3.019   1.622   3.002
 2940TIP3   OH2 8825   0.279   1.200   1.714
 2940TIP3    H1 8826   0.194   1.191   1.671
 2940TIP3    H2 8827   0.264   1.172   1.804
 2941TIP3   OH2 8828   3.943   2.763   2.319
 2941TIP3    H1 8829   3.999   2.841   2.323
 2941TIP3    H2 8830   3.999   2.696   2.280
 2942TIP3   OH2 8831   2.078   1.128   2.184
 2942TIP3    H1 8832   2.055   1.037   2.202
 2942TIP3    H2 8833   1.994   1.172   2.168
 2943TIP3   OH2 8834   1.055   2.573   3.421
 2943TIP3    H1 8835   1.078   2.643   3.482
 2943TIP3    H2 8836   0.978   2.606   3.375
 2944TIP3   OH2 8837   4.862   3.750   1.875
 2944TIP3    H1 8838   4.879   3.761   1.969
 2944TIP3    H2 8839   4.922   3.680   1.848
 2945TIP3   OH2 8840   5.188   0.337   4.437
 2945TIP3    H1 8841   5.268   0.384   4.411
 2945TIP3    H2 8842   5.132   0.340   4.360
 2946TIP3   OH2 8843   4.343   2.884   0.023
 2946TIP3    H1 8844   4.304   2.971   0.032
 2946TIP3    H2 8845   4.319   2.856  -0.065
 2947TIP3   OH2 8846   4.251   2.994   2.588
 2947TIP3    H1 8847   4.327   3.046   2.561
 2947TIP3    H2 8848   4.206   3.050   2.652
 2948TIP3   OH2 8849   3.212   2.802   2.370
 2948TIP3    H1 8850   3.161   2.875   2.334
 2948TIP3    H2 8851   3.303   2.825   2.353
 2949TIP3   OH2 8852   3.078   2.319   3.894
 2949TIP3    H1 8853   3.051   2.227   3.902
 2949TIP3    H2 8854   3.072   2.353   3.983
 2950TIP3   OH2 8855   1.256   0.362   2.508
 2950TIP3    H1 8856   1.239   0.379   2.601
 2950TIP3    H2 8857   1.215   0.436   2.463
 2951TIP3   OH2 8858   3.599   5.697   5.155
 2951TIP3    H1 8859   3.609   5.741   5.070
 2951TIP3    H2 8860   3.617   5.605   5.136
 2952TIP3   OH2 8861   0.743   3.307   4.611
 2952TIP3    H1 8862   0.713   3.226   4.653
 2952TIP3    H2 8863   0.666   3.364   4.611
 2953TIP3   OH2 8864   2.471   4.556   4.347
 2953TIP3    H1 8865   2.480   4.471   4.305
 2953TIP3    H2 8866   2.557   4.575   4.383
 2954TIP3   OH2 8867   2.030   4.092   3.507
 2954TIP3    H1 8868   2.009   4.176   3.467
 2954TIP3    H2 8869   1.952   4.038   3.493
 2955TIP3   OH2 8870   3.310   3.901   3.097
 2955TIP3    H1 8871   3.378   3.837   3.076
 2955TIP3    H2 8872   3.250   3.897   3.022
 2956TIP3   OH2 8873   5.743   0.028   4.453
 2956TIP3    H1 8874   5.824   0.042   4.403
 2956TIP3    H2 8875   5.686   0.100   4.426
 2957TIP3   OH2 8876   3.570   3.550   0.928
 2957TIP3    H1 8877   3.539   3.477   0.876
 2957TIP3    H2 8878   3.590   3.512   1.014
 2958TIP3   OH2 8879   3.206   2.310   4.474
 2958TIP3    H1 8880   3.291   2.307   4.518
 2958TIP3    H2 8881   3.148   2.354   4.536
 2959TIP3   OH2 8882   5.874   0.378   2.150
 2959TIP3    H1 8883   5.889   0.312   2.217
 2959TIP3    H2 8884   5.798   0.427   2.181
 2960TIP3   OH2 8885   3.728   1.609   2.207
 2960TIP3    H1 8886   3.764   1.697   2.203
 2960TIP3    H2 8887   3.759   1.567   2.127
 2961TIP3   OH2 8888   2.186   3.020   0.587
 2961TIP3    H1 8889   2.186   3.057   0.498
 2961TIP3    H2 8890   2.277   3.024   0.614
 2962TIP3   OH2 8891   0.103   0.713   1.736
 2962TIP3    H1 8892   0.173   0.763   1.778
 2962TIP3    H2 8893   0.146   0.631   1.709
 2963TIP3   OH2 8894   1.065   1.361   5.145
 2963TIP3    H1 8895   0.977   1.328   5.127
 2963TIP3    H2 8896   1.117   1.333   5.070
 2964TIP3   OH2 8897   1.039   3.409   4.948
 2964TIP3    H1 8898   1.116   3.433   5.000
 2964TIP3    H2 8899   1.064   3.327   4.905
 2965TIP3   OH2 8900   4.749   0.080   2.171
 2965TIP3    H1 8901   4.833   0.036   2.189
 2965TIP3    H2 8902   4.767   0.136   2.095
 2966TIP3   OH2 8903   6.153   4.915   4.247
 2966TIP3    H1 8904   6.111   4.867   4.318
 2966TIP3    H2 8905   6.134   5.007   4.266
 2967TIP3   OH2 8906   3.924   1.806   2.165
 2967TIP3    H1 8907   3.936   1.896   2.195
 2967TIP3    H2 8908   4.008   1.782   2.126
 2968TIP3   OH2 8909   5.011   1.336   4.397
 2968TIP3    H1 8910   5.012   1.247   4.362
 2968TIP3    H2 8911   4.924   1.346   4.436
 2969TIP3   OH2 8912  -0.010   2.546   1.379
 2969TIP3    H1 8913  -0.059   2.530   1.460
 2969TIP3    H2 8914   0.069   2.492   1.389
 2970TIP3   OH2 8915   3.115   1.647   1.040
 2970TIP3    H1 8916   3.190   1.591   1.021
 2970TIP3    H2 8917   3.049   1.622   0.976
 2971TIP3   OH2 8918   3.199   3.808   2.870
 2971TIP3    H1 8919   3.274   3.766   2.827
 2971TIP3    H2 8920   3.138   3.827   2.799
 2972TIP3   OH2 8921   0.920   4.429   3.742
 2972TIP3    H1 8922   0.870   4.416   3.662
 2972TIP3    H2 8923   0.856   4.418   3.812
 2973TIP3   OH2 8924   2.585   5.100   4.413
 2973TIP3    H1 8925   2.592   5.081   4.319
 2973TIP3    H2 8926   2.547   5.187   4.417
 2974TIP3   OH2 8927   1.254   5.623   0.763
 2974TIP3    H1 8928   1.221   5.696   0.710
 2974TIP3    H2 8929   1.349   5.632   0.761
 2975TIP3   OH2 8930   2.607   5.712   1.342
 2975TIP3    H1 8931   2.561   5.629   1.328
 2975TIP3    H2 8932   2.700   5.690   1.335
 2976TIP3   OH2 8933   3.982   3.564   2.363
 2976TIP3    H1 8934   4.057   3.568   2.304
 2976TIP3    H2 8935   3.909   3.538   2.307
 2977TIP3   OH2 8936   2.745   3.580   2.083
 2977TIP3    H1 8937   2.755   3.523   2.007
 2977TIP3    H2 8938   2.689   3.531   2.143
 2978TIP3   OH2 8939   5.904   0.705   3.895
 2978TIP3    H1 8940   5.964   0.674   3.827
 2978TIP3    H2 8941   5.944   0.786   3.927
 2979TIP3   OH2 8942   4.388   5.968   0.212
 2979TIP3    H1 8943   4.409   5.882   0.249
 2979TIP3    H2 8944   4.295   5.962   0.189
 2980TIP3   OH2 8945   4.614   1.927   3.988
 2980TIP3    H1 8946   4.591   2.019   3.977
 2980TIP3    H2 8947   4.603   1.889   3.900
 2981TIP3   OH2 8948   2.328   1.557   5.057
 2981TIP3    H1 8949   2.253   1.511   5.019
 2981TIP3    H2 8950   2.331   1.641   5.012
 2982TIP3   OH2 8951   5.773   1.673   1.492
 2982TIP3    H1 8952   5.752   1.630   1.575
 2982TIP3    H2 8953   5.849   1.625   1.459
 2983TIP3   OH2 8954   4.879   1.618   1.463
 2983TIP3    H1 8955   4.894   1.562   1.387
 2983TIP3    H2 8956   4.945   1.686   1.457
 2984TIP3   OH2 8957   1.280   3.015   1.501
 2984TIP3    H1 8958   1.249   3.019   1.592
 2984TIP3    H2 8959   1.329   2.933   1.496
 2985TIP3   OH2 8960   2.062   5.347   0.529
 2985TIP3    H1 8961   1.975   5.321   0.559
 2985TIP3    H2 8962   2.096   5.270   0.485
 2986TIP3   OH2 8963   3.143   3.204   1.675
 2986TIP3    H1 8964   3.230   3.238   1.652
 2986TIP3    H2 8965   3.090   3.282   1.690
 2987TIP3   OH2 8966   1.132   4.849   0.126
 2987TIP3    H1 8967   1.065   4.785   0.100
 2987TIP3    H2 8968   1.105   4.930   0.084
 2988TIP3   OH2 8969  -0.027   5.490   1.339
 2988TIP3    H1 8970   0.047   5.541   1.372
 2988TIP3    H2 8971  -0.013   5.401   1.373
 2989TIP3   OH2 8972   2.681   2.932   4.547
 2989TIP3    H1 8973   2.600   2.888   4.573
 2989TIP3    H2 8974   2.746   2.903   4.611
 2990TIP3   OH2 8975   1.232   5.691   4.636
 2990TIP3    H1 8976   1.321   5.675   4.604
 2990TIP3    H2 8977   1.207   5.609   4.678
 2991TIP3   OH2 8978   0.552   5.191   0.162
 2991TIP3    H1 8979   0.567   5.202   0.256
 2991TIP3    H2 8980   0.567   5.277   0.125
 2992TIP3   OH2 8981   2.047   2.581   1.059
 2992TIP3    H1 8982   1.953   2.566   1.053
 2992TIP3    H2 8983   2.080   2.508   1.111
 2993TIP3   OH2 8984   2.469   2.882   3.912
 2993TIP3    H1 8985   2.536   2.913   3.972
 2993TIP3    H2 8986   2.416   2.960   3.893
 2994TIP3   OH2 8987   5.688   2.188   2.656
 2994TIP3    H1 8988   5.668   2.282   2.656
 2994TIP3    H2 8989   5.605   2.146   2.676
 2995TIP3   OH2 8990   1.160   1.028   2.690
 2995TIP3    H1 8991   1.101   1.045   2.617
 2995TIP3    H2 8992   1.247   1.044   2.655
 2996TIP3   OH2 8993   5.812   0.890   0.347
 2996TIP3    H1 8994   5.746   0.877   0.280
 2996TIP3    H2 8995   5.769   0.944   0.413
 2997TIP3   OH2 8996   3.235   1.249   2.702
 2997TIP3    H1 8997   3.316   1.261   2.653
 2997TIP3    H2 8998   3.247   1.167   2.750
 2998TIP3   OH2 8999   2.938   4.172   2.152
 2998TIP3    H1 9000   2.868   4.230   2.182
 2998TIP3    H2 9001   2.993   4.159   2.229
 2999TIP3   OH2 9002   1.448   1.014   3.307
 2999TIP3    H1 9003   1.483   1.046   3.390
 2999TIP3    H2 9004   1.370   0.964   3.332
 3000TIP3   OH2 9005   1.296   1.828   4.444
 3000TIP3    H1 9006   1.278   1.916   4.411
 3000TIP3    H2 9007   1.357   1.841   4.517
 3001TIP3   OH2 9008   6.055   2.054   0.764
 3001TIP3    H1 9009   6.075   2.139   0.802
 3001TIP3    H2 9010   5.988   2.017   0.821
 3002TIP3   OH2 9011   1.913   0.715   1.199
 3002TIP3    H1 9012   1.853   0.760   1.259
 3002TIP3    H2 9013   1.974   0.669   1.256
 3003TIP3   OH2 9014   0.835   4.759   4.183
 3003TIP3    H1 9015   0.826   4.795   4.271
 3003TIP3    H2 9016   0.748   4.771   4.143
 3004TIP3   OH2 9017   5.801   5.118   4.521
 3004TIP3    H1 9018   5.779   5.185   4.586
 3004TIP3    H2 9019   5.785   5.035   4.566
 3005TIP3   OH2 9020   2.265   3.701   1.964
 3005TIP3    H1 9021   2.338   3.717   1.905
 3005TIP3    H2 9022   2.295   3.631   2.022
 3006TIP3   OH2 9023   5.715   5.766   2.977
 3006TIP3    H1 9024   5.622   5.786   2.968
 3006TIP3    H2 9025   5.722   5.723   3.062
 3007TIP3   OH2 9026   4.298   2.358   1.638
 3007TIP3    H1 9027   4.315   2.382   1.547
 3007TIP3    H2 9028   4.294   2.262   1.637
 3008TIP3   OH2 9029   2.601   2.445   4.727
 3008TIP3    H1 9030   2.554   2.492   4.658
 3008TIP3    H2 9031   2.544   2.452   4.803
 3009TIP3   OH2 9032   3.799   5.236   2.348
 3009TIP3    H1 9033   3.713   5.204   2.319
 3009TIP3    H2 9034   3.811   5.319   2.303
 3010TIP3   OH2 9035   4.422   0.595   2.964
 3010TIP3    H1 9036   4.389   0.536   2.897
 3010TIP3    H2 9037   4.491   0.545   3.009
 3011TIP3   OH2 9038   0.640   3.267   1.811
 3011TIP3    H1 9039   0.701   3.290   1.741
 3011TIP3    H2 9040   0.670   3.182   1.842
 3012TIP3   OH2 9041   2.487   0.692   0.503
 3012TIP3    H1 9042   2.450   0.716   0.417
 3012TIP3    H2 9043   2.580   0.680   0.486
 3013TIP3   OH2 9044   2.573   1.763   2.217
 3013TIP3    H1 9045   2.523   1.818   2.156
 3013TIP3    H2 9046   2.582   1.679   2.171
 3014TIP3   OH2 9047   5.568   2.799   5.009
 3014TIP3    H1 9048   5.485   2.840   4.988
 3014TIP3    H2 9049   5.609   2.857   5.073
 3015TIP3   OH2 9050   0.392   2.339   0.760
 3015TIP3    H1 9051   0.321   2.276   0.752
 3015TIP3    H2 9052   0.355   2.422   0.729
 3016TIP3   OH2 9053   6.117   1.413   4.194
 3016TIP3    H1 9054   6.211   1.409   4.175
 3016TIP3    H2 9055   6.078   1.354   4.129
 3017TIP3   OH2 9056   1.653   0.387   3.972
 3017TIP3    H1 9057   1.736   0.384   4.020
 3017TIP3    H2 9058   1.586   0.392   4.040
 3018TIP3   OH2 9059   6.327   0.485   2.718
 3018TIP3    H1 9060   6.231   0.491   2.722
 3018TIP3    H2 9061   6.357   0.573   2.743
 3019TIP3   OH2 9062   0.516   5.149   3.750
 3019TIP3    H1 9063   0.436   5.183   3.710
 3019TIP3    H2 9064   0.487   5.074   3.802
 3020TIP3   OH2 9065   5.473   0.090   1.353
 3020TIP3    H1 9066   5.411   0.163   1.365
 3020TIP3    H2 9067   5.539   0.125   1.293
 3021TIP3   OH2 9068   1.038   1.507   1.633
 3021TIP3    H1 9069   0.943   1.519   1.621
 3021TIP3    H2 9070   1.066   1.586   1.679
 3022TIP3   OH2 9071   3.559   1.455   4.651
 3022TIP3    H1 9072   3.619   1.469   4.725
 3022TIP3    H2 9073   3.549   1.360   4.646
 3023TIP3   OH2 9074   4.452   2.007   0.849
 3023TIP3    H1 9075   4.514   2.075   0.877
 3023TIP3    H2 9076   4.482   1.928   0.894
 3024TIP3   OH2 9077   2.924   3.989   2.440
 3024TIP3    H1 9078   3.008   4.027   2.414
 3024TIP3    H2 9079   2.946   3.920   2.503
 3025TIP3   OH2 9080   5.093   1.979   2.750
 3025TIP3    H1 9081   5.102   2.067   2.712
 3025TIP3    H2 9082   5.099   1.920   2.675
 3026TIP3   OH2 9083   3.413   4.410   2.457
 3026TIP3    H1 9084   3.393   4.323   2.424
 3026TIP3    H2 9085   3.409   4.467   2.379
 3027TIP3   OH2 9086   5.755   4.532   2.957
 3027TIP3    H1 9087   5.667   4.502   2.937
 3027TIP3    H2 9088   5.811   4.486   2.894
 3028TIP3   OH2 9089   2.070   0.040   3.557
 3028TIP3    H1 9090   2.002   0.086   3.607
 3028TIP3    H2 9091   2.059  -0.052   3.581
 3029TIP3   OH2 9092   3.575   3.235   4.305
 3029TIP3    H1 9093   3.550   3.293   4.376
 3029TIP3    H2 9094   3.621   3.291   4.243
 3030TIP3   OH2 9095   0.090   2.836   4.104
 3030TIP3    H1 9096   0.155   2.766   4.107
 3030TIP3    H2 9097   0.038   2.816   4.026
 3031TIP3   OH2 9098   1.834   1.048   3.649
 3031TIP3    H1 9099   1.880   0.984   3.703
 3031TIP3    H2 9100   1.864   1.030   3.559
 3032TIP3   OH2 9101   4.133   4.269   1.197
 3032TIP3    H1 9102   4.126   4.174   1.185
 3032TIP3    H2 9103   4.172   4.300   1.115
 3033TIP3   OH2 9104   4.303   1.512   0.805
 3033TIP3    H1 9105   4.318   1.574   0.733
 3033TIP3    H2 9106   4.327   1.427   0.768
 3034TIP3   OH2 9107   5.516   0.427   4.568
 3034TIP3    H1 9108   5.496   0.520   4.562
 3034TIP3    H2 9109   5.567   0.409   4.489
 3035TIP3   OH2 9110   2.115   1.223   0.234
 3035TIP3    H1 9111   2.026   1.237   0.202
 3035TIP3    H2 9112   2.110   1.246   0.327
 3036TIP3   OH2 9113   5.171   1.071   3.621
 3036TIP3    H1 9114   5.150   1.055   3.713
 3036TIP3    H2 9115   5.087   1.065   3.576
 3037TIP3   OH2 9116   4.455   2.805   0.508
 3037TIP3    H1 9117   4.360   2.796   0.512
 3037TIP3    H2 9118   4.475   2.803   0.414
 3038TIP3   OH2 9119   5.564   0.855   0.917
 3038TIP3    H1 9120   5.642   0.845   0.971
 3038TIP3    H2 9121   5.595   0.900   0.838
 3039TIP3   OH2 9122   5.000   4.297   2.466
 3039TIP3    H1 9123   5.076   4.257   2.508
 3039TIP3    H2 9124   5.005   4.390   2.491
 3040TIP3   OH2 9125   0.410   4.808   1.613
 3040TIP3    H1 9126   0.426   4.805   1.519
 3040TIP3    H2 9127   0.472   4.745   1.650
 3041TIP3   OH2 9128   1.858   3.585   2.747
 3041TIP3    H1 9129   1.771   3.591   2.786
 3041TIP3    H2 9130   1.866   3.494   2.719
 3042TIP3   OH2 9131   5.631   4.494   0.335
 3042TIP3    H1 9132   5.659   4.581   0.363
 3042TIP3    H2 9133   5.536   4.494   0.345
 3043TIP3   OH2 9134   6.271   2.072   3.288
 3043TIP3    H1 9135   6.244   2.026   3.209
 3043TIP3    H2 9136   6.253   2.010   3.359
 3044TIP3   OH2 9137   6.232   3.390   1.344
 3044TIP3    H1 9138   6.294   3.359   1.411
 3044TIP3    H2 9139   6.287   3.411   1.268
 3045TIP3   OH2 9140   0.520   2.727   2.709
 3045TIP3    H1 9141   0.608   2.758   2.688
 3045TIP3    H2 9142   0.473   2.733   2.626
 3046TIP3   OH2 9143   0.807   3.558   1.386
 3046TIP3    H1 9144   0.863   3.482   1.371
 3046TIP3    H2 9145   0.795   3.597   1.300
 3047TIP3   OH2 9146   3.999   3.023   3.513
 3047TIP3    H1 9147   3.991   3.119   3.508
 3047TIP3    H2 9148   4.063   3.009   3.583
 3048TIP3   OH2 9149   0.184   3.712   0.804
 3048TIP3    H1 9150   0.244   3.782   0.780
 3048TIP3    H2 9151   0.164   3.729   0.896
 3049TIP3   OH2 9152   2.470   1.907   2.027
 3049TIP3    H1 9153   2.415   1.985   2.027
 3049TIP3    H2 9154   2.475   1.882   1.935
 3050TIP3   OH2 9155   4.271   4.023   5.006
 3050TIP3    H1 9156   4.353   3.973   5.007
 3050TIP3    H2 9157   4.291   4.102   5.055
 3051TIP3   OH2 9158   0.770   5.461  -0.022
 3051TIP3    H1 9159   0.675   5.459  -0.026
 3051TIP3    H2 9160   0.791   5.445   0.070
 3052TIP3   OH2 9161   5.269   0.519   4.866
 3052TIP3    H1 9162   5.254   0.425   4.872
 3052TIP3    H2 9163   5.245   0.541   4.776
 3053TIP3   OH2 9164   2.606   5.675   4.318
 3053TIP3    H1 9165   2.603   5.770   4.331
 3053TIP3    H2 9166   2.694   5.650   4.344
 3054TIP3   OH2 9167   1.558   2.819   4.010
 3054TIP3    H1 9168   1.478   2.771   3.986
 3054TIP3    H2 9169   1.543   2.846   4.101
 3055TIP3   OH2 9170   0.283   1.971   3.443
 3055TIP3    H1 9171   0.277   1.879   3.419
 3055TIP3    H2 9172   0.365   1.978   3.493
 3056TIP3   OH2 9173   6.132   5.760   4.152
 3056TIP3    H1 9174   6.038   5.749   4.164
 3056TIP3    H2 9175   6.172   5.695   4.209
 3057TIP3   OH2 9176   3.394   4.661   0.264
 3057TIP3    H1 9177   3.401   4.601   0.339
 3057TIP3    H2 9178   3.315   4.632   0.218
 3058TIP3   OH2 9179   5.030   5.437   3.743
 3058TIP3    H1 9180   5.014   5.474   3.656
 3058TIP3    H2 9181   5.064   5.349   3.725
 3059TIP3   OH2 9182   0.792   2.428   0.850
 3059TIP3    H1 9183   0.738   2.508   0.852
 3059TIP3    H2 9184   0.881   2.460   0.832
 3060TIP3   OH2 9185   4.851   5.298   2.166
 3060TIP3    H1 9186   4.898   5.375   2.135
 3060TIP3    H2 9187   4.920   5.233   2.182
 3061TIP3   OH2 9188   1.710   4.641   1.117
 3061TIP3    H1 9189   1.656   4.710   1.157
 3061TIP3    H2 9190   1.662   4.615   1.039
 3062TIP3   OH2 9191   4.492   2.933   2.395
 3062TIP3    H1 9192   4.447   2.854   2.425
 3062TIP3    H2 9193   4.424   2.984   2.349
 3063TIP3   OH2 9194   3.228   3.002   3.962
 3063TIP3    H1 9195   3.319   3.023   3.939
 3063TIP3    H2 9196   3.229   2.907   3.975
 3064TIP3   OH2 9197   1.788   5.531   3.667
 3064TIP3    H1 9198   1.817   5.609   3.714
 3064TIP3    H2 9199   1.819   5.544   3.578
 3065TIP3   OH2 9200   5.447   4.888   3.136
 3065TIP3    H1 9201   5.373   4.928   3.183
 3065TIP3    H2 9202   5.478   4.956   3.077
 3066TIP3   OH2 9203   0.878   2.899   0.846
 3066TIP3    H1 9204   0.966   2.867   0.865
 3066TIP3    H2 9205   0.892   2.988   0.814
 3067TIP3   OH2 9206   1.997   3.738   0.766
 3067TIP3    H1 9207   2.059   3.722   0.694
 3067TIP3    H2 9208   2.050   3.731   0.845
 3068TIP3   OH2 9209   0.608   4.416   0.167
 3068TIP3    H1 9210   0.680   4.355   0.177
 3068TIP3    H2 9211   0.623   4.482   0.236
 3069TIP3   OH2 9212   5.836   1.159   0.978
 3069TIP3    H1 9213   5.755   1.209   0.977
 3069TIP3    H2 9214   5.837   1.116   1.064
 3070TIP3   OH2 9215   0.065   1.399   4.421
 3070TIP3    H1 9216   0.126   1.327   4.405
 3070TIP3    H2 9217   0.097   1.470   4.366
 3071TIP3   OH2 9218   1.406   2.847   0.828
 3071TIP3    H1 9219   1.430   2.939   0.839
 3071TIP3    H2 9220   1.396   2.815   0.918
 3072TIP3   OH2 9221   4.788   3.205   3.916
 3072TIP3    H1 9222   4.736   3.146   3.863
 3072TIP3    H2 9223   4.825   3.150   3.984
 3073TIP3   OH2 9224   2.109   0.231   1.297
 3073TIP3    H1 9225   2.188   0.191   1.332
 3073TIP3    H2 9226   2.130   0.324   1.292
 3074TIP3   OH2 9227   1.909   5.995   1.052
 3074TIP3    H1 9228   1.855   5.965   1.125
 3074TIP3    H2 9229   1.992   5.947   1.062
 3075TIP3   OH2 9230   1.734   3.263   0.366
 3075TIP3    H1 9231   1.753   3.237   0.276
 3075TIP3    H2 9232   1.819   3.286   0.403
 3076TIP3   OH2 9233   1.345   1.599   4.759
 3076TIP3    H1 9234   1.334   1.680   4.809
 3076TIP3    H2 9235   1.439   1.592   4.746
 3077TIP3   OH2 9236   4.949   0.538   1.419
 3077TIP3    H1 9237   4.977   0.629   1.422
 3077TIP3    H2 9238   4.906   0.528   1.334
 3078TIP3   OH2 9239   4.648   3.762   2.323
 3078TIP3    H1 9240   4.631   3.667   2.322
 3078TIP3    H2 9241   4.704   3.775   2.400
 3079TIP3   OH2 9242   2.621   4.606   2.891
 3079TIP3    H1 9243   2.607   4.559   2.973
 3079TIP3    H2 9244   2.641   4.537   2.827
 3080TIP3   OH2 9245   3.578   3.073   0.565
 3080TIP3    H1 9246   3.559   2.984   0.537
 3080TIP3    H2 9247   3.667   3.069   0.599
 3081TIP3   OH2 9248   1.384   2.653   4.436
 3081TIP3    H1 9249   1.362   2.708   4.362
 3081TIP3    H2 9250   1.432   2.580   4.398
 3082TIP3   OH2 9251   0.176   5.887   0.189
 3082TIP3    H1 9252   0.183   5.977   0.220
 3082TIP3    H2 9253   0.084   5.877   0.163
 3083TIP3   OH2 9254   1.838   0.435   3.448
 3083TIP3    H1 9255   1.848   0.526   3.476
 3083TIP3    H2 9256   1.746   0.415   3.462
 3084TIP3   OH2 9257   5.137   2.278   0.274
 3084TIP3    H1 9258   5.172   2.320   0.353
 3084TIP3    H2 9259   5.043   2.277   0.288
 3085TIP3   OH2 9260   5.904   4.349   2.492
 3085TIP3    H1 9261   5.931   4.362   2.401
 3085TIP3    H2 9262   5.981   4.374   2.543
 3086TIP3   OH2 9263   3.929   5.555   0.172
 3086TIP3    H1 9264   3.967   5.531   0.087
 3086TIP3    H2 9265   3.883   5.476   0.200
 3087TIP3   OH2 9266   5.577   5.629   4.088
 3087TIP3    H1 9267   5.560   5.597   4.177
 3087TIP3    H2 9268   5.563   5.723   4.093
 3088TIP3   OH2 9269   4.187   2.268   0.664
 3088TIP3    H1 9270   4.131   2.196   0.693
 3088TIP3    H2 9271   4.217   2.309   0.744
 3089TIP3   OH2 9272   3.509   1.661   1.942
 3089TIP3    H1 9273   3.421   1.679   1.910
 3089TIP3    H2 9274   3.566   1.714   1.886
 3090TIP3   OH2 9275   0.776   5.044   1.673
 3090TIP3    H1 9276   0.717   5.113   1.703
 3090TIP3    H2 9277   0.862   5.071   1.702
 3091TIP3   OH2 9278   4.282   4.613   3.706
 3091TIP3    H1 9279   4.324   4.633   3.790
 3091TIP3    H2 9280   4.212   4.551   3.729
 3092TIP3   OH2 9281   1.616   3.573   0.048
 3092TIP3    H1 9282   1.686   3.512   0.023
 3092TIP3    H2 9283   1.652   3.624   0.120
 3093TIP3   OH2 9284   3.727   3.544   2.260
 3093TIP3    H1 9285   3.743   3.620   2.204
 3093TIP3    H2 9286   3.634   3.550   2.283
 3094TIP3   OH2 9287   4.820   2.896   2.688
 3094TIP3    H1 9288   4.809   2.806   2.655
 3094TIP3    H2 9289   4.907   2.897   2.727
 3095TIP3   OH2 9290   2.892   0.359   3.140
 3095TIP3    H1 9291   2.883   0.432   3.079
 3095TIP3    H2 9292   2.804   0.347   3.176
 3096TIP3   OH2 9293   4.090   4.777   3.000
 3096TIP3    H1 9294   4.117   4.733   3.081
 3096TIP3    H2 9295   4.106   4.713   2.931
 3097TIP3   OH2 9296   5.005   0.412   0.970
 3097TIP3    H1 9297   5.092   0.396   1.007
 3097TIP3    H2 9298   5.003   0.506   0.954
 3098TIP3   OH2 9299   3.141   4.045   0.021
 3098TIP3    H1 9300   3.144   4.140   0.014
 3098TIP3    H2 9301   3.078   4.027   0.091
 3099TIP3   OH2 9302   5.672   3.735   5.132
 3099TIP3    H1 9303   5.657   3.829   5.143
 3099TIP3    H2 9304   5.767   3.727   5.122
 3100TIP3   OH2 9305   5.454   4.174   0.136
 3100TIP3    H1 9306   5.395   4.142   0.068
 3100TIP3    H2 9307   5.483   4.259   0.105
 3101TIP3   OH2 9308   1.908   2.802   2.106
 3101TIP3    H1 9309   1.967   2.747   2.054
 3101TIP3    H2 9310   1.845   2.836   2.042
 3102TIP3   OH2 9311   3.198   4.481   3.291
 3102TIP3    H1 9312   3.173   4.536   3.366
 3102TIP3    H2 9313   3.122   4.424   3.277
 3103TIP3   OH2 9314   1.337   2.213   2.838
 3103TIP3    H1 9315   1.406   2.276   2.857
 3103TIP3    H2 9316   1.316   2.227   2.746
 3104TIP3   OH2 9317   4.221   5.928   2.283
 3104TIP3    H1 9318   4.199   5.843   2.244
 3104TIP3    H2 9319   4.237   5.909   2.375
 3105TIP3   OH2 9320   4.208   2.098   1.714
 3105TIP3    H1 9321   4.165   2.033   1.769
 3105TIP3    H2 9322   4.154   2.177   1.723
 3106TIP3   OH2 9323   2.332   1.796   2.608
 3106TIP3    H1 9324   2.319   1.891   2.613
 3106TIP3    H2 9325   2.412   1.786   2.556
 3107TIP3   OH2 9326   0.492   0.899   4.144
 3107TIP3    H1 9327   0.526   0.814   4.173
 3107TIP3    H2 9328   0.485   0.891   4.049
 3108TIP3   OH2 9329   2.894   5.675   0.394
 3108TIP3    H1 9330   2.888   5.728   0.474
 3108TIP3    H2 9331   2.827   5.607   0.405
 3109TIP3   OH2 9332   6.293   4.022   1.661
 3109TIP3    H1 9333   6.361   3.976   1.710
 3109TIP3    H2 9334   6.251   4.079   1.725
 3110TIP3   OH2 9335   1.997   5.467   4.339
 3110TIP3    H1 9336   1.967   5.484   4.250
 3110TIP3    H2 9337   1.970   5.377   4.356
 3111TIP3   OH2 9338   4.547   5.640   2.792
 3111TIP3    H1 9339   4.612   5.710   2.781
 3111TIP3    H2 9340   4.507   5.632   2.705
 3112TIP3   OH2 9341   1.873   4.268   1.448
 3112TIP3    H1 9342   1.898   4.228   1.365
 3112TIP3    H2 9343   1.878   4.197   1.512
 3113TIP3   OH2 9344   1.128   2.390   1.770
 3113TIP3    H1 9345   1.208   2.342   1.746
 3113TIP3    H2 9346   1.124   2.383   1.865
 3114TIP3   OH2 9347   5.748   5.094   0.859
 3114TIP3    H1 9348   5.770   5.035   0.932
 3114TIP3    H2 9349   5.828   5.145   0.844
 3115TIP3   OH2 9350   2.643   0.210   1.316
 3115TIP3    H1 9351   2.656   0.194   1.222
 3115TIP3    H2 9352   2.687   0.293   1.332
 3116TIP3   OH2 9353   6.006   1.624   0.882
 3116TIP3    H1 9354   6.047   1.674   0.953
 3116TIP3    H2 9355   6.055   1.542   0.879
 3117TIP3   OH2 9356   4.515   4.905   0.786
 3117TIP3    H1 9357   4.519   4.885   0.693
 3117TIP3    H2 9358   4.433   4.953   0.797
 3118TIP3   OH2 9359   6.368   1.088   3.529
 3118TIP3    H1 9360   6.397   1.163   3.476
 3118TIP3    H2 9361   6.368   1.014   3.468
 3119TIP3   OH2 9362   5.405   5.844   1.587
 3119TIP3    H1 9363   5.431   5.758   1.618
 3119TIP3    H2 9364   5.486   5.884   1.555
 3120TIP3   OH2 9365   4.686   4.896   1.263
 3120TIP3    H1 9366   4.676   4.913   1.169
 3120TIP3    H2 9367   4.685   4.983   1.303
 3121TIP3   OH2 9368   1.841   0.959   0.085
 3121TIP3    H1 9369   1.751   0.990   0.071
 3121TIP3    H2 9370   1.844   0.935   0.177
 3122TIP3   OH2 9371   3.091   1.134   0.701
 3122TIP3    H1 9372   3.070   1.202   0.637
 3122TIP3    H2 9373   3.061   1.052   0.660
 3123TIP3   OH2 9374   1.156   5.105   3.796
 3123TIP3    H1 9375   1.198   5.019   3.795
 3123TIP3    H2 9376   1.073   5.092   3.750
 3124TIP3   OH2 9377   2.897   2.844   1.096
 3124TIP3    H1 9378   2.947   2.917   1.062
 3124TIP3    H2 9379   2.811   2.881   1.117
 3125TIP3   OH2 9380   4.656   1.263   1.443
 3125TIP3    H1 9381   4.601   1.338   1.469
 3125TIP3    H2 9382   4.682   1.223   1.526
 3126TIP3   OH2 9383   4.147   3.697   1.802
 3126TIP3    H1 9384   4.106   3.648   1.873
 3126TIP3    H2 9385   4.073   3.732   1.752
 3127TIP3   OH2 9386   2.020   4.664   3.227
 3127TIP3    H1 9387   2.025   4.573   3.256
 3127TIP3    H2 9388   1.967   4.661   3.147
 3128TIP3   OH2 9389   4.557   3.732   3.974
 3128TIP3    H1 9390   4.510   3.815   3.963
 3128TIP3    H2 9391   4.649   3.755   3.961
 3129TIP3   OH2 9392   0.838   1.658   4.288
 3129TIP3    H1 9393   0.870   1.749   4.292
 3129TIP3    H2 9394   0.808   1.648   4.198
 3130TIP3   OH2 9395   4.861   2.292   0.266
 3130TIP3    H1 9396   4.803   2.354   0.310
 3130TIP3    H2 9397   4.810   2.259   0.192
 3131TIP3   OH2 9398   3.367   1.662   3.258
 3131TIP3    H1 9399   3.311   1.739   3.261
 3131TIP3    H2 9400   3.330   1.609   3.187
 3132TIP3   OH2 9401   4.115   4.413   3.070
 3132TIP3    H1 9402   4.086   4.486   3.125
 3132TIP3    H2 9403   4.043   4.400   3.008
 3133TIP3   OH2 9404   2.968   4.161   3.496
 3133TIP3    H1 9405   2.882   4.120   3.483
 3133TIP3    H2 9406   2.954   4.224   3.567
 3134TIP3   OH2 9407   0.028   4.881   3.702
 3134TIP3    H1 9408   0.003   4.971   3.722
 3134TIP3    H2 9409   0.076   4.852   3.779
 3135TIP3   OH2 9410   2.443   3.853   4.814
 3135TIP3    H1 9411   2.497   3.806   4.750
 3135TIP3    H2 9412   2.414   3.786   4.875
 3136TIP3   OH2 9413   2.275   4.684   2.560
 3136TIP3    H1 9414   2.308   4.761   2.514
 3136TIP3    H2 9415   2.198   4.657   2.510
 3137TIP3   OH2 9416   5.435   4.490   4.278
 3137TIP3    H1 9417   5.446   4.451   4.364
 3137TIP3    H2 9418   5.410   4.417   4.221
 3138TIP3   OH2 9419   3.082   2.740   0.902
 3138TIP3    H1 9420   3.030   2.816   0.925
 3138TIP3    H2 9421   3.096   2.748   0.807
 3139TIP3   OH2 9422   4.613   5.112   4.443
 3139TIP3    H1 9423   4.658   5.069   4.516
 3139TIP3    H2 9424   4.522   5.086   4.453
 3140TIP3   OH2 9425   4.292   0.258   3.290
 3140TIP3    H1 9426   4.368   0.309   3.261
 3140TIP3    H2 9427   4.297   0.176   3.241
 3141TIP3   OH2 9428   4.837   0.907   4.904
 3141TIP3    H1 9429   4.742   0.906   4.910
 3141TIP3    H2 9430   4.866   0.927   4.993
 3142TIP3   OH2 9431   5.793   3.547   1.928
 3142TIP3    H1 9432   5.740   3.625   1.947
 3142TIP3    H2 9433   5.873   3.559   1.979
 3143TIP3   OH2 9434   5.933   5.141   0.615
 3143TIP3    H1 9435   5.993   5.211   0.643
 3143TIP3    H2 9436   5.972   5.061   0.650
 3144TIP3   OH2 9437   4.327   5.218   4.107
 3144TIP3    H1 9438   4.242   5.181   4.128
 3144TIP3    H2 9439   4.386   5.143   4.100
 3145TIP3   OH2 9440   4.941   0.572   4.878
 3145TIP3    H1 9441   4.937   0.551   4.785
 3145TIP3    H2 9442   4.858   0.615   4.898
 3146TIP3   OH2 9443   2.134   2.030   4.344
 3146TIP3    H1 9444   2.051   2.024   4.392
 3146TIP3    H2 9445   2.200   2.004   4.409
 3147TIP3   OH2 9446   0.240   0.753   0.214
 3147TIP3    H1 9447   0.228   0.716   0.302
 3147TIP3    H2 9448   0.298   0.691   0.170
 3148TIP3   OH2 9449   1.415   2.741   3.240
 3148TIP3    H1 9450   1.359   2.773   3.169
 3148TIP3    H2 9451   1.371   2.771   3.320
 3149TIP3   OH2 9452   1.837   5.191   0.577
 3149TIP3    H1 9453   1.787   5.110   0.568
 3149TIP3    H2 9454   1.811   5.243   0.501
 3150TIP3   OH2 9455   5.233   5.724   0.626
 3150TIP3    H1 9456   5.299   5.670   0.583
 3150TIP3    H2 9457   5.251   5.813   0.596
 3151TIP3   OH2 9458   0.153   3.377   3.428
 3151TIP3    H1 9459   0.136   3.442   3.360
 3151TIP3    H2 9460   0.116   3.415   3.507
 3152TIP3   OH2 9461   2.776   2.223   0.442
 3152TIP3    H1 9462   2.720   2.146   0.451
 3152TIP3    H2 9463   2.788   2.255   0.531
 3153TIP3   OH2 9464   6.283   2.622   2.246
 3153TIP3    H1 9465   6.353   2.578   2.199
 3153TIP3    H2 9466   6.206   2.567   2.233
 3154TIP3   OH2 9467   5.497   2.638   4.039
 3154TIP3    H1 9468   5.480   2.729   4.063
 3154TIP3    H2 9469   5.583   2.639   3.997
 3155TIP3   OH2 9470   0.497   2.626   4.715
 3155TIP3    H1 9471   0.421   2.588   4.760
 3155TIP3    H2 9472   0.530   2.693   4.775
 3156TIP3   OH2 9473   0.771   1.621   1.660
 3156TIP3    H1 9474   0.714   1.634   1.584
 3156TIP3    H2 9475   0.724   1.662   1.732
 3157TIP3   OH2 9476   3.886   0.415   1.503
 3157TIP3    H1 9477   3.834   0.495   1.498
 3157TIP3    H2 9478   3.972   0.439   1.467
 3158TIP3   OH2 9479   1.194   3.890   0.259
 3158TIP3    H1 9480   1.173   3.849   0.343
 3158TIP3    H2 9481   1.141   3.841   0.196
 3159TIP3   OH2 9482   4.152   5.741   3.991
 3159TIP3    H1 9483   4.059   5.739   4.014
 3159TIP3    H2 9484   4.158   5.808   3.923
 3160TIP3   OH2 9485   6.000   4.548   0.460
 3160TIP3    H1 9486   6.085   4.528   0.421
 3160TIP3    H2 9487   5.939   4.488   0.417
 3161TIP3   OH2 9488   2.138   4.172   0.258
 3161TIP3    H1 9489   2.142   4.094   0.314
 3161TIP3    H2 9490   2.149   4.138   0.169
 3162TIP3   OH2 9491   2.015   0.866   3.765
 3162TIP3    H1 9492   2.048   0.777   3.756
 3162TIP3    H2 9493   2.086   0.914   3.807
 3163TIP3   OH2 9494   1.278   5.940   2.880
 3163TIP3    H1 9495   1.326   6.021   2.861
 3163TIP3    H2 9496   1.275   5.893   2.797
 3164TIP3   OH2 9497   1.184   4.309   2.664
 3164TIP3    H1 9498   1.100   4.282   2.700
 3164TIP3    H2 9499   1.210   4.383   2.719
 3165TIP3   OH2 9500   3.739   5.518   1.938
 3165TIP3    H1 9501   3.646   5.504   1.924
 3165TIP3    H2 9502   3.753   5.504   2.031
 3166TIP3   OH2 9503   5.199   3.128   0.858
 3166TIP3    H1 9504   5.179   3.072   0.782
 3166TIP3    H2 9505   5.287   3.103   0.883
 3167TIP3   OH2 9506   3.175   2.257   3.064
 3167TIP3    H1 9507   3.103   2.279   3.122
 3167TIP3    H2 9508   3.134   2.211   2.990
 3168TIP3   OH2 9509   1.314   0.061   4.943
 3168TIP3    H1 9510   1.234   0.037   4.989
 3168TIP3    H2 9511   1.312   0.010   4.862
 3169TIP3   OH2 9512   0.469   4.058   0.368
 3169TIP3    H1 9513   0.437   4.052   0.278
 3169TIP3    H2 9514   0.402   4.108   0.414
 3170TIP3   OH2 9515   2.429   2.384   3.420
 3170TIP3    H1 9516   2.516   2.388   3.460
 3170TIP3    H2 9517   2.392   2.302   3.453
 3171TIP3   OH2 9518   3.228   4.298   2.095
 3171TIP3    H1 9519   3.282   4.316   2.172
 3171TIP3    H2 9520   3.173   4.224   2.121
 3172TIP3   OH2 9521   0.716   0.000   4.444
 3172TIP3    H1 9522   0.731  -0.018   4.537
 3172TIP3    H2 9523   0.634  -0.046   4.424
 3173TIP3   OH2 9524   1.594   2.285   1.566
 3173TIP3    H1 9525   1.655   2.359   1.560
 3173TIP3    H2 9526   1.608   2.237   1.484
 3174TIP3   OH2 9527   4.660   4.760   4.768
 3174TIP3    H1 9528   4.567   4.760   4.792
 3174TIP3    H2 9529   4.678   4.851   4.741
 3175TIP3   OH2 9530   4.257   5.540   0.078
 3175TIP3    H1 9531   4.256   5.555   0.172
 3175TIP3    H2 9532   4.279   5.448   0.069
 3176TIP3   OH2 9533   4.322   0.833   3.549
 3176TIP3    H1 9534   4.331   0.749   3.594
 3176TIP3    H2 9535   4.395   0.885   3.581
 3177TIP3   OH2 9536   1.009   2.624   4.958
 3177TIP3    H1 9537   0.929   2.671   4.980
 3177TIP3    H2 9538   1.079   2.671   5.004
 3178TIP3   OH2 9539   0.013   1.641   2.064
 3178TIP3    H1 9540   0.103   1.668   2.085
 3178TIP3    H2 9541  -0.026   1.622   2.149
 3179TIP3   OH2 9542   2.075   2.379   2.898
 3179TIP3    H1 9543   2.109   2.325   2.969
 3179TIP3    H2 9544   2.152   2.420   2.859
 3180TIP3   OH2 9545   5.187   5.439   4.076
 3180TIP3    H1 9546   5.177   5.464   4.167
 3180TIP3    H2 9547   5.108   5.473   4.033
 3181TIP3   OH2 9548   4.615   2.484   0.771
 3181TIP3    H1 9549   4.599   2.464   0.679
 3181TIP3    H2 9550   4.711   2.480   0.780
 3182TIP3   OH2 9551   4.569   4.322   2.172
 3182TIP3    H1 9552   4.570   4.389   2.104
 3182TIP3    H2 9553   4.642   4.264   2.149
 3183TIP3   OH2 9554   2.865   0.860   3.589
 3183TIP3    H1 9555   2.839   0.912   3.665
 3183TIP3    H2 9556   2.887   0.925   3.522
 3184TIP3   OH2 9557   4.200   0.116   4.842
 3184TIP3    H1 9558   4.126   0.071   4.882
 3184TIP3    H2 9559   4.250   0.047   4.798
 3185TIP3   OH2 9560   3.099   2.172   1.971
 3185TIP3    H1 9561   3.165   2.221   2.019
 3185TIP3    H2 9562   3.090   2.090   2.020
 3186TIP3   OH2 9563   3.064   0.579   5.060
 3186TIP3    H1 9564   3.124   0.507   5.042
 3186TIP3    H2 9565   3.031   0.561   5.148
 3187TIP3   OH2 9566   1.044   3.697   0.098
 3187TIP3    H1 9567   1.000   3.664   0.020
 3187TIP3    H2 9568   0.983   3.680   0.170
 3188TIP3   OH2 9569   4.810   4.565   0.264
 3188TIP3    H1 9570   4.720   4.535   0.278
 3188TIP3    H2 9571   4.861   4.520   0.332
 3189TIP3   OH2 9572   5.708   0.116   1.932
 3189TIP3    H1 9573   5.688   0.209   1.918
 3189TIP3    H2 9574   5.768   0.093   1.861
 3190TIP3   OH2 9575   1.510   0.478   3.420
 3190TIP3    H1 9576   1.538   0.563   3.387
 3190TIP3    H2 9577   1.484   0.495   3.510
 3191TIP3   OH2 9578   0.428   2.818   3.349
 3191TIP3    H1 9579   0.500   2.793   3.290
 3191TIP3    H2 9580   0.412   2.740   3.402
 3192TIP3   OH2 9581   0.797   1.096   1.944
 3192TIP3    H1 9582   0.886   1.095   1.978
 3192TIP3    H2 9583   0.800   1.159   1.872
 3193TIP3   OH2 9584   3.632   4.591   1.640
 3193TIP3    H1 9585   3.653   4.682   1.659
 3193TIP3    H2 9586   3.591   4.592   1.554
 3194TIP3   OH2 9587   1.088   4.882   0.435
 3194TIP3    H1 9588   1.088   4.880   0.339
 3194TIP3    H2 9589   1.011   4.831   0.460
 3195TIP3   OH2 9590   1.456   5.073   2.498
 3195TIP3    H1 9591   1.537   5.117   2.525
 3195TIP3    H2 9592   1.455   4.992   2.549
 3196TIP3   OH2 9593   3.590   1.177   3.703
 3196TIP3    H1 9594   3.675   1.215   3.726
 3196TIP3    H2 9595   3.533   1.253   3.691
 3197TIP3   OH2 9596   1.484   3.863   3.570
 3197TIP3    H1 9597   1.514   3.774   3.589
 3197TIP3    H2 9598   1.508   3.914   3.648
 3198TIP3   OH2 9599   3.734   5.336   0.197
 3198TIP3    H1 9600   3.764   5.247   0.218
 3198TIP3    H2 9601   3.687   5.327   0.114
 3199TIP3   OH2 9602   0.193   3.156   0.198
 3199TIP3    H1 9603   0.117   3.099   0.206
 3199TIP3    H2 9604   0.183   3.199   0.113
 3200TIP3   OH2 9605   0.592   5.145   0.688
 3200TIP3    H1 9606   0.555   5.186   0.610
 3200TIP3    H2 9607   0.647   5.074   0.655
 3201TIP3   OH2 9608   5.696   5.783   0.167
 3201TIP3    H1 9609   5.751   5.705   0.174
 3201TIP3    H2 9610   5.741   5.839   0.104
 3202TIP3   OH2 9611   1.975   1.923   1.391
 3202TIP3    H1 9612   1.947   1.948   1.303
 3202TIP3    H2 9613   1.968   2.003   1.443
 3203TIP3   OH2 9614   1.968   0.348   4.104
 3203TIP3    H1 9615   2.006   0.418   4.157
 3203TIP3    H2 9616   1.892   0.318   4.154
 3204TIP3   OH2 9617   0.145   5.406   0.497
 3204TIP3    H1 9618   0.230   5.402   0.453
 3204TIP3    H2 9619   0.083   5.425   0.427
 3205TIP3   OH2 9620   3.919   4.455   3.318
 3205TIP3    H1 9621   4.003   4.434   3.360
 3205TIP3    H2 9622   3.870   4.373   3.323
 3206TIP3   OH2 9623   4.267   4.989   2.427
 3206TIP3    H1 9624   4.228   5.064   2.381
 3206TIP3    H2 9625   4.319   4.945   2.360
 3207TIP3   OH2 9626   5.352   2.862   1.535
 3207TIP3    H1 9627   5.387   2.927   1.474
 3207TIP3    H2 9628   5.324   2.789   1.480
 3208TIP3   OH2 9629   4.614   3.370   3.736
 3208TIP3    H1 9630   4.531   3.410   3.764
 3208TIP3    H2 9631   4.669   3.371   3.814
 3209TIP3   OH2 9632   1.371   5.920   3.695
 3209TIP3    H1 9633   1.320   5.850   3.654
 3209TIP3    H2 9634   1.337   6.001   3.656
 3210TIP3   OH2 9635   1.753   3.344   1.245
 3210TIP3    H1 9636   1.809   3.272   1.274
 3210TIP3    H2 9637   1.786   3.420   1.292
 3211TIP3   OH2 9638   6.252   3.800   0.827
 3211TIP3    H1 9639   6.331   3.775   0.780
 3211TIP3    H2 9640   6.197   3.721   0.826
 3212TIP3   OH2 9641   5.741   5.316   4.140
 3212TIP3    H1 9642   5.811   5.375   4.112
 3212TIP3    H2 9643   5.786   5.249   4.192
 3213TIP3   OH2 9644   1.778   3.952   3.402
 3213TIP3    H1 9645   1.687   3.944   3.431
 3213TIP3    H2 9646   1.771   3.980   3.310
 3214TIP3   OH2 9647   4.591   5.956   4.171
 3214TIP3    H1 9648   4.627   5.908   4.246
 3214TIP3    H2 9649   4.535   5.892   4.127
 3215TIP3   OH2 9650   0.924   1.093   4.418
 3215TIP3    H1 9651   0.848   1.151   4.425
 3215TIP3    H2 9652   0.965   1.117   4.335
 3216TIP3   OH2 9653   5.147   5.361   4.849
 3216TIP3    H1 9654   5.182   5.272   4.839
 3216TIP3    H2 9655   5.188   5.394   4.929
 3217TIP3   OH2 9656   3.275   0.015   4.352
 3217TIP3    H1 9657   3.250   0.076   4.282
 3217TIP3    H2 9658   3.236   0.052   4.431
 3218TIP3   OH2 9659   3.194   4.483   4.759
 3218TIP3    H1 9660   3.196   4.388   4.768
 3218TIP3    H2 9661   3.222   4.516   4.845
 3219TIP3   OH2 9662   4.088   5.196   1.152
 3219TIP3    H1 9663   4.171   5.239   1.128
 3219TIP3    H2 9664   4.058   5.245   1.229
 3220TIP3   OH2 9665   3.260   0.166   3.177
 3220TIP3    H1 9666   3.183   0.177   3.233
 3220TIP3    H2 9667   3.238   0.090   3.122
 3221TIP3   OH2 9668   2.973   5.163   2.973
 3221TIP3    H1 9669   2.909   5.161   2.902
 3221TIP3    H2 9670   2.952   5.242   3.023
 3222TIP3   OH2 9671   0.725   1.532   4.544
 3222TIP3    H1 9672   0.736   1.622   4.515
 3222TIP3    H2 9673   0.798   1.517   4.604
 3223TIP3   OH2 9674   4.555   2.305   2.958
 3223TIP3    H1 9675   4.622   2.306   3.026
 3223TIP3    H2 9676   4.473   2.290   3.006
 3224TIP3   OH2 9677   1.032   5.281   2.026
 3224TIP3    H1 9678   0.979   5.304   1.950
 3224TIP3    H2 9679   1.057   5.190   2.012
 3225TIP3   OH2 9680   3.478   2.055   4.384
 3225TIP3    H1 9681   3.568   2.086   4.387
 3225TIP3    H2 9682   3.434   2.113   4.322
 3226TIP3   OH2 9683   4.537   1.726   1.345
 3226TIP3    H1 9684   4.452   1.770   1.342
 3226TIP3    H2 9685   4.565   1.734   1.436
 3227TIP3   OH2 9686   1.311   5.324   2.542
 3227TIP3    H1 9687   1.361   5.245   2.523
 3227TIP3    H2 9688   1.223   5.293   2.564
 3228TIP3   OH2 9689   0.750   0.690   3.820
 3228TIP3    H1 9690   0.795   0.622   3.768
 3228TIP3    H2 9691   0.682   0.642   3.867
 3229TIP3   OH2 9692   1.331   4.120   0.310
 3229TIP3    H1 9693   1.268   4.193   0.316
 3229TIP3    H2 9694   1.277   4.041   0.312
 3230TIP3   OH2 9695   2.238   1.365   1.341
 3230TIP3    H1 9696   2.202   1.347   1.428
 3230TIP3    H2 9697   2.231   1.282   1.294
 3231TIP3   OH2 9698   0.628   2.856   2.247
 3231TIP3    H1 9699   0.556   2.857   2.311
 3231TIP3    H2 9700   0.585   2.867   2.163
 3232TIP3   OH2 9701   2.969   0.144   3.282
 3232TIP3    H1 9702   2.905   0.120   3.349
 3232TIP3    H2 9703   2.921   0.201   3.222
 3233TIP3   OH2 9704   0.462   1.756   0.239
 3233TIP3    H1 9705   0.510   1.837   0.219
 3233TIP3    H2 9706   0.526   1.701   0.283
 3234TIP3   OH2 9707   0.693   2.708   0.739
 3234TIP3    H1 9708   0.732   2.794   0.754
 3234TIP3    H2 9709   0.730   2.679   0.656
 3235TIP3   OH2 9710   4.054   5.178   2.044
 3235TIP3    H1 9711   4.023   5.255   1.995
 3235TIP3    H2 9712   4.112   5.214   2.111
 3236TIP3   OH2 9713   2.403   4.400   2.389
 3236TIP3    H1 9714   2.341   4.369   2.455
 3236TIP3    H2 9715   2.351   4.454   2.331
 3237TIP3   OH2 9716   6.175   5.335   2.726
 3237TIP3    H1 9717   6.196   5.385   2.647
 3237TIP3    H2 9718   6.151   5.248   2.695
 3238TIP3   OH2 9719   5.772  -0.010   3.607
 3238TIP3    H1 9720   5.858   0.030   3.622
 3238TIP3    H2 9721   5.732   0.045   3.539
 3239TIP3   OH2 9722   3.145   1.231   4.364
 3239TIP3    H1 9723   3.191   1.158   4.322
 3239TIP3    H2 9724   3.082   1.260   4.299
 3240TIP3   OH2 9725   3.407   2.652   1.565
 3240TIP3    H1 9726   3.455   2.576   1.595
 3240TIP3    H2 9727   3.325   2.650   1.614
 3241TIP3   OH2 9728   5.035   3.389   3.680
 3241TIP3    H1 9729   5.013   3.412   3.771
 3241TIP3    H2 9730   4.963   3.332   3.652
 3242TIP3   OH2 9731   0.524   5.993   2.519
 3242TIP3    H1 9732   0.583   6.060   2.484
 3242TIP3    H2 9733   0.580   5.915   2.529
 3243TIP3   OH2 9734   0.068   2.703   3.664
 3243TIP3    H1 9735   0.059   2.649   3.585
 3243TIP3    H2 9736   0.064   2.793   3.632
 3244TIP3   OH2 9737   2.422   3.358   0.995
 3244TIP3    H1 9738   2.451   3.309   1.072
 3244TIP3    H2 9739   2.425   3.450   1.023
 3245TIP3   OH2 9740   0.495   3.658   0.866
 3245TIP3    H1 9741   0.416   3.663   0.814
 3245TIP3    H2 9742   0.485   3.577   0.917
 3246TIP3   OH2 9743   5.211   2.885   3.237
 3246TIP3    H1 9744   5.176   2.969   3.265
 3246TIP3    H2 9745   5.159   2.820   3.285
 3247TIP3   OH2 9746   2.169   5.823   1.051
 3247TIP3    H1 9747   2.208   5.802   1.136
 3247TIP3    H2 9748   2.235   5.878   1.007
 3248TIP3   OH2 9749   2.459   0.474   1.385
 3248TIP3    H1 9750   2.432   0.387   1.354
 3248TIP3    H2 9751   2.394   0.534   1.348
 3249TIP3   OH2 9752   1.991   3.681   1.659
 3249TIP3    H1 9753   1.997   3.616   1.729
 3249TIP3    H2 9754   1.902   3.714   1.664
 3250TIP3   OH2 9755   3.710   1.897   0.287
 3250TIP3    H1 9756   3.697   1.841   0.364
 3250TIP3    H2 9757   3.787   1.861   0.244
 3251TIP3   OH2 9758   4.482   4.031   3.159
 3251TIP3    H1 9759   4.509   4.054   3.248
 3251TIP3    H2 9760   4.403   4.084   3.144
 3252TIP3   OH2 9761   6.015   0.424   1.039
 3252TIP3    H1 9762   5.952   0.468   0.981
 3252TIP3    H2 9763   6.100   0.456   1.010
 3253TIP3   OH2 9764   2.624   3.708   0.900
 3253TIP3    H1 9765   2.648   3.773   0.967
 3253TIP3    H2 9766   2.706   3.662   0.881
 3254TIP3   OH2 9767   0.529   1.246   4.630
 3254TIP3    H1 9768   0.503   1.189   4.558
 3254TIP3    H2 9769   0.477   1.216   4.704
 3255TIP3   OH2 9770   5.433   2.025   1.773
 3255TIP3    H1 9771   5.410   2.073   1.694
 3255TIP3    H2 9772   5.388   1.941   1.765
 3256TIP3   OH2 9773   2.776   4.865   3.121
 3256TIP3    H1 9774   2.801   4.904   3.205
 3256TIP3    H2 9775   2.704   4.806   3.142
 3257TIP3   OH2 9776   4.938   3.828   3.738
 3257TIP3    H1 9777   4.890   3.828   3.821
 3257TIP3    H2 9778   4.906   3.751   3.692
 3258TIP3   OH2 9779   2.074   1.972   0.753
 3258TIP3    H1 9780   2.028   1.920   0.687
 3258TIP3    H2 9781   2.076   1.916   0.831
 3259TIP3   OH2 9782   1.417   4.041   3.790
 3259TIP3    H1 9783   1.371   4.082   3.864
 3259TIP3    H2 9784   1.421   4.110   3.724
 3260TIP3   OH2 9785   4.638   0.509   1.821
 3260TIP3    H1 9786   4.597   0.459   1.750
 3260TIP3    H2 9787   4.565   0.549   1.868
 3261TIP3   OH2 9788   2.248   2.907   4.525
 3261TIP3    H1 9789   2.252   2.813   4.546
 3261TIP3    H2 9790   2.273   2.911   4.433
 3262TIP3   OH2 9791   2.102   3.279   0.130
 3262TIP3    H1 9792   2.088   3.341   0.058
 3262TIP3    H2 9793   2.079   3.328   0.208
 3263TIP3   OH2 9794   0.597   0.302   2.016
 3263TIP3    H1 9795   0.510   0.285   1.980
 3263TIP3    H2 9796   0.603   0.397   2.020
 3264TIP3   OH2 9797   3.182   1.781   2.774
 3264TIP3    H1 9798   3.190   1.718   2.702
 3264TIP3    H2 9799   3.090   1.778   2.799
 3265TIP3   OH2 9800   0.714   2.156   3.942
 3265TIP3    H1 9801   0.733   2.138   3.850
 3265TIP3    H2 9802   0.731   2.074   3.987
 3266TIP3   OH2 9803   1.532   3.693   4.868
 3266TIP3    H1 9804   1.495   3.605   4.864
 3266TIP3    H2 9805   1.567   3.708   4.780
 3267TIP3   OH2 9806   1.528   5.015   0.376
 3267TIP3    H1 9807   1.582   4.994   0.452
 3267TIP3    H2 9808   1.506   5.107   0.386
 3268TIP3   OH2 9809   4.235   2.753   2.368
 3268TIP3    H1 9810   4.207   2.704   2.445
 3268TIP3    H2 9811   4.185   2.834   2.372
 3269TIP3   OH2 9812   1.819   2.075   2.611
 3269TIP3    H1 9813   1.744   2.130   2.634
 3269TIP3    H2 9814   1.780   1.998   2.569
 3270TIP3   OH2 9815   1.658   1.096   0.789
 3270TIP3    H1 9816   1.673   1.116   0.696
 3270TIP3    H2 9817   1.581   1.146   0.813
 3271TIP3   OH2 9818   5.600   3.240   1.142
 3271TIP3    H1 9819   5.568   3.160   1.184
 3271TIP3    H2 9820   5.574   3.231   1.051
 3272TIP3   OH2 9821   2.010   4.052   4.287
 3272TIP3    H1 9822   2.031   3.986   4.221
 3272TIP3    H2 9823   1.915   4.062   4.280
 3273TIP3   OH2 9824   0.512   3.390   0.977
 3273TIP3    H1 9825   0.445   3.426   1.035
 3273TIP3    H2 9826   0.543   3.312   1.021
 3274TIP3   OH2 9827   0.913   1.220   2.576
 3274TIP3    H1 9828   0.863   1.281   2.521
 3274TIP3    H2 9829   0.940   1.273   2.651
 3275TIP3   OH2 9830   1.823   3.975   2.570
 3275TIP3    H1 9831   1.769   3.985   2.648
 3275TIP3    H2 9832   1.885   4.048   2.574
 3276TIP3   OH2 9833   1.941   0.011   0.638
 3276TIP3    H1 9834   2.020   0.064   0.647
 3276TIP3    H2 9835   1.870   0.075   0.632
 3277TIP3   OH2 9836   4.301   0.989   1.670
 3277TIP3    H1 9837   4.260   1.000   1.584
 3277TIP3    H2 9838   4.325   0.896   1.674
 3278TIP3   OH2 9839   4.850   5.199   0.238
 3278TIP3    H1 9840   4.934   5.186   0.194
 3278TIP3    H2 9841   4.851   5.138   0.311
 3279TIP3   OH2 9842   4.804   3.249   3.123
 3279TIP3    H1 9843   4.812   3.344   3.135
 3279TIP3    H2 9844   4.836   3.233   3.034
 3280TIP3   OH2 9845   4.292   4.286   4.621
 3280TIP3    H1 9846   4.363   4.303   4.559
 3280TIP3    H2 9847   4.228   4.355   4.604
 3281TIP3   OH2 9848   2.682   5.332   3.975
 3281TIP3    H1 9849   2.653   5.241   3.978
 3281TIP3    H2 9850   2.631   5.376   4.043
 3282TIP3   OH2 9851   2.264   0.122   3.395
 3282TIP3    H1 9852   2.259   0.063   3.319
 3282TIP3    H2 9853   2.185   0.102   3.445
 3283TIP3   OH2 9854   3.743   5.211   3.018
 3283TIP3    H1 9855   3.826   5.224   3.065
 3283TIP3    H2 9856   3.722   5.119   3.032
 3284TIP3   OH2 9857   0.754   5.843   0.750
 3284TIP3    H1 9858   0.661   5.836   0.775
 3284TIP3    H2 9859   0.799   5.785   0.811
 3285TIP3   OH2 9860   5.522   2.862   2.557
 3285TIP3    H1 9861   5.560   2.817   2.633
 3285TIP3    H2 9862   5.589   2.926   2.532
 3286TIP3   OH2 9863   5.931   5.389   2.877
 3286TIP3    H1 9864   5.896   5.461   2.825
 3286TIP3    H2 9865   6.016   5.369   2.836
 3287TIP3   OH2 9866   2.431   1.704   0.539
 3287TIP3    H1 9867   2.474   1.723   0.622
 3287TIP3    H2 9868   2.337   1.702   0.560
 3288TIP3   OH2 9869   2.238   1.572   2.473
 3288TIP3    H1 9870   2.159   1.524   2.496
 3288TIP3    H2 9871   2.249   1.635   2.544
 3289TIP3   OH2 9872   0.501   3.971   2.799
 3289TIP3    H1 9873   0.562   4.041   2.773
 3289TIP3    H2 9874   0.555   3.892   2.801
 3290TIP3   OH2 9875   3.056   3.409   0.828
 3290TIP3    H1 9876   2.995   3.426   0.757
 3290TIP3    H2 9877   3.006   3.358   0.892
 3291TIP3   OH2 9878   1.009   3.280   4.655
 3291TIP3    H1 9879   1.058   3.361   4.639
 3291TIP3    H2 9880   0.918   3.304   4.638
 3292TIP3   OH2 9881   6.026   5.434   4.392
 3292TIP3    H1 9882   5.972   5.511   4.377
 3292TIP3    H2 9883   6.109   5.453   4.347
 3293TIP3   OH2 9884   5.634   4.763   3.298
 3293TIP3    H1 9885   5.682   4.838   3.334
 3293TIP3    H2 9886   5.562   4.803   3.247
 3294TIP3   OH2 9887   5.086   0.670   4.375
 3294TIP3    H1 9888   5.037   0.720   4.310
 3294TIP3    H2 9889   5.168   0.719   4.386
 3295TIP3   OH2 9890   4.534   0.348   3.168
 3295TIP3    H1 9891   4.585   0.301   3.101
 3295TIP3    H2 9892   4.597   0.368   3.237
 3296TIP3   OH2 9893   1.680   5.367   4.077
 3296TIP3    H1 9894   1.602   5.316   4.058
 3296TIP3    H2 9895   1.726   5.372   3.993
 3297TIP3   OH2 9896   4.576   2.153   5.099
 3297TIP3    H1 9897   4.635   2.172   5.173
 3297TIP3    H2 9898   4.592   2.224   5.037
 3298TIP3   OH2 9899   3.814   1.240   4.614
 3298TIP3    H1 9900   3.881   1.178   4.585
 3298TIP3    H2 9901   3.857   1.292   4.681
 3299TIP3   OH2 9902   0.742   4.647   4.933
 3299TIP3    H1 9903   0.665   4.703   4.922
 3299TIP3    H2 9904   0.815   4.700   4.901
 3300TIP3   OH2 9905   2.203   0.909   4.203
 3300TIP3    H1 9906   2.267   0.911   4.132
 3300TIP3    H2 9907   2.127   0.957   4.169
 3301TIP3   OH2 9908   4.546   5.538   3.895
 3301TIP3    H1 9909   4.486   5.535   3.821
 3301TIP3    H2 9910   4.592   5.454   3.892
 3302TIP3   OH2 9911   0.482   0.445   4.996
 3302TIP3    H1 9912   0.534   0.365   4.995
 3302TIP3    H2 9913   0.459   0.457   5.089
 3303TIP3   OH2 9914   5.622   1.610   3.761
 3303TIP3    H1 9915   5.686   1.546   3.792
 3303TIP3    H2 9916   5.663   1.695   3.778
 3304TIP3   OH2 9917   2.824   5.078   4.571
 3304TIP3    H1 9918   2.738   5.073   4.530
 3304TIP3    H2 9919   2.830   4.999   4.625
 3305TIP3   OH2 9920   5.127   4.103   4.891
 3305TIP3    H1 9921   5.084   4.171   4.839
 3305TIP3    H2 9922   5.063   4.079   4.958
 3306TIP3   OH2 9923   0.786   0.783   5.041
 3306TIP3    H1 9924   0.728   0.744   4.975
 3306TIP3    H2 9925   0.836   0.849   4.993
 3307TIP3   OH2 9926   1.650   3.933   1.436
 3307TIP3    H1 9927   1.584   3.899   1.375
 3307TIP3    H2 9928   1.722   3.963   1.379
 3308TIP3   OH2 9929   3.515   4.028   2.497
 3308TIP3    H1 9930   3.502   3.933   2.502
 3308TIP3    H2 9931   3.551   4.052   2.582
 3309TIP3   OH2 9932   4.839   2.600   1.409
 3309TIP3    H1 9933   4.754   2.644   1.418
 3309TIP3    H2 9934   4.818   2.513   1.376
 3310TIP3   OH2 9935   5.982   1.743   0.616
 3310TIP3    H1 9936   5.937   1.812   0.664
 3310TIP3    H2 9937   5.980   1.668   0.675
 3311TIP3   OH2 9938   2.577   4.003   0.828
 3311TIP3    H1 9939   2.548   3.922   0.872
 3311TIP3    H2 9940   2.549   4.073   0.887
 3312TIP3   OH2 9941   5.077   0.848   1.380
 3312TIP3    H1 9942   5.133   0.922   1.405
 3312TIP3    H2 9943   5.134   0.793   1.326
 3313TIP3   OH2 9944   4.100   5.532   0.695
 3313TIP3    H1 9945   4.017   5.502   0.657
 3313TIP3    H2 9946   4.154   5.453   0.700
 3314TIP3   OH2 9947   5.713   0.790   1.819
 3314TIP3    H1 9948   5.667   0.725   1.873
 3314TIP3    H2 9949   5.804   0.761   1.819
 3315TIP3   OH2 9950   5.834   0.472   4.404
 3315TIP3    H1 9951   5.858   0.434   4.489
 3315TIP3    H2 9952   5.868   0.409   4.340
 3316TIP3   OH2 9953   4.098   5.646   3.615
 3316TIP3    H1 9954   4.039   5.683   3.549
 3316TIP3    H2 9955   4.046   5.644   3.696
 3317TIP3   OH2 9956   0.236   3.555   1.541
 3317TIP3    H1 9957   0.313   3.537   1.487
 3317TIP3    H2 9958   0.267   3.616   1.607
 3318TIP3   OH2 9959   2.113   1.700   4.309
 3318TIP3    H1 9960   2.124   1.609   4.336
 3318TIP3    H2 9961   2.041   1.699   4.247
 3319TIP3   OH2 9962   5.891   4.646   0.066
 3319TIP3    H1 9963   5.866   4.554   0.080
 3319TIP3    H2 9964   5.813   4.687   0.029
 3320TIP3   OH2 9965   1.888   5.581   1.680
 3320TIP3    H1 9966   1.875   5.672   1.654
 3320TIP3    H2 9967   1.836   5.571   1.760
 3321TIP3   OH2 9968   2.908   4.199   2.648
 3321TIP3    H1 9969   2.943   4.141   2.716
 3321TIP3    H2 9970   2.855   4.142   2.593
 3322TIP3   OH2 9971   0.666   1.176   0.509
 3322TIP3    H1 9972   0.673   1.173   0.413
 3322TIP3    H2 9973   0.674   1.269   0.530
 3323TIP3   OH2 9974   2.537   2.621   3.103
 3323TIP3    H1 9975   2.557   2.544   3.049
 3323TIP3    H2 9976   2.589   2.691   3.064
 3324TIP3   OH2 9977   2.593   0.304   4.494
 3324TIP3    H1 9978   2.644   0.367   4.545
 3324TIP3    H2 9979   2.515   0.288   4.547
 3325TIP3   OH2 9980   4.280   3.284   4.826
 3325TIP3    H1 9981   4.371   3.257   4.828
 3325TIP3    H2 9982   4.230   3.204   4.845
 3326TIP3   OH2 9983   3.700   1.688   3.146
 3326TIP3    H1 9984   3.689   1.781   3.165
 3326TIP3    H2 9985   3.638   1.644   3.204
 3327TIP3   OH2 9986   0.657   1.797   4.545
 3327TIP3    H1 9987   0.604   1.807   4.624
 3327TIP3    H2 9988   0.740   1.840   4.567
 3328TIP3   OH2 9989   6.091   3.568   0.878
 3328TIP3    H1 9990   6.182   3.546   0.900
 3328TIP3    H2 9991   6.040   3.538   0.953
 3329TIP3   OH2 9992   2.245   3.416   2.545
 3329TIP3    H1 9993   2.297   3.338   2.529
 3329TIP3    H2 9994   2.309   3.485   2.564
 3330TIP3   OH2 9995   4.666   2.471   2.288
 3330TIP3    H1 9996   4.678   2.560   2.256
 3330TIP3    H2 9997   4.700   2.415   2.218
 3331TIP3   OH2 9998   1.916   3.692   4.365
 3331TIP3    H1 9999   1.829   3.730   4.352
 3331TIP3    H210000   1.948   3.732   4.446
 3332TIP3   OH210001   2.673   0.213   1.046
 3332TIP3    H110002   2.657   0.285   0.985
 3332TIP3    H210003   2.604   0.150   1.027
 3333TIP3   OH210004   1.395   4.242   2.052
 3333TIP3    H110005   1.436   4.320   2.089
 3333TIP3    H210006   1.417   4.172   2.114
 3334TIP3   OH210007   2.452   3.655   2.250
 3334TIP3    H110008   2.446   3.735   2.197
 3334TIP3    H210009   2.377   3.602   2.222
 3335TIP3   OH210010   4.408   2.176   1.140
 3335TIP3    H110011   4.325   2.131   1.126
 3335TIP3    H210012   4.474   2.107   1.142
 3336TIP3   OH210013   4.496   4.137   0.661
 3336TIP3    H110014   4.453   4.096   0.587
 3336TIP3    H210015   4.563   4.074   0.689
 3337TIP3   OH210016   4.915   3.256   2.336
 3337TIP3    H110017   4.830   3.243   2.293
 3337TIP3    H210018   4.950   3.168   2.348
 3338TIP3   OH210019   2.798   2.825   2.564
 3338TIP3    H110020   2.763   2.735   2.567
 3338TIP3    H210021   2.728   2.879   2.600
 3339TIP3   OH210022   6.348   1.046   2.111
 3339TIP3    H110023   6.280   0.996   2.066
 3339TIP3    H210024   6.372   1.116   2.050
 3340TIP3   OH210025   4.798   5.837   1.812
 3340TIP3    H110026   4.845   5.782   1.749
 3340TIP3    H210027   4.790   5.922   1.767
 3341TIP3   OH210028   5.393   4.929   0.618
 3341TIP3    H110029   5.340   4.944   0.540
 3341TIP3    H210030   5.338   4.957   0.691
 3342TIP3   OH210031   6.255   5.423   2.468
 3342TIP3    H110032   6.199   5.498   2.445
 3342TIP3    H210033   6.340   5.444   2.427
 3343TIP3   OH210034   5.535   1.113   4.960
 3343TIP3    H110035   5.624   1.102   4.996
 3343TIP3    H210036   5.477   1.089   5.032
 3344TIP3   OH210037   4.137   4.113   1.553
 3344TIP3    H110038   4.076   4.178   1.587
 3344TIP3    H210039   4.212   4.117   1.612
 3345TIP3   OH210040   3.186   0.767   3.055
 3345TIP3    H110041   3.266   0.817   3.038
 3345TIP3    H210042   3.188   0.697   2.991
 3346TIP3   OH210043   4.451   1.946   4.914
 3346TIP3    H110044   4.418   2.030   4.880
 3346TIP3    H210045   4.508   1.971   4.987
 3347TIP3   OH210046   3.212   0.683   1.901
 3347TIP3    H110047   3.136   0.687   1.958
 3347TIP3    H210048   3.273   0.624   1.945
 3348TIP3   OH210049   4.053   4.549   1.013
 3348TIP3    H110050   4.110   4.620   0.985
 3348TIP3    H210051   4.095   4.470   0.980
 3349TIP3   OH210052   2.812   4.572   1.402
 3349TIP3    H110053   2.885   4.628   1.429
 3349TIP3    H210054   2.746   4.633   1.369
 3350TIP3   OH210055   5.078   0.139   1.197
 3350TIP3    H110056   5.098   0.055   1.156
 3350TIP3    H210057   4.998   0.123   1.247
 3351TIP3   OH210058   5.961   0.391   4.624
 3351TIP3    H110059   6.018   0.335   4.678
 3351TIP3    H210060   5.916   0.448   4.686
 3352TIP3   OH210061   4.965   5.926   1.155
 3352TIP3    H110062   5.023   5.947   1.082
 3352TIP3    H210063   4.937   6.012   1.189
 3353TIP3   OH210064   1.206   1.041   3.707
 3353TIP3    H110065   1.200   1.036   3.612
 3353TIP3    H210066   1.255   0.963   3.733
 3354TIP3   OH210067   2.240   1.843   3.903
 3354TIP3    H110068   2.262   1.872   3.991
 3354TIP3    H210069   2.208   1.753   3.914
 3355TIP3   OH210070   1.794   3.932   3.936
 3355TIP3    H110071   1.850   3.875   3.883
 3355TIP3    H210072   1.748   3.872   3.994
 3356TIP3   OH210073   4.609   2.536   2.772
 3356TIP3    H110074   4.584   2.464   2.829
 3356TIP3    H210075   4.530   2.590   2.765
 3357TIP3   OH210076   6.288   4.312   4.473
 3357TIP3    H110077   6.227   4.290   4.544
 3357TIP3    H210078   6.232   4.330   4.398
 3358TIP3   OH210079   1.445   5.841   3.278
 3358TIP3    H110080   1.524   5.814   3.231
 3358TIP3    H210081   1.433   5.774   3.345
 3359TIP3   OH210082   1.389   1.225   5.070
 3359TIP3    H110083   1.395   1.163   4.998
 3359TIP3    H210084   1.343   1.300   5.034
 3360TIP3   OH210085   0.818   3.234   3.378
 3360TIP3    H110086   0.889   3.225   3.314
 3360TIP3    H210087   0.847   3.183   3.453
 3361TIP3   OH210088   1.360   1.039   3.981
 3361TIP3    H110089   1.339   0.952   3.946
 3361TIP3    H210090   1.430   1.071   3.925
 3362TIP3   OH210091   6.072   0.574   2.100
 3362TIP3    H110092   6.153   0.529   2.077
 3362TIP3    H210093   6.018   0.507   2.142
 3363TIP3   OH210094   3.101   1.058   3.730
 3363TIP3    H110095   3.039   1.034   3.799
 3363TIP3    H210096   3.055   1.123   3.677
 3364TIP3   OH210097   0.378   2.322   1.944
 3364TIP3    H110098   0.433   2.379   1.999
 3364TIP3    H210099   0.373   2.367   1.860
 3365TIP3   OH210100   5.481   4.545   2.323
 3365TIP3    H110101   5.454   4.599   2.249
 3365TIP3    H210102   5.574   4.561   2.333
 3366TIP3   OH210103   6.269   2.898   2.164
 3366TIP3    H110104   6.265   2.804   2.181
 3366TIP3    H210105   6.183   2.930   2.189
 3367TIP3   OH210106   4.309   1.625   0.214
 3367TIP3    H110107   4.219   1.598   0.235
 3367TIP3    H210108   4.341   1.666   0.294
 3368TIP3   OH210109   1.639   0.964   3.143
 3368TIP3    H110110   1.682   1.048   3.162
 3368TIP3    H210111   1.557   0.967   3.192
 3369TIP3   OH210112   2.669   4.257   0.554
 3369TIP3    H110113   2.763   4.267   0.569
 3369TIP3    H210114   2.628   4.281   0.637
 3370TIP3   OH210115   1.180   0.959   2.381
 3370TIP3    H110116   1.186   0.907   2.461
 3370TIP3    H210117   1.270   0.963   2.349
 3371TIP3   OH210118   6.307   0.777   3.142
 3371TIP3    H110119   6.293   0.691   3.181
 3371TIP3    H210120   6.378   0.815   3.195
 3372TIP3   OH210121   4.011   4.664   1.519
 3372TIP3    H110122   4.091   4.683   1.568
 3372TIP3    H210123   4.037   4.597   1.456
 3373TIP3   OH210124   0.582   2.487   3.354
 3373TIP3    H110125   0.578   2.412   3.295
 3373TIP3    H210126   0.492   2.503   3.380
 3374TIP3   OH210127   0.933   0.885   3.664
 3374TIP3    H110128   0.851   0.836   3.672
 3374TIP3    H210129   1.000   0.817   3.663
 3375TIP3   OH210130   6.322   3.566   1.935
 3375TIP3    H110131   6.311   3.532   2.024
 3375TIP3    H210132   6.312   3.489   1.879
 3376TIP3   OH210133   1.670   2.418   2.458
 3376TIP3    H110134   1.697   2.406   2.549
 3376TIP3    H210135   1.676   2.331   2.420
 3377TIP3   OH210136   3.351   2.502   0.156
 3377TIP3    H110137   3.432   2.451   0.161
 3377TIP3    H210138   3.283   2.441   0.183
 3378TIP3   OH210139   1.295   4.555   2.821
 3378TIP3    H110140   1.301   4.647   2.849
 3378TIP3    H210141   1.379   4.538   2.779
 3379TIP3   OH210142   4.904   2.081   4.024
 3379TIP3    H110143   4.905   2.172   4.055
 3379TIP3    H210144   4.964   2.035   4.082
 3380TIP3   OH210145   6.299   1.064   3.807
 3380TIP3    H110146   6.311   1.060   3.712
 3380TIP3    H210147   6.285   1.157   3.824
 3381TIP3   OH210148   5.133   4.115   1.426
 3381TIP3    H110149   5.130   4.208   1.451
 3381TIP3    H210150   5.076   4.109   1.349
 3382TIP3   OH210151   2.128  -0.068   1.515
 3382TIP3    H110152   2.086  -0.018   1.584
 3382TIP3    H210153   2.057  -0.097   1.459
 3383TIP3   OH210154   3.249   2.739   4.321
 3383TIP3    H110155   3.289   2.817   4.284
 3383TIP3    H210156   3.164   2.770   4.355
 3384TIP3   OH210157   0.172   4.590   1.535
 3384TIP3    H110158   0.173   4.684   1.550
 3384TIP3    H210159   0.117   4.579   1.457
 3385TIP3   OH210160   5.785   4.509   1.689
 3385TIP3    H110161   5.746   4.473   1.610
 3385TIP3    H210162   5.717   4.563   1.728
 3386TIP3   OH210163   5.248   0.733   0.973
 3386TIP3    H110164   5.286   0.774   1.051
 3386TIP3    H210165   5.243   0.803   0.908
 3387TIP3   OH210166   0.903   0.581   1.802
 3387TIP3    H110167   0.856   0.645   1.854
 3387TIP3    H210168   0.984   0.625   1.776
 3388TIP3   OH210169   3.720   5.191   0.483
 3388TIP3    H110170   3.656   5.209   0.414
 3388TIP3    H210171   3.749   5.101   0.466
 3389TIP3   OH210172   6.275   3.170   0.535
 3389TIP3    H110173   6.190   3.183   0.576
 3389TIP3    H210174   6.304   3.084   0.566
 3390TIP3   OH210175   4.505   4.049   1.016
 3390TIP3    H110176   4.521   4.138   0.986
 3390TIP3    H210177   4.588   4.021   1.055
 3391TIP3   OH210178   4.836   4.947   0.412
 3391TIP3    H110179   4.781   4.885   0.460
 3391TIP3    H210180   4.855   4.903   0.329
 3392TIP3   OH210181   2.205   0.965   3.539
 3392TIP3    H110182   2.253   0.939   3.618
 3392TIP3    H210183   2.253   0.924   3.467
 3393TIP3   OH210184   5.939   4.003   1.483
 3393TIP3    H110185   5.970   4.087   1.450
 3393TIP3    H210186   5.890   4.025   1.563
 3394TIP3   OH210187   5.304   1.234   1.555
 3394TIP3    H110188   5.389   1.208   1.592
 3394TIP3    H210189   5.246   1.160   1.577
 3395TIP3   OH210190   3.925   1.980   5.048
 3395TIP3    H110191   3.920   1.901   4.994
 3395TIP3    H210192   3.869   1.962   5.123
 3396TIP3   OH210193   5.105   0.783   2.590
 3396TIP3    H110194   5.029   0.792   2.533
 3396TIP3    H210195   5.169   0.844   2.554
 3397TIP3   OH210196   3.427   3.685   1.355
 3397TIP3    H110197   3.369   3.689   1.431
 3397TIP3    H210198   3.369   3.667   1.281
 3398TIP3   OH210199   6.033   5.762   0.750
 3398TIP3    H110200   6.066   5.849   0.732
 3398TIP3    H210201   6.002   5.730   0.666
 3399TIP3   OH210202   2.191   0.379   4.792
 3399TIP3    H110203   2.269   0.420   4.828
 3399TIP3    H210204   2.186   0.294   4.836
 3400TIP3   OH210205   0.863   5.370   4.594
 3400TIP3    H110206   0.909   5.339   4.516
 3400TIP3    H210207   0.800   5.433   4.562
 3401TIP3   OH210208   5.258   0.522   2.879
 3401TIP3    H110209   5.291   0.464   2.947
 3401TIP3    H210210   5.229   0.600   2.926
 3402TIP3   OH210211   3.370   4.737   2.374
 3402TIP3    H110212   3.440   4.790   2.335
 3402TIP3    H210213   3.350   4.670   2.308
 3403TIP3   OH210214   1.657   2.549   3.858
 3403TIP3    H110215   1.684   2.589   3.940
 3403TIP3    H210216   1.736   2.546   3.805
 3404TIP3   OH210217   1.169   3.484   0.886
 3404TIP3    H110218   1.104   3.441   0.830
 3404TIP3    H210219   1.249   3.435   0.872
 3405TIP3   OH210220   6.335   0.332   1.428
 3405TIP3    H110221   6.377   0.247   1.415
 3405TIP3    H210222   6.287   0.347   1.346
 3406TIP3   OH210223   5.419   4.579   0.887
 3406TIP3    H110224   5.392   4.587   0.795
 3406TIP3    H210225   5.419   4.669   0.920
 3407TIP3   OH210226   4.474   0.066   3.479
 3407TIP3    H110227   4.512  -0.014   3.443
 3407TIP3    H210228   4.392   0.077   3.430
 3408TIP3   OH210229   2.072   3.333   1.705
 3408TIP3    H110230   2.114   3.361   1.623
 3408TIP3    H210231   2.058   3.414   1.753
 3409TIP3   OH210232   4.665   0.273   3.440
 3409TIP3    H110233   4.719   0.251   3.515
 3409TIP3    H210234   4.586   0.220   3.451
 3410TIP3   OH210235   4.036   0.693   4.717
 3410TIP3    H110236   3.962   0.750   4.694
 3410TIP3    H210237   4.051   0.641   4.638
 3411TIP3   OH210238   1.234   0.507   3.149
 3411TIP3    H110239   1.249   0.412   3.151
 3411TIP3    H210240   1.277   0.536   3.069
 3412TIP3   OH210241   5.938   2.927   1.181
 3412TIP3    H110242   5.918   3.011   1.223
 3412TIP3    H210243   5.906   2.861   1.242
 3413TIP3   OH210244   5.173   1.072   3.193
 3413TIP3    H110245   5.127   1.154   3.175
 3413TIP3    H210246   5.104   1.013   3.222
 3414TIP3   OH210247   2.693   2.806   0.557
 3414TIP3    H110248   2.734   2.734   0.509
 3414TIP3    H210249   2.733   2.885   0.519
 3415TIP3   OH210250   3.819   5.098   1.593
 3415TIP3    H110251   3.857   5.151   1.664
 3415TIP3    H210252   3.745   5.149   1.562
 3416TIP3   OH210253   0.940   1.816   1.917
 3416TIP3    H110254   0.965   1.743   1.973
 3416TIP3    H210255   0.844   1.814   1.917
 3417TIP3   OH210256   0.605   3.047   4.686
 3417TIP3    H110257   0.655   2.969   4.659
 3417TIP3    H210258   0.568   3.081   4.604
 3418TIP3   OH210259   4.361   3.050   4.990
 3418TIP3    H110260   4.388   2.960   5.011
 3418TIP3    H210261   4.406   3.070   4.908
 3419TIP3   OH210262   3.328   3.808   1.058
 3419TIP3    H110263   3.376   3.745   1.004
 3419TIP3    H210264   3.244   3.766   1.077
 3420TIP3   OH210265   5.686   2.853   1.019
 3420TIP3    H110266   5.750   2.792   1.055
 3420TIP3    H210267   5.732   2.937   1.015
 3421TIP3   OH210268   0.371   3.840   4.019
 3421TIP3    H110269   0.337   3.761   3.977
 3421TIP3    H210270   0.380   3.903   3.948
 3422TIP3   OH210271   3.887   2.155   3.700
 3422TIP3    H110272   3.911   2.184   3.787
 3422TIP3    H210273   3.946   2.081   3.683
 3423TIP3   OH210274   2.154   0.708   0.192
 3423TIP3    H110275   2.165   0.756   0.274
 3423TIP3    H210276   2.242   0.706   0.154
 3424TIP3   OH210277   0.558   4.339   1.419
 3424TIP3    H110278   0.586   4.428   1.397
 3424TIP3    H210279   0.493   4.350   1.488
 3425TIP3   OH210280   0.199   3.360   2.552
 3425TIP3    H110281   0.274   3.380   2.608
 3425TIP3    H210282   0.124   3.358   2.611
 3426TIP3   OH210283   2.917   4.741   4.356
 3426TIP3    H110284   2.927   4.836   4.357
 3426TIP3    H210285   2.982   4.708   4.418
 3427TIP3   OH210286   5.219   3.620   2.995
 3427TIP3    H110287   5.294   3.665   2.956
 3427TIP3    H210288   5.232   3.629   3.089
 3428TIP3   OH210289   4.955   0.783   2.367
 3428TIP3    H110290   5.044   0.796   2.336
 3428TIP3    H210291   4.903   0.850   2.323
 3429TIP3   OH210292   5.298   5.757   4.488
 3429TIP3    H110293   5.243   5.798   4.421
 3429TIP3    H210294   5.386   5.793   4.473
 3430TIP3   OH210295   1.976   1.522   0.755
 3430TIP3    H110296   1.965   1.460   0.828
 3430TIP3    H210297   2.054   1.491   0.709
 3431TIP3   OH210298   4.498   1.220   4.642
 3431TIP3    H110299   4.544   1.214   4.726
 3431TIP3    H210300   4.535   1.149   4.590
 3432TIP3   OH210301   6.022   1.632   1.368
 3432TIP3    H110302   6.102   1.580   1.359
 3432TIP3    H210303   6.053   1.722   1.367
 3433TIP3   OH210304   2.630   4.261   4.586
 3433TIP3    H110305   2.665   4.183   4.629
 3433TIP3    H210306   2.700   4.326   4.593
 3434TIP3   OH210307   4.638   1.600   1.139
 3434TIP3    H110308   4.636   1.649   1.221
 3434TIP3    H210309   4.552   1.556   1.136
 3435TIP3   OH210310   0.411   3.407   3.186
 3435TIP3    H110311   0.445   3.368   3.266
 3435TIP3    H210312   0.375   3.334   3.136
 3436TIP3   OH210313   0.536   1.378   1.968
 3436TIP3    H110314   0.620   1.369   1.924
 3436TIP3    H210315   0.552   1.440   2.039
 3437TIP3   OH210316   5.945   1.078   4.832
 3437TIP3    H110317   5.873   1.101   4.890
 3437TIP3    H210318   5.902   1.048   4.752
 3438TIP3   OH210319   2.291   0.393   3.457
 3438TIP3    H110320   2.212   0.418   3.504
 3438TIP3    H210321   2.277   0.301   3.433
 3439TIP3   OH210322   4.931   5.110   0.688
 3439TIP3    H110323   4.932   5.088   0.595
 3439TIP3    H210324   4.903   5.202   0.691
 3440TIP3   OH210325   6.084   3.785   0.086
 3440TIP3    H110326   6.053   3.864   0.131
 3440TIP3    H210327   6.049   3.793  -0.002
 3441TIP3   OH210328   5.574   3.247   2.501
 3441TIP3    H110329   5.610   3.186   2.437
 3441TIP3    H210330   5.621   3.226   2.582
 3442TIP3   OH210331   3.189   5.235   0.237
 3442TIP3    H110332   3.138   5.176   0.293
 3442TIP3    H210333   3.126   5.269   0.174
 3443TIP3   OH210334   2.554   2.241   1.474
 3443TIP3    H110335   2.622   2.192   1.520
 3443TIP3    H210336   2.531   2.312   1.534
 3444TIP3   OH210337   4.678   4.149   4.970
 3444TIP3    H110338   4.606   4.203   5.003
 3444TIP3    H210339   4.642   4.107   4.892
 3445TIP3   OH210340   5.740   4.094   4.206
 3445TIP3    H110341   5.831   4.123   4.197
 3445TIP3    H210342   5.720   4.053   4.122
 3446TIP3   OH210343   4.768   2.647   0.157
 3446TIP3    H110344   4.858   2.617   0.173
 3446TIP3    H210345   4.774   2.742   0.156
 3447TIP3   OH210346   2.520   2.944   2.202
 3447TIP3    H110347   2.570   2.869   2.170
 3447TIP3    H210348   2.449   2.955   2.139
 3448TIP3   OH210349   5.907   6.018   1.870
 3448TIP3    H110350   5.940   6.098   1.830
 3448TIP3    H210351   5.938   5.948   1.811
 3449TIP3   OH210352   1.885   5.068   4.788
 3449TIP3    H110353   1.821   4.998   4.779
 3449TIP3    H210354   1.850   5.140   4.735
 3450TIP3   OH210355   0.945   5.118   4.719
 3450TIP3    H110356   0.928   5.155   4.805
 3450TIP3    H210357   0.951   5.193   4.660
 3451TIP3   OH210358   6.041   2.772   1.816
 3451TIP3    H110359   5.984   2.807   1.884
 3451TIP3    H210360   6.129   2.801   1.840
 3452TIP3   OH210361   1.370   1.638   2.065
 3452TIP3    H110362   1.389   1.544   2.073
 3452TIP3    H210363   1.311   1.656   2.138
 3453TIP3   OH210364   2.948   0.673   1.602
 3453TIP3    H110365   2.914   0.638   1.684
 3453TIP3    H210366   2.925   0.607   1.536
 3454TIP3   OH210367   0.218   4.973   2.552
 3454TIP3    H110368   0.194   5.064   2.573
 3454TIP3    H210369   0.203   4.926   2.634
 3455TIP3   OH210370   0.661   5.598   3.979
 3455TIP3    H110371   0.698   5.668   3.926
 3455TIP3    H210372   0.731   5.532   3.983
 3456TIP3   OH210373   2.783   2.078   0.008
 3456TIP3    H110374   2.824   2.141  -0.052
 3456TIP3    H210375   2.727   2.131   0.064
 3457TIP3   OH210376   0.906   0.241   1.562
 3457TIP3    H110377   0.915   0.146   1.564
 3457TIP3    H210378   0.813   0.256   1.545
 3458TIP3   OH210379   3.170   1.126   0.065
 3458TIP3    H110380   3.226   1.050   0.049
 3458TIP3    H210381   3.199   1.190   0.000
 3459TIP3   OH210382   3.975   4.025   4.019
 3459TIP3    H110383   3.957   4.102   3.964
 3459TIP3    H210384   3.931   3.953   3.974
 3460TIP3   OH210385   2.676   5.801   4.667
 3460TIP3    H110386   2.635   5.730   4.618
 3460TIP3    H210387   2.770   5.783   4.664
 3461TIP3   OH210388   2.101   0.908   2.531
 3461TIP3    H110389   2.117   0.814   2.531
 3461TIP3    H210390   2.043   0.923   2.606
 3462TIP3   OH210391   4.494   5.249   3.654
 3462TIP3    H110392   4.442   5.251   3.574
 3462TIP3    H210393   4.432   5.263   3.725
 3463TIP3   OH210394   5.464   3.628   4.986
 3463TIP3    H110395   5.382   3.676   4.990
 3463TIP3    H210396   5.519   3.670   5.053
 3464TIP3   OH210397   1.615   4.421   4.668
 3464TIP3    H110398   1.626   4.331   4.697
 3464TIP3    H210399   1.655   4.423   4.581
 3465TIP3   OH210400   2.145   1.304   1.601
 3465TIP3    H110401   2.211   1.241   1.631
 3465TIP3    H210402   2.067   1.282   1.651
 3466TIP3   OH210403   5.583   5.974   3.919
 3466TIP3    H110404   5.514   6.006   3.978
 3466TIP3    H210405   5.540   5.908   3.865
 3467TIP3   OH210406   2.529   2.622   4.526
 3467TIP3    H110407   2.582   2.678   4.469
 3467TIP3    H210408   2.441   2.625   4.487
 3468TIP3   OH210409   5.156   0.597   1.677
 3468TIP3    H110410   5.199   0.536   1.616
 3468TIP3    H210411   5.063   0.578   1.667
 3469TIP3   OH210412   4.947   4.740   4.902
 3469TIP3    H110413   4.886   4.811   4.922
 3469TIP3    H210414   4.948   4.736   4.807
 3470TIP3   OH210415   0.984   4.601   0.301
 3470TIP3    H110416   0.986   4.635   0.212
 3470TIP3    H210417   0.893   4.616   0.329
 3471TIP3   OH210418   5.636   3.221   2.828
 3471TIP3    H110419   5.661   3.191   2.915
 3471TIP3    H210420   5.711   3.275   2.800
 3472TIP3   OH210421   4.258   4.940   3.190
 3472TIP3    H110422   4.256   4.886   3.111
 3472TIP3    H210423   4.350   4.960   3.203
 3473TIP3   OH210424   4.884   5.136   3.678
 3473TIP3    H110425   4.972   5.165   3.700
 3473TIP3    H210426   4.897   5.066   3.613
 3474TIP3   OH210427   3.646   3.165   1.118
 3474TIP3    H110428   3.617   3.254   1.140
 3474TIP3    H210429   3.664   3.168   1.024
 3475TIP3   OH210430   5.047   3.520   1.838
 3475TIP3    H110431   5.100   3.537   1.760
 3475TIP3    H210432   5.070   3.431   1.864
 3476TIP3   OH210433   5.217   1.406   3.051
 3476TIP3    H110434   5.284   1.428   3.115
 3476TIP3    H210435   5.264   1.395   2.969
 3477TIP3   OH210436   2.448   2.504   0.475
 3477TIP3    H110437   2.379   2.457   0.428
 3477TIP3    H210438   2.430   2.487   0.568
 3478TIP3   OH210439   4.113   4.874   4.815
 3478TIP3    H110440   4.119   4.897   4.908
 3478TIP3    H210441   4.086   4.782   4.815
 3479TIP3   OH210442   5.568   2.548   4.902
 3479TIP3    H110443   5.579   2.606   4.977
 3479TIP3    H210444   5.591   2.461   4.935
 3480TIP3   OH210445   5.020   2.711   4.223
 3480TIP3    H110446   5.015   2.760   4.306
 3480TIP3    H210447   5.089   2.755   4.174
 3481TIP3   OH210448   4.976   0.146   2.676
 3481TIP3    H110449   4.991   0.118   2.766
 3481TIP3    H210450   5.045   0.212   2.660
 3482TIP3   OH210451   5.627   4.653   1.141
 3482TIP3    H110452   5.553   4.599   1.170
 3482TIP3    H210453   5.701   4.593   1.137
 3483TIP3   OH210454   0.760   5.895   3.874
 3483TIP3    H110455   0.777   5.824   3.812
 3483TIP3    H210456   0.667   5.914   3.864
 3484TIP3   OH210457   0.172   1.372   3.680
 3484TIP3    H110458   0.182   1.325   3.597
 3484TIP3    H210459   0.154   1.463   3.654
 3485TIP3   OH210460   0.493   2.259   3.656
 3485TIP3    H110461   0.560   2.324   3.635
 3485TIP3    H210462   0.418   2.283   3.603
 3486TIP3   OH210463   1.583   5.151   5.112
 3486TIP3    H110464   1.521   5.221   5.131
 3486TIP3    H210465   1.585   5.145   5.017
 3487TIP3   OH210466   2.313   5.869   2.765
 3487TIP3    H110467   2.370   5.852   2.690
 3487TIP3    H210468   2.320   5.963   2.780
 3488TIP3   OH210469   2.505   0.620   1.954
 3488TIP3    H110470   2.427   0.663   1.989
 3488TIP3    H210471   2.548   0.687   1.901
 3489TIP3   OH210472   1.889   3.487   3.413
 3489TIP3    H110473   1.852   3.421   3.472
 3489TIP3    H210474   1.980   3.460   3.401
 3490TIP3   OH210475   2.021   4.843   0.952
 3490TIP3    H110476   2.058   4.789   0.882
 3490TIP3    H210477   2.023   4.932   0.916
 3491TIP3   OH210478   5.642   4.577   5.051
 3491TIP3    H110479   5.668   4.660   5.011
 3491TIP3    H210480   5.574   4.601   5.113
 3492TIP3   OH210481   2.822   0.885   0.758
 3492TIP3    H110482   2.785   0.797   0.768
 3492TIP3    H210483   2.892   0.874   0.693
 3493TIP3   OH210484   4.122   0.049   4.128
 3493TIP3    H110485   4.072  -0.033   4.122
 3493TIP3    H210486   4.093   0.088   4.211
 3494TIP3   OH210487   3.438   1.095   1.592
 3494TIP3    H110488   3.364   1.043   1.561
 3494TIP3    H210489   3.477   1.132   1.512
 3495TIP3   OH210490   3.489   3.764   2.529
 3495TIP3    H110491   3.470   3.704   2.457
 3495TIP3    H210492   3.584   3.760   2.539
 3496TIP3   OH210493   4.354   5.095   1.978
 3496TIP3    H110494   4.331   5.140   2.059
 3496TIP3    H210495   4.295   5.020   1.975
 3497TIP3   OH210496   5.150   1.448   1.895
 3497TIP3    H110497   5.127   1.491   1.813
 3497TIP3    H210498   5.174   1.520   1.954
 3498TIP3   OH210499   2.579   1.879   2.457
 3498TIP3    H110500   2.570   1.840   2.370
 3498TIP3    H210501   2.656   1.836   2.495
 3499TIP3   OH210502   2.728   3.429   1.857
 3499TIP3    H110503   2.670   3.487   1.807
 3499TIP3    H210504   2.678   3.349   1.868
 3500TIP3   OH210505   3.498   3.446   0.007
 3500TIP3    H110506   3.521   3.354   0.001
 3500TIP3    H210507   3.441   3.452   0.083
 3501TIP3   OH210508   6.109   5.312   3.578
 3501TIP3    H110509   6.085   5.272   3.662
 3501TIP3    H210510   6.031   5.361   3.552
 3502TIP3   OH210511   0.450   5.178   2.552
 3502TIP3    H110512   0.471   5.199   2.643
 3502TIP3    H210513   0.514   5.112   2.528
 3503TIP3   OH210514   3.152   5.634   2.318
 3503TIP3    H110515   3.142   5.569   2.388
 3503TIP3    H210516   3.185   5.711   2.363
 3504TIP3   OH210517   1.401   4.732   1.927
 3504TIP3    H110518   1.348   4.762   1.853
 3504TIP3    H210519   1.336   4.704   1.992
 3505TIP3   OH210520   2.120   1.959   4.637
 3505TIP3    H110521   2.098   1.985   4.727
 3505TIP3    H210522   2.185   1.890   4.648
 3506TIP3   OH210523   0.463   5.073   4.516
 3506TIP3    H110524   0.454   5.168   4.528
 3506TIP3    H210525   0.537   5.048   4.571
 3507TIP3   OH210526   4.760   2.977   0.163
 3507TIP3    H110527   4.831   3.035   0.135
 3507TIP3    H210528   4.694   3.036   0.199
 3508TIP3   OH210529   0.614   2.764   3.148
 3508TIP3    H110530   0.617   2.692   3.085
 3508TIP3    H210531   0.573   2.836   3.100
 3509TIP3   OH210532   3.800   3.810   4.361
 3509TIP3    H110533   3.810   3.807   4.456
 3509TIP3    H210534   3.798   3.718   4.334
 3510TIP3   OH210535   1.161   3.424   2.643
 3510TIP3    H110536   1.186   3.338   2.677
 3510TIP3    H210537   1.236   3.451   2.590
 3511TIP3   OH210538   2.855   2.682   5.150
 3511TIP3    H110539   2.838   2.669   5.056
 3511TIP3    H210540   2.796   2.620   5.194
 3512TIP3   OH210541   6.138   5.386   5.160
 3512TIP3    H110542   6.229   5.413   5.174
 3512TIP3    H210543   6.132   5.367   5.067
 3513TIP3   OH210544   4.775   2.253   3.382
 3513TIP3    H110545   4.697   2.243   3.436
 3513TIP3    H210546   4.753   2.210   3.299
 3514TIP3   OH210547   5.150   1.862   2.486
 3514TIP3    H110548   5.214   1.913   2.436
 3514TIP3    H210549   5.173   1.771   2.469
 3515TIP3   OH210550   5.302   3.114   3.041
 3515TIP3    H110551   5.341   3.195   3.076
 3515TIP3    H210552   5.286   3.133   2.949
 3516TIP3   OH210553   4.327   4.272   3.988
 3516TIP3    H110554   4.337   4.211   4.061
 3516TIP3    H210555   4.307   4.215   3.913
 3517TIP3   OH210556   0.371   1.006   0.238
 3517TIP3    H110557   0.353   0.913   0.248
 3517TIP3    H210558   0.389   1.036   0.327
 3518TIP3   OH210559   5.850   5.453   1.429
 3518TIP3    H110560   5.768   5.403   1.430
 3518TIP3    H210561   5.830   5.532   1.379
 3519TIP3   OH210562   1.698   4.042   3.153
 3519TIP3    H110563   1.615   4.070   3.191
 3519TIP3    H210564   1.676   4.012   3.065
 3520TIP3   OH210565   0.240   3.368   0.833
 3520TIP3    H110566   0.236   3.399   0.923
 3520TIP3    H210567   0.289   3.286   0.838
 3521TIP3   OH210568   6.013   4.679   1.214
 3521TIP3    H110569   6.060   4.604   1.177
 3521TIP3    H210570   5.942   4.640   1.265
 3522TIP3   OH210571   0.839   4.560   4.608
 3522TIP3    H110572   0.920   4.510   4.598
 3522TIP3    H210573   0.865   4.651   4.593
 3523TIP3   OH210574   3.311   0.773   2.295
 3523TIP3    H110575   3.324   0.823   2.214
 3523TIP3    H210576   3.274   0.836   2.357
 3524TIP3   OH210577   1.386   5.059   4.378
 3524TIP3    H110578   1.443   4.998   4.332
 3524TIP3    H210579   1.325   5.090   4.310
 3525TIP3   OH210580   1.088   4.372   1.587
 3525TIP3    H110581   1.026   4.299   1.580
 3525TIP3    H210582   1.035   4.450   1.573
 3526TIP3   OH210583   1.519   1.222   1.766
 3526TIP3    H110584   1.613   1.217   1.751
 3526TIP3    H210585   1.484   1.144   1.723
 3527TIP3   OH210586   1.760   4.246   2.763
 3527TIP3    H110587   1.803   4.168   2.796
 3527TIP3    H210588   1.724   4.289   2.840
 3528TIP3   OH210589   5.020   0.234   1.730
 3528TIP3    H110590   4.970   0.315   1.743
 3528TIP3    H210591   5.018   0.219   1.636
 3529TIP3   OH210592   5.381   4.011   3.916
 3529TIP3    H110593   5.470   4.045   3.906
 3529TIP3    H210594   5.352   3.996   3.826
 3530TIP3   OH210595   4.076   4.073   2.841
 3530TIP3    H110596   4.107   4.057   2.752
 3530TIP3    H210597   3.981   4.062   2.836
 3531TIP3   OH210598   4.812   5.677   3.118
 3531TIP3    H110599   4.808   5.731   3.039
 3531TIP3    H210600   4.802   5.739   3.190
 3532TIP3   OH210601   0.332   4.371   0.304
 3532TIP3    H110602   0.276   4.449   0.309
 3532TIP3    H210603   0.421   4.406   0.298
 3533TIP3   OH210604   2.544   3.263   1.714
 3533TIP3    H110605   2.585   3.315   1.645
 3533TIP3    H210606   2.553   3.172   1.685
 3534TIP3   OH210607   4.372   3.162   2.243
 3534TIP3    H110608   4.285   3.188   2.213
 3534TIP3    H210609   4.424   3.242   2.238
 3535TIP3   OH210610   5.255   1.662   0.664
 3535TIP3    H110611   5.286   1.712   0.589
 3535TIP3    H210612   5.308   1.582   0.664
 3536TIP3   OH210613   5.268   4.050   2.218
 3536TIP3    H110614   5.205   4.058   2.147
 3536TIP3    H210615   5.293   4.140   2.239
 3537TIP3   OH210616   0.984   5.389   3.693
 3537TIP3    H110617   0.969   5.374   3.786
 3537TIP3    H210618   1.070   5.430   3.688
 3538TIP3   OH210619   6.007   0.892   3.638
 3538TIP3    H110620   5.949   0.963   3.610
 3538TIP3    H210621   6.031   0.915   3.728
 3539TIP3   OH210622   1.675   2.545   0.214
 3539TIP3    H110623   1.655   2.548   0.308
 3539TIP3    H210624   1.749   2.604   0.203
 3540TIP3   OH210625   0.842   3.842   2.307
 3540TIP3    H110626   0.809   3.789   2.235
 3540TIP3    H210627   0.906   3.787   2.351
 3541TIP3   OH210628   3.168   1.306   1.092
 3541TIP3    H110629   3.110   1.242   1.134
 3541TIP3    H210630   3.234   1.253   1.047
 3542TIP3   OH210631   2.958   1.653   3.433
 3542TIP3    H110632   2.901   1.639   3.358
 3542TIP3    H210633   3.006   1.571   3.442
 3543TIP3   OH210634   1.327   0.452   1.552
 3543TIP3    H110635   1.278   0.370   1.549
 3543TIP3    H210636   1.318   0.489   1.464
 3544TIP3   OH210637   4.713   3.534   3.102
 3544TIP3    H110638   4.626   3.568   3.080
 3544TIP3    H210639   4.761   3.610   3.135
 3545TIP3   OH210640   4.036   0.422   2.529
 3545TIP3    H110641   3.989   0.376   2.598
 3545TIP3    H210642   4.078   0.496   2.573
 3546TIP3   OH210643   1.135   5.643   5.158
 3546TIP3    H110644   1.090   5.692   5.090
 3546TIP3    H210645   1.091   5.558   5.161
 3547TIP3   OH210646   0.873   0.248   0.415
 3547TIP3    H110647   0.838   0.309   0.479
 3547TIP3    H210648   0.803   0.183   0.403
 3548TIP3   OH210649   1.376   4.793   0.236
 3548TIP3    H110650   1.421   4.864   0.283
 3548TIP3    H210651   1.308   4.837   0.185
 3549TIP3   OH210652   2.471   5.474   1.319
 3549TIP3    H110653   2.412   5.503   1.250
 3549TIP3    H210654   2.454   5.381   1.329
 3550TIP3   OH210655   0.190   3.950   1.301
 3550TIP3    H110656   0.241   3.944   1.382
 3550TIP3    H210657   0.164   4.042   1.296
 3551TIP3   OH210658   0.013   4.848   0.341
 3551TIP3    H110659  -0.071   4.803   0.344
 3551TIP3    H210660   0.032   4.870   0.432
 3552TIP3   OH210661   2.614   4.667   0.004
 3552TIP3    H110662   2.697   4.620  -0.002
 3552TIP3    H210663   2.551   4.602   0.032
 3553TIP3   OH210664   2.070   2.157   2.330
 3553TIP3    H110665   2.043   2.126   2.416
 3553TIP3    H210666   2.164   2.172   2.337
 3554TIP3   OH210667   6.289   4.084   0.872
 3554TIP3    H110668   6.291   4.120   0.960
 3554TIP3    H210669   6.278   3.989   0.885
 3555TIP3   OH210670   0.961   2.316   2.000
 3555TIP3    H110671   0.874   2.344   1.971
 3555TIP3    H210672   0.951   2.222   2.018
 3556TIP3   OH210673   1.378   2.410   4.659
 3556TIP3    H110674   1.287   2.386   4.674
 3556TIP3    H210675   1.386   2.419   4.564
 3557TIP3   OH210676   4.057   4.893   0.640
 3557TIP3    H110677   3.973   4.930   0.668
 3557TIP3    H210678   4.082   4.943   0.563
 3558TIP3   OH210679   4.913   1.010   3.489
 3558TIP3    H110680   4.929   1.004   3.395
 3558TIP3    H210681   4.884   0.922   3.514
 3559TIP3   OH210682   0.739  -0.009   4.711
 3559TIP3    H110683   0.832   0.004   4.730
 3559TIP3    H210684   0.704   0.080   4.701
 3560TIP3   OH210685   0.544   2.986   0.909
 3560TIP3    H110686   0.576   2.896   0.901
 3560TIP3    H210687   0.563   3.026   0.824
 3561TIP3   OH210688   3.024   4.211   4.585
 3561TIP3    H110689   3.092   4.201   4.651
 3561TIP3    H210690   3.060   4.168   4.507
 3562TIP3   OH210691   0.052   3.287   4.103
 3562TIP3    H110692   0.012   3.202   4.124
 3562TIP3    H210693   0.001   3.320   4.029
 3563TIP3   OH210694   6.248   0.611   1.470
 3563TIP3    H110695   6.313   0.546   1.497
 3563TIP3    H210696   6.282   0.645   1.387
 3564TIP3   OH210697   2.817   2.898   1.623
 3564TIP3    H110698   2.871   2.843   1.680
 3564TIP3    H210699   2.880   2.952   1.575
 3565TIP3   OH210700   0.427   4.357   3.352
 3565TIP3    H110701   0.519   4.374   3.333
 3565TIP3    H210702   0.424   4.342   3.447
 3566TIP3   OH210703   1.467   1.374   1.063
 3566TIP3    H110704   1.561   1.384   1.047
 3566TIP3    H210705   1.456   1.403   1.154
 3567TIP3   OH210706   0.173   4.638   4.815
 3567TIP3    H110707   0.215   4.560   4.777
 3567TIP3    H210708   0.099   4.603   4.865
 3568TIP3   OH210709   4.644   5.566   4.267
 3568TIP3    H110710   4.561   5.548   4.311
 3568TIP3    H210711   4.699   5.490   4.287
 3569TIP3   OH210712   1.933   1.016   2.747
 3569TIP3    H110713   1.846   1.041   2.779
 3569TIP3    H210714   1.994   1.067   2.799
 3570TIP3   OH210715   0.084   5.759   0.832
 3570TIP3    H110716   0.072   5.815   0.756
 3570TIP3    H210717   0.091   5.670   0.796
 3571TIP3   OH210718   4.301   4.611   4.323
 3571TIP3    H110719   4.284   4.703   4.303
 3571TIP3    H210720   4.384   4.592   4.281
 3572TIP3   OH210721   4.235   5.424   4.541
 3572TIP3    H110722   4.271   5.392   4.623
 3572TIP3    H210723   4.150   5.379   4.532
 3573TIP3   OH210724   6.068   1.548   2.531
 3573TIP3    H110725   6.051   1.633   2.571
 3573TIP3    H210726   6.110   1.496   2.600
 3574TIP3   OH210727   1.164   1.041   4.525
 3574TIP3    H110728   1.185   1.128   4.489
 3574TIP3    H210729   1.076   1.022   4.490
 3575TIP3   OH210730   4.630   4.790   4.416
 3575TIP3    H110731   4.719   4.819   4.435
 3575TIP3    H210732   4.631   4.769   4.323
 3576TIP3   OH210733   2.408   0.475   2.285
 3576TIP3    H110734   2.493   0.504   2.250
 3576TIP3    H210735   2.428   0.391   2.326
 3577TIP3   OH210736   4.456   5.447   1.476
 3577TIP3    H110737   4.447   5.451   1.571
 3577TIP3    H210738   4.378   5.400   1.446
 3578TIP3   OH210739   5.589   1.421   2.901
 3578TIP3    H110740   5.645   1.371   2.960
 3578TIP3    H210741   5.516   1.363   2.882
 3579TIP3   OH210742   5.674   5.111   2.255
 3579TIP3    H110743   5.697   5.094   2.346
 3579TIP3    H210744   5.749   5.158   2.219
 3580TIP3   OH210745   2.849   1.122   4.881
 3580TIP3    H110746   2.935   1.131   4.922
 3580TIP3    H210747   2.816   1.211   4.874
 3581TIP3   OH210748   1.926   4.892   2.041
 3581TIP3    H110749   1.931   4.982   2.074
 3581TIP3    H210750   1.851   4.891   1.983
 3582TIP3   OH210751   4.460   2.541   4.917
 3582TIP3    H110752   4.527   2.475   4.933
 3582TIP3    H210753   4.431   2.523   4.827
 3583TIP3   OH210754   3.920   3.131   5.064
 3583TIP3    H110755   3.856   3.063   5.086
 3583TIP3    H210756   3.934   3.178   5.146
 3584TIP3   OH210757   4.148   5.879   0.105
 3584TIP3    H110758   4.141   5.799   0.156
 3584TIP3    H210759   4.096   5.863   0.026
 3585TIP3   OH210760   5.191   5.474   1.329
 3585TIP3    H110761   5.169   5.537   1.261
 3585TIP3    H210762   5.257   5.417   1.289
 3586TIP3   OH210763   4.741   2.290   4.668
 3586TIP3    H110764   4.657   2.325   4.639
 3586TIP3    H210765   4.801   2.309   4.595
 3587TIP3   OH210766   1.693   3.736   2.484
 3587TIP3    H110767   1.738   3.660   2.521
 3587TIP3    H210768   1.738   3.811   2.521
 3588TIP3   OH210769   4.835   2.538   1.088
 3588TIP3    H110770   4.867   2.508   1.003
 3588TIP3    H210771   4.752   2.492   1.101
 3589TIP3   OH210772   2.380   1.275   3.523
 3589TIP3    H110773   2.431   1.258   3.602
 3589TIP3    H210774   2.419   1.355   3.486
 3590TIP3   OH210775   3.586   0.368   3.396
 3590TIP3    H110776   3.575   0.289   3.343
 3590TIP3    H210777   3.551   0.345   3.482
 3591TIP3   OH210778   1.125   2.557   4.473
 3591TIP3    H110779   1.178   2.633   4.450
 3591TIP3    H210780   1.170   2.483   4.432
 3592TIP3   OH210781   0.116   0.586   4.105
 3592TIP3    H110782   0.104   0.549   4.193
 3592TIP3    H210783   0.058   0.662   4.102
 3593TIP3   OH210784   4.716   0.822   3.445
 3593TIP3    H110785   4.682   0.849   3.531
 3593TIP3    H210786   4.691   0.730   3.437
 3594TIP3   OH210787   2.279   5.894   0.535
 3594TIP3    H110788   2.230   5.968   0.570
 3594TIP3    H210789   2.212   5.838   0.496
 3595TIP3   OH210790   5.775   5.431   1.834
 3595TIP3    H110791   5.815   5.352   1.870
 3595TIP3    H210792   5.757   5.486   1.910
 3596TIP3   OH210793   4.994   4.555   4.575
 3596TIP3    H110794   5.070   4.592   4.620
 3596TIP3    H210795   4.995   4.595   4.488
 3597TIP3   OH210796   0.326   0.421   3.911
 3597TIP3    H110797   0.361   0.346   3.960
 3597TIP3    H210798   0.233   0.423   3.934
 3598TIP3   OH210799   5.034  -0.016   0.365
 3598TIP3    H110800   5.127  -0.016   0.389
 3598TIP3    H210801   4.990  -0.053   0.441
 3599TIP3   OH210802   4.557   1.332   3.363
 3599TIP3    H110803   4.494   1.260   3.355
 3599TIP3    H210804   4.539   1.387   3.287
 3600TIP3   OH210805   0.289   5.276   4.271
 3600TIP3    H110806   0.271   5.257   4.179
 3600TIP3    H210807   0.375   5.318   4.269
 3601TIP3   OH210808   1.094   3.436   2.156
 3601TIP3    H110809   1.164   3.497   2.180
 3601TIP3    H210810   1.055   3.410   2.239
 3602TIP3   OH210811   0.774   2.824   4.608
 3602TIP3    H110812   0.753   2.822   4.515
 3602TIP3    H210813   0.813   2.739   4.627
 3603TIP3   OH210814   3.941   5.375   1.602
 3603TIP3    H110815   3.927   5.326   1.521
 3603TIP3    H210816   3.860   5.425   1.614
 3604TIP3   OH210817   0.306   2.204   2.278
 3604TIP3    H110818   0.345   2.134   2.330
 3604TIP3    H210819   0.365   2.279   2.290
 3605TIP3   OH210820   2.031   4.129   2.491
 3605TIP3    H110821   2.102   4.065   2.492
 3605TIP3    H210822   2.074   4.214   2.489
 3606TIP3   OH210823   5.878   4.438   0.811
 3606TIP3    H110824   5.939   4.367   0.827
 3606TIP3    H210825   5.817   4.404   0.745
 3607TIP3   OH210826   3.266   4.953   1.069
 3607TIP3    H110827   3.222   4.869   1.068
 3607TIP3    H210828   3.358   4.932   1.089
 3608TIP3   OH210829   4.432   5.759   4.108
 3608TIP3    H110830   4.478   5.676   4.098
 3608TIP3    H210831   4.348   5.745   4.062
 3609TIP3   OH210832   3.230   5.512   3.203
 3609TIP3    H110833   3.168   5.575   3.167
 3609TIP3    H210834   3.281   5.483   3.128
 3610TIP3   OH210835   3.418   2.880   3.454
 3610TIP3    H110836   3.390   2.827   3.528
 3610TIP3    H210837   3.340   2.885   3.398
 3611TIP3   OH210838   2.196   4.773   1.397
 3611TIP3    H110839   2.255   4.774   1.472
 3611TIP3    H210840   2.149   4.691   1.404
 3612TIP3   OH210841   2.511   4.920   4.621
 3612TIP3    H110842   2.481   4.955   4.537
 3612TIP3    H210843   2.547   4.995   4.667
 3613TIP3   OH210844   4.948   2.208   0.600
 3613TIP3    H110845   4.920   2.158   0.524
 3613TIP3    H210846   5.041   2.225   0.585
 3614TIP3   OH210847   2.081   3.285   2.047
 3614TIP3    H110848   2.114   3.230   1.976
 3614TIP3    H210849   1.990   3.303   2.022
 3615TIP3   OH210850   5.792   3.746   2.768
 3615TIP3    H110851   5.736   3.689   2.716
 3615TIP3    H210852   5.790   3.830   2.723
 3616TIP3   OH210853   5.068   0.095   4.483
 3616TIP3    H110854   5.067   0.071   4.391
 3616TIP3    H210855   5.144   0.153   4.492
 3617TIP3   OH210856   5.994   4.892   2.544
 3617TIP3    H110857   5.982   4.812   2.596
 3617TIP3    H210858   5.906   4.929   2.536
 3618TIP3   OH210859   1.307   5.399   3.717
 3618TIP3    H110860   1.268   5.388   3.630
 3618TIP3    H210861   1.327   5.309   3.745
 3619TIP3   OH210862   5.092   5.263   2.372
 3619TIP3    H110863   5.152   5.310   2.315
 3619TIP3    H210864   5.101   5.171   2.346
 3620TIP3   OH210865   2.819   5.217   3.277
 3620TIP3    H110866   2.807   5.128   3.313
 3620TIP3    H210867   2.840   5.270   3.354
 3621TIP3   OH210868   5.714   3.382   3.739
 3621TIP3    H110869   5.640   3.320   3.739
 3621TIP3    H210870   5.673   3.468   3.739
 3622TIP3   OH210871   5.827   5.847   3.734
 3622TIP3    H110872   5.822   5.942   3.723
 3622TIP3    H210873   5.737   5.820   3.750
 3623TIP3   OH210874   3.578   0.214   2.904
 3623TIP3    H110875   3.639   0.142   2.919
 3623TIP3    H210876   3.590   0.272   2.978
 3624TIP3   OH210877   2.263   5.140   0.695
 3624TIP3    H110878   2.217   5.116   0.776
 3624TIP3    H210879   2.279   5.056   0.651
 3625TIP3   OH210880   3.877   3.607   3.184
 3625TIP3    H110881   3.852   3.614   3.277
 3625TIP3    H210882   3.908   3.694   3.161
 3626TIP3   OH210883   3.677   2.318   2.874
 3626TIP3    H110884   3.765   2.303   2.839
 3626TIP3    H210885   3.658   2.409   2.850
 3627TIP3   OH210886   2.160   3.142   0.960
 3627TIP3    H110887   2.137   3.146   0.867
 3627TIP3    H210888   2.192   3.053   0.973
 3628TIP3   OH210889   1.387   1.698   1.205
 3628TIP3    H110890   1.299   1.683   1.238
 3628TIP3    H210891   1.375   1.732   1.117
 3629TIP3   OH210892   3.032   5.724   1.634
 3629TIP3    H110893   2.971   5.692   1.700
 3629TIP3    H210894   3.077   5.797   1.677
 3630TIP3   OH210895   3.568   4.100   2.108
 3630TIP3    H110896   3.655   4.080   2.073
 3630TIP3    H210897   3.538   4.175   2.058
 3631TIP3   OH210898   4.686   0.648   4.817
 3631TIP3    H110899   4.640   0.727   4.845
 3631TIP3    H210900   4.619   0.598   4.769
 3632TIP3   OH210901   3.534   2.970   2.907
 3632TIP3    H110902   3.595   2.903   2.938
 3632TIP3    H210903   3.546   3.043   2.968
 3633TIP3   OH210904   1.359   0.130   2.820
 3633TIP3    H110905   1.419   0.117   2.894
 3633TIP3    H210906   1.416   0.145   2.745
 3634TIP3   OH210907   5.010   0.013   2.917
 3634TIP3    H110908   5.101   0.013   2.946
 3634TIP3    H210909   4.959   0.006   2.997
 3635TIP3   OH210910   4.132   2.392   3.215
 3635TIP3    H110911   4.150   2.465   3.275
 3635TIP3    H210912   4.092   2.325   3.270
 3636TIP3   OH210913   4.127   1.881   1.407
 3636TIP3    H110914   4.110   1.803   1.461
 3636TIP3    H210915   4.221   1.895   1.416
 3637TIP3   OH210916   5.238   3.538   3.864
 3637TIP3    H110917   5.262   3.598   3.935
 3637TIP3    H210918   5.156   3.499   3.893
 3638TIP3   OH210919   0.138   1.631   3.939
 3638TIP3    H110920   0.078   1.706   3.948
 3638TIP3    H210921   0.145   1.618   3.844
 3639TIP3   OH210922   0.493   4.852   2.678
 3639TIP3    H110923   0.522   4.835   2.768
 3639TIP3    H210924   0.413   4.801   2.668
 3640TIP3   OH210925   2.384   3.651   0.778
 3640TIP3    H110926   2.469   3.672   0.816
 3640TIP3    H210927   2.327   3.722   0.808
 3641TIP3   OH210928   3.753   3.200   2.469
 3641TIP3    H110929   3.678   3.260   2.468
 3641TIP3    H210930   3.725   3.126   2.523
 3642TIP3   OH210931   5.458   2.723   3.770
 3642TIP3    H110932   5.506   2.641   3.755
 3642TIP3    H210933   5.501   2.763   3.845
 3643TIP3   OH210934   6.100   2.655   3.396
 3643TIP3    H110935   6.195   2.659   3.393
 3643TIP3    H210936   6.075   2.612   3.315
 3644TIP3   OH210937   4.489   5.609   2.245
 3644TIP3    H110938   4.534   5.526   2.230
 3644TIP3    H210939   4.449   5.630   2.161
 3645TIP3   OH210940   4.557   0.874   4.172
 3645TIP3    H110941   4.491   0.942   4.163
 3645TIP3    H210942   4.509   0.798   4.204
 3646TIP3   OH210943   0.393   2.813   2.437
 3646TIP3    H110944   0.357   2.725   2.445
 3646TIP3    H210945   0.325   2.863   2.392
 3647TIP3   OH210946   2.692   4.411   2.737
 3647TIP3    H110947   2.761   4.350   2.710
 3647TIP3    H210948   2.649   4.437   2.656
 3648TIP3   OH210949   1.804   4.566   2.093
 3648TIP3    H110950   1.856   4.646   2.085
 3648TIP3    H210951   1.858   4.506   2.144
 3649TIP3   OH210952   5.560   1.139   3.072
 3649TIP3    H110953   5.485   1.108   3.021
 3649TIP3    H210954   5.523   1.164   3.156
 3650TIP3   OH210955   1.173   1.352   4.919
 3650TIP3    H110956   1.190   1.276   4.865
 3650TIP3    H210957   1.217   1.424   4.874
 3651TIP3   OH210958   3.915   4.499   1.989
 3651TIP3    H110959   3.955   4.484   2.075
 3651TIP3    H210960   3.869   4.418   1.970
 3652TIP3   OH210961   2.014   5.490   2.219
 3652TIP3    H110962   2.007   5.523   2.309
 3652TIP3    H210963   1.923   5.471   2.194
 3653TIP3   OH210964   2.552   4.080   4.913
 3653TIP3    H110965   2.646   4.081   4.930
 3653TIP3    H210966   2.534   3.990   4.885
 3654TIP3   OH210967   0.872   5.581   2.932
 3654TIP3    H110968   0.884   5.486   2.942
 3654TIP3    H210969   0.925   5.619   3.002
 3655TIP3   OH210970   0.719   3.390   2.656
 3655TIP3    H110971   0.794   3.357   2.608
 3655TIP3    H210972   0.754   3.463   2.708
 3656TIP3   OH210973   1.561   2.029   4.874
 3656TIP3    H110974   1.503   2.105   4.867
 3656TIP3    H210975   1.648   2.067   4.890
 3657TIP3   OH210976   2.194   5.779   2.489
 3657TIP3    H110977   2.215   5.834   2.564
 3657TIP3    H210978   2.164   5.840   2.422
 3658TIP3   OH210979   1.059   0.500   0.874
 3658TIP3    H110980   1.014   0.581   0.848
 3658TIP3    H210981   0.990   0.447   0.914
 3659TIP3   OH210982   2.785   1.526   4.613
 3659TIP3    H110983   2.821   1.484   4.535
 3659TIP3    H210984   2.699   1.557   4.585
 3660TIP3   OH210985   1.823   2.259   2.874
 3660TIP3    H110986   1.909   2.290   2.905
 3660TIP3    H210987   1.774   2.340   2.858
 3661TIP3   OH210988   1.898   3.347   4.029
 3661TIP3    H110989   1.807   3.343   4.000
 3661TIP3    H210990   1.895   3.395   4.112
 3662TIP3   OH210991   3.141   4.155   3.172
 3662TIP3    H110992   3.061   4.207   3.175
 3662TIP3    H210993   3.112   4.066   3.196
 3663TIP3   OH210994   3.301   3.280   3.758
 3663TIP3    H110995   3.206   3.270   3.760
 3663TIP3    H210996   3.315   3.375   3.750
 3664TIP3   OH210997   5.246   1.365   3.917
 3664TIP3    H110998   5.234   1.385   4.010
 3664TIP3    H210999   5.192   1.429   3.872
 3665TIP3   OH211000   5.127   5.840   4.303
 3665TIP3    H111001   5.107   5.862   4.212
 3665TIP3    H211002   5.077   5.903   4.354
 3666TIP3   OH211003   5.437   5.647   1.359
 3666TIP3    H111004   5.351   5.612   1.383
 3666TIP3    H211005   5.495   5.616   1.429
 3667TIP3   OH211006   3.236   3.167   1.234
 3667TIP3    H111007   3.149   3.175   1.273
 3667TIP3    H211008   3.244   3.243   1.177
 3668TIP3   OH211009   3.679   0.643   3.706
 3668TIP3    H111010   3.714   0.732   3.701
 3668TIP3    H211011   3.679   0.612   3.615
 3669TIP3   OH211012   3.201   4.950   0.746
 3669TIP3    H111013   3.229   5.023   0.690
 3669TIP3    H211014   3.236   4.971   0.832
 3670TIP3   OH211015   2.663   0.236   3.276
 3670TIP3    H111016   2.664   0.197   3.364
 3670TIP3    H211017   2.642   0.163   3.218
 3671TIP3   OH211018   5.535   4.113   0.618
 3671TIP3    H111019   5.455   4.098   0.669
 3671TIP3    H211020   5.514   4.078   0.532
 3672TIP3   OH211021   3.207   1.365   0.314
 3672TIP3    H111022   3.197   1.443   0.259
 3672TIP3    H211023   3.250   1.301   0.258
 3673TIP3   OH211024  -0.013   4.259   3.415
 3673TIP3    H111025   0.039   4.325   3.368
 3673TIP3    H211026  -0.007   4.181   3.361
 3674TIP3   OH211027   4.603   3.726   3.247
 3674TIP3    H111028   4.542   3.766   3.186
 3674TIP3    H211029   4.550   3.705   3.324
 3675TIP3   OH211030   3.540   3.692   0.356
 3675TIP3    H111031   3.455   3.684   0.311
 3675TIP3    H211032   3.552   3.607   0.398
 3676TIP3   OH211033   0.826   0.382   1.097
 3676TIP3    H111034   0.808   0.349   1.009
 3676TIP3    H211035   0.759   0.448   1.113
 3677TIP3   OH211036   2.092   1.772   0.932
 3677TIP3    H111037   2.054   1.698   0.884
 3677TIP3    H211038   2.128   1.733   1.011
 3678TIP3   OH211039   0.724   4.992   1.306
 3678TIP3    H111040   0.690   5.076   1.274
 3678TIP3    H211041   0.772   4.956   1.232
 3679TIP3   OH211042   5.596   5.667   4.484
 3679TIP3    H111043   5.589   5.580   4.445
 3679TIP3    H211044   5.566   5.726   4.415
 3680TIP3   OH211045   5.718   0.514   0.090
 3680TIP3    H111046   5.765   0.598   0.090
 3680TIP3    H211047   5.698   0.498   0.182
 3681TIP3   OH211048   0.186   4.043   4.869
 3681TIP3    H111049   0.255   4.060   4.934
 3681TIP3    H211050   0.205   3.956   4.836
 3682TIP3   OH211051   3.704   0.455   1.762
 3682TIP3    H111052   3.698   0.505   1.681
 3682TIP3    H211053   3.795   0.466   1.790
 3683TIP3   OH211054   3.155   5.189   0.598
 3683TIP3    H111055   3.112   5.155   0.520
 3683TIP3    H211056   3.089   5.244   0.640
 3684TIP3   OH211057   0.615   3.618   0.458
 3684TIP3    H111058   0.569   3.608   0.375
 3684TIP3    H211059   0.606   3.711   0.479
 3685TIP3   OH211060   2.383   4.040   4.374
 3685TIP3    H111061   2.361   3.972   4.311
 3685TIP3    H211062   2.346   4.008   4.457
 3686TIP3   OH211063   2.185   1.076   1.358
 3686TIP3    H111064   2.096   1.061   1.390
 3686TIP3    H211065   2.231   0.995   1.378
 3687TIP3   OH211066   5.417   1.088   3.318
 3687TIP3    H111067   5.419   1.158   3.383
 3687TIP3    H211068   5.325   1.083   3.290
 3688TIP3   OH211069   4.192   1.167   4.854
 3688TIP3    H111070   4.222   1.089   4.808
 3688TIP3    H211071   4.150   1.133   4.933
 3689TIP3   OH211072   5.496   0.732   4.565
 3689TIP3    H111073   5.473   0.755   4.655
 3689TIP3    H211074   5.424   0.767   4.512
 3690TIP3   OH211075   2.694   3.111   4.347
 3690TIP3    H111076   2.705   3.046   4.416
 3690TIP3    H211077   2.778   3.112   4.301
 3691TIP3   OH211078   0.664   3.166   2.168
 3691TIP3    H111079   0.704   3.112   2.236
 3691TIP3    H211080   0.678   3.256   2.198
 3692TIP3   OH211081   1.073   1.439   2.269
 3692TIP3    H111082   1.094   1.405   2.356
 3692TIP3    H211083   1.113   1.376   2.208
 3693TIP3   OH211084   4.363   4.151   1.710
 3693TIP3    H111085   4.392   4.061   1.730
 3693TIP3    H211086   4.431   4.206   1.750
 3694TIP3   OH211087   3.936   5.486   2.876
 3694TIP3    H111088   3.994   5.451   2.944
 3694TIP3    H211089   3.939   5.421   2.806
 3695TIP3   OH211090   6.372   4.983   1.474
 3695TIP3    H111091   6.393   4.947   1.560
 3695TIP3    H211092   6.342   5.072   1.492
 3696TIP3   OH211093   1.091   5.233   2.768
 3696TIP3    H111094   1.006   5.205   2.801
 3696TIP3    H211095   1.147   5.156   2.776
 3697TIP3   OH211096   6.075   2.617   1.288
 3697TIP3    H111097   6.169   2.602   1.299
 3697TIP3    H211098   6.036   2.529   1.290
 3698TIP3   OH211099   4.530   3.377   1.296
 3698TIP3    H111100   4.607   3.397   1.243
 3698TIP3    H211101   4.456   3.402   1.241
 3699TIP3   OH211102   1.367   4.403   1.395
 3699TIP3    H111103   1.343   4.400   1.303
 3699TIP3    H211104   1.306   4.466   1.434
 3700TIP3   OH211105   6.099   1.050   1.473
 3700TIP3    H111106   6.044   1.119   1.511
 3700TIP3    H211107   6.070   1.044   1.382
 3701TIP3   OH211108   6.333   2.825   1.337
 3701TIP3    H111109   6.340   2.731   1.354
 3701TIP3    H211110   6.406   2.864   1.384
 3702TIP3   OH211111   4.120   5.976   0.399
 3702TIP3    H111112   4.072   5.897   0.373
 3702TIP3    H211113   4.147   5.960   0.489
 3703TIP3   OH211114   4.153   3.568   2.148
 3703TIP3    H111115   4.119   3.481   2.169
 3703TIP3    H211116   4.095   3.601   2.080
 3704TIP3   OH211117   5.310   1.484   2.760
 3704TIP3    H111118   5.276   1.495   2.671
 3704TIP3    H211119   5.337   1.392   2.765
 3705TIP3   OH211120   1.449   0.543   1.088
 3705TIP3    H111121   1.401   0.556   1.170
 3705TIP3    H211122   1.402   0.471   1.045
 3706TIP3   OH211123   3.709   1.776   1.052
 3706TIP3    H111124   3.617   1.801   1.067
 3706TIP3    H211125   3.704   1.708   0.985
 3707TIP3   OH211126   0.946   2.581   1.304
 3707TIP3    H111127   0.877   2.647   1.291
 3707TIP3    H211128   0.918   2.534   1.383
 3708TIP3   OH211129   5.274   5.178   3.466
 3708TIP3    H111130   5.263   5.273   3.467
 3708TIP3    H211131   5.334   5.160   3.539
 3709TIP3   OH211132   3.437   2.675   0.840
 3709TIP3    H111133   3.413   2.640   0.926
 3709TIP3    H211134   3.519   2.631   0.818
 3710TIP3   OH211135   4.096   1.383   1.081
 3710TIP3    H111136   4.044   1.303   1.079
 3710TIP3    H211137   4.048   1.443   1.023
 3711TIP3   OH211138   5.203   0.531   2.164
 3711TIP3    H111139   5.109   0.548   2.158
 3711TIP3    H211140   5.240   0.614   2.195
 3712TIP3   OH211141   0.795   1.986   3.716
 3712TIP3    H111142   0.704   1.967   3.694
 3712TIP3    H211143   0.846   1.934   3.654
 3713TIP3   OH211144   5.871   5.497   0.412
 3713TIP3    H111145   5.824   5.482   0.493
 3713TIP3    H211146   5.813   5.463   0.344
 3714TIP3   OH211147   3.818   4.022   2.042
 3714TIP3    H111148   3.815   4.114   2.015
 3714TIP3    H211149   3.904   4.012   2.083
 3715TIP3   OH211150   6.076   5.345   1.304
 3715TIP3    H111151   6.013   5.385   1.363
 3715TIP3    H211152   6.160   5.383   1.328
 3716TIP3   OH211153   5.693   4.390   0.627
 3716TIP3    H111154   5.763   4.404   0.564
 3716TIP3    H211155   5.615   4.375   0.574
 3717TIP3   OH211156   1.026   3.962   2.535
 3717TIP3    H111157   0.937   3.932   2.554
 3717TIP3    H211158   1.019   4.003   2.449
 3718TIP3   OH211159   3.522   0.241   1.736
 3718TIP3    H111160   3.583   0.278   1.800
 3718TIP3    H211161   3.579   0.194   1.675
 3719TIP3   OH211162   1.545   4.752   0.871
 3719TIP3    H111163   1.554   4.713   0.784
 3719TIP3    H211164   1.617   4.815   0.877
 3720TIP3   OH211165   1.299   4.890   0.999
 3720TIP3    H111166   1.334   4.914   1.085
 3720TIP3    H211167   1.371   4.843   0.956
 3721TIP3   OH211168   1.289   2.735   0.212
 3721TIP3    H111169   1.219   2.783   0.168
 3721TIP3    H211170   1.367   2.753   0.160
 3722TIP3   OH211171   2.179   3.477   2.878
 3722TIP3    H111172   2.165   3.537   2.805
 3722TIP3    H211173   2.256   3.512   2.923
 3723TIP3   OH211174   5.905   1.171   2.019
 3723TIP3    H111175   5.900   1.214   1.933
 3723TIP3    H211176   5.992   1.191   2.051
 3724TIP3   OH211177   1.508   1.407   2.792
 3724TIP3    H111178   1.508   1.501   2.811
 3724TIP3    H211179   1.430   1.374   2.836
 3725TIP3   OH211180   5.872   3.935   4.730
 3725TIP3    H111181   5.856   3.841   4.742
 3725TIP3    H211182   5.804   3.978   4.782
 3726TIP3   OH211183   5.253   3.129   2.752
 3726TIP3    H111184   5.226   3.039   2.766
 3726TIP3    H211185   5.180   3.169   2.706
 3727TIP3   OH211186   0.931   2.158   4.879
 3727TIP3    H111187   0.943   2.094   4.950
 3727TIP3    H211188   0.878   2.227   4.919
 3728TIP3   OH211189   4.009   5.140   2.499
 3728TIP3    H111190   3.919   5.158   2.472
 3728TIP3    H211191   4.062   5.202   2.449
 3729TIP3   OH211192   5.890   3.442   0.533
 3729TIP3    H111193   5.857   3.445   0.443
 3729TIP3    H211194   5.980   3.476   0.526
 3730TIP3   OH211195   5.185   5.144   2.861
 3730TIP3    H111196   5.239   5.073   2.827
 3730TIP3    H211197   5.186   5.211   2.793
 3731TIP3   OH211198   5.276   3.767   4.046
 3731TIP3    H111199   5.238   3.812   4.122
 3731TIP3    H211200   5.306   3.838   3.989
 3732TIP3   OH211201   3.896   2.501   3.544
 3732TIP3    H111202   3.811   2.458   3.556
 3732TIP3    H211203   3.911   2.498   3.449
 3733TIP3   OH211204   4.531   1.913   4.264
 3733TIP3    H111205   4.441   1.930   4.233
 3733TIP3    H211206   4.582   1.904   4.184
 3734TIP3   OH211207   3.386   2.051   2.268
 3734TIP3    H111208   3.459   2.000   2.303
 3734TIP3    H211209   3.364   2.112   2.338
 3735TIP3   OH211210   0.711   1.297   4.423
 3735TIP3    H111211   0.732   1.382   4.463
 3735TIP3    H211212   0.658   1.252   4.488
 3736TIP3   OH211213   0.737   4.314   3.559
 3736TIP3    H111214   0.750   4.221   3.539
 3736TIP3    H211215   0.725   4.355   3.473
 3737TIP3   OH211216   3.566   0.865   1.378
 3737TIP3    H111217   3.485   0.825   1.407
 3737TIP3    H211218   3.581   0.937   1.438
 3738TIP3   OH211219   1.610   4.143   2.225
 3738TIP3    H111220   1.617   4.235   2.251
 3738TIP3    H211221   1.700   4.112   2.222
 3739TIP3   OH211222   1.789   1.071   1.166
 3739TIP3    H111223   1.757   0.996   1.216
 3739TIP3    H211224   1.756   1.147   1.214
 3740TIP3   OH211225   4.261   4.167   0.346
 3740TIP3    H111226   4.194   4.135   0.285
 3740TIP3    H211227   4.311   4.089   0.369
 3741TIP3   OH211228   5.253   5.458   3.501
 3741TIP3    H111229   5.264   5.489   3.591
 3741TIP3    H211230   5.188   5.518   3.464
 3742TIP3   OH211231   5.557   5.095   3.029
 3742TIP3    H111232   5.643   5.137   3.022
 3742TIP3    H211233   5.497   5.167   3.049
 3743TIP3   OH211234   0.054   5.984   3.967
 3743TIP3    H111235  -0.039   5.990   3.987
 3743TIP3    H211236   0.084   5.905   4.013
 3744TIP3   OH211237   5.340   0.995   3.002
 3744TIP3    H111238   5.316   1.032   3.087
 3744TIP3    H211239   5.269   0.935   2.981
 3745TIP3   OH211240   4.511   5.871   0.520
 3745TIP3    H111241   4.575   5.805   0.548
 3745TIP3    H211242   4.556   5.920   0.452
 3746TIP3   OH211243   0.586   3.640   3.925
 3746TIP3    H111244   0.492   3.648   3.909
 3746TIP3    H211245   0.593   3.577   3.997
 3747TIP3   OH211246   2.086   1.467   4.948
 3747TIP3    H111247   2.021   1.510   4.892
 3747TIP3    H211248   2.035   1.431   5.021
 3748TIP3   OH211249   0.179   3.480   5.025
 3748TIP3    H111250   0.256   3.490   5.081
 3748TIP3    H211251   0.136   3.401   5.057
 3749TIP3   OH211252   5.798   2.966   0.095
 3749TIP3    H111253   5.789   3.039   0.157
 3749TIP3    H211254   5.730   2.904   0.121
 3750TIP3   OH211255   5.868   5.426   5.032
 3750TIP3    H111256   5.831   5.351   4.985
 3750TIP3    H211257   5.938   5.457   4.975
 3751TIP3   OH211258   4.559   2.968   2.729
 3751TIP3    H111259   4.531   2.969   2.637
 3751TIP3    H211260   4.652   2.945   2.726
 3752TIP3   OH211261   1.030   4.363   4.013
 3752TIP3    H111262   1.038   4.458   4.022
 3752TIP3    H211263   1.108   4.337   3.964
 3753TIP3   OH211264   2.968   2.761   4.393
 3753TIP3    H111265   2.964   2.852   4.362
 3753TIP3    H211266   2.877   2.730   4.387
 3754TIP3   OH211267   0.239   5.785   1.892
 3754TIP3    H111268   0.228   5.788   1.797
 3754TIP3    H211269   0.238   5.876   1.920
 3755TIP3   OH211270   1.162   4.405   0.452
 3755TIP3    H111271   1.108   4.452   0.389
 3755TIP3    H211272   1.252   4.432   0.431
 3756TIP3   OH211273   6.122   4.300   4.255
 3756TIP3    H111274   6.077   4.217   4.238
 3756TIP3    H211275   6.175   4.315   4.176
 3757TIP3   OH211276   1.725   5.218   0.153
 3757TIP3    H111277   1.801   5.158   0.150
 3757TIP3    H211278   1.743   5.282   0.085
 3758TIP3   OH211279   4.491   2.064   2.205
 3758TIP3    H111280   4.533   2.041   2.123
 3758TIP3    H211281   4.532   2.006   2.270
 3759TIP3   OH211282   3.656   0.166   1.065
 3759TIP3    H111283   3.652   0.071   1.071
 3759TIP3    H211284   3.703   0.183   0.983
 3760TIP3   OH211285   3.462   0.304   3.633
 3760TIP3    H111286   3.384   0.257   3.605
 3760TIP3    H211287   3.428   0.382   3.677
 3761TIP3   OH211288   2.807   1.479   2.787
 3761TIP3    H111289   2.805   1.446   2.698
 3761TIP3    H211290   2.873   1.426   2.831
 3762TIP3   OH211291   6.035   3.277   0.119
 3762TIP3    H111292   6.105   3.224   0.157
 3762TIP3    H211293   6.078   3.359   0.095
 3763TIP3   OH211294   1.071   2.149   1.443
 3763TIP3    H111295   1.129   2.075   1.464
 3763TIP3    H211296   1.122   2.227   1.466
 3764TIP3   OH211297   1.305   0.842   1.366
 3764TIP3    H111298   1.287   0.826   1.458
 3764TIP3    H211299   1.225   0.883   1.332
 3765TIP3   OH211300   2.949   2.856   3.745
 3765TIP3    H111301   3.023   2.910   3.716
 3765TIP3    H211302   2.873   2.893   3.701
 3766TIP3   OH211303   3.643   3.354   3.455
 3766TIP3    H111304   3.584   3.383   3.386
 3766TIP3    H211305   3.601   3.276   3.491
 3767TIP3   OH211306   5.124   5.874  -0.004
 3767TIP3    H111307   5.048   5.823  -0.033
 3767TIP3    H211308   5.159   5.824   0.070
 3768TIP3   OH211309   0.256   1.572   4.231
 3768TIP3    H111310   0.236   1.665   4.234
 3768TIP3    H211311   0.333   1.562   4.289
 3769TIP3   OH211312   5.275   0.400   1.521
 3769TIP3    H111313   5.270   0.305   1.505
 3769TIP3    H211314   5.362   0.414   1.557
 3770TIP3   OH211315   3.842   4.265   0.440
 3770TIP3    H111316   3.838   4.271   0.536
 3770TIP3    H211317   3.764   4.214   0.416
 3771TIP3   OH211318   0.580   0.129   1.729
 3771TIP3    H111319   0.649   0.188   1.760
 3771TIP3    H211320   0.583   0.137   1.633
 3772TIP3   OH211321   5.023   3.211   1.049
 3772TIP3    H111322   4.930   3.189   1.041
 3772TIP3    H211323   5.068   3.150   0.990
 3773TIP3   OH211324   4.170   2.425   1.148
 3773TIP3    H111325   4.245   2.377   1.112
 3773TIP3    H211326   4.107   2.357   1.171
 3774TIP3   OH211327   3.611   2.454   3.612
 3774TIP3    H111328   3.543   2.481   3.551
 3774TIP3    H211329   3.603   2.358   3.616
 3775TIP3   OH211330   1.126   1.662   0.980
 3775TIP3    H111331   1.198   1.724   0.970
 3775TIP3    H211332   1.139   1.599   0.910
 3776TIP3   OH211333   4.434   5.761   3.761
 3776TIP3    H111334   4.410   5.685   3.709
 3776TIP3    H211335   4.486   5.725   3.833
 3777TIP3   OH211336   2.747   4.338   2.282
 3777TIP3    H111337   2.722   4.295   2.364
 3777TIP3    H211338   2.801   4.413   2.309
 3778TIP3   OH211339   2.048   2.184   3.800
 3778TIP3    H111340   2.096   2.260   3.830
 3778TIP3    H211341   2.078   2.113   3.857
 3779TIP3   OH211342   0.432   0.097   4.802
 3779TIP3    H111343   0.454   0.156   4.730
 3779TIP3    H211344   0.341   0.073   4.786
 3780TIP3   OH211345   6.051   3.255   0.748
 3780TIP3    H111346   5.998   3.245   0.669
 3780TIP3    H211347   5.989   3.245   0.820
 3781TIP3   OH211348   4.849   5.419   2.450
 3781TIP3    H111349   4.769   5.385   2.410
 3781TIP3    H211350   4.918   5.361   2.418
 3782TIP3   OH211351   4.707   5.392   1.717
 3782TIP3    H111352   4.710   5.459   1.649
 3782TIP3    H211353   4.615   5.367   1.723
 3783TIP3   OH211354   1.199   5.248   3.500
 3783TIP3    H111355   1.156   5.174   3.543
 3783TIP3    H211356   1.231   5.212   3.417
 3784TIP3   OH211357   4.793   5.668   3.772
 3784TIP3    H111358   4.813   5.646   3.863
 3784TIP3    H211359   4.786   5.583   3.728
 3785TIP3   OH211360   0.981   5.576   0.724
 3785TIP3    H111361   1.075   5.597   0.720
 3785TIP3    H211362   0.952   5.617   0.806
 3786TIP3   OH211363   5.702   0.383   2.663
 3786TIP3    H111364   5.706   0.460   2.720
 3786TIP3    H211365   5.619   0.341   2.684
 3787TIP3   OH211366   3.061   2.902   0.103
 3787TIP3    H111367   3.002   2.838   0.143
 3787TIP3    H211368   3.010   2.941   0.032
 3788TIP3   OH211369   3.889   1.144   3.695
 3788TIP3    H111370   3.916   1.233   3.718
 3788TIP3    H211371   3.971   1.097   3.681
 3789TIP3   OH211372   4.996   0.658   0.666
 3789TIP3    H111373   5.012   0.621   0.579
 3789TIP3    H211374   5.074   0.634   0.716
 3790TIP3   OH211375   1.500   4.832   2.625
 3790TIP3    H111376   1.461   4.761   2.575
 3790TIP3    H211377   1.575   4.793   2.670
 3791TIP3   OH211378   3.037   2.106   2.875
 3791TIP3    H111379   2.964   2.061   2.918
 3791TIP3    H211380   3.115   2.057   2.901
 3792TIP3   OH211381   0.096   3.182   5.073
 3792TIP3    H111382   0.150   3.103   5.076
 3792TIP3    H211383   0.050   3.176   4.989
 3793TIP3   OH211384   5.166   5.618   4.657
 3793TIP3    H111385   5.226   5.671   4.604
 3793TIP3    H211386   5.213   5.536   4.673
 3794TIP3   OH211387   0.091   0.847   4.508
 3794TIP3    H111388   0.140   0.839   4.427
 3794TIP3    H211389   0.140   0.794   4.572
 3795TIP3   OH211390   3.148   0.951   2.459
 3795TIP3    H111391   3.194   0.957   2.543
 3795TIP3    H211392   3.079   0.885   2.474
 3796TIP3   OH211393   0.054   4.563   3.776
 3796TIP3    H111394  -0.011   4.509   3.730
 3796TIP3    H211395   0.002   4.628   3.823
 3797TIP3   OH211396   5.219   3.443   4.980
 3797TIP3    H111397   5.295   3.500   4.988
 3797TIP3    H211398   5.144   3.498   5.003
 3798TIP3   OH211399   5.394   3.491   4.712
 3798TIP3    H111400   5.420   3.551   4.642
 3798TIP3    H211401   5.344   3.545   4.773
 3799TIP3   OH211402   4.202   4.982   0.165
 3799TIP3    H111403   4.253   4.915   0.210
 3799TIP3    H211404   4.191   4.949   0.076
 3800TIP3   OH211405   0.214   2.267   3.763
 3800TIP3    H111406   0.155   2.328   3.809
 3800TIP3    H211407   0.284   2.249   3.827
 3801TIP3   OH211408   2.640   4.562   2.517
 3801TIP3    H111409   2.584   4.597   2.448
 3801TIP3    H211410   2.729   4.571   2.483
 3802TIP3   OH211411   2.947   1.877   3.794
 3802TIP3    H111412   2.894   1.905   3.720
 3802TIP3    H211413   2.897   1.806   3.834
 3803TIP3   OH211414   5.471   0.346   2.207
 3803TIP3    H111415   5.456   0.373   2.298
 3803TIP3    H211416   5.540   0.405   2.176
 3804TIP3   OH211417   6.190   1.845   5.110
 3804TIP3    H111418   6.135   1.767   5.116
 3804TIP3    H211419   6.193   1.865   5.016
 3805TIP3   OH211420   5.314   2.086   4.613
 3805TIP3    H111421   5.370   2.146   4.662
 3805TIP3    H211422   5.321   2.114   4.522
 3806TIP3   OH211423   4.512   0.619   5.085
 3806TIP3    H111424   4.436   0.580   5.126
 3806TIP3    H211425   4.584   0.558   5.103
 3807TIP3   OH211426   6.286   4.863   4.969
 3807TIP3    H111427   6.196   4.878   4.997
 3807TIP3    H211428   6.335   4.846   5.049
 3808TIP3   OH211429   1.564   4.901   4.266
 3808TIP3    H111430   1.560   4.879   4.173
 3808TIP3    H211431   1.617   4.832   4.305
 3809TIP3   OH211432   2.644   4.343   0.806
 3809TIP3    H111433   2.616   4.319   0.894
 3809TIP3    H211434   2.713   4.408   0.819
 3810TIP3   OH211435   2.573   3.582   2.856
 3810TIP3    H111436   2.663   3.586   2.889
 3810TIP3    H211437   2.547   3.491   2.871
 3811TIP3   OH211438   2.150   2.859   1.081
 3811TIP3    H111439   2.129   2.771   1.048
 3811TIP3    H211440   2.157   2.848   1.176
 3812TIP3   OH211441   6.157   0.753   2.371
 3812TIP3    H111442   6.208   0.792   2.442
 3812TIP3    H211443   6.222   0.737   2.302
 3813TIP3   OH211444   2.817   4.579   4.162
 3813TIP3    H111445   2.816   4.639   4.087
 3813TIP3    H211446   2.822   4.636   4.239
 3814TIP3   OH211447   1.628   1.189   4.542
 3814TIP3    H111448   1.576   1.113   4.515
 3814TIP3    H211449   1.713   1.152   4.568
 3815TIP3   OH211450   2.797   3.354   2.913
 3815TIP3    H111451   2.851   3.425   2.949
 3815TIP3    H211452   2.757   3.314   2.990
 3816TIP3   OH211453   5.401   3.849   0.885
 3816TIP3    H111454   5.316   3.881   0.857
 3816TIP3    H211455   5.413   3.885   0.973
 3817TIP3   OH211456   1.503   3.176   0.053
 3817TIP3    H111457   1.482   3.192   0.145
 3817TIP3    H211458   1.595   3.201   0.045
 3818TIP3   OH211459   0.935   1.825   4.569
 3818TIP3    H111460   0.914   1.851   4.479
 3818TIP3    H211461   0.988   1.897   4.603
 3819TIP3   OH211462   3.192   4.181   4.796
 3819TIP3    H111463   3.189   4.155   4.888
 3819TIP3    H211464   3.284   4.167   4.771
 3820TIP3   OH211465   1.091   5.781   0.344
 3820TIP3    H111466   1.136   5.699   0.326
 3820TIP3    H211467   1.002   5.768   0.313
 3821TIP3   OH211468   3.228   2.309   0.755
 3821TIP3    H111469   3.170   2.316   0.679
 3821TIP3    H211470   3.182   2.357   0.824
 3822TIP3   OH211471   5.123   1.540   4.553
 3822TIP3    H111472   5.037   1.573   4.580
 3822TIP3    H211473   5.103   1.462   4.501
 3823TIP3   OH211474   6.171   4.478   0.681
 3823TIP3    H111475   6.159   4.386   0.660
 3823TIP3    H211476   6.115   4.524   0.618
 3824TIP3   OH211477   4.497   3.193   1.851
 3824TIP3    H111478   4.477   3.148   1.933
 3824TIP3    H211479   4.416   3.240   1.829
 3825TIP3   OH211480   4.107   4.425   3.798
 3825TIP3    H111481   4.015   4.419   3.826
 3825TIP3    H211482   4.138   4.335   3.800
 3826TIP3   OH211483   6.083   2.919   3.314
 3826TIP3    H111484   6.081   2.824   3.325
 3826TIP3    H211485   6.168   2.946   3.349
 3827TIP3   OH211486   0.305   2.379   3.110
 3827TIP3    H111487   0.263   2.342   3.033
 3827TIP3    H211488   0.390   2.336   3.115
 3828TIP3   OH211489   1.469   4.540   5.047
 3828TIP3    H111490   1.428   4.624   5.069
 3828TIP3    H211491   1.445   4.526   4.955
 3829TIP3   OH211492   3.364   2.305   4.801
 3829TIP3    H111493   3.403   2.311   4.714
 3829TIP3    H211494   3.319   2.388   4.814
 3830TIP3   OH211495   2.799   3.871   3.882
 3830TIP3    H111496   2.868   3.900   3.941
 3830TIP3    H211497   2.721   3.864   3.937
 3831TIP3   OH211498   4.402   2.002   3.467
 3831TIP3    H111499   4.453   2.079   3.441
 3831TIP3    H211500   4.418   1.938   3.398
 3832TIP3   OH211501   3.156   1.534   0.115
 3832TIP3    H111502   3.173   1.468   0.048
 3832TIP3    H211503   3.063   1.556   0.105
 3833TIP3   OH211504   2.694   3.795   4.646
 3833TIP3    H111505   2.727   3.746   4.721
 3833TIP3    H211506   2.746   3.875   4.644
 3834TIP3   OH211507   4.581   2.498   0.280
 3834TIP3    H111508   4.509   2.562   0.278
 3834TIP3    H211509   4.650   2.537   0.228
 3835TIP3   OH211510   2.644   0.376   0.829
 3835TIP3    H111511   2.693   0.414   0.756
 3835TIP3    H211512   2.570   0.435   0.841
 3836TIP3   OH211513   1.436   0.189   5.145
 3836TIP3    H111514   1.417   0.143   5.063
 3836TIP3    H211515   1.493   0.130   5.193
 3837TIP3   OH211516   2.652   1.886   1.317
 3837TIP3    H111517   2.687   1.947   1.382
 3837TIP3    H211518   2.658   1.932   1.234
 3838TIP3   OH211519   3.725   1.430   4.856
 3838TIP3    H111520   3.728   1.346   4.903
 3838TIP3    H211521   3.795   1.482   4.894
 3839TIP3   OH211522   3.185   1.044   4.730
 3839TIP3    H111523   3.166   0.961   4.775
 3839TIP3    H211524   3.184   1.109   4.800
 3840TIP3   OH211525   1.962   1.803   1.751
 3840TIP3    H111526   1.909   1.847   1.684
 3840TIP3    H211527   1.967   1.712   1.721
 3841TIP3   OH211528   1.739   2.072   3.896
 3841TIP3    H111529   1.811   2.013   3.875
 3841TIP3    H211530   1.661   2.028   3.862
 3842TIP3   OH211531   5.992   4.813   5.044
 3842TIP3    H111532   5.976   4.851   5.131
 3842TIP3    H211533   5.906   4.810   5.003
 3843TIP3   OH211534   5.756   3.938   3.931
 3843TIP3    H111535   5.766   3.853   3.974
 3843TIP3    H211536   5.711   3.917   3.849
 3844TIP3   OH211537   1.379   0.653   1.813
 3844TIP3    H111538   1.420   0.683   1.894
 3844TIP3    H211539   1.300   0.607   1.842
 3845TIP3   OH211540   4.763   3.665   4.570
 3845TIP3    H111541   4.797   3.731   4.510
 3845TIP3    H211542   4.697   3.617   4.519
 3846TIP3   OH211543   2.841   1.832   5.075
 3846TIP3    H111544   2.868   1.741   5.061
 3846TIP3    H211545   2.919   1.875   5.110
 3847TIP3   OH211546   1.931   1.902   3.392
 3847TIP3    H111547   1.970   1.898   3.305
 3847TIP3    H211548   1.971   1.979   3.433
 3848TIP3   OH211549   1.299   0.744   4.852
 3848TIP3    H111550   1.309   0.737   4.947
 3848TIP3    H211551   1.359   0.815   4.828
 3849TIP3   OH211552   2.321   0.996   1.074
 3849TIP3    H111553   2.370   1.017   1.153
 3849TIP3    H211554   2.237   0.963   1.106
 3850TIP3   OH211555   5.029   3.521   3.301
 3850TIP3    H111556   5.058   3.520   3.209
 3850TIP3    H211557   5.044   3.611   3.329
 3851TIP3   OH211558   1.421   0.351   0.480
 3851TIP3    H111559   1.330   0.379   0.490
 3851TIP3    H211560   1.419   0.287   0.409
 3852TIP3   OH211561   4.684   0.182   1.785
 3852TIP3    H111562   4.592   0.166   1.762
 3852TIP3    H211563   4.682   0.259   1.842
 3853TIP3   OH211564   0.582   1.968   2.951
 3853TIP3    H111565   0.627   2.046   2.919
 3853TIP3    H211566   0.603   1.965   3.045
 3854TIP3   OH211567   4.331   0.613   3.714
 3854TIP3    H111568   4.263   0.551   3.687
 3854TIP3    H211569   4.317   0.624   3.808
 3855TIP3   OH211570   3.425   1.796   0.808
 3855TIP3    H111571   3.488   1.853   0.764
 3855TIP3    H211572   3.467   1.710   0.809
 3856TIP3   OH211573   0.804   2.649   3.344
 3856TIP3    H111574   0.767   2.561   3.339
 3856TIP3    H211575   0.751   2.701   3.283
 3857TIP3   OH211576   2.115   3.869   2.115
 3857TIP3    H111577   2.045   3.804   2.122
 3857TIP3    H211578   2.177   3.831   2.053
 3858TIP3   OH211579   0.165   1.221   4.969
 3858TIP3    H111580   0.133   1.181   5.049
 3858TIP3    H211581   0.137   1.312   4.974
 3859TIP3   OH211582   0.137   1.415   1.348
 3859TIP3    H111583   0.156   1.446   1.436
 3859TIP3    H211584   0.218   1.375   1.318
 3860TIP3   OH211585   0.541   4.574   4.723
 3860TIP3    H111586   0.632   4.567   4.694
 3860TIP3    H211587   0.509   4.655   4.683
 3861TIP3   OH211588   2.144   4.559   3.006
 3861TIP3    H111589   2.154   4.635   3.063
 3861TIP3    H211590   2.218   4.564   2.945
 3862TIP3   OH211591   5.315   2.055   0.114
 3862TIP3    H111592   5.337   1.972   0.158
 3862TIP3    H211593   5.296   2.116   0.185
 3863TIP3   OH211594   5.674   3.709   4.098
 3863TIP3    H111595   5.693   3.746   4.184
 3863TIP3    H211596   5.579   3.695   4.099
 3864TIP3   OH211597   1.605   1.871   3.583
 3864TIP3    H111598   1.564   1.806   3.525
 3864TIP3    H211599   1.699   1.860   3.569
 3865TIP3   OH211600   5.467   1.678   1.172
 3865TIP3    H111601   5.509   1.724   1.245
 3865TIP3    H211602   5.384   1.647   1.209
 3866TIP3   OH211603   1.515   0.060   3.112
 3866TIP3    H111604   1.542  -0.021   3.067
 3866TIP3    H211605   1.571   0.065   3.188
 3867TIP3   OH211606   4.010   3.326   1.620
 3867TIP3    H111607   4.038   3.417   1.626
 3867TIP3    H211608   4.085   3.276   1.653
 3868TIP3   OH211609   4.671   3.089   4.564
 3868TIP3    H111610   4.714   3.172   4.544
 3868TIP3    H211611   4.681   3.037   4.484
 3869TIP3   OH211612   1.525   0.598   2.675
 3869TIP3    H111613   1.527   0.683   2.630
 3869TIP3    H211614   1.611   0.590   2.715
 3870TIP3   OH211615   3.831   4.457   3.836
 3870TIP3    H111616   3.826   4.426   3.746
 3870TIP3    H211617   3.778   4.395   3.886
 3871TIP3   OH211618   2.977   1.933   2.036
 3871TIP3    H111619   3.035   1.858   2.045
 3871TIP3    H211620   2.890   1.895   2.026
 3872TIP3   OH211621   2.079   2.690   2.716
 3872TIP3    H111622   1.998   2.641   2.708
 3872TIP3    H211623   2.148   2.625   2.704
 3873TIP3   OH211624   5.044   2.575   4.715
 3873TIP3    H111625   5.009   2.511   4.654
 3873TIP3    H211626   5.127   2.538   4.743
 3874TIP3   OH211627   4.819   0.503   4.106
 3874TIP3    H111628   4.859   0.588   4.121
 3874TIP3    H211629   4.751   0.496   4.172
 3875TIP3   OH211630   4.077   4.468   4.401
 3875TIP3    H111631   4.038   4.411   4.335
 3875TIP3    H211632   4.152   4.509   4.356
 3876TIP3   OH211633   0.144   4.591   0.288
 3876TIP3    H111634   0.105   4.678   0.299
 3876TIP3    H211635   0.166   4.587   0.195
 3877TIP3   OH211636   4.469   5.379   1.830
 3877TIP3    H111637   4.378   5.403   1.813
 3877TIP3    H211638   4.468   5.341   1.917
 3878TIP3   OH211639   3.324   0.513   2.393
 3878TIP3    H111640   3.294   0.598   2.361
 3878TIP3    H211641   3.419   0.522   2.401
 3879TIP3   OH211642   6.064   0.302   4.933
 3879TIP3    H111643   6.051   0.344   5.018
 3879TIP3    H211644   6.160   0.297   4.923
 3880TIP3   OH211645   3.733   4.103   2.864
 3880TIP3    H111646   3.638   4.111   2.855
 3880TIP3    H211647   3.760   4.047   2.790
 3881TIP3   OH211648   0.240   3.529   4.291
 3881TIP3    H111649   0.265   3.587   4.362
 3881TIP3    H211650   0.147   3.549   4.275
 3882TIP3   OH211651   5.749   4.523   2.107
 3882TIP3    H111652   5.698   4.541   2.028
 3882TIP3    H211653   5.708   4.446   2.145
 3883TIP3   OH211654   0.565   4.328   0.725
 3883TIP3    H111655   0.634   4.308   0.788
 3883TIP3    H211656   0.588   4.279   0.646
 3884TIP3   OH211657   4.312   5.730   0.691
 3884TIP3    H111658   4.364   5.757   0.615
 3884TIP3    H211659   4.237   5.683   0.654
 3885TIP3   OH211660   2.160   1.618   3.487
 3885TIP3    H111661   2.173   1.524   3.475
 3885TIP3    H211662   2.082   1.638   3.435
 3886TIP3   OH211663   2.159   4.965   4.447
 3886TIP3    H111664   2.213   4.963   4.368
 3886TIP3    H211665   2.218   4.941   4.518
 3887TIP3   OH211666   3.960   1.111   1.653
 3887TIP3    H111667   4.026   1.066   1.600
 3887TIP3    H211668   3.948   1.054   1.729
 3888TIP3   OH211669   5.161   2.292   1.777
 3888TIP3    H111670   5.168   2.315   1.684
 3888TIP3    H211671   5.175   2.197   1.779
 3889TIP3   OH211672   0.396   1.383   0.251
 3889TIP3    H111673   0.321   1.328   0.226
 3889TIP3    H211674   0.387   1.461   0.196
 3890TIP3   OH211675   4.091   5.127   4.204
 3890TIP3    H111676   4.072   5.035   4.187
 3890TIP3    H211677   4.074   5.139   4.297
 3891TIP3   OH211678   2.778   3.382   4.372
 3891TIP3    H111679   2.754   3.289   4.370
 3891TIP3    H211680   2.696   3.426   4.395
 3892TIP3   OH211681   1.920   2.927   0.917
 3892TIP3    H111682   1.934   2.886   0.832
 3892TIP3    H211683   1.990   2.892   0.972
 3893TIP3   OH211684   1.577   0.930   4.209
 3893TIP3    H111685   1.600   0.837   4.204
 3893TIP3    H211686   1.544   0.952   4.122
 3894TIP3   OH211687   4.676   5.105   3.387
 3894TIP3    H111688   4.763   5.140   3.366
 3894TIP3    H211689   4.618   5.181   3.383
 3895TIP3   OH211690   1.363   5.899   0.892
 3895TIP3    H111691   1.334   5.836   0.958
 3895TIP3    H211692   1.298   5.970   0.896
 3896TIP3   OH211693   6.325   2.020   2.506
 3896TIP3    H111694   6.324   2.113   2.484
 3896TIP3    H211695   6.334   2.019   2.601
 3897TIP3   OH211696   4.923   2.036   3.291
 3897TIP3    H111697   4.906   2.122   3.328
 3897TIP3    H211698   5.010   2.043   3.253
 3898TIP3   OH211699   3.476   2.807   2.278
 3898TIP3    H111700   3.473   2.712   2.266
 3898TIP3    H211701   3.474   2.843   2.190
 3899TIP3   OH211702   5.835   4.796   3.035
 3899TIP3    H111703   5.741   4.784   3.020
 3899TIP3    H211704   5.864   4.713   3.074
 3900TIP3   OH211705   2.248   0.667   4.322
 3900TIP3    H111706   2.231   0.762   4.320
 3900TIP3    H211707   2.312   0.652   4.253
 3901TIP3   OH211708   5.984   4.393   1.830
 3901TIP3    H111709   5.924   4.443   1.774
 3901TIP3    H211710   6.063   4.382   1.777
 3902TIP3   OH211711   4.936   2.977   2.087
 3902TIP3    H111712   4.852   2.941   2.059
 3902TIP3    H211713   4.914   3.037   2.158
 3903TIP3   OH211714   3.081   3.549   2.636
 3903TIP3    H111715   3.122   3.536   2.721
 3903TIP3    H211716   2.992   3.514   2.646
 3904TIP3   OH211717   3.199   2.455   1.315
 3904TIP3    H111718   3.120   2.482   1.268
 3904TIP3    H211719   3.264   2.442   1.247
 3905TIP3   OH211720   2.712   5.133   0.458
 3905TIP3    H111721   2.777   5.134   0.528
 3905TIP3    H211722   2.636   5.178   0.494
 3906TIP3   OH211723   2.182   4.729   0.566
 3906TIP3    H111724   2.193   4.697   0.656
 3906TIP3    H211725   2.249   4.796   0.555
 3907TIP3   OH211726   4.815   1.730   3.949
 3907TIP3    H111727   4.835   1.722   3.855
 3907TIP3    H211728   4.795   1.822   3.961
 3908TIP3   OH211729   1.874   0.033   4.322
 3908TIP3    H111730   1.823   0.113   4.337
 3908TIP3    H211731   1.809  -0.034   4.301
 3909TIP3   OH211732   5.804   0.416   0.409
 3909TIP3    H111733   5.821   0.386   0.498
 3909TIP3    H211734   5.891   0.438   0.373
 3910TIP3   OH211735   0.283   2.167   0.462
 3910TIP3    H111736   0.284   2.240   0.400
 3910TIP3    H211737   0.232   2.199   0.536
 3911TIP3   OH211738   6.305   3.210   4.824
 3911TIP3    H111739   6.337   3.254   4.745
 3911TIP3    H211740   6.219   3.249   4.840
 3912TIP3   OH211741   4.181   5.645   4.815
 3912TIP3    H111742   4.234   5.710   4.863
 3912TIP3    H211743   4.245   5.593   4.767
 3913TIP3   OH211744   5.635   4.854   3.976
 3913TIP3    H111745   5.621   4.940   4.016
 3913TIP3    H211746   5.634   4.793   4.050
 3914TIP3   OH211747   4.539   3.593   3.492
 3914TIP3    H111748   4.492   3.648   3.555
 3914TIP3    H211749   4.517   3.503   3.518
 3915TIP3   OH211750   0.788   5.255   1.439
 3915TIP3    H111751   0.864   5.244   1.381
 3915TIP3    H211752   0.771   5.167   1.472
 3916TIP3   OH211753   3.686   2.428   0.461
 3916TIP3    H111754   3.610   2.422   0.519
 3916TIP3    H211755   3.671   2.359   0.397
 3917TIP3   OH211756   3.195   0.510   1.506
 3917TIP3    H111757   3.188   0.582   1.569
 3917TIP3    H211758   3.110   0.465   1.511
 3918TIP3   OH211759   5.062   2.153   0.029
 3918TIP3    H111760   5.022   2.076   0.068
 3918TIP3    H211761   5.105   2.198   0.101
 3919TIP3   OH211762   3.499   4.200   3.676
 3919TIP3    H111763   3.487   4.289   3.710
 3919TIP3    H211764   3.455   4.200   3.591
 3920TIP3   OH211765   4.523   3.641   4.387
 3920TIP3    H111766   4.432   3.670   4.389
 3920TIP3    H211767   4.571   3.715   4.350
 3921TIP3   OH211768   2.523   5.117   1.814
 3921TIP3    H111769   2.502   5.116   1.720
 3921TIP3    H211770   2.546   5.208   1.833
 3922TIP3   OH211771   4.806   3.231   3.621
 3922TIP3    H111772   4.779   3.194   3.537
 3922TIP3    H211773   4.737   3.292   3.644
 3923TIP3   OH211774   4.497   2.211   4.393
 3923TIP3    H111775   4.499   2.294   4.442
 3923TIP3    H211776   4.433   2.157   4.440
 3924TIP3   OH211777   0.783   1.299   3.949
 3924TIP3    H111778   0.708   1.294   3.889
 3924TIP3    H211779   0.845   1.235   3.915
 3925TIP3   OH211780   1.566   0.721   3.337
 3925TIP3    H111781   1.532   0.797   3.289
 3925TIP3    H211782   1.660   0.735   3.342
 3926TIP3   OH211783   1.629   2.170   0.976
 3926TIP3    H111784   1.538   2.188   0.952
 3926TIP3    H211785   1.646   2.229   1.050
 3927TIP3   OH211786   6.315   1.886   3.491
 3927TIP3    H111787   6.405   1.859   3.477
 3927TIP3    H211788   6.321   1.976   3.524
 3928TIP3   OH211789   5.337   4.744   4.503
 3928TIP3    H111790   5.327   4.699   4.419
 3928TIP3    H211791   5.255   4.726   4.549
 3929TIP3   OH211792   5.389   1.661   4.969
 3929TIP3    H111793   5.298   1.687   4.958
 3929TIP3    H211794   5.412   1.619   4.887
 3930TIP3   OH211795   4.218   1.417   1.872
 3930TIP3    H111796   4.227   1.345   1.934
 3930TIP3    H211797   4.165   1.382   1.801
 3931TIP3   OH211798   0.801   5.430   1.048
 3931TIP3    H111799   0.890   5.395   1.052
 3931TIP3    H211800   0.745   5.353   1.049
 3932TIP3   OH211801   5.151   1.672   2.925
 3932TIP3    H111802   5.191   1.629   2.850
 3932TIP3    H211803   5.124   1.600   2.982
 3933TIP3   OH211804   3.926   2.500   1.452
 3933TIP3    H111805   3.964   2.557   1.385
 3933TIP3    H211806   3.833   2.520   1.451
 3934TIP3   OH211807   0.668   4.689   0.294
 3934TIP3    H111808   0.626   4.617   0.341
 3934TIP3    H211809   0.595   4.737   0.254
 3935TIP3   OH211810   2.771   4.516   4.941
 3935TIP3    H111811   2.826   4.591   4.964
 3935TIP3    H211812   2.694   4.554   4.900
 3936TIP3   OH211813   2.448   2.939   1.244
 3936TIP3    H111814   2.516   2.891   1.290
 3936TIP3    H211815   2.366   2.900   1.273
 3937TIP3   OH211816   1.757   4.062   0.543
 3937TIP3    H111817   1.667   4.091   0.527
 3937TIP3    H211818   1.780   4.009   0.467
 3938TIP3   OH211819   4.810   2.759   3.283
 3938TIP3    H111820   4.807   2.675   3.329
 3938TIP3    H211821   4.805   2.825   3.352
 3939TIP3   OH211822   2.420   0.511   3.238
 3939TIP3    H111823   2.376   0.466   3.311
 3939TIP3    H211824   2.481   0.446   3.203
 3940TIP3   OH211825   2.714   5.780   3.380
 3940TIP3    H111826   2.809   5.767   3.386
 3940TIP3    H211827   2.690   5.817   3.465
 3941TIP3   OH211828   1.998   1.087   0.853
 3941TIP3    H111829   2.060   1.128   0.913
 3941TIP3    H211830   1.948   1.027   0.907
 3942TIP3   OH211831   3.742   5.892   1.457
 3942TIP3    H111832   3.662   5.923   1.497
 3942TIP3    H211833   3.713   5.832   1.388
 3943TIP3   OH211834   5.437   0.473   2.448
 3943TIP3    H111835   5.498   0.543   2.471
 3943TIP3    H211836   5.362   0.487   2.506
 3944TIP3   OH211837   0.923   1.862   0.202
 3944TIP3    H111838   0.943   1.773   0.173
 3944TIP3    H211839   0.881   1.904   0.127
 3945TIP3   OH211840   4.446   3.984   3.945
 3945TIP3    H111841   4.390   3.969   4.021
 3945TIP3    H211842   4.499   4.060   3.969
 3946TIP3   OH211843   4.975   2.709   2.401
 3946TIP3    H111844   4.932   2.676   2.480
 3946TIP3    H211845   4.904   2.742   2.346
 3947TIP3   OH211846   2.951   0.790   2.545
 3947TIP3    H111847   2.858   0.809   2.560
 3947TIP3    H211848   2.972   0.724   2.611
 3948TIP3   OH211849   4.193   2.241   4.575
 3948TIP3    H111850   4.238   2.160   4.550
 3948TIP3    H211851   4.116   2.244   4.518
 3949TIP3   OH211852   4.774   3.164   0.931
 3949TIP3    H111853   4.721   3.153   1.010
 3949TIP3    H211854   4.730   3.111   0.864
 3950TIP3   OH211855   4.682   4.751   3.104
 3950TIP3    H111856   4.630   4.745   3.024
 3950TIP3    H211857   4.625   4.795   3.167
 3951TIP3   OH211858   2.972   3.030   2.932
 3951TIP3    H111859   2.878   3.041   2.946
 3951TIP3    H211860   2.979   2.972   2.856
 3952TIP3   OH211861   2.571   2.297   1.028
 3952TIP3    H111862   2.618   2.357   1.085
 3952TIP3    H211863   2.628   2.287   0.951
 3953TIP3   OH211864   5.696   1.459   5.076
 3953TIP3    H111865   5.746   1.433   4.999
 3953TIP3    H211866   5.683   1.553   5.065
 3954TIP3   OH211867   0.722   1.053   4.148
 3954TIP3    H111868   0.637   1.012   4.163
 3954TIP3    H211869   0.769   0.992   4.092
 3955TIP3   OH211870   2.339   5.511   3.330
 3955TIP3    H111871   2.403   5.576   3.302
 3955TIP3    H211872   2.357   5.434   3.275
 3956TIP3   OH211873   1.474   5.532   2.625
 3956TIP3    H111874   1.421   5.457   2.599
 3956TIP3    H211875   1.411   5.604   2.632
 3957TIP3   OH211876   4.982   0.898   3.227
 3957TIP3    H111877   4.935   0.821   3.260
 3957TIP3    H211878   4.930   0.929   3.153
 3958TIP3   OH211879   5.068   3.500   2.327
 3958TIP3    H111880   5.018   3.419   2.315
 3958TIP3    H211881   5.156   3.470   2.348
 3959TIP3   OH211882   3.766   2.164   3.428
 3959TIP3    H111883   3.670   2.171   3.430
 3959TIP3    H211884   3.792   2.170   3.520
 3960TIP3   OH211885   2.218   2.273   5.185
 3960TIP3    H111886   2.235   2.188   5.145
 3960TIP3    H211887   2.303   2.301   5.219
 3961TIP3   OH211888   1.628   1.706   0.277
 3961TIP3    H111889   1.640   1.646   0.350
 3961TIP3    H211890   1.700   1.769   0.285
 3962TIP3   OH211891   4.005   3.214   3.144
 3962TIP3    H111892   4.084   3.162   3.155
 3962TIP3    H211893   4.026   3.275   3.073
 3963TIP3   OH211894   5.936   1.389   2.345
 3963TIP3    H111895   5.991   1.426   2.414
 3963TIP3    H211896   5.858   1.358   2.392
 3964TIP3   OH211897   0.384   1.952   4.030
 3964TIP3    H111898   0.466   1.903   4.029
 3964TIP3    H211899   0.406   2.035   4.072
 3965TIP3   OH211900   5.658   1.196   3.725
 3965TIP3    H111901   5.603   1.274   3.725
 3965TIP3    H211902   5.743   1.227   3.755
 3966TIP3   OH211903   1.825   4.925   4.472
 3966TIP3    H111904   1.844   4.947   4.381
 3966TIP3    H211905   1.904   4.881   4.504
 3967TIP3   OH211906   0.479   4.094   4.936
 3967TIP3    H111907   0.535   4.156   4.889
 3967TIP3    H211908   0.488   4.119   5.028
 3968TIP3   OH211909   1.475   0.937   1.190
 3968TIP3    H111910   1.558   0.896   1.212
 3968TIP3    H211911   1.415   0.911   1.260
 3969TIP3   OH211912   0.940   2.784   1.738
 3969TIP3    H111913   0.863   2.804   1.686
 3969TIP3    H211914   0.975   2.704   1.700
 3970TIP3   OH211915   4.683   3.300   0.285
 3970TIP3    H111916   4.683   3.268   0.375
 3970TIP3    H211917   4.656   3.225   0.232
 3971TIP3   OH211918   2.751   1.173   2.791
 3971TIP3    H111919   2.660   1.161   2.818
 3971TIP3    H211920   2.802   1.148   2.868
 3972TIP3   OH211921   4.522   4.463   3.083
 3972TIP3    H111922   4.539   4.488   2.992
 3972TIP3    H211923   4.455   4.525   3.113
 3973TIP3   OH211924   3.870   4.035   3.681
 3973TIP3    H111925   3.840   3.998   3.598
 3973TIP3    H211926   3.870   3.961   3.742
 3974TIP3   OH211927   5.744   0.030   4.007
 3974TIP3    H111928   5.682   0.038   4.080
 3974TIP3    H211929   5.689   0.025   3.929
 3975TIP3   OH211930   3.101   3.496   4.143
 3975TIP3    H111931   3.144   3.574   4.177
 3975TIP3    H211932   3.010   3.523   4.129
 3976TIP3   OH211933   1.024   0.680   4.812
 3976TIP3    H111934   0.980   0.757   4.848
 3976TIP3    H211935   1.108   0.714   4.780
 3977TIP3   OH211936   4.028   4.863   2.568
 3977TIP3    H111937   4.085   4.919   2.515
 3977TIP3    H211938   3.940   4.892   2.547
 3978TIP3   OH211939   0.053   0.284   2.910
 3978TIP3    H111940   0.064   0.366   2.861
 3978TIP3    H211941  -0.037   0.287   2.941
 3979TIP3   OH211942   2.912   5.017   4.236
 3979TIP3    H111943   2.938   4.998   4.146
 3979TIP3    H211944   2.981   5.075   4.269
 3980TIP3   OH211945   2.830   3.796   3.054
 3980TIP3    H111946   2.887   3.724   3.080
 3980TIP3    H211947   2.809   3.778   2.962
 3981TIP3   OH211948   3.031   0.417   4.653
 3981TIP3    H111949   2.956   0.405   4.710
 3981TIP3    H211950   2.999   0.473   4.582
 3982TIP3   OH211951   1.788   2.458   3.163
 3982TIP3    H111952   1.803   2.494   3.076
 3982TIP3    H211953   1.715   2.398   3.152
 3983TIP3   OH211954   3.654   1.622   0.789
 3983TIP3    H111955   3.733   1.633   0.736
 3983TIP3    H211956   3.620   1.537   0.763
 3984TIP3   OH211957   5.674   4.366   4.023
 3984TIP3    H111958   5.592   4.317   4.015
 3984TIP3    H211959   5.739   4.312   3.979
 3985TIP3   OH211960   0.008   2.420   3.504
 3985TIP3    H111961   0.039   2.331   3.522
 3985TIP3    H211962  -0.069   2.431   3.560
 3986TIP3   OH211963   4.699   4.847   4.137
 3986TIP3    H111964   4.727   4.788   4.067
 3986TIP3    H211965   4.768   4.913   4.142
 3987TIP3   OH211966   2.024   5.625   0.586
 3987TIP3    H111967   2.056   5.666   0.506
 3987TIP3    H211968   2.022   5.531   0.566
 3988TIP3   OH211969   4.504   4.768   2.903
 3988TIP3    H111970   4.463   4.835   2.848
 3988TIP3    H211971   4.476   4.685   2.865
 3989TIP3   OH211972   4.901   4.036   2.679
 3989TIP3    H111973   4.855   4.098   2.736
 3989TIP3    H211974   4.881   4.067   2.590
 3990TIP3   OH211975   4.968   0.276   1.446
 3990TIP3    H111976   4.918   0.273   1.364
 3990TIP3    H211977   4.994   0.368   1.455
 3991TIP3   OH211978   0.479   1.654   1.581
 3991TIP3    H111979   0.540   1.591   1.543
 3991TIP3    H211980   0.512   1.739   1.552
 3992TIP3   OH211981   0.080   2.940   0.575
 3992TIP3    H111982   0.151   2.950   0.510
 3992TIP3    H211983   0.119   2.887   0.644
 3993TIP3   OH211984   4.083   5.045   2.920
 3993TIP3    H111985   4.107   4.967   2.971
 3993TIP3    H211986   4.039   5.010   2.842
 3994TIP3   OH211987   6.286   2.823   3.119
 3994TIP3    H111988   6.210   2.804   3.064
 3994TIP3    H211989   6.278   2.763   3.193
 3995TIP3   OH211990   2.969   3.666   0.297
 3995TIP3    H111991   2.940   3.599   0.359
 3995TIP3    H211992   2.891   3.684   0.244
 3996TIP3   OH211993   1.052   2.808   4.296
 3996TIP3    H111994   0.957   2.812   4.308
 3996TIP3    H211995   1.088   2.851   4.374
 3997TIP3   OH211996   0.890   2.859   2.296
 3997TIP3    H111997   0.796   2.871   2.279
 3997TIP3    H211998   0.901   2.764   2.298
 3998TIP3   OH211999   1.739   4.845   4.860
 3998TIP3    H112000   1.648   4.875   4.857
 3998TIP3    H212001   1.745   4.782   4.788
 3999TIP3   OH212002   6.062   0.447   2.687
 3999TIP3    H112003   6.032   0.364   2.723
 3999TIP3    H212004   6.022   0.513   2.744
 4000TIP3   OH212005   2.613   3.568   3.983
 4000TIP3    H112006   2.525   3.557   3.946
 4000TIP3    H212007   2.634   3.482   4.020
 4001TIP3   OH212008   1.242   0.742  -0.005
 4001TIP3    H112009   1.202   0.743   0.082
 4001TIP3    H212010   1.265   0.650  -0.020
 4002TIP3   OH212011   4.883   5.395   2.732
 4002TIP3    H112012   4.850   5.427   2.648
 4002TIP3    H212013   4.805   5.365   2.779
 4003TIP3   OH212014   3.290   0.521   4.739
 4003TIP3    H112015   3.354   0.450   4.732
 4003TIP3    H212016   3.209   0.484   4.704
 4004TIP3   OH212017   5.645   4.994   0.283
 4004TIP3    H112018   5.651   5.056   0.356
 4004TIP3    H212019   5.717   5.019   0.225
 4005TIP3   OH212020   3.833   4.943   0.874
 4005TIP3    H112021   3.912   4.965   0.925
 4005TIP3    H212022   3.823   4.849   0.886
 4006TIP3   OH212023   4.175   3.794   0.075
 4006TIP3    H112024   4.154   3.714   0.124
 4006TIP3    H212025   4.210   3.762  -0.008
 4007TIP3   OH212026   5.649   4.022   2.063
 4007TIP3    H112027   5.689   4.104   2.034
 4007TIP3    H212028   5.559   4.027   2.031
 4008TIP3   OH212029   6.210   0.726   4.678
 4008TIP3    H112030   6.258   0.725   4.761
 4008TIP3    H212031   6.214   0.817   4.649
 4009TIP3   OH212032   1.524   3.697   2.707
 4009TIP3    H112033   1.438   3.736   2.725
 4009TIP3    H212034   1.558   3.749   2.634
 4010TIP3   OH212035   1.467   2.968   3.609
 4010TIP3    H112036   1.397   2.923   3.562
 4010TIP3    H212037   1.506   3.027   3.543
 4011TIP3   OH212038   2.615   1.521   2.084
 4011TIP3    H112039   2.634   1.482   2.170
 4011TIP3    H212040   2.612   1.446   2.024
 4012TIP3   OH212041   0.461   3.153   0.112
 4012TIP3    H112042   0.444   3.243   0.082
 4012TIP3    H212043   0.379   3.126   0.153
 4013TIP3   OH212044   1.838   2.438   3.667
 4013TIP3    H112045   1.853   2.406   3.756
 4013TIP3    H212046   1.812   2.360   3.617
 4014TIP3   OH212047   5.523   3.669   0.497
 4014TIP3    H112048   5.466   3.704   0.565
 4014TIP3    H212049   5.571   3.598   0.540
 4015TIP3   OH212050   0.363   0.957   5.093
 4015TIP3    H112051   0.437   0.924   5.143
 4015TIP3    H212052   0.364   0.906   5.012
 4016TIP3   OH212053   5.975   4.285   3.125
 4016TIP3    H112054   5.968   4.266   3.218
 4016TIP3    H212055   5.903   4.236   3.084
 4017TIP3   OH212056   0.292   1.531   2.885
 4017TIP3    H112057   0.348   1.517   2.809
 4017TIP3    H212058   0.287   1.626   2.895
 4018TIP3   OH212059   5.411   5.131   3.746
 4018TIP3    H112060   5.445   5.044   3.722
 4018TIP3    H212061   5.420   5.134   3.841
 4019TIP3   OH212062   1.618   5.073   4.574
 4019TIP3    H112063   1.696   5.029   4.538
 4019TIP3    H212064   1.562   5.087   4.497
 4020TIP3   OH212065   2.192   2.186   3.078
 4020TIP3    H112066   2.264   2.249   3.074
 4020TIP3    H212067   2.160   2.192   3.168
 4021TIP3   OH212068   0.849   4.778   3.666
 4021TIP3    H112069   0.781   4.807   3.607
 4021TIP3    H212070   0.841   4.683   3.669
 4022TIP3   OH212071   3.857   1.358   2.671
 4022TIP3    H112072   3.815   1.445   2.668
 4022TIP3    H212073   3.831   1.317   2.588
 4023TIP3   OH212074   5.809   0.244   4.219
 4023TIP3    H112075   5.880   0.294   4.177
 4023TIP3    H212076   5.819   0.155   4.184
 4024TIP3   OH212077   1.250   1.300   2.914
 4024TIP3    H112078   1.192   1.300   2.838
 4024TIP3    H212079   1.198   1.262   2.985
 4025TIP3   OH212080   5.303   0.941   2.499
 4025TIP3    H112081   5.259   1.026   2.503
 4025TIP3    H212082   5.396   0.963   2.508
 4026TIP3   OH212083   0.983   1.076   3.871
 4026TIP3    H112084   0.968   0.993   3.826
 4026TIP3    H212085   1.061   1.113   3.828
 4027TIP3   OH212086   4.325   0.792   1.253
 4027TIP3    H112087   4.316   0.698   1.268
 4027TIP3    H212088   4.259   0.812   1.186
 4028TIP3   OH212089   6.007   3.039   3.962
 4028TIP3    H112090   6.043   2.982   4.030
 4028TIP3    H212091   5.998   3.125   4.004
 4029TIP3   OH212092   6.238   3.810   2.450
 4029TIP3    H112093   6.196   3.829   2.366
 4029TIP3    H212094   6.325   3.849   2.443
 4030TIP3   OH212095   0.321   3.298   3.982
 4030TIP3    H112096   0.266   3.302   4.061
 4030TIP3    H212097   0.290   3.371   3.929
 4031TIP3   OH212098   0.401   1.441   0.513
 4031TIP3    H112099   0.383   1.405   0.426
 4031TIP3    H212100   0.336   1.511   0.524
 4032TIP3   OH212101   0.181   3.823   3.128
 4032TIP3    H112102   0.217   3.897   3.078
 4032TIP3    H212103   0.192   3.748   3.070
 4033TIP3   OH212104   2.614   2.475   2.392
 4033TIP3    H112105   2.602   2.530   2.315
 4033TIP3    H212106   2.708   2.461   2.398
 4034TIP3   OH212107   2.788   5.297   1.586
 4034TIP3    H112108   2.783   5.316   1.492
 4034TIP3    H212109   2.881   5.288   1.604
 4035TIP3   OH212110   5.698   4.898   2.079
 4035TIP3    H112111   5.789   4.927   2.068
 4035TIP3    H212112   5.662   4.957   2.145
 4036TIP3   OH212113   0.693   1.771   0.694
 4036TIP3    H112114   0.699   1.795   0.601
 4036TIP3    H212115   0.604   1.797   0.720
 4037TIP3   OH212116   5.803   4.161   3.617
 4037TIP3    H112117   5.804   4.069   3.594
 4037TIP3    H212118   5.810   4.162   3.713
 4038TIP3   OH212119   0.733   1.919   4.896
 4038TIP3    H112120   0.798   1.851   4.917
 4038TIP3    H212121   0.780   1.981   4.840
 4039TIP3   OH212122   5.959   2.607   4.665
 4039TIP3    H112123   5.923   2.666   4.731
 4039TIP3    H212124   6.036   2.654   4.631
 4040TIP3   OH212125   2.270   0.639   0.648
 4040TIP3    H112126   2.287   0.714   0.706
 4040TIP3    H212127   2.336   0.647   0.579
 4041TIP3   OH212128   5.503   2.085   0.351
 4041TIP3    H112129   5.491   2.180   0.346
 4041TIP3    H212130   5.587   2.069   0.308
 4042TIP3   OH212131   4.159   2.066   3.603
 4042TIP3    H112132   4.123   1.984   3.569
 4042TIP3    H212133   4.249   2.067   3.571
 4043TIP3   OH212134   1.111   5.196   2.322
 4043TIP3    H112135   1.116   5.102   2.342
 4043TIP3    H212136   1.080   5.200   2.231
 4044TIP3   OH212137   4.827   3.744   0.842
 4044TIP3    H112138   4.922   3.742   0.834
 4044TIP3    H212139   4.802   3.653   0.860
 4045TIP3   OH212140   4.335   1.223   0.647
 4045TIP3    H112141   4.346   1.214   0.741
 4045TIP3    H212142   4.423   1.237   0.613
 4046TIP3   OH212143   1.405   3.111   4.426
 4046TIP3    H112144   1.485   3.136   4.472
 4046TIP3    H212145   1.398   3.173   4.354
 4047TIP3   OH212146   5.232   4.545   1.621
 4047TIP3    H112147   5.260   4.630   1.589
 4047TIP3    H212148   5.162   4.518   1.562
 4048TIP3   OH212149   0.350   0.543   0.080
 4048TIP3    H112150   0.349   0.504  -0.008
 4048TIP3    H212151   0.318   0.473   0.137
 4049TIP3   OH212152   1.154   1.344   4.387
 4049TIP3    H112153   1.202   1.373   4.310
 4049TIP3    H212154   1.145   1.424   4.440
 4050TIP3   OH212155   5.225   1.614   1.230
 4050TIP3    H112156   5.190   1.533   1.269
 4050TIP3    H212157   5.174   1.684   1.270
 4051TIP3   OH212158   2.246   1.208   2.652
 4051TIP3    H112159   2.173   1.269   2.638
 4051TIP3    H212160   2.284   1.197   2.565
 4052TIP3   OH212161   3.931   1.307   2.075
 4052TIP3    H112162   3.861   1.250   2.043
 4052TIP3    H212163   3.922   1.387   2.023
 4053TIP3   OH212164   6.102   3.161   5.077
 4053TIP3    H112165   6.024   3.126   5.120
 4053TIP3    H212166   6.068   3.210   5.002
 4054TIP3   OH212167   2.779   5.366   2.836
 4054TIP3    H112168   2.829   5.427   2.890
 4054TIP3    H212169   2.721   5.320   2.897
 4055TIP3   OH212170   0.142   3.157   4.591
 4055TIP3    H112171   0.171   3.134   4.679
 4055TIP3    H212172   0.164   3.081   4.537
 4056TIP3   OH212173   2.194   5.737   2.206
 4056TIP3    H112174   2.157   5.649   2.199
 4056TIP3    H212175   2.248   5.734   2.285
 4057TIP3   OH212176   4.176   4.367   3.382
 4057TIP3    H112177   4.243   4.367   3.450
 4057TIP3    H212178   4.223   4.388   3.302
 4058TIP3   OH212179   0.995   1.365   3.071
 4058TIP3    H112180   1.045   1.423   3.127
 4058TIP3    H212181   0.905   1.373   3.102
 4059TIP3   OH212182   2.601   2.710   1.889
 4059TIP3    H112183   2.610   2.671   1.976
 4059TIP3    H212184   2.678   2.680   1.841
 4060TIP3   OH212185   0.088   3.764   4.517
 4060TIP3    H112186   0.044   3.848   4.504
 4060TIP3    H212187   0.168   3.770   4.465
 4061TIP3   OH212188   0.519   1.970   3.679
 4061TIP3    H112189   0.439   1.938   3.721
 4061TIP3    H212190   0.518   2.064   3.693
 4062TIP3   OH212191  -0.024   1.600   2.733
 4062TIP3    H112192  -0.016   1.654   2.654
 4062TIP3    H212193   0.048   1.538   2.726
 4063TIP3   OH212194   5.956   3.210   1.063
 4063TIP3    H112195   6.012   3.173   1.131
 4063TIP3    H212196   5.933   3.136   1.008
 4064TIP3   OH212197   0.584   5.163   3.478
 4064TIP3    H112198   0.513   5.160   3.415
 4064TIP3    H212199   0.540   5.172   3.563
 4065TIP3   OH212200   2.818   5.897   3.155
 4065TIP3    H112201   2.770   5.822   3.191
 4065TIP3    H212202   2.838   5.952   3.231
 4066TIP3   OH212203   0.931   0.342   2.815
 4066TIP3    H112204   1.024   0.363   2.828
 4066TIP3    H212205   0.904   0.396   2.741
 4067TIP3   OH212206   6.125   1.701   0.166
 4067TIP3    H112207   6.070   1.668   0.237
 4067TIP3    H212208   6.147   1.790   0.193
 4068TIP3   OH212209   4.058   4.982   3.391
 4068TIP3    H112210   4.094   4.941   3.470
 4068TIP3    H212211   4.112   4.949   3.319
 4069TIP3   OH212212   0.275   5.017   1.341
 4069TIP3    H112213   0.231   5.094   1.305
 4069TIP3    H212214   0.213   4.980   1.404
 4070TIP3   OH212215   2.381   2.253   4.256
 4070TIP3    H112216   2.303   2.307   4.258
 4070TIP3    H212217   2.388   2.217   4.345
 4071TIP3   OH212218   1.737   3.688   0.276
 4071TIP3    H112219   1.672   3.750   0.308
 4071TIP3    H212220   1.794   3.672   0.351
 4072TIP3   OH212221   2.943   2.082   3.968
 4072TIP3    H112222   2.852   2.106   3.982
 4072TIP3    H212223   2.940   2.006   3.910
 4073TIP3   OH212224   3.915   3.282   0.777
 4073TIP3    H112225   3.970   3.210   0.808
 4073TIP3    H212226   3.963   3.321   0.705
 4074TIP3   OH212227   2.336   3.850   0.968
 4074TIP3    H112228   2.273   3.914   0.933
 4074TIP3    H212229   2.376   3.895   1.042
 4075TIP3   OH212230   2.888   2.551   3.651
 4075TIP3    H112231   2.981   2.546   3.672
 4075TIP3    H212232   2.856   2.624   3.703
 4076TIP3   OH212233   5.931   1.288   5.150
 4076TIP3    H112234   6.024   1.303   5.135
 4076TIP3    H212235   5.897   1.373   5.180
 4077TIP3   OH212236   0.095   5.816   0.575
 4077TIP3    H112237   0.019   5.765   0.548
 4077TIP3    H212238   0.090   5.897   0.523
 4078TIP3   OH212239   3.482   4.816   1.157
 4078TIP3    H112240   3.571   4.800   1.126
 4078TIP3    H212241   3.494   4.856   1.244
 4079TIP3   OH212242   0.022   1.243   1.556
 4079TIP3    H112243  -0.045   1.262   1.622
 4079TIP3    H212244   0.056   1.329   1.531
 4080TIP3   OH212245   0.772   4.485   4.356
 4080TIP3    H112246   0.864   4.508   4.355
 4080TIP3    H212247   0.749   4.479   4.449
 4081TIP3   OH212248   2.124   2.954   2.801
 4081TIP3    H112249   2.206   2.986   2.765
 4081TIP3    H212250   2.122   2.861   2.778
 4082TIP3   OH212251   2.647   2.468   2.648
 4082TIP3    H112252   2.634   2.377   2.672
 4082TIP3    H212253   2.627   2.473   2.555
 4083TIP3   OH212254   6.337   4.035   4.393
 4083TIP3    H112255   6.360   4.125   4.369
 4083TIP3    H212256   6.253   4.043   4.439
 4084TIP3   OH212257   5.527   1.104   0.728
 4084TIP3    H112258   5.432   1.095   0.740
 4084TIP3    H212259   5.552   1.173   0.789
 4085TIP3   OH212260   1.541   4.657   2.285
 4085TIP3    H112261   1.502   4.588   2.231
 4085TIP3    H212262   1.487   4.659   2.364
 4086TIP3   OH212263   0.619   4.194   4.563
 4086TIP3    H112264   0.635   4.253   4.637
 4086TIP3    H212265   0.647   4.108   4.594
 4087TIP3   OH212266   2.023   4.505   0.503
 4087TIP3    H112267   2.076   4.435   0.539
 4087TIP3    H212268   2.069   4.586   0.526
 4088TIP3   OH212269   4.876   5.684   5.060
 4088TIP3    H112270   4.817   5.711   4.990
 4088TIP3    H212271   4.960   5.722   5.036
 4089TIP3   OH212272   3.200   5.135   3.755
 4089TIP3    H112273   3.289   5.131   3.720
 4089TIP3    H212274   3.189   5.227   3.780
 4090TIP3   OH212275   5.076   3.832   1.103
 4090TIP3    H112276   5.037   3.762   1.156
 4090TIP3    H212277   5.097   3.791   1.020
 4091TIP3   OH212278   5.395   4.678   3.918
 4091TIP3    H112279   5.475   4.731   3.920
 4091TIP3    H212280   5.421   4.598   3.871
 4092TIP3   OH212281   1.999   0.452   4.576
 4092TIP3    H112282   1.937   0.417   4.639
 4092TIP3    H212283   2.084   0.443   4.618
 4093TIP3   OH212284   6.215   0.584   0.912
 4093TIP3    H112285   6.195   0.524   0.840
 4093TIP3    H212286   6.307   0.567   0.933
 4094TIP3   OH212287   6.106   4.194   3.818
 4094TIP3    H112288   6.151   4.115   3.789
 4094TIP3    H212289   6.147   4.265   3.769
 4095TIP3   OH212290   3.881   4.217   0.067
 4095TIP3    H112291   3.925   4.155   0.125
 4095TIP3    H212292   3.952   4.270   0.030
 4096TIP3   OH212293   5.571   0.850   4.819
 4096TIP3    H112294   5.556   0.927   4.875
 4096TIP3    H212295   5.526   0.779   4.864
 4097TIP3   OH212296   0.939   0.838   0.974
 4097TIP3    H112297   0.876   0.836   1.046
 4097TIP3    H212298   0.901   0.782   0.907
 4098TIP3   OH212299   2.928   1.250   3.948
 4098TIP3    H112300   2.851   1.210   3.909
 4098TIP3    H212301   2.955   1.318   3.886
 4099TIP3   OH212302   0.645   5.140   0.952
 4099TIP3    H112303   0.661   5.051   0.985
 4099TIP3    H212304   0.639   5.129   0.857
 4100TIP3   OH212305   5.778   2.027   1.032
 4100TIP3    H112306   5.791   2.040   1.126
 4100TIP3    H212307   5.699   2.077   1.011
 4101TIP3   OH212308   3.857   3.852   4.921
 4101TIP3    H112309   3.820   3.792   4.986
 4101TIP3    H212310   3.784   3.907   4.895
 4102TIP3   OH212311   2.279   4.627   2.233
 4102TIP3    H112312   2.192   4.629   2.273
 4102TIP3    H212313   2.264   4.646   2.141
 4103TIP3   OH212314   2.892   5.363   3.492
 4103TIP3    H112315   2.836   5.440   3.501
 4103TIP3    H212316   2.975   5.389   3.532
 4104TIP3   OH212317   3.016   0.177   3.765
 4104TIP3    H112318   3.045   0.095   3.805
 4104TIP3    H212319   2.953   0.212   3.828
 4105TIP3   OH212320   0.961   1.117   0.333
 4105TIP3    H112321   1.055   1.100   0.324
 4105TIP3    H212322   0.922   1.076   0.255
 4106TIP3   OH212323   2.830   4.605   0.547
 4106TIP3    H112324   2.869   4.688   0.576
 4106TIP3    H212325   2.795   4.566   0.627
 4107TIP3   OH212326   6.234   0.607   0.383
 4107TIP3    H112327   6.282   0.637   0.307
 4107TIP3    H212328   6.281   0.645   0.458
 4108TIP3   OH212329   1.741   1.996   2.928
 4108TIP3    H112330   1.832   1.969   2.940
 4108TIP3    H212331   1.745   2.089   2.908
 4109TIP3   OH212332   3.569   3.419   1.178
 4109TIP3    H112333   3.474   3.414   1.167
 4109TIP3    H212334   3.581   3.464   1.262
 4110TIP3   OH212335   4.435   0.084   1.804
 4110TIP3    H112336   4.433   0.011   1.866
 4110TIP3    H212337   4.372   0.147   1.840
 4111TIP3   OH212338   3.831   0.068   3.859
 4111TIP3    H112339   3.811   0.123   3.784
 4111TIP3    H212340   3.922   0.089   3.881
 4112TIP3   OH212341   3.004   5.879   3.711
 4112TIP3    H112342   3.028   5.888   3.803
 4112TIP3    H212343   2.954   5.798   3.707
 4113TIP3   OH212344   5.216   1.714   3.342
 4113TIP3    H112345   5.143   1.654   3.327
 4113TIP3    H212346   5.186   1.798   3.309
 4114TIP3   OH212347   3.411   4.252   0.633
 4114TIP3    H112348   3.406   4.338   0.592
 4114TIP3    H212349   3.373   4.265   0.720
 4115TIP3   OH212350   5.028   1.421   0.684
 4115TIP3    H112351   4.932   1.419   0.678
 4115TIP3    H212352   5.059   1.405   0.595
 4116TIP3   OH212353   2.989   1.358   0.495
 4116TIP3    H112354   2.927   1.297   0.456
 4116TIP3    H212355   3.067   1.352   0.439
 4117TIP3   OH212356   4.289   1.905   4.132
 4117TIP3    H112357   4.202   1.938   4.153
 4117TIP3    H212358   4.312   1.945   4.049
 4118TIP3   OH212359   5.554   3.130   3.631
 4118TIP3    H112360   5.507   3.075   3.694
 4118TIP3    H212361   5.616   3.071   3.589
 4119TIP3   OH212362   4.538   1.259   0.438
 4119TIP3    H112363   4.595   1.197   0.393
 4119TIP3    H212364   4.473   1.284   0.372
 4120TIP3   OH212365   3.955   5.357   1.864
 4120TIP3    H112366   3.886   5.416   1.897
 4120TIP3    H212367   3.937   5.349   1.771
 4121TIP3   OH212368   4.403   1.816   1.858
 4121TIP3    H112369   4.459   1.841   1.784
 4121TIP3    H212370   4.314   1.834   1.828
 4122TIP3   OH212371   0.748   4.044   3.438
 4122TIP3    H112372   0.792   4.024   3.521
 4122TIP3    H212373   0.666   3.995   3.442
 4123TIP3   OH212374   5.752   1.076   1.220
 4123TIP3    H112375   5.686   1.145   1.229
 4123TIP3    H212376   5.756   1.036   1.307
 4124TIP3   OH212377   6.091   5.744   4.512
 4124TIP3    H112378   6.075   5.838   4.501
 4124TIP3    H212379   6.006   5.709   4.539
 4125TIP3   OH212380   0.274   1.743   2.183
 4125TIP3    H112381   0.344   1.772   2.124
 4125TIP3    H212382   0.225   1.823   2.202
 4126TIP3   OH212383   4.317   2.032   4.497
 4126TIP3    H112384   4.378   1.980   4.551
 4126TIP3    H212385   4.255   1.968   4.462
 4127TIP3   OH212386   2.705   5.327   1.018
 4127TIP3    H112387   2.688   5.247   1.068
 4127TIP3    H212388   2.627   5.339   0.963
 4128TIP3   OH212389   0.832   5.385   4.007
 4128TIP3    H112390   0.793   5.298   4.004
 4128TIP3    H212391   0.889   5.384   4.084
 4129TIP3   OH212392   4.250   3.981   1.344
 4129TIP3    H112393   4.332   4.028   1.328
 4129TIP3    H212394   4.205   4.034   1.409
 4130TIP3   OH212395   5.230   0.532   2.607
 4130TIP3    H112396   5.230   0.563   2.697
 4130TIP3    H212397   5.200   0.608   2.556
 4131TIP3   OH212398   1.796   3.696   4.083
 4131TIP3    H112399   1.888   3.672   4.080
 4131TIP3    H212400   1.759   3.658   4.003
 4132TIP3   OH212401   0.798   5.545   0.486
 4132TIP3    H112402   0.772   5.517   0.573
 4132TIP3    H212403   0.876   5.600   0.500
 4133TIP3   OH212404   5.985   3.663   5.130
 4133TIP3    H112405   6.058   3.602   5.135
 4133TIP3    H212406   6.022   3.747   5.158
 4134TIP3   OH212407   6.291   2.327   3.193
 4134TIP3    H112408   6.293   2.235   3.220
 4134TIP3    H212409   6.271   2.375   3.273
 4135TIP3   OH212410   1.669   3.627   3.849
 4135TIP3    H112411   1.581   3.597   3.873
 4135TIP3    H212412   1.662   3.649   3.756
 4136TIP3   OH212413   3.936   1.492   1.326
 4136TIP3    H112414   3.871   1.535   1.271
 4136TIP3    H212415   3.924   1.398   1.309
 4137TIP3   OH212416   3.672   4.267   3.228
 4137TIP3    H112417   3.694   4.355   3.200
 4137TIP3    H212418   3.580   4.256   3.204
 4138TIP3   OH212419   4.324   0.728   2.400
 4138TIP3    H112420   4.409   0.772   2.393
 4138TIP3    H212421   4.334   0.669   2.474
 4139TIP3   OH212422   0.834   0.133   0.114
 4139TIP3    H112423   0.779   0.119   0.191
 4139TIP3    H212424   0.853   0.045   0.082
 4140TIP3   OH212425   4.024   2.519   2.155
 4140TIP3    H112426   4.023   2.504   2.060
 4140TIP3    H212427   4.106   2.477   2.184
 4141TIP3   OH212428   0.523   5.397   4.229
 4141TIP3    H112429   0.573   5.457   4.284
 4141TIP3    H212430   0.564   5.403   4.142
 4142TIP3   OH212431   2.174   4.066   0.882
 4142TIP3    H112432   2.097   4.043   0.828
 4142TIP3    H212433   2.149   4.147   0.926
 4143TIP3   OH212434   6.134   0.210   2.959
 4143TIP3    H112435   6.077   0.199   2.882
 4143TIP3    H212436   6.093   0.280   3.009
 4144TIP3   OH212437   5.260   2.885   4.944
 4144TIP3    H112438   5.215   2.958   4.987
 4144TIP3    H212439   5.235   2.809   4.996
 4145TIP3   OH212440   3.963   5.153   3.186
 4145TIP3    H112441   4.038   5.120   3.136
 4145TIP3    H212442   3.970   5.110   3.271
 4146TIP3   OH212443   6.198   3.504   5.069
 4146TIP3    H112444   6.231   3.587   5.036
 4146TIP3    H212445   6.186   3.449   4.992
 4147TIP3   OH212446   4.030   4.586   4.790
 4147TIP3    H112447   3.942   4.575   4.826
 4147TIP3    H212448   4.083   4.519   4.833
 4148TIP3   OH212449   5.126   1.670   2.079
 4148TIP3    H112450   5.194   1.647   2.142
 4148TIP3    H212451   5.144   1.760   2.055
 4149TIP3   OH212452   2.670   5.200   3.023
 4149TIP3    H112453   2.634   5.129   2.971
 4149TIP3    H212454   2.743   5.161   3.071
 4150TIP3   OH212455   3.130   3.268  -0.025
 4150TIP3    H112456   3.186   3.217   0.034
 4150TIP3    H212457   3.187   3.338  -0.058
 4151TIP3   OH212458   6.260   5.595   4.357
 4151TIP3    H112459   6.229   5.636   4.437
 4151TIP3    H212460   6.355   5.600   4.363
 4152TIP3   OH212461   1.551   1.049   0.389
 4152TIP3    H112462   1.541   1.129   0.439
 4152TIP3    H212463   1.563   0.980   0.455
 4153TIP3   OH212464   3.910   2.469   2.567
 4153TIP3    H112465   3.842   2.402   2.552
 4153TIP3    H212466   3.868   2.551   2.541
 4154TIP3   OH212467   4.485   3.005   2.059
 4154TIP3    H112468   4.455   3.057   2.134
 4154TIP3    H212469   4.432   2.925   2.063
 4155TIP3   OH212470   4.330   2.399   3.660
 4155TIP3    H112471   4.372   2.390   3.746
 4155TIP3    H212472   4.237   2.385   3.678
 4156TIP3   OH212473   2.407   0.883   4.027
 4156TIP3    H112474   2.413   0.803   4.078
 4156TIP3    H212475   2.489   0.929   4.045
 4157TIP3   OH212476   1.597   5.383   0.666
 4157TIP3    H112477   1.647   5.347   0.593
 4157TIP3    H212478   1.533   5.315   0.687
 4158TIP3   OH212479   1.470   3.219   2.015
 4158TIP3    H112480   1.428   3.268   2.085
 4158TIP3    H212481   1.539   3.170   2.059
 4159TIP3   OH212482   1.034   3.092   0.725
 4159TIP3    H112483   1.062   3.028   0.660
 4159TIP3    H212484   1.109   3.151   0.733
 4160TIP3   OH212485   0.237   2.024   3.172
 4160TIP3    H112486   0.169   2.029   3.105
 4160TIP3    H212487   0.191   2.000   3.252
 4161TIP3   OH212488   1.007   4.579   5.108
 4161TIP3    H112489   1.084   4.548   5.156
 4161TIP3    H212490   0.954   4.623   5.174
 4162TIP3   OH212491   6.288   1.594  -0.016
 4162TIP3    H112492   6.365   1.556   0.028
 4162TIP3    H212493   6.232   1.624   0.055
 4163TIP3   OH212494   5.131   2.735   0.921
 4163TIP3    H112495   5.122   2.641   0.909
 4163TIP3    H212496   5.153   2.769   0.834
 4164TIP3   OH212497   0.438   1.011   0.507
 4164TIP3    H112498   0.474   0.922   0.503
 4164TIP3    H212499   0.512   1.066   0.528
 4165TIP3   OH212500   0.040   2.985   1.881
 4165TIP3    H112501   0.067   2.894   1.873
 4165TIP3    H212502  -0.026   2.985   1.950
 4166TIP3   OH212503   4.599   3.680   4.806
 4166TIP3    H112504   4.511   3.695   4.772
 4166TIP3    H212505   4.655   3.684   4.728
 4167TIP3   OH212506   0.111   0.626   5.061
 4167TIP3    H112507   0.199   0.625   5.098
 4167TIP3    H212508   0.058   0.673   5.126
 4168TIP3   OH212509   2.496   1.984   1.547
 4168TIP3    H112510   2.425   1.937   1.503
 4168TIP3    H212511   2.484   2.076   1.521
 4169TIP3   OH212512   0.852   1.378   3.662
 4169TIP3    H112513   0.901   1.399   3.742
 4169TIP3    H212514   0.886   1.293   3.635
 4170TIP3   OH212515   4.272   1.204   1.411
 4170TIP3    H112516   4.345   1.156   1.373
 4170TIP3    H212517   4.200   1.141   1.414
 4171TIP3   OH212518   0.669   1.558   1.398
 4171TIP3    H112519   0.669   1.651   1.377
 4171TIP3    H212520   0.760   1.531   1.386
 4172TIP3   OH212521   4.856   2.040   4.409
 4172TIP3    H112522   4.944   2.062   4.380
 4172TIP3    H212523   4.799   2.096   4.356
 4173TIP3   OH212524   2.540   4.293   4.320
 4173TIP3    H112525   2.497   4.209   4.331
 4173TIP3    H212526   2.575   4.314   4.407
 4174TIP3   OH212527   4.544   1.180   4.905
 4174TIP3    H112528   4.595   1.231   4.968
 4174TIP3    H212529   4.473   1.142   4.957
 4175TIP3   OH212530   1.120   2.503   0.177
 4175TIP3    H112531   1.190   2.560   0.209
 4175TIP3    H212532   1.134   2.500   0.082
 4176TIP3   OH212533   2.820   3.208   1.346
 4176TIP3    H112534   2.851   3.212   1.255
 4176TIP3    H212535   2.876   3.143   1.388
 4177TIP3   OH212536   4.996   4.152   0.433
 4177TIP3    H112537   4.979   4.096   0.509
 4177TIP3    H212538   5.022   4.236   0.471
 4178TIP3   OH212539   6.274   1.334   3.818
 4178TIP3    H112540   6.360   1.351   3.780
 4178TIP3    H212541   6.212   1.361   3.750
 4179TIP3   OH212542   1.661   4.704   1.860
 4179TIP3    H112543   1.571   4.720   1.887
 4179TIP3    H212544   1.702   4.664   1.937
 4180TIP3   OH212545   1.797   0.629   4.482
 4180TIP3    H112546   1.858   0.567   4.522
 4180TIP3    H212547   1.781   0.694   4.551
 4181TIP3   OH212548   2.083   4.142   2.144
 4181TIP3    H112549   2.077   4.050   2.120
 4181TIP3    H212550   2.173   4.153   2.175
 4182TIP3   OH212551   2.866   0.543   4.495
 4182TIP3    H112552   2.858   0.582   4.408
 4182TIP3    H212553   2.780   0.556   4.535
 4183TIP3   OH212554   4.036   3.113   1.305
 4183TIP3    H112555   4.092   3.063   1.365
 4183TIP3    H212556   4.015   3.193   1.353
 4184TIP3   OH212557   3.829   3.881   0.459
 4184TIP3    H112558   3.810   3.809   0.519
 4184TIP3    H212559   3.892   3.935   0.506
 4185TIP3   OH212560   2.261   0.596   1.002
 4185TIP3    H112561   2.323   0.632   0.938
 4185TIP3    H212562   2.184   0.574   0.950
 4186TIP3   OH212563   5.234   0.571   1.302
 4186TIP3    H112564   5.224   0.504   1.235
 4186TIP3    H212565   5.227   0.523   1.385
 4187TIP3   OH212566   3.836   2.994   3.278
 4187TIP3    H112567   3.873   3.017   3.363
 4187TIP3    H212568   3.831   3.077   3.231
 4188TIP3   OH212569   4.770   4.071   3.712
 4188TIP3    H112570   4.806   4.120   3.638
 4188TIP3    H212571   4.831   4.000   3.726
 4189TIP3   OH212572   3.323   3.342   0.836
 4189TIP3    H112573   3.240   3.383   0.812
 4189TIP3    H212574   3.313   3.250   0.810
 4190TIP3   OH212575   5.177   3.993   0.219
 4190TIP3    H112576   5.181   4.073   0.271
 4190TIP3    H212577   5.199   4.019   0.130
 4191TIP3   OH212578   1.563   1.538   1.448
 4191TIP3    H112579   1.642   1.558   1.398
 4191TIP3    H212580   1.593   1.528   1.538
 4192TIP3   OH212581   0.831   4.368   5.039
 4192TIP3    H112582   0.915   4.394   5.078
 4192TIP3    H212583   0.783   4.450   5.028
 4193TIP3   OH212584   5.647   4.059   4.833
 4193TIP3    H112585   5.650   4.152   4.855
 4193TIP3    H212586   5.561   4.030   4.862
 4194TIP3   OH212587   1.957   5.252   1.920
 4194TIP3    H112588   1.907   5.222   1.995
 4194TIP3    H212589   1.922   5.202   1.846
 4195TIP3   OH212590   1.004   2.331   2.809
 4195TIP3    H112591   1.076   2.376   2.764
 4195TIP3    H212592   0.925   2.363   2.765
 4196TIP3   OH212593   5.880   1.797   2.868
 4196TIP3    H112594   5.836   1.870   2.912
 4196TIP3    H212595   5.810   1.752   2.822
 4197TIP3   OH212596   3.422   4.029   4.972
 4197TIP3    H112597   3.476   4.002   5.047
 4197TIP3    H212598   3.413   4.124   4.982
 4198TIP3   OH212599   0.504   3.286   2.430
 4198TIP3    H112600   0.480   3.237   2.509
 4198TIP3    H212601   0.452   3.246   2.360
 4199TIP3   OH212602   0.529   3.629   1.245
 4199TIP3    H112603   0.567   3.561   1.301
 4199TIP3    H212604   0.558   3.711   1.283
 4200TIP3   OH212605   5.018   1.332   3.232
 4200TIP3    H112606   5.086   1.361   3.171
 4200TIP3    H212607   4.939   1.378   3.202
 4201TIP3   OH212608   2.580   4.382   1.563
 4201TIP3    H112609   2.559   4.294   1.531
 4201TIP3    H212610   2.675   4.381   1.577
 4202TIP3   OH212611   2.445   0.545   4.796
 4202TIP3    H112612   2.490   0.542   4.712
 4202TIP3    H212613   2.506   0.503   4.857
 4203TIP3   OH212614   3.898   1.172   1.269
 4203TIP3    H112615   3.810   1.157   1.305
 4203TIP3    H212616   3.914   1.097   1.213
 4204TIP3   OH212617   2.463   5.344   0.885
 4204TIP3    H112618   2.398   5.312   0.948
 4204TIP3    H212619   2.413   5.400   0.825
 4205TIP3   OH212620   3.210   4.110   1.661
 4205TIP3    H112621   3.219   4.028   1.710
 4205TIP3    H212622   3.195   4.083   1.571
 4206TIP3   OH212623   5.260   4.686   1.202
 4206TIP3    H112624   5.340   4.684   1.254
 4206TIP3    H212625   5.198   4.734   1.256
 4207TIP3   OH212626   2.625   0.881   1.553
 4207TIP3    H112627   2.670   0.920   1.478
 4207TIP3    H212628   2.533   0.875   1.525
 4208TIP3   OH212629   2.312   5.529   1.108
 4208TIP3    H112630   2.312   5.434   1.126
 4208TIP3    H212631   2.233   5.543   1.056
 4209TIP3   OH212632   0.647   5.411   3.742
 4209TIP3    H112633   0.673   5.319   3.751
 4209TIP3    H212634   0.583   5.424   3.812
 4210TIP3   OH212635   2.193   1.665   2.861
 4210TIP3    H112636   2.129   1.732   2.886
 4210TIP3    H212637   2.240   1.704   2.787
 4211TIP3   OH212638   3.449   1.827   1.109
 4211TIP3    H112639   3.418   1.780   1.186
 4211TIP3    H212640   3.394   1.905   1.105
 4212TIP3   OH212641   0.475   4.478   5.004
 4212TIP3    H112642   0.496   4.510   4.917
 4212TIP3    H212643   0.414   4.542   5.040
 4213TIP3   OH212644   2.028   3.573   1.908
 4213TIP3    H112645   1.978   3.609   1.980
 4213TIP3    H212646   2.116   3.610   1.918
 4214TIP3   OH212647   5.575   0.671   2.568
 4214TIP3    H112648   5.564   0.766   2.564
 4214TIP3    H212649   5.604   0.654   2.658
 4215TIP3   OH212650   0.577   1.843   3.430
 4215TIP3    H112651   0.577   1.888   3.514
 4215TIP3    H212652   0.662   1.798   3.427
 4216TIP3   OH212653   3.666   3.129   1.439
 4216TIP3    H112654   3.678   3.036   1.421
 4216TIP3    H212655   3.677   3.171   1.354
 4217TIP3   OH212656   5.165   1.410   4.176
 4217TIP3    H112657   5.126   1.406   4.264
 4217TIP3    H212658   5.111   1.474   4.130
 4218TIP3   OH212659   1.522   0.136   4.381
 4218TIP3    H112660   1.582   0.162   4.451
 4218TIP3    H212661   1.436   0.130   4.423
 4219TIP3   OH212662   2.494   5.482   2.326
 4219TIP3    H112663   2.538   5.422   2.266
 4219TIP3    H212664   2.502   5.568   2.285
 4220TIP3   OH212665   5.346   5.214   4.023
 4220TIP3    H112666   5.293   5.293   4.014
 4220TIP3    H212667   5.298   5.160   4.087
 4221TIP3   OH212668   2.416   0.268   2.851
 4221TIP3    H112669   2.461   0.307   2.777
 4221TIP3    H212670   2.448   0.178   2.855
 4222TIP3   OH212671   3.182   4.372   1.664
 4222TIP3    H112672   3.105   4.403   1.711
 4222TIP3    H212673   3.188   4.279   1.686
 4223TIP3   OH212674   3.768   3.840   0.182
 4223TIP3    H112675   3.798   3.855   0.272
 4223TIP3    H212676   3.684   3.795   0.193
 4224TIP3   OH212677   0.743   2.407   2.630
 4224TIP3    H112678   0.747   2.311   2.637
 4224TIP3    H212679   0.657   2.430   2.666
 4225TIP3   OH212680   2.717   3.898   0.040
 4225TIP3    H112681   2.792   3.848   0.010
 4225TIP3    H212682   2.724   3.895   0.136
 4226TIP3   OH212683   5.253   4.295   3.643
 4226TIP3    H112684   5.316   4.291   3.571
 4226TIP3    H212685   5.257   4.385   3.674
 4227TIP3   OH212686   2.027   5.047   1.148
 4227TIP3    H112687   2.036   4.976   1.085
 4227TIP3    H212688   1.938   5.079   1.135
 4228TIP3   OH212689   3.772   3.665   2.526
 4228TIP3    H112690   3.827   3.618   2.464
 4228TIP3    H212691   3.797   3.630   2.612
 4229TIP3   OH212692   3.839   3.657   4.079
 4229TIP3    H112693   3.932   3.639   4.067
 4229TIP3    H212694   3.801   3.573   4.105
 4230TIP3   OH212695   0.435   0.979   0.804
 4230TIP3    H112696   0.388   0.990   0.721
 4230TIP3    H212697   0.513   0.929   0.781
 4231TIP3   OH212698   4.972   3.853   4.695
 4231TIP3    H112699   5.021   3.903   4.630
 4231TIP3    H212700   4.928   3.785   4.644
 4232TIP3   OH212701   4.094   2.458   0.459
 4232TIP3    H112702   4.104   2.390   0.525
 4232TIP3    H212703   4.152   2.431   0.387
 4233TIP3   OH212704   5.072   1.583   0.426
 4233TIP3    H112705   5.122   1.502   0.415
 4233TIP3    H212706   5.078   1.603   0.520
 4234TIP3   OH212707   5.937   5.050   2.079
 4234TIP3    H112708   5.951   5.137   2.116
 4234TIP3    H212709   6.025   5.012   2.072
 4235TIP3   OH212710   1.933   2.107   1.566
 4235TIP3    H112711   1.852   2.056   1.571
 4235TIP3    H212712   1.947   2.140   1.655
 4236TIP3   OH212713   0.967   4.871   4.391
 4236TIP3    H112714   1.054   4.842   4.365
 4236TIP3    H212715   0.964   4.855   4.486
 4237TIP3   OH212716   1.179   0.047   0.214
 4237TIP3    H112717   1.097   0.081   0.252
 4237TIP3    H212718   1.201  -0.028   0.269
 4238TIP3   OH212719   4.432   5.609   2.501
 4238TIP3    H112720   4.425   5.519   2.536
 4238TIP3    H212721   4.455   5.597   2.409
 4239TIP3   OH212722   5.117   3.413   0.766
 4239TIP3    H112723   5.151   3.361   0.838
 4239TIP3    H212724   5.140   3.363   0.688
 4240TIP3   OH212725   3.471   0.919   5.062
 4240TIP3    H112726   3.460   1.009   5.033
 4240TIP3    H212727   3.412   0.868   5.006
 4241TIP3   OH212728   1.904   0.435   1.910
 4241TIP3    H112729   1.830   0.494   1.927
 4241TIP3    H212730   1.871   0.375   1.843
 4242TIP3   OH212731   5.160   5.142   0.196
 4242TIP3    H112732   5.117   5.167   0.114
 4242TIP3    H212733   5.245   5.107   0.168
 4243TIP3   OH212734   4.009   3.855   3.157
 4243TIP3    H112735   4.042   3.885   3.242
 4243TIP3    H212736   3.934   3.913   3.139
 4244TIP3   OH212737   5.044   1.669   0.161
 4244TIP3    H112738   4.978   1.608   0.129
 4244TIP3    H212739   5.051   1.651   0.254
 4245TIP3   OH212740   4.832   4.832   1.576
 4245TIP3    H112741   4.896   4.824   1.647
 4245TIP3    H212742   4.803   4.923   1.580
 4246TIP3   OH212743   0.560   2.099   1.957
 4246TIP3    H112744   0.580   2.083   1.865
 4246TIP3    H212745   0.502   2.175   1.957
 4247TIP3   OH212746   5.237   0.885   0.762
 4247TIP3    H112747   5.239   0.958   0.700
 4247TIP3    H212748   5.279   0.812   0.715
 4248TIP3   OH212749   3.106   4.654   4.557
 4248TIP3    H112750   3.077   4.723   4.616
 4248TIP3    H212751   3.127   4.580   4.614
 4249TIP3   OH212752   1.562   2.816   0.580
 4249TIP3    H112753   1.530   2.827   0.670
 4249TIP3    H212754   1.627   2.884   0.569
 4250TIP3   OH212755   1.950   5.310   0.997
 4250TIP3    H112756   1.934   5.381   0.935
 4250TIP3    H212757   1.976   5.354   1.078
 4251TIP3   OH212758   0.947   0.630   1.234
 4251TIP3    H112759   0.967   0.572   1.308
 4251TIP3    H212760   1.032   0.647   1.193
 4252TIP3   OH212761   4.342   4.709   0.371
 4252TIP3    H112762   4.247   4.694   0.372
 4252TIP3    H212763   4.369   4.681   0.283
 4253TIP3   OH212764   4.995   3.929   0.608
 4253TIP3    H112765   4.926   3.914   0.544
 4253TIP3    H212766   5.050   3.851   0.603
 4254TIP3   OH212767   3.521   4.023   3.482
 4254TIP3    H112768   3.528   4.062   3.570
 4254TIP3    H212769   3.610   3.993   3.462
 4255TIP3   OH212770  -0.002   1.576   3.261
 4255TIP3    H112771  -0.004   1.516   3.186
 4255TIP3    H212772  -0.076   1.548   3.316
 4256TIP3   OH212773   2.060   4.624   4.329
 4256TIP3    H112774   2.124   4.618   4.258
 4256TIP3    H212775   2.073   4.544   4.380
 4257TIP3   OH212776   0.442   4.782   3.538
 4257TIP3    H112777   0.376   4.764   3.470
 4257TIP3    H212778   0.489   4.700   3.548
 4258TIP3   OH212779   6.021   5.945   4.735
 4258TIP3    H112780   5.961   5.888   4.785
 4258TIP3    H212781   6.071   5.991   4.803
 4259TIP3   OH212782   1.483   4.034   0.527
 4259TIP3    H112783   1.434   4.111   0.499
 4259TIP3    H212784   1.438   4.005   0.607
 4260TIP3   OH212785   3.267   3.428   1.960
 4260TIP3    H112786   3.287   3.386   2.044
 4260TIP3    H212787   3.338   3.401   1.902
 4261TIP3   OH212788   5.186   0.364   3.474
 4261TIP3    H112789   5.171   0.409   3.558
 4261TIP3    H212790   5.151   0.424   3.408
 4262TIP3   OH212791   2.772   3.044   4.980
 4262TIP3    H112792   2.749   3.135   4.961
 4262TIP3    H212793   2.867   3.046   4.996
 4263TIP3   OH212794   3.518   2.346   4.572
 4263TIP3    H112795   3.553   2.425   4.532
 4263TIP3    H212796   3.594   2.306   4.615
 4264TIP3   OH212797   4.160   0.184   0.159
 4264TIP3    H112798   4.086   0.214   0.107
 4264TIP3    H212799   4.141   0.092   0.178
 4265TIP3   OH212800   2.164   5.795   4.367
 4265TIP3    H112801   2.209   5.854   4.307
 4265TIP3    H212802   2.096   5.754   4.314
 4266TIP3   OH212803   3.388   2.275   3.226
 4266TIP3    H112804   3.384   2.348   3.287
 4266TIP3    H212805   3.303   2.274   3.183
 4267TIP3   OH212806   5.834   2.655   4.961
 4267TIP3    H112807   5.759   2.710   4.938
 4267TIP3    H212808   5.805   2.566   4.946
 4268TIP3   OH212809   0.623   1.582   2.590
 4268TIP3    H112810   0.611   1.674   2.568
 4268TIP3    H212811   0.657   1.582   2.679
 4269TIP3   OH212812   0.473   4.260   3.632
 4269TIP3    H112813   0.404   4.275   3.697
 4269TIP3    H212814   0.552   4.248   3.684
 4270TIP3   OH212815   0.778   5.579   4.273
 4270TIP3    H112816   0.772   5.669   4.305
 4270TIP3    H212817   0.769   5.587   4.178
 4271TIP3   OH212818   4.480   2.204   3.293
 4271TIP3    H112819   4.535   2.161   3.226
 4271TIP3    H212820   4.408   2.243   3.243
 4272TIP3   OH212821   4.263   3.507   2.826
 4272TIP3    H112822   4.307   3.444   2.769
 4272TIP3    H212823   4.234   3.576   2.767
 4273TIP3   OH212824   0.103   3.732   5.118
 4273TIP3    H112825   0.196   3.757   5.113
 4273TIP3    H212826   0.101   3.643   5.084
 4274TIP3   OH212827   3.912   2.784   2.658
 4274TIP3    H112828   4.001   2.812   2.638
 4274TIP3    H212829   3.924   2.710   2.717
 4275TIP3   OH212830   4.897   1.290   0.306
 4275TIP3    H112831   4.954   1.220   0.275
 4275TIP3    H212832   4.855   1.254   0.384
 4276TIP3   OH212833   3.235   3.928   0.796
 4276TIP3    H112834   3.325   3.916   0.768
 4276TIP3    H212835   3.205   3.840   0.819
 4277TIP3   OH212836   0.987   5.280   0.728
 4277TIP3    H112837   1.039   5.227   0.667
 4277TIP3    H212838   0.998   5.370   0.697
 4278TIP3   OH212839   1.775   1.662   3.462
 4278TIP3    H112840   1.822   1.711   3.395
 4278TIP3    H212841   1.822   1.579   3.470
 4279TIP3   OH212842   6.333   5.319   1.992
 4279TIP3    H112843   6.374   5.405   1.999
 4279TIP3    H212844   6.292   5.306   2.077
 4280TIP3   OH212845   2.364   1.103   1.643
 4280TIP3    H112846   2.398   1.046   1.712
 4280TIP3    H212847   2.334   1.043   1.574
 4281TIP3   OH212848   3.599   1.900   0.622
 4281TIP3    H112849   3.637   1.946   0.697
 4281TIP3    H212850   3.669   1.841   0.593
 4282TIP3   OH212851   3.100   0.335   2.453
 4282TIP3    H112852   3.176   0.392   2.446
 4282TIP3    H212853   3.045   0.358   2.378
 4283TIP3   OH212854   0.714   0.721   2.498
 4283TIP3    H112855   0.784   0.783   2.478
 4283TIP3    H212856   0.656   0.724   2.422
 4284TIP3   OH212857   1.781   5.812   2.552
 4284TIP3    H112858   1.708   5.760   2.516
 4284TIP3    H212859   1.796   5.879   2.486
 4285TIP3   OH212860   1.323   3.608   1.326
 4285TIP3    H112861   1.259   3.603   1.396
 4285TIP3    H212862   1.379   3.531   1.337
 4286TIP3   OH212863   4.319   1.419   4.511
 4286TIP3    H112864   4.318   1.394   4.604
 4286TIP3    H212865   4.390   1.368   4.473
 4287TIP3   OH212866   5.864   4.292   3.378
 4287TIP3    H112867   5.830   4.259   3.461
 4287TIP3    H212868   5.788   4.331   3.335
 4288TIP3   OH212869   6.157   1.879   1.362
 4288TIP3    H112870   6.118   1.966   1.362
 4288TIP3    H212871   6.251   1.894   1.364
 4289TIP3   OH212872   6.148   0.923   1.985
 4289TIP3    H112873   6.066   0.886   2.017
 4289TIP3    H212874   6.144   0.911   1.890
 4290TIP3   OH212875   5.037   4.057   3.942
 4290TIP3    H112876   5.098   4.032   3.873
 4290TIP3    H212877   5.001   3.974   3.974
 4291TIP3   OH212878   1.827   4.066   1.964
 4291TIP3    H112879   1.842   4.053   2.058
 4291TIP3    H212880   1.898   4.125   1.937
 4292TIP3   OH212881   4.176   3.237   2.728
 4292TIP3    H112882   4.131   3.260   2.647
 4292TIP3    H212883   4.111   3.188   2.778
 4293TIP3   OH212884   3.188   4.635   3.755
 4293TIP3    H112885   3.255   4.648   3.688
 4293TIP3    H212886   3.176   4.540   3.759
 4294TIP3   OH212887   4.929   3.450   4.246
 4294TIP3    H112888   4.864   3.478   4.181
 4294TIP3    H212889   5.000   3.413   4.193
 4295TIP3   OH212890   5.701   1.870   3.801
 4295TIP3    H112891   5.723   1.862   3.894
 4295TIP3    H212892   5.781   1.905   3.761
 4296TIP3   OH212893   5.132   3.935   4.503
 4296TIP3    H112894   5.079   3.897   4.432
 4296TIP3    H212895   5.221   3.935   4.469
 4297TIP3   OH212896   2.654   2.389   2.992
 4297TIP3    H112897   2.669   2.330   3.066
 4297TIP3    H212898   2.663   2.333   2.914
 4298TIP3   OH212899   3.270   3.713   1.564
 4298TIP3    H112900   3.260   3.667   1.647
 4298TIP3    H212901   3.201   3.780   1.565
 4299TIP3   OH212902   1.212   3.661   2.340
 4299TIP3    H112903   1.227   3.738   2.285
 4299TIP3    H212904   1.299   3.628   2.360
 4300TIP3   OH212905   5.415   1.554   2.234
 4300TIP3    H112906   5.396   1.511   2.318
 4300TIP3    H212907   5.402   1.647   2.251
 4301TIP3   OH212908   0.810   3.663   1.787
 4301TIP3    H112909   0.830   3.601   1.857
 4301TIP3    H212910   0.876   3.732   1.797
 4302TIP3   OH212911   2.509   4.611   0.833
 4302TIP3    H112912   2.552   4.595   0.917
 4302TIP3    H212913   2.519   4.529   0.785
 4303TIP3   OH212914   2.122   2.320   1.377
 4303TIP3    H112915   2.097   2.306   1.286
 4303TIP3    H212916   2.041   2.343   1.422
 4304TIP3   OH212917   4.866   5.122   0.939
 4304TIP3    H112918   4.899   5.105   0.851
 4304TIP3    H212919   4.943   5.115   0.996
 4305TIP3   OH212920   1.280   5.162   0.940
 4305TIP3    H112921   1.234   5.092   0.893
 4305TIP3    H212922   1.259   5.147   1.032
 4306TIP3   OH212923   0.523   5.558   0.473
 4306TIP3    H112924   0.609   5.593   0.448
 4306TIP3    H212925   0.520   5.569   0.568
 4307TIP3   OH212926   4.368   1.022   5.065
 4307TIP3    H112927   4.320   0.982   4.992
 4307TIP3    H212928   4.302   1.035   5.133
 4308TIP3   OH212929   0.960   3.276   0.348
 4308TIP3    H112930   0.869   3.308   0.344
 4308TIP3    H212931   1.005   3.339   0.404
 4309TIP3   OH212932   2.763   2.798   3.064
 4309TIP3    H112933   2.811   2.858   3.121
 4309TIP3    H212934   2.815   2.718   3.065
 4310TIP3   OH212935   5.211   5.232   1.942
 4310TIP3    H112936   5.276   5.169   1.911
 4310TIP3    H212937   5.171   5.267   1.862
 4311TIP3   OH212938   2.685   5.600   0.102
 4311TIP3    H112939   2.779   5.580   0.103
 4311TIP3    H212940   2.680   5.695   0.117
 4312TIP3   OH212941   5.147   5.099   1.624
 4312TIP3    H112942   5.205   5.173   1.644
 4312TIP3    H212943   5.129   5.108   1.530
 4313TIP3   OH212944   3.389   5.688   4.817
 4313TIP3    H112945   3.374   5.767   4.766
 4313TIP3    H212946   3.368   5.616   4.757
 4314TIP3   OH212947   3.477   4.286   1.937
 4314TIP3    H112948   3.501   4.377   1.915
 4314TIP3    H212949   3.395   4.294   1.985
 4315TIP3   OH212950   4.609   5.282   2.523
 4315TIP3    H112951   4.629   5.200   2.568
 4315TIP3    H212952   4.541   5.323   2.576
 4316TIP3   OH212953   4.307   4.910   3.580
 4316TIP3    H112954   4.265   4.949   3.657
 4316TIP3    H212955   4.343   4.827   3.612
 4317TIP3   OH212956   0.503   1.765   4.302
 4317TIP3    H112957   0.453   1.734   4.377
 4317TIP3    H212958   0.571   1.821   4.339
 4318TIP3   OH212959   0.039   2.198   3.994
 4318TIP3    H112960   0.006   2.119   3.951
 4318TIP3    H212961   0.063   2.169   4.082
 4319TIP3   OH212962   0.316   3.646   0.548
 4319TIP3    H112963   0.356   3.638   0.461
 4319TIP3    H212964   0.282   3.736   0.550
 4320TIP3   OH212965   1.523   3.264   0.570
 4320TIP3    H112966   1.512   3.230   0.481
 4320TIP3    H212967   1.616   3.281   0.579
 4321TIP3   OH212968   3.751   0.886   3.353
 4321TIP3    H112969   3.773   0.811   3.298
 4321TIP3    H212970   3.660   0.872   3.378
 4322TIP3   OH212971   3.016   1.498   3.825
 4322TIP3    H112972   3.054   1.509   3.912
 4322TIP3    H212973   2.931   1.542   3.829
 4323TIP3   OH212974   3.641   2.167   0.324
 4323TIP3    H112975   3.653   2.072   0.334
 4323TIP3    H212976   3.723   2.198   0.287
 4324TIP3   OH212977   1.914   5.365   2.852
 4324TIP3    H112978   1.945   5.432   2.913
 4324TIP3    H212979   1.827   5.396   2.825
 4325TIP3   OH212980   1.581   0.872   0.588
 4325TIP3    H112981   1.671   0.840   0.596
 4325TIP3    H212982   1.538   0.843   0.669
 4326TIP3   OH212983   2.995   3.055   1.472
 4326TIP3    H112984   3.069   2.994   1.471
 4326TIP3    H212985   3.017   3.119   1.539
 4327TIP3   OH212986   4.513   3.044   3.261
 4327TIP3    H112987   4.485   2.963   3.304
 4327TIP3    H212988   4.512   3.022   3.168
 4328TIP3   OH212989   1.897   3.442   4.291
 4328TIP3    H112990   1.925   3.532   4.306
 4328TIP3    H212991   1.820   3.431   4.347
 4329TIP3   OH212992   1.394   3.571   3.951
 4329TIP3    H112993   1.347   3.639   3.903
 4329TIP3    H212994   1.332   3.498   3.956
 4330TIP3   OH212995   1.252   4.795   1.382
 4330TIP3    H112996   1.333   4.792   1.330
 4330TIP3    H212997   1.211   4.877   1.357
 4331TIP3   OH212998   3.076   5.041   3.514
 4331TIP3    H112999   3.134   5.068   3.443
 4331TIP3    H213000   3.106   5.092   3.590
 4332TIP3   OH213001   0.136   4.815   1.690
 4332TIP3    H113002   0.230   4.833   1.693
 4332TIP3    H213003   0.107   4.818   1.781
 4333TIP3   OH213004   0.706   2.719  -0.014
 4333TIP3    H113005   0.795   2.752  -0.003
 4333TIP3    H213006   0.670   2.772  -0.085
 4334TIP3   OH213007   5.112   5.171   1.065
 4334TIP3    H113008   5.092   5.264   1.060
 4334TIP3    H213009   5.204   5.164   1.041
 4335TIP3   OH213010   2.829   5.839   0.614
 4335TIP3    H113011   2.753   5.780   0.619
 4335TIP3    H213012   2.820   5.895   0.691
 4336TIP3   OH213013   3.922   0.879   0.647
 4336TIP3    H113014   4.005   0.910   0.684
 4336TIP3    H213015   3.898   0.805   0.702
 4337TIP3   OH213016   1.857   1.282   0.149
 4337TIP3    H113017   1.803   1.230   0.090
 4337TIP3    H213018   1.856   1.370   0.112
 4338TIP3   OH213019   0.574   1.437   1.124
 4338TIP3    H113020   0.567   1.489   1.205
 4338TIP3    H213021   0.625   1.493   1.065
 4339TIP3   OH213022   2.379   3.059   3.580
 4339TIP3    H113023   2.301   3.003   3.571
 4339TIP3    H213024   2.394   3.064   3.674
 4340TIP3   OH213025   1.410   0.791   2.068
 4340TIP3    H113026   1.348   0.791   2.141
 4340TIP3    H213027   1.479   0.851   2.095
 4341TIP3   OH213028   4.823   3.782   2.558
 4341TIP3    H113029   4.911   3.751   2.537
 4341TIP3    H213030   4.837   3.869   2.597
 4342TIP3   OH213031   0.883   5.474   2.151
 4342TIP3    H113032   0.893   5.530   2.074
 4342TIP3    H213033   0.912   5.388   2.121
 4343TIP3   OH213034   1.084   5.774   1.675
 4343TIP3    H113035   1.045   5.837   1.735
 4343TIP3    H213036   1.178   5.784   1.687
 4344TIP3   OH213037   5.398   2.276   2.232
 4344TIP3    H113038   5.425   2.229   2.153
 4344TIP3    H213039   5.333   2.339   2.202
 4345TIP3   OH213040   6.273   3.585   2.238
 4345TIP3    H113041   6.367   3.592   2.254
 4345TIP3    H213042   6.235   3.566   2.323
 4346TIP3   OH213043   2.436   1.535   3.446
 4346TIP3    H113044   2.359   1.590   3.460
 4346TIP3    H213045   2.501   1.595   3.410
 4347TIP3   OH213046   2.015   0.779   4.807
 4347TIP3    H113047   2.022   0.870   4.839
 4347TIP3    H213048   2.023   0.726   4.886
 4348TIP3   OH213049   1.355   5.175   3.127
 4348TIP3    H113050   1.416   5.222   3.184
 4348TIP3    H213051   1.287   5.239   3.106
 4349TIP3   OH213052   1.815   3.728   1.054
 4349TIP3    H113053   1.752   3.722   1.125
 4349TIP3    H213054   1.891   3.678   1.085
 4350TIP3   OH213055   1.193   3.397   4.001
 4350TIP3    H113056   1.202   3.302   4.000
 4350TIP3    H213057   1.118   3.414   4.058
 4351TIP3   OH213058   1.782   1.381   1.591
 4351TIP3    H113059   1.747   1.464   1.623
 4351TIP3    H213060   1.833   1.347   1.664
 4352TIP3   OH213061   3.548   2.174   1.968
 4352TIP3    H113062   3.487   2.149   1.899
 4352TIP3    H213063   3.546   2.101   2.030
 4353TIP3   OH213064   1.096   5.028   1.984
 4353TIP3    H113065   1.048   4.965   1.932
 4353TIP3    H213066   1.122   4.979   2.062
 4354TIP3   OH213067   4.675   4.624   1.293
 4354TIP3    H113068   4.658   4.717   1.280
 4354TIP3    H213069   4.712   4.618   1.381
 4355TIP3   OH213070   3.568   4.893   2.278
 4355TIP3    H113071   3.652   4.846   2.281
 4355TIP3    H213072   3.593   4.985   2.290
 4356TIP3   OH213073   3.863   3.345   3.606
 4356TIP3    H113074   3.773   3.350   3.573
 4356TIP3    H213075   3.917   3.341   3.527
 4357TIP3   OH213076   5.871   1.840   0.845
 4357TIP3    H113077   5.931   1.770   0.869
 4357TIP3    H213078   5.848   1.881   0.929
 4358TIP3   OH213079   0.134   1.244   2.444
 4358TIP3    H113080   0.045   1.242   2.409
 4358TIP3    H213081   0.188   1.212   2.372
 4359TIP3   OH213082   4.143   0.726   1.951
 4359TIP3    H113083   4.142   0.675   2.031
 4359TIP3    H213084   4.177   0.811   1.977
 4360TIP3   OH213085   3.357   0.887   2.042
 4360TIP3    H113086   3.405   0.952   1.991
 4360TIP3    H213087   3.351   0.811   1.984
 4361TIP3   OH213088   0.099   5.536   2.297
 4361TIP3    H113089   0.167   5.503   2.239
 4361TIP3    H213090   0.081   5.624   2.265
 4362TIP3   OH213091   4.032   2.676   3.323
 4362TIP3    H113092   4.016   2.769   3.341
 4362TIP3    H213093   4.105   2.652   3.381
 4363TIP3   OH213094   5.494   3.900   3.287
 4363TIP3    H113095   5.503   3.844   3.210
 4363TIP3    H213096   5.580   3.942   3.295
 4364TIP3   OH213097   2.457   2.001   4.741
 4364TIP3    H113098   2.390   2.054   4.785
 4364TIP3    H213099   2.464   2.039   4.654
 4365TIP3   OH213100   3.738   1.648   2.663
 4365TIP3    H113101   3.809   1.687   2.611
 4365TIP3    H213102   3.659   1.673   2.616
 4366TIP3   OH213103   4.755   1.380   4.075
 4366TIP3    H113104   4.705   1.407   3.998
 4366TIP3    H213105   4.696   1.394   4.149
 4367TIP3   OH213106   2.866   2.723   3.426
 4367TIP3    H113107   2.902   2.645   3.468
 4367TIP3    H213108   2.772   2.719   3.445
 4368TIP3   OH213109   2.959   2.255   5.130
 4368TIP3    H113110   2.941   2.316   5.202
 4368TIP3    H213111   2.992   2.310   5.060
 4369TIP3   OH213112   2.223   3.017   4.263
 4369TIP3    H113113   2.162   3.023   4.190
 4369TIP3    H213114   2.202   3.091   4.319
 4370TIP3   OH213115   4.945   4.848   2.050
 4370TIP3    H113116   4.964   4.757   2.070
 4370TIP3    H213117   4.928   4.849   1.956
 4371TIP3   OH213118   0.708   5.823   4.400
 4371TIP3    H113119   0.627   5.873   4.396
 4371TIP3    H213120   0.777   5.888   4.414
 4372TIP3   OH213121   4.306   1.753   3.268
 4372TIP3    H113122   4.294   1.789   3.180
 4372TIP3    H213123   4.217   1.735   3.299
 4373TIP3   OH213124   1.571   2.288   3.126
 4373TIP3    H113125   1.634   2.216   3.127
 4373TIP3    H213126   1.567   2.315   3.034
 4374TIP3   OH213127   0.268   2.309   2.589
 4374TIP3    H113128   0.181   2.332   2.621
 4374TIP3    H213129   0.293   2.383   2.533
 4375TIP3   OH213130   4.853   1.964   5.193
 4375TIP3    H113131   4.819   2.053   5.202
 4375TIP3    H213132   4.896   1.963   5.108
 4376TIP3   OH213133   3.192   2.098   3.539
 4376TIP3    H113134   3.245   2.112   3.618
 4376TIP3    H213135   3.186   2.003   3.530
 4377TIP3   OH213136   3.861   5.084   0.179
 4377TIP3    H113137   3.898   5.098   0.092
 4377TIP3    H213138   3.817   4.999   0.173
 4378TIP3   OH213139   2.199   4.705   0.008
 4378TIP3    H113140   2.159   4.660   0.083
 4378TIP3    H213141   2.132   4.767  -0.020
 4379TIP3   OH213142   6.202   1.308   1.760
 4379TIP3    H113143   6.111   1.309   1.791
 4379TIP3    H213144   6.237   1.393   1.786
 4380TIP3   OH213145   2.167   2.658   0.821
 4380TIP3    H113146   2.124   2.633   0.902
 4380TIP3    H213147   2.099   2.699   0.768
 4381TIP3   OH213148   0.726   1.711   3.010
 4381TIP3    H113149   0.686   1.783   2.963
 4381TIP3    H213150   0.698   1.632   2.964
 4382TIP3   OH213151   2.395   2.616   0.109
 4382TIP3    H113152   2.372   2.649   0.196
 4382TIP3    H213153   2.416   2.694   0.059
 4383TIP3   OH213154   0.534   4.886   0.507
 4383TIP3    H113155   0.494   4.973   0.510
 4383TIP3    H213156   0.514   4.855   0.418
 4384TIP3   OH213157   3.060   0.397   4.122
 4384TIP3    H113158   3.089   0.408   4.213
 4384TIP3    H213159   2.965   0.392   4.127
 4385TIP3   OH213160   4.982   2.519   3.649
 4385TIP3    H113161   5.042   2.446   3.632
 4385TIP3    H213162   4.963   2.512   3.743
 4386TIP3   OH213163   4.812   2.556   4.341
 4386TIP3    H113164   4.882   2.616   4.313
 4386TIP3    H213165   4.781   2.516   4.259
 4387TIP3   OH213166   4.135   0.325   0.882
 4387TIP3    H113167   4.073   0.303   0.952
 4387TIP3    H213168   4.208   0.368   0.927
 4388TIP3   OH213169   1.564   4.605   2.948
 4388TIP3    H113170   1.555   4.700   2.950
 4388TIP3    H213171   1.654   4.589   2.921
 4389TIP3   OH213172   6.212   3.118   0.241
 4389TIP3    H113173   6.221   3.174   0.318
 4389TIP3    H213174   6.241   3.031   0.271
 4390TIP3   OH213175   5.560   4.381  -0.003
 4390TIP3    H113176   5.556   4.475   0.016
 4390TIP3    H213177   5.652   4.359   0.008
 4391TIP3   OH213178   5.856   4.332   0.371
 4391TIP3    H113179   5.834   4.240   0.390
 4391TIP3    H213180   5.773   4.374   0.354
 4392TIP3   OH213181   5.062   1.884   4.113
 4392TIP3    H113182   5.085   1.792   4.098
 4392TIP3    H213183   5.061   1.894   4.208
 4393TIP3   OH213184   0.678   2.171   2.533
 4393TIP3    H113185   0.737   2.103   2.499
 4393TIP3    H213186   0.599   2.123   2.560
 4394TIP3   OH213187   2.153   1.872   1.974
 4394TIP3    H113188   2.091   1.826   1.918
 4394TIP3    H213189   2.216   1.911   1.913
 4395TIP3   OH213190   3.475   1.670   0.365
 4395TIP3    H113191   3.430   1.630   0.439
 4395TIP3    H213192   3.568   1.654   0.382
 4396TIP3   OH213193   4.137   5.107   1.759
 4396TIP3    H113194   4.093   5.165   1.821
 4396TIP3    H213195   4.159   5.029   1.810
 4397TIP3   OH213196   5.997   3.323   4.882
 4397TIP3    H113197   5.943   3.376   4.941
 4397TIP3    H213198   5.937   3.299   4.811
 4398TIP3   OH213199   0.515   4.650   3.030
 4398TIP3    H113200   0.563   4.646   2.948
 4398TIP3    H213201   0.581   4.678   3.094
 4399TIP3   OH213202   4.524   2.424   4.586
 4399TIP3    H113203   4.437   2.428   4.627
 4399TIP3    H213204   4.533   2.508   4.540
 4400TIP3   OH213205   0.105   1.502   4.977
 4400TIP3    H113206   0.112   1.565   5.049
 4400TIP3    H213207   0.128   1.552   4.899
 4401TIP3   OH213208   4.796   0.478   2.636
 4401TIP3    H113209   4.708   0.461   2.671
 4401TIP3    H213210   4.855   0.448   2.705
 4402TIP3   OH213211   2.512   1.677   1.188
 4402TIP3    H113212   2.587   1.735   1.199
 4402TIP3    H213213   2.441   1.734   1.157
 4403TIP3   OH213214   4.997   5.966   2.793
 4403TIP3    H113215   4.940   6.034   2.828
 4403TIP3    H213216   4.944   5.886   2.796
 4404TIP3   OH213217   6.207   5.905   2.321
 4404TIP3    H113218   6.241   5.954   2.395
 4404TIP3    H213219   6.282   5.854   2.290
 4405TIP3   OH213220   1.086   3.051   2.308
 4405TIP3    H113221   1.009   3.004   2.276
 4405TIP3    H213222   1.080   3.046   2.403
 4406TIP3   OH213223   5.705   2.351   3.887
 4406TIP3    H113224   5.754   2.280   3.928
 4406TIP3    H213225   5.743   2.431   3.924
 4407TIP3   OH213226   5.179   5.052   4.852
 4407TIP3    H113227   5.165   5.004   4.934
 4407TIP3    H213228   5.274   5.057   4.844
 4408TIP3   OH213229   1.928   1.366   4.523
 4408TIP3    H113230   1.971   1.392   4.441
 4408TIP3    H213231   1.922   1.271   4.518
 4409TIP3   OH213232   4.104   4.276   2.408
 4409TIP3    H113233   4.018   4.248   2.376
 4409TIP3    H213234   4.161   4.268   2.332
 4410TIP3   OH213235   6.345   4.521   4.111
 4410TIP3    H113236   6.288   4.564   4.047
 4410TIP3    H213237   6.330   4.428   4.097
 4411TIP3   OH213238   0.501   5.928   3.845
 4411TIP3    H113239   0.423   5.974   3.813
 4411TIP3    H213240   0.471   5.838   3.859
 4412TIP3   OH213241   4.552   3.500   2.377
 4412TIP3    H113242   4.608   3.484   2.453
 4412TIP3    H213243   4.466   3.468   2.404
 4413TIP3   OH213244   0.536   5.755   0.166
 4413TIP3    H113245   0.464   5.806   0.128
 4413TIP3    H213246   0.517   5.754   0.260
 4414TIP3   OH213247   3.346   2.487   4.073
 4414TIP3    H113248   3.360   2.525   3.986
 4414TIP3    H213249   3.289   2.550   4.117
 4415TIP3   OH213250   2.877   2.415   2.459
 4415TIP3    H113251   2.928   2.495   2.473
 4415TIP3    H213252   2.931   2.362   2.400
 4416TIP3   OH213253   1.521   0.528   2.128
 4416TIP3    H113254   1.480   0.615   2.127
 4416TIP3    H213255   1.501   0.494   2.216
 4417TIP3   OH213256   5.504   0.991   3.839
 4417TIP3    H113257   5.499   0.930   3.765
 4417TIP3    H213258   5.561   1.062   3.809
 4418TIP3   OH213259   3.950   4.286   4.598
 4418TIP3    H113260   3.997   4.359   4.557
 4418TIP3    H213261   3.927   4.229   4.525
 4419TIP3   OH213262   5.417   5.545   0.468
 4419TIP3    H113263   5.447   5.455   0.474
 4419TIP3    H213264   5.366   5.548   0.387
 4420TIP3   OH213265   1.027   0.692   3.081
 4420TIP3    H113266   0.952   0.632   3.073
 4420TIP3    H213267   1.095   0.640   3.123
 4421TIP3   OH213268   5.447   1.487   0.068
 4421TIP3    H113269   5.450   1.528   0.155
 4421TIP3    H213270   5.538   1.462   0.051
 4422TIP3   OH213271   2.307   1.770   4.694
 4422TIP3    H113272   2.385   1.815   4.726
 4422TIP3    H213273   2.333   1.737   4.608
 4423TIP3   OH213274   1.547   3.503   0.382
 4423TIP3    H113275   1.600   3.554   0.321
 4423TIP3    H213276   1.606   3.436   0.416
 4424TIP3   OH213277   4.831   3.199   1.343
 4424TIP3    H113278   4.894   3.249   1.290
 4424TIP3    H213279   4.834   3.241   1.429
 4425TIP3   OH213280   4.639   3.907   1.560
 4425TIP3    H113281   4.606   3.826   1.600
 4425TIP3    H213282   4.733   3.892   1.549
 4426TIP3   OH213283   1.675   4.921   1.669
 4426TIP3    H113284   1.742   4.982   1.700
 4426TIP3    H213285   1.663   4.860   1.743
 4427TIP3   OH213286   6.230   3.722   4.922
 4427TIP3    H113287   6.211   3.784   4.852
 4427TIP3    H213288   6.259   3.776   4.996
 4428TIP3   OH213289   4.398   1.358   0.225
 4428TIP3    H113290   4.366   1.441   0.190
 4428TIP3    H213291   4.329   1.295   0.204
 4429TIP3   OH213292   3.653   4.653   4.150
 4429TIP3    H113293   3.588   4.641   4.081
 4429TIP3    H213294   3.697   4.736   4.128
 4430TIP3   OH213295   5.743   1.422   2.667
 4430TIP3    H113296   5.784   1.342   2.635
 4430TIP3    H213297   5.710   1.399   2.754
 4431TIP3   OH213298   4.898   3.370   0.031
 4431TIP3    H113299   4.873   3.327   0.114
 4431TIP3    H213300   4.984   3.408   0.049
 4432TIP3   OH213301   1.507   2.988   4.963
 4432TIP3    H113302   1.515   3.073   5.006
 4432TIP3    H213303   1.443   2.941   5.017
 4433TIP3   OH213304   2.057   1.925   2.820
 4433TIP3    H113305   2.013   1.867   2.757
 4433TIP3    H213306   2.062   2.009   2.776
 4434TIP3   OH213307   4.795   4.820   0.794
 4434TIP3    H113308   4.700   4.820   0.783
 4434TIP3    H213309   4.809   4.816   0.889
 4435TIP3   OH213310   5.615   2.288   1.333
 4435TIP3    H113311   5.533   2.322   1.368
 4435TIP3    H213312   5.647   2.227   1.400
 4436TIP3   OH213313   6.114   0.833   0.812
 4436TIP3    H113314   6.188   0.892   0.826
 4436TIP3    H213315   6.148   0.747   0.837
 4437TIP3   OH213316   3.373   5.931   4.683
 4437TIP3    H113317   3.349   5.925   4.590
 4437TIP3    H213318   3.335   6.014   4.712
 4438TIP3   OH213319   4.157   2.919   3.322
 4438TIP3    H113320   4.101   2.971   3.380
 4438TIP3    H213321   4.236   2.903   3.374
 4439TIP3   OH213322   3.803   4.754   2.247
 4439TIP3    H113323   3.856   4.817   2.199
 4439TIP3    H213324   3.866   4.688   2.279
 4440TIP3   OH213325   0.370   1.613   1.075
 4440TIP3    H113326   0.394   1.521   1.089
 4440TIP3    H213327   0.449   1.653   1.040
 4441TIP3   OH213328   4.802   0.236   0.987
 4441TIP3    H113329   4.718   0.274   0.961
 4441TIP3    H213330   4.868   0.298   0.955
 4442TIP3   OH213331   3.536   1.103   3.433
 4442TIP3    H113332   3.565   1.091   3.523
 4442TIP3    H213333   3.505   1.016   3.406
 4443TIP3   OH213334   1.686   0.030   3.329
 4443TIP3    H113335   1.672   0.124   3.324
 4443TIP3    H213336   1.777   0.018   3.302
 4444TIP3   OH213337   0.221   1.839   4.237
 4444TIP3    H113338   0.299   1.827   4.291
 4444TIP3    H213339   0.255   1.845   4.148
 4445TIP3   OH213340   3.422   4.229   3.132
 4445TIP3    H113341   3.435   4.205   3.041
 4445TIP3    H213342   3.355   4.168   3.164
 4446TIP3   OH213343   3.562   3.424   2.699
 4446TIP3    H113344   3.558   3.341   2.747
 4446TIP3    H213345   3.550   3.400   2.607
 4447TIP3   OH213346   0.903   1.226   1.051
 4447TIP3    H113347   0.832   1.192   0.997
 4447TIP3    H213348   0.911   1.318   1.026
 4448TIP3   OH213349   2.003   2.918   3.148
 4448TIP3    H113350   1.991   2.841   3.204
 4448TIP3    H213351   1.930   2.913   3.086
 4449TIP3   OH213352   5.493   1.237   4.716
 4449TIP3    H113353   5.546   1.173   4.763
 4449TIP3    H213354   5.416   1.251   4.773
 4450TIP3   OH213355   4.411   3.744   3.705
 4450TIP3    H113356   4.341   3.799   3.740
 4450TIP3    H213357   4.465   3.722   3.781
 4451TIP3   OH213358   4.939   5.487   3.994
 4451TIP3    H113359   4.953   5.485   3.899
 4451TIP3    H213360   4.894   5.405   4.013
 4452TIP3   OH213361   1.679   5.188   2.625
 4452TIP3    H113362   1.712   5.270   2.588
 4452TIP3    H213363   1.755   5.129   2.624
 4453TIP3   OH213364   6.274   4.277   2.346
 4453TIP3    H113365   6.336   4.260   2.417
 4453TIP3    H213366   6.328   4.282   2.268
 4454TIP3   OH213367   2.535   5.738   1.888
 4454TIP3    H113368   2.561   5.736   1.796
 4454TIP3    H213369   2.452   5.786   1.888
 4455TIP3   OH213370   2.069   5.744   3.219
 4455TIP3    H113371   2.008   5.817   3.228
 4455TIP3    H213372   2.132   5.773   3.154
 4456TIP3   OH213373   6.117   1.687   3.567
 4456TIP3    H113374   6.068   1.677   3.486
 4456TIP3    H213375   6.182   1.755   3.548
 4457TIP3   OH213376   5.065   3.348   1.286
 4457TIP3    H113377   5.152   3.337   1.324
 4457TIP3    H213378   5.064   3.292   1.209
 4458TIP3   OH213379   4.607   1.005   2.687
 4458TIP3    H113380   4.688   0.992   2.638
 4458TIP3    H213381   4.608   1.097   2.713
 4459TIP3   OH213382   5.063   5.075   2.127
 4459TIP3    H113383   5.110   5.111   2.052
 4459TIP3    H213384   5.008   5.006   2.090
 4460TIP3   OH213385   2.871   1.226   1.132
 4460TIP3    H113386   2.832   1.203   1.216
 4460TIP3    H213387   2.909   1.144   1.099
 4461TIP3   OH213388   3.755   2.888   3.044
 4461TIP3    H113389   3.782   2.799   3.063
 4461TIP3    H213390   3.767   2.936   3.126
 4462TIP3   OH213391   2.758   1.395   4.887
 4462TIP3    H113392   2.709   1.394   4.804
 4462TIP3    H213393   2.830   1.455   4.872
 4463TIP3   OH213394   3.097   3.035   4.413
 4463TIP3    H113395   3.031   3.061   4.348
 4463TIP3    H213396   3.179   3.035   4.364
 4464TIP3   OH213397   5.619   0.403   1.192
 4464TIP3    H113398   5.558   0.465   1.152
 4464TIP3    H213399   5.665   0.454   1.258
 4465TIP3   OH213400   3.616   2.050   5.161
 4465TIP3    H113401   3.531   2.079   5.129
 4465TIP3    H213402   3.650   2.124   5.212
 4466TIP3   OH213403   0.142   5.211   0.665
 4466TIP3    H113404   0.057   5.169   0.676
 4466TIP3    H213405   0.125   5.285   0.606
 4467TIP3   OH213406   0.252   2.093   5.016
 4467TIP3    H113407   0.293   2.035   5.080
 4467TIP3    H213408   0.162   2.105   5.048
 4468TIP3   OH213409   2.472   5.992   4.780
 4468TIP3    H113410   2.549   5.940   4.759
 4468TIP3    H213411   2.486   6.019   4.871
 4469TIP3   OH213412   1.131   2.984   1.762
 4469TIP3    H113413   1.090   3.018   1.842
 4469TIP3    H213414   1.064   2.928   1.723
 4470TIP3   OH213415   3.556   5.314   3.477
 4470TIP3    H113416   3.631   5.360   3.515
 4470TIP3    H213417   3.592   5.272   3.399
 4471TIP3   OH213418   3.215   5.952   3.520
 4471TIP3    H113419   3.155   5.923   3.588
 4471TIP3    H213420   3.158   5.997   3.456
 4472TIP3   OH213421   1.785   2.592   4.109
 4472TIP3    H113422   1.767   2.546   4.191
 4472TIP3    H213423   1.815   2.679   4.136
 4473TIP3   OH213424   1.906   2.472   5.046
 4473TIP3    H113425   1.987   2.521   5.064
 4473TIP3    H213426   1.891   2.485   4.952
 4474TIP3   OH213427   3.821   3.825   3.849
 4474TIP3    H113428   3.781   3.804   3.933
 4474TIP3    H213429   3.822   3.742   3.801
 4475TIP3   OH213430   2.734   5.239   2.327
 4475TIP3    H113431   2.785   5.320   2.337
 4475TIP3    H213432   2.669   5.259   2.260
 4476TIP3   OH213433   4.830   3.868   4.410
 4476TIP3    H113434   4.877   3.858   4.327
 4476TIP3    H213435   4.740   3.888   4.385
 4477TIP3   OH213436   3.406   4.181   2.301
 4477TIP3    H113437   3.470   4.169   2.232
 4477TIP3    H213438   3.441   4.132   2.376
 4478TIP3   OH213439   0.345   5.012   1.776
 4478TIP3    H113440   0.364   4.945   1.710
 4478TIP3    H213441   0.336   5.093   1.725
 4479TIP3   OH213442   6.252   4.386   0.376
 4479TIP3    H113443   6.339   4.407   0.343
 4479TIP3    H213444   6.267   4.321   0.445
 4480TIP3   OH213445   4.334   3.952   2.919
 4480TIP3    H113446   4.257   3.981   2.869
 4480TIP3    H213447   4.324   3.994   3.004
 4481TIP3   OH213448   0.090   4.548   0.729
 4481TIP3    H113449   0.044   4.617   0.777
 4481TIP3    H213450   0.020   4.489   0.699
 4482TIP3   OH213451   2.509   2.541   1.612
 4482TIP3    H113452   2.482   2.523   1.702
 4482TIP3    H213453   2.538   2.632   1.614
 4483TIP3   OH213454   6.087   5.181   0.905
 4483TIP3    H113455   6.118   5.215   0.989
 4483TIP3    H213456   6.061   5.258   0.855
 4484TIP3   OH213457   6.108   1.897   2.162
 4484TIP3    H113458   6.018   1.899   2.132
 4484TIP3    H213459   6.109   1.832   2.232
 4485TIP3   OH213460   0.431   1.073   3.236
 4485TIP3    H113461   0.502   1.048   3.177
 4485TIP3    H213462   0.467   1.059   3.324
 4486TIP3   OH213463   4.081   3.347   1.918
 4486TIP3    H113464   4.075   3.322   2.011
 4486TIP3    H213465   4.148   3.288   1.883
 4487TIP3   OH213466   5.259   4.409   2.752
 4487TIP3    H113467   5.232   4.462   2.827
 4487TIP3    H213468   5.287   4.474   2.686
 4488TIP3   OH213469   1.273   3.640   3.554
 4488TIP3    H113470   1.309   3.695   3.623
 4488TIP3    H213471   1.318   3.668   3.474
 4489TIP3   OH213472   5.960   2.111   2.785
 4489TIP3    H113473   5.868   2.110   2.757
 4489TIP3    H213474   6.007   2.147   2.710
 4490TIP3   OH213475   0.486   3.607   2.204
 4490TIP3    H113476   0.556   3.543   2.215
 4490TIP3    H213477   0.459   3.597   2.113
 4491TIP3   OH213478   2.341   1.820   0.019
 4491TIP3    H113479   2.382   1.906   0.026
 4491TIP3    H213480   2.411   1.763  -0.014
 4492TIP3   OH213481   4.790   2.726   0.452
 4492TIP3    H113482   4.695   2.726   0.443
 4492TIP3    H213483   4.815   2.817   0.432
 4493TIP3   OH213484   5.031   2.198   2.281
 4493TIP3    H113485   5.025   2.293   2.269
 4493TIP3    H213486   5.041   2.164   2.192
 4494TIP3   OH213487   5.034   4.044   2.942
 4494TIP3    H113488   4.964   3.987   2.973
 4494TIP3    H213489   5.014   4.057   2.849
 4495TIP3   OH213490   0.302   1.926   4.797
 4495TIP3    H113491   0.387   1.886   4.814
 4495TIP3    H213492   0.277   1.965   4.881
 4496TIP3   OH213493   3.919   0.675   0.837
 4496TIP3    H113494   3.901   0.616   0.910
 4496TIP3    H213495   4.003   0.715   0.857
 4497TIP3   OH213496   2.193   4.304   0.669
 4497TIP3    H113497   2.113   4.251   0.668
 4497TIP3    H213498   2.206   4.327   0.761
 4498TIP3   OH213499   4.161   1.898   2.620
 4498TIP3    H113500   4.138   1.818   2.668
 4498TIP3    H213501   4.127   1.883   2.532
 4499TIP3   OH213502   2.869   5.710   1.238
 4499TIP3    H113503   2.935   5.757   1.186
 4499TIP3    H213504   2.802   5.684   1.174
 4500TIP3   OH213505   2.536   4.112   1.517
 4500TIP3    H113506   2.451   4.144   1.488
 4500TIP3    H213507   2.589   4.107   1.437
 4501TIP3   OH213508   0.792   5.756   0.203
 4501TIP3    H113509   0.702   5.780   0.179
 4501TIP3    H213510   0.795   5.661   0.195
 4502TIP3   OH213511   4.159   4.381   4.930
 4502TIP3    H113512   4.129   4.422   5.012
 4502TIP3    H213513   4.254   4.393   4.931
 4503TIP3   OH213514   4.036   2.814   4.771
 4503TIP3    H113515   3.976   2.820   4.697
 4503TIP3    H213516   4.039   2.903   4.807
 4504TIP3   OH213517  -0.024   4.854   4.681
 4504TIP3    H113518   0.046   4.806   4.636
 4504TIP3    H213519  -0.020   4.823   4.771
 4505TIP3   OH213520   0.822   5.938   0.504
 4505TIP3    H113521   0.729   5.953   0.490
 4505TIP3    H213522   0.828   5.905   0.594
 4506TIP3   OH213523   4.394   4.289   0.074
 4506TIP3    H113524   4.412   4.242  -0.008
 4506TIP3    H213525   4.475   4.335   0.094
 4507TIP3   OH213526   0.497   2.763   4.027
 4507TIP3    H113527   0.563   2.802   3.970
 4507TIP3    H213528   0.448   2.838   4.062
 4508TIP3   OH213529   0.256   5.083   2.028
 4508TIP3    H113530   0.211   5.164   2.004
 4508TIP3    H213531   0.316   5.068   1.955
 4509TIP3   OH213532   3.550   5.695   2.493
 4509TIP3    H113533   3.540   5.774   2.546
 4509TIP3    H213534   3.610   5.640   2.544
 4510TIP3   OH213535   0.966   5.788   4.591
 4510TIP3    H113536   1.053   5.755   4.612
 4510TIP3    H213537   0.958   5.777   4.496
 4511TIP3   OH213538   1.060   5.681   3.726
 4511TIP3    H113539   1.050   5.767   3.767
 4511TIP3    H213540   1.123   5.696   3.655
 4512TIP3   OH213541   3.611   2.448   4.102
 4512TIP3    H113542   3.618   2.365   4.055
 4512TIP3    H213543   3.521   2.477   4.087
 4513TIP3   OH213544   3.716   1.638   3.849
 4513TIP3    H113545   3.792   1.602   3.894
 4513TIP3    H213546   3.649   1.648   3.917
 4514TIP3   OH213547   3.853   1.373   4.146
 4514TIP3    H113548   3.786   1.333   4.091
 4514TIP3    H213549   3.835   1.467   4.142
 4515TIP3   OH213550   3.034   5.374   0.788
 4515TIP3    H113551   3.101   5.353   0.854
 4515TIP3    H213552   3.004   5.462   0.811
 4516TIP3   OH213553   0.638   0.642   0.850
 4516TIP3    H113554   0.617   0.549   0.853
 4516TIP3    H213555   0.666   0.664   0.939
 4517TIP3   OH213556   1.861   0.284   0.971
 4517TIP3    H113557   1.804   0.216   1.007
 4517TIP3    H213558   1.847   0.360   1.028
 4518TIP3   OH213559   4.251   0.804   3.089
 4518TIP3    H113560   4.218   0.886   3.053
 4518TIP3    H213561   4.275   0.753   3.011
 4519TIP3   OH213562   4.637   3.558   0.468
 4519TIP3    H113563   4.730   3.544   0.489
 4519TIP3    H213564   4.593   3.480   0.501
 4520TIP3   OH213565   3.250   5.799   3.909
 4520TIP3    H113566   3.193   5.723   3.925
 4520TIP3    H213567   3.308   5.771   3.839
 4521TIP3   OH213568   4.436   5.886   1.171
 4521TIP3    H113569   4.422   5.865   1.078
 4521TIP3    H213570   4.480   5.970   1.171
 4522TIP3   OH213571   2.202   5.755   2.989
 4522TIP3    H113572   2.278   5.701   3.013
 4522TIP3    H213573   2.226   5.794   2.905
 4523TIP3   OH213574   2.003   3.826   4.612
 4523TIP3    H113575   2.091   3.862   4.601
 4523TIP3    H213576   1.987   3.831   4.706
 4524TIP3   OH213577   1.302   3.159   4.060
 4524TIP3    H113578   1.330   3.112   3.982
 4524TIP3    H213579   1.231   3.106   4.096
 4525TIP3   OH213580   0.130   3.901   2.310
 4525TIP3    H113581   0.216   3.941   2.298
 4525TIP3    H213582   0.121   3.841   2.236
 4526TIP3   OH213583   4.704   5.042   4.700
 4526TIP3    H113584   4.794   5.031   4.730
 4526TIP3    H213585   4.667   5.109   4.758
 4527TIP3   OH213586   0.195   0.112   1.477
 4527TIP3    H113587   0.279   0.067   1.470
 4527TIP3    H213588   0.195   0.151   1.564
 4528TIP3   OH213589   1.862   0.521   0.802
 4528TIP3    H113590   1.943   0.484   0.768
 4528TIP3    H213591   1.835   0.459   0.871
 4529TIP3   OH213592   1.453   0.954   4.764
 4529TIP3    H113593   1.460   0.939   4.670
 4529TIP3    H213594   1.529   1.008   4.786
 4530TIP3   OH213595   1.717   4.103   1.034
 4530TIP3    H113596   1.724   4.028   0.975
 4530TIP3    H213597   1.631   4.093   1.074
 4531TIP3   OH213598   2.557   5.819   0.928
 4531TIP3    H113599   2.516   5.781   0.850
 4531TIP3    H213600   2.597   5.744   0.972
 4532TIP3   OH213601   4.955   5.314   1.482
 4532TIP3    H113602   5.019   5.259   1.437
 4532TIP3    H213603   5.004   5.356   1.552
 4533TIP3   OH213604   1.896   5.709   3.844
 4533TIP3    H113605   1.826   5.728   3.907
 4533TIP3    H213606   1.976   5.711   3.897
 4534TIP3   OH213607   1.985   5.576   3.002
 4534TIP3    H113608   1.980   5.615   3.090
 4534TIP3    H213609   2.048   5.631   2.955
 4535TIP3   OH213610   0.089   2.967   3.679
 4535TIP3    H113611   0.102   3.028   3.752
 4535TIP3    H213612   0.177   2.949   3.646
 4536TIP3   OH213613   2.095   2.732   4.720
 4536TIP3    H113614   2.112   2.783   4.642
 4536TIP3    H213615   2.122   2.788   4.793
 4537TIP3   OH213616   1.914   1.698   3.161
 4537TIP3    H113617   1.851   1.636   3.126
 4537TIP3    H213618   1.999   1.654   3.155
 4538TIP3   OH213619   3.294   2.912   0.253
 4538TIP3    H113620   3.344   2.868   0.184
 4538TIP3    H213621   3.208   2.929   0.213
 4539TIP3   OH213622   5.829   0.573   4.815
 4539TIP3    H113623   5.817   0.642   4.750
 4539TIP3    H213624   5.841   0.619   4.898
 4540TIP3   OH213625   1.404   3.132   0.334
 4540TIP3    H113626   1.328   3.184   0.306
 4540TIP3    H213627   1.366   3.054   0.375
 4541TIP3   OH213628   0.570   4.848   4.019
 4541TIP3    H113629   0.547   4.899   4.097
 4541TIP3    H213630   0.508   4.877   3.953
 4542TIP3   OH213631   6.050   4.643   2.322
 4542TIP3    H113632   6.076   4.701   2.394
 4542TIP3    H213633   6.054   4.699   2.244
 4543TIP3   OH213634   3.089   0.435   3.369
 4543TIP3    H113635   3.042   0.506   3.412
 4543TIP3    H213636   3.055   0.434   3.280
 4544TIP3   OH213637   2.430   5.350   2.666
 4544TIP3    H113638   2.509   5.399   2.644
 4544TIP3    H213639   2.455   5.258   2.656
 4545TIP3   OH213640   3.653   5.694   3.506
 4545TIP3    H113641   3.634   5.779   3.545
 4545TIP3    H213642   3.623   5.630   3.571
 4546TIP3   OH213643   1.194   0.692   0.319
 4546TIP3    H113644   1.285   0.671   0.341
 4546TIP3    H213645   1.142   0.638   0.379
 4547TIP3   OH213646   5.651   5.496   4.854
 4547TIP3    H113647   5.714   5.508   4.925
 4547TIP3    H213648   5.699   5.446   4.787
 4548TIP3   OH213649   2.720   1.609   3.205
 4548TIP3    H113650   2.666   1.595   3.127
 4548TIP3    H213651   2.684   1.688   3.246
 4549TIP3   OH213652   5.398   1.076   4.521
 4549TIP3    H113653   5.443   1.153   4.557
 4549TIP3    H213654   5.320   1.067   4.576
 4550TIP3   OH213655   0.755   2.547   1.683
 4550TIP3    H113656   0.747   2.619   1.620
 4550TIP3    H213657   0.690   2.483   1.656
 4551TIP3   OH213658   5.475   1.481   0.588
 4551TIP3    H113659   5.534   1.473   0.663
 4551TIP3    H213660   5.467   1.391   0.554
 4552TIP3   OH213661   5.846   3.912   3.520
 4552TIP3    H113662   5.933   3.941   3.493
 4552TIP3    H213663   5.854   3.817   3.529
 4553TIP3   OH213664   3.021   2.283   4.720
 4553TIP3    H113665   2.997   2.326   4.802
 4553TIP3    H213666   2.938   2.271   4.674
 4554TIP3   OH213667   1.368   4.806   5.040
 4554TIP3    H113668   1.286   4.855   5.052
 4554TIP3    H213669   1.371   4.786   4.947
 4555TIP3   OH213670   3.698   3.023   5.202
 4555TIP3    H113671   3.656   3.106   5.180
 4555TIP3    H213672   3.706   2.976   5.119
 4556TIP3   OH213673   4.031   0.685   3.859
 4556TIP3    H113674   4.038   0.695   3.764
 4556TIP3    H213675   4.113   0.719   3.893
 4557TIP3   OH213676   0.429   5.706   4.070
 4557TIP3    H113677   0.362   5.638   4.071
 4557TIP3    H213678   0.509   5.659   4.045
 4558TIP3   OH213679   2.950   2.947   0.714
 4558TIP3    H113680   2.967   2.895   0.635
 4558TIP3    H213681   2.910   3.027   0.682
 4559TIP3   OH213682   3.447   0.311   4.722
 4559TIP3    H113683   3.499   0.282   4.797
 4559TIP3    H213684   3.512   0.340   4.658
 4560TIP3   OH213685   1.213   5.422   3.122
 4560TIP3    H113686   1.212   5.515   3.142
 4560TIP3    H213687   1.125   5.403   3.091
 4561TIP3   OH213688   1.859   0.671   3.564
 4561TIP3    H113689   1.938   0.667   3.619
 4561TIP3    H213690   1.796   0.719   3.618
 4562TIP3   OH213691   2.478   1.950   3.647
 4562TIP3    H113692   2.383   1.942   3.645
 4562TIP3    H213693   2.506   1.921   3.560
 4563TIP3   OH213694   2.728   2.218   2.798
 4563TIP3    H113695   2.746   2.146   2.858
 4563TIP3    H213696   2.660   2.183   2.740
 4564TIP3   OH213697   3.044   5.184   2.398
 4564TIP3    H113698   3.080   5.192   2.310
 4564TIP3    H213699   2.969   5.126   2.389
 4565TIP3   OH213700   5.798   5.106   1.614
 4565TIP3    H113701   5.842   5.148   1.688
 4565TIP3    H213702   5.707   5.096   1.643
 4566TIP3   OH213703   1.461   4.666   0.601
 4566TIP3    H113704   1.445   4.581   0.643
 4566TIP3    H213705   1.460   4.647   0.507
 4567TIP3   OH213706   3.721   2.639   1.884
 4567TIP3    H113707   3.667   2.572   1.927
 4567TIP3    H213708   3.736   2.704   1.952
 4568TIP3   OH213709   2.551   2.202   2.320
 4568TIP3    H113710   2.631   2.156   2.346
 4568TIP3    H213711   2.575   2.294   2.322
 4569TIP3   OH213712   1.697   3.445   2.485
 4569TIP3    H113713   1.754   3.368   2.482
 4569TIP3    H213714   1.676   3.463   2.393
 4570TIP3   OH213715   5.172   3.875   1.905
 4570TIP3    H113716   5.120   3.944   1.947
 4570TIP3    H213717   5.147   3.879   1.813
 4571TIP3   OH213718   5.364   1.782   1.874
 4571TIP3    H113719   5.366   1.688   1.854
 4571TIP3    H213720   5.409   1.789   1.959
 4572TIP3   OH213721   1.554   4.314   1.175
 4572TIP3    H113722   1.489   4.245   1.162
 4572TIP3    H213723   1.612   4.307   1.099
 4573TIP3   OH213724   0.217   3.902   0.455
 4573TIP3    H113725   0.224   3.997   0.466
 4573TIP3    H213726   0.292   3.877   0.402
 4574TIP3   OH213727   3.272   2.705   3.226
 4574TIP3    H113728   3.303   2.756   3.152
 4574TIP3    H213729   3.193   2.750   3.255
 4575TIP3   OH213730   2.476   1.499   3.727
 4575TIP3    H113731   2.571   1.484   3.726
 4575TIP3    H213732   2.453   1.513   3.636
 4576TIP3   OH213733   3.330   3.604   0.649
 4576TIP3    H113734   3.275   3.639   0.578
 4576TIP3    H213735   3.370   3.681   0.689
 4577TIP3   OH213736   4.729   4.273   0.407
 4577TIP3    H113737   4.796   4.208   0.384
 4577TIP3    H213738   4.737   4.282   0.502
 4578TIP3   OH213739   0.809   4.561   0.531
 4578TIP3    H113740   0.865   4.528   0.602
 4578TIP3    H213741   0.828   4.655   0.529
 4579TIP3   OH213742   0.341   2.860   3.616
 4579TIP3    H113743   0.402   2.878   3.545
 4579TIP3    H213744   0.375   2.782   3.659
 4580TIP3   OH213745   2.388   4.380   5.083
 4580TIP3    H113746   2.431   4.458   5.119
 4580TIP3    H213747   2.364   4.405   4.994
 4581TIP3   OH213748   2.980   0.859   4.000
 4581TIP3    H113749   2.972   0.809   4.081
 4581TIP3    H213750   3.066   0.836   3.965
 4582TIP3   OH213751   5.710   1.767   0.420
 4582TIP3    H113752   5.785   1.714   0.397
 4582TIP3    H213753   5.722   1.848   0.371
 4583TIP3   OH213754   5.741   2.946   3.443
 4583TIP3    H113755   5.832   2.945   3.411
 4583TIP3    H213756   5.710   2.857   3.428
 4584TIP3   OH213757   4.865   2.746   3.893
 4584TIP3    H113758   4.947   2.769   3.849
 4584TIP3    H213759   4.840   2.662   3.853
 4585TIP3   OH213760   2.500   4.772   3.233
 4585TIP3    H113761   2.456   4.816   3.160
 4585TIP3    H213762   2.459   4.808   3.311
 4586TIP3   OH213763   2.559   4.864   1.928
 4586TIP3    H113764   2.536   4.951   1.895
 4586TIP3    H213765   2.533   4.866   2.020
 4587TIP3   OH213766   5.496   4.884   1.079
 4587TIP3    H113767   5.553   4.809   1.092
 4587TIP3    H213768   5.408   4.850   1.093
 4588TIP3   OH213769   3.065   5.374   4.375
 4588TIP3    H113770   3.156   5.405   4.376
 4588TIP3    H213771   3.060   5.316   4.300
 4589TIP3   OH213772   5.306   2.505   4.216
 4589TIP3    H113773   5.341   2.542   4.135
 4589TIP3    H213774   5.242   2.440   4.188
 4590TIP3   OH213775   3.101   5.523   3.600
 4590TIP3    H113776   3.084   5.502   3.692
 4590TIP3    H213777   3.191   5.496   3.585
 4591TIP3   OH213778   2.827   2.620   1.730
 4591TIP3    H113779   2.828   2.582   1.642
 4591TIP3    H213780   2.889   2.567   1.780
 4592TIP3   OH213781   5.823   1.651   3.959
 4592TIP3    H113782   5.904   1.672   3.911
 4592TIP3    H213783   5.850   1.650   4.051
 4593TIP3   OH213784   3.543   4.176   4.370
 4593TIP3    H113785   3.578   4.264   4.380
 4593TIP3    H213786   3.551   4.157   4.277
 4594TIP3   OH213787   0.689   5.356   4.913
 4594TIP3    H113788   0.778   5.390   4.905
 4594TIP3    H213789   0.699   5.275   4.963
 4595TIP3   OH213790   4.004   0.304   1.129
 4595TIP3    H113791   4.001   0.208   1.124
 4595TIP3    H213792   4.032   0.322   1.219
 4596TIP3   OH213793   1.386   2.556   0.782
 4596TIP3    H113794   1.349   2.637   0.818
 4596TIP3    H213795   1.329   2.534   0.709
 4597TIP3   OH213796   2.847   5.683   2.505
 4597TIP3    H113797   2.803   5.766   2.489
 4597TIP3    H213798   2.903   5.700   2.581
 4598TIP3   OH213799   2.635   4.012   1.926
 4598TIP3    H113800   2.609   4.099   1.958
 4598TIP3    H213801   2.717   4.028   1.879
 4599TIP3   OH213802   0.106   5.833   4.173
 4599TIP3    H113803   0.066   5.860   4.256
 4599TIP3    H213804   0.191   5.875   4.172
 4600TIP3   OH213805   0.587   2.365   1.538
 4600TIP3    H113806   0.586   2.279   1.580
 4600TIP3    H213807   0.600   2.346   1.445
 4601TIP3   OH213808   0.343   3.547   0.269
 4601TIP3    H113809   0.375   3.466   0.310
 4601TIP3    H213810   0.250   3.531   0.253
 4602TIP3   OH213811   5.568   3.341   4.032
 4602TIP3    H113812   5.565   3.424   4.080
 4602TIP3    H213813   5.542   3.364   3.943
 4603TIP3   OH213814   1.742   2.957   4.472
 4603TIP3    H113815   1.686   3.034   4.466
 4603TIP3    H213816   1.830   2.992   4.487
 4604TIP3   OH213817   0.556   5.812   1.030
 4604TIP3    H113818   0.610   5.840   1.103
 4604TIP3    H213819   0.511   5.734   1.062
 4605TIP3   OH213820   6.000   5.315   4.624
 4605TIP3    H113821   6.013   5.341   4.533
 4605TIP3    H213822   6.080   5.266   4.646
 4606TIP3   OH213823   5.321   0.082   2.293
 4606TIP3    H113824   5.406   0.125   2.291
 4606TIP3    H213825   5.257   0.152   2.279
 4607TIP3   OH213826   3.432   0.617   4.318
 4607TIP3    H113827   3.475   0.536   4.343
 4607TIP3    H213828   3.383   0.643   4.396
 4608TIP3   OH213829   2.244   1.316   4.769
 4608TIP3    H113830   2.185   1.360   4.831
 4608TIP3    H213831   2.189   1.298   4.693
 4609TIP3   OH213832   2.672   2.403   1.265
 4609TIP3    H113833   2.641   2.339   1.328
 4609TIP3    H213834   2.608   2.474   1.268
 4610TIP3   OH213835   3.355   5.819   3.022
 4610TIP3    H113836   3.379   5.732   3.054
 4610TIP3    H213837   3.432   5.873   3.041
 4611TIP3   OH213838   4.094   2.228   2.458
 4611TIP3    H113839   4.096   2.310   2.508
 4611TIP3    H213840   4.162   2.239   2.392
 4612TIP3   OH213841   4.245   5.582   0.341
 4612TIP3    H113842   4.278   5.524   0.409
 4612TIP3    H213843   4.154   5.600   0.366
 4613TIP3   OH213844   6.005   1.372   4.450
 4613TIP3    H113845   6.054   1.329   4.520
 4613TIP3    H213846   6.072   1.405   4.390
 4614TIP3   OH213847   0.962   1.111   3.256
 4614TIP3    H113848   0.915   1.174   3.201
 4614TIP3    H213849   1.054   1.131   3.243
 4615TIP3   OH213850   3.320   5.686  -0.016
 4615TIP3    H113851   3.410   5.713  -0.033
 4615TIP3    H213852   3.328   5.616   0.050
 4616TIP3   OH213853   1.002   1.867   3.572
 4616TIP3    H113854   1.040   1.860   3.660
 4616TIP3    H213855   1.069   1.909   3.519
 4617TIP3   OH213856   3.948   4.729   3.862
 4617TIP3    H113857   3.879   4.667   3.838
 4617TIP3    H213858   4.011   4.675   3.911
 4618TIP3   OH213859   1.056   3.542   3.811
 4618TIP3    H113860   1.027   3.624   3.851
 4618TIP3    H213861   1.113   3.502   3.877
 4619TIP3   OH213862   5.582   4.207   1.153
 4619TIP3    H113863   5.580   4.256   1.071
 4619TIP3    H213864   5.649   4.140   1.139
 4620TIP3   OH213865   4.636   1.509   4.707
 4620TIP3    H113866   4.555   1.459   4.716
 4620TIP3    H213867   4.609   1.600   4.717
 4621TIP3   OH213868   5.174   4.668   2.331
 4621TIP3    H113869   5.160   4.661   2.237
 4621TIP3    H213870   5.200   4.759   2.344
 4622TIP3   OH213871   4.829   4.992   2.480
 4622TIP3    H113872   4.888   4.944   2.422
 4622TIP3    H213873   4.758   5.021   2.423
 4623TIP3   OH213874   3.208   1.858   3.906
 4623TIP3    H113875   3.211   1.910   3.986
 4623TIP3    H213876   3.120   1.874   3.871
 4624TIP3   OH213877   1.189   3.885   1.589
 4624TIP3    H113878   1.152   3.799   1.611
 4624TIP3    H213879   1.132   3.918   1.519
 4625TIP3   OH213880   1.035   4.507   1.887
 4625TIP3    H113881   0.951   4.550   1.900
 4625TIP3    H213882   1.013   4.418   1.860
 4626TIP3   OH213883   4.411   5.396   0.647
 4626TIP3    H113884   4.457   5.352   0.718
 4626TIP3    H213885   4.327   5.351   0.640
 4627TIP3   OH213886   4.553   2.764   0.765
 4627TIP3    H113887   4.570   2.671   0.748
 4627TIP3    H213888   4.532   2.801   0.680
 4628TIP3   OH213889   4.301   3.809   3.294
 4628TIP3    H113890   4.375   3.864   3.268
 4628TIP3    H213891   4.233   3.870   3.322
 4629TIP3   OH213892   2.151   0.340   0.284
 4629TIP3    H113893   2.143   0.285   0.206
 4629TIP3    H213894   2.184   0.424   0.251
 4630TIP3   OH213895   1.914   4.678   1.766
 4630TIP3    H113896   1.820   4.681   1.783
 4630TIP3    H213897   1.933   4.585   1.755
 4631TIP3   OH213898   3.563   1.153   1.327
 4631TIP3    H113899   3.539   1.122   1.240
 4631TIP3    H213900   3.589   1.244   1.314
 4632TIP3   OH213901   1.479   1.934   3.839
 4632TIP3    H113902   1.435   1.857   3.874
 4632TIP3    H213903   1.526   1.901   3.762
 4633TIP3   OH213904   3.501   2.557   2.899
 4633TIP3    H113905   3.532   2.529   2.985
 4633TIP3    H213906   3.407   2.570   2.910
 4634TIP3   OH213907   2.468   0.188   0.707
 4634TIP3    H113908   2.518   0.156   0.633
 4634TIP3    H213909   2.523   0.171   0.783
 4635TIP3   OH213910   0.497   4.854   1.369
 4635TIP3    H113911   0.570   4.909   1.343
 4635TIP3    H213912   0.423   4.885   1.316
 4636TIP3   OH213913   4.930   6.049   0.585
 4636TIP3    H113914   4.994   6.118   0.603
 4636TIP3    H213915   4.908   6.014   0.671
 4637TIP3   OH213916   0.127   5.260   2.564
 4637TIP3    H113917   0.039   5.267   2.528
 4637TIP3    H213918   0.115   5.262   2.659
 4638TIP3   OH213919   6.012   0.538   3.078
 4638TIP3    H113920   5.976   0.593   3.009
 4638TIP3    H213921   5.938   0.484   3.106
 4639TIP3   OH213922   6.216   0.214   0.166
 4639TIP3    H113923   6.234   0.168   0.248
 4639TIP3    H213924   6.134   0.260   0.182
 4640TIP3   OH213925   0.632   1.136   2.316
 4640TIP3    H113926   0.666   1.082   2.244
 4640TIP3    H213927   0.700   1.202   2.331
 4641TIP3   OH213928   2.620   5.019   2.813
 4641TIP3    H113929   2.690   4.954   2.821
 4641TIP3    H213930   2.649   5.077   2.742
 4642TIP3   OH213931   0.846   1.884   3.965
 4642TIP3    H113932   0.795   1.803   3.962
 4642TIP3    H213933   0.846   1.916   3.874
 4643TIP3   OH213934   4.168   0.936   0.728
 4643TIP3    H113935   4.215   0.877   0.670
 4643TIP3    H213936   4.182   0.900   0.816
 4644TIP3   OH213937   1.958   3.012   0.368
 4644TIP3    H113938   1.883   3.000   0.310
 4644TIP3    H213939   2.006   2.929   0.364
 4645TIP3   OH213940   4.824   2.508   3.424
 4645TIP3    H113941   4.821   2.414   3.408
 4645TIP3    H213942   4.867   2.517   3.509
 4646TIP3   OH213943   3.172   2.276   1.728
 4646TIP3    H113944   3.165   2.368   1.754
 4646TIP3    H213945   3.152   2.228   1.808
 4647TIP3   OH213946   1.773   1.466   2.710
 4647TIP3    H113947   1.680   1.455   2.691
 4647TIP3    H213948   1.817   1.449   2.627
 4648TIP3   OH213949   5.760   2.748   1.299
 4648TIP3    H113950   5.819   2.708   1.362
 4648TIP3    H213951   5.735   2.832   1.338
 4649TIP3   OH213952   3.969   3.139   4.222
 4649TIP3    H113953   3.958   3.106   4.133
 4649TIP3    H213954   3.895   3.102   4.271
 4650TIP3   OH213955   4.717   5.367   4.583
 4650TIP3    H113956   4.692   5.311   4.509
 4650TIP3    H213957   4.813   5.372   4.579
 4651TIP3   OH213958   1.895   4.431   1.082
 4651TIP3    H113959   1.801   4.429   1.100
 4651TIP3    H213960   1.901   4.434   0.987
 4652TIP3   OH213961   0.701   2.639   2.920
 4652TIP3    H113962   0.659   2.625   2.835
 4652TIP3    H213963   0.746   2.723   2.911
 4653TIP3   OH213964   0.174   4.827   3.940
 4653TIP3    H113965   0.203   4.737   3.954
 4653TIP3    H213966   0.132   4.853   4.022
 4654TIP3   OH213967   4.979   5.397   1.804
 4654TIP3    H113968   5.024   5.459   1.747
 4654TIP3    H213969   4.887   5.402   1.778
 4655TIP3   OH213970   4.631   1.868   3.693
 4655TIP3    H113971   4.631   1.782   3.650
 4655TIP3    H213972   4.681   1.925   3.635
 4656TIP3   OH213973   0.573  -0.010   2.530
 4656TIP3    H113974   0.645  -0.011   2.467
 4656TIP3    H213975   0.579  -0.094   2.575
 4657TIP3   OH213976   2.484   0.025   1.627
 4657TIP3    H113977   2.409   0.082   1.610
 4657TIP3    H213978   2.560   0.076   1.599
 4658TIP3   OH213979   0.906   4.560   1.527
 4658TIP3    H113980   0.823   4.513   1.529
 4658TIP3    H213981   0.882   4.653   1.532
 4659TIP3   OH213982   4.608   1.739   3.049
 4659TIP3    H113983   4.570   1.804   2.990
 4659TIP3    H213984   4.698   1.728   3.017
 4660TIP3   OH213985   2.365   1.428   2.870
 4660TIP3    H113986   2.314   1.376   2.808
 4660TIP3    H213987   2.318   1.512   2.875
 4661TIP3   OH213988   3.295   4.346   0.901
 4661TIP3    H113989   3.379   4.391   0.894
 4661TIP3    H213990   3.275   4.348   0.995
 4662TIP3   OH213991   5.670   3.565   1.400
 4662TIP3    H113992   5.605   3.612   1.347
 4662TIP3    H213993   5.744   3.627   1.405
 4663TIP3   OH213994   2.407   2.368   3.939
 4663TIP3    H113995   2.412   2.283   3.895
 4663TIP3    H213996   2.443   2.353   4.026
 4664TIP3   OH213997   4.069   4.387   0.363
 4664TIP3    H113998   3.981   4.362   0.389
 4664TIP3    H213999   4.118   4.305   0.359
 4665TIP3   OH214000   3.328   2.994   4.280
 4665TIP3    H114001   3.289   3.026   4.199
 4665TIP3    H214002   3.412   3.040   4.286
 4666TIP3   OH214003   0.387   1.301   1.294
 4666TIP3    H114004   0.457   1.334   1.238
 4666TIP3    H214005   0.428   1.229   1.343
 4667TIP3   OH214006   1.784   4.014   0.277
 4667TIP3    H114007   1.708   3.994   0.222
 4667TIP3    H214008   1.798   4.108   0.264
 4668TIP3   OH214009   2.997   2.587   4.631
 4668TIP3    H114010   2.988   2.567   4.538
 4668TIP3    H214011   2.957   2.673   4.642
 4669TIP3   OH214012   0.924   1.763   3.178
 4669TIP3    H114013   0.972   1.831   3.132
 4669TIP3    H214014   0.847   1.747   3.124
 4670TIP3   OH214015   4.919   0.640   2.986
 4670TIP3    H114016   4.853   0.617   3.051
 4670TIP3    H214017   4.965   0.558   2.968
 4671TIP3   OH214018   0.297   5.289   2.956
 4671TIP3    H114019   0.338   5.214   2.999
 4671TIP3    H214020   0.222   5.252   2.910
 4672TIP3   OH214021   4.138   5.523   4.177
 4672TIP3    H114022   4.118   5.495   4.088
 4672TIP3    H214023   4.153   5.618   4.169
 4673TIP3   OH214024   1.518   1.278   0.544
 4673TIP3    H114025   1.553   1.321   0.622
 4673TIP3    H214026   1.485   1.350   0.490
 4674TIP3   OH214027   5.242   2.952   0.157
 4674TIP3    H114028   5.201   2.957   0.071
 4674TIP3    H214029   5.245   2.858   0.177
 4675TIP3   OH214030   1.416   5.484   2.306
 4675TIP3    H114031   1.374   5.458   2.388
 4675TIP3    H214032   1.431   5.578   2.316
 4676TIP3   OH214033   5.680   1.665   3.466
 4676TIP3    H114034   5.624   1.733   3.504
 4676TIP3    H214035   5.683   1.597   3.533
 4677TIP3   OH214036   5.757   3.549   0.022
 4677TIP3    H114037   5.745   3.640   0.047
 4677TIP3    H214038   5.700   3.538  -0.055
 4678TIP3   OH214039   0.290   4.161   1.104
 4678TIP3    H114040   0.355   4.132   1.040
 4678TIP3    H214041   0.296   4.257   1.102
 4679TIP3   OH214042   2.094   0.705   1.443
 4679TIP3    H114043   2.118   0.707   1.536
 4679TIP3    H214044   2.004   0.736   1.441
 4680TIP3   OH214045   4.016   0.894   0.029
 4680TIP3    H114046   4.079   0.864   0.095
 4680TIP3    H214047   4.066   0.954  -0.026
 4681TIP3   OH214048   1.349   1.820   0.931
 4681TIP3    H114049   1.291   1.808   0.856
 4681TIP3    H214050   1.312   1.895   0.978
 4682TIP3   OH214051   3.446   2.259   0.944
 4682TIP3    H114052   3.440   2.171   0.981
 4682TIP3    H214053   3.387   2.257   0.869
 4683TIP3   OH214054   5.108   1.911   5.077
 4683TIP3    H114055   5.076   1.990   5.034
 4683TIP3    H214056   5.196   1.898   5.040
 4684TIP3   OH214057   5.822   0.253   2.444
 4684TIP3    H114058   5.785   0.321   2.501
 4684TIP3    H214059   5.914   0.249   2.468
 4685TIP3   OH214060   3.420   5.558   1.338
 4685TIP3    H114061   3.447   5.537   1.428
 4685TIP3    H214062   3.339   5.608   1.349
 4686TIP3   OH214063   6.166   0.162   4.583
 4686TIP3    H114064   6.208   0.222   4.645
 4686TIP3    H214065   6.158   0.080   4.632
 4687TIP3   OH214066   3.814   2.727   4.350
 4687TIP3    H114067   3.872   2.802   4.354
 4687TIP3    H214068   3.870   2.651   4.366
 4688TIP3   OH214069   4.059   4.945   1.017
 4688TIP3    H114070   4.063   5.030   1.060
 4688TIP3    H214071   4.093   4.883   1.082
 4689TIP3   OH214072   1.558   1.102   1.502
 4689TIP3    H114073   1.586   1.019   1.464
 4689TIP3    H214074   1.604   1.169   1.452
 4690TIP3   OH214075   1.081   0.573   2.400
 4690TIP3    H114076   1.147   0.637   2.427
 4690TIP3    H214077   1.093   0.563   2.306
 4691TIP3   OH214078   3.699   2.799   1.487
 4691TIP3    H114079   3.608   2.782   1.512
 4691TIP3    H214080   3.728   2.717   1.447
 4692TIP3   OH214081   4.712   2.774   2.290
 4692TIP3    H114082   4.696   2.868   2.281
 4692TIP3    H214083   4.656   2.747   2.362
 4693TIP3   OH214084   5.014   1.290   4.990
 4693TIP3    H114085   4.958   1.365   4.974
 4693TIP3    H214086   5.000   1.233   4.915
 4694TIP3   OH214087   0.742   2.360   2.323
 4694TIP3    H114088   0.753   2.333   2.414
 4694TIP3    H214089   0.682   2.296   2.286
 4695TIP3   OH214090   5.503   3.028   3.280
 4695TIP3    H114091   5.512   2.961   3.348
 4695TIP3    H214092   5.480   3.108   3.328
 4696TIP3   OH214093   3.823   1.266   5.046
 4696TIP3    H114094   3.785   1.200   4.988
 4696TIP3    H214095   3.912   1.235   5.063
 4697TIP3   OH214096   4.077   2.287   4.859
 4697TIP3    H114097   4.037   2.296   4.945
 4697TIP3    H214098   4.048   2.366   4.811
 4698TIP3   OH214099   5.344   3.725   2.531
 4698TIP3    H114100   5.373   3.768   2.451
 4698TIP3    H214101   5.339   3.632   2.508
 4699TIP3   OH214102   2.107   5.578   0.928
 4699TIP3    H114103   2.123   5.670   0.949
 4699TIP3    H214104   2.158   5.563   0.848
 4700TIP3   OH214105   1.740   4.975   2.377
 4700TIP3    H114106   1.654   4.949   2.409
 4700TIP3    H214107   1.801   4.913   2.418
 4701TIP3   OH214108   5.301   2.966   0.458
 4701TIP3    H114109   5.298   3.031   0.387
 4701TIP3    H214110   5.375   2.910   0.436
 4702TIP3   OH214111   1.848   2.681   3.564
 4702TIP3    H114112   1.827   2.597   3.606
 4702TIP3    H214113   1.850   2.744   3.637
 4703TIP3   OH214114   3.387   4.512   2.206
 4703TIP3    H114115   3.335   4.539   2.131
 4703TIP3    H214116   3.472   4.489   2.169
 4704TIP3   OH214117   2.537   3.553   4.798
 4704TIP3    H114118   2.612   3.612   4.805
 4704TIP3    H214119   2.538   3.503   4.879
 4705TIP3   OH214120   0.269   1.862   3.796
 4705TIP3    H114121   0.297   1.773   3.773
 4705TIP3    H214122   0.293   1.872   3.888
 4706TIP3   OH214123   3.403   4.556   1.434
 4706TIP3    H114124   3.429   4.492   1.500
 4706TIP3    H214125   3.448   4.527   1.354
 4707TIP3   OH214126   0.446   3.418   2.711
 4707TIP3    H114127   0.428   3.504   2.673
 4707TIP3    H214128   0.536   3.400   2.687
 4708TIP3   OH214129   3.290   2.008   0.973
 4708TIP3    H114130   3.339   1.956   0.909
 4708TIP3    H214131   3.198   1.989   0.955
 4709TIP3   OH214132   6.401   2.272   1.723
 4709TIP3    H114133   6.382   2.179   1.739
 4709TIP3    H214134   6.396   2.281   1.628
 4710TIP3   OH214135   2.637   5.489   2.549
 4710TIP3    H114136   2.709   5.552   2.557
 4710TIP3    H214137   2.599   5.507   2.464
 4711TIP3   OH214138   4.537   4.550   4.167
 4711TIP3    H114139   4.528   4.456   4.153
 4711TIP3    H214140   4.626   4.561   4.200
 4712TIP3   OH214141   0.782   3.881   4.010
 4712TIP3    H114142   0.687   3.874   4.004
 4712TIP3    H214143   0.804   3.847   4.097
 4713TIP3   OH214144   0.941   2.020   5.112
 4713TIP3    H114145   0.974   1.948   5.166
 4713TIP3    H214146   0.857   2.043   5.152
 4714TIP3   OH214147   1.509   1.896   4.624
 4714TIP3    H114148   1.501   1.891   4.720
 4714TIP3    H214149   1.512   1.990   4.606
 4715TIP3   OH214150   1.883   3.546   5.075
 4715TIP3    H114151   1.823   3.479   5.042
 4715TIP3    H214152   1.840   3.629   5.056
 4716TIP3   OH214153   1.011   1.032   0.795
 4716TIP3    H114154   1.101   1.065   0.799
 4716TIP3    H214155   1.004   0.972   0.869
 4717TIP3   OH214156   4.328   3.814   1.133
 4717TIP3    H114157   4.419   3.842   1.126
 4717TIP3    H214158   4.289   3.874   1.197
 4718TIP3   OH214159   6.281   2.010   4.631
 4718TIP3    H114160   6.192   2.043   4.644
 4718TIP3    H214161   6.318   2.006   4.719
 4719TIP3   OH214162   0.894   0.545   2.615
 4719TIP3    H114163   0.969   0.565   2.559
 4719TIP3    H214164   0.818   0.566   2.561
 4720TIP3   OH214165   1.777   4.202   3.670
 4720TIP3    H114166   1.824   4.166   3.745
 4720TIP3    H214167   1.845   4.222   3.606
 4721TIP3   OH214168   3.635   5.661   2.794
 4721TIP3    H114169   3.703   5.599   2.769
 4721TIP3    H214170   3.553   5.616   2.775
 4722TIP3   OH214171   5.005   5.659   0.762
 4722TIP3    H114172   5.064   5.724   0.725
 4722TIP3    H214173   4.982   5.695   0.848
 4723TIP3   OH214174   1.399   0.549   2.915
 4723TIP3    H114175   1.451   0.501   2.850
 4723TIP3    H214176   1.379   0.633   2.874
 4724TIP3   OH214177   5.677   1.943   1.856
 4724TIP3    H114178   5.733   1.944   1.779
 4724TIP3    H214179   5.597   1.990   1.828
 4725TIP3   OH214180   4.038   3.158   4.619
 4725TIP3    H114181   4.079   3.131   4.701
 4725TIP3    H214182   4.105   3.211   4.575
 4726TIP3   OH214183   5.277   2.872   1.135
 4726TIP3    H114184   5.242   2.831   1.056
 4726TIP3    H214185   5.201   2.885   1.192
 4727TIP3   OH214186   1.302   4.438   3.890
 4727TIP3    H114187   1.349   4.494   3.951
 4727TIP3    H214188   1.255   4.498   3.832
 4728TIP3   OH214189   1.571   0.797   2.484
 4728TIP3    H114190   1.663   0.799   2.512
 4728TIP3    H214191   1.568   0.856   2.408
 4729TIP3   OH214192   5.062   3.647   2.562
 4729TIP3    H114193   5.056   3.606   2.476
 4729TIP3    H214194   5.105   3.581   2.617
 4730TIP3   OH214195   6.082   2.208   1.351
 4730TIP3    H114196   6.019   2.276   1.325
 4730TIP3    H214197   6.083   2.212   1.447
 4731TIP3   OH214198   2.499   4.810   4.973
 4731TIP3    H114199   2.531   4.896   4.999
 4731TIP3    H214200   2.413   4.827   4.935
 4732TIP3   OH214201   5.372   2.880   3.508
 4732TIP3    H114202   5.397   2.791   3.537
 4732TIP3    H214203   5.283   2.870   3.474
 4733TIP3   OH214204   3.488   3.795   0.814
 4733TIP3    H114205   3.543   3.722   0.844
 4733TIP3    H214206   3.549   3.867   0.799
 4734TIP3   OH214207   2.001   2.216   1.804
 4734TIP3    H114208   1.929   2.276   1.825
 4734TIP3    H214209   2.037   2.191   1.889
 4735TIP3   OH214210   3.301   0.122   0.624
 4735TIP3    H114211   3.274   0.176   0.698
 4735TIP3    H214212   3.248   0.153   0.551
 4736TIP3   OH214213   3.616   3.854   4.054
 4736TIP3    H114214   3.550   3.804   4.103
 4736TIP3    H214215   3.700   3.822   4.088
 4737TIP3   OH214216   3.764   5.585   3.084
 4737TIP3    H114217   3.830   5.559   3.019
 4737TIP3    H214218   3.809   5.582   3.168
 4738TIP3   OH214219   2.898   2.586   2.762
 4738TIP3    H114220   2.934   2.518   2.706
 4738TIP3    H214221   2.803   2.576   2.754
 4739TIP3   OH214222   2.513   4.565   1.353
 4739TIP3    H114223   2.488   4.640   1.406
 4739TIP3    H214224   2.544   4.500   1.417
 4740TIP3   OH214225   0.763   2.181   1.055
 4740TIP3    H114226   0.780   2.237   0.980
 4740TIP3    H214227   0.689   2.222   1.099
 4741TIP3   OH214228   5.469   4.462   2.946
 4741TIP3    H114229   5.451   4.412   3.026
 4741TIP3    H214230   5.422   4.415   2.877
 4742TIP3   OH214231   3.657   5.594   4.195
 4742TIP3    H114232   3.657   5.633   4.282
 4742TIP3    H214233   3.677   5.501   4.210
 4743TIP3   OH214234   2.145   5.133   4.746
 4743TIP3    H114235   2.053   5.114   4.730
 4743TIP3    H214236   2.180   5.053   4.786
 4744TIP3   OH214237   4.908   5.237   3.204
 4744TIP3    H114238   4.907   5.179   3.127
 4744TIP3    H214239   5.000   5.249   3.224
 4745TIP3   OH214240   1.152   1.881   3.825
 4745TIP3    H114241   1.216   1.841   3.767
 4745TIP3    H214242   1.159   1.833   3.907
 4746TIP3   OH214243   0.590   1.217   2.765
 4746TIP3    H114244   0.564   1.184   2.679
 4746TIP3    H214245   0.663   1.161   2.791
 4747TIP3   OH214246   0.749   3.766   4.322
 4747TIP3    H114247   0.720   3.796   4.408
 4747TIP3    H214248   0.668   3.743   4.276
 4748TIP3   OH214249   0.148   0.577   0.975
 4748TIP3    H114250   0.156   0.563   1.069
 4748TIP3    H214251   0.236   0.562   0.940
 4749TIP3   OH214252   1.064   4.951   4.132
 4749TIP3    H114253   0.999   4.893   4.171
 4749TIP3    H214254   1.059   4.932   4.038
 4750TIP3   OH214255   4.123   3.069   4.886
 4750TIP3    H114256   4.048   3.090   4.943
 4750TIP3    H214257   4.194   3.049   4.947
 4751TIP3   OH214258   2.314   1.167   4.992
 4751TIP3    H114259   2.358   1.094   4.949
 4751TIP3    H214260   2.312   1.236   4.926
 4752TIP3   OH214261   4.399   0.597   1.915
 4752TIP3    H114262   4.306   0.620   1.907
 4752TIP3    H214263   4.432   0.655   1.984
 4753TIP3   OH214264   2.229   2.436   4.702
 4753TIP3    H114265   2.251   2.517   4.656
 4753TIP3    H214266   2.275   2.442   4.785
 4754TIP3   OH214267   3.419   4.526   0.552
 4754TIP3    H114268   3.436   4.567   0.637
 4754TIP3    H214269   3.339   4.567   0.522
 4755TIP3   OH214270   1.909   2.020   1.148
 4755TIP3    H114271   2.003   2.038   1.148
 4755TIP3    H214272   1.871   2.089   1.094
 4756TIP3   OH214273   6.296   5.449   4.696
 4756TIP3    H114274   6.240   5.376   4.669
 4756TIP3    H214275   6.368   5.408   4.745
 4757TIP3   OH214276   2.554   3.525   4.518
 4757TIP3    H114277   2.540   3.480   4.602
 4757TIP3    H214278   2.470   3.567   4.500
 4758TIP3   OH214279   3.573   1.786   5.125
 4758TIP3    H114280   3.550   1.784   5.032
 4758TIP3    H214281   3.581   1.879   5.145
 4759TIP3   OH214282   3.541   1.823   4.850
 4759TIP3    H114283   3.595   1.774   4.788
 4759TIP3    H214284   3.477   1.869   4.796
 4760TIP3   OH214285   5.755   0.967   4.648
 4760TIP3    H114286   5.810   0.896   4.616
 4760TIP3    H214287   5.695   0.926   4.710
 4761TIP3   OH214288   4.942   0.587   2.080
 4761TIP3    H114289   4.862   0.590   2.133
 4761TIP3    H214290   4.911   0.577   1.990
 4762TIP3   OH214291   0.720   2.172   2.869
 4762TIP3    H114292   0.762   2.234   2.929
 4762TIP3    H214293   0.660   2.225   2.817
 4763TIP3   OH214294   4.449   1.032   0.025
 4763TIP3    H114295   4.497   0.966  -0.025
 4763TIP3    H214296   4.482   1.116  -0.007
 4764TIP3   OH214297   3.423   4.669   4.828
 4764TIP3    H114298   3.472   4.608   4.772
 4764TIP3    H214299   3.386   4.615   4.897
 4765TIP3   OH214300   0.578   5.319   3.042
 4765TIP3    H114301   0.485   5.322   3.064
 4765TIP3    H214302   0.613   5.402   3.076
 4766TIP3   OH214303   0.428   6.019   2.762
 4766TIP3    H114304   0.347   5.969   2.763
 4766TIP3    H214305   0.458   6.013   2.671
 4767TIP3   OH214306   2.251   2.647   3.021
 4767TIP3    H114307   2.209   2.727   3.050
 4767TIP3    H214308   2.334   2.675   2.983
 4768TIP3   OH214309   5.257   4.419   3.309
 4768TIP3    H114310   5.191   4.373   3.258
 4768TIP3    H214311   5.209   4.459   3.382
 4769TIP3   OH214312   5.871   5.467   3.573
 4769TIP3    H114313   5.889   5.547   3.523
 4769TIP3    H214314   5.776   5.454   3.563
 4770TIP3   OH214315   0.616   4.148   4.285
 4770TIP3    H114316   0.704   4.111   4.289
 4770TIP3    H214317   0.597   4.174   4.375
 4771TIP3   OH214318   6.056   0.787   0.507
 4771TIP3    H114319   6.111   0.727   0.457
 4771TIP3    H214320   6.112   0.817   0.578
 4772TIP3   OH214321   2.404   2.135   0.022
 4772TIP3    H114322   2.366   2.109   0.106
 4772TIP3    H214323   2.460   2.210   0.043
 4773TIP3   OH214324   5.554   5.759   3.728
 4773TIP3    H114325   5.525   5.671   3.754
 4773TIP3    H214326   5.516   5.772   3.641
 4774TIP3   OH214327   1.394   2.132   1.973
 4774TIP3    H114328   1.321   2.179   1.931
 4774TIP3    H214329   1.355   2.049   2.002
 4775TIP3   OH214330   4.001   1.763   4.870
 4775TIP3    H114331   3.983   1.836   4.810
 4775TIP3    H214332   4.065   1.709   4.824
 4776TIP3   OH214333   1.436   5.156   0.678
 4776TIP3    H114334   1.441   5.060   0.674
 4776TIP3    H214335   1.389   5.174   0.760
 4777TIP3   OH214336   1.229   4.387   1.097
 4777TIP3    H114337   1.243   4.307   1.046
 4777TIP3    H214338   1.139   4.379   1.129
 4778TIP3   OH214339   5.540   1.799   1.421
 4778TIP3    H114340   5.486   1.813   1.499
 4778TIP3    H214341   5.625   1.773   1.455
 4779TIP3   OH214342   2.582   2.714   3.506
 4779TIP3    H114343   2.543   2.741   3.423
 4779TIP3    H214344   2.511   2.669   3.552
 4780TIP3   OH214345   2.827   3.509   2.643
 4780TIP3    H114346   2.823   3.418   2.675
 4780TIP3    H214347   2.736   3.539   2.647
 4781TIP3   OH214348   0.167   3.257   1.826
 4781TIP3    H114349   0.171   3.307   1.908
 4781TIP3    H214350   0.121   3.176   1.851
 4782TIP3   OH214351   6.362   5.442   3.525
 4782TIP3    H114352   6.286   5.489   3.491
 4782TIP3    H214353   6.338   5.350   3.517
 4783TIP3   OH214354   3.056   5.226   1.503
 4783TIP3    H114355   3.074   5.194   1.415
 4783TIP3    H214356   3.106   5.308   1.509
 4784TIP3   OH214357   2.528   4.205   3.836
 4784TIP3    H114358   2.532   4.264   3.760
 4784TIP3    H214359   2.556   4.258   3.910
 4785TIP3   OH214360   1.276   0.199   4.521
 4785TIP3    H114361   1.271   0.292   4.500
 4785TIP3    H214362   1.200   0.184   4.577
 4786TIP3   OH214363   2.541   3.589   3.355
 4786TIP3    H114364   2.570   3.555   3.439
 4786TIP3    H214365   2.610   3.561   3.294
 4787TIP3   OH214366   4.270   3.453   0.510
 4787TIP3    H114367   4.295   3.545   0.504
 4787TIP3    H214368   4.336   3.413   0.567
 4788TIP3   OH214369   5.701   4.359   1.460
 4788TIP3    H114370   5.609   4.366   1.484
 4788TIP3    H214371   5.719   4.265   1.458
 4789TIP3   OH214372   4.216   3.216   0.633
 4789TIP3    H114373   4.225   3.297   0.583
 4789TIP3    H214374   4.244   3.239   0.721
 4790TIP3   OH214375   2.307   2.317   0.941
 4790TIP3    H114376   2.297   2.378   0.868
 4790TIP3    H214377   2.399   2.324   0.966
 4791TIP3   OH214378   0.614   1.687   1.862
 4791TIP3    H114379   0.534   1.663   1.816
 4791TIP3    H214380   0.583   1.738   1.937
 4792TIP3   OH214381   1.330   2.648   1.065
 4792TIP3    H114382   1.402   2.702   1.098
 4792TIP3    H214383   1.358   2.558   1.082
 4793TIP3   OH214384   4.958   5.664   2.261
 4793TIP3    H114385   5.024   5.666   2.330
 4793TIP3    H214386   4.982   5.588   2.208
 4794TIP3   OH214387   4.711   2.215   4.201
 4794TIP3    H114388   4.703   2.131   4.156
 4794TIP3    H214389   4.641   2.214   4.266
 4795TIP3   OH214390   0.447   5.697   2.177
 4795TIP3    H114391   0.477   5.704   2.087
 4795TIP3    H214392   0.424   5.605   2.188
 4796TIP3   OH214393   5.402   0.939   4.159
 4796TIP3    H114394   5.375   0.987   4.080
 4796TIP3    H214395   5.465   0.875   4.128
 4797TIP3   OH214396   0.118   2.491   3.941
 4797TIP3    H114397   0.114   2.408   3.989
 4797TIP3    H214398   0.183   2.543   3.989
 4798TIP3   OH214399   2.050   2.824   1.825
 4798TIP3    H114400   2.006   2.896   1.871
 4798TIP3    H214401   2.000   2.812   1.744
 4799TIP3   OH214402   3.307   0.088   1.498
 4799TIP3    H114403   3.379   0.039   1.458
 4799TIP3    H214404   3.292   0.161   1.438
 4800TIP3   OH214405   5.719   5.870   2.017
 4800TIP3    H114406   5.783   5.928   1.976
 4800TIP3    H214407   5.650   5.860   1.952
 4801TIP3   OH214408   3.363   4.927   3.356
 4801TIP3    H114409   3.375   4.908   3.263
 4801TIP3    H214410   3.291   4.871   3.384
 4802TIP3   OH214411   0.041   1.036   1.371
 4802TIP3    H114412   0.039   1.103   1.439
 4802TIP3    H214413  -0.040   0.986   1.386
 4803TIP3   OH214414   6.071   1.517   4.808
 4803TIP3    H114415   6.053   1.605   4.841
 4803TIP3    H214416   6.122   1.531   4.729
 4804TIP3   OH214417   5.975   4.487   4.465
 4804TIP3    H114418   5.912   4.483   4.393
 4804TIP3    H214419   6.025   4.406   4.457
 4805TIP3   OH214420   4.584   5.314   2.245
 4805TIP3    H114421   4.668   5.273   2.223
 4805TIP3    H214422   4.581   5.311   2.340
 4806TIP3   OH214423   0.055   4.073   2.003
 4806TIP3    H114424   0.146   4.046   1.991
 4806TIP3    H214425   0.060   4.159   2.043
 4807TIP3   OH214426   2.498   1.131   1.254
 4807TIP3    H114427   2.522   1.213   1.211
 4807TIP3    H214428   2.556   1.126   1.330
 4808TIP3   OH214429   2.833   4.527   0.827
 4808TIP3    H114430   2.921   4.490   0.823
 4808TIP3    H214431   2.840   4.600   0.889
 4809TIP3   OH214432   4.307   0.709   3.960
 4809TIP3    H114433   4.344   0.693   4.047
 4809TIP3    H214434   4.334   0.798   3.939
 4810TIP3   OH214435   2.970   4.347   3.208
 4810TIP3    H114436   2.910   4.314   3.140
 4810TIP3    H214437   2.922   4.336   3.290
 4811TIP3   OH214438   5.277   5.514   0.866
 4811TIP3    H114439   5.297   5.561   0.785
 4811TIP3    H214440   5.259   5.583   0.930
 4812TIP3   OH214441   3.158   3.924   1.404
 4812TIP3    H114442   3.135   3.993   1.342
 4812TIP3    H214443   3.156   3.843   1.353
 4813TIP3   OH214444   5.020   0.743   0.136
 4813TIP3    H114445   4.926   0.755   0.147
 4813TIP3    H214446   5.029   0.666   0.080
 4814TIP3   OH214447   1.078   2.798   2.583
 4814TIP3    H114448   1.152   2.783   2.641
 4814TIP3    H214449   1.049   2.710   2.557
 4815TIP3   OH214450   4.363   4.551   3.957
 4815TIP3    H114451   4.423   4.561   4.030
 4815TIP3    H214452   4.335   4.460   3.961
 4816TIP3   OH214453   4.688   0.265   3.720
 4816TIP3    H114454   4.742   0.229   3.790
 4816TIP3    H214455   4.679   0.358   3.742
 4817TIP3   OH214456   4.805   5.487   3.301
 4817TIP3    H114457   4.812   5.564   3.244
 4817TIP3    H214458   4.816   5.412   3.242
 4818TIP3   OH214459   0.601   0.169   1.213
 4818TIP3    H114460   0.514   0.157   1.175
 4818TIP3    H214461   0.637   0.245   1.167
 4819TIP3   OH214462   4.277   5.228   5.156
 4819TIP3    H114463   4.363   5.188   5.147
 4819TIP3    H214464   4.292   5.321   5.142
 4820TIP3   OH214465   2.336   4.737   1.162
 4820TIP3    H114466   2.274   4.690   1.106
 4820TIP3    H214467   2.304   4.722   1.251
 4821TIP3   OH214468   5.112   1.097   0.329
 4821TIP3    H114469   5.070   1.042   0.396
 4821TIP3    H214470   5.139   1.035   0.261
 4822TIP3   OH214471   4.066   4.682   0.337
 4822TIP3    H114472   4.040   4.612   0.276
 4822TIP3    H214473   3.990   4.741   0.338
 4823TIP3   OH214474   1.641   5.089   2.880
 4823TIP3    H114475   1.639   5.124   2.791
 4823TIP3    H214476   1.734   5.088   2.903
 4824TIP3   OH214477   6.197   2.880   2.823
 4824TIP3    H114478   6.271   2.846   2.771
 4824TIP3    H214479   6.198   2.974   2.807
 4825TIP3   OH214480   3.000   0.990   0.292
 4825TIP3    H114481   3.051   1.036   0.226
 4825TIP3    H214482   2.931   1.051   0.317
 4826TIP3   OH214483   3.710   1.168   2.861
 4826TIP3    H114484   3.722   1.255   2.824
 4826TIP3    H214485   3.726   1.179   2.955
 4827TIP3   OH214486   0.442   5.733   1.646
 4827TIP3    H114487   0.456   5.713   1.553
 4827TIP3    H214488   0.440   5.829   1.649
 4828TIP3   OH214489   0.015   0.976   0.816
 4828TIP3    H114490   0.058   0.983   0.901
 4828TIP3    H214491   0.079   1.011   0.754
 4829TIP3   OH214492   3.530   2.460   1.723
 4829TIP3    H114493   3.615   2.486   1.758
 4829TIP3    H214494   3.473   2.456   1.800
 4830TIP3   OH214495   3.215   5.026   4.274
 4830TIP3    H114496   3.162   5.059   4.347
 4830TIP3    H214497   3.251   4.943   4.307
 4831TIP3   OH214498   1.190   3.775   2.625
 4831TIP3    H114499   1.144   3.852   2.592
 4831TIP3    H214500   1.180   3.709   2.557
 4832TIP3   OH214501   1.350   3.008   3.856
 4832TIP3    H114502   1.323   2.923   3.891
 4832TIP3    H214503   1.367   2.992   3.763
 4833TIP3   OH214504   0.026   5.883   2.969
 4833TIP3    H114505   0.007   5.964   3.017
 4833TIP3    H214506  -0.003   5.813   3.027
 4834TIP3   OH214507   0.735   5.137   4.008
 4834TIP3    H114508   0.740   5.103   4.097
 4834TIP3    H214509   0.725   5.060   3.952
 4835TIP3   OH214510   3.736   2.802   0.307
 4835TIP3    H114511   3.663   2.796   0.369
 4835TIP3    H214512   3.811   2.768   0.355
 4836TIP3   OH214513   2.218   4.077   1.851
 4836TIP3    H114514   2.283   4.040   1.911
 4836TIP3    H214515   2.162   4.130   1.908
 4837TIP3   OH214516   4.861   1.925   3.552
 4837TIP3    H114517   4.872   1.958   3.463
 4837TIP3    H214518   4.936   1.961   3.600
 4838TIP3   OH214519   0.491   3.764   4.248
 4838TIP3    H114520   0.443   3.810   4.317
 4838TIP3    H214521   0.433   3.768   4.172
 4839TIP3   OH214522   4.555   2.684   4.436
 4839TIP3    H114523   4.501   2.716   4.363
 4839TIP3    H214524   4.639   2.662   4.396
 4840TIP3   OH214525   4.207   3.005   4.081
 4840TIP3    H114526   4.251   3.064   4.142
 4840TIP3    H214527   4.183   2.929   4.134
 4841TIP3   OH214528   4.277   0.090   2.448
 4841TIP3    H114529   4.235   0.165   2.407
 4841TIP3    H214530   4.353   0.072   2.392
 4842TIP3   OH214531   2.219   0.948   0.634
 4842TIP3    H114532   2.174   1.032   0.649
 4842TIP3    H214533   2.208   0.931   0.541
 4843TIP3   OH214534   1.221   1.165   0.160
 4843TIP3    H114535   1.239   1.129   0.247
 4843TIP3    H214536   1.288   1.127   0.103
 4844TIP3   OH214537   0.012   4.437   1.686
 4844TIP3    H114538   0.049   4.496   1.620
 4844TIP3    H214539   0.019   4.484   1.768
 4845TIP3   OH214540   1.901   2.696   0.426
 4845TIP3    H114541   1.808   2.680   0.439
 4845TIP3    H214542   1.942   2.610   0.437
 4846TIP3   OH214543   4.048   5.594   2.460
 4846TIP3    H114544   4.052   5.677   2.508
 4846TIP3    H214545   4.022   5.620   2.371
 4847TIP3   OH214546   6.149   1.278   4.949
 4847TIP3    H114547   6.137   1.363   4.904
 4847TIP3    H214548   6.086   1.220   4.906
 4848TIP3   OH214549   1.684   3.474   4.475
 4848TIP3    H114550   1.726   3.512   4.552
 4848TIP3    H214551   1.671   3.548   4.416
 4849TIP3   OH214552   2.229   4.851   4.895
 4849TIP3    H114553   2.149   4.875   4.942
 4849TIP3    H214554   2.211   4.764   4.860
 4850TIP3   OH214555   4.900   1.279   3.740
 4850TIP3    H114556   4.866   1.235   3.662
 4850TIP3    H214557   4.981   1.321   3.711
 4851TIP3   OH214558   4.634   1.388   2.200
 4851TIP3    H114559   4.578   1.333   2.145
 4851TIP3    H214560   4.617   1.358   2.289
 4852TIP3   OH214561   4.397   4.564   2.529
 4852TIP3    H114562   4.376   4.648   2.570
 4852TIP3    H214563   4.312   4.523   2.515
 4853TIP3   OH214564   4.608   0.540   3.433
 4853TIP3    H114565   4.656   0.458   3.439
 4853TIP3    H214566   4.533   0.528   3.492
 4854TIP3   OH214567   4.001   4.007   4.706
 4854TIP3    H114568   3.940   3.992   4.778
 4854TIP3    H214569   3.987   4.099   4.681
 4855TIP3   OH214570   2.052   3.269   0.405
 4855TIP3    H114571   2.034   3.306   0.491
 4855TIP3    H214572   2.004   3.186   0.404
 4856TIP3   OH214573   4.098   2.147   0.327
 4856TIP3    H114574   4.165   2.202   0.367
 4856TIP3    H214575   4.139   2.061   0.321
 4857TIP3   OH214576   0.674   2.336   4.679
 4857TIP3    H114577   0.702   2.352   4.770
 4857TIP3    H214578   0.622   2.412   4.656
 4858TIP3   OH214579   4.764   4.633   1.044
 4858TIP3    H114580   4.718   4.636   1.127
 4858TIP3    H214581   4.857   4.636   1.068
 4859TIP3   OH214582   2.588   1.438   5.114
 4859TIP3    H114583   2.513   1.489   5.082
 4859TIP3    H214584   2.655   1.448   5.046
 4860TIP3   OH214585   6.207   2.247   2.791
 4860TIP3    H114586   6.193   2.173   2.851
 4860TIP3    H214587   6.187   2.324   2.843
 4861TIP3   OH214588   0.615   2.907   3.841
 4861TIP3    H114589   0.530   2.949   3.830
 4861TIP3    H214590   0.620   2.842   3.771
 4862TIP3   OH214591   1.256   1.885   2.014
 4862TIP3    H114592   1.291   1.798   1.992
 4862TIP3    H214593   1.217   1.874   2.100
 4863TIP3   OH214594   0.325   1.214   2.854
 4863TIP3    H114595   0.309   1.193   2.946
 4863TIP3    H214596   0.420   1.216   2.846
 4864TIP3   OH214597   3.012   0.832   1.225
 4864TIP3    H114598   3.033   0.751   1.180
 4864TIP3    H214599   2.928   0.815   1.268
 4865TIP3   OH214600   4.758   2.414   3.136
 4865TIP3    H114601   4.759   2.497   3.088
 4865TIP3    H214602   4.840   2.414   3.185
 4866TIP3   OH214603   5.800   4.879   1.756
 4866TIP3    H114604   5.839   4.958   1.719
 4866TIP3    H214605   5.871   4.837   1.803
 4867TIP3   OH214606   1.908   4.661   4.644
 4867TIP3    H114607   1.949   4.642   4.728
 4867TIP3    H214608   1.966   4.622   4.579
 4868TIP3   OH214609   0.098   5.798   2.210
 4868TIP3    H114610   0.093   5.825   2.118
 4868TIP3    H214611   0.183   5.831   2.240
 4869TIP3   OH214612   2.242   1.231   0.983
 4869TIP3    H114613   2.166   1.225   1.041
 4869TIP3    H214614   2.294   1.154   1.005
 4870TIP3   OH214615   0.440   0.551   1.822
 4870TIP3    H114616   0.474   0.623   1.769
 4870TIP3    H214617   0.504   0.541   1.892
 4871TIP3   OH214618   0.682   0.911   0.677
 4871TIP3    H114619   0.729   0.842   0.723
 4871TIP3    H214620   0.747   0.950   0.619
 4872TIP3   OH214621   0.267   1.439   1.944
 4872TIP3    H114622   0.258   1.534   1.939
 4872TIP3    H214623   0.361   1.423   1.941
 4873TIP3   OH214624   1.970   5.639   2.485
 4873TIP3    H114625   1.909   5.700   2.525
 4873TIP3    H214626   2.055   5.681   2.494
 4874TIP3   OH214627   1.899   2.168   4.395
 4874TIP3    H114628   1.873   2.076   4.401
 4874TIP3    H214629   1.939   2.187   4.480
 4875TIP3   OH214630   1.795   5.664   1.105
 4875TIP3    H114631   1.705   5.632   1.116
 4875TIP3    H214632   1.828   5.619   1.028
 4876TIP3   OH214633   5.402   0.204   0.125
 4876TIP3    H114634   5.361   0.126   0.088
 4876TIP3    H214635   5.473   0.170   0.180
 4877TIP3   OH214636   4.388   2.782   5.012
 4877TIP3    H114637   4.300   2.742   5.011
 4877TIP3    H214638   4.441   2.723   4.958
 4878TIP3   OH214639   1.957   1.430   1.031
 4878TIP3    H114640   2.017   1.367   1.070
 4878TIP3    H214641   1.911   1.468   1.106
 4879TIP3   OH214642   0.584   0.693   0.098
 4879TIP3    H114643   0.626   0.645   0.169
 4879TIP3    H214644   0.510   0.639   0.072
 4880TIP3   OH214645   4.118   2.879   1.765
 4880TIP3    H114646   4.123   2.849   1.855
 4880TIP3    H214647   4.033   2.849   1.733
 4881TIP3   OH214648   2.413   0.933   4.888
 4881TIP3    H114649   2.488   0.947   4.946
 4881TIP3    H214650   2.439   0.860   4.832
 4882TIP3   OH214651   5.543   1.899   3.566
 4882TIP3    H114652   5.470   1.837   3.553
 4882TIP3    H214653   5.571   1.884   3.656
 4883TIP3   OH214654   1.727   0.148   2.167
 4883TIP3    H114655   1.710   0.146   2.262
 4883TIP3    H214656   1.642   0.163   2.128
 4884TIP3   OH214657   1.328   5.479   1.010
 4884TIP3    H114658   1.328   5.533   0.931
 4884TIP3    H214659   1.333   5.389   0.978
 4885TIP3   OH214660   5.412   0.217   4.744
 4885TIP3    H114661   5.435   0.292   4.689
 4885TIP3    H214662   5.481   0.214   4.810
 4886TIP3   OH214663   4.916   3.527   5.028
 4886TIP3    H114664   4.883   3.499   4.943
 4886TIP3    H214665   4.899   3.621   5.030
 4887TIP3   OH214666   3.271   4.470   3.015
 4887TIP3    H114667   3.271   4.400   3.081
 4887TIP3    H214668   3.226   4.543   3.058
 4888TIP3   OH214669   4.148   2.623   2.602
 4888TIP3    H114670   4.210   2.567   2.649
 4888TIP3    H214671   4.075   2.564   2.582
 4889TIP3   OH214672   6.259   5.368   4.197
 4889TIP3    H114673   6.325   5.317   4.149
 4889TIP3    H214674   6.310   5.436   4.242
 4890TIP3   OH214675   2.312   4.055   3.908
 4890TIP3    H114676   2.355   3.991   3.965
 4890TIP3    H214677   2.379   4.122   3.893
 4891TIP3   OH214678   5.884   3.312   2.703
 4891TIP3    H114679   5.850   3.302   2.614
 4891TIP3    H214680   5.926   3.398   2.703
 4892TIP3   OH214681   4.343   3.519   3.185
 4892TIP3    H114682   4.331   3.575   3.261
 4892TIP3    H214683   4.377   3.577   3.117
 4893TIP3   OH214684   1.036   0.802   1.899
 4893TIP3    H114685   1.036   0.862   1.824
 4893TIP3    H214686   1.017   0.858   1.975
 4894TIP3   OH214687   2.950   4.986   1.569
 4894TIP3    H114688   2.924   4.973   1.661
 4894TIP3    H214689   2.967   5.080   1.562
 4895TIP3   OH214690   4.399   4.921   4.531
 4895TIP3    H114691   4.411   4.879   4.615
 4895TIP3    H214692   4.478   4.901   4.482
 4896TIP3   OH214693   5.311   3.080   1.754
 4896TIP3    H114694   5.238   3.121   1.709
 4896TIP3    H214695   5.388   3.126   1.722
 4897TIP3   OH214696   4.870   3.316   1.624
 4897TIP3    H114697   4.846   3.382   1.689
 4897TIP3    H214698   4.829   3.236   1.655
 4898TIP3   OH214699   5.528   3.297   4.844
 4898TIP3    H114700   5.603   3.297   4.785
 4898TIP3    H214701   5.486   3.382   4.830
 4899TIP3   OH214702   5.481   3.032   1.253
 4899TIP3    H114703   5.417   3.056   1.319
 4899TIP3    H214704   5.431   2.982   1.188
 4900TIP3   OH214705   1.446   4.047   1.145
 4900TIP3    H114706   1.426   3.999   1.225
 4900TIP3    H214707   1.393   4.004   1.078
 4901TIP3   OH214708   0.976   3.756   3.531
 4901TIP3    H114709   0.977   3.844   3.494
 4901TIP3    H214710   0.892   3.749   3.576
 4902TIP3   OH214711   3.698   0.612   1.499
 4902TIP3    H114712   3.620   0.558   1.486
 4902TIP3    H214713   3.687   0.685   1.438
 4903TIP3   OH214714   3.036   4.803   2.366
 4903TIP3    H114715   3.081   4.767   2.290
 4903TIP3    H214716   3.010   4.891   2.339
 4904TIP3   OH214717   4.074   2.957   0.537
 4904TIP3    H114718   4.113   2.887   0.589
 4904TIP3    H214719   4.145   3.019   0.521
 4905TIP3   OH214720   2.958   1.231   3.586
 4905TIP3    H114721   2.869   1.260   3.567
 4905TIP3    H214722   3.013   1.303   3.556
 4906TIP3   OH214723   3.166   5.133   4.917
 4906TIP3    H114724   3.082   5.176   4.897
 4906TIP3    H214725   3.230   5.204   4.919
 4907TIP3   OH214726   2.658   2.474   0.046
 4907TIP3    H114727   2.695   2.531  -0.020
 4907TIP3    H214728   2.604   2.531   0.101
 4908TIP3   OH214729   2.649   1.818   2.943
 4908TIP3    H114730   2.565   1.862   2.954
 4908TIP3    H214731   2.627   1.725   2.943
 4909TIP3   OH214732   0.768   4.385   2.146
 4909TIP3    H114733   0.843   4.425   2.189
 4909TIP3    H214734   0.780   4.406   2.053
 4910TIP3   OH214735   1.702   2.865   3.142
 4910TIP3    H114736   1.746   2.839   3.061
 4910TIP3    H214737   1.636   2.797   3.157
 4911TIP3   OH214738   4.319   1.736   1.528
 4911TIP3    H114739   4.313   1.655   1.479
 4911TIP3    H214740   4.246   1.733   1.590
 4912TIP3   OH214741   0.629   3.331   2.996
 4912TIP3    H114742   0.559   3.280   2.956
 4912TIP3    H214743   0.584   3.402   3.042
 4913TIP3   OH214744   0.136   4.729   4.495
 4913TIP3    H114745   0.163   4.816   4.466
 4913TIP3    H214746   0.065   4.704   4.435
 4914TIP3   OH214747   4.155   4.770   1.204
 4914TIP3    H114748   4.099   4.710   1.253
 4914TIP3    H214749   4.237   4.773   1.253
 4915TIP3   OH214750   0.053   3.492   3.662
 4915TIP3    H114751  -0.010   3.552   3.701
 4915TIP3    H214752   0.130   3.499   3.718
 4916TIP3   OH214753   5.539   4.972   2.697
 4916TIP3    H114754   5.609   4.909   2.715
 4916TIP3    H214755   5.471   4.952   2.761
 4917TIP3   OH214756   5.284   0.308   0.389
 4917TIP3    H114757   5.309   0.234   0.444
 4917TIP3    H214758   5.335   0.296   0.308
 4918TIP3   OH214759   4.316   4.573   4.596
 4918TIP3    H114760   4.411   4.571   4.580
 4918TIP3    H214761   4.277   4.585   4.509
 4919TIP3   OH214762   2.833   2.231   0.917
 4919TIP3    H114763   2.887   2.308   0.897
 4919TIP3    H214764   2.869   2.198   0.999
 4920TIP3   OH214765   6.148   4.164   1.866
 4920TIP3    H114766   6.212   4.130   1.929
 4920TIP3    H214767   6.113   4.242   1.907
 4921TIP3   OH214768   1.380   0.550   3.657
 4921TIP3    H114769   1.349   0.470   3.699
 4921TIP3    H214770   1.300   0.597   3.633
 4922TIP3   OH214771   3.689   1.419   1.213
 4922TIP3    H114772   3.688   1.358   1.140
 4922TIP3    H214773   3.597   1.432   1.236
 4923TIP3   OH214774   5.698   2.242   1.761
 4923TIP3    H114775   5.637   2.296   1.812
 4923TIP3    H214776   5.750   2.305   1.711
 4924TIP3   OH214777   1.266   1.243   2.197
 4924TIP3    H114778   1.315   1.166   2.228
 4924TIP3    H214779   1.319   1.318   2.224
 4925TIP3   OH214780   1.795   0.616   3.068
 4925TIP3    H114781   1.728   0.560   3.107
 4925TIP3    H214782   1.875   0.563   3.072
 4926TIP3   OH214783   4.732   3.298   4.381
 4926TIP3    H114784   4.728   3.237   4.308
 4926TIP3    H214785   4.807   3.354   4.363
 4927TIP3   OH214786   0.096   2.100   3.601
 4927TIP3    H114787   0.176   2.068   3.560
 4927TIP3    H214788   0.123   2.176   3.653
 4928TIP3   OH214789   3.516   1.722   4.014
 4928TIP3    H114790   3.476   1.661   4.076
 4928TIP3    H214791   3.447   1.783   3.991
 4929TIP3   OH214792   5.438   3.426   2.826
 4929TIP3    H114793   5.401   3.407   2.912
 4929TIP3    H214794   5.496   3.352   2.808
 4930TIP3   OH214795   1.801   2.342   3.932
 4930TIP3    H114796   1.806   2.246   3.930
 4930TIP3    H214797   1.716   2.363   3.892
 4931TIP3   OH214798   0.193   5.902   1.195
 4931TIP3    H114799   0.102   5.889   1.168
 4931TIP3    H214800   0.226   5.814   1.212
 4932TIP3   OH214801   2.798   4.963   3.667
 4932TIP3    H114802   2.876   4.925   3.707
 4932TIP3    H214803   2.806   5.057   3.684
 4933TIP3   OH214804   5.051   0.357   4.199
 4933TIP3    H114805   4.965   0.390   4.173
 4933TIP3    H214806   5.112   0.423   4.167
 4934TIP3   OH214807   4.857   4.161   0.927
 4934TIP3    H114808   4.772   4.154   0.884
 4934TIP3    H214809   4.903   4.228   0.878
 4935TIP3   OH214810   4.824   4.825   0.147
 4935TIP3    H114811   4.817   4.732   0.169
 4935TIP3    H214812   4.855   4.826   0.056
 4936TIP3   OH214813   0.371   1.461   3.351
 4936TIP3    H114814   0.424   1.435   3.276
 4936TIP3    H214815   0.432   1.459   3.425
 4937TIP3   OH214816   1.763   0.497   1.101
 4937TIP3    H114817   1.808   0.576   1.130
 4937TIP3    H214818   1.670   0.522   1.100
 4938TIP3   OH214819   2.996   5.777   4.686
 4938TIP3    H114820   3.051   5.791   4.608
 4938TIP3    H214821   3.013   5.686   4.710
 4939TIP3   OH214822   3.993   1.575   2.418
 4939TIP3    H114823   3.991   1.670   2.408
 4939TIP3    H214824   3.917   1.545   2.368
 4940TIP3   OH214825   5.528   4.473   3.735
 4940TIP3    H114826   5.571   4.517   3.662
 4940TIP3    H214827   5.528   4.381   3.712
 4941TIP3   OH214828   4.717   1.006   0.415
 4941TIP3    H114829   4.807   0.976   0.430
 4941TIP3    H214830   4.706   1.005   0.320
 4942TIP3   OH214831   4.646   5.519   4.969
 4942TIP3    H114832   4.708   5.569   4.916
 4942TIP3    H214833   4.607   5.585   5.027
 4943TIP3   OH214834   1.305   1.925   2.864
 4943TIP3    H114835   1.329   2.015   2.840
 4943TIP3    H214836   1.381   1.892   2.912
 4944TIP3   OH214837   5.726   5.391   4.608
 4944TIP3    H114838   5.696   5.376   4.518
 4944TIP3    H214839   5.821   5.402   4.600
 4945TIP3   OH214840   3.105   2.627   4.132
 4945TIP3    H114841   3.073   2.537   4.138
 4945TIP3    H214842   3.135   2.648   4.220
 4946TIP3   OH214843   4.190   0.307   2.992
 4946TIP3    H114844   4.209   0.360   3.069
 4946TIP3    H214845   4.169   0.220   3.026
 4947TIP3   OH214846   0.340   5.699   3.729
 4947TIP3    H114847   0.375   5.630   3.673
 4947TIP3    H214848   0.248   5.706   3.702
 4948TIP3   OH214849   4.744   4.392   2.592
 4948TIP3    H114850   4.806   4.463   2.577
 4948TIP3    H214851   4.732   4.352   2.506
 4949TIP3   OH214852   1.857   5.114   1.715
 4949TIP3    H114853   1.825   5.165   1.641
 4949TIP3    H214854   1.909   5.044   1.676
 4950TIP3   OH214855   3.674   5.417   4.524
 4950TIP3    H114856   3.706   5.355   4.458
 4950TIP3    H214857   3.584   5.436   4.498
 4951TIP3   OH214858   3.591   0.559   4.922
 4951TIP3    H114859   3.562   0.471   4.898
 4951TIP3    H214860   3.687   0.553   4.920
 4952TIP3   OH214861   5.422   2.551   2.095
 4952TIP3    H114862   5.339   2.513   2.068
 4952TIP3    H214863   5.403   2.594   2.179
 4953TIP3   OH214864   3.822   3.400   4.291
 4953TIP3    H114865   3.918   3.396   4.302
 4953TIP3    H214866   3.789   3.408   4.381
 4954TIP3   OH214867   0.774   3.061   1.925
 4954TIP3    H114868   0.866   3.071   1.947
 4954TIP3    H214869   0.728   3.077   2.007
 4955TIP3   OH214870   5.441   2.548   2.785
 4955TIP3    H114871   5.519   2.545   2.729
 4955TIP3    H214872   5.461   2.487   2.857
 4956TIP3   OH214873   6.006   3.634   4.624
 4956TIP3    H114874   5.931   3.647   4.567
 4956TIP3    H214875   5.969   3.615   4.710
 4957TIP3   OH214876   1.895   2.128   0.393
 4957TIP3    H114877   1.900   2.200   0.330
 4957TIP3    H214878   1.831   2.158   0.458
 4958TIP3   OH214879   1.718   5.668   1.911
 4958TIP3    H114880   1.658   5.594   1.923
 4958TIP3    H214881   1.687   5.711   1.832
 4959TIP3   OH214882   5.498   5.801   0.391
 4959TIP3    H114883   5.570   5.787   0.329
 4959TIP3    H214884   5.501   5.724   0.448
 4960TIP3   OH214885   1.155   3.319   1.127
 4960TIP3    H114886   1.226   3.291   1.185
 4960TIP3    H214887   1.199   3.346   1.047
 4961TIP3   OH214888   6.209   0.747   4.112
 4961TIP3    H114889   6.196   0.759   4.206
 4961TIP3    H214890   6.188   0.833   4.074
 4962TIP3   OH214891   5.294   0.252   0.775
 4962TIP3    H114892   5.265   0.341   0.794
 4962TIP3    H214893   5.364   0.235   0.838
 4963TIP3   OH214894   3.579   3.418   4.069
 4963TIP3    H114895   3.497   3.387   4.030
 4963TIP3    H214896   3.638   3.431   3.995
 4964TIP3   OH214897   5.862   5.102   4.265
 4964TIP3    H114898   5.821   5.084   4.350
 4964TIP3    H214899   5.956   5.101   4.283
 4965TIP3   OH214900   6.134   0.418   4.399
 4965TIP3    H114901   6.220   0.406   4.439
 4965TIP3    H214902   6.075   0.364   4.451
 4966TIP3   OH214903   6.097   1.007   4.531
 4966TIP3    H114904   6.025   1.020   4.593
 4966TIP3    H214905   6.136   1.094   4.522
 4967TIP3   OH214906   1.588   3.107   0.881
 4967TIP3    H114907   1.602   3.048   0.955
 4967TIP3    H214908   1.671   3.109   0.835
 4968TIP3   OH214909   4.687   4.928   2.235
 4968TIP3    H114910   4.725   4.848   2.271
 4968TIP3    H214911   4.742   4.949   2.159
 4969TIP3   OH214912   2.136   3.157   1.253
 4969TIP3    H114913   2.071   3.089   1.269
 4969TIP3    H214914   2.149   3.156   1.158
 4970TIP3   OH214915   0.788   3.410   5.116
 4970TIP3    H114916   0.806   3.366   5.199
 4970TIP3    H214917   0.870   3.402   5.066
 4971TIP3   OH214918   5.926   0.756   4.608
 4971TIP3    H114919   5.938   0.738   4.514
 4971TIP3    H214920   6.013   0.750   4.645
 4972TIP3   OH214921   2.099   5.964   3.426
 4972TIP3    H114922   2.025   5.947   3.485
 4972TIP3    H214923   2.136   5.877   3.409
 4973TIP3   OH214924   0.530   1.379   3.559
 4973TIP3    H114925   0.508   1.289   3.538
 4973TIP3    H214926   0.616   1.375   3.600
 4974TIP3   OH214927   2.439   0.640   3.537
 4974TIP3    H114928   2.491   0.674   3.610
 4974TIP3    H214929   2.396   0.563   3.572
 4975TIP3   OH214930   1.483   5.607   3.516
 4975TIP3    H114931   1.548   5.659   3.563
 4975TIP3    H214932   1.497   5.517   3.547
 4976TIP3   OH214933   3.311   2.115   2.522
 4976TIP3    H114934   3.258   2.171   2.579
 4976TIP3    H214935   3.384   2.088   2.578
 4977TIP3   OH214936   0.032   3.992   3.307
 4977TIP3    H114937   0.091   3.951   3.371
 4977TIP3    H214938   0.054   3.949   3.224
 4978TIP3   OH214939   6.182   4.202   0.628
 4978TIP3    H114940   6.258   4.183   0.682
 4978TIP3    H214941   6.107   4.179   0.682
 4979TIP3   OH214942   5.150   4.562   5.007
 4979TIP3    H114943   5.121   4.637   4.955
 4979TIP3    H214944   5.076   4.501   5.003
 4980TIP3   OH214945   1.620   4.271   3.002
 4980TIP3    H114946   1.625   4.200   3.065
 4980TIP3    H214947   1.528   4.274   2.975
 4981TIP3   OH214948   4.235   3.700   4.368
 4981TIP3    H114949   4.155   3.734   4.327
 4981TIP3    H214950   4.208   3.678   4.457
 4982TIP3   OH214951   4.226   1.162   0.131
 4982TIP3    H114952   4.180   1.121   0.204
 4982TIP3    H214953   4.300   1.103   0.113
 4983TIP3   OH214954   2.310   3.199   3.128
 4983TIP3    H114955   2.346   3.217   3.214
 4983TIP3    H214956   2.215   3.198   3.141
 4984TIP3   OH214957   3.123   1.561   4.066
 4984TIP3    H114958   3.169   1.643   4.046
 4984TIP3    H214959   3.140   1.546   4.159
 4985TIP3   OH214960   6.124   2.052   2.992
 4985TIP3    H114961   6.113   1.960   3.018
 4985TIP3    H214962   6.061   2.066   2.923
 4986TIP3   OH214963   0.836   4.261   0.220
 4986TIP3    H114964   0.896   4.311   0.165
 4986TIP3    H214965   0.888   4.188   0.252
 4987TIP3   OH214966   5.327   0.199   3.824
 4987TIP3    H114967   5.385   0.124   3.808
 4987TIP3    H214968   5.380   0.275   3.802
 4988TIP3   OH214969   4.214   1.515   3.978
 4988TIP3    H114970   4.232   1.590   3.920
 4988TIP3    H214971   4.247   1.439   3.930
 4989TIP3   OH214972   2.670   5.514   4.605
 4989TIP3    H114973   2.604   5.468   4.554
 4989TIP3    H214974   2.751   5.466   4.587
 4990TIP3   OH214975   1.072   1.063   4.137
 4990TIP3    H114976   1.027   0.980   4.152
 4990TIP3    H214977   1.058   1.082   4.045
 4991TIP3   OH214978   2.453   5.377   5.061
 4991TIP3    H114979   2.453   5.370   4.965
 4991TIP3    H214980   2.545   5.382   5.084
 4992TIP3   OH214981   3.188   3.585   2.351
 4992TIP3    H114982   3.181   3.611   2.443
 4992TIP3    H214983   3.098   3.584   2.319
 4993TIP3   OH214984   0.703   4.146   5.166
 4993TIP3    H114985   0.779   4.089   5.171
 4993TIP3    H214986   0.733   4.222   5.116
 4994TIP3   OH214987   1.085   2.776   3.609
 4994TIP3    H114988   1.085   2.689   3.650
 4994TIP3    H214989   1.061   2.836   3.680
 4995TIP3   OH214990   1.886   3.141   1.640
 4995TIP3    H114991   1.979   3.149   1.657
 4995TIP3    H214992   1.880   3.087   1.561
 4996TIP3   OH214993   0.502   3.461   4.218
 4996TIP3    H114994   0.516   3.551   4.247
 4996TIP3    H214995   0.406   3.453   4.212
 4997TIP3   OH214996   1.668   2.513   0.750
 4997TIP3    H114997   1.576   2.538   0.746
 4997TIP3    H214998   1.693   2.529   0.841
 4998TIP3   OH214999   5.936   1.614   0.369
 4998TIP3    H115000   5.913   1.527   0.401
 4998TIP3    H215001   5.946   1.667   0.448
 4999TIP3   OH215002   1.327   0.067   1.397
 4999TIP3    H115003   1.404   0.057   1.453
 4999TIP3    H215004   1.261   0.107   1.454
 5000TIP3   OH215005   0.790   5.832   1.217
 5000TIP3    H115006   0.876   5.866   1.193
 5000TIP3    H215007   0.806   5.776   1.293
 5001TIP3   OH215008   1.184   0.698   1.089
 5001TIP3    H115009   1.110   0.741   1.045
 5001TIP3    H215010   1.261   0.744   1.055
 5002TIP3   OH215011   2.265   5.341   2.240
 5002TIP3    H115012   2.313   5.384   2.310
 5002TIP3    H215013   2.174   5.371   2.251
 5003TIP3   OH215014   3.334   1.481   1.708
 5003TIP3    H115015   3.277   1.448   1.638
 5003TIP3    H215016   3.422   1.477   1.672
 5004TIP3   OH215017   1.701   2.271   0.231
 5004TIP3    H115018   1.679   2.361   0.208
 5004TIP3    H215019   1.640   2.249   0.302
 5005TIP3   OH215020   1.817   0.780   2.609
 5005TIP3    H115021   1.828   0.842   2.680
 5005TIP3    H215022   1.835   0.695   2.649
 5006TIP3   OH215023   1.316   2.724   0.489
 5006TIP3    H115024   1.320   2.719   0.394
 5006TIP3    H215025   1.401   2.759   0.516
 5007TIP3   OH215026   3.459   3.574   2.350
 5007TIP3    H115027   3.364   3.579   2.333
 5007TIP3    H215028   3.470   3.496   2.404
 5008TIP3   OH215029   3.773   3.216   4.670
 5008TIP3    H115030   3.744   3.127   4.649
 5008TIP3    H215031   3.869   3.210   4.674
 5009TIP3   OH215032   6.024   0.123   3.338
 5009TIP3    H115033   6.038   0.066   3.263
 5009TIP3    H215034   6.069   0.079   3.410
 5010TIP3   OH215035   5.451   1.387   3.741
 5010TIP3    H115036   5.395   1.370   3.817
 5010TIP3    H215037   5.486   1.475   3.756
 5011TIP3   OH215038   0.773   1.574   3.939
 5011TIP3    H115039   0.858   1.536   3.913
 5011TIP3    H215040   0.752   1.530   4.021
 5012TIP3   OH215041   5.827   0.786   5.000
 5012TIP3    H115042   5.783   0.763   5.082
 5012TIP3    H215043   5.890   0.854   5.026
 5013TIP3   OH215044   0.342   0.078   3.401
 5013TIP3    H115045   0.319   0.120   3.484
 5013TIP3    H215046   0.258   0.068   3.356
 5014TIP3   OH215047   0.943   2.341   3.499
 5014TIP3    H115048   1.006   2.288   3.548
 5014TIP3    H215049   0.981   2.429   3.498
 5015TIP3   OH215050   2.346   0.825   0.852
 5015TIP3    H115051   2.344   0.869   0.937
 5015TIP3    H215052   2.280   0.870   0.800
 5016TIP3   OH215053   2.822   5.478   0.584
 5016TIP3    H115054   2.743   5.531   0.573
 5016TIP3    H215055   2.792   5.397   0.624
 5017TIP3   OH215056   3.295   3.546   3.489
 5017TIP3    H115057   3.214   3.593   3.508
 5017TIP3    H215058   3.364   3.609   3.508
 5018TIP3   OH215059   3.655   3.996   4.840
 5018TIP3    H115060   3.559   3.989   4.846
 5018TIP3    H215061   3.672   4.089   4.827
 5019TIP3   OH215062   0.400   1.435   2.647
 5019TIP3    H115063   0.394   1.339   2.646
 5019TIP3    H215064   0.493   1.453   2.633
 5020TIP3   OH215065   0.763   3.703   3.727
 5020TIP3    H115066   0.709   3.676   3.802
 5020TIP3    H215067   0.700   3.717   3.656
 5021TIP3   OH215068   5.757   1.242   4.596
 5021TIP3    H115069   5.753   1.149   4.618
 5021TIP3    H215070   5.700   1.251   4.520
 5022TIP3   OH215071   3.993   5.843   3.203
 5022TIP3    H115072   3.956   5.816   3.119
 5022TIP3    H215073   4.085   5.818   3.198
 5023TIP3   OH215074   2.776   2.611   4.887
 5023TIP3    H115075   2.720   2.563   4.826
 5023TIP3    H215076   2.804   2.689   4.838
 5024TIP3   OH215077   5.017   4.870   1.792
 5024TIP3    H115078   5.094   4.824   1.825
 5024TIP3    H215079   5.052   4.937   1.734
 5025TIP3   OH215080   3.882   2.627   0.506
 5025TIP3    H115081   3.971   2.601   0.482
 5025TIP3    H215082   3.830   2.547   0.496
 5026TIP3   OH215083   0.994   3.064   1.395
 5026TIP3    H115084   1.086   3.050   1.419
 5026TIP3    H215085   0.981   3.010   1.317
 5027TIP3   OH215086   5.536   2.904   0.237
 5027TIP3    H115087   5.557   2.988   0.278
 5027TIP3    H215088   5.522   2.844   0.310
 5028TIP3   OH215089   0.817   0.263   3.680
 5028TIP3    H115090   0.760   0.335   3.653
 5028TIP3    H215091   0.757   0.196   3.713
 5029TIP3   OH215092   0.247   2.028   2.834
 5029TIP3    H115093   0.321   2.086   2.817
 5029TIP3    H215094   0.187   2.081   2.887
 5030TIP3   OH215095   5.783   3.808   1.721
 5030TIP3    H115096   5.812   3.879   1.778
 5030TIP3    H215097   5.808   3.836   1.633
 5031TIP3   OH215098   5.041   1.638   1.724
 5031TIP3    H115099   4.987   1.600   1.656
 5031TIP3    H215100   4.980   1.688   1.778
 5032TIP3   OH215101   6.010   1.958   3.322
 5032TIP3    H115102   5.930   1.958   3.374
 5032TIP3    H215103   6.018   1.868   3.290
 5033TIP3   OH215104   2.273   5.921   4.129
 5033TIP3    H115105   2.185   5.958   4.129
 5033TIP3    H215106   2.331   5.995   4.114
 5034TIP3   OH215107   5.892   2.399   1.259
 5034TIP3    H115108   5.868   2.425   1.170
 5034TIP3    H215109   5.810   2.368   1.297
 5035TIP3   OH215110   6.051   4.236   1.390
 5035TIP3    H115111   6.034   4.313   1.444
 5035TIP3    H215112   6.144   4.218   1.404
 5036TIP3   OH215113   4.217   3.351   4.555
 5036TIP3    H115114   4.233   3.345   4.649
 5036TIP3    H215115   4.305   3.352   4.516
 5037TIP3   OH215116   4.601   1.918   1.680
 5037TIP3    H115117   4.652   1.970   1.618
 5037TIP3    H215118   4.606   1.829   1.646
 5038TIP3   OH215119   4.793   3.232   2.061
 5038TIP3    H115120   4.721   3.294   2.070
 5038TIP3    H215121   4.762   3.153   2.104
 5039TIP3   OH215122   5.776   2.007   3.461
 5039TIP3    H115123   5.688   1.987   3.494
 5039TIP3    H215124   5.821   2.047   3.536
 5040TIP3   OH215125   0.535   3.849   4.772
 5040TIP3    H115126   0.494   3.914   4.830
 5040TIP3    H215127   0.586   3.794   4.831
 5041TIP3   OH215128   1.174   1.295   1.733
 5041TIP3    H115129   1.243   1.289   1.667
 5041TIP3    H215130   1.123   1.372   1.707
 5042TIP3   OH215131   0.566   0.203   5.016
 5042TIP3    H115132   0.533   0.152   5.091
 5042TIP3    H215133   0.514   0.173   4.942
 5043TIP3   OH215134   4.708   0.878   1.830
 5043TIP3    H115135   4.686   0.925   1.910
 5043TIP3    H215136   4.728   0.947   1.767
 5044TIP3   OH215137   4.035   1.068   5.083
 5044TIP3    H115138   4.012   0.978   5.062
 5044TIP3    H215139   4.031   1.071   5.179
 5045TIP3   OH215140   2.953   5.458   3.037
 5045TIP3    H115141   2.933   5.425   3.125
 5045TIP3    H215142   2.974   5.551   3.051
 5046TIP3   OH215143   4.845   0.898   2.974
 5046TIP3    H115144   4.882   0.810   2.967
 5046TIP3    H215145   4.750   0.885   2.969
 5047TIP3   OH215146   1.059   1.154   2.030
 5047TIP3    H115147   1.104   1.212   1.968
 5047TIP3    H215148   1.106   1.164   2.112
 5048TIP3   OH215149   6.054   4.940   0.764
 5048TIP3    H115150   6.001   4.864   0.789
 5048TIP3    H215151   6.044   5.002   0.837
 5049TIP3   OH215152   2.876   4.904   3.387
 5049TIP3    H115153   2.954   4.959   3.399
 5049TIP3    H215154   2.842   4.891   3.475
 5050TIP3   OH215155   1.337   1.299   1.522
 5050TIP3    H115156   1.415   1.246   1.502
 5050TIP3    H215157   1.367   1.390   1.514
 5051TIP3   OH215158   4.604   0.466   0.021
 5051TIP3    H115159   4.666   0.411  -0.026
 5051TIP3    H215160   4.606   0.432   0.111
 5052TIP3   OH215161   6.149  -0.047   2.739
 5052TIP3    H115162   6.237  -0.016   2.722
 5052TIP3    H215163   6.108  -0.053   2.653
 5053TIP3   OH215164   0.309   2.611   2.858
 5053TIP3    H115165   0.386   2.652   2.820
 5053TIP3    H215166   0.283   2.668   2.930
 5054TIP3   OH215167   4.110   1.250   4.108
 5054TIP3    H115168   4.027   1.297   4.110
 5054TIP3    H215169   4.130   1.241   4.015
 5055TIP3   OH215170   5.555   1.276   1.627
 5055TIP3    H115171   5.521   1.254   1.714
 5055TIP3    H215172   5.650   1.268   1.636
 5056TIP3   OH215173   2.888   1.967   0.375
 5056TIP3    H115174   2.868   2.059   0.393
 5056TIP3    H215175   2.803   1.924   0.368
 5057TIP3   OH215176   4.501   2.679   1.786
 5057TIP3    H115177   4.541   2.602   1.827
 5057TIP3    H215178   4.407   2.660   1.787
 5058TIP3   OH215179   0.776   5.643   3.722
 5058TIP3    H115180   0.734   5.559   3.704
 5058TIP3    H215181   0.864   5.635   3.686
 5059TIP3   OH215182   1.382   0.687   4.072
 5059TIP3    H115183   1.415   0.679   4.162
 5059TIP3    H215184   1.289   0.669   4.079
 5060TIP3   OH215185   4.138   3.568   0.217
 5060TIP3    H115186   4.201   3.500   0.243
 5060TIP3    H215187   4.053   3.533   0.244
 5061TIP3   OH215188   3.810   3.771   2.933
 5061TIP3    H115189   3.844   3.733   3.014
 5061TIP3    H215190   3.874   3.746   2.867
 5062TIP3   OH215191   3.417   2.772   2.011
 5062TIP3    H115192   3.411   2.676   2.014
 5062TIP3    H215193   3.356   2.797   1.941
 5063TIP3   OH215194   1.182   2.236   4.464
 5063TIP3    H115195   1.117   2.223   4.395
 5063TIP3    H215196   1.144   2.193   4.541
 5064TIP3   OH215197   5.424   1.224   2.573
 5064TIP3    H115198   5.341   1.235   2.527
 5064TIP3    H215199   5.469   1.308   2.560
 5065TIP3   OH215200   4.225   1.648   4.256
 5065TIP3    H115201   4.262   1.726   4.214
 5065TIP3    H215202   4.214   1.586   4.184
 5066TIP3   OH215203   1.506   0.939   2.855
 5066TIP3    H115204   1.556   0.898   2.926
 5066TIP3    H215205   1.563   1.010   2.823
 5067TIP3   OH215206   0.278   0.770   2.834
 5067TIP3    H115207   0.327   0.692   2.861
 5067TIP3    H215208   0.340   0.819   2.779
 5068TIP3   OH215209   1.453   1.700   0.056
 5068TIP3    H115210   1.482   1.768  -0.005
 5068TIP3    H215211   1.526   1.689   0.116
 5069TIP3   OH215212   3.724   4.229   0.997
 5069TIP3    H115213   3.646   4.182   1.024
 5069TIP3    H215214   3.775   4.240   1.077
 5070TIP3   OH215215   1.113   5.149   0.477
 5070TIP3    H115216   1.117   5.055   0.464
 5070TIP3    H215217   1.052   5.180   0.411
 5071TIP3   OH215218   2.678   2.696   2.153
 5071TIP3    H115219   2.760   2.735   2.184
 5071TIP3    H215220   2.703   2.608   2.124
 5072TIP3   OH215221   4.114   4.222   4.245
 5072TIP3    H115222   4.097   4.291   4.182
 5072TIP3    H215223   4.028   4.190   4.271
 5073TIP3   OH215224   4.551   0.851   4.950
 5073TIP3    H115225   4.502   0.908   5.009
 5073TIP3    H215226   4.533   0.763   4.981
 5074TIP3   OH215227   5.214   4.888   2.722
 5074TIP3    H115228   5.120   4.869   2.722
 5074TIP3    H215229   5.254   4.814   2.768
 5075TIP3   OH215230   3.909   3.100   1.886
 5075TIP3    H115231   3.856   3.052   1.949
 5075TIP3    H215232   3.943   3.033   1.827
 5076TIP3   OH215233   1.359   3.610   0.562
 5076TIP3    H115234   1.401   3.616   0.647
 5076TIP3    H215235   1.422   3.563   0.507
 5077TIP3   OH215236   0.905   3.059   5.063
 5077TIP3    H115237   0.998   3.039   5.052
 5077TIP3    H215238   0.903   3.123   5.134
 5078TIP3   OH215239   4.826   4.632   2.895
 5078TIP3    H115240   4.778   4.667   2.970
 5078TIP3    H215241   4.866   4.552   2.929
 5079TIP3   OH215242   2.377   0.828   3.341
 5079TIP3    H115243   2.362   0.735   3.358
 5079TIP3    H215244   2.432   0.858   3.413
 5080TIP3   OH215245   4.766   1.330   0.600
 5080TIP3    H115246   4.753   1.273   0.676
 5080TIP3    H215247   4.693   1.309   0.541
 5081TIP3   OH215248   5.177   4.694   3.237
 5081TIP3    H115249   5.223   4.758   3.291
 5081TIP3    H215250   5.222   4.611   3.253
 5082TIP3   OH215251   0.763   5.818   3.320
 5082TIP3    H115252   0.832   5.829   3.385
 5082TIP3    H215253   0.682   5.811   3.371
 5083TIP3   OH215254   5.816   4.482   1.066
 5083TIP3    H115255   5.820   4.500   0.972
 5083TIP3    H215256   5.876   4.409   1.079
 5084TIP3   OH215257   5.527   4.332   0.902
 5084TIP3    H115258   5.581   4.370   0.833
 5084TIP3    H215259   5.475   4.405   0.935
 5085TIP3   OH215260   0.488   1.863   2.056
 5085TIP3    H115261   0.540   1.873   2.136
 5085TIP3    H215262   0.495   1.947   2.012
 5086TIP3   OH215263   5.274   2.685   1.816
 5086TIP3    H115264   5.250   2.593   1.802
 5086TIP3    H215265   5.211   2.716   1.882
 5087TIP3   OH215266   2.660  -0.035   1.844
 5087TIP3    H115267   2.668   0.014   1.761
 5087TIP3    H215268   2.568  -0.027   1.868
 5088TIP3   OH215269   0.063   4.803   1.963
 5088TIP3    H115270   0.142   4.790   2.015
 5088TIP3    H215271   0.011   4.865   2.015
 5089TIP3   OH215272   1.725   0.341   0.413
 5089TIP3    H115273   1.812   0.337   0.452
 5089TIP3    H215274   1.667   0.301   0.478
 5090TIP3   OH215275   4.988   0.502   2.418
 5090TIP3    H115276   4.918   0.485   2.481
 5090TIP3    H215277   4.964   0.585   2.376
 5091TIP3   OH215278   4.856   2.902   1.527
 5091TIP3    H115279   4.900   2.910   1.612
 5091TIP3    H215280   4.769   2.870   1.548
 5092TIP3   OH215281   0.368   4.294   2.073
 5092TIP3    H115282   0.404   4.337   1.996
 5092TIP3    H215283   0.428   4.318   2.144
 5093TIP3   OH215284   3.869   2.999   4.014
 5093TIP3    H115285   3.880   3.069   3.949
 5093TIP3    H215286   3.914   2.923   3.975
 5094TIP3   OH215287   5.922   5.746   3.494
 5094TIP3    H115288   5.927   5.830   3.449
 5094TIP3    H215289   5.888   5.768   3.581
 5095TIP3   OH215290   5.975   2.974   4.689
 5095TIP3    H115291   6.059   2.942   4.723
 5095TIP3    H215292   5.926   2.999   4.768
 5096TIP3   OH215293   4.054   3.836   4.215
 5096TIP3    H115294   3.963   3.818   4.238
 5096TIP3    H215295   4.049   3.904   4.149
 5097TIP3   OH215296   0.476   4.632   1.980
 5097TIP3    H115297   0.544   4.638   2.047
 5097TIP3    H215298   0.427   4.714   1.988
 5098TIP3   OH215299   4.304   3.442   5.058
 5098TIP3    H115300   4.260   3.381   4.999
 5098TIP3    H215301   4.242   3.455   5.130
 5099TIP3   OH215302   2.123   4.899   4.164
 5099TIP3    H115303   2.181   4.975   4.168
 5099TIP3    H215304   2.177   4.827   4.196
 5100TIP3   OH215305   6.002   3.543   1.389
 5100TIP3    H115306   5.983   3.545   1.483
 5100TIP3    H215307   6.084   3.494   1.383
 5101TIP3   OH215308   1.965   3.534   3.813
 5101TIP3    H115309   1.962   3.498   3.902
 5101TIP3    H215310   1.891   3.492   3.768
 5102TIP3   OH215311   0.412   3.366   4.678
 5102TIP3    H115312   0.428   3.439   4.738
 5102TIP3    H215313   0.365   3.301   4.731
 5103TIP3   OH215314   3.442   4.095   2.894
 5103TIP3    H115315   3.432   4.005   2.926
 5103TIP3    H215316   3.370   4.107   2.832
 5104TIP3   OH215317   5.494   3.169   2.162
 5104TIP3    H115318   5.499   3.259   2.131
 5104TIP3    H215319   5.405   3.141   2.140
 5105TIP3   OH215320   3.817   2.951   1.232
 5105TIP3    H115321   3.897   3.003   1.240
 5105TIP3    H215322   3.748   3.015   1.218
 5106TIP3   OH215323   4.330   2.397   0.869
 5106TIP3    H115324   4.425   2.406   0.855
 5106TIP3    H215325   4.304   2.480   0.908
 5107TIP3   OH215326   2.554   1.914   0.781
 5107TIP3    H115327   2.503   1.995   0.783
 5107TIP3    H215328   2.645   1.943   0.772
 5108TIP3   OH215329   1.887   0.068   1.301
 5108TIP3    H115330   1.949   0.139   1.319
 5108TIP3    H215331   1.929  -0.010   1.336
 5109TIP3   OH215332   0.789   0.525   0.546
 5109TIP3    H115333   0.855   0.592   0.566
 5109TIP3    H215334   0.778   0.477   0.628
 5110TIP3   OH215335   2.699   4.147   3.422
 5110TIP3    H115336   2.727   4.057   3.406
 5110TIP3    H215337   2.622   4.139   3.479
 5111TIP3   OH215338   5.777   3.513   2.213
 5111TIP3    H115339   5.759   3.469   2.131
 5111TIP3    H215340   5.780   3.606   2.190
 5112TIP3   OH215341   3.207   1.770   0.431
 5112TIP3    H115342   3.239   1.680   0.440
 5112TIP3    H215343   3.185   1.778   0.338
 5113TIP3   OH215344   5.689   0.357   4.769
 5113TIP3    H115345   5.722   0.437   4.810
 5113TIP3    H215346   5.634   0.389   4.697
 5114TIP3   OH215347   2.225   0.352   2.104
 5114TIP3    H115348   2.144   0.324   2.147
 5114TIP3    H215349   2.263   0.416   2.163
 5115TIP3   OH215350   0.780   3.073   2.425
 5115TIP3    H115351   0.766   3.063   2.519
 5115TIP3    H215352   0.850   3.012   2.404
 5116TIP3   OH215353   2.389   2.521   2.173
 5116TIP3    H115354   2.363   2.613   2.185
 5116TIP3    H215355   2.376   2.482   2.259
 5117TIP3   OH215356   3.960   1.895   3.940
 5117TIP3    H115357   3.869   1.918   3.920
 5117TIP3    H215358   3.955   1.809   3.980
 5118TIP3   OH215359   0.048   5.618   4.003
 5118TIP3    H115360   0.108   5.658   4.066
 5118TIP3    H215361  -0.034   5.665   4.014
 5119TIP3   OH215362   4.139   5.280   0.646
 5119TIP3    H115363   4.047   5.260   0.663
 5119TIP3    H215364   4.164   5.219   0.577
 5120TIP3   OH215365   4.230   5.129   4.458
 5120TIP3    H115366   4.197   5.150   4.545
 5120TIP3    H215367   4.294   5.059   4.474
 5121TIP3   OH215368   5.103   3.512   0.154
 5121TIP3    H115369   5.067   3.563   0.226
 5121TIP3    H215370   5.195   3.498   0.178
 5122TIP3   OH215371   1.480   1.668   3.424
 5122TIP3    H115372   1.414   1.696   3.360
 5122TIP3    H215373   1.483   1.573   3.414
 5123TIP3   OH215374   3.572   2.794   0.533
 5123TIP3    H115375   3.625   2.760   0.605
 5123TIP3    H215376   3.504   2.728   0.520
 5124TIP3   OH215377   1.938   2.648   3.852
 5124TIP3    H115378   2.018   2.650   3.798
 5124TIP3    H215379   1.947   2.723   3.910
 5125TIP3   OH215380   3.663   1.726   1.355
 5125TIP3    H115381   3.710   1.686   1.283
 5125TIP3    H215382   3.576   1.746   1.320
 5126TIP3   OH215383   1.578   5.359   3.584
 5126TIP3    H115384   1.651   5.410   3.619
 5126TIP3    H215385   1.602   5.268   3.600
 5127TIP3   OH215386   5.773   5.278   3.043
 5127TIP3    H115387   5.692   5.314   3.007
 5127TIP3    H215388   5.834   5.276   2.969
 5128TIP3   OH215389   4.697   4.552   3.704
 5128TIP3    H115390   4.789   4.528   3.716
 5128TIP3    H215391   4.649   4.471   3.719
 5129TIP3   OH215392   4.524   0.352   1.111
 5129TIP3    H115393   4.429   0.354   1.119
 5129TIP3    H215394   4.555   0.415   1.175
 5130TIP3   OH215395   3.900   0.817   4.979
 5130TIP3    H115396   3.822   0.869   4.966
 5130TIP3    H215397   3.916   0.775   4.895
 5131TIP3   OH215398   0.381   0.861   2.517
 5131TIP3    H115399   0.409   0.773   2.490
 5131TIP3    H215400   0.339   0.898   2.439
 5132TIP3   OH215401   2.416   3.307   3.395
 5132TIP3    H115402   2.421   3.259   3.479
 5132TIP3    H215403   2.499   3.354   3.389
 5133TIP3   OH215404   5.228   0.256   2.625
 5133TIP3    H115405   5.233   0.244   2.531
 5133TIP3    H215406   5.225   0.351   2.637
 5134TIP3   OH215407   0.417   5.597   1.109
 5134TIP3    H115408   0.448   5.523   1.055
 5134TIP3    H215409   0.322   5.593   1.102
 5135TIP3   OH215410   2.551   0.675   3.787
 5135TIP3    H115411   2.645   0.659   3.780
 5135TIP3    H215412   2.534   0.682   3.881
 5136TIP3   OH215413   2.580   0.008   3.065
 5136TIP3    H115414   2.669  -0.027   3.064
 5136TIP3    H215415   2.564   0.034   2.974
 5137TIP3   OH215416   2.392   3.449   1.343
 5137TIP3    H115417   2.449   3.380   1.378
 5137TIP3    H215418   2.413   3.452   1.250
 5138TIP3   OH215419   3.075   5.262   4.114
 5138TIP3    H115420   3.011   5.297   4.051
 5138TIP3    H215421   3.062   5.167   4.111
 5139TIP3   OH215422   3.359   1.364   3.277
 5139TIP3    H115423   3.424   1.343   3.343
 5139TIP3    H215424   3.409   1.403   3.205
 5140TIP3   OH215425   6.284   0.553   1.909
 5140TIP3    H115426   6.283   0.461   1.882
 5140TIP3    H215427   6.300   0.602   1.829
 5141TIP3   OH215428   3.275   4.232   3.468
 5141TIP3    H115429   3.275   4.305   3.406
 5141TIP3    H215430   3.237   4.159   3.420
 5142TIP3   OH215431   5.854   1.010   3.184
 5142TIP3    H115432   5.912   0.943   3.148
 5142TIP3    H215433   5.782   0.961   3.224
 5143TIP3   OH215434   6.259   1.930   4.202
 5143TIP3    H115435   6.233   1.839   4.186
 5143TIP3    H215436   6.347   1.924   4.239
 5144TIP3   OH215437   3.009   5.304   1.091
 5144TIP3    H115438   3.034   5.236   1.154
 5144TIP3    H215439   2.919   5.282   1.066
 5145TIP3   OH215440   3.649   3.200   0.835
 5145TIP3    H115441   3.730   3.218   0.787
 5145TIP3    H215442   3.619   3.116   0.800
 5146TIP3   OH215443   1.323   5.222   2.094
 5146TIP3    H115444   1.340   5.139   2.139
 5146TIP3    H215445   1.314   5.286   2.165
 5147TIP3   OH215446   5.601   1.292   0.938
 5147TIP3    H115447   5.508   1.306   0.954
 5147TIP3    H215448   5.639   1.380   0.942
 5148TIP3   OH215449   5.656   3.864   4.332
 5148TIP3    H115450   5.567   3.877   4.300
 5148TIP3    H215451   5.697   3.950   4.326
 5149TIP3   OH215452   4.642   1.658   1.623
 5149TIP3    H115453   4.726   1.643   1.579
 5149TIP3    H215454   4.581   1.599   1.578
 5150TIP3   OH215455   3.912   0.054   2.372
 5150TIP3    H115456   3.914   0.019   2.283
 5150TIP3    H215457   3.925   0.148   2.361
 5151TIP3   OH215458   6.053   4.643   4.169
 5151TIP3    H115459   6.085   4.676   4.085
 5151TIP3    H215460   6.016   4.557   4.147
 5152TIP3   OH215461   2.612   4.333   4.065
 5152TIP3    H115462   2.705   4.311   4.068
 5152TIP3    H215463   2.583   4.330   4.156
 5153TIP3   OH215464   2.951   0.395   1.475
 5153TIP3    H115465   2.978   0.321   1.421
 5153TIP3    H215466   2.861   0.413   1.449
 5154TIP3   OH215467   5.470   1.992   5.059
 5154TIP3    H115468   5.546   1.988   5.117
 5154TIP3    H215469   5.500   1.954   4.977
 5155TIP3   OH215470   3.501   0.610   1.886
 5155TIP3    H115471   3.560   0.677   1.920
 5155TIP3    H215472   3.554   0.530   1.885
 5156TIP3   OH215473   2.738   3.470   3.193
 5156TIP3    H115474   2.823   3.501   3.223
 5156TIP3    H215475   2.731   3.381   3.228
 5157TIP3   OH215476   4.385   5.402   4.323
 5157TIP3    H115477   4.358   5.342   4.253
 5157TIP3    H215478   4.328   5.380   4.396
 5158TIP3   OH215479   3.617   3.418   0.371
 5158TIP3    H115480   3.579   3.411   0.459
 5158TIP3    H215481   3.628   3.327   0.342
 5159TIP3   OH215482   2.895   2.487   1.119
 5159TIP3    H115483   2.906   2.562   1.179
 5159TIP3    H215484   2.823   2.436   1.158
 5160TIP3   OH215485   3.540   3.241   3.029
 5160TIP3    H115486   3.606   3.307   3.006
 5160TIP3    H215487   3.490   3.281   3.100
 5161TIP3   OH215488   2.554  -0.013   0.024
 5161TIP3    H115489   2.564   0.076  -0.008
 5161TIP3    H215490   2.461  -0.023   0.041
 5162TIP3   OH215491   2.764   0.665   0.491
 5162TIP3    H115492   2.822   0.593   0.468
 5162TIP3    H215493   2.753   0.714   0.410
 5163TIP3   OH215494   1.088   4.948   5.038
 5163TIP3    H115495   0.997   4.966   5.014
 5163TIP3    H215496   1.095   4.980   5.128
 5164TIP3   OH215497   4.973   4.858   3.111
 5164TIP3    H115498   5.033   4.795   3.151
 5164TIP3    H215499   4.888   4.839   3.151
 5165TIP3   OH215500   1.654   3.058   2.630
 5165TIP3    H115501   1.637   3.051   2.724
 5165TIP3    H215502   1.603   2.987   2.591
 5166TIP3   OH215503   0.635   1.496   2.212
 5166TIP3    H115504   0.542   1.495   2.230
 5166TIP3    H215505   0.677   1.470   2.294
 5167TIP3   OH215506   2.366   5.213   3.934
 5167TIP3    H115507   2.430   5.184   3.869
 5167TIP3    H215508   2.396   5.300   3.961
 5168TIP3   OH215509   1.095   1.014   1.319
 5168TIP3    H115510   1.114   1.061   1.238
 5168TIP3    H215511   1.080   1.084   1.383
 5169TIP3   OH215512   3.468   2.504   2.291
 5169TIP3    H115513   3.517   2.526   2.370
 5169TIP3    H215514   3.380   2.485   2.322
 5170TIP3   OH215515   5.581   5.623   1.102
 5170TIP3    H115516   5.622   5.538   1.114
 5170TIP3    H215517   5.503   5.620   1.157
 5171TIP3   OH215518   2.519   5.389   3.152
 5171TIP3    H115519   2.555   5.312   3.108
 5171TIP3    H215520   2.590   5.420   3.208
 5172TIP3   OH215521   2.891   0.839   2.938
 5172TIP3    H115522   2.881   0.933   2.929
 5172TIP3    H215523   2.958   0.828   3.006
 5173TIP3   OH215524   2.979   4.515   2.915
 5173TIP3    H115525   2.911   4.465   2.961
 5173TIP3    H215526   2.997   4.463   2.836
 5174TIP3   OH215527   5.255   4.962   0.391
 5174TIP3    H115528   5.232   5.036   0.333
 5174TIP3    H215529   5.215   4.886   0.349
 5175TIP3   OH215530   1.758   3.225   2.182
 5175TIP3    H115531   1.795   3.158   2.125
 5175TIP3    H215532   1.770   3.190   2.271
 5176TIP3   OH215533   4.185   5.964   3.032
 5176TIP3    H115534   4.127   6.040   3.037
 5176TIP3    H215535   4.178   5.934   2.941
 5177TIP3   OH215536   4.079   1.385   3.216
 5177TIP3    H115537   4.014   1.454   3.228
 5177TIP3    H215538   4.058   1.320   3.283
 5178TIP3   OH215539   4.258   0.306   0.415
 5178TIP3    H115540   4.205   0.385   0.423
 5178TIP3    H215541   4.234   0.270   0.329
 5179TIP3   OH215542   4.038   1.306  -0.056
 5179TIP3    H115543   3.967   1.315   0.007
 5179TIP3    H215544   4.109   1.265  -0.007
 5180TIP3   OH215545   0.036   5.278   1.483
 5180TIP3    H115546   0.121   5.317   1.460
 5180TIP3    H215547   0.053   5.232   1.565
 5181TIP3   OH215548   4.508   2.795   1.373
 5181TIP3    H115549   4.561   2.801   1.294
 5181TIP3    H215550   4.493   2.701   1.385
 5182TIP3   OH215551   0.374   1.112   3.508
 5182TIP3    H115552   0.306   1.146   3.449
 5182TIP3    H215553   0.344   1.024   3.530
 5183TIP3   OH215554   5.535   3.300   0.448
 5183TIP3    H115555   5.555   3.358   0.522
 5183TIP3    H215556   5.485   3.355   0.388
 5184TIP3   OH215557   3.972   1.822   0.342
 5184TIP3    H115558   3.968   1.846   0.434
 5184TIP3    H215559   4.019   1.739   0.341
 5185TIP3   OH215560   0.780   5.078   4.290
 5185TIP3    H115561   0.812   5.168   4.291
 5185TIP3    H215562   0.851   5.027   4.330
 5186TIP3   OH215563   6.087   3.435   3.172
 5186TIP3    H115564   6.130   3.382   3.240
 5186TIP3    H215565   6.021   3.377   3.135
 5187TIP3   OH215566   0.656   0.481   3.572
 5187TIP3    H115567   0.712   0.548   3.531
 5187TIP3    H215568   0.606   0.444   3.499
 5188TIP3   OH215569   1.374   3.097   1.780
 5188TIP3    H115570   1.295   3.046   1.764
 5188TIP3    H215571   1.362   3.133   1.868
 5189TIP3   OH215572   1.212   1.994   3.465
 5189TIP3    H115573   1.170   2.071   3.427
 5189TIP3    H215574   1.289   2.028   3.510
 5190TIP3   OH215575   4.229   0.860   0.166
 5190TIP3    H115576   4.308   0.881   0.215
 5190TIP3    H215577   4.260   0.839   0.078
 5191TIP3   OH215578   4.147   1.812   0.693
 5191TIP3    H115579   4.125   1.792   0.784
 5191TIP3    H215580   4.194   1.895   0.697
 5192TIP3   OH215581   1.725   1.622   3.749
 5192TIP3    H115582   1.742   1.716   3.755
 5192TIP3    H215583   1.767   1.594   3.667
 5193TIP3   OH215584   6.250   2.896   4.765
 5193TIP3    H115585   6.262   2.841   4.843
 5193TIP3    H215586   6.278   2.983   4.792
 5194TIP3   OH215587   2.211   3.945   2.391
 5194TIP3    H115588   2.155   3.883   2.345
 5194TIP3    H215589   2.254   3.996   2.322
 5195TIP3   OH215590   1.102   5.507   0.324
 5195TIP3    H115591   1.183   5.468   0.357
 5195TIP3    H215592   1.036   5.440   0.339
 5196TIP3   OH215593   3.048   2.807   0.476
 5196TIP3    H115594   3.124   2.765   0.517
 5196TIP3    H215595   3.075   2.898   0.465
 5197TIP3   OH215596   0.698   0.222   2.923
 5197TIP3    H115597   0.681   0.276   3.000
 5197TIP3    H215598   0.787   0.247   2.896
 5198TIP3   OH215599   4.196   5.355   2.440
 5198TIP3    H115600   4.151   5.438   2.455
 5198TIP3    H215601   4.264   5.352   2.507
 5199TIP3   OH215602   6.028   1.264   3.627
 5199TIP3    H115603   5.950   1.232   3.582
 5199TIP3    H215604   6.083   1.299   3.557
 5200TIP3   OH215605   2.160   5.446   4.723
 5200TIP3    H115606   2.075   5.482   4.748
 5200TIP3    H215607   2.149   5.351   4.733
 5201TIP3   OH215608   5.302   1.734   3.590
 5201TIP3    H115609   5.232   1.799   3.599
 5201TIP3    H215610   5.308   1.718   3.496
 5202TIP3   OH215611   4.019   1.545   0.331
 5202TIP3    H115612   4.082   1.527   0.400
 5202TIP3    H215613   3.991   1.458   0.301
 5203TIP3   OH215614   3.471   5.944   0.874
 5203TIP3    H115615   3.553   5.910   0.908
 5203TIP3    H215616   3.412   5.869   0.873
 5204TIP3   OH215617   1.873   5.941   4.966
 5204TIP3    H115618   1.888   5.931   5.060
 5204TIP3    H215619   1.863   5.852   4.933
 5205TIP3   OH215620   4.125   3.366   4.283
 5205TIP3    H115621   4.147   3.368   4.376
 5205TIP3    H215622   4.071   3.287   4.273
 5206TIP3   OH215623   0.336   4.365   1.590
 5206TIP3    H115624   0.296   4.447   1.562
 5206TIP3    H215625   0.363   4.381   1.680
 5207TIP3   OH215626   1.648   1.161   2.823
 5207TIP3    H115627   1.600   1.239   2.794
 5207TIP3    H215628   1.716   1.196   2.881
 5208TIP3   OH215629   2.899   0.591   3.561
 5208TIP3    H115630   2.805   0.577   3.572
 5208TIP3    H215631   2.911   0.686   3.566
 5209TIP3   OH215632   4.841   3.790   4.932
 5209TIP3    H115633   4.762   3.785   4.878
 5209TIP3    H215634   4.911   3.812   4.869
 5210TIP3   OH215635   0.438   2.589   0.528
 5210TIP3    H115636   0.532   2.594   0.506
 5210TIP3    H215637   0.403   2.524   0.467
 5211TIP3   OH215638   4.857   3.608   3.543
 5211TIP3    H115639   4.775   3.565   3.518
 5211TIP3    H215640   4.925   3.546   3.515
 5212TIP3   OH215641   3.516   0.932   0.607
 5212TIP3    H115642   3.583   0.941   0.539
 5212TIP3    H215643   3.451   0.998   0.585
 5213TIP3   OH215644   0.941   5.771   1.448
 5213TIP3    H115645   1.015   5.828   1.468
 5213TIP3    H215646   0.868   5.808   1.498
 5214TIP3   OH215647   4.581   0.822   2.999
 5214TIP3    H115648   4.515   0.753   3.000
 5214TIP3    H215649   4.562   0.873   2.921
 5215TIP3   OH215650   5.800   0.554   3.325
 5215TIP3    H115651   5.859   0.499   3.376
 5215TIP3    H215652   5.744   0.596   3.390
 5216TIP3   OH215653   0.349   2.184   4.724
 5216TIP3    H115654   0.325   2.098   4.760
 5216TIP3    H215655   0.353   2.242   4.800
 5217TIP3   OH215656   1.402   1.078   2.530
 5217TIP3    H115657   1.497   1.093   2.531
 5217TIP3    H215658   1.380   1.070   2.437
 5218TIP3   OH215659   3.328   0.999   2.701
 5218TIP3    H115660   3.352   0.979   2.791
 5218TIP3    H215661   3.411   1.003   2.654
 5219TIP3   OH215662   6.012   1.560   2.163
 5219TIP3    H115663   6.096   1.579   2.205
 5219TIP3    H215664   5.976   1.487   2.214
 5220TIP3   OH215665   3.701   4.853   0.145
 5220TIP3    H115666   3.658   4.806   0.217
 5220TIP3    H215667   3.635   4.915   0.113
 5221TIP3   OH215668   1.386   2.497   3.833
 5221TIP3    H115669   1.480   2.513   3.824
 5221TIP3    H215670   1.376   2.404   3.815
 5222TIP3   OH215671   4.776   3.150   4.813
 5222TIP3    H115672   4.786   3.131   4.906
 5222TIP3    H215673   4.724   3.077   4.779
 5223TIP3   OH215674   3.360   1.799   3.684
 5223TIP3    H115675   3.328   1.716   3.648
 5223TIP3    H215676   3.299   1.820   3.755
 5224TIP3   OH215677   3.341   3.965   4.339
 5224TIP3    H115678   3.432   3.985   4.360
 5224TIP3    H215679   3.327   4.004   4.252
 5225TIP3   OH215680   2.130   5.422   0.063
 5225TIP3    H115681   2.085   5.449   0.142
 5225TIP3    H215682   2.135   5.501   0.009
 5226TIP3   OH215683   0.389   5.043   3.013
 5226TIP3    H115684   0.472   5.068   3.052
 5226TIP3    H215685   0.393   4.947   3.010
 5227TIP3   OH215686   6.042   3.307   4.067
 5227TIP3    H115687   6.011   3.396   4.054
 5227TIP3    H215688   6.045   3.296   4.162
 5228TIP3   OH215689   4.185   4.346   1.890
 5228TIP3    H115690   4.214   4.255   1.886
 5228TIP3    H215691   4.145   4.363   1.805
 5229TIP3   OH215692   2.074   4.260   4.098
 5229TIP3    H115693   2.061   4.185   4.156
 5229TIP3    H215694   2.092   4.333   4.157
 5230TIP3   OH215695   1.276   1.521   4.045
 5230TIP3    H115696   1.232   1.597   4.083
 5230TIP3    H215697   1.337   1.493   4.113
 5231TIP3   OH215698   4.457   2.239   0.134
 5231TIP3    H115699   4.364   2.252   0.150
 5231TIP3    H215700   4.495   2.327   0.135
 5232TIP3   OH215701   4.997   2.488   2.188
 5232TIP3    H115702   4.927   2.535   2.143
 5232TIP3    H215703   5.057   2.557   2.217
 5233TIP3   OH215704   2.104   3.696   1.051
 5233TIP3    H115705   2.097   3.700   1.147
 5233TIP3    H215706   2.189   3.735   1.032
 5234TIP3   OH215707   6.131   5.034   3.524
 5234TIP3    H115708   6.101   5.124   3.519
 5234TIP3    H215709   6.093   5.000   3.605
 5235TIP3   OH215710   5.960   1.088   0.203
 5235TIP3    H115711   6.022   1.084   0.275
 5235TIP3    H215712   5.882   1.043   0.235
 5236TIP3   OH215713   6.101   0.175   2.449
 5236TIP3    H115714   6.122   0.187   2.357
 5236TIP3    H215715   6.176   0.210   2.496
 5237TIP3   OH215716   0.125   1.974   1.818
 5237TIP3    H115717   0.033   1.950   1.827
 5237TIP3    H215718   0.141   2.035   1.890
 5238TIP3   OH215719   1.500   2.572   1.860
 5238TIP3    H115720   1.538   2.576   1.948
 5238TIP3    H215721   1.429   2.636   1.862
 5239TIP3   OH215722   4.237   2.579   3.458
 5239TIP3    H115723   4.312   2.562   3.401
 5239TIP3    H215724   4.255   2.530   3.538
 5240TIP3   OH215725   1.528   5.605   1.254
 5240TIP3    H115726   1.466   5.533   1.247
 5240TIP3    H215727   1.583   5.581   1.329
 5241TIP3   OH215728   6.090   2.623   0.356
 5241TIP3    H115729   6.127   2.682   0.421
 5241TIP3    H215730   6.165   2.579   0.318
 5242TIP3   OH215731   2.127   4.608   1.057
 5242TIP3    H115732   2.068   4.681   1.038
 5242TIP3    H215733   2.097   4.574   1.141
 5243TIP3   OH215734   1.651   0.686   4.962
 5243TIP3    H115735   1.555   0.690   4.965
 5243TIP3    H215736   1.671   0.640   4.881
 5244TIP3   OH215737   6.277   0.717   0.116
 5244TIP3    H115738   6.270   0.632   0.073
 5244TIP3    H215739   6.344   0.764   0.067
 5245TIP3   OH215740   1.424   3.862   1.732
 5245TIP3    H115741   1.334   3.888   1.712
 5245TIP3    H215742   1.447   3.800   1.663
 5246TIP3   OH215743   1.241   5.735   3.539
 5246TIP3    H115744   1.187   5.687   3.476
 5246TIP3    H215745   1.320   5.680   3.548
 5247TIP3   OH215746   1.582   2.778   4.831
 5247TIP3    H115747   1.496   2.746   4.801
 5247TIP3    H215748   1.562   2.855   4.884
 5248TIP3   OH215749   2.769   1.728   1.921
 5248TIP3    H115750   2.742   1.714   2.012
 5248TIP3    H215751   2.690   1.761   1.878
 5249TIP3   OH215752   0.282   4.394   2.743
 5249TIP3    H115753   0.333   4.335   2.687
 5249TIP3    H215754   0.221   4.336   2.789
 5250TIP3   OH215755   1.034   5.515   1.586
 5250TIP3    H115756   0.966   5.523   1.519
 5250TIP3    H215757   1.051   5.605   1.613
 5251TIP3   OH215758   5.590   1.265   4.378
 5251TIP3    H115759   5.666   1.250   4.322
 5251TIP3    H215760   5.529   1.195   4.356
 5252TIP3   OH215761   0.970   4.333   0.875
 5252TIP3    H115762   0.992   4.361   0.964
 5252TIP3    H215763   1.044   4.362   0.821
 5253TIP3   OH215764   5.673   1.558   0.975
 5253TIP3    H115765   5.593   1.599   1.008
 5253TIP3    H215766   5.743   1.591   1.031
 5254TIP3   OH215767   5.652   2.764   1.760
 5254TIP3    H115768   5.711   2.806   1.824
 5254TIP3    H215769   5.711   2.731   1.692
 5255TIP3   OH215770   1.093   5.960   3.855
 5255TIP3    H115771   1.138   6.044   3.867
 5255TIP3    H215772   1.149   5.896   3.900
 5256TIP3   OH215773   2.800   3.719   4.360
 5256TIP3    H115774   2.756   3.789   4.408
 5256TIP3    H215775   2.742   3.643   4.370
 5257TIP3   OH215776   3.892   5.123   0.702
 5257TIP3    H115777   3.851   5.046   0.741
 5257TIP3    H215778   3.826   5.158   0.643
 5258TIP3   OH215779   2.161   2.687   3.685
 5258TIP3    H115780   2.251   2.655   3.672
 5258TIP3    H215781   2.139   2.728   3.601
 5259TIP3   OH215782   1.903   2.849   4.242
 5259TIP3    H115783   1.831   2.890   4.289
 5259TIP3    H215784   1.893   2.880   4.152
 5260TIP3   OH215785   0.040   3.677   0.496
 5260TIP3    H115786   0.030   3.661   0.402
 5260TIP3    H215787   0.040   3.772   0.504
 5261TIP3   OH215788   4.689   2.345   4.947
 5261TIP3    H115789   4.718   2.307   4.864
 5261TIP3    H215790   4.743   2.423   4.958
 5262TIP3   OH215791   3.197   3.644   0.888
 5262TIP3    H115792   3.232   3.596   0.813
 5262TIP3    H215793   3.110   3.608   0.902
 5263TIP3   OH215794   2.301   3.868   3.115
 5263TIP3    H115795   2.272   3.959   3.124
 5263TIP3    H215796   2.250   3.834   3.041
 5264TIP3   OH215797   2.401   2.514   3.677
 5264TIP3    H115798   2.360   2.475   3.599
 5264TIP3    H215799   2.444   2.441   3.721
 5265TIP3   OH215800   4.955   4.945   4.373
 5265TIP3    H115801   4.965   5.024   4.320
 5265TIP3    H215802   4.978   4.972   4.462
 5266TIP3   OH215803   5.970   2.318   0.824
 5266TIP3    H115804   5.906   2.323   0.895
 5266TIP3    H215805   5.921   2.280   0.751
 5267TIP3   OH215806   2.458   0.102   4.828
 5267TIP3    H115807   2.401   0.125   4.755
 5267TIP3    H215808   2.547   0.116   4.794
 5268TIP3   OH215809   2.985   4.874   0.201
 5268TIP3    H115810   3.077   4.847   0.193
 5268TIP3    H215811   2.951   4.822   0.274
 5269TIP3   OH215812   1.292   0.714   2.517
 5269TIP3    H115813   1.382   0.742   2.506
 5269TIP3    H215814   1.276   0.723   2.611
 5270TIP3   OH215815   0.704   4.035   0.104
 5270TIP3    H115816   0.613   4.050   0.076
 5270TIP3    H215817   0.722   4.106   0.166
 5271TIP3   OH215818   2.587   4.227   2.545
 5271TIP3    H115819   2.540   4.277   2.478
 5271TIP3    H215820   2.528   4.155   2.567
 5272TIP3   OH215821   5.444   5.077   2.413
 5272TIP3    H115822   5.520   5.061   2.358
 5272TIP3    H215823   5.473   5.055   2.501
 5273TIP3   OH215824   5.924   2.642   1.020
 5273TIP3    H115825   5.933   2.698   1.097
 5273TIP3    H215826   5.845   2.591   1.037
 5274TIP3   OH215827   3.950   0.052   4.533
 5274TIP3    H115828   3.942  -0.018   4.468
 5274TIP3    H215829   3.946   0.007   4.617
 5275TIP3   OH215830   0.083   1.304   0.572
 5275TIP3    H115831   0.031   1.373   0.533
 5275TIP3    H215832   0.160   1.349   0.609
 5276TIP3   OH215833   2.331   1.899   3.278
 5276TIP3    H115834   2.300   1.948   3.354
 5276TIP3    H215835   2.413   1.859   3.306
 5277TIP3   OH215836   1.483   1.679   2.848
 5277TIP3    H115837   1.544   1.722   2.789
 5277TIP3    H215838   1.481   1.735   2.926
 5278TIP3   OH215839   0.636   0.835   0.412
 5278TIP3    H115840   0.710   0.876   0.457
 5278TIP3    H215841   0.667   0.748   0.390
 5279TIP3   OH215842   0.585   5.264   0.438
 5279TIP3    H115843   0.607   5.357   0.444
 5279TIP3    H215844   0.489   5.262   0.438
 5280TIP3   OH215845   2.469   0.186   5.095
 5280TIP3    H115846   2.477   0.140   5.012
 5280TIP3    H215847   2.514   0.269   5.081
 5281TIP3   OH215848   3.527   3.404   0.635
 5281TIP3    H115849   3.465   3.465   0.674
 5281TIP3    H215850   3.528   3.329   0.694
 5282TIP3   OH215851   3.643   1.996   0.022
 5282TIP3    H115852   3.652   1.970   0.114
 5282TIP3    H215853   3.549   1.989   0.004
 5283TIP3   OH215854   3.539   3.972   0.075
 5283TIP3    H115855   3.624   3.928   0.082
 5283TIP3    H215856   3.552   4.037   0.006
 5284TIP3   OH215857   5.530   5.076   1.692
 5284TIP3    H115858   5.486   5.025   1.760
 5284TIP3    H215859   5.471   5.150   1.676
 5285TIP3   OH215860   3.979   2.495   4.705
 5285TIP3    H115861   3.913   2.557   4.735
 5285TIP3    H215862   3.990   2.515   4.612
 5286TIP3   OH215863   6.016   3.560   2.735
 5286TIP3    H115864   5.942   3.615   2.710
 5286TIP3    H215865   6.072   3.617   2.788
 5287TIP3   OH215866   3.186   2.379   2.551
 5287TIP3    H115867   3.101   2.347   2.581
 5287TIP3    H215868   3.199   2.462   2.598
 5288TIP3   OH215869   4.146   0.027   3.020
 5288TIP3    H115870   4.224   0.016   3.074
 5288TIP3    H215871   4.178   0.025   2.930
 5289TIP3   OH215872   4.518   1.006   3.647
 5289TIP3    H115873   4.562   1.055   3.577
 5289TIP3    H215874   4.533   1.059   3.726
 5290TIP3   OH215875   0.918   1.413   4.215
 5290TIP3    H115876   0.989   1.386   4.273
 5290TIP3    H215877   0.882   1.492   4.256
 5291TIP3   OH215878   6.075   0.959   1.198
 5291TIP3    H115879   6.015   0.915   1.138
 5291TIP3    H215880   6.162   0.944   1.160
 5292TIP3   OH215881   0.840   2.606   2.478
 5292TIP3    H115882   0.822   2.532   2.536
 5292TIP3    H215883   0.806   2.579   2.393
 5293TIP3   OH215884   5.061   0.853   1.996
 5293TIP3    H115885   5.104   0.875   2.079
 5293TIP3    H215886   5.028   0.764   2.010
 5294TIP3   OH215887   4.825   3.867   2.143
 5294TIP3    H115888   4.891   3.841   2.207
 5294TIP3    H215889   4.742   3.851   2.188
 5295TIP3   OH215890   6.064   1.922   3.897
 5295TIP3    H115891   6.149   1.963   3.883
 5295TIP3    H215892   6.077   1.830   3.874
 5296TIP3   OH215893   3.697   4.338   1.642
 5296TIP3    H115894   3.679   4.432   1.649
 5296TIP3    H215895   3.611   4.298   1.634
 5297TIP3   OH215896   1.123   4.902   2.327
 5297TIP3    H115897   1.115   4.849   2.407
 5297TIP3    H215898   1.039   4.890   2.283
 5298TIP3   OH215899   5.388   3.369   3.140
 5298TIP3    H115900   5.409   3.461   3.155
 5298TIP3    H215901   5.383   3.331   3.227
 5299TIP3   OH215902   2.045   3.171   3.222
 5299TIP3    H115903   1.952   3.192   3.216
 5299TIP3    H215904   2.050   3.076   3.217
 5300TIP3   OH215905   0.949   4.409   2.768
 5300TIP3    H115906   0.909   4.393   2.682
 5300TIP3    H215907   0.951   4.505   2.775
 5301TIP3   OH215908   1.968   5.023   0.122
 5301TIP3    H115909   1.972   4.957   0.053
 5301TIP3    H215910   1.967   4.973   0.203
 5302TIP3   OH215911   5.133   5.183   3.775
 5302TIP3    H115912   5.114   5.149   3.863
 5302TIP3    H215913   5.227   5.168   3.764
 5303TIP3   OH215914   2.083   2.959   3.785
 5303TIP3    H115915   2.070   3.031   3.724
 5303TIP3    H215916   2.142   2.899   3.740
 5304TIP3   OH215917   4.486   5.528   3.381
 5304TIP3    H115918   4.576   5.541   3.411
 5304TIP3    H215919   4.493   5.466   3.309
 5305TIP3   OH215920   0.761   3.411   4.355
 5305TIP3    H115921   0.668   3.416   4.336
 5305TIP3    H215922   0.768   3.343   4.422
 5306TIP3   OH215923   0.511   2.228   1.197
 5306TIP3    H115924   0.466   2.216   1.113
 5306TIP3    H215925   0.449   2.194   1.262
 5307TIP3   OH215926   5.461   3.248   4.350
 5307TIP3    H115927   5.526   3.178   4.345
 5307TIP3    H215928   5.384   3.207   4.390
 5308TIP3   OH215929   4.558   2.516   1.353
 5308TIP3    H115930   4.469   2.481   1.357
 5308TIP3    H215931   4.591   2.487   1.267
 5309TIP3   OH215932   2.273   0.431   3.009
 5309TIP3    H115933   2.313   0.372   2.946
 5309TIP3    H215934   2.347   0.471   3.055
 5310TIP3   OH215935   4.962   5.662   2.827
 5310TIP3    H115936   4.939   5.569   2.832
 5310TIP3    H215937   4.905   5.698   2.760
 5311TIP3   OH215938   6.040   5.854   3.061
 5311TIP3    H115939   5.993   5.775   3.086
 5311TIP3    H215940   6.074   5.890   3.143
 5312TIP3   OH215941   3.847   0.868   4.663
 5312TIP3    H115942   3.752   0.865   4.651
 5312TIP3    H215943   3.874   0.947   4.615
 5313TIP3   OH215944   3.357   2.476   1.072
 5313TIP3    H115945   3.267   2.482   1.039
 5313TIP3    H215946   3.393   2.398   1.029
 5314TIP3   OH215947   4.079   5.277   3.439
 5314TIP3    H115948   4.066   5.183   3.453
 5314TIP3    H215949   4.170   5.285   3.412
 5315TIP3   OH215950   0.958   1.578   0.705
 5315TIP3    H115951   0.940   1.485   0.695
 5315TIP3    H215952   0.873   1.621   0.695
 5316TIP3   OH215953   4.988   1.839   4.637
 5316TIP3    H115954   4.946   1.894   4.703
 5316TIP3    H215955   4.920   1.776   4.612
 5317TIP3   OH215956   5.078   3.297   0.504
 5317TIP3    H115957   5.120   3.259   0.426
 5317TIP3    H215958   5.050   3.222   0.555
 5318TIP3   OH215959   2.885   5.049   5.038
 5318TIP3    H115960   2.981   5.046   5.038
 5318TIP3    H215961   2.863   5.102   4.961
 5319TIP3   OH215962   0.256   2.663   5.093
 5319TIP3    H115963   0.336   2.626   5.130
 5319TIP3    H215964   0.247   2.621   5.008
 5320TIP3   OH215965   2.613   1.164   1.509
 5320TIP3    H115966   2.595   1.258   1.518
 5320TIP3    H215967   2.535   1.121   1.543
 5321TIP3   OH215968   4.083   2.505   3.923
 5321TIP3    H115969   4.072   2.446   3.849
 5321TIP3    H215970   4.177   2.523   3.927
 5322TIP3   OH215971   0.828   0.537   2.232
 5322TIP3    H115972   0.897   0.601   2.244
 5322TIP3    H215973   0.842   0.473   2.303
 5323TIP3   OH215974   1.941   4.769   1.252
 5323TIP3    H115975   1.962   4.680   1.280
 5323TIP3    H215976   1.849   4.764   1.225
 5324TIP3   OH215977   4.901   5.083   4.893
 5324TIP3    H115978   4.893   5.176   4.917
 5324TIP3    H215979   4.995   5.069   4.886
 5325TIP3   OH215980   4.498   5.699   1.758
 5325TIP3    H115981   4.434   5.703   1.688
 5325TIP3    H215982   4.579   5.670   1.716
 5326TIP3   OH215983   2.624   4.516   1.086
 5326TIP3    H115984   2.612   4.421   1.090
 5326TIP3    H215985   2.599   4.547   1.173
 5327TIP3   OH215986   0.403   1.134   4.838
 5327TIP3    H115987   0.328   1.172   4.884
 5327TIP3    H215988   0.388   1.040   4.842
 5328TIP3   OH215989   1.533   3.500   3.099
 5328TIP3    H115990   1.481   3.443   3.156
 5328TIP3    H215991   1.526   3.461   3.012
 5329TIP3   OH215992   3.115   4.985   2.590
 5329TIP3    H115993   3.147   5.039   2.661
 5329TIP3    H215994   3.074   5.047   2.529
 5330TIP3   OH215995   3.507   3.021   2.459
 5330TIP3    H115996   3.502   2.954   2.392
 5330TIP3    H215997   3.576   2.992   2.518
 5331TIP3   OH215998   0.152   1.046   0.495
 5331TIP3    H115999   0.247   1.037   0.487
 5331TIP3    H216000   0.136   1.140   0.496
 5332TIP3   OH216001   4.294   0.529   1.307
 5332TIP3    H116002   4.223   0.478   1.347
 5332TIP3    H216003   4.352   0.552   1.379
 5333TIP3   OH216004   4.346   3.729   4.695
 5333TIP3    H116005   4.264   3.693   4.662
 5333TIP3    H216006   4.334   3.824   4.688
 5334TIP3   OH216007   1.330   0.103   0.595
 5334TIP3    H116008   1.258   0.137   0.648
 5334TIP3    H216009   1.344   0.169   0.528
 5335TIP3   OH216010   1.793   1.282   4.900
 5335TIP3    H116011   1.843   1.363   4.915
 5335TIP3    H216012   1.716   1.311   4.851
 5336TIP3   OH216013   1.417   1.095   0.979
 5336TIP3    H116014   1.453   1.176   1.014
 5336TIP3    H216015   1.449   1.027   1.039
 5337TIP3   OH216016   4.108   1.334   2.370
 5337TIP3    H116017   4.024   1.290   2.385
 5337TIP3    H216018   4.086   1.427   2.364
 5338TIP3   OH216019   5.669   2.515   2.635
 5338TIP3    H116020   5.748   2.566   2.649
 5338TIP3    H216021   5.669   2.494   2.542
 5339TIP3   OH216022   4.673   1.804   0.940
 5339TIP3    H116023   4.764   1.828   0.925
 5339TIP3    H216024   4.675   1.710   0.957
 5340TIP3   OH216025   4.610   3.302   2.753
 5340TIP3    H116026   4.658   3.259   2.824
 5340TIP3    H216027   4.622   3.395   2.769
 5341TIP3   OH216028   1.365   2.491   3.168
 5341TIP3    H116029   1.410   2.570   3.198
 5341TIP3    H216030   1.433   2.423   3.169
 5342TIP3   OH216031   0.625   4.557   3.625
 5342TIP3    H116032   0.573   4.553   3.705
 5342TIP3    H216033   0.627   4.467   3.592
 5343TIP3   OH216034   1.075   0.407   4.278
 5343TIP3    H116035   1.022   0.358   4.341
 5343TIP3    H216036   1.136   0.457   4.332
 5344TIP3   OH216037   0.646   4.577   1.350
 5344TIP3    H116038   0.575   4.641   1.358
 5344TIP3    H216039   0.703   4.614   1.282
 5345TIP3   OH216040   5.370   3.970   1.156
 5345TIP3    H116041   5.430   4.043   1.148
 5345TIP3    H216042   5.308   3.996   1.224
 5346TIP3   OH216043   5.441   4.310   1.544
 5346TIP3    H116044   5.371   4.374   1.556
 5346TIP3    H216045   5.396   4.228   1.524
 5347TIP3   OH216046   1.424   1.694   1.785
 5347TIP3    H116047   1.380   1.778   1.794
 5347TIP3    H216048   1.383   1.638   1.851
 5348TIP3   OH216049   2.845   1.043   4.260
 5348TIP3    H116050   2.837   1.137   4.243
 5348TIP3    H216051   2.936   1.023   4.238
 5349TIP3   OH216052   2.895   1.526   0.948
 5349TIP3    H116053   2.819   1.583   0.933
 5349TIP3    H216054   2.858   1.438   0.949
 5350TIP3   OH216055   1.033   3.334   1.914
 5350TIP3    H116056   1.042   3.377   1.999
 5350TIP3    H216057   1.013   3.243   1.936
 5351TIP3   OH216058   5.440   3.371   3.794
 5351TIP3    H116059   5.402   3.298   3.744
 5351TIP3    H216060   5.369   3.435   3.800
 5352TIP3   OH216061   2.027   0.533   2.950
 5352TIP3    H116062   1.987   0.456   2.910
 5352TIP3    H216063   2.121   0.522   2.935
 5353TIP3   OH216064   0.924   1.709   2.788
 5353TIP3    H116065   0.852   1.657   2.824
 5353TIP3    H216066   0.893   1.799   2.796
 5354TIP3   OH216067   1.864   3.947   1.289
 5354TIP3    H116068   1.887   3.872   1.234
 5354TIP3    H216069   1.923   4.017   1.262
 5355TIP3   OH216070   0.662   0.886   3.595
 5355TIP3    H116071   0.700   0.820   3.537
 5355TIP3    H216072   0.626   0.952   3.536
 5356TIP3   OH216073   0.399   1.907   0.517
 5356TIP3    H116074   0.434   1.869   0.436
 5356TIP3    H216075   0.399   2.002   0.502
 5357TIP3   OH216076   1.999   1.440   3.331
 5357TIP3    H116077   2.042   1.376   3.274
 5357TIP3    H216078   1.911   1.405   3.344
 5358TIP3   OH216079   5.132   1.701   5.238
 5358TIP3    H116080   5.082   1.763   5.186
 5358TIP3    H216081   5.109   1.615   5.202
 5359TIP3   OH216082   5.620   5.916   3.383
 5359TIP3    H116083   5.702   5.936   3.338
 5359TIP3    H216084   5.610   5.987   3.447
 5360TIP3   OH216085   2.061   1.385   2.590
 5360TIP3    H116086   1.993   1.396   2.523
 5360TIP3    H216087   2.017   1.407   2.672
 5361TIP3   OH216088   1.571   2.338   2.086
 5361TIP3    H116089   1.512   2.270   2.054
 5361TIP3    H216090   1.632   2.292   2.143
 5362TIP3   OH216091   5.444   0.529   5.179
 5362TIP3    H116092   5.386   0.601   5.203
 5362TIP3    H216093   5.526   0.571   5.154
 5363TIP3   OH216094   0.080   0.050   3.264
 5363TIP3    H116095   0.044  -0.018   3.323
 5363TIP3    H216096   0.058   0.019   3.176
 5364TIP3   OH216097   2.969   0.085   4.377
 5364TIP3    H116098   2.971   0.023   4.304
 5364TIP3    H216099   2.890   0.137   4.361
 5365TIP3   OH216100   0.613   3.612   4.987
 5365TIP3    H116101   0.665   3.690   5.006
 5365TIP3    H216102   0.623   3.558   5.065
 5366TIP3   OH216103   1.626   2.099   1.339
 5366TIP3    H116104   1.552   2.109   1.279
 5366TIP3    H216105   1.655   2.009   1.327
 5367TIP3   OH216106   3.895   5.278   4.066
 5367TIP3    H116107   3.982   5.262   4.102
 5367TIP3    H216108   3.909   5.343   3.997
 5368TIP3   OH216109   2.353   0.953   2.441
 5368TIP3    H116110   2.391   0.865   2.438
 5368TIP3    H216111   2.275   0.943   2.496
 5369TIP3   OH216112   5.188   2.067   3.950
 5369TIP3    H116113   5.141   1.994   3.991
 5369TIP3    H216114   5.277   2.035   3.940
 5370TIP3   OH216115   1.039   0.263   1.267
 5370TIP3    H116116   0.996   0.296   1.188
 5370TIP3    H216117   1.003   0.316   1.338
 5371TIP3   OH216118   2.613   0.639   2.769
 5371TIP3    H116119   2.581   0.554   2.739
 5371TIP3    H216120   2.663   0.619   2.848
 5372TIP3   OH216121   5.146   3.950   1.633
 5372TIP3    H116122   5.230   3.908   1.617
 5372TIP3    H216123   5.141   4.021   1.569
 5373TIP3   OH216124   6.230   1.762   0.486
 5373TIP3    H116125   6.215   1.833   0.423
 5373TIP3    H216126   6.162   1.774   0.552
 5374TIP3   OH216127   1.441   2.321   5.155
 5374TIP3    H116128   1.478   2.322   5.067
 5374TIP3    H216129   1.347   2.327   5.142
 5375TIP3   OH216130   4.789   1.033   2.250
 5375TIP3    H116131   4.713   1.019   2.194
 5375TIP3    H216132   4.841   1.098   2.203
 5376TIP3   OH216133   0.183   1.768   0.186
 5376TIP3    H116134   0.160   1.676   0.196
 5376TIP3    H216135   0.271   1.775   0.223
 5377TIP3   OH216136   2.314   0.589   1.653
 5377TIP3    H116137   2.323   0.501   1.617
 5377TIP3    H216138   2.262   0.578   1.732
 5378TIP3   OH216139   2.394   2.540   0.755
 5378TIP3    H116140   2.307   2.580   0.760
 5378TIP3    H216141   2.451   2.601   0.802
 5379TIP3   OH216142   1.618   3.851   4.637
 5379TIP3    H116143   1.679   3.875   4.567
 5379TIP3    H216144   1.598   3.933   4.681
 5380TIP3   OH216145   4.025   0.675   3.548
 5380TIP3    H116146   4.062   0.694   3.461
 5380TIP3    H216147   3.938   0.641   3.530
 5381TIP3   OH216148   1.654   5.560   4.260
 5381TIP3    H116149   1.661   5.498   4.188
 5381TIP3    H216150   1.674   5.645   4.221
 5382TIP3   OH216151   3.265   0.371   5.064
 5382TIP3    H116152   3.233   0.292   5.108
 5382TIP3    H216153   3.312   0.339   4.988
 5383TIP3   OH216154   0.487   2.986   2.964
 5383TIP3    H116155   0.392   2.977   2.963
 5383TIP3    H216156   0.507   3.030   2.881
 5384TIP3   OH216157   1.648   0.395   1.378
 5384TIP3    H116158   1.567   0.369   1.334
 5384TIP3    H216159   1.712   0.407   1.307
 5385TIP3   OH216160   4.310   5.235   2.220
 5385TIP3    H116161   4.402   5.259   2.230
 5385TIP3    H216162   4.267   5.268   2.299
 5386TIP3   OH216163   4.585   0.750   4.478
 5386TIP3    H116164   4.570   0.666   4.521
 5386TIP3    H216165   4.650   0.731   4.410
 5387TIP3   OH216166   4.384   3.650   2.024
 5387TIP3    H116167   4.380   3.601   1.941
 5387TIP3    H216168   4.328   3.600   2.084
 5388TIP3   OH216169   0.625   5.854   5.065
 5388TIP3    H116170   0.581   5.911   5.128
 5388TIP3    H216171   0.554   5.813   5.016
 5389TIP3   OH216172   1.281   3.256   1.373
 5389TIP3    H116173   1.245   3.315   1.439
 5389TIP3    H216174   1.324   3.187   1.423
 5390TIP3   OH216175   6.247   4.646   4.393
 5390TIP3    H116176   6.218   4.567   4.439
 5390TIP3    H216177   6.200   4.643   4.309
 5391TIP3   OH216178   4.742   0.756   0.707
 5391TIP3    H116179   4.721   0.711   0.789
 5391TIP3    H216180   4.829   0.724   0.685
 5392TIP3   OH216181   4.211   0.782   4.319
 5392TIP3    H116182   4.222   0.749   4.408
 5392TIP3    H216183   4.230   0.707   4.263
 5393TIP3   OH216184   1.613   0.274   3.293
 5393TIP3    H116185   1.615   0.314   3.206
 5393TIP3    H216186   1.579   0.342   3.351
 5394TIP3   OH216187   4.919   1.428   0.943
 5394TIP3    H116188   4.867   1.354   0.911
 5394TIP3    H216189   4.960   1.464   0.865
 5395TIP3   OH216190   5.710   3.580   4.824
 5395TIP3    H116191   5.698   3.530   4.743
 5395TIP3    H216192   5.621   3.589   4.859
 5396TIP3   OH216193   1.286   2.893   3.436
 5396TIP3    H116194   1.226   2.849   3.496
 5396TIP3    H216195   1.229   2.945   3.379
 5397TIP3   OH216196   3.164   4.363   3.713
 5397TIP3    H116197   3.199   4.295   3.656
 5397TIP3    H216198   3.070   4.360   3.699
 5398TIP3   OH216199   2.003   3.434   3.090
 5398TIP3    H116200   2.049   3.464   3.012
 5398TIP3    H216201   1.941   3.368   3.057
 5399TIP3   OH216202   1.027   4.363   4.586
 5399TIP3    H116203   1.111   4.379   4.629
 5399TIP3    H216204   1.041   4.283   4.536
 5400TIP3   OH216205  -0.012   2.199   5.087
 5400TIP3    H116206  -0.052   2.134   5.144
 5400TIP3    H216207  -0.019   2.281   5.135
 5401TIP3   OH216208   5.976   4.069   2.091
 5401TIP3    H116209   5.916   4.118   2.034
 5401TIP3    H216210   5.967   4.110   2.177
 5402TIP3   OH216211   0.214   0.099   3.926
 5402TIP3    H116212   0.273   0.026   3.943
 5402TIP3    H216213   0.141   0.086   3.986
 5403TIP3   OH216214   4.953   5.310   5.059
 5403TIP3    H116215   4.993   5.368   4.994
 5403TIP3    H216216   4.883   5.363   5.098
 5404TIP3   OH216217   3.141   3.444   0.410
 5404TIP3    H116218   3.208   3.393   0.455
 5404TIP3    H216219   3.060   3.396   0.426
 5405TIP3   OH216220   1.222   3.009   0.127
 5405TIP3    H116221   1.309   2.976   0.107
 5405TIP3    H216222   1.235   3.102   0.148
 5406TIP3   OH216223   1.660   2.590   0.501
 5406TIP3    H116224   1.683   2.545   0.583
 5406TIP3    H216225   1.622   2.673   0.529
 5407TIP3   OH216226   3.990   5.728   0.374
 5407TIP3    H116227   3.910   5.745   0.423
 5407TIP3    H216228   3.963   5.666   0.305
 5408TIP3   OH216229   3.069   3.950   3.637
 5408TIP3    H116230   3.135   3.964   3.569
 5408TIP3    H216231   2.998   4.009   3.613
 5409TIP3   OH216232   1.302   3.972   0.730
 5409TIP3    H116233   1.223   3.923   0.708
 5409TIP3    H216234   1.291   3.994   0.822
 5410TIP3   OH216235   4.049   5.291   2.713
 5410TIP3    H116236   4.131   5.255   2.747
 5410TIP3    H216237   4.003   5.215   2.677
 5411TIP3   OH216238   1.589   1.431   5.131
 5411TIP3    H116239   1.651   1.376   5.179
 5411TIP3    H216240   1.514   1.374   5.115
 5412TIP3   OH216241   2.292   2.695   4.997
 5412TIP3    H116242   2.239   2.675   5.074
 5412TIP3    H216243   2.305   2.789   5.001
 5413TIP3   OH216244   0.874   1.429   0.396
 5413TIP3    H116245   0.928   1.383   0.332
 5413TIP3    H216246   0.921   1.418   0.479
 5414TIP3   OH216247   2.714   2.193   4.639
 5414TIP3    H116248   2.733   2.130   4.709
 5414TIP3    H216249   2.643   2.247   4.675
 5415TIP3   OH216250   0.813   1.370   1.842
 5415TIP3    H116251   0.871   1.421   1.899
 5415TIP3    H216252   0.793   1.429   1.769
 5416TIP3   OH216253   2.519   4.456   0.135
 5416TIP3    H116254   2.543   4.366   0.114
 5416TIP3    H216255   2.555   4.471   0.222
 5417TIP3   OH216256   4.941   2.901   3.087
 5417TIP3    H116257   4.918   2.992   3.108
 5417TIP3    H216258   4.918   2.852   3.166
 5418TIP3   OH216259   4.573   4.740   3.539
 5418TIP3    H116260   4.627   4.693   3.602
 5418TIP3    H216261   4.635   4.794   3.490
 5419TIP3   OH216262   4.416   1.952   0.290
 5419TIP3    H116263   4.443   1.902   0.367
 5419TIP3    H216264   4.420   2.044   0.318
 5420TIP3   OH216265   2.376   4.172   3.468
 5420TIP3    H116266   2.389   4.099   3.528
 5420TIP3    H216267   2.325   4.236   3.517
 5421TIP3   OH216268   1.226   3.288   0.187
 5421TIP3    H116269   1.268   3.368   0.154
 5421TIP3    H216270   1.136   3.313   0.204
 5422TIP3   OH216271   0.217   0.553   1.239
 5422TIP3    H116272   0.280   0.514   1.299
 5422TIP3    H216273   0.221   0.647   1.257
 5423TIP3   OH216274   1.850   4.627   0.229
 5423TIP3    H116275   1.815   4.607   0.143
 5423TIP3    H216276   1.933   4.579   0.233
 5424TIP3   OH216277   2.181   4.801   2.004
 5424TIP3    H116278   2.191   4.852   1.924
 5424TIP3    H216279   2.090   4.815   2.031
 5425TIP3   OH216280   1.672   1.678   4.992
 5425TIP3    H116281   1.612   1.748   5.017
 5425TIP3    H216282   1.641   1.601   5.040
 5426TIP3   OH216283   6.071   1.079   0.446
 5426TIP3    H116284   6.002   1.014   0.462
 5426TIP3    H216285   6.147   1.027   0.419
 5427TIP3   OH216286   5.146   2.704   0.284
 5427TIP3    H116287   5.136   2.699   0.379
 5427TIP3    H216288   5.108   2.621   0.252
 5428TIP3   OH216289   5.136   3.256   1.620
 5428TIP3    H116290   5.174   3.343   1.614
 5428TIP3    H216291   5.043   3.272   1.638
 5429TIP3   OH216292   5.833   1.689   1.156
 5429TIP3    H116293   5.845   1.661   1.247
 5429TIP3    H216294   5.855   1.782   1.157
 5430TIP3   OH216295   4.489   3.861   2.708
 5430TIP3    H116296   4.452   3.901   2.787
 5430TIP3    H216297   4.579   3.839   2.732
 5431TIP3   OH216298   3.998   1.534   4.473
 5431TIP3    H116299   3.913   1.579   4.476
 5431TIP3    H216300   3.982   1.449   4.514
 5432TIP3   OH216301   2.845   4.081   3.158
 5432TIP3    H116302   2.876   3.991   3.165
 5432TIP3    H216303   2.775   4.088   3.223
 5433TIP3   OH216304   1.877   1.144   0.605
 5433TIP3    H116305   1.969   1.170   0.595
 5433TIP3    H216306   1.873   1.104   0.692
 5434TIP3   OH216307   4.123   1.835   1.818
 5434TIP3    H116308   4.029   1.855   1.809
 5434TIP3    H216309   4.127   1.779   1.896
 5435TIP3   OH216310   4.827   0.466   3.827
 5435TIP3    H116311   4.915   0.442   3.799
 5435TIP3    H216312   4.833   0.468   3.923
 5436TIP3   OH216313   6.051   3.981   1.085
 5436TIP3    H116314   6.085   3.919   1.149
 5436TIP3    H216315   6.020   3.926   1.013
 5437TIP3   OH216316   0.371   3.031   4.173
 5437TIP3    H116317   0.349   3.029   4.079
 5437TIP3    H216318   0.338   3.116   4.203
 5438TIP3   OH216319   1.768   5.710   2.183
 5438TIP3    H116320   1.836   5.774   2.205
 5438TIP3    H216321   1.773   5.702   2.088
 5439TIP3   OH216322   0.687   2.563   0.423
 5439TIP3    H116323   0.722   2.491   0.371
 5439TIP3    H216324   0.759   2.589   0.480
 5440TIP3   OH216325   3.065   1.934   1.755
 5440TIP3    H116326   2.995   1.990   1.721
 5440TIP3    H216327   3.041   1.918   1.846
 5441TIP3   OH216328   5.153   0.010   1.774
 5441TIP3    H116329   5.132   0.101   1.751
 5441TIP3    H216330   5.071  -0.026   1.807
 5442TIP3   OH216331   0.484   1.775   2.786
 5442TIP3    H116332   0.410   1.800   2.842
 5442TIP3    H216333   0.542   1.850   2.788
 5443TIP3   OH216334   1.614   0.268   2.779
 5443TIP3    H116335   1.591   0.260   2.686
 5443TIP3    H216336   1.699   0.224   2.787
 5444TIP3   OH216337   5.214   3.762   5.090
 5444TIP3    H116338   5.158   3.721   5.156
 5444TIP3    H216339   5.290   3.794   5.138
 5445TIP3   OH216340   0.195   1.184   3.126
 5445TIP3    H116341   0.276   1.149   3.163
 5445TIP3    H216342   0.143   1.106   3.104
 5446TIP3   OH216343   4.174   1.574   2.987
 5446TIP3    H116344   4.213   1.487   2.991
 5446TIP3    H216345   4.081   1.560   3.008
 5447TIP3   OH216346   2.329   2.126   2.735
 5447TIP3    H116347   2.411   2.080   2.717
 5447TIP3    H216348   2.292   2.143   2.649
 5448TIP3   OH216349   2.870   2.548   3.046
 5448TIP3    H116350   2.893   2.567   2.955
 5448TIP3    H216351   2.790   2.497   3.041
 5449TIP3   OH216352   2.370   4.625   3.682
 5449TIP3    H116353   2.412   4.611   3.767
 5449TIP3    H216354   2.404   4.710   3.653
 5450TIP3   OH216355   5.615   4.192   1.691
 5450TIP3    H116356   5.549   4.233   1.636
 5450TIP3    H216357   5.586   4.209   1.781
 5451TIP3   OH216358   3.638   4.804   4.410
 5451TIP3    H116359   3.652   4.762   4.326
 5451TIP3    H216360   3.544   4.820   4.413
 5452TIP3   OH216361   0.337   2.353   4.959
 5452TIP3    H116362   0.336   2.283   5.025
 5452TIP3    H216363   0.404   2.414   4.989
 5453TIP3   OH216364   3.049   2.492   1.901
 5453TIP3    H116365   3.077   2.524   1.987
 5453TIP3    H216366   3.000   2.412   1.920
 5454TIP3   OH216367   4.889   2.452   0.766
 5454TIP3    H116368   4.971   2.444   0.815
 5454TIP3    H216369   4.895   2.384   0.699
 5455TIP3   OH216370   3.565   2.668   4.788
 5455TIP3    H116371   3.488   2.650   4.734
 5455TIP3    H216372   3.550   2.756   4.822
 5456TIP3   OH216373   4.133   1.290   2.812
 5456TIP3    H116374   4.171   1.322   2.730
 5456TIP3    H216375   4.041   1.272   2.790
 5457TIP3   OH216376   6.180   5.122   1.868
 5457TIP3    H116377   6.148   5.177   1.796
 5457TIP3    H216378   6.219   5.183   1.930
 5458TIP3   OH216379   1.189   0.997   3.445
 5458TIP3    H116380   1.200   0.906   3.417
 5458TIP3    H216381   1.173   1.045   3.364
 5459TIP3   OH216382   6.042   5.156   3.820
 5459TIP3    H116383   6.035   5.083   3.881
 5459TIP3    H216384   6.033   5.234   3.875
 5460TIP3   OH216385   3.768   1.284   3.093
 5460TIP3    H116386   3.787   1.281   3.187
 5460TIP3    H216387   3.691   1.340   3.086
 5461TIP3   OH216388   3.696   4.508   3.085
 5461TIP3    H116389   3.691   4.552   3.001
 5461TIP3    H216390   3.697   4.579   3.150
 5462TIP3   OH216391   0.960   4.207   4.790
 5462TIP3    H116392   0.953   4.262   4.712
 5462TIP3    H216393   1.018   4.255   4.849
 5463TIP3   OH216394   1.070   0.946   2.980
 5463TIP3    H116395   1.055   0.854   3.002
 5463TIP3    H216396   1.115   0.943   2.895
 5464TIP3   OH216397   3.194   5.399   2.503
 5464TIP3    H116398   3.135   5.334   2.465
 5464TIP3    H216399   3.166   5.405   2.595
 5465TIP3   OH216400   3.935   5.631   3.348
 5465TIP3    H116401   3.951   5.719   3.316
 5465TIP3    H216402   3.847   5.635   3.386
 5466TIP3   OH216403   3.053   5.663   2.063
 5466TIP3    H116404   3.076   5.756   2.062
 5466TIP3    H216405   3.057   5.638   2.156
 5467TIP3   OH216406   3.540   1.450   2.335
 5467TIP3    H116407   3.608   1.498   2.288
 5467TIP3    H216408   3.544   1.361   2.299
 5468TIP3   OH216409   3.332   1.058   3.897
 5468TIP3    H116410   3.265   1.057   3.829
 5468TIP3    H216411   3.388   0.983   3.877
 5469TIP3   OH216412   2.692   3.148   3.876
 5469TIP3    H116413   2.730   3.110   3.797
 5469TIP3    H216414   2.704   3.081   3.943
 5470TIP3   OH216415   4.094   0.506   4.898
 5470TIP3    H116416   4.005   0.496   4.931
 5470TIP3    H216417   4.086   0.566   4.824
 5471TIP3   OH216418   0.810   5.166   2.736
 5471TIP3    H116419   0.786   5.149   2.645
 5471TIP3    H216420   0.744   5.228   2.767
 5472TIP3   OH216421   1.781   3.305   2.864
 5472TIP3    H116422   1.875   3.314   2.848
 5472TIP3    H216423   1.767   3.212   2.881
 5473TIP3   OH216424   5.735   3.029   1.381
 5473TIP3    H116425   5.780   3.113   1.377
 5473TIP3    H216426   5.664   3.037   1.318
 5474TIP3   OH216427   1.047   3.995   3.451
 5474TIP3    H116428   1.059   4.056   3.524
 5474TIP3    H216429   1.136   3.977   3.420
 5475TIP3   OH216430   1.465   4.345   0.191
 5475TIP3    H116431   1.490   4.361   0.100
 5475TIP3    H216432   1.440   4.253   0.193
 5476TIP3   OH216433   4.508   3.083   0.162
 5476TIP3    H116434   4.532   3.102   0.072
 5476TIP3    H216435   4.447   3.009   0.156
 5477TIP3   OH216436   2.871   5.495   2.296
 5477TIP3    H116437   2.861   5.562   2.363
 5477TIP3    H216438   2.827   5.531   2.219
 5478TIP3   OH216439   2.915   0.177   0.866
 5478TIP3    H116440   2.875   0.090   0.867
 5478TIP3    H216441   2.855   0.231   0.918
 5479TIP3   OH216442   2.496   1.151   2.329
 5479TIP3    H116443   2.430   1.219   2.342
 5479TIP3    H216444   2.461   1.075   2.375
 5480TIP3   OH216445   5.551   4.220   3.619
 5480TIP3    H116446   5.533   4.237   3.527
 5480TIP3    H216447   5.644   4.198   3.621
 5481TIP3   OH216448   2.769   1.904   4.617
 5481TIP3    H116449   2.710   1.845   4.664
 5481TIP3    H216450   2.734   1.907   4.528
 5482TIP3   OH216451   1.474   5.960   2.080
 5482TIP3    H116452   1.441   5.873   2.057
 5482TIP3    H216453   1.528   5.986   2.006
 5483TIP3   OH216454   2.101   2.661   4.121
 5483TIP3    H116455   2.104   2.750   4.156
 5483TIP3    H216456   2.186   2.648   4.080
 5484TIP3   OH216457   2.162   0.154   0.068
 5484TIP3    H116458   2.209   0.145  -0.015
 5484TIP3    H216459   2.070   0.161   0.044
 5485TIP3   OH216460   4.702   5.739   0.650
 5485TIP3    H116461   4.734   5.789   0.725
 5485TIP3    H216462   4.771   5.746   0.584
 5486TIP3   OH216463   3.832   5.477   2.225
 5486TIP3    H116464   3.769   5.548   2.232
 5486TIP3    H216465   3.915   5.519   2.202
 5487TIP3   OH216466   0.684   3.416   2.294
 5487TIP3    H116467   0.628   3.369   2.357
 5487TIP3    H216468   0.768   3.424   2.338
 5488TIP3   OH216469   5.276   2.265   3.772
 5488TIP3    H116470   5.246   2.191   3.825
 5488TIP3    H216471   5.325   2.320   3.834
 5489TIP3   OH216472   6.201   3.281   2.357
 5489TIP3    H116473   6.151   3.273   2.276
 5489TIP3    H216474   6.168   3.360   2.398
 5490TIP3   OH216475   3.039   5.733   3.040
 5490TIP3    H116476   3.119   5.782   3.021
 5490TIP3    H216477   2.987   5.792   3.095
 5491TIP3   OH216478   0.348   5.110   0.508
 5491TIP3    H116479   0.306   5.156   0.581
 5491TIP3    H216480   0.283   5.114   0.438
 5492TIP3   OH216481   2.917   3.551   2.300
 5492TIP3    H116482   2.853   3.575   2.233
 5492TIP3    H216483   2.876   3.576   2.383
 5493TIP3   OH216484   5.930   5.972   2.413
 5493TIP3    H116485   5.913   5.920   2.491
 5493TIP3    H216486   6.009   5.934   2.375
 5494TIP3   OH216487   1.924   3.718   3.138
 5494TIP3    H116488   1.940   3.624   3.145
 5494TIP3    H216489   1.954   3.753   3.221
 5495TIP3   OH216490   5.456   4.727   2.131
 5495TIP3    H116491   5.392   4.796   2.145
 5495TIP3    H216492   5.540   4.774   2.127
 5496TIP3   OH216493   4.069   1.185   0.870
 5496TIP3    H116494   4.087   1.109   0.814
 5496TIP3    H216495   4.007   1.152   0.935
 5497TIP3   OH216496   5.242   4.193   2.586
 5497TIP3    H116497   5.237   4.264   2.650
 5497TIP3    H216498   5.242   4.113   2.640
 5498TIP3   OH216499   4.293   3.426   2.442
 5498TIP3    H116500   4.326   3.348   2.487
 5498TIP3    H216501   4.233   3.392   2.377
 5499TIP3   OH216502   0.774   3.986   3.726
 5499TIP3    H116503   0.695   4.008   3.775
 5499TIP3    H216504   0.805   3.905   3.766
 5500TIP3   OH216505   3.527   2.037   1.339
 5500TIP3    H116506   3.588   1.973   1.374
 5500TIP3    H216507   3.521   2.105   1.406
 5501TIP3   OH216508   2.279   1.000   3.788
 5501TIP3    H116509   2.338   0.955   3.848
 5501TIP3    H216510   2.269   1.088   3.824
 5502TIP3   OH216511   0.126   3.764   2.054
 5502TIP3    H116512   0.102   3.848   2.015
 5502TIP3    H216513   0.046   3.711   2.046
 5503TIP3   OH216514   1.793   0.484   2.375
 5503TIP3    H116515   1.712   0.436   2.359
 5503TIP3    H216516   1.790   0.557   2.314
 5504TIP3   OH216517   6.026   3.596   2.091
 5504TIP3    H116518   6.114   3.598   2.129
 5504TIP3    H216519   6.028   3.661   2.021
 5505TIP3   OH216520   2.507   4.558   3.909
 5505TIP3    H116521   2.583   4.506   3.932
 5505TIP3    H216522   2.439   4.531   3.971
 5506TIP3   OH216523   5.171   2.857   0.667
 5506TIP3    H116524   5.127   2.790   0.614
 5506TIP3    H216525   5.232   2.899   0.607
 5507TIP3   OH216526   0.253   5.427   3.255
 5507TIP3    H116527   0.219   5.343   3.284
 5507TIP3    H216528   0.193   5.455   3.186
 5508TIP3   OH216529   2.770   4.035   1.677
 5508TIP3    H116530   2.688   4.068   1.642
 5508TIP3    H216531   2.833   4.105   1.661
 5509TIP3   OH216532   3.751   0.515   2.793
 5509TIP3    H116533   3.765   0.423   2.770
 5509TIP3    H216534   3.837   0.556   2.783
 5510TIP3   OH216535   6.009   1.806   4.873
 5510TIP3    H116536   5.961   1.827   4.793
 5510TIP3    H216537   5.980   1.872   4.936
 5511TIP3   OH216538   3.340   5.459   4.343
 5511TIP3    H116539   3.346   5.525   4.274
 5511TIP3    H216540   3.363   5.377   4.299
 5512TIP3   OH216541   2.979   2.886   2.203
 5512TIP3    H116542   2.997   2.947   2.132
 5512TIP3    H216543   2.914   2.931   2.258
 5513TIP3   OH216544   2.105   3.114   2.482
 5513TIP3    H116545   2.160   3.137   2.407
 5513TIP3    H216546   2.137   3.170   2.553
 5514TIP3   OH216547   2.964   2.375   3.242
 5514TIP3    H116548   2.872   2.351   3.258
 5514TIP3    H216549   2.958   2.449   3.181
 5515TIP3   OH216550   4.493   1.587   2.408
 5515TIP3    H116551   4.500   1.623   2.496
 5515TIP3    H216552   4.497   1.492   2.421
 5516TIP3   OH216553   5.500   4.168   3.069
 5516TIP3    H116554   5.430   4.103   3.063
 5516TIP3    H216555   5.563   4.141   3.003
 5517TIP3   OH216556   1.257   0.426   1.932
 5517TIP3    H116557   1.193   0.358   1.953
 5517TIP3    H216558   1.330   0.410   1.992
 5518TIP3   OH216559   0.485   2.906   1.999
 5518TIP3    H116560   0.403   2.888   1.953
 5518TIP3    H216561   0.535   2.826   1.992
 5519TIP3   OH216562   1.438   1.448   2.284
 5519TIP3    H116563   1.409   1.423   2.372
 5519TIP3    H216564   1.523   1.490   2.298
 5520TIP3   OH216565   3.567   5.822   0.036
 5520TIP3    H116566   3.602   5.895   0.088
 5520TIP3    H216567   3.644   5.769   0.016
 5521TIP3   OH216568   5.365   6.015   3.134
 5521TIP3    H116569   5.413   5.951   3.082
 5521TIP3    H216570   5.334   5.966   3.210
 5522TIP3   OH216571   1.469   2.104   4.037
 5522TIP3    H116572   1.480   2.026   3.983
 5522TIP3    H216573   1.493   2.075   4.125
 5523TIP3   OH216574   5.282   0.038   3.041
 5523TIP3    H116575   5.343  -0.035   3.031
 5523TIP3    H216576   5.318   0.090   3.113
 5524TIP3   OH216577   5.904   0.279   0.083
 5524TIP3    H116578   5.813   0.307   0.077
 5524TIP3    H216579   5.942   0.336   0.149
 5525TIP3   OH216580   3.230   1.823   1.544
 5525TIP3    H116581   3.155   1.782   1.500
 5525TIP3    H216582   3.192   1.867   1.620
 5526TIP3   OH216583   0.688   2.653   1.973
 5526TIP3    H116584   0.766   2.647   2.027
 5526TIP3    H216585   0.712   2.712   1.901
 5527TIP3   OH216586   1.110   0.518   5.027
 5527TIP3    H116587   1.086   0.593   5.081
 5527TIP3    H216588   1.095   0.547   4.937
 5528TIP3   OH216589   3.821   0.189   4.918
 5528TIP3    H116590   3.763   0.155   4.850
 5528TIP3    H216591   3.900   0.135   4.912
 5529TIP3   OH216592   3.569   0.272   4.954
 5529TIP3    H116593   3.516   0.194   4.970
 5529TIP3    H216594   3.658   0.244   4.970
 5530TIP3   OH216595   3.696   1.098   4.863
 5530TIP3    H116596   3.731   1.068   4.779
 5530TIP3    H216597   3.606   1.066   4.864
 5531TIP3   OH216598   3.232   1.545   3.668
 5531TIP3    H116599   3.276   1.470   3.709
 5531TIP3    H216600   3.154   1.560   3.721
 5532TIP3   OH216601   5.010   5.034   3.980
 5532TIP3    H116602   5.055   4.953   3.958
 5532TIP3    H216603   5.050   5.061   4.063
 5533TIP3   OH216604   0.113   0.054   1.756
 5533TIP3    H116605   0.108   0.031   1.848
 5533TIP3    H216606   0.062  -0.014   1.711
 5534TIP3   OH216607   5.238   4.007   3.303
 5534TIP3    H116608   5.195   3.974   3.382
 5534TIP3    H216609   5.332   4.002   3.322
 5535TIP3   OH216610   1.252   5.776   2.211
 5535TIP3    H116611   1.182   5.793   2.148
 5535TIP3    H216612   1.332   5.772   2.159
 5536TIP3   OH216613   3.781   2.002   4.658
 5536TIP3    H116614   3.709   1.944   4.634
 5536TIP3    H216615   3.739   2.078   4.697
 5537TIP3   OH216616   5.272   4.835   3.609
 5537TIP3    H116617   5.231   4.853   3.693
 5537TIP3    H216618   5.366   4.837   3.626
 5538TIP3   OH216619   4.478   4.102   1.370
 5538TIP3    H116620   4.521   4.173   1.322
 5538TIP3    H216621   4.546   4.067   1.427
 5539TIP3   OH216622   0.827   5.015   2.473
 5539TIP3    H116623   0.742   4.995   2.433
 5539TIP3    H216624   0.864   5.082   2.417
 5540TIP3   OH216625   0.169   4.455   3.297
 5540TIP3    H116626   0.166   4.510   3.375
 5540TIP3    H216627   0.260   4.426   3.291
 5541TIP3   OH216628   3.966   1.595   0.624
 5541TIP3    H116629   4.036   1.560   0.569
 5541TIP3    H216630   3.990   1.686   0.640
 5542TIP3   OH216631   5.356   3.857   4.337
 5542TIP3    H116632   5.386   3.946   4.318
 5542TIP3    H216633   5.267   3.854   4.303
 5543TIP3   OH216634   1.142   2.939   5.082
 5543TIP3    H116635   1.162   2.909   4.993
 5543TIP3    H216636   1.147   2.861   5.136
 5544TIP3   OH216637   1.633   3.012   2.340
 5544TIP3    H116638   1.703   2.947   2.344
 5544TIP3    H216639   1.632   3.052   2.427
 5545TIP3   OH216640   0.161   5.542   1.104
 5545TIP3    H116641   0.096   5.500   1.160
 5545TIP3    H216642   0.108   5.591   1.040
 5546TIP3   OH216643   0.101   5.153   2.819
 5546TIP3    H116644   0.017   5.128   2.858
 5546TIP3    H216645   0.149   5.071   2.810
 5547TIP3   OH216646   4.694   4.476   4.844
 5547TIP3    H116647   4.602   4.450   4.839
 5547TIP3    H216648   4.705   4.539   4.773
 5548TIP3   OH216649   1.589   1.883   0.537
 5548TIP3    H116650   1.555   1.796   0.557
 5548TIP3    H216651   1.530   1.917   0.470
 5549TIP3   OH216652   0.294   2.395   0.262
 5549TIP3    H116653   0.362   2.416   0.197
 5549TIP3    H216654   0.227   2.349   0.212
 5550TIP3   OH216655   2.981  -0.069   1.876
 5550TIP3    H116656   3.004  -0.020   1.955
 5550TIP3    H216657   2.885  -0.065   1.872
 5551TIP3   OH216658   0.237   3.949   3.785
 5551TIP3    H116659   0.221   3.857   3.764
 5551TIP3    H216660   0.187   3.997   3.720
 5552TIP3   OH216661   2.552   2.224   1.842
 5552TIP3    H116662   2.506   2.303   1.812
 5552TIP3    H216663   2.507   2.199   1.923
 5553TIP3   OH216664   2.842   4.886   1.329
 5553TIP3    H116665   2.923   4.851   1.292
 5553TIP3    H216666   2.872   4.941   1.402
 5554TIP3   OH216667   3.826   0.036   1.859
 5554TIP3    H116668   3.843   0.116   1.809
 5554TIP3    H216669   3.827  -0.033   1.793
 5555TIP3   OH216670   0.684   3.316   4.029
 5555TIP3    H116671   0.616   3.309   4.096
 5555TIP3    H216672   0.636   3.333   3.948
 5556TIP3   OH216673   1.175   1.185   1.122
 5556TIP3    H116674   1.103   1.166   1.063
 5556TIP3    H216675   1.248   1.132   1.089
 5557TIP3   OH216676   2.466   0.693   2.437
 5557TIP3    H116677   2.523   0.659   2.506
 5557TIP3    H216678   2.436   0.615   2.390
 5558TIP3   OH216679   0.986   5.884   3.486
 5558TIP3    H116680   0.971   5.962   3.541
 5558TIP3    H216681   1.079   5.887   3.465
 5559TIP3   OH216682   0.530   2.263   0.086
 5559TIP3    H116683   0.570   2.343   0.052
 5559TIP3    H216684   0.574   2.249   0.170
 5560TIP3   OH216685   3.697   0.936   3.677
 5560TIP3    H116686   3.653   1.020   3.692
 5560TIP3    H216687   3.789   0.960   3.665
 5561TIP3   OH216688   5.158   5.960   1.645
 5561TIP3    H116689   5.103   5.886   1.621
 5561TIP3    H216690   5.248   5.928   1.635
 5562TIP3   OH216691   2.932   5.318   3.903
 5562TIP3    H116692   2.910   5.292   3.814
 5562TIP3    H216693   2.849   5.310   3.951
 5563TIP3   OH216694   5.898   3.287   3.021
 5563TIP3    H116695   5.927   3.287   2.930
 5563TIP3    H216696   5.840   3.211   3.028
 5564TIP3   OH216697   1.394   4.426   3.347
 5564TIP3    H116698   1.487   4.447   3.357
 5564TIP3    H216699   1.363   4.491   3.283
 5565TIP3   OH216700   2.615   1.350   1.172
 5565TIP3    H116701   2.703   1.380   1.146
 5565TIP3    H216702   2.582   1.420   1.229
 5566TIP3   OH216703   5.333   1.758   1.601
 5566TIP3    H116704   5.374   1.674   1.622
 5566TIP3    H216705   5.250   1.757   1.648
 5567TIP3   OH216706   5.129   3.713   2.195
 5567TIP3    H116707   5.140   3.682   2.105
 5567TIP3    H216708   5.107   3.634   2.245
 5568TIP3   OH216709   1.185   2.509   0.576
 5568TIP3    H116710   1.231   2.584   0.539
 5568TIP3    H216711   1.211   2.435   0.522
 5569TIP3   OH216712   3.032   3.179   3.473
 5569TIP3    H116713   3.091   3.112   3.508
 5569TIP3    H216714   3.081   3.219   3.401
 5570TIP3   OH216715   1.645   5.214   1.931
 5570TIP3    H116716   1.622   5.126   1.959
 5570TIP3    H216717   1.725   5.204   1.880
 5571TIP3   OH216718   3.550   4.808   3.604
 5571TIP3    H116719   3.636   4.811   3.562
 5571TIP3    H216720   3.517   4.898   3.598
 5572TIP3   OH216721   0.581   4.234   2.328
 5572TIP3    H116722   0.573   4.312   2.383
 5572TIP3    H216723   0.645   4.259   2.261
 5573TIP3   OH216724   5.422   1.875   0.516
 5573TIP3    H116725   5.455   1.941   0.455
 5573TIP3    H216726   5.499   1.848   0.565
 5574TIP3   OH216727   1.911   1.847   3.977
 5574TIP3    H116728   1.920   1.835   3.882
 5574TIP3    H216729   1.964   1.777   4.015
 5575TIP3   OH216730   5.209   3.742   4.807
 5575TIP3    H116731   5.191   3.758   4.900
 5575TIP3    H216732   5.127   3.765   4.763
 5576TIP3   OH216733   3.759   4.744   1.966
 5576TIP3    H116734   3.720   4.750   2.054
 5576TIP3    H216735   3.823   4.673   1.973
 5577TIP3   OH216736   1.322   3.663   5.075
 5577TIP3    H116737   1.236   3.622   5.069
 5577TIP3    H216738   1.381   3.592   5.100
 5578TIP3   OH216739   0.073   4.845   4.200
 5578TIP3    H116740   0.116   4.890   4.272
 5578TIP3    H216741  -0.019   4.874   4.205
 5579TIP3   OH216742   3.282   1.972   2.933
 5579TIP3    H116743   3.261   1.908   2.864
 5579TIP3    H216744   3.377   1.974   2.936
 5580TIP3   OH216745   3.209   5.204   3.367
 5580TIP3    H116746   3.217   5.138   3.299
 5580TIP3    H216747   3.239   5.285   3.325
 5581TIP3   OH216748   6.165   3.947   4.012
 5581TIP3    H116749   6.187   3.944   3.919
 5581TIP3    H216750   6.233   3.895   4.055
 5582TIP3   OH216751   4.660   2.171   0.949
 5582TIP3    H116752   4.742   2.160   0.902
 5582TIP3    H216753   4.667   2.112   1.024
 5583TIP3   OH216754   3.282   0.754   4.528
 5583TIP3    H116755   3.251   0.682   4.583
 5583TIP3    H216756   3.215   0.822   4.539
 5584TIP3   OH216757   4.539   0.345   2.501
 5584TIP3    H116758   4.580   0.346   2.415
 5584TIP3    H216759   4.453   0.304   2.486
 5585TIP3   OH216760   5.754   3.371   3.415
 5585TIP3    H116761   5.806   3.321   3.479
 5585TIP3    H216762   5.673   3.321   3.405
 5586TIP3   OH216763   0.365   3.596   1.973
 5586TIP3    H116764   0.296   3.657   2.001
 5586TIP3    H216765   0.322   3.511   1.974
 5587TIP3   OH216766   0.084   0.494   4.478
 5587TIP3    H116767   0.030   0.567   4.505
 5587TIP3    H216768   0.171   0.515   4.513
 5588TIP3   OH216769   5.610   5.319   1.461
 5588TIP3    H116770   5.665   5.241   1.470
 5588TIP3    H216771   5.554   5.318   1.539
 5589TIP3   OH216772   5.004   2.626   1.616
 5589TIP3    H116773   5.034   2.715   1.597
 5589TIP3    H216774   4.929   2.613   1.558
 5590TIP3   OH216775   4.100   0.106   3.860
 5590TIP3    H116776   4.191   0.118   3.833
 5590TIP3    H216777   4.101   0.127   3.954
 5591TIP3   OH216778   3.701   1.315   3.410
 5591TIP3    H116779   3.640   1.380   3.443
 5591TIP3    H216780   3.648   1.236   3.399
 5592TIP3   OH216781   3.143   1.752   0.741
 5592TIP3    H116782   3.128   1.658   0.750
 5592TIP3    H216783   3.238   1.762   0.745
 5593TIP3   OH216784   5.968   5.861   1.620
 5593TIP3    H116785   6.052   5.835   1.660
 5593TIP3    H216786   5.993   5.900   1.536
 5594TIP3   OH216787   3.463   3.197   5.143
 5594TIP3    H116788   3.413   3.119   5.120
 5594TIP3    H216789   3.410   3.241   5.209
 5595TIP3   OH216790   1.708   0.174   4.580
 5595TIP3    H116791   1.712   0.242   4.647
 5595TIP3    H216792   1.775   0.110   4.605
 5596TIP3   OH216793   5.859   5.671   4.630
 5596TIP3    H116794   5.824   5.718   4.705
 5596TIP3    H216795   5.785   5.661   4.571
 5597TIP3   OH216796   4.523   1.902   0.564
 5597TIP3    H116797   4.597   1.841   0.562
 5597TIP3    H216798   4.522   1.935   0.654
 5598TIP3   OH216799   4.167   5.936   1.429
 5598TIP3    H116800   4.153   5.842   1.445
 5598TIP3    H216801   4.260   5.942   1.407
 5599TIP3   OH216802   3.900   3.405   4.978
 5599TIP3    H116803   3.870   3.406   4.887
 5599TIP3    H216804   3.892   3.314   5.006
 5600TIP3   OH216805   0.225   1.493   1.589
 5600TIP3    H116806   0.255   1.408   1.621
 5600TIP3    H216807   0.303   1.549   1.593
 5601TIP3   OH216808   3.812   2.211   0.623
 5601TIP3    H116809   3.774   2.289   0.583
 5601TIP3    H216810   3.774   2.207   0.710
 5602TIP3   OH216811   5.884   2.216   4.064
 5602TIP3    H116812   5.925   2.276   4.127
 5602TIP3    H216813   5.915   2.129   4.090
 5603TIP3   OH216814   4.171   2.045   0.852
 5603TIP3    H116815   4.135   2.058   0.940
 5603TIP3    H216816   4.261   2.076   0.859
 5604TIP3   OH216817   0.563   0.347   2.339
 5604TIP3    H116818   0.562   0.294   2.259
 5604TIP3    H216819   0.652   0.338   2.372
 5605TIP3   OH216820   4.199   3.662   2.564
 5605TIP3    H116821   4.226   3.744   2.522
 5605TIP3    H216822   4.245   3.594   2.515
 5606TIP3   OH216823   4.164   1.596   4.699
 5606TIP3    H116824   4.099   1.525   4.691
 5606TIP3    H216825   4.238   1.555   4.744
 5607TIP3   OH216826   0.923   5.197   4.963
 5607TIP3    H116827   0.904   5.153   5.046
 5607TIP3    H216828   0.967   5.278   4.988
 5608TIP3   OH216829   2.007   0.630   2.134
 5608TIP3    H116830   1.985   0.555   2.079
 5608TIP3    H216831   1.922   0.666   2.159
 5609TIP3   OH216832   2.178   3.103   1.840
 5609TIP3    H116833   2.183   3.183   1.787
 5609TIP3    H216834   2.120   3.045   1.791
 5610TIP3   OH216835   3.815   0.888   4.131
 5610TIP3    H116836   3.894   0.910   4.181
 5610TIP3    H216837   3.848   0.849   4.050
 5611TIP3   OH216838   2.622   0.845   2.191
 5611TIP3    H116839   2.675   0.887   2.257
 5611TIP3    H216840   2.534   0.839   2.230
 5612TIP3   OH216841   0.807   0.096   5.115
 5612TIP3    H116842   0.739   0.130   5.057
 5612TIP3    H216843   0.880   0.158   5.104
 5613TIP3   OH216844   0.938   4.107   2.287
 5613TIP3    H116845   0.964   4.134   2.199
 5613TIP3    H216846   0.911   4.016   2.277
 5614TIP3   OH216847   1.745   4.467   3.770
 5614TIP3    H116848   1.678   4.442   3.707
 5614TIP3    H216849   1.771   4.385   3.812
 5615TIP3   OH216850   0.348   0.519   2.997
 5615TIP3    H116851   0.337   0.436   3.045
 5615TIP3    H216852   0.371   0.492   2.908
 5616TIP3   OH216853   5.579   1.770   0.128
 5616TIP3    H116854   5.504   1.823   0.156
 5616TIP3    H216855   5.592   1.794   0.037
 5617TIP3   OH216856   0.324   5.360   0.300
 5617TIP3    H116857   0.355   5.398   0.218
 5617TIP3    H216858   0.276   5.282   0.275
 5618TIP3   OH216859   6.106   5.320  -0.060
 5618TIP3    H116860   6.055   5.334   0.019
 5618TIP3    H216861   6.197   5.325  -0.031
 5619TIP3   OH216862   2.243   0.827   3.091
 5619TIP3    H116863   2.304   0.798   3.158
 5619TIP3    H216864   2.188   0.892   3.134
 5620TIP3   OH216865   0.002   2.875   0.243
 5620TIP3    H116866   0.097   2.879   0.234
 5620TIP3    H216867  -0.025   2.800   0.190
 5621TIP3   OH216868   0.940   0.437   4.033
 5621TIP3    H116869   0.853   0.431   4.072
 5621TIP3    H216870   0.999   0.408   4.102
 5622TIP3   OH216871   6.286   2.643   4.943
 5622TIP3    H116872   6.365   2.670   4.897
 5622TIP3    H216873   6.270   2.553   4.913
 5623TIP3   OH216874   0.594   4.147   3.879
 5623TIP3    H116875   0.525   4.135   3.944
 5623TIP3    H216876   0.655   4.208   3.920
 5624TIP3   OH216877   3.894   1.526   3.390
 5624TIP3    H116878   3.872   1.581   3.466
 5624TIP3    H216879   3.824   1.461   3.387
 5625TIP3   OH216880   3.384   1.476   0.799
 5625TIP3    H116881   3.289   1.464   0.799
 5625TIP3    H216882   3.408   1.484   0.891
 5626TIP3   OH216883   3.126   2.909   4.755
 5626TIP3    H116884   3.206   2.860   4.735
 5626TIP3    H216885   3.130   2.985   4.697
 5627TIP3   OH216886   4.700   1.219   1.741
 5627TIP3    H116887   4.783   1.182   1.771
 5627TIP3    H216888   4.703   1.310   1.768
 5628TIP3   OH216889   5.648   0.811   2.173
 5628TIP3    H116890   5.740   0.791   2.191
 5628TIP3    H216891   5.644   0.906   2.169
 5629TIP3   OH216892   1.357   5.331   0.434
 5629TIP3    H116893   1.347   5.289   0.520
 5629TIP3    H216894   1.450   5.356   0.430
 5630TIP3   OH216895   1.067   4.721   4.868
 5630TIP3    H116896   1.093   4.802   4.911
 5630TIP3    H216897   1.036   4.665   4.940
 5631TIP3   OH216898   2.408   3.001   4.718
 5631TIP3    H116899   2.390   2.975   4.809
 5631TIP3    H216900   2.336   2.963   4.668
 5632TIP3   OH216901   0.653   3.813   1.028
 5632TIP3    H116902   0.673   3.740   1.087
 5632TIP3    H216903   0.574   3.786   0.981
 5633TIP3   OH216904   2.673   1.644   1.464
 5633TIP3    H116905   2.599   1.585   1.469
 5633TIP3    H216906   2.653   1.702   1.391
 5634TIP3   OH216907   3.192   0.353   4.380
 5634TIP3    H116908   3.186   0.301   4.461
 5634TIP3    H216909   3.283   0.340   4.351
 5635TIP3   OH216910   1.652   1.183   4.077
 5635TIP3    H116911   1.609   1.141   4.152
 5635TIP3    H216912   1.674   1.271   4.107
 5636TIP3   OH216913   1.464   4.768   4.787
 5636TIP3    H116914   1.435   4.785   4.697
 5636TIP3    H216915   1.539   4.709   4.778
 5637TIP3   OH216916   1.114   5.517   1.202
 5637TIP3    H116917   1.162   5.545   1.124
 5637TIP3    H216918   1.088   5.599   1.245
 5638TIP3   OH216919   0.798   4.833   2.697
 5638TIP3    H116920   0.843   4.894   2.639
 5638TIP3    H216921   0.705   4.858   2.690
 5639TIP3   OH216922   4.389   1.419   1.108
 5639TIP3    H116923   4.308   1.395   1.153
 5639TIP3    H216924   4.361   1.454   1.023
 5640TIP3   OH216925   6.214   3.949   3.738
 5640TIP3    H116926   6.261   3.957   3.655
 5640TIP3    H216927   6.176   3.861   3.735
 5641TIP3   OH216928   5.004   4.544   0.043
 5641TIP3    H116929   4.928   4.557   0.102
 5641TIP3    H216930   5.016   4.449   0.041
 5642TIP3   OH216931   5.793   1.588   1.782
 5642TIP3    H116932   5.873   1.586   1.833
 5642TIP3    H216933   5.723   1.595   1.847
 5643TIP3   OH216934   5.833   2.503   4.445
 5643TIP3    H116935   5.854   2.546   4.527
 5643TIP3    H216936   5.767   2.437   4.468
 5644TIP3   OH216937   4.200   0.728   3.337
 5644TIP3    H116938   4.218   0.759   3.249
 5644TIP3    H216939   4.263   0.776   3.392
 5645TIP3   OH216940   1.376   1.267   3.635
 5645TIP3    H116941   1.334   1.213   3.703
 5645TIP3    H216942   1.404   1.346   3.681
 5646TIP3   OH216943   5.892   5.767   0.494
 5646TIP3    H116944   5.887   5.844   0.437
 5646TIP3    H216945   5.914   5.695   0.435
 5647TIP3   OH216946   4.302   1.732   0.486
 5647TIP3    H116947   4.242   1.761   0.554
 5647TIP3    H216948   4.387   1.763   0.514
 5648TIP3   OH216949   3.564   4.139   0.322
 5648TIP3    H116950   3.570   4.234   0.319
 5648TIP3    H216951   3.577   4.111   0.231
 5649TIP3   OH216952   5.651   2.282   4.991
 5649TIP3    H116953   5.653   2.228   5.070
 5649TIP3    H216954   5.739   2.273   4.954
 5650TIP3   OH216955   3.250   4.380   3.994
 5650TIP3    H116956   3.212   4.387   3.907
 5650TIP3    H216957   3.186   4.422   4.051
 5651TIP3   OH216958   3.215   3.946   3.884
 5651TIP3    H116959   3.150   3.941   3.814
 5651TIP3    H216960   3.263   3.863   3.878
 5652TIP3   OH216961   4.432   0.930   0.389
 5652TIP3    H116962   4.523   0.957   0.399
 5652TIP3    H216963   4.424   0.850   0.442
 5653TIP3   OH216964   5.327   4.309   2.292
 5653TIP3    H116965   5.236   4.327   2.314
 5653TIP3    H216966   5.376   4.386   2.321
 5654TIP3   OH216967   5.772   5.102   2.720
 5654TIP3    H116968   5.678   5.085   2.732
 5654TIP3    H216969   5.775   5.178   2.661
 5655TIP3   OH216970   2.496   5.244   0.584
 5655TIP3    H116971   2.544   5.266   0.663
 5655TIP3    H216972   2.418   5.198   0.615
 5656TIP3   OH216973   1.341   0.128   1.796
 5656TIP3    H116974   1.402   0.185   1.842
 5656TIP3    H216975   1.393   0.049   1.777
 5657TIP3   OH216976   4.217   2.387   0.219
 5657TIP3    H116977   4.151   2.329   0.180
 5657TIP3    H216978   4.255   2.433   0.144
 5658TIP3   OH216979   4.188   2.559   2.987
 5658TIP3    H116980   4.256   2.620   3.015
 5658TIP3    H216981   4.168   2.507   3.064
 5659TIP3   OH216982   3.071   4.788   1.237
 5659TIP3    H116983   3.149   4.793   1.291
 5659TIP3    H216984   3.063   4.695   1.215
 5660TIP3   OH216985   2.899   3.430   3.484
 5660TIP3    H116986   2.808   3.448   3.507
 5660TIP3    H216987   2.911   3.337   3.505
 5661TIP3   OH216988   1.962   5.292   3.235
 5661TIP3    H116989   1.938   5.220   3.292
 5661TIP3    H216990   2.044   5.264   3.193
 5662TIP3   OH216991   3.368   2.099   1.769
 5662TIP3    H116992   3.325   2.037   1.827
 5662TIP3    H216993   3.297   2.155   1.737
 5663TIP3   OH216994   1.256   2.654   1.396
 5663TIP3    H116995   1.191   2.633   1.329
 5663TIP3    H216996   1.206   2.660   1.477
 5664TIP3   OH216997   1.152   1.764   4.071
 5664TIP3    H116998   1.059   1.759   4.094
 5664TIP3    H216999   1.184   1.841   4.118
 5665TIP3   OH217000   0.343   3.941   0.769
 5665TIP3    H117001   0.398   3.983   0.835
 5665TIP3    H217002   0.274   4.005   0.751
 5666TIP3   OH217003   2.510   1.130   4.363
 5666TIP3    H117004   2.559   1.166   4.289
 5666TIP3    H217005   2.489   1.040   4.337
 5667TIP3   OH217006   0.572   3.773   3.520
 5667TIP3    H117007   0.513   3.699   3.535
 5667TIP3    H217008   0.517   3.850   3.537
 5668TIP3   OH217009   1.990   4.886   1.622
 5668TIP3    H117010   2.081   4.870   1.647
 5668TIP3    H217011   1.940   4.825   1.677
 5669TIP3   OH217012   1.750   2.544   1.026
 5669TIP3    H117013   1.746   2.621   1.082
 5669TIP3    H217014   1.739   2.470   1.085
 5670TIP3   OH217015   1.784   4.699   2.397
 5670TIP3    H117016   1.707   4.692   2.341
 5670TIP3    H217017   1.767   4.638   2.469
 5671TIP3   OH217018   3.156   0.442   1.222
 5671TIP3    H117019   3.222   0.457   1.291
 5671TIP3    H217020   3.177   0.506   1.155
 5672TIP3   OH217021   4.928   1.134   4.735
 5672TIP3    H117022   4.871   1.058   4.725
 5672TIP3    H217023   5.007   1.111   4.686
 5673TIP3   OH217024   1.648   1.734   4.373
 5673TIP3    H117025   1.572   1.791   4.359
 5673TIP3    H217026   1.609   1.649   4.396
 5674TIP3   OH217027   2.469   0.420   3.983
 5674TIP3    H117028   2.523   0.408   4.062
 5674TIP3    H217029   2.388   0.373   4.002
 5675TIP3   OH217030   3.423   1.195   0.250
 5675TIP3    H117031   3.481   1.124   0.276
 5675TIP3    H217032   3.481   1.266   0.223
 5676TIP3   OH217033   0.014   3.731   0.201
 5676TIP3    H117034   0.022   3.640   0.171
 5676TIP3    H217035  -0.073   3.758   0.172
 5677TIP3   OH217036   4.268   4.789   1.600
 5677TIP3    H117037   4.239   4.866   1.553
 5677TIP3    H217038   4.319   4.739   1.536
 5678TIP3   OH217039   0.566   4.623   0.771
 5678TIP3    H117040   0.557   4.529   0.760
 5678TIP3    H217041   0.548   4.660   0.685
 5679TIP3   OH217042   2.059   4.152   4.550
 5679TIP3    H117043   2.023   4.111   4.472
 5679TIP3    H217044   1.998   4.129   4.620
 5680TIP3   OH217045   1.290   2.740   3.939
 5680TIP3    H117046   1.221   2.705   3.995
 5680TIP3    H217047   1.324   2.664   3.892
 5681TIP3   OH217048   5.555   1.845   2.062
 5681TIP3    H117049   5.622   1.806   2.118
 5681TIP3    H217050   5.603   1.872   1.983
 5682TIP3   OH217051   1.438   0.198   0.270
 5682TIP3    H117052   1.359   0.157   0.234
 5682TIP3    H217053   1.506   0.131   0.261
 5683TIP3   OH217054   0.010   1.733   1.620
 5683TIP3    H117055   0.052   1.678   1.554
 5683TIP3    H217056  -0.040   1.797   1.570
 5684TIP3   OH217057   3.210   5.781   3.280
 5684TIP3    H117058   3.277   5.716   3.299
 5684TIP3    H217059   3.258   5.854   3.241
 5685TIP3   OH217060   3.701   1.222   1.711
 5685TIP3    H117061   3.774   1.188   1.660
 5685TIP3    H217062   3.624   1.211   1.655
 5686TIP3   OH217063   3.986   3.310   2.531
 5686TIP3    H117064   4.001   3.371   2.459
 5686TIP3    H217065   3.907   3.262   2.506
 5687TIP3   OH217066   4.442   4.592   0.157
 5687TIP3    H117067   4.450   4.517   0.215
 5687TIP3    H217068   4.440   4.555   0.069
 5688TIP3   OH217069   5.595   0.092   4.957
 5688TIP3    H117070   5.605   0.117   5.049
 5688TIP3    H217071   5.683   0.099   4.920
 5689TIP3   OH217072   3.290   2.884   3.016
 5689TIP3    H117073   3.375   2.910   2.980
 5689TIP3    H217074   3.226   2.937   2.969
 5690TIP3   OH217075   1.617   0.094   3.989
 5690TIP3    H117076   1.566   0.170   4.017
 5690TIP3    H217077   1.552   0.036   3.947
 5691TIP3   OH217078   5.063   5.423   0.167
 5691TIP3    H117079   5.120   5.397   0.240
 5691TIP3    H217080   4.976   5.428   0.206
 5692TIP3   OH217081   5.515   0.872   1.645
 5692TIP3    H117082   5.594   0.836   1.686
 5692TIP3    H217083   5.443   0.830   1.692
 5693TIP3   OH217084   1.820   5.025   1.386
 5693TIP3    H117085   1.741   4.971   1.396
 5693TIP3    H217086   1.794   5.112   1.418
 5694TIP3   OH217087   3.576   2.572   3.179
 5694TIP3    H117088   3.516   2.533   3.243
 5694TIP3    H217089   3.585   2.663   3.207
 5695TIP3   OH217090   0.109   5.561   1.964
 5695TIP3    H117091   0.168   5.636   1.963
 5695TIP3    H217092   0.031   5.591   1.918
 5696TIP3   OH217093   2.347   3.363   1.841
 5696TIP3    H117094   2.423   3.326   1.796
 5696TIP3    H217095   2.308   3.423   1.778
 5697TIP3   OH217096   1.940   0.754   3.263
 5697TIP3    H117097   1.998   0.678   3.265
 5697TIP3    H217098   1.883   0.739   3.187
 5698TIP3   OH217099   0.633   0.875   4.565
 5698TIP3    H117100   0.583   0.929   4.503
 5698TIP3    H217101   0.607   0.785   4.546
 5699TIP3   OH217102   0.913   1.722   2.456
 5699TIP3    H117103   0.923   1.760   2.544
 5699TIP3    H217104   0.921   1.797   2.397
 5700TIP3   OH217105   2.718   4.562   4.470
 5700TIP3    H117106   2.777   4.637   4.464
 5700TIP3    H217107   2.755   4.507   4.539
 5701TIP3   OH217108   3.136   1.734   2.128
 5701TIP3    H117109   3.222   1.708   2.159
 5701TIP3    H217110   3.075   1.689   2.186
 5702TIP3   OH217111   6.128   1.009   5.071
 5702TIP3    H117112   6.149   1.034   4.981
 5702TIP3    H217113   6.063   1.073   5.099
 5703TIP3   OH217114   3.942   4.933   4.366
 5703TIP3    H117115   3.950   4.863   4.430
 5703TIP3    H217116   3.906   5.007   4.415
 5704TIP3   OH217117   3.769   4.858   4.856
 5704TIP3    H117118   3.804   4.927   4.912
 5704TIP3    H217119   3.745   4.903   4.774
 5705TIP3   OH217120   3.477   5.246   3.906
 5705TIP3    H117121   3.456   5.160   3.871
 5705TIP3    H217122   3.573   5.247   3.911
 5706TIP3   OH217123   0.805   3.799   4.946
 5706TIP3    H117124   0.862   3.873   4.968
 5706TIP3    H217125   0.862   3.738   4.899
 5707TIP3   OH217126   5.834   0.876   2.561
 5707TIP3    H117127   5.912   0.897   2.613
 5707TIP3    H217128   5.852   0.789   2.525
 5708TIP3   OH217129   0.892   3.667   0.326
 5708TIP3    H117130   0.959   3.672   0.395
 5708TIP3    H217131   0.827   3.606   0.360
 5709TIP3   OH217132   4.141   2.101   2.828
 5709TIP3    H117133   4.073   2.064   2.884
 5709TIP3    H217134   4.160   2.032   2.765
 5710TIP3   OH217135   2.639   1.729   4.786
 5710TIP3    H117136   2.583   1.655   4.809
 5710TIP3    H217137   2.727   1.702   4.812
 5711TIP3   OH217138   1.389   3.380   3.751
 5711TIP3    H117139   1.309   3.366   3.801
 5711TIP3    H217140   1.359   3.409   3.665
 5712TIP3   OH217141   0.047   1.538   0.422
 5712TIP3    H117142   0.117   1.566   0.480
 5712TIP3    H217143  -0.022   1.603   0.433
 5713TIP3   OH217144   2.154   0.045   4.442
 5713TIP3    H117145   2.158  -0.039   4.488
 5713TIP3    H217146   2.062   0.055   4.417
 5714TIP3   OH217147   5.167   4.887   5.070
 5714TIP3    H117148   5.241   4.839   5.108
 5714TIP3    H217149   5.090   4.835   5.093
 5715TIP3   OH217150   1.292   4.833   2.937
 5715TIP3    H117151   1.284   4.921   2.902
 5715TIP3    H217152   1.380   4.830   2.975
 5716TIP3   OH217153   1.748   1.513   3.034
 5716TIP3    H117154   1.739   1.453   2.960
 5716TIP3    H217155   1.670   1.499   3.087
 5717TIP3   OH217156   2.082   1.385   2.910
 5717TIP3    H117157   2.114   1.476   2.912
 5717TIP3    H217158   2.101   1.351   2.998
 5718TIP3   OH217159   6.117   3.730   4.375
 5718TIP3    H117160   6.039   3.711   4.323
 5718TIP3    H217161   6.163   3.646   4.381
 5719TIP3   OH217162   3.776   1.725   3.574
 5719TIP3    H117163   3.697   1.773   3.550
 5719TIP3    H217164   3.755   1.684   3.658
 5720TIP3   OH217165   3.095   2.221   1.452
 5720TIP3    H117166   3.126   2.229   1.542
 5720TIP3    H217167   3.156   2.274   1.401
 5721TIP3   OH217168   0.643   3.061   4.285
 5721TIP3    H117169   0.553   3.038   4.261
 5721TIP3    H217170   0.634   3.137   4.341
 5722TIP3   OH217171   1.301   5.179   0.218
 5722TIP3    H117172   1.301   5.222   0.304
 5722TIP3    H217173   1.211   5.150   0.206
 5723TIP3   OH217174   2.561   5.927   3.928
 5723TIP3    H117175   2.478   5.969   3.948
 5723TIP3    H217176   2.625   5.999   3.929
 5724TIP3   OH217177   0.736   0.285   4.739
 5724TIP3    H117178   0.791   0.360   4.717
 5724TIP3    H217179   0.679   0.316   4.809
 5725TIP3   OH217180   3.884   2.719   3.703
 5725TIP3    H117181   3.945   2.792   3.686
 5725TIP3    H217182   3.913   2.650   3.643
 5726TIP3   OH217183   6.234   1.621   2.326
 5726TIP3    H117184   6.174   1.597   2.397
 5726TIP3    H217185   6.298   1.679   2.368
 5727TIP3   OH217186   5.995   4.186   0.820
 5727TIP3    H117187   5.911   4.143   0.810
 5727TIP3    H217188   6.047   4.127   0.874
 5728TIP3   OH217189   5.530   4.985   4.337
 5728TIP3    H117190   5.558   4.896   4.318
 5728TIP3    H217191   5.558   5.036   4.261
 5729TIP3   OH217192   1.502   1.390   0.072
 5729TIP3    H117193   1.530   1.317   0.127
 5729TIP3    H217194   1.470   1.456   0.133
 5730TIP3   OH217195   5.428   1.196   1.866
 5730TIP3    H117196   5.494   1.129   1.883
 5730TIP3    H217197   5.442   1.261   1.935
 5731TIP3   OH217198   4.029   3.543   3.841
 5731TIP3    H117199   3.955   3.492   3.874
 5731TIP3    H217200   4.103   3.515   3.894
 5732TIP3   OH217201   1.855   3.063   4.783
 5732TIP3    H117202   1.887   3.043   4.695
 5732TIP3    H217203   1.813   3.149   4.774
 5733TIP3   OH217204   4.131   4.666   4.069
 5733TIP3    H117205   4.168   4.710   4.146
 5733TIP3    H217206   4.207   4.638   4.018
 5734TIP3   OH217207   1.587   6.007   0.774
 5734TIP3    H117208   1.663   5.952   0.794
 5734TIP3    H217209   1.512   5.956   0.805
 5735TIP3   OH217210   5.509   5.252   0.250
 5735TIP3    H117211   5.591   5.229   0.292
 5735TIP3    H217212   5.446   5.258   0.322
 5736TIP3   OH217213   3.254   0.694   0.643
 5736TIP3    H117214   3.319   0.645   0.594
 5736TIP3    H217215   3.193   0.627   0.675
 5737TIP3   OH217216   2.982   4.567   3.484
 5737TIP3    H117217   2.899   4.563   3.436
 5737TIP3    H217218   2.979   4.492   3.544
 5738TIP3   OH217219   3.717   4.412   4.315
 5738TIP3    H117220   3.746   4.460   4.392
 5738TIP3    H217221   3.686   4.479   4.255
 5739TIP3   OH217222   4.232   1.860   3.000
 5739TIP3    H117223   4.203   1.769   2.997
 5739TIP3    H217224   4.154   1.910   3.023
 5740TIP3   OH217225   4.713   5.211   1.948
 5740TIP3    H117226   4.750   5.273   1.885
 5740TIP3    H217227   4.751   5.236   2.032
 5741TIP3   OH217228   3.618   5.270   2.088
 5741TIP3    H117229   3.637   5.223   2.007
 5741TIP3    H217230   3.551   5.334   2.064
 5742TIP3   OH217231   5.178   4.591   3.514
 5742TIP3    H117232   5.111   4.569   3.580
 5742TIP3    H217233   5.217   4.672   3.546
 5743TIP3   OH217234   0.802   1.092   1.608
 5743TIP3    H117235   0.721   1.125   1.647
 5743TIP3    H217236   0.798   1.122   1.517
 5744TIP3   OH217237   0.314   4.355   4.096
 5744TIP3    H117238   0.289   4.386   4.183
 5744TIP3    H217239   0.379   4.286   4.112
 5745TIP3   OH217240   4.667   3.967   0.161
 5745TIP3    H117241   4.702   4.032   0.100
 5745TIP3    H217242   4.578   3.952   0.131
 5746TIP3   OH217243   4.722   1.727   2.718
 5746TIP3    H117244   4.774   1.745   2.797
 5746TIP3    H217245   4.631   1.726   2.749
 5747TIP3   OH217246   2.554   4.767   0.505
 5747TIP3    H117247   2.546   4.678   0.540
 5747TIP3    H217248   2.606   4.757   0.425
 5748TIP3   OH217249   3.900   1.014   1.017
 5748TIP3    H117250   3.963   0.947   1.043
 5748TIP3    H217251   3.840   0.970   0.957
 5749TIP3   OH217252   0.912   1.469   1.339
 5749TIP3    H117253   0.990   1.500   1.385
 5749TIP3    H217254   0.937   1.468   1.247
 5750TIP3   OH217255   1.934   2.197   5.140
 5750TIP3    H117256   2.019   2.205   5.184
 5750TIP3    H217257   1.908   2.288   5.122
 5751TIP3   OH217258   4.745   3.972   1.119
 5751TIP3    H117259   4.782   3.918   1.189
 5751TIP3    H217260   4.817   4.028   1.091
 5752TIP3   OH217261   5.886   0.026   0.117
 5752TIP3    H117262   5.948  -0.013   0.055
 5752TIP3    H217263   5.887   0.120   0.097
 5753TIP3   OH217264   0.148   3.019   1.488
 5753TIP3    H117265   0.198   3.097   1.513
 5753TIP3    H217266   0.133   3.029   1.394
 5754TIP3   OH217267   3.727   5.745   0.506
 5754TIP3    H117268   3.734   5.771   0.598
 5754TIP3    H217269   3.655   5.798   0.471
 5755TIP3   OH217270   4.605   0.669   0.936
 5755TIP3    H117271   4.562   0.732   0.879
 5755TIP3    H217272   4.534   0.609   0.961
 5756TIP3   OH217273   4.405   4.780   1.362
 5756TIP3    H117274   4.438   4.738   1.282
 5756TIP3    H217275   4.461   4.857   1.373
 5757TIP3   OH217276   6.244   1.238   4.580
 5757TIP3    H117277   6.300   1.285   4.518
 5757TIP3    H217278   6.305   1.197   4.642
 5758TIP3   OH217279   3.849   2.817   1.714
 5758TIP3    H117280   3.793   2.826   1.637
 5758TIP3    H217281   3.804   2.756   1.771
 5759TIP3   OH217282   2.884   1.650   0.601
 5759TIP3    H117283   2.809   1.634   0.660
 5759TIP3    H217284   2.903   1.563   0.564
 5760TIP3   OH217285   5.040   4.102   1.135
 5760TIP3    H117286   5.083   4.016   1.129
 5760TIP3    H217287   5.000   4.114   1.049
 5761TIP3   OH217288   5.124   5.310   2.650
 5761TIP3    H117289   5.047   5.364   2.669
 5761TIP3    H217290   5.118   5.292   2.556
 5762TIP3   OH217291   1.901   3.707   2.177
 5762TIP3    H117292   1.848   3.639   2.220
 5762TIP3    H217293   1.855   3.789   2.197
 5763TIP3   OH217294   0.617   0.534   4.592
 5763TIP3    H117295   0.526   0.557   4.611
 5763TIP3    H217296   0.612   0.467   4.524
 5764TIP3   OH217297   3.427   2.562   0.426
 5764TIP3    H117298   3.395   2.556   0.336
 5764TIP3    H217299   3.518   2.532   0.421
 5765TIP3   OH217300   3.145   2.903   3.371
 5765TIP3    H117301   3.156   2.873   3.461
 5765TIP3    H217302   3.198   2.983   3.366
 5766TIP3   OH217303   0.779   4.567   1.891
 5766TIP3    H117304   0.720   4.549   1.818
 5766TIP3    H217305   0.746   4.647   1.930
 5767TIP3   OH217306   0.883   1.985   0.798
 5767TIP3    H117307   0.829   1.997   0.876
 5767TIP3    H217308   0.835   1.922   0.744
 5768TIP3   OH217309   0.402   5.691   4.343
 5768TIP3    H117310   0.404   5.769   4.399
 5768TIP3    H217311   0.426   5.723   4.256
 5769TIP3   OH217312   1.058   4.629   4.095
 5769TIP3    H117313   0.968   4.655   4.115
 5769TIP3    H217314   1.097   4.610   4.181
 5770TIP3   OH217315   3.079   5.037   3.198
 5770TIP3    H117316   3.040   5.076   3.119
 5770TIP3    H217317   3.020   5.061   3.269
 5771TIP3   OH217318   2.156   5.418   3.946
 5771TIP3    H117319   2.201   5.428   3.863
 5771TIP3    H217320   2.218   5.370   4.002
 5772TIP3   OH217321   2.681   2.990   1.866
 5772TIP3    H117322   2.658   2.902   1.896
 5772TIP3    H217323   2.724   2.976   1.781
 5773TIP3   OH217324   4.561   2.443   1.917
 5773TIP3    H117325   4.649   2.417   1.943
 5773TIP3    H217326   4.519   2.363   1.886
 5774TIP3   OH217327   3.579   1.443   2.825
 5774TIP3    H117328   3.504   1.413   2.772
 5774TIP3    H217329   3.605   1.525   2.785
 5775TIP3   OH217330   0.810   3.878   1.511
 5775TIP3    H117331   0.787   3.928   1.589
 5775TIP3    H217332   0.727   3.843   1.479
 5776TIP3   OH217333   3.911   2.717   3.966
 5776TIP3    H117334   3.976   2.647   3.972
 5776TIP3    H217335   3.897   2.729   3.872
 5777TIP3   OH217336   4.929   4.405   3.003
 5777TIP3    H117337   4.844   4.377   3.038
 5777TIP3    H217338   4.992   4.347   3.044
 5778TIP3   OH217339   4.212   4.336   2.165
 5778TIP3    H117340   4.181   4.336   2.074
 5778TIP3    H217341   4.303   4.307   2.160
 5779TIP3   OH217342   4.500   2.662   2.463
 5779TIP3    H117343   4.460   2.580   2.435
 5779TIP3    H217344   4.467   2.675   2.552
 5780TIP3   OH217345   0.079   2.001   0.337
 5780TIP3    H117346   0.161   2.039   0.368
 5780TIP3    H217347   0.104   1.921   0.292
 5781TIP3   OH217348   1.627   5.394   2.822
 5781TIP3    H117349   1.613   5.319   2.765
 5781TIP3    H217350   1.579   5.466   2.779
 5782TIP3   OH217351   5.396   2.921   4.296
 5782TIP3    H117352   5.362   2.832   4.301
 5782TIP3    H217353   5.330   2.975   4.339
 5783TIP3   OH217354   2.335   5.166   3.149
 5783TIP3    H117355   2.326   5.238   3.087
 5783TIP3    H217356   2.340   5.088   3.094
 5784TIP3   OH217357   2.762   1.143   0.716
 5784TIP3    H117358   2.798   1.056   0.731
 5784TIP3    H217359   2.680   1.128   0.669
 5785TIP3   OH217360   0.675   1.117   3.089
 5785TIP3    H117361   0.656   1.211   3.087
 5785TIP3    H217362   0.711   1.098   3.002
 5786TIP3   OH217363   4.793   4.864   3.446
 5786TIP3    H117364   4.887   4.880   3.455
 5786TIP3    H217365   4.755   4.950   3.428
 5787TIP3   OH217366   0.138   5.427   3.788
 5787TIP3    H117367   0.087   5.498   3.828
 5787TIP3    H217368   0.123   5.437   3.694
 5788TIP3   OH217369   0.837   5.289   2.467
 5788TIP3    H117370   0.752   5.323   2.438
 5788TIP3    H217371   0.853   5.334   2.550
 5789TIP3   OH217372   1.205   3.498   4.380
 5789TIP3    H117373   1.142   3.567   4.358
 5789TIP3    H217374   1.161   3.417   4.357
 5790TIP3   OH217375   5.675   2.294   4.510
 5790TIP3    H117376   5.596   2.268   4.463
 5790TIP3    H217377   5.741   2.231   4.480
 5791TIP3   OH217378   2.517   1.037   2.736
 5791TIP3    H117379   2.457   1.101   2.696
 5791TIP3    H217380   2.460   0.971   2.774
 5792TIP3   OH217381   0.917   2.375   3.821
 5792TIP3    H117382   0.986   2.436   3.794
 5792TIP3    H217383   0.964   2.300   3.856
 5793TIP3   OH217384   3.684   5.073   4.029
 5793TIP3    H117385   3.728   5.000   4.073
 5793TIP3    H217386   3.751   5.142   4.026
 5794TIP3   OH217387   5.387   0.388   3.107
 5794TIP3    H117388   5.400   0.332   3.183
 5794TIP3    H217389   5.421   0.474   3.134
 5795TIP3   OH217390   1.160   4.645   2.087
 5795TIP3    H117391   1.119   4.610   2.007
 5795TIP3    H217392   1.100   4.714   2.115
 5796TIP3   OH217393   5.203   2.484   2.583
 5796TIP3    H117394   5.237   2.524   2.663
 5796TIP3    H217395   5.221   2.548   2.515
 5797TIP3   OH217396   3.609   4.116   4.102
 5797TIP3    H117397   3.575   4.027   4.099
 5797TIP3    H217398   3.660   4.125   4.022
 5798TIP3   OH217399   6.178   2.821   0.526
 5798TIP3    H117400   6.135   2.823   0.611
 5798TIP3    H217401   6.247   2.887   0.532
 5799TIP3   OH217402   2.128   5.277   5.002
 5799TIP3    H117403   2.063   5.207   5.000
 5799TIP3    H217404   2.207   5.239   4.966
 5800TIP3   OH217405   5.503   5.013   4.656
 5800TIP3    H117406   5.586   4.966   4.648
 5800TIP3    H217407   5.446   4.969   4.593
 5801TIP3   OH217408   3.178   3.754   4.258
 5801TIP3    H117409   3.256   3.809   4.259
 5801TIP3    H217410   3.146   3.757   4.349
 5802TIP3   OH217411   4.937   3.431   3.943
 5802TIP3    H117412   4.875   3.486   3.989
 5802TIP3    H217413   4.900   3.343   3.949
 5803TIP3   OH217414   6.226   0.318   1.788
 5803TIP3    H117415   6.161   0.290   1.852
 5803TIP3    H217416   6.229   0.247   1.724
 5804TIP3   OH217417   5.113   3.902   3.531
 5804TIP3    H117418   5.037   3.910   3.589
 5804TIP3    H217419   5.144   3.812   3.542
 5805TIP3   OH217420   5.722   5.531   0.658
 5805TIP3    H117421   5.726   5.490   0.744
 5805TIP3    H217422   5.689   5.619   0.675
 5806TIP3   OH217423   0.193   1.884   0.921
 5806TIP3    H117424   0.112   1.889   0.871
 5806TIP3    H217425   0.167   1.844   1.004
 5807TIP3   OH217426   3.590   5.703   4.442
 5807TIP3    H117427   3.570   5.796   4.431
 5807TIP3    H217428   3.554   5.682   4.528
 5808TIP3   OH217429   0.334   4.727   5.080
 5808TIP3    H117430   0.315   4.778   5.002
 5808TIP3    H217431   0.362   4.791   5.145
 5809TIP3   OH217432   3.259   3.897   1.816
 5809TIP3    H117433   3.179   3.925   1.861
 5809TIP3    H217434   3.282   3.814   1.858
 5810TIP3   OH217435   5.312   2.019   1.298
 5810TIP3    H117436   5.317   2.048   1.206
 5810TIP3    H217437   5.358   1.936   1.299
 5811TIP3   OH217438   5.783   1.578   0.151
 5811TIP3    H117439   5.844   1.584   0.224
 5811TIP3    H217440   5.717   1.645   0.169
 5812TIP3   OH217441   2.272   1.829   2.270
 5812TIP3    H117442   2.257   1.737   2.295
 5812TIP3    H217443   2.257   1.831   2.176
 5813TIP3   OH217444   1.988   5.195   4.384
 5813TIP3    H117445   2.042   5.124   4.419
 5813TIP3    H217446   1.933   5.152   4.318
 5814TIP3   OH217447   2.157   3.982   0.463
 5814TIP3    H117448   2.168   3.899   0.510
 5814TIP3    H217449   2.230   4.036   0.492
 5815TIP3   OH217450   0.153   4.312   0.106
 5815TIP3    H117451   0.229   4.315   0.164
 5815TIP3    H217452   0.109   4.230   0.129
 5816TIP3   OH217453   1.737   5.390   2.223
 5816TIP3    H117454   1.664   5.425   2.172
 5816TIP3    H217455   1.730   5.432   2.308
 5817TIP3   OH217456   5.422   0.449   0.008
 5817TIP3    H117457   5.403   0.359   0.035
 5817TIP3    H217458   5.432   0.497   0.091
 5818TIP3   OH217459   0.066   5.435   5.126
 5818TIP3    H117460   0.087   5.357   5.075
 5818TIP3    H217461   0.142   5.492   5.114
 5819TIP3   OH217462   1.655   4.388   1.936
 5819TIP3    H117463   1.636   4.434   2.018
 5819TIP3    H217464   1.749   4.374   1.937
 5820TIP3   OH217465   1.589   0.114   1.496
 5820TIP3    H117466   1.634   0.166   1.563
 5820TIP3    H217467   1.637   0.133   1.415
 5821TIP3   OH217468   5.953   1.300   0.012
 5821TIP3    H117469   5.941   1.239   0.084
 5821TIP3    H217470   6.045   1.289  -0.013
 5822TIP3   OH217471   4.470   4.595   1.983
 5822TIP3    H117472   4.547   4.651   1.978
 5822TIP3    H217473   4.409   4.642   2.041
 5823TIP3   OH217474   2.415   0.957   1.869
 5823TIP3    H117475   2.415   0.968   1.964
 5823TIP3    H217476   2.490   0.901   1.851
 5824TIP3   OH217477   5.314   3.644   3.309
 5824TIP3    H117478   5.334   3.737   3.323
 5824TIP3    H217479   5.294   3.610   3.396
 5825TIP3   OH217480   3.501   5.988   1.599
 5825TIP3    H117481   3.413   5.980   1.562
 5825TIP3    H217482   3.496   6.065   1.655
 5826TIP3   OH217483   0.051   4.095   0.218
 5826TIP3    H117484  -0.021   4.087   0.280
 5826TIP3    H217485   0.089   4.007   0.215
 5827TIP3   OH217486   2.318   5.183   2.872
 5827TIP3    H117487   2.394   5.239   2.855
 5827TIP3    H217488   2.259   5.199   2.799
 5828TIP3   OH217489   3.988   2.289   1.670
 5828TIP3    H117490   3.979   2.344   1.592
 5828TIP3    H217491   3.899   2.262   1.691
 5829TIP3   OH217492   2.296   3.537   1.634
 5829TIP3    H117493   2.248   3.618   1.654
 5829TIP3    H217494   2.296   3.534   1.538
 5830TIP3   OH217495   4.791   4.474   4.321
 5830TIP3    H117496   4.859   4.538   4.301
 5830TIP3    H217497   4.817   4.395   4.274
 5831TIP3   OH217498   5.219   4.382   1.834
 5831TIP3    H117499   5.219   4.449   1.766
 5831TIP3    H217500   5.128   4.357   1.844
 5832TIP3   OH217501   5.046   1.346   3.508
 5832TIP3    H117502   5.142   1.355   3.504
 5832TIP3    H217503   5.017   1.360   3.418
 5833TIP3   OH217504   2.916   5.952   4.220
 5833TIP3    H117505   2.988   6.009   4.191
 5833TIP3    H217506   2.924   5.874   4.164
 5834TIP3   OH217507   4.087   1.638   0.894
 5834TIP3    H117508   4.021   1.571   0.873
 5834TIP3    H217509   4.167   1.608   0.850
 5835TIP3   OH217510   3.313   5.422   2.175
 5835TIP3    H117511   3.258   5.494   2.205
 5835TIP3    H217512   3.358   5.392   2.255
 5836TIP3   OH217513   6.048   2.096   0.025
 5836TIP3    H117514   6.066   2.165   0.089
 5836TIP3    H217515   5.967   2.124  -0.017
 5837TIP3   OH217516   4.823   3.819   3.077
 5837TIP3    H117517   4.776   3.895   3.044
 5837TIP3    H217518   4.873   3.786   3.002
 5838TIP3   OH217519   5.145   3.472   2.762
 5838TIP3    H117520   5.233   3.445   2.736
 5838TIP3    H217521   5.156   3.507   2.851
 5839TIP3   OH217522   2.361   0.849   1.523
 5839TIP3    H117523   2.343   0.805   1.440
 5839TIP3    H217524   2.343   0.782   1.589
 5840TIP3   OH217525   0.147   0.413   1.664
 5840TIP3    H117526   0.085   0.379   1.728
 5840TIP3    H217527   0.107   0.394   1.579
 5841TIP3   OH217528   1.612   1.642   4.731
 5841TIP3    H117529   1.630   1.724   4.686
 5841TIP3    H217530   1.635   1.659   4.823
 5842TIP3   OH217531   2.961   5.113   0.369
 5842TIP3    H117532   2.875   5.153   0.360
 5842TIP3    H217533   2.951   5.026   0.330
 5843TIP3   OH217534   5.469   0.604   0.225
 5843TIP3    H117535   5.393   0.620   0.281
 5843TIP3    H217536   5.497   0.691   0.197
 5844TIP3   OH217537   0.828   5.117   2.196
 5844TIP3    H117538   0.790   5.201   2.222
 5844TIP3    H217539   0.792   5.100   2.110
 5845TIP3   OH217540   2.442   3.246   4.366
 5845TIP3    H117541   2.411   3.236   4.455
 5845TIP3    H217542   2.523   3.195   4.363
 5846TIP3   OH217543   4.020   2.897  -0.011
 5846TIP3    H117544   4.081   2.937   0.050
 5846TIP3    H217545   4.012   2.806   0.019
 5847TIP3   OH217546   2.927   3.534   4.540
 5847TIP3    H117547   2.877   3.615   4.535
 5847TIP3    H217548   2.894   3.481   4.467
 5848TIP3   OH217549   0.215   3.572   2.314
 5848TIP3    H117550   0.238   3.493   2.362
 5848TIP3    H217551   0.273   3.640   2.349
 5849TIP3   OH217552   4.616   0.805   2.476
 5849TIP3    H117553   4.586   0.861   2.547
 5849TIP3    H217554   4.619   0.717   2.514
 5850TIP3   OH217555   1.262   3.264   0.692
 5850TIP3    H117556   1.356   3.251   0.681
 5850TIP3    H217557   1.234   3.309   0.613
 5851TIP3   OH217558   4.183   3.091   0.130
 5851TIP3    H117559   4.091   3.114   0.140
 5851TIP3    H217560   4.220   3.106   0.217
 5852TIP3   OH217561   2.512   4.099   3.110
 5852TIP3    H117562   2.542   4.173   3.056
 5852TIP3    H217563   2.417   4.109   3.114
 5853TIP3   OH217564   2.228   5.126   2.469
 5853TIP3    H117565   2.182   5.170   2.540
 5853TIP3    H217566   2.224   5.188   2.396
 5854TIP3   OH217567   0.946   4.837   4.664
 5854TIP3    H117568   0.946   4.932   4.676
 5854TIP3    H217569   0.991   4.803   4.741
 5855TIP3   OH217570   0.910   1.138   3.537
 5855TIP3    H117571   0.937   1.110   3.450
 5855TIP3    H217572   0.931   1.064   3.594
 5856TIP3   OH217573   2.314   3.687   2.536
 5856TIP3    H117574   2.289   3.749   2.467
 5856TIP3    H217575   2.243   3.692   2.599
 5857TIP3   OH217576   5.360   1.873   0.869
 5857TIP3    H117577   5.400   1.820   0.938
 5857TIP3    H217578   5.426   1.877   0.800
 5858TIP3   OH217579   2.855   2.292   1.915
 5858TIP3    H117580   2.780   2.242   1.882
 5858TIP3    H217581   2.923   2.226   1.931
 5859TIP3   OH217582   3.353   4.858   4.416
 5859TIP3    H117583   3.338   4.769   4.385
 5859TIP3    H217584   3.327   4.856   4.508
 5860TIP3   OH217585   6.156   0.829   1.651
 5860TIP3    H117586   6.154   0.906   1.594
 5860TIP3    H217587   6.248   0.806   1.657
 5861TIP3   OH217588   6.331   2.033   0.629
 5861TIP3    H117589   6.341   2.007   0.538
 5861TIP3    H217590   6.265   1.972   0.664
 5862TIP3   OH217591   3.422   1.539   4.187
 5862TIP3    H117592   3.346   1.556   4.244
 5862TIP3    H217593   3.455   1.454   4.217
 5863TIP3   OH217594   5.733   0.959   1.479
 5863TIP3    H117595   5.799   0.893   1.501
 5863TIP3    H217596   5.664   0.946   1.545
 5864TIP3   OH217597   0.260   4.556   2.977
 5864TIP3    H117598   0.282   4.489   2.912
 5864TIP3    H217599   0.344   4.591   3.005
 5865TIP3   OH217600   6.010   2.086   4.645
 5865TIP3    H117601   5.985   2.135   4.567
 5865TIP3    H217602   5.953   2.009   4.644
 5866TIP3   OH217603   3.802   4.198   2.299
 5866TIP3    H117604   3.809   4.103   2.288
 5866TIP3    H217605   3.741   4.209   2.372
 5867TIP3   OH217606   2.367   4.043   0.632
 5867TIP3    H117607   2.318   4.095   0.696
 5867TIP3    H217608   2.454   4.034   0.670
 5868TIP3   OH217609   0.175   4.435   4.340
 5868TIP3    H117610   0.116   4.468   4.272
 5868TIP3    H217611   0.116   4.407   4.411
 5869TIP3   OH217612   6.329   0.743   2.153
 5869TIP3    H117613   6.313   0.672   2.091
 5869TIP3    H217614   6.296   0.821   2.108
 5870TIP3   OH217615   5.713   4.022   2.341
 5870TIP3    H117616   5.700   4.023   2.246
 5870TIP3    H217617   5.633   4.061   2.376
 5871TIP3   OH217618   1.963   2.721   3.334
 5871TIP3    H117619   1.969   2.631   3.303
 5871TIP3    H217620   1.900   2.717   3.406
 5872TIP3   OH217621   2.209   5.512   2.793
 5872TIP3    H117622   2.296   5.473   2.788
 5872TIP3    H217623   2.218   5.597   2.750
 5873TIP3   OH217624   4.270   2.473   4.702
 5873TIP3    H117625   4.238   2.398   4.653
 5873TIP3    H217626   4.191   2.514   4.737
 5874TIP3   OH217627   0.891   5.754   2.260
 5874TIP3    H117628   0.899   5.739   2.354
 5874TIP3    H217629   0.900   5.667   2.221
 5875TIP3   OH217630   5.558   5.452   4.316
 5875TIP3    H117631   5.591   5.387   4.255
 5875TIP3    H217632   5.475   5.415   4.348
 5876TIP3   OH217633   5.891   5.164   1.210
 5876TIP3    H117634   5.953   5.098   1.180
 5876TIP3    H217635   5.945   5.229   1.256
 5877TIP3   OH217636   4.203   4.095   2.594
 5877TIP3    H117637   4.263   4.043   2.540
 5877TIP3    H217638   4.142   4.134   2.531
 5878TIP3   OH217639   4.584   3.485   5.001
 5878TIP3    H117640   4.593   3.541   4.924
 5878TIP3    H217641   4.490   3.475   5.013
 5879TIP3   OH217642   4.162   2.985   1.506
 5879TIP3    H117643   4.219   2.907   1.509
 5879TIP3    H217644   4.104   2.974   1.581
 5880TIP3   OH217645   3.707   0.387   3.823
 5880TIP3    H117646   3.722   0.341   3.741
 5880TIP3    H217647   3.701   0.480   3.798
 5881TIP3   OH217648   0.524   1.065   1.330
 5881TIP3    H117649   0.618   1.061   1.313
 5881TIP3    H217650   0.483   1.068   1.243
 5882TIP3   OH217651   1.375   5.438   0.110
 5882TIP3    H117652   1.294   5.488   0.096
 5882TIP3    H217653   1.345   5.350   0.134
 5883TIP3   OH217654   2.034   1.176   1.139
 5883TIP3    H117655   2.095   1.139   1.202
 5883TIP3    H217656   1.953   1.127   1.151
 5884TIP3   OH217657   2.466   4.812   1.481
 5884TIP3    H117658   2.466   4.883   1.416
 5884TIP3    H217659   2.545   4.827   1.533
 5885TIP3   OH217660   5.352   5.343   4.447
 5885TIP3    H117661   5.381   5.393   4.524
 5885TIP3    H217662   5.267   5.381   4.425
 5886TIP3   OH217663   5.527   0.393   1.608
 5886TIP3    H117664   5.601   0.441   1.645
 5886TIP3    H217665   5.507   0.327   1.673
 5887TIP3   OH217666   4.618   5.243   0.435
 5887TIP3    H117667   4.625   5.223   0.528
 5887TIP3    H217668   4.543   5.191   0.405
 5888TIP3   OH217669   3.020   1.044   0.967
 5888TIP3    H117670   3.060   1.098   0.898
 5888TIP3    H217671   2.957   0.988   0.921
 5889TIP3   OH217672   5.183   1.955   3.211
 5889TIP3    H117673   5.218   2.035   3.250
 5889TIP3    H217674   5.234   1.942   3.131
 5890TIP3   OH217675   3.682   4.687   2.687
 5890TIP3    H117676   3.631   4.654   2.761
 5890TIP3    H217677   3.735   4.613   2.660
 5891TIP3   OH217678   4.556   1.769   4.741
 5891TIP3    H117679   4.541   1.818   4.822
 5891TIP3    H217680   4.577   1.836   4.676
 5892TIP3   OH217681   3.117   5.088   1.275
 5892TIP3    H117682   3.196   5.088   1.221
 5892TIP3    H217683   3.094   4.996   1.284
 5893TIP3   OH217684   5.650   1.897   4.128
 5893TIP3    H117685   5.645   1.803   4.147
 5893TIP3    H217686   5.736   1.923   4.163
 5894TIP3   OH217687   4.613   0.249   4.574
 5894TIP3    H117688   4.565   0.186   4.627
 5894TIP3    H217689   4.702   0.247   4.609
 5895TIP3   OH217690   2.355   5.641   5.119
 5895TIP3    H117691   2.413   5.702   5.074
 5895TIP3    H217692   2.378   5.556   5.082
 5896TIP3   OH217693   4.338   2.300   2.268
 5896TIP3    H117694   4.393   2.355   2.323
 5896TIP3    H217695   4.382   2.215   2.266
 5897TIP3   OH217696   3.240   1.584   2.559
 5897TIP3    H117697   3.315   1.644   2.553
 5897TIP3    H217698   3.279   1.497   2.547
 5898TIP3   OH217699   0.812   0.003   0.879
 5898TIP3    H117700   0.813   0.095   0.853
 5898TIP3    H217701   0.719  -0.020   0.881
 5899TIP3   OH217702   1.737   3.376   1.662
 5899TIP3    H117703   1.800   3.305   1.668
 5899TIP3    H217704   1.654   3.333   1.644
 5900TIP3   OH217705   4.958   3.013   3.707
 5900TIP3    H117706   4.912   3.097   3.704
 5900TIP3    H217707   5.021   3.023   3.778
 5901TIP3   OH217708   5.887   2.486   3.260
 5901TIP3    H117709   5.932   2.406   3.233
 5901TIP3    H217710   5.831   2.458   3.334
 5902TIP3   OH217711   0.680   1.883   2.276
 5902TIP3    H117712   0.706   1.793   2.255
 5902TIP3    H217713   0.748   1.914   2.335
 5903TIP3   OH217714   2.743   4.421   3.425
 5903TIP3    H117715   2.703   4.452   3.343
 5903TIP3    H217716   2.740   4.325   3.418
 5904TIP3   OH217717   5.550   0.823   2.901
 5904TIP3    H117718   5.477   0.859   2.951
 5904TIP3    H217719   5.617   0.891   2.904
 5905TIP3   OH217720   5.254   5.896   3.433
 5905TIP3    H117721   5.249   5.990   3.451
 5905TIP3    H217722   5.163   5.869   3.419
 5906TIP3   OH217723   3.056   3.957   0.593
 5906TIP3    H117724   3.102   3.925   0.516
 5906TIP3    H217725   3.124   3.968   0.659
 5907TIP3   OH217726   1.383   4.537   0.360
 5907TIP3    H117727   1.403   4.472   0.293
 5907TIP3    H217728   1.388   4.621   0.313
 5908TIP3   OH217729   6.057   5.395   0.217
 5908TIP3    H117730   6.119   5.355   0.278
 5908TIP3    H217731   5.987   5.430   0.272
 5909TIP3   OH217732   3.360   0.202   1.000
 5909TIP3    H117733   3.451   0.225   1.017
 5909TIP3    H217734   3.321   0.194   1.087
 5910TIP3   OH217735   1.797   0.301   4.314
 5910TIP3    H117736   1.720   0.334   4.360
 5910TIP3    H217737   1.870   0.317   4.375
 5911TIP3   OH217738   2.888   1.130   3.037
 5911TIP3    H117739   2.956   1.196   3.050
 5911TIP3    H217740   2.890   1.076   3.116
 5912TIP3   OH217741   0.400   4.003   3.523
 5912TIP3    H117742   0.419   4.091   3.555
 5912TIP3    H217743   0.304   3.999   3.522
 5913TIP3   OH217744   5.456   5.827   1.886
 5913TIP3    H117745   5.376   5.819   1.938
 5913TIP3    H217746   5.430   5.877   1.809
 5914TIP3   OH217747   0.186   2.919   2.314
 5914TIP3    H117748   0.130   2.992   2.341
 5914TIP3    H217749   0.128   2.863   2.263
 5915TIP3   OH217750   4.960   2.403   4.518
 5915TIP3    H117751   5.005   2.338   4.464
 5915TIP3    H217752   4.911   2.457   4.455
 5916TIP3   OH217753   2.550   4.271   2.047
 5916TIP3    H117754   2.608   4.307   2.115
 5916TIP3    H217755   2.543   4.342   1.983
 5917TIP3   OH217756   0.872   4.200   1.512
 5917TIP3    H117757   0.887   4.120   1.563
 5917TIP3    H217758   0.886   4.173   1.421
 5918TIP3   OH217759   2.085   3.204   3.613
 5918TIP3    H117760   1.992   3.189   3.628
 5918TIP3    H217761   2.096   3.191   3.519
 5919TIP3   OH217762   2.571   1.851   3.925
 5919TIP3    H117763   2.494   1.860   3.982
 5919TIP3    H217764   2.536   1.814   3.844
 5920TIP3   OH217765   1.617   5.725   3.128
 5920TIP3    H117766   1.625   5.630   3.114
 5920TIP3    H217767   1.706   5.758   3.117
 5921TIP3   OH217768   5.862   3.724   1.063
 5921TIP3    H117769   5.896   3.644   1.104
 5921TIP3    H217770   5.861   3.704   0.969
 5922TIP3   OH217771   3.731   2.628   2.415
 5922TIP3    H117772   3.806   2.672   2.377
 5922TIP3    H217773   3.689   2.694   2.470
 5923TIP3   OH217774   2.324   2.975   4.982
 5923TIP3    H117775   2.257   3.043   4.979
 5923TIP3    H217776   2.381   2.999   5.055
 5924TIP3   OH217777   0.824   1.956   2.731
 5924TIP3    H117778   0.847   1.966   2.638
 5924TIP3    H217779   0.808   2.045   2.762
 5925TIP3   OH217780   5.055   1.727   1.057
 5925TIP3    H117781   5.107   1.654   1.091
 5925TIP3    H217782   5.116   1.776   1.001
 5926TIP3   OH217783   1.574   2.297   3.414
 5926TIP3    H117784   1.563   2.390   3.432
 5926TIP3    H217785   1.560   2.289   3.319
 5927TIP3   OH217786   3.403   0.747   4.842
 5927TIP3    H117787   3.350   0.686   4.792
 5927TIP3    H217788   3.470   0.693   4.884
 5928TIP3   OH217789   1.530   0.322   1.976
 5928TIP3    H117790   1.596   0.337   1.908
 5928TIP3    H217791   1.537   0.398   2.033
 5929TIP3   OH217792   5.423   1.484   3.219
 5929TIP3    H117793   5.434   1.568   3.176
 5929TIP3    H217794   5.384   1.505   3.304
 5930TIP3   OH217795   3.282   4.381   1.192
 5930TIP3    H117796   3.247   4.397   1.280
 5930TIP3    H217797   3.372   4.352   1.208
 5931TIP3   OH217798   2.619   4.702   4.754
 5931TIP3    H117799   2.587   4.748   4.676
 5931TIP3    H217800   2.575   4.745   4.827
 5932TIP3   OH217801   2.539   3.657   0.496
 5932TIP3    H117802   2.474   3.590   0.514
 5932TIP3    H217803   2.496   3.719   0.437
 5933TIP3   OH217804   1.664   2.976   2.059
 5933TIP3    H117805   1.663   2.977   2.155
 5933TIP3    H217806   1.605   2.904   2.035
 5934TIP3   OH217807   4.819   4.588   3.392
 5934TIP3    H117808   4.898   4.610   3.343
 5934TIP3    H217809   4.775   4.672   3.405
 5935TIP3   OH217810   1.444   0.515   4.738
 5935TIP3    H117811   1.416   0.449   4.801
 5935TIP3    H217812   1.392   0.593   4.759
 5936TIP3   OH217813   4.446   0.958   0.923
 5936TIP3    H117814   4.430   1.053   0.924
 5936TIP3    H217815   4.362   0.919   0.948
 5937TIP3   OH217816   0.316   0.289   2.484
 5937TIP3    H117817   0.248   0.343   2.444
 5937TIP3    H217818   0.396   0.313   2.438
 5938TIP3   OH217819   0.597   2.001   0.178
 5938TIP3    H117820   0.612   2.042   0.263
 5938TIP3    H217821   0.600   2.074   0.116
 5939TIP3   OH217822   0.167   0.490   0.688
 5939TIP3    H117823   0.093   0.512   0.744
 5939TIP3    H217824   0.149   0.401   0.658
 5940TIP3   OH217825   5.332   2.165   1.012
 5940TIP3    H117826   5.284   2.102   0.958
 5940TIP3    H217827   5.301   2.250   0.983
 5941TIP3   OH217828   0.979   5.775   4.872
 5941TIP3    H117829   0.943   5.688   4.887
 5941TIP3    H217830   0.955   5.795   4.781
 5942TIP3   OH217831   1.646   0.016   0.294
 5942TIP3    H117832   1.630  -0.023   0.208
 5942TIP3    H217833   1.741   0.020   0.301
 5943TIP3   OH217834   4.289   4.669   0.836
 5943TIP3    H117835   4.270   4.720   0.757
 5943TIP3    H217836   4.285   4.578   0.807
 5944TIP3   OH217837   2.471   3.878   2.103
 5944TIP3    H117838   2.566   3.890   2.103
 5944TIP3    H217839   2.449   3.868   2.010
 5945TIP3   OH217840   5.727   2.564   2.944
 5945TIP3    H117841   5.631   2.559   2.937
 5945TIP3    H217842   5.755   2.475   2.964
 5946TIP3   OH217843   3.409   5.265   0.604
 5946TIP3    H117844   3.424   5.262   0.698
 5946TIP3    H217845   3.314   5.257   0.594
 5947TIP3   OH217846   3.671   2.305   2.522
 5947TIP3    H117847   3.621   2.382   2.548
 5947TIP3    H217848   3.648   2.291   2.429
 5948TIP3   OH217849   5.482   5.813   4.745
 5948TIP3    H117850   5.548   5.756   4.785
 5948TIP3    H217851   5.433   5.756   4.686
 5949TIP3   OH217852   3.388   0.498   0.166
 5949TIP3    H117853   3.439   0.489   0.247
 5949TIP3    H217854   3.454   0.510   0.098
 5950TIP3   OH217855   2.253   2.160   4.865
 5950TIP3    H117856   2.219   2.249   4.864
 5950TIP3    H217857   2.288   2.147   4.953
 5951TIP3   OH217858   2.456   3.865   3.524
 5951TIP3    H117859   2.385   3.893   3.582
 5951TIP3    H217860   2.534   3.909   3.558
 5952TIP3   OH217861   2.104   2.553   2.066
 5952TIP3    H117862   2.169   2.613   2.104
 5952TIP3    H217863   2.068   2.506   2.141
 5953TIP3   OH217864   4.780   3.913   0.429
 5953TIP3    H117865   4.809   3.842   0.371
 5953TIP3    H217866   4.734   3.974   0.371
 5954TIP3   OH217867   5.308   3.287   4.103
 5954TIP3    H117868   5.396   3.273   4.067
 5954TIP3    H217869   5.293   3.211   4.159
 5955TIP3   OH217870   2.353   3.241   4.071
 5955TIP3    H117871   2.384   3.220   4.159
 5955TIP3    H217872   2.261   3.216   4.071
 5956TIP3   OH217873   3.840   2.819   2.053
 5956TIP3    H117874   3.933   2.809   2.031
 5956TIP3    H217875   3.839   2.822   2.149
 5957TIP3   OH217876   4.964   4.297   1.864
 5957TIP3    H117877   4.916   4.258   1.791
 5957TIP3    H217878   4.902   4.359   1.903
 5958TIP3   OH217879   4.205   1.150   3.339
 5958TIP3    H117880   4.132   1.141   3.278
 5958TIP3    H217881   4.278   1.106   3.295
 5959TIP3   OH217882   3.666   1.117   2.589
 5959TIP3    H117883   3.660   1.116   2.685
 5959TIP3    H217884   3.682   1.025   2.566
 5960TIP3   OH217885   3.810   3.694   4.633
 5960TIP3    H117886   3.836   3.756   4.701
 5960TIP3    H217887   3.718   3.675   4.652
 5961TIP3   OH217888   0.106   1.083   1.046
 5961TIP3    H117889   0.047   1.142   1.094
 5961TIP3    H217890   0.166   1.050   1.113
 5962TIP3   OH217891   3.995   1.054   4.523
 5962TIP3    H117892   4.083   1.087   4.543
 5962TIP3    H217893   4.000   1.026   4.432
 5963TIP3   OH217894   0.687   4.420   3.294
 5963TIP3    H117895   0.752   4.361   3.255
 5963TIP3    H217896   0.717   4.508   3.271
 5964TIP3   OH217897   5.061   2.042   1.752
 5964TIP3    H117898   5.045   2.059   1.659
 5964TIP3    H217899   4.991   1.983   1.778
 5965TIP3   OH217900   4.487   5.706   0.238
 5965TIP3    H117901   4.418   5.645   0.210
 5965TIP3    H217902   4.520   5.669   0.320
 5966TIP3   OH217903   5.303   1.049   5.092
 5966TIP3    H117904   5.250   0.970   5.083
 5966TIP3    H217905   5.299   1.091   5.006
 5967TIP3   OH217906   5.382   3.384   1.248
 5967TIP3    H117907   5.459   3.337   1.214
 5967TIP3    H217908   5.410   3.476   1.251
 5968TIP3   OH217909   3.034   3.188   3.846
 5968TIP3    H117910   3.076   3.120   3.899
 5968TIP3    H217911   2.940   3.171   3.854
 5969TIP3   OH217912   2.149   1.715   0.553
 5969TIP3    H117913   2.067   1.694   0.597
 5969TIP3    H217914   2.129   1.791   0.499
 5970TIP3   OH217915   3.645   5.680   2.217
 5970TIP3    H117916   3.620   5.691   2.309
 5970TIP3    H217917   3.604   5.755   2.172
 5971TIP3   OH217918   2.548   5.752   4.940
 5971TIP3    H117919   2.607   5.827   4.945
 5971TIP3    H217920   2.498   5.766   4.860
 5972TIP3   OH217921   0.932   2.626   0.569
 5972TIP3    H117922   0.998   2.559   0.591
 5972TIP3    H217923   0.979   2.709   0.574
 5973TIP3   OH217924   5.279   1.075   3.912
 5973TIP3    H117925   5.261   1.166   3.936
 5973TIP3    H217926   5.368   1.076   3.879
 5974TIP3   OH217927   0.354   5.133   3.357
 5974TIP3    H117928   0.349   5.038   3.343
 5974TIP3    H217929   0.275   5.167   3.317
 5975TIP3   OH217930   2.322   2.143   3.498
 5975TIP3    H117931   2.231   2.142   3.472
 5975TIP3    H217932   2.322   2.115   3.590
 5976TIP3   OH217933   5.599   2.208   4.154
 5976TIP3    H117934   5.609   2.114   4.136
 5976TIP3    H217935   5.688   2.238   4.170
 5977TIP3   OH217936   0.522   5.662   1.931
 5977TIP3    H117937   0.430   5.665   1.905
 5977TIP3    H217938   0.564   5.730   1.877
 5978TIP3   OH217939   5.225   4.306   1.145
 5978TIP3    H117940   5.193   4.366   1.078
 5978TIP3    H217941   5.186   4.221   1.122
 5979TIP3   OH217942   4.415   1.731   4.492
 5979TIP3    H117943   4.467   1.699   4.567
 5979TIP3    H217944   4.479   1.774   4.436
 5980TIP3   OH217945   5.932   1.338   0.432
 5980TIP3    H117946   5.998   1.271   0.417
 5980TIP3    H217947   5.902   1.322   0.522
 5981TIP3   OH217948   4.988   2.185   4.990
 5981TIP3    H117949   4.994   2.270   5.033
 5981TIP3    H217950   5.027   2.199   4.903
 5982TIP3   OH217951   4.390   0.610   4.188
 5982TIP3    H117952   4.305   0.568   4.202
 5982TIP3    H217953   4.451   0.562   4.244
 5983TIP3   OH217954   4.407   3.121   3.925
 5983TIP3    H117955   4.450   3.157   4.003
 5983TIP3    H217956   4.328   3.079   3.959
 5984TIP3   OH217957   0.127   1.480   0.138
 5984TIP3    H117958   0.092   1.470   0.227
 5984TIP3    H217959   0.167   1.395   0.118
 5985TIP3   OH217960   5.286   3.280   2.301
 5985TIP3    H117961   5.334   3.200   2.322
 5985TIP3    H217962   5.326   3.312   2.221
 5986TIP3   OH217963   5.172   3.150   4.961
 5986TIP3    H117964   5.150   3.157   5.054
 5986TIP3    H217965   5.170   3.240   4.929
 5987TIP3   OH217966   2.950   2.158   1.163
 5987TIP3    H117967   3.035   2.115   1.160
 5987TIP3    H217968   2.913   2.133   1.247
 5988TIP3   OH217969   1.407   3.463   2.511
 5988TIP3    H117970   1.432   3.524   2.441
 5988TIP3    H217971   1.483   3.458   2.568
 5989TIP3   OH217972   0.730   0.588   0.313
 5989TIP3    H117973   0.754   0.513   0.258
 5989TIP3    H217974   0.735   0.554   0.402
 5990TIP3   OH217975   4.556   4.418   0.997
 5990TIP3    H117976   4.539   4.384   1.085
 5990TIP3    H217977   4.597   4.503   1.011
 5991TIP3   OH217978   5.870   5.189   1.856
 5991TIP3    H117979   5.935   5.140   1.908
 5991TIP3    H217980   5.787   5.171   1.900
 5992TIP3   OH217981   1.507   1.871   3.026
 5992TIP3    H117982   1.564   1.943   3.001
 5992TIP3    H217983   1.543   1.838   3.108
 5993TIP3   OH217984   3.550   3.828   2.911
 5993TIP3    H117985   3.645   3.829   2.904
 5993TIP3    H217986   3.525   3.738   2.887
 5994TIP3   OH217987   1.967   3.759   3.433
 5994TIP3    H117988   1.887   3.811   3.425
 5994TIP3    H217989   1.938   3.669   3.425
 5995TIP3   OH217990   5.560   0.628   1.391
 5995TIP3    H117991   5.494   0.618   1.459
 5995TIP3    H217992   5.520   0.684   1.325
 5996TIP3   OH217993   1.924   1.882   3.689
 5996TIP3    H117994   1.914   1.845   3.601
 5996TIP3    H217995   1.974   1.963   3.675
 5997TIP3   OH217996   5.482   3.002   4.759
 5997TIP3    H117997   5.518   3.008   4.848
 5997TIP3    H217998   5.557   3.022   4.703
 5998TIP3   OH217999   2.963   2.563   0.365
 5998TIP3    H118000   2.989   2.644   0.409
 5998TIP3    H218001   2.867   2.562   0.373
 5999TIP3   OH218002   2.210   3.714   3.329
 5999TIP3    H118003   2.136   3.757   3.371
 5999TIP3    H218004   2.190   3.620   3.335
 6000TIP3   OH218005   1.527   3.983   0.169
 6000TIP3    H118006   1.531   3.909   0.230
 6000TIP3    H218007   1.464   4.043   0.208
 6001TIP3   OH218008   4.040   2.058   2.271
 6001TIP3    H118009   4.127   2.019   2.260
 6001TIP3    H218010   4.049   2.115   2.347
 6002TIP3   OH218011   3.966   2.512   0.859
 6002TIP3    H118012   3.990   2.577   0.924
 6002TIP3    H218013   4.046   2.463   0.842
 6003TIP3   OH218014   4.648   2.054   3.132
 6003TIP3    H118015   4.637   1.967   3.168
 6003TIP3    H218016   4.718   2.044   3.067
 6004TIP3   OH218017   2.671   2.614   0.361
 6004TIP3    H118018   2.602   2.582   0.420
 6004TIP3    H218019   2.634   2.693   0.322
 6005TIP3   OH218020   1.202   3.624   3.112
 6005TIP3    H118021   1.191   3.616   3.017
 6005TIP3    H218022   1.184   3.536   3.145
 6006TIP3   OH218023   3.880   3.898   2.394
 6006TIP3    H118024   3.832   3.816   2.410
 6006TIP3    H218025   3.965   3.869   2.358
 6007TIP3   OH218026   0.133   5.640   1.510
 6007TIP3    H118027   0.154   5.734   1.510
 6007TIP3    H218028   0.056   5.633   1.567
 6008TIP3   OH218029   1.432   2.837   2.209
 6008TIP3    H118030   1.461   2.928   2.220
 6008TIP3    H218031   1.483   2.788   2.273
 6009TIP3   OH218032   5.476   0.458   3.809
 6009TIP3    H118033   5.527   0.427   3.734
 6009TIP3    H218034   5.522   0.537   3.838
 6010TIP3   OH218035   4.008   1.628   1.582
 6010TIP3    H118036   3.981   1.612   1.491
 6010TIP3    H218037   4.055   1.548   1.607
 6011TIP3   OH218038   2.013   2.663   4.427
 6011TIP3    H118039   1.943   2.610   4.466
 6011TIP3    H218040   1.967   2.726   4.371
 6012TIP3   OH218041   4.355   3.481   1.789
 6012TIP3    H118042   4.302   3.550   1.748
 6012TIP3    H218043   4.438   3.483   1.742
 6013TIP3   OH218044   0.267   4.186   0.501
 6013TIP3    H118045   0.299   4.263   0.454
 6013TIP3    H218046   0.240   4.219   0.586
 6014TIP3   OH218047   4.738   3.937   5.141
 6014TIP3    H118048   4.780   3.884   5.074
 6014TIP3    H218049   4.751   4.028   5.113
 6015TIP3   OH218050   4.436   3.677   2.966
 6015TIP3    H118051   4.372   3.626   2.915
 6015TIP3    H218052   4.421   3.768   2.938
 6016TIP3   OH218053   0.998   4.564   3.171
 6016TIP3    H118054   0.982   4.646   3.124
 6016TIP3    H218055   1.000   4.589   3.263
 6017TIP3   OH218056   4.729   3.554   4.107
 6017TIP3    H118057   4.758   3.645   4.094
 6017TIP3    H218058   4.635   3.557   4.089
 6018TIP3   OH218059   4.570   4.316   3.778
 6018TIP3    H118060   4.590   4.227   3.751
 6018TIP3    H218061   4.513   4.306   3.855
 6019TIP3   OH218062   5.820   4.432   4.238
 6019TIP3    H118063   5.872   4.358   4.205
 6019TIP3    H218064   5.735   4.422   4.195
 6020TIP3   OH218065   3.890   5.735   4.113
 6020TIP3    H118066   3.817   5.687   4.075
 6020TIP3    H218067   3.883   5.720   4.207
 6021TIP3   OH218068   5.762   1.082   5.094
 6021TIP3    H118069   5.755   1.047   5.183
 6021TIP3    H218070   5.813   1.162   5.104
 6022TIP3   OH218071   6.261   4.962   0.022
 6022TIP3    H118072   6.250   4.869   0.043
 6022TIP3    H218073   6.203   4.977  -0.053
 6023TIP3   OH218074   1.027   3.667   1.512
 6023TIP3    H118075   0.958   3.614   1.472
 6023TIP3    H218076   0.982   3.748   1.537
 6024TIP3   OH218077   0.940   3.600   4.427
 6024TIP3    H118078   0.887   3.659   4.374
 6024TIP3    H218079   0.908   3.512   4.405
 6025TIP3   OH218080   4.140   3.435   0.996
 6025TIP3    H118081   4.108   3.388   1.073
 6025TIP3    H218082   4.060   3.464   0.951
 6026TIP3   OH218083   4.894   0.163   3.340
 6026TIP3    H118084   4.929   0.141   3.427
 6026TIP3    H218085   4.832   0.234   3.357
 6027TIP3   OH218086   2.155   2.414   3.548
 6027TIP3    H118087   2.193   2.433   3.462
 6027TIP3    H218088   2.061   2.421   3.536
 6028TIP3   OH218089   1.724   4.443   4.410
 6028TIP3    H118090   1.731   4.537   4.426
 6028TIP3    H218091   1.781   4.427   4.335
 6029TIP3   OH218092   3.862   4.336   2.975
 6029TIP3    H118093   3.813   4.378   3.045
 6029TIP3    H218094   3.818   4.252   2.961
 6030TIP3   OH218095   5.748   5.243   3.317
 6030TIP3    H118096   5.771   5.325   3.362
 6030TIP3    H218097   5.716   5.271   3.231
 6031TIP3   OH218098   5.449   2.292   0.701
 6031TIP3    H118099   5.368   2.314   0.746
 6031TIP3    H218100   5.420   2.249   0.620
 6032TIP3   OH218101   0.871   3.048   3.546
 6032TIP3    H118102   0.925   3.049   3.625
 6032TIP3    H218103   0.793   2.998   3.571
 6033TIP3   OH218104   0.680   0.327   3.165
 6033TIP3    H118105   0.708   0.414   3.137
 6033TIP3    H218106   0.759   0.286   3.199
 6034TIP3   OH218107   5.773   2.850   4.206
 6034TIP3    H118108   5.732   2.848   4.120
 6034TIP3    H218109   5.867   2.850   4.188
 6035TIP3   OH218110   4.420   3.685   0.556
 6035TIP3    H118111   4.429   3.678   0.652
 6035TIP3    H218112   4.510   3.680   0.524
 6036TIP3   OH218113   2.896   4.770   4.970
 6036TIP3    H118114   2.862   4.839   5.027
 6036TIP3    H218115   2.983   4.750   5.005
 6037TIP3   OH218116   2.182   5.165   1.760
 6037TIP3    H118117   2.112   5.201   1.813
 6037TIP3    H218118   2.262   5.184   1.809
 6038TIP3   OH218119   4.213   0.320   3.670
 6038TIP3    H118120   4.187   0.291   3.582
 6038TIP3    H218121   4.282   0.259   3.696
 6039TIP3   OH218122   2.371   0.752   1.248
 6039TIP3    H118123   2.457   0.793   1.244
 6039TIP3    H218124   2.358   0.714   1.162
 6040TIP3   OH218125   5.477   2.358   3.020
 6040TIP3    H118126   5.520   2.273   3.023
 6040TIP3    H218127   5.384   2.338   3.014
 6041TIP3   OH218128   4.905   4.420   2.219
 6041TIP3    H118129   4.938   4.375   2.297
 6041TIP3    H218130   4.861   4.352   2.169
 6042TIP3   OH218131   2.404   2.456   4.926
 6042TIP3    H118132   2.463   2.417   4.990
 6042TIP3    H218133   2.387   2.544   4.959
 6043TIP3   OH218134   0.698   0.655   1.106
 6043TIP3    H118135   0.784   0.648   1.146
 6043TIP3    H218136   0.636   0.640   1.178
 6044TIP3   OH218137   4.814   0.771   4.229
 6044TIP3    H118138   4.851   0.840   4.284
 6044TIP3    H218139   4.735   0.811   4.191
 6045TIP3   OH218140   3.349   5.807   0.301
 6045TIP3    H118141   3.394   5.741   0.353
 6045TIP3    H218142   3.358   5.776   0.211
 6046TIP3   OH218143   3.123   3.250   5.116
 6046TIP3    H118144   3.075   3.204   5.185
 6046TIP3    H218145   3.181   3.310   5.163
 6047TIP3   OH218146   0.247   2.849   3.035
 6047TIP3    H118147   0.262   2.775   3.094
 6047TIP3    H218148   0.155   2.872   3.047
 6048TIP3   OH218149   5.370   1.373   1.061
 6048TIP3    H118150   5.430   1.372   1.135
 6048TIP3    H218151   5.288   1.338   1.096
 6049TIP3   OH218152   0.762   1.230   5.131
 6049TIP3    H118153   0.776   1.141   5.099
 6049TIP3    H218154   0.669   1.232   5.155
 6050TIP3   OH218155   5.206   2.637   2.267
 6050TIP3    H118156   5.283   2.635   2.324
 6050TIP3    H218157   5.137   2.676   2.320
 6051TIP3   OH218158   0.518   5.577   3.199
 6051TIP3    H118159   0.482   5.662   3.175
 6051TIP3    H218160   0.447   5.534   3.248
 6052TIP3   OH218161   2.610   5.655   3.943
 6052TIP3    H118162   2.562   5.609   3.874
 6052TIP3    H218163   2.578   5.745   3.937
 6053TIP3   OH218164   3.743   1.631   0.448
 6053TIP3    H118165   3.818   1.606   0.394
 6053TIP3    H218166   3.749   1.574   0.525
 6054TIP3   OH218167   3.279   4.952   0.327
 6054TIP3    H118168   3.325   4.877   0.291
 6054TIP3    H218169   3.263   5.009   0.252
 6055TIP3   OH218170   3.414   5.758   1.888
 6055TIP3    H118171   3.325   5.790   1.877
 6055TIP3    H218172   3.448   5.807   1.962
 6056TIP3   OH218173   5.618   3.883   3.709
 6056TIP3    H118174   5.681   3.867   3.640
 6056TIP3    H218175   5.542   3.921   3.664
 6057TIP3   OH218176   3.375   2.615   4.562
 6057TIP3    H118177   3.351   2.683   4.499
 6057TIP3    H218178   3.452   2.574   4.523
 6058TIP3   OH218179   1.510   0.432   2.400
 6058TIP3    H118180   1.528   0.476   2.483
 6058TIP3    H218181   1.424   0.392   2.413
 6059TIP3   OH218182   1.589   3.136   3.877
 6059TIP3    H118183   1.513   3.079   3.883
 6059TIP3    H218184   1.564   3.216   3.922
 6060TIP3   OH218185   0.862   3.290   1.654
 6060TIP3    H118186   0.950   3.292   1.691
 6060TIP3    H218187   0.875   3.299   1.560
 6061TIP3   OH218188   4.129   4.043   2.086
 6061TIP3    H118189   4.177   3.977   2.035
 6061TIP3    H218190   4.145   4.020   2.177
 6062TIP3   OH218191   2.423   5.350   0.090
 6062TIP3    H118192   2.370   5.329   0.167
 6062TIP3    H218193   2.360   5.375   0.023
 6063TIP3   OH218194   1.527   3.745   0.957
 6063TIP3    H118195   1.612   3.783   0.937
 6063TIP3    H218196   1.522   3.668   0.900
 6064TIP3   OH218197   6.062   2.222   0.276
 6064TIP3    H118198   6.115   2.302   0.272
 6064TIP3    H218199   6.035   2.216   0.367
 6065TIP3   OH218200   5.059   1.611   4.036
 6065TIP3    H118201   5.099   1.620   3.950
 6065TIP3    H218202   4.965   1.617   4.019
 6066TIP3   OH218203   4.292   5.882   4.910
 6066TIP3    H118204   4.206   5.916   4.934
 6066TIP3    H218205   4.334   5.955   4.863
 6067TIP3   OH218206   5.338   2.544   4.709
 6067TIP3    H118207   5.397   2.544   4.784
 6067TIP3    H218208   5.393   2.571   4.635
 6068TIP3   OH218209   2.549   3.588   1.514
 6068TIP3    H118210   2.485   3.563   1.447
 6068TIP3    H218211   2.500   3.586   1.596
 6069TIP3   OH218212   5.396   1.733   2.667
 6069TIP3    H118213   5.397   1.669   2.737
 6069TIP3    H218214   5.319   1.711   2.614
 6070TIP3   OH218215   1.353   1.180   4.199
 6070TIP3    H118216   1.362   1.132   4.118
 6070TIP3    H218217   1.258   1.181   4.216
 6071TIP3   OH218218   4.567   1.056   4.436
 6071TIP3    H118219   4.588   0.970   4.399
 6071TIP3    H218220   4.626   1.117   4.392
 6072TIP3   OH218221   3.839   0.268   4.149
 6072TIP3    H118222   3.887   0.308   4.076
 6072TIP3    H218223   3.757   0.316   4.153
 6073TIP3   OH218224   4.423   1.094   3.181
 6073TIP3    H118225   4.408   1.104   3.087
 6073TIP3    H218226   4.514   1.068   3.188
 6074TIP3   OH218227   1.792   3.486   0.781
 6074TIP3    H118228   1.816   3.550   0.847
 6074TIP3    H218229   1.804   3.401   0.823
 6075TIP3   OH218230   0.947   5.180   0.244
 6075TIP3    H118231   0.906   5.093   0.248
 6075TIP3    H218232   0.971   5.190   0.152
 6076TIP3   OH218233   2.683   1.992   4.121
 6076TIP3    H118234   2.631   1.935   4.064
 6076TIP3    H218235   2.672   2.080   4.085
 6077TIP3   OH218236   0.085   3.801   1.757
 6077TIP3    H118237   0.060   3.716   1.793
 6077TIP3    H218238   0.181   3.797   1.752
 6078TIP3   OH218239   3.232   4.875   4.725
 6078TIP3    H118240   3.311   4.832   4.759
 6078TIP3    H218241   3.165   4.855   4.790
 6079TIP3   OH218242   0.840   2.800   5.050
 6079TIP3    H118243   0.836   2.894   5.069
 6079TIP3    H218244   0.776   2.788   4.980
 6080TIP3   OH218245   4.272   4.392   0.941
 6080TIP3    H118246   4.366   4.413   0.940
 6080TIP3    H218247   4.257   4.344   0.859
 6081TIP3   OH218248   4.758   5.108   1.541
 6081TIP3    H118249   4.831   5.171   1.546
 6081TIP3    H218250   4.680   5.161   1.552
 6082TIP3   OH218251   4.906   1.491   2.167
 6082TIP3    H118252   4.976   1.546   2.134
 6082TIP3    H218253   4.830   1.549   2.172
 6083TIP3   OH218254   3.047   3.840   3.286
 6083TIP3    H118255   3.112   3.897   3.327
 6083TIP3    H218256   3.044   3.763   3.342
 6084TIP3   OH218257   1.224   1.768   3.299
 6084TIP3    H118258   1.226   1.853   3.344
 6084TIP3    H218259   1.172   1.784   3.221
 6085TIP3   OH218260   1.030   3.911   1.342
 6085TIP3    H118261   0.947   3.877   1.375
 6085TIP3    H218262   1.009   3.948   1.256
 6086TIP3   OH218263   1.034   3.829   1.861
 6086TIP3    H118264   1.084   3.767   1.913
 6086TIP3    H218265   1.072   3.915   1.883
 6087TIP3   OH218266   5.997   2.226   3.220
 6087TIP3    H118267   5.988   2.153   3.281
 6087TIP3    H218268   6.084   2.214   3.182
 6088TIP3   OH218269   1.187   5.811   0.596
 6088TIP3    H118270   1.140   5.807   0.513
 6088TIP3    H218271   1.180   5.903   0.623
 6089TIP3   OH218272   0.909   3.605   2.712
 6089TIP3    H118273   0.899   3.685   2.764
 6089TIP3    H218274   0.985   3.561   2.749
 6090TIP3   OH218275   1.614   5.813   3.667
 6090TIP3    H118276   1.534   5.865   3.667
 6090TIP3    H218277   1.678   5.866   3.716
 6091TIP3   OH218278   6.317   0.173   0.883
 6091TIP3    H118279   6.249   0.230   0.846
 6091TIP3    H218280   6.299   0.173   0.977
 6092TIP3   OH218281   6.026   1.209   3.962
 6092TIP3    H118282   6.027   1.223   3.867
 6092TIP3    H218283   5.933   1.202   3.983
 6093TIP3   OH218284   1.481   3.634   2.317
 6093TIP3    H118285   1.506   3.603   2.230
 6093TIP3    H218286   1.556   3.684   2.347
 6094TIP3   OH218287   4.214   1.101   0.440
 6094TIP3    H118288   4.286   1.058   0.393
 6094TIP3    H218289   4.252   1.127   0.524
 6095TIP3   OH218290   5.670   5.607   2.076
 6095TIP3    H118291   5.667   5.703   2.075
 6095TIP3    H218292   5.586   5.580   2.039
 6096TIP3   OH218293   0.623   2.167   2.215
 6096TIP3    H118294   0.652   2.083   2.249
 6096TIP3    H218295   0.641   2.163   2.121
 6097TIP3   OH218296   2.461   3.606   1.107
 6097TIP3    H118297   2.465   3.664   1.031
 6097TIP3    H218298   2.443   3.664   1.181
 6098TIP3   OH218299   5.121   5.170   1.341
 6098TIP3    H118300   5.215   5.177   1.327
 6098TIP3    H218301   5.083   5.197   1.257
 6099TIP3   OH218302   6.142   2.359   4.522
 6099TIP3    H118303   6.055   2.393   4.543
 6099TIP3    H218304   6.131   2.312   4.440
 6100TIP3   OH218305   3.839   4.384   5.074
 6100TIP3    H118306   3.825   4.450   5.006
 6100TIP3    H218307   3.751   4.369   5.111
 6101TIP3   OH218308   5.237   1.952   2.156
 6101TIP3    H118309   5.156   1.996   2.181
 6101TIP3    H218310   5.278   2.011   2.093
 6102TIP3   OH218311   1.108   3.247   4.327
 6102TIP3    H118312   1.059   3.283   4.254
 6102TIP3    H218313   1.119   3.154   4.305
 6103TIP3   OH218314   3.482   5.089   4.781
 6103TIP3    H118315   3.538   5.154   4.824
 6103TIP3    H218316   3.526   5.071   4.698
 6104TIP3   OH218317   2.832   0.649   3.826
 6104TIP3    H118318   2.876   0.722   3.870
 6104TIP3    H218319   2.895   0.619   3.761
 6105TIP3   OH218320   0.583   3.140   0.692
 6105TIP3    H118321   0.640   3.128   0.617
 6105TIP3    H218322   0.575   3.235   0.703
 6106TIP3   OH218323   5.055   3.643   4.428
 6106TIP3    H118324   5.046   3.592   4.509
 6106TIP3    H218325   4.989   3.605   4.369
 6107TIP3   OH218326   4.404   0.283   5.108
 6107TIP3    H118327   4.500   0.286   5.098
 6107TIP3    H218328   4.372   0.274   5.018
 6108TIP3   OH218329   1.474   1.501   3.729
 6108TIP3    H118330   1.485   1.544   3.814
 6108TIP3    H218331   1.553   1.525   3.681
 6109TIP3   OH218332   3.855   1.885   4.366
 6109TIP3    H118333   3.823   1.870   4.277
 6109TIP3    H218334   3.777   1.876   4.421
 6110TIP3   OH218335   3.784   4.017   3.130
 6110TIP3    H118336   3.730   4.089   3.161
 6110TIP3    H218337   3.779   4.023   3.034
 6111TIP3   OH218338   4.724   4.723   1.858
 6111TIP3    H118339   4.687   4.810   1.840
 6111TIP3    H218340   4.742   4.687   1.771
 6112TIP3   OH218341   0.201   1.590   0.846
 6112TIP3    H118342   0.246   1.623   0.923
 6112TIP3    H218343   0.112   1.623   0.853
 6113TIP3   OH218344   4.905   1.653   3.656
 6113TIP3    H118345   4.834   1.615   3.603
 6113TIP3    H218346   4.923   1.737   3.615
 6114TIP3   OH218347   5.269   5.255   0.791
 6114TIP3    H118348   5.247   5.347   0.804
 6114TIP3    H218349   5.347   5.257   0.735
 6115TIP3   OH218350   4.158   4.966   5.073
 6115TIP3    H118351   4.213   4.890   5.093
 6115TIP3    H218352   4.215   5.041   5.087
 6116TIP3   OH218353   5.837   1.894   4.702
 6116TIP3    H118354   5.757   1.915   4.749
 6116TIP3    H218355   5.808   1.867   4.615
 6117TIP3   OH218356   3.743   3.922   0.880
 6117TIP3    H118357   3.761   3.900   0.971
 6117TIP3    H218358   3.766   3.843   0.831
 6118TIP3   OH218359   3.561   1.878   2.959
 6118TIP3    H118360   3.565   1.936   3.036
 6118TIP3    H218361   3.646   1.889   2.917
 6119TIP3   OH218362   1.192   5.719   2.462
 6119TIP3    H118363   1.219   5.735   2.372
 6119TIP3    H218364   1.171   5.626   2.465
 6120TIP3   OH218365   1.296   4.232   1.709
 6120TIP3    H118366   1.237   4.287   1.658
 6120TIP3    H218367   1.303   4.151   1.658
 6121TIP3   OH218368   6.327   1.955   2.777
 6121TIP3    H118369   6.310   1.969   2.870
 6121TIP3    H218370   6.421   1.937   2.773
 6122TIP3   OH218371   1.214   1.606   0.728
 6122TIP3    H118372   1.234   1.571   0.641
 6122TIP3    H218373   1.120   1.624   0.725
 6123TIP3   OH218374   0.177   4.895   0.573
 6123TIP3    H118375   0.271   4.886   0.560
 6123TIP3    H218376   0.169   4.943   0.656
 6124TIP3   OH218377   6.331   2.664   0.061
 6124TIP3    H118378   6.261   2.624   0.010
 6124TIP3    H218379   6.407   2.661   0.004
 6125TIP3   OH218380   6.121   2.947   4.426
 6125TIP3    H118381   6.117   3.018   4.490
 6125TIP3    H218382   6.115   2.867   4.478
 6126TIP3   OH218383   3.931   5.351   5.096
 6126TIP3    H118384   3.965   5.438   5.074
 6126TIP3    H218385   3.836   5.364   5.099
 6127TIP3   OH218386   4.498   5.552   4.546
 6127TIP3    H118387   4.559   5.479   4.556
 6127TIP3    H218388   4.435   5.523   4.480
 6128TIP3   OH218389   6.251   4.291   3.054
 6128TIP3    H118390   6.168   4.246   3.071
 6128TIP3    H218391   6.254   4.361   3.119
 6129TIP3   OH218392   4.508   4.032   4.775
 6129TIP3    H118393   4.427   4.031   4.724
 6129TIP3    H218394   4.565   3.970   4.730
 6130TIP3   OH218395   5.080   2.220   4.334
 6130TIP3    H118396   5.166   2.191   4.362
 6130TIP3    H218397   5.095   2.261   4.248
 6131TIP3   OH218398   1.069  -0.021   0.492
 6131TIP3    H118399   1.068   0.049   0.557
 6131TIP3    H218400   1.159  -0.054   0.494
 6132TIP3   OH218401   5.381   3.446   2.505
 6132TIP3    H118402   5.444   3.400   2.560
 6132TIP3    H218403   5.378   3.396   2.424
 6133TIP3   OH218404   2.723   1.627   3.603
 6133TIP3    H118405   2.817   1.636   3.587
 6133TIP3    H218406   2.682   1.671   3.528
 6134TIP3   OH218407   4.329   2.178   4.828
 6134TIP3    H118408   4.322   2.171   4.733
 6134TIP3    H218409   4.256   2.235   4.853
 6135TIP3   OH218410   1.355   4.623   2.492
 6135TIP3    H118411   1.260   4.634   2.499
 6135TIP3    H218412   1.375   4.547   2.546
 6136TIP3   OH218413   4.269   0.349   2.335
 6136TIP3    H118414   4.195   0.402   2.364
 6136TIP3    H218415   4.253   0.336   2.241
 6137TIP3   OH218416   3.744   2.189   1.756
 6137TIP3    H118417   3.681   2.190   1.828
 6137TIP3    H218418   3.690   2.187   1.677
 6138TIP3   OH218419   2.020   2.436   0.416
 6138TIP3    H118420   2.116   2.434   0.415
 6138TIP3    H218421   1.995   2.415   0.326
 6139TIP3   OH218422   4.134   4.434   2.632
 6139TIP3    H118423   4.204   4.376   2.662
 6139TIP3    H218424   4.090   4.385   2.562
 6140TIP3   OH218425   0.119   2.010   0.007
 6140TIP3    H118426   0.133   1.924   0.046
 6140TIP3    H218427   0.038   2.000  -0.044
 6141TIP3   OH218428   1.073   5.470   2.383
 6141TIP3    H118429   1.069   5.378   2.357
 6141TIP3    H218430   0.983   5.491   2.409
 6142TIP3   OH218431   0.236   1.709   1.849
 6142TIP3    H118432   0.223   1.802   1.869
 6142TIP3    H218433   0.204   1.699   1.760
 6143TIP3   OH218434   5.567   2.145   0.895
 6143TIP3    H118435   5.549   2.188   0.812
 6143TIP3    H218436   5.490   2.162   0.949
 6144TIP3   OH218437   2.149   3.013   1.580
 6144TIP3    H118438   2.092   3.002   1.503
 6144TIP3    H218439   2.192   2.928   1.590
 6145TIP3   OH218440   4.889   4.200   3.498
 6145TIP3    H118441   4.821   4.263   3.474
 6145TIP3    H218442   4.922   4.167   3.415
 6146TIP3   OH218443   1.794   3.619   4.677
 6146TIP3    H118444   1.729   3.688   4.665
 6146TIP3    H218445   1.878   3.664   4.667
 6147TIP3   OH218446   5.743   4.871   4.617
 6147TIP3    H118447   5.821   4.823   4.591
 6147TIP3    H218448   5.673   4.805   4.617
 6148TIP3   OH218449   3.599   0.476   0.340
 6148TIP3    H118450   3.681   0.515   0.308
 6148TIP3    H218451   3.593   0.505   0.430
 6149TIP3   OH218452   4.250   3.456   3.520
 6149TIP3    H118453   4.267   3.469   3.613
 6149TIP3    H218454   4.330   3.419   3.485
 6150TIP3   OH218455   2.348   2.634   3.990
 6150TIP3    H118456   2.387   2.563   3.939
 6150TIP3    H218457   2.381   2.714   3.948
 6151TIP3   OH218458   4.293   5.283   3.818
 6151TIP3    H118459   4.318   5.272   3.910
 6151TIP3    H218460   4.233   5.357   3.818
 6152TIP3   OH218461   3.869   3.963   2.669
 6152TIP3    H118462   3.865   3.868   2.680
 6152TIP3    H218463   3.870   3.976   2.574
 6153TIP3   OH218464   6.323   3.518   4.766
 6153TIP3    H118465   6.408   3.493   4.802
 6153TIP3    H218466   6.293   3.589   4.823
 6154TIP3   OH218467   2.229   1.375   0.741
 6154TIP3    H118468   2.286   1.443   0.775
 6154TIP3    H218469   2.244   1.300   0.799
 6155TIP3   OH218470   4.652   4.935   1.005
 6155TIP3    H118471   4.616   4.917   0.918
 6155TIP3    H218472   4.721   4.999   0.990
 6156TIP3   OH218473   3.146   2.053   4.864
 6156TIP3    H118474   3.073   2.073   4.922
 6156TIP3    H218475   3.176   2.138   4.832
 6157TIP3   OH218476   3.404   5.248   4.188
 6157TIP3    H118477   3.394   5.163   4.230
 6157TIP3    H218478   3.347   5.244   4.111
 6158TIP3   OH218479   2.531   4.864   3.664
 6158TIP3    H118480   2.626   4.875   3.655
 6158TIP3    H218481   2.495   4.952   3.657
 6159TIP3   OH218482   3.202   5.991   0.460
 6159TIP3    H118483   3.273   6.016   0.519
 6159TIP3    H218484   3.244   5.933   0.396
 6160TIP3   OH218485   5.459   5.228   4.825
 6160TIP3    H118486   5.481   5.165   4.757
 6160TIP3    H218487   5.533   5.226   4.886
 6161TIP3   OH218488   0.458   5.862   4.568
 6161TIP3    H118489   0.374   5.869   4.612
 6161TIP3    H218490   0.505   5.941   4.592
 6162TIP3   OH218491   4.326   4.825   2.653
 6162TIP3    H118492   4.237   4.809   2.686
 6162TIP3    H218493   4.314   4.889   2.583
 6163TIP3   OH218494   2.978   3.644   1.459
 6163TIP3    H118495   2.925   3.704   1.511
 6163TIP3    H218496   3.009   3.578   1.522
 6164TIP3   OH218497   4.925   2.895   1.005
 6164TIP3    H118498   5.008   2.862   0.970
 6164TIP3    H218499   4.927   2.870   1.097
 6165TIP3   OH218500   4.308   3.964   4.183
 6165TIP3    H118501   4.258   3.887   4.209
 6165TIP3    H218502   4.272   4.035   4.237
 6166TIP3   OH218503   4.094   3.710   2.950
 6166TIP3    H118504   4.151   3.638   2.974
 6166TIP3    H218505   4.082   3.760   3.031
 6167TIP3   OH218506   4.705   2.061   1.444
 6167TIP3    H118507   4.661   2.048   1.359
 6167TIP3    H218508   4.657   2.133   1.485
 6168TIP3   OH218509   1.692   2.875   3.726
 6168TIP3    H118510   1.666   2.849   3.815
 6168TIP3    H218511   1.610   2.903   3.684
 6169TIP3   OH218512   1.686   4.401   2.287
 6169TIP3    H118513   1.711   4.436   2.372
 6169TIP3    H218514   1.691   4.476   2.227
 6170TIP3   OH218515   3.849   5.759   1.807
 6170TIP3    H118516   3.807   5.683   1.846
 6170TIP3    H218517   3.777   5.818   1.783
 6171TIP3   OH218518   1.318   3.401   1.867
 6171TIP3    H118519   1.379   3.341   1.911
 6171TIP3    H218520   1.238   3.349   1.856
 6172TIP3   OH218521   1.154   4.535   3.678
 6172TIP3    H118522   1.072   4.495   3.707
 6172TIP3    H218523   1.204   4.462   3.641
 6173TIP3   OH218524   1.106   4.671   2.527
 6173TIP3    H118525   1.098   4.710   2.614
 6173TIP3    H218526   1.019   4.636   2.508
 6174TIP3   OH218527   2.278   2.536   1.428
 6174TIP3    H118528   2.307   2.533   1.519
 6174TIP3    H218529   2.217   2.462   1.420
 6175TIP3   OH218530   1.766   5.983   2.820
 6175TIP3    H118531   1.727   5.896   2.833
 6175TIP3    H218532   1.849   5.965   2.776
 6176TIP3   OH218533   1.734   3.769   5.055
 6176TIP3    H118534   1.716   3.862   5.070
 6176TIP3    H218535   1.658   3.738   5.006
 6177TIP3   OH218536   1.659   1.813   3.261
 6177TIP3    H118537   1.751   1.794   3.280
 6177TIP3    H218538   1.610   1.759   3.323
 6178TIP3   OH218539   0.155   4.774   1.158
 6178TIP3    H118540   0.098   4.718   1.211
 6178TIP3    H218541   0.134   4.863   1.187
 6179TIP3   OH218542   3.680   1.949   3.835
 6179TIP3    H118543   3.677   1.978   3.743
 6179TIP3    H218544   3.669   1.854   3.831
 6180TIP3   OH218545   1.513   3.428   1.401
 6180TIP3    H118546   1.590   3.393   1.355
 6180TIP3    H218547   1.503   3.370   1.476
 6181TIP3   OH218548   0.327   5.868   3.272
 6181TIP3    H118549   0.361   5.917   3.196
 6181TIP3    H218550   0.397   5.872   3.337
 6182TIP3   OH218551   0.800   4.197   3.108
 6182TIP3    H118552   0.874   4.252   3.082
 6182TIP3    H218553   0.730   4.222   3.048
 6183TIP3   OH218554   0.255   3.218   4.332
 6183TIP3    H118555   0.183   3.232   4.270
 6183TIP3    H218556   0.223   3.254   4.414
 6184TIP3   OH218557   5.499   2.622   1.250
 6184TIP3    H118558   5.502   2.596   1.157
 6184TIP3    H218559   5.590   2.647   1.269
 6185TIP3   OH218560   6.241   3.236   3.864
 6185TIP3    H118561   6.212   3.279   3.783
 6185TIP3    H218562   6.161   3.229   3.917
 6186TIP3   OH218563   6.191   3.823   4.676
 6186TIP3    H118564   6.278   3.797   4.646
 6186TIP3    H218565   6.132   3.757   4.638
 6187TIP3   OH218566   3.114   1.015   4.213
 6187TIP3    H118567   3.196   1.049   4.179
 6187TIP3    H218568   3.119   0.921   4.199
 6188TIP3   OH218569   5.438   3.287   3.406
 6188TIP3    H118570   5.344   3.303   3.406
 6188TIP3    H218571   5.452   3.224   3.477
 6189TIP3   OH218572   4.703   5.871   2.821
 6189TIP3    H118573   4.644   5.921   2.765
 6189TIP3    H218574   4.707   5.920   2.902
 6190TIP3   OH218575   0.489   0.347   3.374
 6190TIP3    H118576   0.442   0.264   3.364
 6190TIP3    H218577   0.513   0.372   3.285
 6191TIP3   OH218578   6.237   2.466   2.942
 6191TIP3    H118579   6.224   2.490   3.034
 6191TIP3    H218580   6.191   2.534   2.893
 6192TIP3   OH218581   4.412   3.041   1.267
 6192TIP3    H118582   4.415   3.121   1.321
 6192TIP3    H218583   4.435   2.971   1.328
 6193TIP3   OH218584   2.293   3.002   2.076
 6193TIP3    H118585   2.284   3.036   1.986
 6193TIP3    H218586   2.264   3.074   2.131
 6194TIP3   OH218587   2.577   2.994   0.304
 6194TIP3    H118588   2.548   3.056   0.371
 6194TIP3    H218589   2.670   3.013   0.291
 6195TIP3   OH218590   3.456   3.306   2.437
 6195TIP3    H118591   3.454   3.217   2.471
 6195TIP3    H218592   3.435   3.297   2.344
 6196TIP3   OH218593   3.707   2.989   2.665
 6196TIP3    H118594   3.662   2.997   2.749
 6196TIP3    H218595   3.783   2.934   2.683
 6197TIP3   OH218596   1.969   4.126   0.727
 6197TIP3    H118597   1.889   4.149   0.774
 6197TIP3    H218598   1.939   4.088   0.645
 6198TIP3   OH218599   5.895   2.236   4.864
 6198TIP3    H118600   5.963   2.301   4.882
 6198TIP3    H218601   5.936   2.174   4.804
 6199TIP3   OH218602   1.135   2.103   1.793
 6199TIP3    H118603   1.067   2.095   1.860
 6199TIP3    H218604   1.165   2.013   1.779
 6200TIP3   OH218605   0.126   0.235   0.027
 6200TIP3    H118606   0.053   0.233   0.090
 6200TIP3    H218607   0.182   0.162   0.054
 6201TIP3   OH218608   5.787   3.337   4.375
 6201TIP3    H118609   5.749   3.280   4.308
 6201TIP3    H218610   5.878   3.347   4.349
 6202TIP3   OH218611   4.615   1.238   1.153
 6202TIP3    H118612   4.537   1.292   1.150
 6202TIP3    H218613   4.635   1.230   1.247
 6203TIP3   OH218614   2.409   1.812   4.961
 6203TIP3    H118615   2.415   1.897   4.917
 6203TIP3    H218616   2.487   1.809   5.016
 6204TIP3   OH218617   2.479   3.343   5.021
 6204TIP3    H118618   2.543   3.330   4.951
 6204TIP3    H218619   2.495   3.270   5.081
 6205TIP3   OH218620   5.576   5.225   0.692
 6205TIP3    H118621   5.576   5.295   0.757
 6205TIP3    H218622   5.638   5.161   0.725
 6206TIP3   OH218623   5.288   2.767   2.806
 6206TIP3    H118624   5.361   2.827   2.824
 6206TIP3    H218625   5.330   2.684   2.786
 6207TIP3   OH218626   5.120   4.463   1.339
 6207TIP3    H118627   5.146   4.543   1.293
 6207TIP3    H218628   5.164   4.393   1.290
 6208TIP3   OH218629   5.964   3.913   2.953
 6208TIP3    H118630   5.902   3.949   3.017
 6208TIP3    H218631   5.933   3.823   2.939
 6209TIP3   OH218632   4.740   3.658   1.098
 6209TIP3    H118633   4.672   3.690   1.157
 6209TIP3    H218634   4.745   3.725   1.030
 6210TIP3   OH218635   0.356   3.623   4.526
 6210TIP3    H118636   0.429   3.677   4.555
 6210TIP3    H218637   0.354   3.549   4.587
 6211TIP3   OH218638   3.243   0.717   2.607
 6211TIP3    H118639   3.300   0.648   2.574
 6211TIP3    H218640   3.301   0.792   2.618
 6212TIP3   OH218641   5.126   5.691   1.171
 6212TIP3    H118642   5.140   5.762   1.233
 6212TIP3    H218643   5.114   5.734   1.086
 6213TIP3   OH218644   2.185   3.851   1.583
 6213TIP3    H118645   2.174   3.939   1.618
 6213TIP3    H218646   2.106   3.804   1.610
 6214TIP3   OH218647   2.984   4.979   1.020
 6214TIP3    H118648   2.989   4.900   1.074
 6214TIP3    H218649   3.075   5.009   1.014
 6215TIP3   OH218650   3.729   4.254   4.768
 6215TIP3    H118651   3.808   4.237   4.718
 6215TIP3    H218652   3.694   4.336   4.732
 6216TIP3   OH218653   2.295   2.608   2.477
 6216TIP3    H118654   2.359   2.678   2.475
 6216TIP3    H218655   2.216   2.647   2.439
 6217TIP3   OH218656   5.682   2.160   3.210
 6217TIP3    H118657   5.731   2.197   3.284
 6217TIP3    H218658   5.635   2.085   3.246
 6218TIP3   OH218659   3.501   2.507   2.561
 6218TIP3    H118660   3.426   2.476   2.611
 6218TIP3    H218661   3.523   2.592   2.600
 6219TIP3   OH218662   4.990   3.751   0.281
 6219TIP3    H118663   5.041   3.824   0.245
 6219TIP3    H218664   5.022   3.742   0.371
 6220TIP3   OH218665   5.094   0.246   0.156
 6220TIP3    H118666   5.155   0.271   0.226
 6220TIP3    H218667   5.020   0.206   0.203
 6221TIP3   OH218668   4.745   2.939   4.332
 6221TIP3    H118669   4.710   2.853   4.305
 6221TIP3    H218670   4.838   2.922   4.349
 6222TIP3   OH218671   5.160   3.292   3.398
 6222TIP3    H118672   5.100   3.363   3.421
 6222TIP3    H218673   5.103   3.221   3.368
 6223TIP3   OH218674   0.601   0.020   2.036
 6223TIP3    H118675   0.662   0.080   1.993
 6223TIP3    H218676   0.569  -0.035   1.965
 6224TIP3   OH218677   4.770   5.933   0.869
 6224TIP3    H118678   4.762   5.851   0.918
 6224TIP3    H218679   4.688   5.979   0.886
 6225TIP3   OH218680   0.628   3.609   1.590
 6225TIP3    H118681   0.674   3.581   1.511
 6225TIP3    H218682   0.698   3.621   1.655
 6226TIP3   OH218683   5.617   5.214   2.006
 6226TIP3    H118684   5.542   5.273   2.017
 6226TIP3    H218685   5.627   5.172   2.092
 6227TIP3   OH218686   3.874   5.658   4.407
 6227TIP3    H118687   3.962   5.680   4.438
 6227TIP3    H218688   3.816   5.688   4.477
 6228TIP3   OH218689   2.697   5.523   3.294
 6228TIP3    H118690   2.696   5.619   3.299
 6228TIP3    H218691   2.679   5.494   3.383
 6229TIP3   OH218692   1.365   2.234   3.802
 6229TIP3    H118693   1.407   2.190   3.728
 6229TIP3    H218694   1.391   2.182   3.878
 6230TIP3   OH218695   2.101   1.238   3.571
 6230TIP3    H118696   2.107   1.142   3.567
 6230TIP3    H218697   2.190   1.268   3.551
 6231TIP3   OH218698   5.856   2.856   0.577
 6231TIP3    H118699   5.871   2.825   0.488
 6231TIP3    H218700   5.834   2.778   0.627
 6232TIP3   OH218701   4.010   1.744   3.223
 6232TIP3    H118702   3.975   1.655   3.215
 6232TIP3    H218703   3.938   1.801   3.198
 6233TIP3   OH218704   3.126   1.396   3.448
 6233TIP3    H118705   3.194   1.370   3.386
 6233TIP3    H218706   3.166   1.464   3.502
 6234TIP3   OH218707   1.277   4.803   3.621
 6234TIP3    H118708   1.236   4.791   3.535
 6234TIP3    H218709   1.262   4.719   3.666
 6235TIP3   OH218710   2.243   3.494   2.151
 6235TIP3    H118711   2.197   3.496   2.236
 6235TIP3    H218712   2.183   3.447   2.093
 6236TIP3   OH218713   1.109   3.132   2.591
 6236TIP3    H118714   1.079   3.049   2.629
 6236TIP3    H218715   1.193   3.148   2.633
 6237TIP3   OH218716   6.306   5.227   2.259
 6237TIP3    H118717   6.278   5.301   2.313
 6237TIP3    H218718   6.401   5.227   2.266
 6238TIP3   OH218719   5.906   0.258   1.217
 6238TIP3    H118720   5.828   0.314   1.224
 6238TIP3    H218721   5.962   0.304   1.155
 6239TIP3   OH218722   3.347   4.607   1.728
 6239TIP3    H118723   3.312   4.533   1.679
 6239TIP3    H218724   3.307   4.684   1.688
 6240TIP3   OH218725   2.871   1.584   4.339
 6240TIP3    H118726   2.889   1.676   4.358
 6240TIP3    H218727   2.782   1.584   4.303
 6241TIP3   OH218728   5.936   1.872   2.439
 6241TIP3    H118729   5.947   1.967   2.440
 6241TIP3    H218730   5.998   1.840   2.505
 6242TIP3   OH218731   3.460   3.986   1.544
 6242TIP3    H118732   3.414   3.908   1.514
 6242TIP3    H218733   3.461   3.978   1.639
 6243TIP3   OH218734   1.413   3.448   4.563
 6243TIP3    H118735   1.500   3.427   4.530
 6243TIP3    H218736   1.356   3.441   4.487
 6244TIP3   OH218737   2.826   1.807   2.561
 6244TIP3    H118738   2.841   1.773   2.649
 6244TIP3    H218739   2.883   1.755   2.505
 6245TIP3   OH218740   0.456   4.398   4.425
 6245TIP3    H118741   0.496   4.320   4.464
 6245TIP3    H218742   0.513   4.420   4.351
 6246TIP3   OH218743   3.986   2.921   4.442
 6246TIP3    H118744   4.070   2.911   4.487
 6246TIP3    H218745   3.970   3.016   4.443
 6247TIP3   OH218746   5.776   1.391   3.530
 6247TIP3    H118747   5.731   1.350   3.455
 6247TIP3    H218748   5.836   1.454   3.490
 6248TIP3   OH218749   2.108   5.271   2.663
 6248TIP3    H118750   2.153   5.347   2.700
 6248TIP3    H218751   2.025   5.266   2.710
 6249TIP3   OH218752   1.855   4.050   1.623
 6249TIP3    H118753   1.833   3.972   1.574
 6249TIP3    H218754   1.777   4.068   1.677
 6250TIP3   OH218755   3.238   0.097   2.482
 6250TIP3    H118756   3.188   0.179   2.480
 6250TIP3    H218757   3.327   0.122   2.460
 6251TIP3   OH218758   5.122   0.584   5.083
 6251TIP3    H118759   5.203   0.539   5.061
 6251TIP3    H218760   5.062   0.561   5.011
 6252TIP3   OH218761   0.319   4.418   0.841
 6252TIP3    H118762   0.291   4.502   0.803
 6252TIP3    H218763   0.406   4.403   0.804
 6253TIP3   OH218764   4.333   4.013   3.594
 6253TIP3    H118765   4.364   3.931   3.632
 6253TIP3    H218766   4.401   4.039   3.532
 6254TIP3   OH218767   4.175   0.453   4.210
 6254TIP3    H118768   4.163   0.410   4.124
 6254TIP3    H218769   4.164   0.382   4.273
 6255TIP3   OH218770   5.407   5.469   4.681
 6255TIP3    H118771   5.499   5.497   4.682
 6255TIP3    H218772   5.401   5.404   4.752
 6256TIP3   OH218773   2.370   5.067   3.402
 6256TIP3    H118774   2.364   5.106   3.315
 6256TIP3    H218775   2.298   5.004   3.406
 6257TIP3   OH218776   4.253   0.186   0.659
 6257TIP3    H118777   4.240   0.247   0.731
 6257TIP3    H218778   4.260   0.241   0.581
 6258TIP3   OH218779   5.101   2.240   3.573
 6258TIP3    H118780   5.029   2.192   3.615
 6258TIP3    H218781   5.170   2.242   3.640
 6259TIP3   OH218782   2.470   2.795   2.460
 6259TIP3    H118783   2.529   2.836   2.524
 6259TIP3    H218784   2.479   2.847   2.381
 6260TIP3   OH218785   0.280   5.158   0.913
 6260TIP3    H118786   0.333   5.082   0.888
 6260TIP3    H218787   0.221   5.171   0.839
 6261TIP3   OH218788   5.952   5.575   3.113
 6261TIP3    H118789   5.875   5.562   3.168
 6261TIP3    H218790   5.961   5.493   3.065
 6262TIP3   OH218791   2.965   0.731   4.251
 6262TIP3    H118792   3.058   0.711   4.241
 6262TIP3    H218793   2.959   0.778   4.334
 6263TIP3   OH218794   4.514   3.897   2.106
 6263TIP3    H118795   4.496   3.810   2.070
 6263TIP3    H218796   4.506   3.885   2.201
 6264TIP3   OH218797   0.563   4.585   2.227
 6264TIP3    H118798   0.559   4.553   2.317
 6264TIP3    H218799   0.627   4.529   2.184
 6265TIP3   OH218800   3.837   4.683   0.960
 6265TIP3    H118801   3.834   4.711   1.052
 6265TIP3    H218802   3.904   4.615   0.957
 6266TIP3   OH218803   2.666   2.469   2.004
 6266TIP3    H118804   2.730   2.400   1.990
 6266TIP3    H218805   2.620   2.476   1.920
 6267TIP3   OH218806   0.571   4.905   4.864
 6267TIP3    H118807   0.476   4.891   4.866
 6267TIP3    H218808   0.582   4.990   4.821
 6268TIP3   OH218809   3.373   4.622   3.548
 6268TIP3    H118810   3.313   4.682   3.504
 6268TIP3    H218811   3.451   4.674   3.566
 6269TIP3   OH218812   2.923   3.105   4.183
 6269TIP3    H118813   2.935   3.059   4.099
 6269TIP3    H218814   2.990   3.174   4.182
 6270TIP3   OH218815   4.974   0.414   4.640
 6270TIP3    H118816   4.934   0.327   4.649
 6270TIP3    H218817   5.049   0.399   4.583
 6271TIP3   OH218818   0.636   0.573   2.032
 6271TIP3    H118819   0.697   0.572   2.106
 6271TIP3    H218820   0.576   0.645   2.052
 6272TIP3   OH218821   5.138   1.041   1.599
 6272TIP3    H118822   5.172   0.962   1.640
 6272TIP3    H218823   5.058   1.061   1.649
 6273TIP3   OH218824   1.967   0.975   3.417
 6273TIP3    H118825   1.951   0.903   3.357
 6273TIP3    H218826   2.052   0.955   3.457
 6274TIP3   OH218827   2.607   3.391   0.694
 6274TIP3    H118828   2.655   3.473   0.691
 6274TIP3    H218829   2.546   3.401   0.767
 6275TIP3   OH218830   1.687   0.879   3.977
 6275TIP3    H118831   1.648   0.823   3.909
 6275TIP3    H218832   1.752   0.823   4.020
 6276TIP3   OH218833   1.881   3.022   1.900
 6276TIP3    H118834   1.865   3.068   1.818
 6276TIP3    H218835   1.795   3.016   1.941
 6277TIP3   OH218836   2.632   3.414   3.588
 6277TIP3    H118837   2.648   3.345   3.653
 6277TIP3    H218838   2.580   3.480   3.635
 6278TIP3   OH218839   3.944   0.996   2.192
 6278TIP3    H118840   3.928   1.090   2.202
 6278TIP3    H218841   4.004   0.975   2.263
 6279TIP3   OH218842   3.148   1.877   3.150
 6279TIP3    H118843   3.088   1.803   3.140
 6279TIP3    H218844   3.186   1.889   3.063
 6280TIP3   OH218845   5.623   1.901   0.776
 6280TIP3    H118846   5.716   1.902   0.755
 6280TIP3    H218847   5.610   1.979   0.831
 6281TIP3   OH218848   0.246   5.197   2.301
 6281TIP3    H118849   0.242   5.211   2.395
 6281TIP3    H218850   0.273   5.105   2.291
 6282TIP3   OH218851   1.573   0.519   0.691
 6282TIP3    H118852   1.667   0.502   0.687
 6282TIP3    H218853   1.533   0.434   0.673
 6283TIP3   OH218854   2.285   0.395   3.730
 6283TIP3    H118855   2.323   0.347   3.657
 6283TIP3    H218856   2.349   0.386   3.801
 6284TIP3   OH218857   3.713   2.109   2.303
 6284TIP3    H118858   3.706   2.065   2.219
 6284TIP3    H218859   3.772   2.183   2.288
 6285TIP3   OH218860   3.440   4.103   4.642
 6285TIP3    H118861   3.397   4.117   4.558
 6285TIP3    H218862   3.522   4.152   4.635
 6286TIP3   OH218863   3.518   2.493   2.034
 6286TIP3    H118864   3.520   2.400   2.059
 6286TIP3    H218865   3.504   2.540   2.116
 6287TIP3   OH218866   5.273   1.251   4.874
 6287TIP3    H118867   5.320   1.282   4.951
 6287TIP3    H218868   5.205   1.316   4.859
 6288TIP3   OH218869   5.440   4.632   0.036
 6288TIP3    H118870   5.427   4.690   0.111
 6288TIP3    H218871   5.530   4.649   0.008
 6289TIP3   OH218872   0.014   1.427   3.043
 6289TIP3    H118873   0.060   1.465   2.968
 6289TIP3    H218874   0.055   1.342   3.056
 6290TIP3   OH218875   0.503   1.373   0.764
 6290TIP3    H118876   0.475   1.387   0.674
 6290TIP3    H218877   0.422   1.373   0.815
 6291TIP3   OH218878   0.344   0.141   0.366
 6291TIP3    H118879   0.385   0.216   0.323
 6291TIP3    H218880   0.283   0.106   0.300
 6292TIP3   OH218881   5.355   3.538   0.309
 6292TIP3    H118882   5.417   3.589   0.361
 6292TIP3    H218883   5.407   3.504   0.236
 6293TIP3   OH218884   1.272   0.733   3.397
 6293TIP3    H118885   1.205   0.670   3.422
 6293TIP3    H218886   1.349   0.680   3.378
 6294TIP3   OH218887   4.333   2.714   3.759
 6294TIP3    H118888   4.346   2.631   3.805
 6294TIP3    H218889   4.393   2.775   3.802
 6295TIP3   OH218890   2.716   2.149   5.106
 6295TIP3    H118891   2.690   2.099   5.028
 6295TIP3    H218892   2.802   2.186   5.082
 6296TIP3   OH218893   3.777   2.991   0.095
 6296TIP3    H118894   3.820   2.945   0.023
 6296TIP3    H218895   3.764   2.925   0.163
 6297TIP3   OH218896   4.938   0.873   3.938
 6297TIP3    H118897   4.846   0.852   3.952
 6297TIP3    H218898   4.944   0.968   3.951
 6298TIP3   OH218899   3.955   3.630   2.721
 6298TIP3    H118900   4.008   3.600   2.647
 6298TIP3    H218901   4.017   3.634   2.794
 6299TIP3   OH218902   2.317   5.222   4.480
 6299TIP3    H118903   2.251   5.202   4.546
 6299TIP3    H218904   2.292   5.167   4.405
 6300TIP3   OH218905   5.931   2.906   2.698
 6300TIP3    H118906   6.000   2.953   2.745
 6300TIP3    H218907   5.977   2.863   2.626
 6301TIP3   OH218908   3.950   5.592   0.910
 6301TIP3    H118909   3.954   5.497   0.922
 6301TIP3    H218910   4.009   5.609   0.837
 6302TIP3   OH218911   2.668   2.431   4.213
 6302TIP3    H118912   2.666   2.426   4.117
 6302TIP3    H218913   2.593   2.379   4.241
 6303TIP3   OH218914   3.950   2.591   2.853
 6303TIP3    H118915   3.907   2.588   2.938
 6303TIP3    H218916   4.044   2.590   2.873
 6304TIP3   OH218917   5.939   1.619   3.369
 6304TIP3    H118918   5.863   1.642   3.423
 6304TIP3    H218919   5.901   1.582   3.289
 6305TIP3   OH218920   2.364   3.076   2.741
 6305TIP3    H118921   2.395   3.134   2.672
 6305TIP3    H218922   2.378   3.125   2.822
 6306TIP3   OH218923   1.172   4.465   0.736
 6306TIP3    H118924   1.187   4.409   0.661
 6306TIP3    H218925   1.101   4.523   0.710
 6307TIP3   OH218926   5.261   0.518   0.804
 6307TIP3    H118927   5.281   0.545   0.715
 6307TIP3    H218928   5.288   0.592   0.858
 6308TIP3   OH218929   4.974   2.834   4.461
 6308TIP3    H118930   4.922   2.809   4.537
 6308TIP3    H218931   5.063   2.846   4.494
 6309TIP3   OH218932   3.580   3.684   4.975
 6309TIP3    H118933   3.550   3.594   4.990
 6309TIP3    H218934   3.513   3.739   5.015
 6310TIP3   OH218935   1.809   1.143   3.242
 6310TIP3    H118936   1.865   1.089   3.298
 6310TIP3    H218937   1.772   1.209   3.302
 6311TIP3   OH218938   4.995   0.389   2.828
 6311TIP3    H118939   5.088   0.409   2.820
 6311TIP3    H218940   4.991   0.318   2.892
 6312TIP3   OH218941   6.202   0.520   3.503
 6312TIP3    H118942   6.195   0.521   3.407
 6312TIP3    H218943   6.248   0.601   3.525
 6313TIP3   OH218944   4.718   0.332   2.305
 6313TIP3    H118945   4.733   0.243   2.273
 6313TIP3    H218946   4.778   0.342   2.379
 6314TIP3   OH218947   5.321   5.298   0.479
 6314TIP3    H118948   5.274   5.223   0.515
 6314TIP3    H218949   5.257   5.369   0.479
 6315TIP3   OH218950   1.870   2.527   2.672
 6315TIP3    H118951   1.795   2.528   2.732
 6315TIP3    H218952   1.908   2.440   2.683
 6316TIP3   OH218953   0.388   4.018   2.314
 6316TIP3    H118954   0.446   4.090   2.290
 6316TIP3    H218955   0.436   3.970   2.382
 6317TIP3   OH218956   2.400   4.210   4.724
 6317TIP3    H118957   2.456   4.168   4.789
 6317TIP3    H218958   2.458   4.227   4.650
 6318TIP3   OH218959   6.097   4.733   1.551
 6318TIP3    H118960   6.100   4.822   1.517
 6318TIP3    H218961   6.102   4.742   1.646
 6319TIP3   OH218962   3.159   0.406   0.213
 6319TIP3    H118963   3.182   0.347   0.285
 6319TIP3    H218964   3.241   0.450   0.191
 6320TIP3   OH218965   3.127   1.398   1.915
 6320TIP3    H118966   3.067   1.471   1.928
 6320TIP3    H218967   3.187   1.428   1.846
 6321TIP3   OH218968   4.929   4.533   0.851
 6321TIP3    H118969   4.850   4.545   0.904
 6321TIP3    H218970   4.992   4.595   0.888
 6322TIP3   OH218971   1.738   5.547   1.434
 6322TIP3    H118972   1.689   5.606   1.491
 6322TIP3    H218973   1.816   5.597   1.410
 6323TIP3   OH218974   4.605   0.156   4.296
 6323TIP3    H118975   4.647   0.072   4.314
 6323TIP3    H218976   4.598   0.198   4.382
 6324TIP3   OH218977   1.170   4.289   4.930
 6324TIP3    H118978   1.235   4.340   4.978
 6324TIP3    H218979   1.204   4.200   4.929
 6325TIP3   OH218980   4.449   0.049   0.936
 6325TIP3    H118981   4.536   0.031   0.970
 6325TIP3    H218982   4.463   0.068   0.843
 6326TIP3   OH218983   0.356   3.142   2.163
 6326TIP3    H118984   0.442   3.111   2.136
 6326TIP3    H218985   0.313   3.065   2.201
 6327TIP3   OH218986   3.761   2.267   0.890
 6327TIP3    H118987   3.807   2.351   0.884
 6327TIP3    H218988   3.789   2.230   0.973
 6328TIP3   OH218989   5.138   1.449   5.164
 6328TIP3    H118990   5.232   1.440   5.153
 6328TIP3    H218991   5.101   1.374   5.118
 6329TIP3   OH218992   0.898   0.173   2.627
 6329TIP3    H118993   0.886   0.228   2.705
 6329TIP3    H218994   0.871   0.086   2.654
 6330TIP3   OH218995   2.744   5.224   3.696
 6330TIP3    H118996   2.751   5.254   3.605
 6330TIP3    H218997   2.661   5.260   3.727
 6331TIP3   OH218998   6.128   2.439   4.837
 6331TIP3    H118999   6.208   2.402   4.800
 6331TIP3    H219000   6.099   2.503   4.773
 6332TIP3   OH219001   2.367   1.891   1.108
 6332TIP3    H119002   2.318   1.921   1.032
 6332TIP3    H219003   2.348   1.956   1.176
 6333TIP3   OH219004   4.199   3.160   1.771
 6333TIP3    H119005   4.242   3.172   1.687
 6333TIP3    H219006   4.179   3.066   1.775
 6334TIP3   OH219007   5.172   0.877   2.245
 6334TIP3    H119008   5.254   0.831   2.265
 6334TIP3    H219009   5.195   0.970   2.250
 6335TIP3   OH219010   4.545   4.107   2.413
 6335TIP3    H119011   4.639   4.092   2.406
 6335TIP3    H219012   4.531   4.194   2.375
 6336TIP3   OH219013   1.659   3.755   4.313
 6336TIP3    H119014   1.569   3.777   4.290
 6336TIP3    H219015   1.692   3.708   4.236
 6337TIP3   OH219016   1.780   5.949   1.423
 6337TIP3    H119017   1.836   5.893   1.369
 6337TIP3    H219018   1.771   5.902   1.505
 6338TIP3   OH219019   1.580   3.620   3.576
 6338TIP3    H119020   1.578   3.529   3.606
 6338TIP3    H219021   1.606   3.614   3.484
 6339TIP3   OH219022   2.437   3.257   4.651
 6339TIP3    H119023   2.356   3.278   4.698
 6339TIP3    H219024   2.449   3.163   4.666
 6340TIP3   OH219025   5.417   3.980   1.586
 6340TIP3    H119026   5.478   3.988   1.513
 6340TIP3    H219027   5.459   4.028   1.658
 6341TIP3   OH219028   5.390   4.764   2.907
 6341TIP3    H119029   5.394   4.669   2.906
 6341TIP3    H219030   5.411   4.788   2.997
 6342TIP3   OH219031   1.432   2.372   4.366
 6342TIP3    H119032   1.372   2.351   4.295
 6342TIP3    H219033   1.478   2.289   4.384
 6343TIP3   OH219034   1.678   3.379   5.015
 6343TIP3    H119035   1.686   3.333   5.099
 6343TIP3    H219036   1.584   3.381   4.998
 6344TIP3   OH219037   4.505   3.040   0.734
 6344TIP3    H119038   4.432   3.085   0.775
 6344TIP3    H219039   4.506   2.953   0.775
 6345TIP3   OH219040   0.304   5.615   5.145
 6345TIP3    H119041   0.379   5.586   5.196
 6345TIP3    H219042   0.330   5.699   5.109
 6346TIP3   OH219043   5.142   0.818   2.884
 6346TIP3    H119044   5.057   0.781   2.907
 6346TIP3    H219045   5.141   0.821   2.788
 6347TIP3   OH219046   4.398   3.958   0.108
 6347TIP3    H119047   4.317   3.907   0.108
 6347TIP3    H219048   4.394   4.012   0.029
 6348TIP3   OH219049   3.233   3.013   2.608
 6348TIP3    H119050   3.175   2.964   2.667
 6348TIP3    H219051   3.263   2.948   2.544
 6349TIP3   OH219052   5.314   3.614   4.470
 6349TIP3    H119053   5.219   3.617   4.464
 6349TIP3    H219054   5.343   3.695   4.427
 6350TIP3   OH219055   3.977   1.887   3.481
 6350TIP3    H119056   3.895   1.848   3.511
 6350TIP3    H219057   3.996   1.844   3.398
 6351TIP3   OH219058   1.864   1.235   2.948
 6351TIP3    H119059   1.924   1.309   2.937
 6351TIP3    H219060   1.847   1.232   3.042
 6352TIP3   OH219061   1.782   2.959   4.013
 6352TIP3    H119062   1.704   2.904   4.012
 6352TIP3    H219063   1.761   3.031   3.954
 6353TIP3   OH219064   1.532   2.821   1.478
 6353TIP3    H119065   1.534   2.917   1.474
 6353TIP3    H219066   1.517   2.794   1.387
 6354TIP3   OH219067   3.504   2.225   1.571
 6354TIP3    H119068   3.509   2.310   1.615
 6354TIP3    H219069   3.468   2.165   1.637
 6355TIP3   OH219070   4.906   4.277   4.004
 6355TIP3    H119071   4.818   4.240   4.008
 6355TIP3    H219072   4.961   4.205   3.971
 6356TIP3   OH219073   5.807   2.165   3.668
 6356TIP3    H119074   5.889   2.184   3.713
 6356TIP3    H219075   5.739   2.177   3.734
 6357TIP3   OH219076   0.214   3.374   2.076
 6357TIP3    H119077   0.252   3.288   2.094
 6357TIP3    H219078   0.225   3.423   2.158
 6358TIP3   OH219079   5.575   4.658   4.615
 6358TIP3    H119080   5.545   4.567   4.612
 6358TIP3    H219081   5.495   4.710   4.606
 6359TIP3   OH219082   0.280   4.557   0.532
 6359TIP3    H119083   0.217   4.548   0.604
 6359TIP3    H219084   0.236   4.614   0.469
 6360TIP3   OH219085   1.481   4.184   3.236
 6360TIP3    H119086   1.419   4.137   3.291
 6360TIP3    H219087   1.448   4.274   3.234
 6361TIP3   OH219088   1.671   3.705   2.986
 6361TIP3    H119089   1.761   3.694   3.017
 6361TIP3    H219090   1.625   3.629   3.020
 6362TIP3   OH219091   0.534   4.506   0.424
 6362TIP3    H119092   0.460   4.518   0.484
 6362TIP3    H219093   0.580   4.430   0.459
 6363TIP3   OH219094   2.737   4.759   3.928
 6363TIP3    H119095   2.816   4.762   3.876
 6363TIP3    H219096   2.666   4.773   3.866
 6364TIP3   OH219097   0.927   5.634   1.946
 6364TIP3    H119098   0.978   5.609   1.869
 6364TIP3    H219099   0.894   5.721   1.926
 6365TIP3   OH219100   1.185   0.012   2.257
 6365TIP3    H119101   1.162   0.050   2.172
 6365TIP3    H219102   1.276  -0.014   2.248
 6366TIP3   OH219103   6.212   0.209   2.166
 6366TIP3    H119104   6.248   0.120   2.171
 6366TIP3    H219105   6.166   0.212   2.082
 6367TIP3   OH219106   2.564   2.863   2.737
 6367TIP3    H119107   2.498   2.932   2.740
 6367TIP3    H219108   2.529   2.794   2.793
 6368TIP3   OH219109   4.707   2.905   1.933
 6368TIP3    H119110   4.728   2.930   1.842
 6368TIP3    H219111   4.636   2.965   1.958
 6369TIP3   OH219112   5.842   3.303   2.396
 6369TIP3    H119113   5.811   3.243   2.328
 6369TIP3    H219114   5.846   3.388   2.354
 6370TIP3   OH219115   5.902   1.321   1.778
 6370TIP3    H119116   5.880   1.275   1.697
 6370TIP3    H219117   5.859   1.406   1.770
 6371TIP3   OH219118   4.098   4.665   2.757
 6371TIP3    H119119   4.041   4.692   2.685
 6371TIP3    H219120   4.130   4.578   2.732
 6372TIP3   OH219121   2.410   4.909   2.475
 6372TIP3    H119122   2.485   4.924   2.533
 6372TIP3    H219123   2.359   4.989   2.480
 6373TIP3   OH219124   3.952   0.931   1.879
 6373TIP3    H119125   4.018   0.864   1.860
 6373TIP3    H219126   3.955   0.942   1.974
 6374TIP3   OH219127   1.550   4.104   4.045
 6374TIP3    H119128   1.632   4.126   4.001
 6374TIP3    H219129   1.528   4.016   4.013
 6375TIP3   OH219130   4.020   3.624   1.508
 6375TIP3    H119131   3.998   3.717   1.511
 6375TIP3    H219132   4.108   3.621   1.470
 6376TIP3   OH219133   1.230   0.306   3.437
 6376TIP3    H119134   1.280   0.235   3.477
 6376TIP3    H219135   1.291   0.349   3.378
 6377TIP3   OH219136   1.446   1.462   0.316
 6377TIP3    H119137   1.376   1.474   0.380
 6377TIP3    H219138   1.459   1.548   0.277
 6378TIP3   OH219139   4.940   0.262   3.089
 6378TIP3    H119140   4.917   0.214   3.168
 6378TIP3    H219141   4.970   0.347   3.121
 6379TIP3   OH219142   2.118   5.126   0.371
 6379TIP3    H119143   2.150   5.098   0.285
 6379TIP3    H219144   2.086   5.046   0.412
 6380TIP3   OH219145   3.483   3.715   3.584
 6380TIP3    H119146   3.498   3.802   3.546
 6380TIP3    H219147   3.567   3.692   3.624
 6381TIP3   OH219148   2.125   0.562   3.222
 6381TIP3    H119149   2.219   0.544   3.227
 6381TIP3    H219150   2.104   0.556   3.129
 6382TIP3   OH219151   1.222   1.487   0.468
 6382TIP3    H119152   1.168   1.414   0.497
 6382TIP3    H219153   1.168   1.533   0.403
 6383TIP3   OH219154   3.140   2.356   3.470
 6383TIP3    H119155   3.126   2.267   3.501
 6383TIP3    H219156   3.067   2.373   3.411
 6384TIP3   OH219157   5.246   1.889   4.803
 6384TIP3    H119158   5.154   1.866   4.794
 6384TIP3    H219159   5.261   1.955   4.736
 6385TIP3   OH219160   1.533   1.329   4.763
 6385TIP3    H119161   1.562   1.263   4.700
 6385TIP3    H219162   1.545   1.412   4.717
 6386TIP3   OH219163   5.487   0.044   3.267
 6386TIP3    H119164   5.534  -0.039   3.273
 6386TIP3    H219165   5.418   0.037   3.332
 6387TIP3   OH219166   2.287   3.704   0.254
 6387TIP3    H119167   2.349   3.773   0.275
 6387TIP3    H219168   2.202   3.738   0.282
 6388TIP3   OH219169   0.421   4.093   4.102
 6388TIP3    H119170   0.486   4.107   4.171
 6388TIP3    H219171   0.400   4.000   4.108
 6389TIP3   OH219172   0.400   3.085   2.606
 6389TIP3    H119173   0.319   3.081   2.658
 6389TIP3    H219174   0.381   3.030   2.530
 6390TIP3   OH219175   4.858   0.174   4.673
 6390TIP3    H119176   4.926   0.130   4.621
 6390TIP3    H219177   4.833   0.109   4.739
 6391TIP3   OH219178   0.811   3.379   3.685
 6391TIP3    H119179   0.718   3.362   3.700
 6391TIP3    H219180   0.828   3.460   3.733
 6392TIP3   OH219181   2.796   3.902   3.385
 6392TIP3    H119182   2.880   3.885   3.342
 6392TIP3    H219183   2.764   3.816   3.411
 6393TIP3   OH219184   0.953   5.332   3.059
 6393TIP3    H119185   0.885   5.390   3.095
 6393TIP3    H219186   0.979   5.277   3.133
 6394TIP3   OH219187   4.187   4.683  -0.010
 6394TIP3    H119188   4.189   4.591   0.017
 6394TIP3    H219189   4.114   4.721   0.039
 6395TIP3   OH219190   2.821   1.718   3.978
 6395TIP3    H119191   2.858   1.669   4.052
 6395TIP3    H219192   2.736   1.747   4.009
 6396TIP3   OH219193   6.070   3.983   4.472
 6396TIP3    H119194   6.095   3.892   4.460
 6396TIP3    H219195   6.066   3.995   4.567
 6397TIP3   OH219196   1.691   1.623   1.678
 6397TIP3    H119197   1.637   1.632   1.756
 6397TIP3    H219198   1.726   1.711   1.663
 6398TIP3   OH219199   5.372   1.810   2.320
 6398TIP3    H119200   5.338   1.866   2.250
 6398TIP3    H219201   5.445   1.859   2.357
 6399TIP3   OH219202   5.532   1.672   3.023
 6399TIP3    H119203   5.623   1.699   3.038
 6399TIP3    H219204   5.540   1.589   2.976
 6400TIP3   OH219205   5.175  -0.050   0.812
 6400TIP3    H119206   5.092  -0.007   0.829
 6400TIP3    H219207   5.217   0.004   0.744
 6401TIP3   OH219208   0.906   5.906   4.097
 6401TIP3    H119209   0.962   5.983   4.092
 6401TIP3    H219210   0.860   5.903   4.013
 6402TIP3   OH219211   5.642  -0.082   2.088
 6402TIP3    H119212   5.649  -0.039   2.173
 6402TIP3    H219213   5.654  -0.011   2.025
 6403TIP3   OH219214   2.968   5.711   3.443
 6403TIP3    H119215   3.046   5.756   3.411
 6403TIP3    H219216   3.002   5.641   3.499
 6404TIP3   OH219217   5.206   2.417   1.999
 6404TIP3    H119218   5.121   2.436   2.038
 6404TIP3    H219219   5.185   2.375   1.915
 6405TIP3   OH219220   5.206   0.814   3.911
 6405TIP3    H119221   5.236   0.904   3.895
 6405TIP3    H219222   5.116   0.825   3.943
 6406TIP3   OH219223   5.853   2.777   0.320
 6406TIP3    H119224   5.799   2.718   0.267
 6406TIP3    H219225   5.936   2.730   0.331
 6407TIP3   OH219226   3.935   4.751   0.053
 6407TIP3    H119227   3.863   4.805   0.085
 6407TIP3    H219228   3.905   4.717  -0.031
 6408TIP3   OH219229   0.644   0.255   1.492
 6408TIP3    H119230   0.604   0.342   1.499
 6408TIP3    H219231   0.620   0.225   1.404
 6409TIP3   OH219232   5.971   4.632   2.722
 6409TIP3    H119233   5.993   4.629   2.815
 6409TIP3    H219234   6.047   4.595   2.678
 6410TIP3   OH219235   1.490   5.448   1.973
 6410TIP3    H119236   1.398   5.422   1.985
 6410TIP3    H219237   1.537   5.366   1.964
 6411TIP3   OH219238   2.746   2.352   0.676
 6411TIP3    H119239   2.770   2.309   0.757
 6411TIP3    H219240   2.706   2.435   0.703
 6412TIP3   OH219241   0.555   4.617   3.874
 6412TIP3    H119242   0.462   4.611   3.897
 6412TIP3    H219243   0.587   4.693   3.922
 6413TIP3   OH219244   4.555   4.281   1.851
 6413TIP3    H119245   4.617   4.239   1.911
 6413TIP3    H219246   4.584   4.372   1.846
 6414TIP3   OH219247   3.285   4.092   0.405
 6414TIP3    H119248   3.340   4.136   0.340
 6414TIP3    H219249   3.293   4.146   0.483
 6415TIP3   OH219250   4.707   5.407   0.924
 6415TIP3    H119251   4.648   5.442   0.858
 6415TIP3    H219252   4.655   5.343   0.971
 6416TIP3   OH219253   5.167   4.823   3.887
 6416TIP3    H119254   5.242   4.770   3.914
 6416TIP3    H219255   5.108   4.761   3.844
 6417TIP3   OH219256   6.039   2.633   2.825
 6417TIP3    H119257   6.071   2.714   2.783
 6417TIP3    H219258   5.960   2.611   2.776
 6418TIP3   OH219259   1.316   4.892   0.628
 6418TIP3    H119260   1.242   4.865   0.572
 6418TIP3    H219261   1.381   4.823   0.616
 6419TIP3   OH219262   0.436   0.696   0.612
 6419TIP3    H119263   0.507   0.751   0.579
 6419TIP3    H219264   0.463   0.673   0.701
 6420TIP3   OH219265   4.700   1.595   3.480
 6420TIP3    H119266   4.649   1.532   3.531
 6420TIP3    H219267   4.660   1.593   3.393
 6421TIP3   OH219268   3.228   3.490   2.880
 6421TIP3    H119269   3.290   3.541   2.828
 6421TIP3    H219270   3.259   3.498   2.970
 6422TIP3   OH219271   4.463   4.713   1.061
 6422TIP3    H119272   4.535   4.756   1.015
 6422TIP3    H219273   4.393   4.707   0.996
 6423TIP3   OH219274   4.895   0.808   4.668
 6423TIP3    H119275   4.846   0.728   4.649
 6423TIP3    H219276   4.876   0.826   4.760
 6424TIP3   OH219277   6.051   2.961   1.509
 6424TIP3    H119278   6.069   3.016   1.432
 6424TIP3    H219279   6.114   2.991   1.575
 6425TIP3   OH219280   1.838   4.424   1.682
 6425TIP3    H119281   1.836   4.378   1.599
 6425TIP3    H219282   1.746   4.448   1.699
 6426TIP3   OH219283   4.839   1.047   2.517
 6426TIP3    H119284   4.863   1.133   2.485
 6426TIP3    H219285   4.817   0.997   2.438
 6427TIP3   OH219286   5.444   5.743   3.008
 6427TIP3    H119287   5.364   5.716   3.053
 6427TIP3    H219288   5.414   5.776   2.923
 6428TIP3   OH219289   2.408   2.203   2.062
 6428TIP3    H119290   2.314   2.217   2.052
 6428TIP3    H219291   2.420   2.187   2.155
 6429TIP3   OH219292   5.619   1.621   4.222
 6429TIP3    H119293   5.661   1.582   4.298
 6429TIP3    H219294   5.554   1.557   4.194
 6430TIP3   OH219295   4.102   5.937   4.390
 6430TIP3    H119296   4.149   5.867   4.434
 6430TIP3    H219297   4.098   6.007   4.455
 6431TIP3   OH219298   4.262   0.433   0.129
 6431TIP3    H119299   4.214   0.459   0.051
 6431TIP3    H219300   4.250   0.338   0.135
 6432TIP3   OH219301   0.029   2.636   3.341
 6432TIP3    H119302   0.102   2.638   3.280
 6432TIP3    H219303   0.037   2.552   3.386
 6433TIP3   OH219304   3.671   0.124   4.344
 6433TIP3    H119305   3.638   0.051   4.396
 6433TIP3    H219306   3.751   0.153   4.390
 6434TIP3   OH219307   0.655   1.114   3.425
 6434TIP3    H119308   0.716   1.121   3.352
 6434TIP3    H219309   0.711   1.111   3.503
 6435TIP3   OH219310   3.082   2.073   0.601
 6435TIP3    H119311   3.066   2.165   0.622
 6435TIP3    H219312   3.165   2.073   0.554
 6436TIP3   OH219313   1.085   4.217   0.110
 6436TIP3    H119314   1.101   4.142   0.052
 6436TIP3    H219315   1.138   4.288   0.073
 6437TIP3   OH219316   1.005   2.260   4.254
 6437TIP3    H119317   1.003   2.355   4.267
 6437TIP3    H219318   1.029   2.249   4.162
 6438TIP3   OH219319   2.235   4.099   3.218
 6438TIP3    H119320   2.278   4.112   3.302
 6438TIP3    H219321   2.196   4.184   3.197
 6439TIP3   OH219322   3.031   3.336   2.422
 6439TIP3    H119323   3.012   3.409   2.363
 6439TIP3    H219324   3.097   3.370   2.482
 6440TIP3   OH219325   4.401   5.096   0.293
 6440TIP3    H119326   4.330   5.073   0.233
 6440TIP3    H219327   4.480   5.062   0.250
 6441TIP3   OH219328   1.931   0.908   2.287
 6441TIP3    H119329   1.888   0.823   2.298
 6441TIP3    H219330   2.009   0.903   2.342
 6442TIP3   OH219331   1.337   4.324   2.990
 6442TIP3    H119332   1.313   4.400   2.937
 6442TIP3    H219333   1.273   4.256   2.966
 6443TIP3   OH219334   0.336   1.498   2.281
 6443TIP3    H119335   0.292   1.578   2.251
 6443TIP3    H219336   0.337   1.505   2.376
 6444TIP3   OH219337   0.767   1.803   1.364
 6444TIP3    H119338   0.825   1.850   1.424
 6444TIP3    H219339   0.699   1.866   1.341
 6445TIP3   OH219340   3.910   0.405   3.079
 6445TIP3    H119341   3.859   0.481   3.109
 6445TIP3    H219342   3.977   0.394   3.146
 6446TIP3   OH219343   1.476   0.639   4.337
 6446TIP3    H119344   1.422   0.671   4.409
 6446TIP3    H219345   1.485   0.545   4.354
 6447TIP3   OH219346   2.790   2.073   1.743
 6447TIP3    H119347   2.791   1.988   1.700
 6447TIP3    H219348   2.697   2.096   1.749
 6448TIP3   OH219349   3.745   2.293   4.735
 6448TIP3    H119350   3.760   2.243   4.815
 6448TIP3    H219351   3.827   2.338   4.719
 6449TIP3   OH219352   2.215   0.260   4.299
 6449TIP3    H119353   2.204   0.182   4.353
 6449TIP3    H219354   2.183   0.332   4.353
 6450TIP3   OH219355   2.729   3.964   2.223
 6450TIP3    H119356   2.802   4.005   2.269
 6450TIP3    H219357   2.687   3.909   2.288
 6451TIP3   OH219358   4.122   2.872   3.719
 6451TIP3    H119359   4.161   2.785   3.709
 6451TIP3    H219360   4.166   2.909   3.796
 6452TIP3   OH219361   2.942   1.440   2.265
 6452TIP3    H119362   2.973   1.507   2.325
 6452TIP3    H219363   2.847   1.440   2.275
 6453TIP3   OH219364   4.359   3.534   1.103
 6453TIP3    H119365   4.290   3.505   1.044
 6453TIP3    H219366   4.344   3.628   1.114
 6454TIP3   OH219367   5.813   1.274   2.981
 6454TIP3    H119368   5.907   1.286   2.989
 6454TIP3    H219369   5.794   1.201   3.040
 6455TIP3   OH219370   6.048   0.296   3.872
 6455TIP3    H119371   6.038   0.319   3.965
 6455TIP3    H219372   6.018   0.373   3.825
 6456TIP3   OH219373   3.579   0.532   0.825
 6456TIP3    H119374   3.597   0.512   0.917
 6456TIP3    H219375   3.548   0.449   0.788
 6457TIP3   OH219376   0.193   4.450   5.073
 6457TIP3    H119377   0.117   4.457   5.016
 6457TIP3    H219378   0.203   4.537   5.111
 6458TIP3   OH219379   0.896   5.958   5.074
 6458TIP3    H119380   0.936   5.886   5.026
 6458TIP3    H219381   0.802   5.943   5.067
 6459TIP3   OH219382   5.415   0.727   2.295
 6459TIP3    H119383   5.450   0.638   2.303
 6459TIP3    H219384   5.489   0.779   2.265
 6460TIP3   OH219385   4.680   4.211   2.776
 6460TIP3    H119386   4.590   4.243   2.767
 6460TIP3    H219387   4.729   4.260   2.709
 6461TIP3   OH219388   4.910   1.213   1.446
 6461TIP3    H119389   4.840   1.266   1.409
 6461TIP3    H219390   4.866   1.132   1.473
 6462TIP3   OH219391   2.093   2.053   4.066
 6462TIP3    H119392   2.125   2.037   4.155
 6462TIP3    H219393   2.019   1.993   4.057
 6463TIP3   OH219394   6.144   5.983   0.296
 6463TIP3    H119395   6.146   5.984   0.392
 6463TIP3    H219396   6.227   5.943   0.270
 6464TIP3   OH219397   2.092   1.836   4.913
 6464TIP3    H119398   2.159   1.788   4.864
 6464TIP3    H219399   2.076   1.781   4.991
 6465TIP3   OH219400   1.572   5.765   2.363
 6465TIP3    H119401   1.628   5.723   2.297
 6465TIP3    H219402   1.521   5.829   2.313
 6466TIP3   OH219403   5.213   2.598   5.015
 6466TIP3    H119404   5.131   2.583   5.062
 6466TIP3    H219405   5.249   2.511   5.002
 6467TIP3   OH219406   4.789   1.470   3.119
 6467TIP3    H119407   4.809   1.551   3.166
 6467TIP3    H219408   4.694   1.471   3.109
 6468TIP3   OH219409   3.945   3.621   2.012
 6468TIP3    H119410   3.888   3.698   2.012
 6468TIP3    H219411   3.887   3.549   2.039
 6469TIP3   OH219412   4.365   1.551   3.716
 6469TIP3    H119413   4.311   1.504   3.653
 6469TIP3    H219414   4.349   1.644   3.697
 6470TIP3   OH219415   3.109   1.455   0.733
 6470TIP3    H119416   3.034   1.448   0.792
 6470TIP3    H219417   3.075   1.430   0.647
 6471TIP3   OH219418   4.195   1.475   0.520
 6471TIP3    H119419   4.251   1.552   0.511
 6471TIP3    H219420   4.252   1.407   0.556
 6472TIP3   OH219421   3.292   3.589   4.586
 6472TIP3    H119422   3.248   3.640   4.654
 6472TIP3    H219423   3.385   3.599   4.604
 6473TIP3   OH219424   1.381   3.864   1.349
 6473TIP3    H119425   1.345   3.782   1.314
 6473TIP3    H219426   1.331   3.878   1.430
 6474TIP3   OH219427   1.559   2.312   4.862
 6474TIP3    H119428   1.499   2.342   4.794
 6474TIP3    H219429   1.628   2.265   4.815
 6475TIP3   OH219430   1.768   2.187   4.735
 6475TIP3    H119431   1.845   2.235   4.702
 6475TIP3    H219432   1.804   2.110   4.778
 6476TIP3   OH219433   0.532   1.767   4.781
 6476TIP3    H119434   0.537   1.673   4.798
 6476TIP3    H219435   0.612   1.802   4.820
 6477TIP3   OH219436   3.957   4.925   2.069
 6477TIP3    H119437   3.981   5.018   2.072
 6477TIP3    H219438   3.910   4.914   1.986
 6478TIP3   OH219439   3.869   4.164   4.314
 6478TIP3    H119440   3.811   4.088   4.319
 6478TIP3    H219441   3.811   4.236   4.290
 6479TIP3   OH219442   4.679   0.696   2.179
 6479TIP3    H119443   4.702   0.713   2.270
 6479TIP3    H219444   4.618   0.767   2.156
 6480TIP3   OH219445   1.571   5.785   2.847
 6480TIP3    H119446   1.493   5.802   2.793
 6480TIP3    H219447   1.536   5.762   2.933
 6481TIP3   OH219448   2.516   3.340   0.287
 6481TIP3    H119449   2.576   3.321   0.215
 6481TIP3    H219450   2.543   3.280   0.357
 6482TIP3   OH219451   6.013  -0.001   3.911
 6482TIP3    H119452   5.938   0.026   3.964
 6482TIP3    H219453   6.051   0.082   3.880
 6483TIP3   OH219454   2.594   0.918   3.476
 6483TIP3    H119455   2.617   0.990   3.417
 6483TIP3    H219456   2.678   0.878   3.498
 6484TIP3   OH219457   4.846   5.800   1.361
 6484TIP3    H119458   4.770   5.856   1.374
 6484TIP3    H219459   4.879   5.824   1.275
 6485TIP3   OH219460   1.010   3.204   3.755
 6485TIP3    H119461   0.973   3.225   3.840
 6485TIP3    H219462   0.966   3.262   3.693
 6486TIP3   OH219463   2.389   0.832   2.838
 6486TIP3    H119464   2.360   0.797   2.922
 6486TIP3    H219465   2.466   0.780   2.816
 6487TIP3   OH219466   0.531   2.693   3.726
 6487TIP3    H119467   0.592   2.628   3.689
 6487TIP3    H219468   0.459   2.640   3.760
 6488TIP3   OH219469   0.281   5.574   2.889
 6488TIP3    H119470   0.192   5.538   2.898
 6488TIP3    H219471   0.333   5.523   2.951
 6489TIP3   OH219472   4.477   2.173   3.932
 6489TIP3    H119473   4.402   2.126   3.896
 6489TIP3    H219474   4.441   2.257   3.960
 6490TIP3   OH219475   4.891   3.727   0.039
 6490TIP3    H119476   4.889   3.712   0.133
 6490TIP3    H219477   4.959   3.669   0.007
 6491TIP3   OH219478   2.111   5.108   3.899
 6491TIP3    H119479   2.197   5.146   3.915
 6491TIP3    H219480   2.057   5.138   3.972
 6492TIP3   OH219481   1.676   4.374   0.940
 6492TIP3    H119482   1.614   4.400   0.872
 6492TIP3    H219483   1.682   4.279   0.932
 6493TIP3   OH219484   3.110   5.038   4.530
 6493TIP3    H119485   3.144   4.961   4.576
 6493TIP3    H219486   3.020   5.046   4.562
 6494TIP3   OH219487   0.242   3.045   3.330
 6494TIP3    H119488   0.305   3.106   3.369
 6494TIP3    H219489   0.289   2.962   3.326
 6495TIP3   OH219490   0.988   4.259   3.329
 6495TIP3    H119491   1.049   4.267   3.402
 6495TIP3    H219492   1.043   4.264   3.251
 6496TIP3   OH219493   5.534   1.921   3.280
 6496TIP3    H119494   5.533   1.879   3.366
 6496TIP3    H219495   5.442   1.936   3.259
 6497TIP3   OH219496   2.937   3.397   0.146
 6497TIP3    H119497   2.986   3.462   0.196
 6497TIP3    H219498   2.997   3.369   0.077
 6498TIP3   OH219499   0.935   3.381   4.132
 6498TIP3    H119500   0.865   3.337   4.083
 6498TIP3    H219501   0.894   3.406   4.215
 6499TIP3   OH219502   5.450   2.031   2.647
 6499TIP3    H119503   5.425   1.945   2.680
 6499TIP3    H219504   5.469   2.017   2.554
 6500TIP3   OH219505   5.932   3.894   0.820
 6500TIP3    H119506   5.846   3.854   0.835
 6500TIP3    H219507   5.939   3.902   0.725
 6501TIP3   OH219508   5.137   2.303   4.083
 6501TIP3    H119509   5.149   2.212   4.057
 6501TIP3    H219510   5.204   2.351   4.034
 6502TIP3   OH219511   0.410   2.695   1.388
 6502TIP3    H119512   0.436   2.736   1.306
 6502TIP3    H219513   0.447   2.752   1.456
 6503TIP3   OH219514   3.859   5.834   5.174
 6503TIP3    H119515   3.908   5.778   5.115
 6503TIP3    H219516   3.770   5.800   5.172
 6504TIP3   OH219517   0.202   0.854   1.277
 6504TIP3    H119518   0.275   0.844   1.338
 6504TIP3    H219519   0.141   0.913   1.321
 6505TIP3   OH219520   3.482   4.064   1.102
 6505TIP3    H119521   3.514   3.982   1.140
 6505TIP3    H219522   3.419   4.036   1.035
 6506TIP3   OH219523   2.547   4.375   3.630
 6506TIP3    H119524   2.457   4.407   3.637
 6506TIP3    H219525   2.574   4.400   3.542
 6507TIP3   OH219526   6.089   1.262   1.078
 6507TIP3    H119527   6.121   1.191   1.133
 6507TIP3    H219528   6.045   1.218   1.005
 6508TIP3   OH219529   3.371   1.679   1.324
 6508TIP3    H119530   3.314   1.751   1.349
 6508TIP3    H219531   3.338   1.604   1.373
 6509TIP3   OH219532   1.054   2.591   1.597
 6509TIP3    H119533   1.094   2.537   1.666
 6509TIP3    H219534   0.995   2.531   1.551
 6510TIP3   OH219535   5.234   5.799   0.956
 6510TIP3    H119536   5.168   5.868   0.947
 6510TIP3    H219537   5.316   5.847   0.969
 6511TIP3   OH219538   2.319   2.021   1.774
 6511TIP3    H119539   2.339   2.113   1.757
 6511TIP3    H219540   2.341   1.977   1.691
 6512TIP3   OH219541   5.182   2.407   1.509
 6512TIP3    H119542   5.096   2.442   1.531
 6512TIP3    H219543   5.217   2.468   1.444
 6513TIP3   OH219544   0.116   4.241   2.540
 6513TIP3    H119545   0.209   4.257   2.525
 6513TIP3    H219546   0.114   4.168   2.602
 6514TIP3   OH219547   4.301   1.868   0.031
 6514TIP3    H119548   4.336   1.912   0.108
 6514TIP3    H219549   4.296   1.776   0.056
 6515TIP3   OH219550   1.419   3.442   4.823
 6515TIP3    H119551   1.391   3.363   4.869
 6515TIP3    H219552   1.403   3.422   4.730
 6516TIP3   OH219553   3.762   1.140   4.298
 6516TIP3    H119554   3.821   1.215   4.290
 6516TIP3    H219555   3.740   1.136   4.391
 6517TIP3   OH219556   6.160   0.372   0.727
 6517TIP3    H119557   6.068   0.359   0.746
 6517TIP3    H219558   6.174   0.330   0.642
 6518TIP3   OH219559   6.120   1.166   3.230
 6518TIP3    H119560   6.110   1.211   3.146
 6518TIP3    H219561   6.057   1.094   3.225
 6519TIP3   OH219562   0.479   0.407   1.085
 6519TIP3    H119563   0.499   0.494   1.120
 6519TIP3    H219564   0.414   0.423   1.017
 6520TIP3   OH219565   6.113   3.128   2.736
 6520TIP3    H119566   6.030   3.151   2.694
 6520TIP3    H219567   6.170   3.203   2.720
 6521TIP3   OH219568   4.077   1.713   3.764
 6521TIP3    H119569   4.049   1.783   3.823
 6521TIP3    H219570   4.073   1.752   3.677
 6522TIP3   OH219571   5.563   0.012   3.789
 6522TIP3    H119572   5.540  -0.081   3.779
 6522TIP3    H219573   5.631   0.026   3.723
 6523TIP3   OH219574   4.391   2.770   2.126
 6523TIP3    H119575   4.369   2.724   2.207
 6523TIP3    H219576   4.456   2.714   2.084
 6524TIP3   OH219577   4.669   1.078   2.029
 6524TIP3    H119578   4.606   1.151   2.036
 6524TIP3    H219579   4.747   1.118   1.991
 6525TIP3   OH219580   2.786   0.177   2.759
 6525TIP3    H119581   2.692   0.156   2.760
 6525TIP3    H219582   2.789   0.272   2.762
 6526TIP3   OH219583   1.485   2.876   4.275
 6526TIP3    H119584   1.539   2.869   4.353
 6526TIP3    H219585   1.412   2.932   4.300
 6527TIP3   OH219586   1.736   3.942   0.798
 6527TIP3    H119587   1.726   3.981   0.711
 6527TIP3    H219588   1.809   3.880   0.788
 6528TIP3   OH219589   5.088   1.791   1.417
 6528TIP3    H119590   5.178   1.799   1.449
 6528TIP3    H219591   5.053   1.880   1.425
 6529TIP3   OH219592   0.243   2.852   4.710
 6529TIP3    H119593   0.232   2.912   4.783
 6529TIP3    H219594   0.259   2.909   4.635
 6530TIP3   OH219595   0.126   3.677   1.226
 6530TIP3    H119596   0.075   3.681   1.306
 6530TIP3    H219597   0.184   3.753   1.231
 6531TIP3   OH219598   2.239   4.391   3.574
 6531TIP3    H119599   2.248   4.486   3.560
 6531TIP3    H219600   2.149   4.372   3.550
 6532TIP3   OH219601   4.706   1.662   2.213
 6532TIP3    H119602   4.686   1.679   2.305
 6532TIP3    H219603   4.671   1.574   2.196
 6533TIP3   OH219604   0.336   2.057   1.620
 6533TIP3    H119605   0.284   2.032   1.697
 6533TIP3    H219606   0.422   2.020   1.637
 6534TIP3   OH219607  -0.002   0.372   5.015
 6534TIP3    H119608   0.089   0.351   5.034
 6534TIP3    H219609  -0.001   0.466   4.996
 6535TIP3   OH219610   1.441   0.730   0.833
 6535TIP3    H119611   1.468   0.647   0.793
 6535TIP3    H219612   1.459   0.718   0.927
 6536TIP3   OH219613   1.011   5.204   3.303
 6536TIP3    H119614   0.948   5.244   3.362
 6536TIP3    H219615   1.064   5.147   3.358
 6537TIP3   OH219616   2.336   4.915   0.240
 6537TIP3    H119617   2.364   4.844   0.183
 6537TIP3    H219618   2.389   4.990   0.213
 6538TIP3   OH219619   2.657   1.346   3.574
 6538TIP3    H119620   2.626   1.309   3.491
 6538TIP3    H219621   2.673   1.438   3.554
 6539TIP3   OH219622   4.055   2.241   3.433
 6539TIP3    H119623   3.982   2.183   3.413
 6539TIP3    H219624   4.101   2.197   3.506
 6540TIP3   OH219625   2.685   2.377   3.533
 6540TIP3    H119626   2.756   2.420   3.580
 6540TIP3    H219627   2.675   2.292   3.575
 6541TIP3   OH219628   3.349   1.934   4.706
 6541TIP3    H119629   3.282   1.971   4.764
 6541TIP3    H219630   3.300   1.885   4.640
 6542TIP3   OH219631   5.918   2.660   3.657
 6542TIP3    H119632   5.913   2.756   3.652
 6542TIP3    H219633   5.989   2.637   3.598
 6543TIP3   OH219634   1.713   5.474   3.088
 6543TIP3    H119635   1.683   5.443   3.002
 6543TIP3    H219636   1.808   5.463   3.085
 6544TIP3   OH219637   3.674   2.975   4.301
 6544TIP3    H119638   3.696   2.916   4.229
 6544TIP3    H219639   3.640   3.054   4.257
 6545TIP3   OH219640   5.454   1.412   4.199
 6545TIP3    H119641   5.358   1.401   4.202
 6545TIP3    H219642   5.484   1.384   4.286
 6546TIP3   OH219643   1.944   0.018   1.868
 6546TIP3    H119644   1.866   0.051   1.913
 6546TIP3    H219645   2.017   0.044   1.925
 6547TIP3   OH219646   5.550   5.411   0.890
 6547TIP3    H119647   5.457   5.417   0.912
 6547TIP3    H219648   5.595   5.452   0.964
 6548TIP3   OH219649   0.358   5.471   3.930
 6548TIP3    H119650   0.299   5.413   3.882
 6548TIP3    H219651   0.342   5.558   3.893
 6549TIP3   OH219652   2.615   5.031   0.224
 6549TIP3    H119653   2.662   5.094   0.169
 6549TIP3    H219654   2.643   5.051   0.313
 6550TIP3   OH219655   5.845   1.337   0.753
 6550TIP3    H119656   5.790   1.414   0.737
 6550TIP3    H219657   5.793   1.282   0.810
 6551TIP3   OH219658   4.649   1.948   0.085
 6551TIP3    H119659   4.566   1.973   0.124
 6551TIP3    H219660   4.663   1.857   0.113
 6552TIP3   OH219661   4.800   2.879   3.534
 6552TIP3    H119662   4.833   2.938   3.602
 6552TIP3    H219663   4.715   2.851   3.566
 6553TIP3   OH219664   3.110   2.617   2.140
 6553TIP3    H119665   3.079   2.690   2.193
 6553TIP3    H219666   3.134   2.550   2.204
 6554TIP3   OH219667   5.635   5.808   0.674
 6554TIP3    H119668   5.609   5.898   0.654
 6554TIP3    H219669   5.719   5.796   0.629
 6555TIP3   OH219670   3.721   5.572   3.918
 6555TIP3    H119671   3.693   5.492   3.873
 6555TIP3    H219672   3.693   5.558   4.009
 6556TIP3   OH219673   0.367   5.457   1.672
 6556TIP3    H119674   0.295   5.504   1.631
 6556TIP3    H219675   0.441   5.518   1.669
 6557TIP3   OH219676   3.812   5.581   4.730
 6557TIP3    H119677   3.773   5.520   4.668
 6557TIP3    H219678   3.743   5.597   4.795
 6558TIP3   OH219679   4.509   5.141   1.659
 6558TIP3    H119680   4.556   5.088   1.723
 6558TIP3    H219681   4.435   5.177   1.707
 6559TIP3   OH219682   5.586   1.180   2.305
 6559TIP3    H119683   5.559   1.149   2.392
 6559TIP3    H219684   5.673   1.142   2.293
 6560TIP3   OH219685   2.334   5.304   0.361
 6560TIP3    H119686   2.381   5.253   0.428
 6560TIP3    H219687   2.242   5.284   0.377
 6561TIP3   OH219688   5.557   5.141   1.044
 6561TIP3    H119689   5.534   5.049   1.050
 6561TIP3    H219690   5.602   5.149   0.960
 6562TIP3   OH219691   3.111   1.531   5.044
 6562TIP3    H119692   3.044   1.556   5.108
 6562TIP3    H219693   3.189   1.580   5.070
 6563TIP3   OH219694   3.819   3.771   1.089
 6563TIP3    H119695   3.848   3.684   1.060
 6563TIP3    H219696   3.740   3.755   1.140
 6564TIP3   OH219697   2.223   1.497   0.237
 6564TIP3    H119698   2.249   1.417   0.283
 6564TIP3    H219699   2.130   1.507   0.257
 6565TIP3   OH219700   3.165   2.996   3.646
 6565TIP3    H119701   3.224   2.926   3.674
 6565TIP3    H219702   3.159   3.055   3.722
 6566TIP3   OH219703   1.252   5.294   3.983
 6566TIP3    H119704   1.255   5.389   3.975
 6566TIP3    H219705   1.184   5.267   3.921
 6567TIP3   OH219706   6.062   4.157   2.776
 6567TIP3    H119707   6.022   4.119   2.854
 6567TIP3    H219708   6.119   4.088   2.742
 6568TIP3   OH219709   1.852   1.377   2.416
 6568TIP3    H119710   1.811   1.295   2.442
 6568TIP3    H219711   1.800   1.408   2.342
 6569TIP3   OH219712   3.659   3.427   4.537
 6569TIP3    H119713   3.586   3.454   4.592
 6569TIP3    H219714   3.700   3.355   4.585
 6570TIP3   OH219715   3.744   0.416   2.514
 6570TIP3    H119716   3.828   0.420   2.469
 6570TIP3    H219717   3.748   0.335   2.565
 6571TIP3   OH219718   6.090   2.799   2.496
 6571TIP3    H119719   6.185   2.790   2.505
 6571TIP3    H219720   6.078   2.841   2.411
 6572TIP3   OH219721   4.538   2.918   3.820
 6572TIP3    H119722   4.559   2.960   3.737
 6572TIP3    H219723   4.490   2.985   3.870
 6573TIP3   OH219724   4.651   0.736   1.540
 6573TIP3    H119725   4.670   0.744   1.634
 6573TIP3    H219726   4.709   0.799   1.498
 6574TIP3   OH219727   4.867   2.460   2.878
 6574TIP3    H119728   4.781   2.503   2.881
 6574TIP3    H219729   4.859   2.395   2.809
 6575TIP3   OH219730   1.277   4.574   3.155
 6575TIP3    H119731   1.271   4.566   3.060
 6575TIP3    H219732   1.187   4.569   3.185
 6576TIP3   OH219733   2.828   4.481   0.039
 6576TIP3    H119734   2.806   4.481   0.132
 6576TIP3    H219735   2.863   4.394   0.022
 6577TIP3   OH219736   3.520   4.620   2.894
 6577TIP3    H119737   3.466   4.555   2.940
 6577TIP3    H219738   3.474   4.703   2.908
 6578TIP3   OH219739   2.631   4.026   3.673
 6578TIP3    H119740   2.716   3.990   3.698
 6578TIP3    H219741   2.607   4.084   3.745
 6579TIP3   OH219742   2.326   2.410   3.154
 6579TIP3    H119743   2.382   2.407   3.231
 6579TIP3    H219744   2.331   2.501   3.124
 6580TIP3   OH219745   4.151   2.663   4.960
 6580TIP3    H119746   4.151   2.727   4.889
 6580TIP3    H219747   4.059   2.649   4.981
 6581TIP3   OH219748   0.554   2.575   1.113
 6581TIP3    H119749   0.542   2.488   1.152
 6581TIP3    H219750   0.474   2.588   1.062
 6582TIP3   OH219751   3.109   2.290  -0.023
 6582TIP3    H119752   3.107   2.303   0.072
 6582TIP3    H219753   3.018   2.295  -0.050
 6583TIP3   OH219754   0.464   0.232   0.649
 6583TIP3    H119755   0.452   0.184   0.567
 6583TIP3    H219756   0.555   0.218   0.673
 6584TIP3   OH219757   4.667   2.773   4.684
 6584TIP3    H119758   4.760   2.776   4.707
 6584TIP3    H219759   4.666   2.755   4.590
 6585TIP3   OH219760   2.818   4.071   4.913
 6585TIP3    H119761   2.805   4.038   5.002
 6585TIP3    H219762   2.874   4.148   4.924
 6586TIP3   OH219763   1.431   3.060   1.173
 6586TIP3    H119764   1.378   3.064   1.252
 6586TIP3    H219765   1.416   3.145   1.130
 6587TIP3   OH219766   6.195   2.728   4.580
 6587TIP3    H119767   6.257   2.656   4.568
 6587TIP3    H219768   6.245   2.795   4.626
 6588TIP3   OH219769   0.919   5.364   1.791
 6588TIP3    H119770   0.939   5.422   1.718
 6588TIP3    H219771   0.836   5.396   1.826
 6589TIP3   OH219772   5.669   0.175   3.117
 6589TIP3    H119773   5.732   0.114   3.079
 6589TIP3    H219774   5.592   0.121   3.136
 6590TIP3   OH219775   5.278   1.376   0.782
 6590TIP3    H119776   5.272   1.398   0.875
 6590TIP3    H219777   5.193   1.401   0.745
 6591TIP3   OH219778   3.396   2.079   4.080
 6591TIP3    H119779   3.319   2.033   4.112
 6591TIP3    H219780   3.414   2.145   4.147
 6592TIP3   OH219781   5.942   1.548   3.099
 6592TIP3    H119782   5.874   1.615   3.096
 6592TIP3    H219783   6.010   1.580   3.040
 6593TIP3   OH219784   5.847   4.180   3.894
 6593TIP3    H119785   5.942   4.185   3.884
 6593TIP3    H219786   5.829   4.087   3.905
 6594TIP3   OH219787   0.825   1.206   1.307
 6594TIP3    H119788   0.870   1.287   1.328
 6594TIP3    H219789   0.846   1.189   1.216
 6595TIP3   OH219790   5.971   5.491   1.666
 6595TIP3    H119791   5.926   5.471   1.583
 6595TIP3    H219792   5.911   5.459   1.733
 6596TIP3   OH219793   0.776  -0.028   2.316
 6596TIP3    H119794   0.861  -0.069   2.331
 6596TIP3    H219795   0.796   0.055   2.272
 6597TIP3   OH219796   1.113   1.240   0.586
 6597TIP3    H119797   1.158   1.271   0.665
 6597TIP3    H219798   1.123   1.145   0.589
 6598TIP3   OH219799   1.339   4.483   2.176
 6598TIP3    H119800   1.294   4.462   2.257
 6598TIP3    H219801   1.276   4.536   2.126
 6599TIP3   OH219802   2.591   4.196   0.036
 6599TIP3    H119803   2.632   4.167   0.117
 6599TIP3    H219804   2.559   4.115  -0.004
 6600TIP3   OH219805   2.607   4.514   3.166
 6600TIP3    H119806   2.528   4.465   3.190
 6600TIP3    H219807   2.588   4.604   3.191
 6601TIP3   OH219808   0.556   3.430   0.654
 6601TIP3    H119809   0.539   3.479   0.735
 6601TIP3    H219810   0.597   3.493   0.595
 6602TIP3   OH219811   2.400   0.113   1.913
 6602TIP3    H119812   2.459   0.185   1.938
 6602TIP3    H219813   2.380   0.130   1.821
 6603TIP3   OH219814   2.591   5.086   3.973
 6603TIP3    H119815   2.586   5.018   4.040
 6603TIP3    H219816   2.573   5.039   3.891
 6604TIP3   OH219817   4.463   3.029   2.998
 6604TIP3    H119818   4.474   3.012   2.905
 6604TIP3    H219819   4.446   3.123   3.004
 6605TIP3   OH219820   2.618   3.160   2.356
 6605TIP3    H119821   2.631   3.249   2.324
 6605TIP3    H219822   2.603   3.108   2.276
 6606TIP3   OH219823   5.242   5.741   2.783
 6606TIP3    H119824   5.253   5.831   2.752
 6606TIP3    H219825   5.156   5.741   2.826
 6607TIP3   OH219826   2.881   3.104   2.347
 6607TIP3    H119827   2.785   3.110   2.345
 6607TIP3    H219828   2.910   3.194   2.361
 6608TIP3   OH219829   0.028   5.753   4.586
 6608TIP3    H119830  -0.067   5.747   4.569
 6608TIP3    H219831   0.052   5.665   4.615
 6609TIP3   OH219832   2.185   4.500   1.931
 6609TIP3    H119833   2.271   4.499   1.889
 6609TIP3    H219834   2.163   4.593   1.938
 6610TIP3   OH219835   0.360   0.249   1.893
 6610TIP3    H119836   0.374   0.178   1.831
 6610TIP3    H219837   0.290   0.302   1.854
 6611TIP3   OH219838   2.063   2.159   2.641
 6611TIP3    H119839   1.971   2.135   2.629
 6611TIP3    H219840   2.062   2.223   2.712
 6612TIP3   OH219841   3.891   1.530   3.027
 6612TIP3    H119842   3.877   1.437   3.041
 6612TIP3    H219843   3.808   1.571   3.055
 6613TIP3   OH219844   4.755   5.672   1.007
 6613TIP3    H119845   4.710   5.591   0.985
 6613TIP3    H219846   4.742   5.683   1.101
 6614TIP3   OH219847   0.114   1.358   2.693
 6614TIP3    H119848   0.183   1.329   2.752
 6614TIP3    H219849   0.135   1.319   2.609
 6615TIP3   OH219850   2.651   0.449   3.561
 6615TIP3    H119851   2.605   0.366   3.557
 6615TIP3    H219852   2.584   0.515   3.541
 6616TIP3   OH219853   4.680   0.597   3.161
 6616TIP3    H119854   4.660   0.583   3.253
 6616TIP3    H219855   4.625   0.671   3.136
 6617TIP3   OH219856   1.194   3.972   2.896
 6617TIP3    H119857   1.146   4.047   2.862
 6617TIP3    H219858   1.182   3.903   2.831
 6618TIP3   OH219859   4.909   3.861   1.616
 6618TIP3    H119860   4.998   3.880   1.646
 6618TIP3    H219861   4.865   3.826   1.694
 6619TIP3   OH219862   1.859   1.907   4.471
 6619TIP3    H119863   1.800   1.841   4.432
 6619TIP3    H219864   1.904   1.859   4.541
 6620TIP3   OH219865   1.125   2.186   3.023
 6620TIP3    H119866   1.068   2.240   2.968
 6620TIP3    H219867   1.201   2.166   2.969
 6621TIP3   OH219868   6.154   2.626   1.613
 6621TIP3    H119869   6.148   2.690   1.543
 6621TIP3    H219870   6.108   2.665   1.687
 6622TIP3   OH219871   2.589   0.628   4.520
 6622TIP3    H119872   2.528   0.639   4.447
 6622TIP3    H219873   2.648   0.702   4.514
 6623TIP3   OH219874   0.208   4.988   4.419
 6623TIP3    H119875   0.133   5.047   4.428
 6623TIP3    H219876   0.280   5.036   4.459
 6624TIP3   OH219877   6.216   1.190   2.325
 6624TIP3    H119878   6.131   1.201   2.283
 6624TIP3    H219879   6.266   1.134   2.266
 6625TIP3   OH219880   1.946  -0.053   3.307
 6625TIP3    H119881   1.967   0.028   3.353
 6625TIP3    H219882   2.029  -0.101   3.303
 6626TIP3   OH219883   5.243   2.347   4.904
 6626TIP3    H119884   5.323   2.370   4.855
 6626TIP3    H219885   5.185   2.310   4.838
 6627TIP3   OH219886   5.740   3.015   2.510
 6627TIP3    H119887   5.788   3.000   2.429
 6627TIP3    H219888   5.802   2.992   2.579
 6628TIP3   OH219889   1.588   5.815   4.962
 6628TIP3    H119890   1.618   5.867   4.887
 6628TIP3    H219891   1.612   5.868   5.038
 6629TIP3   OH219892   5.484   4.304   1.908
 6629TIP3    H119893   5.532   4.386   1.898
 6629TIP3    H219894   5.396   4.322   1.876
 6630TIP3   OH219895   4.870   5.699   2.544
 6630TIP3    H119896   4.965   5.693   2.542
 6630TIP3    H219897   4.841   5.621   2.496
 6631TIP3   OH219898   2.792   5.891   1.858
 6631TIP3    H119899   2.740   5.839   1.919
 6631TIP3    H219900   2.730   5.921   1.792
 6632TIP3   OH219901   2.997   0.425   2.196
 6632TIP3    H119902   2.915   0.400   2.155
 6632TIP3    H219903   2.985   0.517   2.221
 6633TIP3   OH219904   0.456   2.550   2.087
 6633TIP3    H119905   0.394   2.612   2.049
 6633TIP3    H219906   0.542   2.585   2.064
 6634TIP3   OH219907   2.721   3.201   3.295
 6634TIP3    H119908   2.785   3.142   3.255
 6634TIP3    H219909   2.674   3.147   3.358
 6635TIP3   OH219910   1.736   2.457   4.331
 6635TIP3    H119911   1.660   2.449   4.387
 6635TIP3    H219912   1.785   2.376   4.344
 6636TIP3   OH219913   1.748   0.699   2.210
 6636TIP3    H119914   1.703   0.679   2.128
 6636TIP3    H219915   1.702   0.775   2.245
 6637TIP3   OH219916   3.440   5.090   3.572
 6637TIP3    H119917   3.446   5.179   3.537
 6637TIP3    H219918   3.433   5.034   3.494
 6638TIP3   OH219919   2.341   3.768   1.385
 6638TIP3    H119920   2.337   3.843   1.326
 6638TIP3    H219921   2.302   3.800   1.467
 6639TIP3   OH219922   3.452   0.865   3.337
 6639TIP3    H119923   3.366   0.862   3.380
 6639TIP3    H219924   3.459   0.781   3.292
 6640TIP3   OH219925   2.681   2.727   3.782
 6640TIP3    H119926   2.664   2.711   3.689
 6640TIP3    H219927   2.603   2.775   3.812
   6.33486   5.97256   5.17239   0.00000   0.00000  -2.11162   0.00000  -2.11162  -2.98629
